                         Program Version 4.2.1 -  RELEASE  -
|  1> ! wB97X-D3 SP def2-SVP
|  2> %pal
|  3> nprocs 24
|  4> end
|  5>
|  6> * xyz 0 1
|  7> S 	 47.8496 	 -14.6246 	 -109.94
|  8> C 	 48.8611 	 -14.3736 	 -111.268
|  9> C 	 48.5384 	 -13.2139 	 -111.944
| 10> C 	 47.5046 	 -12.4653 	 -111.317
| 11> C 	 46.8817 	 -13.2006 	 -110.328
| 12> H 	 46.9221 	 -11.6195 	 -111.627
| 13> C 	 49.2284 	 -12.8148 	 -113.21
| 14> H 	 48.5052 	 -12.8529 	 -114.049
| 15> H 	 49.9278 	 -13.555 	 -113.636
| 16> C 	 49.9205 	 -11.4631 	 -113.219
| 17> H 	 49.2628 	 -10.6379 	 -112.977
| 18> H 	 50.5804 	 -11.4554 	 -112.41
| 19> C 	 50.6547 	 -11.0483 	 -114.429
| 20> H 	 51.4278 	 -10.3181 	 -114.257
| 21> H 	 51.0118 	 -11.928 	 -115.006
| 22> H 	 49.9301 	 -10.5908 	 -115.109
| 23> S 	 44.1859 	 -12.7839 	 -110.326
| 24> C 	 43.3468 	 -12.4203 	 -108.87
| 25> C 	 44.2145 	 -12.3782 	 -107.794
| 26> C 	 45.6085 	 -12.5149 	 -108.138
| 27> C 	 45.7464 	 -12.7374 	 -109.507
| 28> H 	 43.8799 	 -12.2809 	 -106.769
| 29> C 	 46.6799 	 -12.5688 	 -107.178
| 30> H 	 47.2076 	 -13.5042 	 -107.131
| 31> H 	 46.1815 	 -12.4347 	 -106.224
| 32> C 	 47.8309 	 -11.5067 	 -107.349
| 33> H 	 48.3762 	 -11.8132 	 -108.263
| 34> H 	 48.5322 	 -11.4076 	 -106.448
| 35> C 	 47.3016 	 -10.0695 	 -107.442
| 36> H 	 46.4312 	 -9.81582 	 -108.138
| 37> H 	 48.1428 	 -9.32305 	 -107.623
| 38> H 	 46.8527 	 -9.8314 	 -106.517
| 39> H 	 49.6123 	 -15.0373 	 -111.652
| 40> H 	 42.2953 	 -12.4441 	 -108.723
| 41> *
| 42>
| 43>                          ****END OF INPUT****

CARTESIAN COORDINATES (ANGSTROEM)
---------------------------------
  S     47.849600  -14.624600  -109.940000
  C     48.861100  -14.373600  -111.268000
  C     48.538400  -13.213900  -111.944000
  C     47.504600  -12.465300  -111.317000
  C     46.881700  -13.200600  -110.328000
  H     46.922100  -11.619500  -111.627000
  C     49.228400  -12.814800  -113.210000
  H     48.505200  -12.852900  -114.049000
  H     49.927800  -13.555000  -113.636000
  C     49.920500  -11.463100  -113.219000
  H     49.262800  -10.637900  -112.977000
  H     50.580400  -11.455400  -112.410000
  C     50.654700  -11.048300  -114.429000
  H     51.427800  -10.318100  -114.257000
  H     51.011800  -11.928000  -115.006000
  H     49.930100  -10.590800  -115.109000
  S     44.185900  -12.783900  -110.326000
  C     43.346800  -12.420300  -108.870000
  C     44.214500  -12.378200  -107.794000
  C     45.608500  -12.514900  -108.138000
  C     45.746400  -12.737400  -109.507000
  H     43.879900  -12.280900  -106.769000
  C     46.679900  -12.568800  -107.178000
  H     47.207600  -13.504200  -107.131000
  H     46.181500  -12.434700  -106.224000
  C     47.830900  -11.506700  -107.349000
  H     48.376200  -11.813200  -108.263000
  H     48.532200  -11.407600  -106.448000
  C     47.301600  -10.069500  -107.442000
  H     46.431200   -9.815820  -108.138000
  H     48.142800   -9.323050  -107.623000
  H     46.852700   -9.831400  -106.517000
  H     49.612300  -15.037300  -111.652000
  H     42.295300  -12.444100  -108.723000

 Total Charge           Charge          ....    0
 Multiplicity           Mult            ....    1
 Number of Electrons    NEL             ....  134
 Basis Dimension        Dim             ....  322

ORBITAL ENERGIES
----------------

  NO   OCC          E(Eh)            E(eV)
   0   2.0000     -88.968117     -2420.9455
   1   2.0000     -88.967489     -2420.9284
   2   2.0000     -10.329433      -281.0782
   3   2.0000     -10.325581      -280.9734
   4   2.0000     -10.314145      -280.6622
   5   2.0000     -10.309367      -280.5321
   6   2.0000     -10.301197      -280.3098
   7   2.0000     -10.300833      -280.2999
   8   2.0000     -10.294827      -280.1365
   9   2.0000     -10.293671      -280.1050
  10   2.0000     -10.292890      -280.0838
  11   2.0000     -10.291635      -280.0496
  12   2.0000     -10.285317      -279.8777
  13   2.0000     -10.275277      -279.6045
  14   2.0000     -10.274276      -279.5773
  15   2.0000     -10.271892      -279.5124
  16   2.0000      -8.083285      -219.9574
  17   2.0000      -8.082370      -219.9325
  18   2.0000      -6.041600      -164.4003
  19   2.0000      -6.040858      -164.3801
  20   2.0000      -6.037688      -164.2939
  21   2.0000      -6.036757      -164.2685
  22   2.0000      -6.034274      -164.2009
  23   2.0000      -6.033249      -164.1730
  24   2.0000      -1.010911       -27.5083
  25   2.0000      -0.990184       -26.9443
  26   2.0000      -0.917118       -24.9560
  27   2.0000      -0.910899       -24.7868
  28   2.0000      -0.872779       -23.7495
  29   2.0000      -0.856683       -23.3115
  30   2.0000      -0.846617       -23.0376
  31   2.0000      -0.817689       -22.2505
  32   2.0000      -0.782741       -21.2995
  33   2.0000      -0.770368       -20.9628
  34   2.0000      -0.709636       -19.3102
  35   2.0000      -0.696710       -18.9585
  36   2.0000      -0.684164       -18.6171
  37   2.0000      -0.669432       -18.2162
  38   2.0000      -0.648159       -17.6373
  39   2.0000      -0.618130       -16.8202
  40   2.0000      -0.592195       -16.1144
  41   2.0000      -0.574121       -15.6226
  42   2.0000      -0.561644       -15.2831
  43   2.0000      -0.554646       -15.0927
  44   2.0000      -0.542759       -14.7692
  45   2.0000      -0.530271       -14.4294
  46   2.0000      -0.513284       -13.9672
  47   2.0000      -0.511518       -13.9191
  48   2.0000      -0.509877       -13.8745
  49   2.0000      -0.497346       -13.5335
  50   2.0000      -0.486546       -13.2396
  51   2.0000      -0.481624       -13.1056
  52   2.0000      -0.477177       -12.9846
  53   2.0000      -0.465905       -12.6779
  54   2.0000      -0.456809       -12.4304
  55   2.0000      -0.451885       -12.2964
  56   2.0000      -0.436057       -11.8657
  57   2.0000      -0.435390       -11.8476
  58   2.0000      -0.431273       -11.7355
  59   2.0000      -0.424686       -11.5563
  60   2.0000      -0.423584       -11.5263
  61   2.0000      -0.410798       -11.1784
  62   2.0000      -0.403801       -10.9880
  63   2.0000      -0.344179        -9.3656
  64   2.0000      -0.331800        -9.0287
  65   2.0000      -0.325238        -8.8502
  66   2.0000      -0.299836        -8.1590
  67   0.0000       0.035672         0.9707
  68   0.0000       0.059763         1.6262
  69   0.0000       0.113779         3.0961
  70   0.0000       0.116012         3.1568
  71   0.0000       0.130386         3.5480

MULLIKEN ATOMIC CHARGES
-----------------------
   0 S :    0.124770
   1 C :   -0.108098
   2 C :   -0.055372
   3 C :    0.044907
   4 C :   -0.175665
   5 H :    0.017081
   6 C :    0.058917
   7 H :    0.024522
   8 H :    0.006447
   9 C :   -0.055107
  10 H :    0.020728
  11 H :    0.007082
  12 C :   -0.038177
  13 H :    0.038955
  14 H :    0.024297
  15 H :    0.023359
  16 S :    0.116707
  17 C :   -0.066577
  18 C :   -0.048830
  19 C :   -0.035725
  20 C :   -0.182216
  21 H :    0.016600
  22 C :    0.089875
  23 H :    0.036678
  24 H :    0.002488
  25 C :   -0.093334
  26 H :    0.052348
  27 H :    0.046932
  28 C :   -0.086964
  29 H :    0.047006
  30 H :    0.044719
  31 H :    0.009913
  32 H :    0.043194
  33 H :    0.048539
Sum of atomic charges:   -0.0000000

LOEWDIN ATOMIC CHARGES
----------------------
   0 S :    0.427118
   1 C :   -0.211667
   2 C :   -0.063400
   3 C :   -0.056531
   4 C :   -0.194002
   5 H :    0.033497
   6 C :   -0.036615
   7 H :    0.031408
   8 H :    0.028828
   9 C :   -0.047314
  10 H :    0.024227
  11 H :    0.015675
  12 C :   -0.063720
  13 H :    0.028470
  14 H :    0.026013
  15 H :    0.025901
  16 S :    0.423989
  17 C :   -0.194552
  18 C :   -0.067805
  19 C :   -0.057335
  20 C :   -0.196294
  21 H :    0.029119
  22 C :   -0.037989
  23 H :    0.030925
  24 H :    0.028252
  25 C :   -0.039875
  26 H :    0.025799
  27 H :    0.037003
  28 C :   -0.083092
  29 H :    0.031287
  30 H :    0.032644
  31 H :    0.013780
  32 H :    0.029755
  33 H :    0.026501

  Mayer bond orders larger than 0.100000
B(  0-S ,  1-C ) :   1.1534 B(  0-S ,  4-C ) :   1.1486 B(  1-C ,  2-C ) :   1.6010
B(  1-C , 32-H ) :   0.9682 B(  2-C ,  3-C ) :   1.2283 B(  2-C ,  6-C ) :   1.0378
B(  3-C ,  4-C ) :   1.5900 B(  3-C ,  5-H ) :   0.9889 B(  4-C , 20-C ) :   1.0108
B(  6-C ,  7-H ) :   0.9322 B(  6-C ,  8-H ) :   0.9362 B(  6-C ,  9-C ) :   1.0576
B(  9-C , 10-H ) :   0.9501 B(  9-C , 11-H ) :   0.9543 B(  9-C , 12-C ) :   1.0935
B( 12-C , 13-H ) :   0.9726 B( 12-C , 14-H ) :   0.9719 B( 12-C , 15-H ) :   0.9730
B( 16-S , 17-C ) :   1.1632 B( 16-S , 20-C ) :   1.1589 B( 17-C , 18-C ) :   1.5977
B( 17-C , 33-H ) :   0.9685 B( 18-C , 19-C ) :   1.2547 B( 18-C , 21-H ) :   0.9843
B( 19-C , 20-C ) :   1.5596 B( 19-C , 22-C ) :   1.0627 B( 22-C , 23-H ) :   0.9305
B( 22-C , 24-H ) :   0.9209 B( 22-C , 25-C ) :   1.0594 B( 25-C , 26-H ) :   0.9557
B( 25-C , 27-H ) :   0.9585 B( 25-C , 28-C ) :   1.0627 B( 28-C , 29-H ) :   0.9709
B( 28-C , 30-H ) :   0.9753 B( 28-C , 31-H ) :   0.9758

Dispersion correction           -0.015000136
FINAL SINGLE POINT ENERGY     -1339.874303851280

DIPOLE MOMENT
-------------
                                X             Y             Z
Electronic contribution:    -17.25150     -15.65522       3.56059
Nuclear contribution   :     17.41170      15.78011      -3.51962
                        -----------------------------------------
Total Dipole Moment    :      0.16020       0.12489       0.04098
                        -----------------------------------------
Magnitude (a.u.)       :      0.20722
Magnitude (Debye)      :      0.52671

Rotational constants in cm-1:     0.020669     0.007937     0.007433
Rotational constants in MHz :   619.629840   237.931725   222.830425

                             ****ORCA TERMINATED NORMALLY****
TOTAL RUN TIME: 0 days 0 hours 0 minutes 20 seconds 868 msec
