                         Program Version 4.2.1 -  RELEASE  -
|  1> ! wB97X-D3 SP def2-SVP
|  2> %pal
|  3> nprocs 24
|  4> end
|  5>
|  6> * xyz 0 1
|  7> S 	 -49.4423 	 13.5403 	 26.2942
|  8> C 	 -48.6415 	 14.0968 	 24.7876
|  9> C 	 -49.341 	 13.6984 	 23.694
| 10> C 	 -50.5196 	 12.9327 	 24.0281
| 11> C 	 -50.6881 	 12.6876 	 25.3853
| 12> H 	 -51.2567 	 12.5711 	 23.3243
| 13> C 	 -48.8778 	 13.8949 	 22.259
| 14> H 	 -47.8274 	 13.5935 	 22.1242
| 15> H 	 -49.0194 	 14.9962 	 22.1475
| 16> C 	 -49.7012 	 13.2562 	 21.1357
| 17> H 	 -49.5889 	 12.2536 	 21.3168
| 18> H 	 -50.8263 	 13.3627 	 21.1376
| 19> C 	 -49.1736 	 13.7189 	 19.7211
| 20> H 	 -48.7069 	 14.7108 	 19.6725
| 21> H 	 -48.4728 	 13.0467 	 19.2898
| 22> H 	 -49.929 	 13.7116 	 19.0011
| 23> S 	 -52.6188 	 13.0199 	 27.3829
| 24> C 	 -53.8634 	 11.836 	 27.5811
| 25> C 	 -53.569 	 10.7186 	 26.8021
| 26> C 	 -52.4573 	 10.909 	 25.8828
| 27> C 	 -51.856 	 12.1238 	 26.0711
| 28> H 	 -54.2714 	 9.86255 	 26.8851
| 29> C 	 -51.9792 	 9.70522 	 25.073
| 30> H 	 -51.6622 	 10.1473 	 24.1279
| 31> H 	 -52.9064 	 9.14731 	 24.8953
| 32> C 	 -50.9248 	 8.75059 	 25.7948
| 33> H 	 -51.2938 	 8.33952 	 26.7111
| 34> H 	 -50.0697 	 9.40502 	 26.0168
| 35> C 	 -50.4955 	 7.75205 	 24.7109
| 36> H 	 -49.8629 	 7.02634 	 25.0866
| 37> H 	 -49.9695 	 8.28408 	 23.9781
| 38> H 	 -51.348 	 7.24002 	 24.1993
| 39> H 	 -47.6273 	 14.5029 	 24.7333
| 40> H 	 -54.68 	 11.741 	 28.3536
| 41> *
| 42>
| 43>                          ****END OF INPUT****

CARTESIAN COORDINATES (ANGSTROEM)
---------------------------------
  S    -49.442300   13.540300   26.294200
  C    -48.641500   14.096800   24.787600
  C    -49.341000   13.698400   23.694000
  C    -50.519600   12.932700   24.028100
  C    -50.688100   12.687600   25.385300
  H    -51.256700   12.571100   23.324300
  C    -48.877800   13.894900   22.259000
  H    -47.827400   13.593500   22.124200
  H    -49.019400   14.996200   22.147500
  C    -49.701200   13.256200   21.135700
  H    -49.588900   12.253600   21.316800
  H    -50.826300   13.362700   21.137600
  C    -49.173600   13.718900   19.721100
  H    -48.706900   14.710800   19.672500
  H    -48.472800   13.046700   19.289800
  H    -49.929000   13.711600   19.001100
  S    -52.618800   13.019900   27.382900
  C    -53.863400   11.836000   27.581100
  C    -53.569000   10.718600   26.802100
  C    -52.457300   10.909000   25.882800
  C    -51.856000   12.123800   26.071100
  H    -54.271400    9.862550   26.885100
  C    -51.979200    9.705220   25.073000
  H    -51.662200   10.147300   24.127900
  H    -52.906400    9.147310   24.895300
  C    -50.924800    8.750590   25.794800
  H    -51.293800    8.339520   26.711100
  H    -50.069700    9.405020   26.016800
  C    -50.495500    7.752050   24.710900
  H    -49.862900    7.026340   25.086600
  H    -49.969500    8.284080   23.978100
  H    -51.348000    7.240020   24.199300
  H    -47.627300   14.502900   24.733300
  H    -54.680000   11.741000   28.353600

 Total Charge           Charge          ....    0
 Multiplicity           Mult            ....    1
 Number of Electrons    NEL             ....  134
 Basis Dimension        Dim             ....  322

ORBITAL ENERGIES
----------------

  NO   OCC          E(Eh)            E(eV)
   0   2.0000     -88.966058     -2420.8895
   1   2.0000     -88.965108     -2420.8637
   2   2.0000     -10.333440      -281.1872
   3   2.0000     -10.326664      -281.0028
   4   2.0000     -10.319280      -280.8019
   5   2.0000     -10.314167      -280.6628
   6   2.0000     -10.302263      -280.3388
   7   2.0000     -10.301148      -280.3085
   8   2.0000     -10.298247      -280.2296
   9   2.0000     -10.296124      -280.1718
  10   2.0000     -10.295093      -280.1437
  11   2.0000     -10.293975      -280.1133
  12   2.0000     -10.290432      -280.0169
  13   2.0000     -10.289510      -279.9918
  14   2.0000     -10.276049      -279.6255
  15   2.0000     -10.269449      -279.4459
  16   2.0000      -8.080667      -219.8861
  17   2.0000      -8.078954      -219.8395
  18   2.0000      -6.039313      -164.3380
  19   2.0000      -6.037640      -164.2925
  20   2.0000      -6.035150      -164.2248
  21   2.0000      -6.033549      -164.1812
  22   2.0000      -6.031313      -164.1204
  23   2.0000      -6.029616      -164.0742
  24   2.0000      -1.003562       -27.3083
  25   2.0000      -0.980693       -26.6860
  26   2.0000      -0.910867       -24.7860
  27   2.0000      -0.903632       -24.5891
  28   2.0000      -0.869037       -23.6477
  29   2.0000      -0.851563       -23.1722
  30   2.0000      -0.839051       -22.8317
  31   2.0000      -0.813574       -22.1385
  32   2.0000      -0.782418       -21.2907
  33   2.0000      -0.772379       -21.0175
  34   2.0000      -0.717329       -19.5195
  35   2.0000      -0.704864       -19.1803
  36   2.0000      -0.690696       -18.7948
  37   2.0000      -0.655202       -17.8289
  38   2.0000      -0.637175       -17.3384
  39   2.0000      -0.618424       -16.8282
  40   2.0000      -0.585838       -15.9415
  41   2.0000      -0.571104       -15.5405
  42   2.0000      -0.564778       -15.3684
  43   2.0000      -0.562107       -15.2957
  44   2.0000      -0.525933       -14.3114
  45   2.0000      -0.522557       -14.2195
  46   2.0000      -0.512279       -13.9398
  47   2.0000      -0.506754       -13.7895
  48   2.0000      -0.505607       -13.7583
  49   2.0000      -0.498466       -13.5640
  50   2.0000      -0.492928       -13.4133
  51   2.0000      -0.478901       -13.0316
  52   2.0000      -0.474190       -12.9034
  53   2.0000      -0.466537       -12.6951
  54   2.0000      -0.454945       -12.3797
  55   2.0000      -0.451983       -12.2991
  56   2.0000      -0.444933       -12.1072
  57   2.0000      -0.437264       -11.8986
  58   2.0000      -0.436880       -11.8881
  59   2.0000      -0.424547       -11.5525
  60   2.0000      -0.420645       -11.4463
  61   2.0000      -0.415585       -11.3087
  62   2.0000      -0.413640       -11.2557
  63   2.0000      -0.349630        -9.5139
  64   2.0000      -0.329267        -8.9598
  65   2.0000      -0.326588        -8.8869
  66   2.0000      -0.292816        -7.9679
  67   0.0000       0.030268         0.8236
  68   0.0000       0.067997         1.8503
  69   0.0000       0.109472         2.9789
  70   0.0000       0.123996         3.3741
  71   0.0000       0.136256         3.7077

MULLIKEN ATOMIC CHARGES
-----------------------
   0 S :    0.089615
   1 C :   -0.140848
   2 C :   -0.072167
   3 C :    0.018007
   4 C :   -0.142836
   5 H :    0.015392
   6 C :    0.029737
   7 H :    0.052518
   8 H :    0.049892
   9 C :   -0.090701
  10 H :    0.012043
  11 H :    0.045019
  12 C :   -0.008707
  13 H :    0.033610
  14 H :    0.021664
  15 H :    0.011180
  16 S :    0.114866
  17 C :   -0.107412
  18 C :   -0.071721
  19 C :   -0.054944
  20 C :   -0.145407
  21 H :    0.031418
  22 C :    0.052709
  23 H :    0.015419
  24 H :    0.021854
  25 C :   -0.047619
  26 H :    0.030626
  27 H :    0.039472
  28 C :    0.002102
  29 H :    0.016868
  30 H :    0.017325
  31 H :    0.029634
  32 H :    0.054431
  33 H :    0.076960
Sum of atomic charges:   -0.0000000

LOEWDIN ATOMIC CHARGES
----------------------
   0 S :    0.378809
   1 C :   -0.188909
   2 C :   -0.064073
   3 C :   -0.067453
   4 C :   -0.181780
   5 H :    0.028900
   6 C :   -0.034715
   7 H :    0.038236
   8 H :    0.041220
   9 C :   -0.041630
  10 H :    0.011567
  11 H :    0.031005
  12 C :   -0.060441
  13 H :    0.029843
  14 H :    0.023413
  15 H :    0.019371
  16 S :    0.408803
  17 C :   -0.208611
  18 C :   -0.080208
  19 C :   -0.062511
  20 C :   -0.200696
  21 H :    0.034086
  22 C :   -0.028152
  23 H :    0.027053
  24 H :    0.028873
  25 C :   -0.023130
  26 H :    0.020597
  27 H :    0.031036
  28 C :   -0.056119
  29 H :    0.014360
  30 H :    0.020814
  31 H :    0.029250
  32 H :    0.033975
  33 H :    0.047218

  Mayer bond orders larger than 0.100000
B(  0-S ,  1-C ) :   1.1128 B(  0-S ,  4-C ) :   1.1440 B(  1-C ,  2-C ) :   1.6493
B(  1-C , 32-H ) :   0.9694 B(  2-C ,  3-C ) :   1.2383 B(  2-C ,  6-C ) :   0.9931
B(  3-C ,  4-C ) :   1.5805 B(  3-C ,  5-H ) :   0.9830 B(  4-C , 20-C ) :   1.0340
B(  6-C ,  7-H ) :   0.9498 B(  6-C ,  8-H ) :   0.9344 B(  6-C ,  9-C ) :   1.0813
B(  9-C , 10-H ) :   0.9530 B(  9-C , 11-H ) :   0.9567 B(  9-C , 12-C ) :   1.0616
B( 12-C , 13-H ) :   0.9795 B( 12-C , 14-H ) :   0.9741 B( 12-C , 15-H ) :   0.9752
B( 16-S , 17-C ) :   1.1499 B( 16-S , 20-C ) :   1.1287 B( 17-C , 18-C ) :   1.6357
B( 17-C , 33-H ) :   0.9567 B( 18-C , 19-C ) :   1.2298 B( 18-C , 21-H ) :   0.9796
B( 19-C , 20-C ) :   1.6099 B( 19-C , 22-C ) :   1.0412 B( 22-C , 23-H ) :   0.9332
B( 22-C , 24-H ) :   0.9325 B( 22-C , 25-C ) :   1.0533 B( 25-C , 26-H ) :   0.9599
B( 25-C , 27-H ) :   0.9581 B( 25-C , 28-C ) :   1.0767 B( 28-C , 29-H ) :   0.9726
B( 28-C , 30-H ) :   0.9744 B( 28-C , 31-H ) :   0.9740

Dispersion correction           -0.013668904
FINAL SINGLE POINT ENERGY     -1339.864697929805

DIPOLE MOMENT
-------------
                                X             Y             Z
Electronic contribution:     -6.07090      14.05938      25.21112
Nuclear contribution   :      6.14664     -14.53656     -25.82038
                        -----------------------------------------
Total Dipole Moment    :      0.07574      -0.47719      -0.60927
                        -----------------------------------------
Magnitude (a.u.)       :      0.77759
Magnitude (Debye)      :      1.97648

Rotational constants in cm-1:     0.016941     0.008420     0.006784
Rotational constants in MHz :   507.879792   252.435037   203.370717

                             ****ORCA TERMINATED NORMALLY****
TOTAL RUN TIME: 0 days 0 hours 0 minutes 20 seconds 6 msec
