                         Program Version 4.2.1 -  RELEASE  -
|  1> ! wB97X-D3 SP def2-SVP
|  2> %pal
|  3> nprocs 24
|  4> end
|  5>
|  6> * xyz 0 1
|  7> S 	 -125.015 	 58.8327 	 -55.5093
|  8> C 	 -125.797 	 57.4418 	 -56.3522
|  9> C 	 -126.7 	 57.9174 	 -57.318
| 10> C 	 -126.771 	 59.3341 	 -57.3937
| 11> C 	 -125.907 	 59.9107 	 -56.5663
| 12> H 	 -127.223 	 59.9395 	 -58.1259
| 13> C 	 -127.607 	 57.0249 	 -58.1846
| 14> H 	 -126.974 	 56.3444 	 -58.8182
| 15> H 	 -128.132 	 57.6364 	 -58.9182
| 16> C 	 -128.601 	 56.2358 	 -57.3449
| 17> H 	 -128.093 	 55.603 	 -56.5829
| 18> H 	 -129.204 	 56.9842 	 -56.7961
| 19> C 	 -129.461 	 55.4235 	 -58.297
| 20> H 	 -130.178 	 54.8198 	 -57.721
| 21> H 	 -129.993 	 56.1499 	 -58.9097
| 22> H 	 -129.076 	 54.6653 	 -58.9113
| 23> S 	 -124.829 	 61.9326 	 -58.051
| 24> C 	 -124.736 	 63.4895 	 -57.2943
| 25> C 	 -125.234 	 63.5538 	 -56.0263
| 26> C 	 -125.714 	 62.2671 	 -55.5784
| 27> C 	 -125.565 	 61.3169 	 -56.5918
| 28> H 	 -125.183 	 64.4834 	 -55.4395
| 29> C 	 -126.214 	 62.0666 	 -54.1675
| 30> H 	 -126.749 	 61.1047 	 -54.0869
| 31> H 	 -127.002 	 62.788 	 -54.0932
| 32> C 	 -125.155 	 62.2866 	 -52.9703
| 33> H 	 -124.493 	 63.1885 	 -53.1494
| 34> H 	 -124.546 	 61.4229 	 -52.9337
| 35> C 	 -125.937 	 62.3587 	 -51.6574
| 36> H 	 -126.557 	 63.2812 	 -51.5299
| 37> H 	 -125.199 	 62.2477 	 -50.8387
| 38> H 	 -126.625 	 61.4562 	 -51.5661
| 39> H 	 -125.649 	 56.3958 	 -56.11
| 40> H 	 -124.264 	 64.33 	 -57.6803
| 41> *
| 42>
| 43>                          ****END OF INPUT****

CARTESIAN COORDINATES (ANGSTROEM)
---------------------------------
  S    -125.015000   58.832700  -55.509300
  C    -125.797000   57.441800  -56.352200
  C    -126.700000   57.917400  -57.318000
  C    -126.771000   59.334100  -57.393700
  C    -125.907000   59.910700  -56.566300
  H    -127.223000   59.939500  -58.125900
  C    -127.607000   57.024900  -58.184600
  H    -126.974000   56.344400  -58.818200
  H    -128.132000   57.636400  -58.918200
  C    -128.601000   56.235800  -57.344900
  H    -128.093000   55.603000  -56.582900
  H    -129.204000   56.984200  -56.796100
  C    -129.461000   55.423500  -58.297000
  H    -130.178000   54.819800  -57.721000
  H    -129.993000   56.149900  -58.909700
  H    -129.076000   54.665300  -58.911300
  S    -124.829000   61.932600  -58.051000
  C    -124.736000   63.489500  -57.294300
  C    -125.234000   63.553800  -56.026300
  C    -125.714000   62.267100  -55.578400
  C    -125.565000   61.316900  -56.591800
  H    -125.183000   64.483400  -55.439500
  C    -126.214000   62.066600  -54.167500
  H    -126.749000   61.104700  -54.086900
  H    -127.002000   62.788000  -54.093200
  C    -125.155000   62.286600  -52.970300
  H    -124.493000   63.188500  -53.149400
  H    -124.546000   61.422900  -52.933700
  C    -125.937000   62.358700  -51.657400
  H    -126.557000   63.281200  -51.529900
  H    -125.199000   62.247700  -50.838700
  H    -126.625000   61.456200  -51.566100
  H    -125.649000   56.395800  -56.110000
  H    -124.264000   64.330000  -57.680300

 Total Charge           Charge          ....    0
 Multiplicity           Mult            ....    1
 Number of Electrons    NEL             ....  134
 Basis Dimension        Dim             ....  322

ORBITAL ENERGIES
----------------

  NO   OCC          E(Eh)            E(eV)
   0   2.0000     -88.966853     -2420.9111
   1   2.0000     -88.965360     -2420.8705
   2   2.0000     -10.318849      -280.7901
   3   2.0000     -10.318465      -280.7797
   4   2.0000     -10.316748      -280.7330
   5   2.0000     -10.306881      -280.4645
   6   2.0000     -10.302245      -280.3383
   7   2.0000     -10.301558      -280.3196
   8   2.0000     -10.293768      -280.1077
   9   2.0000     -10.292526      -280.0739
  10   2.0000     -10.291772      -280.0534
  11   2.0000     -10.291380      -280.0427
  12   2.0000     -10.289438      -279.9898
  13   2.0000     -10.287139      -279.9273
  14   2.0000     -10.282152      -279.7916
  15   2.0000     -10.273128      -279.5460
  16   2.0000      -8.081848      -219.9183
  17   2.0000      -8.079077      -219.8429
  18   2.0000      -6.040305      -164.3651
  19   2.0000      -6.037694      -164.2940
  20   2.0000      -6.036481      -164.2610
  21   2.0000      -6.033826      -164.1887
  22   2.0000      -6.032497      -164.1526
  23   2.0000      -6.029702      -164.0765
  24   2.0000      -1.006726       -27.3944
  25   2.0000      -0.980474       -26.6801
  26   2.0000      -0.912504       -24.8305
  27   2.0000      -0.901001       -24.5175
  28   2.0000      -0.867424       -23.6038
  29   2.0000      -0.852668       -23.2023
  30   2.0000      -0.847212       -23.0538
  31   2.0000      -0.814106       -22.1529
  32   2.0000      -0.779278       -21.2052
  33   2.0000      -0.763222       -20.7683
  34   2.0000      -0.703980       -19.1563
  35   2.0000      -0.699850       -19.0439
  36   2.0000      -0.693408       -18.8686
  37   2.0000      -0.661229       -17.9930
  38   2.0000      -0.640696       -17.4342
  39   2.0000      -0.614088       -16.7102
  40   2.0000      -0.594243       -16.1702
  41   2.0000      -0.573774       -15.6132
  42   2.0000      -0.558430       -15.1956
  43   2.0000      -0.553967       -15.0742
  44   2.0000      -0.522557       -14.2195
  45   2.0000      -0.518930       -14.1208
  46   2.0000      -0.516921       -14.0661
  47   2.0000      -0.512652       -13.9500
  48   2.0000      -0.506115       -13.7721
  49   2.0000      -0.500048       -13.6070
  50   2.0000      -0.487351       -13.2615
  51   2.0000      -0.475196       -12.9307
  52   2.0000      -0.464328       -12.6350
  53   2.0000      -0.461711       -12.5638
  54   2.0000      -0.455908       -12.4059
  55   2.0000      -0.452470       -12.3123
  56   2.0000      -0.444112       -12.0849
  57   2.0000      -0.436608       -11.8807
  58   2.0000      -0.434547       -11.8246
  59   2.0000      -0.428422       -11.6579
  60   2.0000      -0.422033       -11.4841
  61   2.0000      -0.419084       -11.4039
  62   2.0000      -0.412402       -11.2220
  63   2.0000      -0.337807        -9.1922
  64   2.0000      -0.334847        -9.1117
  65   2.0000      -0.324614        -8.8332
  66   2.0000      -0.295643        -8.0448
  67   0.0000       0.042107         1.1458
  68   0.0000       0.064900         1.7660
  69   0.0000       0.103868         2.8264
  70   0.0000       0.112834         3.0704
  71   0.0000       0.129110         3.5133

MULLIKEN ATOMIC CHARGES
-----------------------
   0 S :    0.105779
   1 C :   -0.132650
   2 C :   -0.072789
   3 C :    0.041460
   4 C :   -0.155388
   5 H :   -0.000836
   6 C :    0.053392
   7 H :    0.036908
   8 H :    0.011709
   9 C :   -0.084385
  10 H :    0.034143
  11 H :    0.037453
  12 C :   -0.019112
  13 H :    0.022846
  14 H :    0.025910
  15 H :    0.021864
  16 S :    0.128966
  17 C :   -0.059254
  18 C :   -0.047180
  19 C :   -0.019421
  20 C :   -0.186203
  21 H :    0.026293
  22 C :    0.049257
  23 H :    0.029752
  24 H :    0.019764
  25 C :   -0.056365
  26 H :    0.045236
  27 H :    0.027983
  28 C :   -0.083861
  29 H :    0.047182
  30 H :    0.038956
  31 H :    0.040696
  32 H :    0.047308
  33 H :    0.024586
Sum of atomic charges:    0.0000000

LOEWDIN ATOMIC CHARGES
----------------------
   0 S :    0.381242
   1 C :   -0.187367
   2 C :   -0.052516
   3 C :   -0.067243
   4 C :   -0.182825
   5 H :    0.028110
   6 C :   -0.034514
   7 H :    0.034301
   8 H :    0.024816
   9 C :   -0.039373
  10 H :    0.023992
  11 H :    0.031246
  12 C :   -0.066322
  13 H :    0.027601
  14 H :    0.026607
  15 H :    0.018559
  16 S :    0.415438
  17 C :   -0.181033
  18 C :   -0.069968
  19 C :   -0.053005
  20 C :   -0.208036
  21 H :    0.035785
  22 C :   -0.037017
  23 H :    0.030500
  24 H :    0.028172
  25 C :   -0.032655
  26 H :    0.030722
  27 H :    0.019611
  28 C :   -0.074506
  29 H :    0.028212
  30 H :    0.027788
  31 H :    0.032783
  32 H :    0.025883
  33 H :    0.015011

  Mayer bond orders larger than 0.100000
B(  0-S ,  1-C ) :   1.1115 B(  0-S ,  4-C ) :   1.1408 B(  1-C ,  2-C ) :   1.6314
B(  1-C , 32-H ) :   0.9725 B(  2-C ,  3-C ) :   1.2047 B(  2-C ,  6-C ) :   1.0111
B(  3-C ,  4-C ) :   1.6255 B(  3-C ,  5-H ) :   1.0006 B(  4-C , 20-C ) :   1.0138
B(  6-C ,  7-H ) :   0.9400 B(  6-C ,  8-H ) :   0.9463 B(  6-C ,  9-C ) :   1.0621
B(  9-C , 10-H ) :   0.9577 B(  9-C , 11-H ) :   0.9529 B(  9-C , 12-C ) :   1.0799
B( 12-C , 13-H ) :   0.9708 B( 12-C , 14-H ) :   0.9725 B( 12-C , 15-H ) :   0.9766
B( 16-S , 17-C ) :   1.1435 B( 16-S , 20-C ) :   1.1359 B( 17-C , 18-C ) :   1.6473
B( 17-C , 33-H ) :   0.9686 B( 18-C , 19-C ) :   1.2148 B( 18-C , 21-H ) :   0.9842
B( 19-C , 20-C ) :   1.6086 B( 19-C , 22-C ) :   1.0497 B( 22-C , 23-H ) :   0.9288
B( 22-C , 24-H ) :   0.9357 B( 22-C , 25-C ) :   1.0420 B( 25-C , 26-H ) :   0.9597
B( 25-C , 27-H ) :   0.9544 B( 25-C , 28-C ) :   1.0768 B( 28-C , 29-H ) :   0.9771
B( 28-C , 30-H ) :   0.9742 B( 28-C , 31-H ) :   0.9718

Dispersion correction           -0.013868339
FINAL SINGLE POINT ENERGY     -1339.880008390947

DIPOLE MOMENT
-------------
                                X             Y             Z
Electronic contribution:     15.00201       8.40713      -9.73706
Nuclear contribution   :    -15.26889      -8.40902       9.85261
                        -----------------------------------------
Total Dipole Moment    :     -0.26687      -0.00189       0.11555
                        -----------------------------------------
Magnitude (a.u.)       :      0.29082
Magnitude (Debye)      :      0.73921

Rotational constants in cm-1:     0.020707     0.007409     0.006155
Rotational constants in MHz :   620.785049   222.123948   184.520548

                             ****ORCA TERMINATED NORMALLY****
TOTAL RUN TIME: 0 days 0 hours 0 minutes 20 seconds 874 msec
