                         Program Version 4.2.1 -  RELEASE  -
|  1> ! wB97X-D3 SP def2-SVP
|  2> %pal
|  3> nprocs 24
|  4> end
|  5>
|  6> * xyz 0 1
|  7> S 	 -88.7539 	 -38.1296 	 -62.4003
|  8> C 	 -89.1208 	 -39.6821 	 -63.1165
|  9> C 	 -89.3864 	 -40.6068 	 -62.0698
| 10> C 	 -89.3075 	 -39.9706 	 -60.7724
| 11> C 	 -88.963 	 -38.6436 	 -60.7901
| 12> H 	 -89.4082 	 -40.5085 	 -59.8148
| 13> C 	 -89.7919 	 -42.0617 	 -62.2677
| 14> H 	 -89.639 	 -42.3773 	 -63.296
| 15> H 	 -90.8918 	 -42.1932 	 -62.2685
| 16> C 	 -89.2167 	 -43.0204 	 -61.1907
| 17> H 	 -88.1172 	 -42.8585 	 -61.1224
| 18> H 	 -89.547 	 -42.7536 	 -60.1593
| 19> C 	 -89.5214 	 -44.451 	 -61.5914
| 20> H 	 -89.1022 	 -44.6927 	 -62.5267
| 21> H 	 -88.9536 	 -45.1435 	 -60.9815
| 22> H 	 -90.5475 	 -44.7345 	 -61.6835
| 23> S 	 -87.0167 	 -37.1796 	 -59.6315
| 24> C 	 -87.2469 	 -36.5116 	 -58.0406
| 25> C 	 -88.511 	 -36.7441 	 -57.5954
| 26> C 	 -89.273 	 -37.5499 	 -58.482
| 27> C 	 -88.5622 	 -37.8813 	 -59.6303
| 28> H 	 -88.8237 	 -36.4879 	 -56.6267
| 29> C 	 -90.7568 	 -37.9413 	 -58.2444
| 30> H 	 -90.8775 	 -38.9805 	 -58.3152
| 31> H 	 -91.2976 	 -37.4728 	 -59.0335
| 32> C 	 -91.3881 	 -37.5036 	 -56.8712
| 33> H 	 -92.5168 	 -37.3581 	 -56.7841
| 34> H 	 -91.0593 	 -36.4711 	 -56.7525
| 35> C 	 -90.8639 	 -38.2472 	 -55.6564
| 36> H 	 -91.2182 	 -37.7225 	 -54.8317
| 37> H 	 -89.7763 	 -38.2261 	 -55.6459
| 38> H 	 -91.1968 	 -39.31 	 -55.5034
| 39> H 	 -89.006 	 -39.9998 	 -64.1485
| 40> H 	 -86.5078 	 -36.0271 	 -57.4527
| 41> *
| 42>
| 43>                          ****END OF INPUT****

CARTESIAN COORDINATES (ANGSTROEM)
---------------------------------
  S    -88.753900  -38.129600  -62.400300
  C    -89.120800  -39.682100  -63.116500
  C    -89.386400  -40.606800  -62.069800
  C    -89.307500  -39.970600  -60.772400
  C    -88.963000  -38.643600  -60.790100
  H    -89.408200  -40.508500  -59.814800
  C    -89.791900  -42.061700  -62.267700
  H    -89.639000  -42.377300  -63.296000
  H    -90.891800  -42.193200  -62.268500
  C    -89.216700  -43.020400  -61.190700
  H    -88.117200  -42.858500  -61.122400
  H    -89.547000  -42.753600  -60.159300
  C    -89.521400  -44.451000  -61.591400
  H    -89.102200  -44.692700  -62.526700
  H    -88.953600  -45.143500  -60.981500
  H    -90.547500  -44.734500  -61.683500
  S    -87.016700  -37.179600  -59.631500
  C    -87.246900  -36.511600  -58.040600
  C    -88.511000  -36.744100  -57.595400
  C    -89.273000  -37.549900  -58.482000
  C    -88.562200  -37.881300  -59.630300
  H    -88.823700  -36.487900  -56.626700
  C    -90.756800  -37.941300  -58.244400
  H    -90.877500  -38.980500  -58.315200
  H    -91.297600  -37.472800  -59.033500
  C    -91.388100  -37.503600  -56.871200
  H    -92.516800  -37.358100  -56.784100
  H    -91.059300  -36.471100  -56.752500
  C    -90.863900  -38.247200  -55.656400
  H    -91.218200  -37.722500  -54.831700
  H    -89.776300  -38.226100  -55.645900
  H    -91.196800  -39.310000  -55.503400
  H    -89.006000  -39.999800  -64.148500
  H    -86.507800  -36.027100  -57.452700

 Total Charge           Charge          ....    0
 Multiplicity           Mult            ....    1
 Number of Electrons    NEL             ....  134
 Basis Dimension        Dim             ....  322

ORBITAL ENERGIES
----------------

  NO   OCC          E(Eh)            E(eV)
   0   2.0000     -88.967012     -2420.9155
   1   2.0000     -88.966245     -2420.8946
   2   2.0000     -10.323549      -280.9180
   3   2.0000     -10.321164      -280.8531
   4   2.0000     -10.316815      -280.7348
   5   2.0000     -10.311779      -280.5978
   6   2.0000     -10.306225      -280.4466
   7   2.0000     -10.303216      -280.3647
   8   2.0000     -10.294805      -280.1359
   9   2.0000     -10.293724      -280.1065
  10   2.0000     -10.292746      -280.0799
  11   2.0000     -10.292324      -280.0684
  12   2.0000     -10.288247      -279.9574
  13   2.0000     -10.287777      -279.9446
  14   2.0000     -10.274570      -279.5853
  15   2.0000     -10.271594      -279.5043
  16   2.0000      -8.082174      -219.9271
  17   2.0000      -8.082057      -219.9240
  18   2.0000      -6.040712      -164.3761
  19   2.0000      -6.040436      -164.3686
  20   2.0000      -6.036386      -164.2584
  21   2.0000      -6.036350      -164.2574
  22   2.0000      -6.033106      -164.1692
  23   2.0000      -6.032947      -164.1648
  24   2.0000      -1.015321       -27.6283
  25   2.0000      -0.988378       -26.8951
  26   2.0000      -0.911349       -24.7991
  27   2.0000      -0.905901       -24.6508
  28   2.0000      -0.874770       -23.8037
  29   2.0000      -0.851050       -23.1582
  30   2.0000      -0.845028       -22.9944
  31   2.0000      -0.818702       -22.2780
  32   2.0000      -0.784911       -21.3585
  33   2.0000      -0.773753       -21.0549
  34   2.0000      -0.713424       -19.4132
  35   2.0000      -0.698726       -19.0133
  36   2.0000      -0.695156       -18.9162
  37   2.0000      -0.660724       -17.9792
  38   2.0000      -0.642776       -17.4908
  39   2.0000      -0.618608       -16.8332
  40   2.0000      -0.600843       -16.3498
  41   2.0000      -0.572776       -15.5860
  42   2.0000      -0.558054       -15.1854
  43   2.0000      -0.555858       -15.1257
  44   2.0000      -0.535285       -14.5658
  45   2.0000      -0.527702       -14.3595
  46   2.0000      -0.515571       -14.0294
  47   2.0000      -0.510446       -13.8899
  48   2.0000      -0.507466       -13.8089
  49   2.0000      -0.505379       -13.7521
  50   2.0000      -0.496889       -13.5210
  51   2.0000      -0.481606       -13.1052
  52   2.0000      -0.474451       -12.9105
  53   2.0000      -0.465364       -12.6632
  54   2.0000      -0.462829       -12.5942
  55   2.0000      -0.453053       -12.3282
  56   2.0000      -0.444127       -12.0853
  57   2.0000      -0.443639       -12.0720
  58   2.0000      -0.436862       -11.8876
  59   2.0000      -0.426175       -11.5968
  60   2.0000      -0.417229       -11.3534
  61   2.0000      -0.412520       -11.2252
  62   2.0000      -0.405985       -11.0474
  63   2.0000      -0.349479        -9.5098
  64   2.0000      -0.331680        -9.0255
  65   2.0000      -0.325057        -8.8452
  66   2.0000      -0.293815        -7.9951
  67   0.0000       0.034494         0.9386
  68   0.0000       0.071015         1.9324
  69   0.0000       0.121141         3.2964
  70   0.0000       0.125036         3.4024
  71   0.0000       0.140058         3.8112

MULLIKEN ATOMIC CHARGES
-----------------------
   0 S :    0.118284
   1 C :   -0.121118
   2 C :   -0.086940
   3 C :    0.011971
   4 C :   -0.148113
   5 H :    0.023200
   6 C :    0.057302
   7 H :    0.003659
   8 H :    0.038607
   9 C :   -0.115648
  10 H :    0.038398
  11 H :    0.042828
  12 C :    0.006050
  13 H :    0.005582
  14 H :    0.022970
  15 H :    0.028585
  16 S :    0.125964
  17 C :   -0.074859
  18 C :   -0.020290
  19 C :   -0.072869
  20 C :   -0.165492
  21 H :   -0.003897
  22 C :    0.151843
  23 H :    0.016136
  24 H :    0.038032
  25 C :   -0.128591
  26 H :    0.043934
  27 H :    0.021424
  28 C :   -0.035743
  29 H :    0.017028
  30 H :    0.028123
  31 H :    0.037763
  32 H :    0.053995
  33 H :    0.041884
Sum of atomic charges:   -0.0000000

LOEWDIN ATOMIC CHARGES
----------------------
   0 S :    0.431022
   1 C :   -0.210759
   2 C :   -0.057394
   3 C :   -0.068819
   4 C :   -0.216268
   5 H :    0.032836
   6 C :   -0.039168
   7 H :    0.026443
   8 H :    0.036777
   9 C :   -0.042663
  10 H :    0.029740
  11 H :    0.026057
  12 C :   -0.063411
  13 H :    0.021131
  14 H :    0.028285
  15 H :    0.023292
  16 S :    0.439773
  17 C :   -0.183290
  18 C :   -0.069084
  19 C :   -0.052232
  20 C :   -0.217737
  21 H :    0.021750
  22 C :   -0.020434
  23 H :    0.021198
  24 H :    0.034957
  25 C :   -0.050734
  26 H :    0.035345
  27 H :    0.021220
  28 C :   -0.066347
  29 H :    0.018809
  30 H :    0.022650
  31 H :    0.029573
  32 H :    0.032673
  33 H :    0.024808

  Mayer bond orders larger than 0.100000
B(  0-S ,  1-C ) :   1.1440 B(  0-S ,  4-C ) :   1.1656 B(  1-C ,  2-C ) :   1.5782
B(  1-C , 32-H ) :   0.9696 B(  2-C ,  3-C ) :   1.2648 B(  2-C ,  6-C ) :   1.0301
B(  3-C ,  4-C ) :   1.5578 B(  3-C ,  5-H ) :   0.9833 B(  4-C , 20-C ) :   1.0343
B(  6-C ,  7-H ) :   0.9443 B(  6-C ,  8-H ) :   0.9355 B(  6-C ,  9-C ) :   1.0479
B(  9-C , 10-H ) :   0.9604 B(  9-C , 11-H ) :   0.9492 B(  9-C , 12-C ) :   1.0890
B( 12-C , 13-H ) :   0.9674 B( 12-C , 14-H ) :   0.9685 B( 12-C , 15-H ) :   0.9743
B( 16-S , 17-C ) :   1.1630 B( 16-S , 20-C ) :   1.1671 B( 17-C , 18-C ) :   1.5881
B( 17-C , 33-H ) :   0.9691 B( 18-C , 19-C ) :   1.2785 B( 18-C , 21-H ) :   0.9878
B( 19-C , 20-C ) :   1.5825 B( 19-C , 22-C ) :   1.0097 B( 22-C , 23-H ) :   0.9340
B( 22-C , 24-H ) :   0.9287 B( 22-C , 25-C ) :   1.0706 B( 25-C , 26-H ) :   0.9573
B( 25-C , 27-H ) :   0.9480 B( 25-C , 28-C ) :   1.0845 B( 28-C , 29-H ) :   0.9717
B( 28-C , 30-H ) :   0.9726 B( 28-C , 31-H ) :   0.9717

Dispersion correction           -0.013723338
FINAL SINGLE POINT ENERGY     -1339.876614897291

DIPOLE MOMENT
-------------
                                X             Y             Z
Electronic contribution:     14.19930      20.08981     -12.50625
Nuclear contribution   :    -14.44817     -20.54429      12.82700
                        -----------------------------------------
Total Dipole Moment    :     -0.24887      -0.45448       0.32075
                        -----------------------------------------
Magnitude (a.u.)       :      0.60940
Magnitude (Debye)      :      1.54897

Rotational constants in cm-1:     0.017845     0.008177     0.006516
Rotational constants in MHz :   534.994339   245.146019   195.336424

                             ****ORCA TERMINATED NORMALLY****
TOTAL RUN TIME: 0 days 0 hours 0 minutes 20 seconds 129 msec
