                         Program Version 4.2.1 -  RELEASE  -
|  1> ! wB97X-D3 SP def2-SVP
|  2> %pal
|  3> nprocs 24
|  4> end
|  5>
|  6> * xyz 0 1
|  7> S 	 -122.211 	 67.4005 	 -39.7764
|  8> C 	 -121.431 	 67.8764 	 -38.2246
|  9> C 	 -122.089 	 67.3819 	 -37.1156
| 10> C 	 -123.335 	 66.8082 	 -37.6452
| 11> C 	 -123.503 	 66.6781 	 -39.0174
| 12> H 	 -124.068 	 66.4404 	 -37.0068
| 13> C 	 -121.987 	 67.8372 	 -35.6961
| 14> H 	 -123.07 	 67.9751 	 -35.2916
| 15> H 	 -121.561 	 68.8813 	 -35.5261
| 16> C 	 -121.134 	 66.9411 	 -34.7761
| 17> H 	 -121.129 	 67.3142 	 -33.7789
| 18> H 	 -121.602 	 65.9652 	 -34.5741
| 19> C 	 -119.63 	 66.7221 	 -34.9984
| 20> H 	 -119.324 	 66.4025 	 -35.9687
| 21> H 	 -119.075 	 67.6568 	 -34.805
| 22> H 	 -119.285 	 66.019 	 -34.3443
| 23> S 	 -125.405 	 67.0987 	 -41.0192
| 24> C 	 -126.576 	 65.9679 	 -41.3155
| 25> C 	 -126.546 	 64.8525 	 -40.4592
| 26> C 	 -125.466 	 65.0091 	 -39.541
| 27> C 	 -124.689 	 66.1502 	 -39.7468
| 28> H 	 -127.228 	 64.066 	 -40.5706
| 29> C 	 -125.18 	 63.9646 	 -38.4829
| 30> H 	 -125.908 	 63.9279 	 -37.7147
| 31> H 	 -124.212 	 64.3022 	 -37.9596
| 32> C 	 -124.987 	 62.4772 	 -38.8847
| 33> H 	 -124.327 	 62.7028 	 -39.6456
| 34> H 	 -125.889 	 62.149 	 -39.2923
| 35> C 	 -124.522 	 61.5881 	 -37.7629
| 36> H 	 -124.383 	 60.5862 	 -38.2291
| 37> H 	 -125.263 	 61.5356 	 -36.922
| 38> H 	 -123.697 	 61.9063 	 -37.0732
| 39> H 	 -120.663 	 68.6619 	 -38.0614
| 40> H 	 -127.302 	 66.1189 	 -42.0885
| 41> *
| 42>
| 43>                          ****END OF INPUT****

CARTESIAN COORDINATES (ANGSTROEM)
---------------------------------
  S    -122.211000   67.400500  -39.776400
  C    -121.431000   67.876400  -38.224600
  C    -122.089000   67.381900  -37.115600
  C    -123.335000   66.808200  -37.645200
  C    -123.503000   66.678100  -39.017400
  H    -124.068000   66.440400  -37.006800
  C    -121.987000   67.837200  -35.696100
  H    -123.070000   67.975100  -35.291600
  H    -121.561000   68.881300  -35.526100
  C    -121.134000   66.941100  -34.776100
  H    -121.129000   67.314200  -33.778900
  H    -121.602000   65.965200  -34.574100
  C    -119.630000   66.722100  -34.998400
  H    -119.324000   66.402500  -35.968700
  H    -119.075000   67.656800  -34.805000
  H    -119.285000   66.019000  -34.344300
  S    -125.405000   67.098700  -41.019200
  C    -126.576000   65.967900  -41.315500
  C    -126.546000   64.852500  -40.459200
  C    -125.466000   65.009100  -39.541000
  C    -124.689000   66.150200  -39.746800
  H    -127.228000   64.066000  -40.570600
  C    -125.180000   63.964600  -38.482900
  H    -125.908000   63.927900  -37.714700
  H    -124.212000   64.302200  -37.959600
  C    -124.987000   62.477200  -38.884700
  H    -124.327000   62.702800  -39.645600
  H    -125.889000   62.149000  -39.292300
  C    -124.522000   61.588100  -37.762900
  H    -124.383000   60.586200  -38.229100
  H    -125.263000   61.535600  -36.922000
  H    -123.697000   61.906300  -37.073200
  H    -120.663000   68.661900  -38.061400
  H    -127.302000   66.118900  -42.088500

 Total Charge           Charge          ....    0
 Multiplicity           Mult            ....    1
 Number of Electrons    NEL             ....  134
 Basis Dimension        Dim             ....  322

ORBITAL ENERGIES
----------------

  NO   OCC          E(Eh)            E(eV)
   0   2.0000     -88.969030     -2420.9704
   1   2.0000     -88.966589     -2420.9040
   2   2.0000     -10.329339      -281.0756
   3   2.0000     -10.327401      -281.0229
   4   2.0000     -10.320163      -280.8259
   5   2.0000     -10.314970      -280.6846
   6   2.0000     -10.310246      -280.5561
   7   2.0000     -10.306544      -280.4553
   8   2.0000     -10.305103      -280.4161
   9   2.0000     -10.293922      -280.1119
  10   2.0000     -10.288904      -279.9753
  11   2.0000     -10.286669      -279.9145
  12   2.0000     -10.285203      -279.8746
  13   2.0000     -10.285152      -279.8732
  14   2.0000     -10.273434      -279.5543
  15   2.0000     -10.269533      -279.4482
  16   2.0000      -8.085790      -220.0255
  17   2.0000      -8.082142      -219.9263
  18   2.0000      -6.043935      -164.4638
  19   2.0000      -6.040695      -164.3757
  20   2.0000      -6.039837      -164.3523
  21   2.0000      -6.036988      -164.2748
  22   2.0000      -6.036476      -164.2609
  23   2.0000      -6.032830      -164.1617
  24   2.0000      -1.014708       -27.6116
  25   2.0000      -0.992012       -26.9940
  26   2.0000      -0.912922       -24.8419
  27   2.0000      -0.912792       -24.8383
  28   2.0000      -0.870193       -23.6792
  29   2.0000      -0.858150       -23.3515
  30   2.0000      -0.844551       -22.9814
  31   2.0000      -0.809171       -22.0187
  32   2.0000      -0.789892       -21.4941
  33   2.0000      -0.776712       -21.1354
  34   2.0000      -0.709593       -19.3090
  35   2.0000      -0.701386       -19.0857
  36   2.0000      -0.693481       -18.8706
  37   2.0000      -0.662735       -18.0339
  38   2.0000      -0.635678       -17.2977
  39   2.0000      -0.622006       -16.9257
  40   2.0000      -0.601282       -16.3617
  41   2.0000      -0.574953       -15.6453
  42   2.0000      -0.570366       -15.5204
  43   2.0000      -0.551784       -15.0148
  44   2.0000      -0.544086       -14.8053
  45   2.0000      -0.528635       -14.3849
  46   2.0000      -0.517522       -14.0825
  47   2.0000      -0.512053       -13.9337
  48   2.0000      -0.502901       -13.6846
  49   2.0000      -0.499437       -13.5904
  50   2.0000      -0.494291       -13.4503
  51   2.0000      -0.479958       -13.0603
  52   2.0000      -0.477497       -12.9934
  53   2.0000      -0.469052       -12.7636
  54   2.0000      -0.459546       -12.5049
  55   2.0000      -0.449330       -12.2269
  56   2.0000      -0.442831       -12.0500
  57   2.0000      -0.436241       -11.8707
  58   2.0000      -0.428060       -11.6481
  59   2.0000      -0.419611       -11.4182
  60   2.0000      -0.415687       -11.3114
  61   2.0000      -0.411947       -11.2096
  62   2.0000      -0.409223       -11.1355
  63   2.0000      -0.347201        -9.4478
  64   2.0000      -0.334110        -9.0916
  65   2.0000      -0.328407        -8.9364
  66   2.0000      -0.293125        -7.9763
  67   0.0000       0.031947         0.8693
  68   0.0000       0.073893         2.0107
  69   0.0000       0.108033         2.9397
  70   0.0000       0.116753         3.1770
  71   0.0000       0.122827         3.3423

MULLIKEN ATOMIC CHARGES
-----------------------
   0 S :    0.107853
   1 C :   -0.130566
   2 C :   -0.020272
   3 C :    0.013023
   4 C :   -0.132228
   5 H :   -0.015722
   6 C :   -0.020129
   7 H :    0.053828
   8 H :    0.040969
   9 C :   -0.070340
  10 H :    0.013005
  11 H :    0.020317
  12 C :   -0.009412
  13 H :    0.024861
  14 H :    0.021357
  15 H :    0.014217
  16 S :    0.135179
  17 C :   -0.087478
  18 C :   -0.019481
  19 C :   -0.019822
  20 C :   -0.148463
  21 H :    0.002432
  22 C :   -0.002249
  23 H :    0.014126
  24 H :    0.032511
  25 C :   -0.007723
  26 H :    0.020505
  27 H :    0.013547
  28 C :   -0.070601
  29 H :    0.053904
  30 H :    0.022465
  31 H :    0.037433
  32 H :    0.059556
  33 H :    0.053398
Sum of atomic charges:    0.0000000

LOEWDIN ATOMIC CHARGES
----------------------
   0 S :    0.421521
   1 C :   -0.183981
   2 C :   -0.065716
   3 C :   -0.059165
   4 C :   -0.225465
   5 H :    0.011808
   6 C :   -0.041255
   7 H :    0.048655
   8 H :    0.038482
   9 C :   -0.048354
  10 H :    0.022401
  11 H :    0.022986
  12 C :   -0.054705
  13 H :    0.019430
  14 H :    0.025827
  15 H :    0.017582
  16 S :    0.460395
  17 C :   -0.202814
  18 C :   -0.068115
  19 C :   -0.049757
  20 C :   -0.212388
  21 H :    0.024068
  22 C :   -0.037694
  23 H :    0.016900
  24 H :    0.035879
  25 C :   -0.033473
  26 H :    0.018673
  27 H :    0.015311
  28 C :   -0.076574
  29 H :    0.036706
  30 H :    0.029172
  31 H :    0.033657
  32 H :    0.035464
  33 H :    0.024539

  Mayer bond orders larger than 0.100000
B(  0-S ,  1-C ) :   1.1422 B(  0-S ,  4-C ) :   1.1509 B(  1-C ,  2-C ) :   1.6101
B(  1-C , 32-H ) :   0.9577 B(  2-C ,  3-C ) :   1.2372 B(  2-C ,  6-C ) :   1.0133
B(  3-C ,  4-C ) :   1.5772 B(  3-C ,  5-H ) :   0.9959 B(  4-C , 20-C ) :   1.0133
B(  6-C ,  7-H ) :   0.9493 B(  6-C ,  8-H ) :   0.9524 B(  6-C ,  9-C ) :   1.0633
B(  9-C , 10-H ) :   0.9511 B(  9-C , 11-H ) :   0.9557 B(  9-C , 12-C ) :   1.0817
B( 12-C , 13-H ) :   0.9746 B( 12-C , 14-H ) :   0.9749 B( 12-C , 15-H ) :   0.9698
B( 16-S , 17-C ) :   1.2196 B( 16-S , 20-C ) :   1.1556 B( 17-C , 18-C ) :   1.5393
B( 17-C , 33-H ) :   0.9685 B( 18-C , 19-C ) :   1.2664 B( 18-C , 21-H ) :   1.0101
B( 19-C , 20-C ) :   1.5640 B( 19-C , 22-C ) :   1.0508 B( 22-C , 23-H ) :   0.9315
B( 22-C , 24-H ) :   0.9376 B( 22-C , 25-C ) :   1.0450 B( 25-C , 26-H ) :   0.9622
B( 25-C , 27-H ) :   0.9473 B( 25-C , 28-C ) :   1.0855 B( 28-C , 29-H ) :   0.9722
B( 28-C , 30-H ) :   0.9680 B( 28-C , 31-H ) :   0.9724

Dispersion correction           -0.013480454
FINAL SINGLE POINT ENERGY     -1339.839690773778

DIPOLE MOMENT
-------------
                                X             Y             Z
Electronic contribution:     -7.63606      15.68956     -24.47069
Nuclear contribution   :      7.38434     -15.82866      25.00136
                        -----------------------------------------
Total Dipole Moment    :     -0.25172      -0.13911       0.53067
                        -----------------------------------------
Magnitude (a.u.)       :      0.60359
Magnitude (Debye)      :      1.53421

Rotational constants in cm-1:     0.017911     0.008405     0.006256
Rotational constants in MHz :   536.945581   251.988408   187.554784

                             ****ORCA TERMINATED NORMALLY****
TOTAL RUN TIME: 0 days 0 hours 0 minutes 21 seconds 86 msec
