                         Program Version 4.2.1 -  RELEASE  -
|  1> ! wB97X-D3 SP def2-SVP
|  2> %pal
|  3> nprocs 24
|  4> end
|  5>
|  6> * xyz 0 1
|  7> S 	 -136.56 	 71.4349 	 -54.342
|  8> C 	 -135.636 	 70.7531 	 -55.6565
|  9> C 	 -134.781 	 69.7702 	 -55.2525
| 10> C 	 -134.756 	 69.5697 	 -53.8167
| 11> C 	 -135.736 	 70.3535 	 -53.2603
| 12> H 	 -134.129 	 68.9142 	 -53.2051
| 13> C 	 -133.775 	 69.0853 	 -56.2116
| 14> H 	 -134.076 	 69.2037 	 -57.2813
| 15> H 	 -133.756 	 67.9847 	 -55.9883
| 16> C 	 -132.277 	 69.5436 	 -55.9699
| 17> H 	 -132.063 	 69.7156 	 -54.8701
| 18> H 	 -131.653 	 68.8074 	 -56.4932
| 19> C 	 -131.969 	 70.9244 	 -56.711
| 20> H 	 -130.961 	 71.1652 	 -56.5074
| 21> H 	 -131.927 	 70.7777 	 -57.7105
| 22> H 	 -132.624 	 71.7501 	 -56.378
| 23> S 	 -135.144 	 71.732 	 -50.9601
| 24> C 	 -135.533 	 71.0787 	 -49.3853
| 25> C 	 -136.536 	 70.116 	 -49.5574
| 26> C 	 -136.771 	 69.7418 	 -50.9178
| 27> C 	 -135.942 	 70.4644 	 -51.782
| 28> H 	 -137.165 	 69.8959 	 -48.6968
| 29> C 	 -137.794 	 68.6855 	 -51.3172
| 30> H 	 -137.439 	 68.0739 	 -52.1544
| 31> H 	 -138.672 	 69.1363 	 -51.811
| 32> C 	 -138.292 	 67.6556 	 -50.3016
| 33> H 	 -138.578 	 68.1754 	 -49.312
| 34> H 	 -137.493 	 66.9939 	 -50.0185
| 35> C 	 -139.356 	 66.6774 	 -50.7812
| 36> H 	 -139.19 	 65.6957 	 -50.43
| 37> H 	 -139.409 	 66.6362 	 -51.8478
| 38> H 	 -140.324 	 66.9661 	 -50.3693
| 39> H 	 -135.713 	 71.0334 	 -56.7252
| 40> H 	 -135.26 	 71.4282 	 -48.4356
| 41> *
| 42>
| 43>                          ****END OF INPUT****

CARTESIAN COORDINATES (ANGSTROEM)
---------------------------------
  S    -136.560000   71.434900  -54.342000
  C    -135.636000   70.753100  -55.656500
  C    -134.781000   69.770200  -55.252500
  C    -134.756000   69.569700  -53.816700
  C    -135.736000   70.353500  -53.260300
  H    -134.129000   68.914200  -53.205100
  C    -133.775000   69.085300  -56.211600
  H    -134.076000   69.203700  -57.281300
  H    -133.756000   67.984700  -55.988300
  C    -132.277000   69.543600  -55.969900
  H    -132.063000   69.715600  -54.870100
  H    -131.653000   68.807400  -56.493200
  C    -131.969000   70.924400  -56.711000
  H    -130.961000   71.165200  -56.507400
  H    -131.927000   70.777700  -57.710500
  H    -132.624000   71.750100  -56.378000
  S    -135.144000   71.732000  -50.960100
  C    -135.533000   71.078700  -49.385300
  C    -136.536000   70.116000  -49.557400
  C    -136.771000   69.741800  -50.917800
  C    -135.942000   70.464400  -51.782000
  H    -137.165000   69.895900  -48.696800
  C    -137.794000   68.685500  -51.317200
  H    -137.439000   68.073900  -52.154400
  H    -138.672000   69.136300  -51.811000
  C    -138.292000   67.655600  -50.301600
  H    -138.578000   68.175400  -49.312000
  H    -137.493000   66.993900  -50.018500
  C    -139.356000   66.677400  -50.781200
  H    -139.190000   65.695700  -50.430000
  H    -139.409000   66.636200  -51.847800
  H    -140.324000   66.966100  -50.369300
  H    -135.713000   71.033400  -56.725200
  H    -135.260000   71.428200  -48.435600

 Total Charge           Charge          ....    0
 Multiplicity           Mult            ....    1
 Number of Electrons    NEL             ....  134
 Basis Dimension        Dim             ....  322

ORBITAL ENERGIES
----------------

  NO   OCC          E(Eh)            E(eV)
   0   2.0000     -88.968873     -2420.9661
   1   2.0000     -88.965017     -2420.8612
   2   2.0000     -10.329116      -281.0695
   3   2.0000     -10.322762      -280.8966
   4   2.0000     -10.313400      -280.6419
   5   2.0000     -10.312588      -280.6198
   6   2.0000     -10.305127      -280.4168
   7   2.0000     -10.302644      -280.3492
   8   2.0000     -10.301484      -280.3176
   9   2.0000     -10.298929      -280.2481
  10   2.0000     -10.297843      -280.2185
  11   2.0000     -10.292969      -280.0859
  12   2.0000     -10.291369      -280.0424
  13   2.0000     -10.286458      -279.9087
  14   2.0000     -10.271536      -279.5027
  15   2.0000     -10.266302      -279.3603
  16   2.0000      -8.083873      -219.9734
  17   2.0000      -8.080246      -219.8747
  18   2.0000      -6.042383      -164.4216
  19   2.0000      -6.038699      -164.3213
  20   2.0000      -6.038453      -164.3147
  21   2.0000      -6.034659      -164.2114
  22   2.0000      -6.034523      -164.2077
  23   2.0000      -6.031061      -164.1135
  24   2.0000      -1.008161       -27.4335
  25   2.0000      -0.985972       -26.8297
  26   2.0000      -0.906503       -24.6672
  27   2.0000      -0.898161       -24.4402
  28   2.0000      -0.863355       -23.4931
  29   2.0000      -0.849944       -23.1282
  30   2.0000      -0.846370       -23.0309
  31   2.0000      -0.814201       -22.1555
  32   2.0000      -0.781935       -21.2775
  33   2.0000      -0.772922       -21.0323
  34   2.0000      -0.701152       -19.0793
  35   2.0000      -0.698052       -18.9950
  36   2.0000      -0.686391       -18.6777
  37   2.0000      -0.650526       -17.7017
  38   2.0000      -0.640970       -17.4417
  39   2.0000      -0.617479       -16.8025
  40   2.0000      -0.600380       -16.3372
  41   2.0000      -0.568335       -15.4652
  42   2.0000      -0.558804       -15.2058
  43   2.0000      -0.544014       -14.8034
  44   2.0000      -0.532478       -14.4895
  45   2.0000      -0.528299       -14.3757
  46   2.0000      -0.515245       -14.0205
  47   2.0000      -0.509861       -13.8740
  48   2.0000      -0.504199       -13.7200
  49   2.0000      -0.491681       -13.3793
  50   2.0000      -0.484273       -13.1778
  51   2.0000      -0.481662       -13.1067
  52   2.0000      -0.474181       -12.9031
  53   2.0000      -0.465093       -12.6558
  54   2.0000      -0.459018       -12.4905
  55   2.0000      -0.453824       -12.3492
  56   2.0000      -0.451580       -12.2881
  57   2.0000      -0.431953       -11.7540
  58   2.0000      -0.428702       -11.6656
  59   2.0000      -0.424168       -11.5422
  60   2.0000      -0.423686       -11.5291
  61   2.0000      -0.412248       -11.2178
  62   2.0000      -0.404382       -11.0038
  63   2.0000      -0.337828        -9.1928
  64   2.0000      -0.325864        -8.8672
  65   2.0000      -0.319571        -8.6960
  66   2.0000      -0.308510        -8.3950
  67   0.0000       0.046738         1.2718
  68   0.0000       0.054520         1.4836
  69   0.0000       0.113641         3.0923
  70   0.0000       0.119307         3.2465
  71   0.0000       0.125388         3.4120

MULLIKEN ATOMIC CHARGES
-----------------------
   0 S :    0.123459
   1 C :   -0.131112
   2 C :   -0.070364
   3 C :    0.038023
   4 C :   -0.170664
   5 H :    0.031964
   6 C :    0.035712
   7 H :    0.030677
   8 H :    0.037225
   9 C :   -0.115593
  10 H :    0.056755
  11 H :    0.037701
  12 C :   -0.019914
  13 H :    0.014606
  14 H :    0.003039
  15 H :    0.049510
  16 S :    0.128195
  17 C :   -0.075698
  18 C :   -0.068087
  19 C :    0.014554
  20 C :   -0.200090
  21 H :    0.029071
  22 C :    0.064455
  23 H :    0.023634
  24 H :    0.034654
  25 C :   -0.121141
  26 H :    0.035663
  27 H :    0.024893
  28 C :   -0.005657
  29 H :    0.021146
  30 H :    0.023854
  31 H :    0.029738
  32 H :    0.054382
  33 H :    0.035411
Sum of atomic charges:    0.0000000

LOEWDIN ATOMIC CHARGES
----------------------
   0 S :    0.409106
   1 C :   -0.208175
   2 C :   -0.064060
   3 C :   -0.054402
   4 C :   -0.196039
   5 H :    0.040717
   6 C :   -0.037467
   7 H :    0.030613
   8 H :    0.033187
   9 C :   -0.036886
  10 H :    0.033096
  11 H :    0.025334
  12 C :   -0.060646
  13 H :    0.021052
  14 H :    0.007329
  15 H :    0.030910
  16 S :    0.433018
  17 C :   -0.185169
  18 C :   -0.074302
  19 C :   -0.056041
  20 C :   -0.220106
  21 H :    0.032129
  22 C :   -0.041940
  23 H :    0.034469
  24 H :    0.035367
  25 C :   -0.050141
  26 H :    0.025975
  27 H :    0.021490
  28 C :   -0.056942
  29 H :    0.022628
  30 H :    0.023077
  31 H :    0.028442
  32 H :    0.034961
  33 H :    0.019418

  Mayer bond orders larger than 0.100000
B(  0-S ,  1-C ) :   1.1162 B(  0-S ,  4-C ) :   1.1622 B(  1-C ,  2-C ) :   1.6613
B(  1-C , 32-H ) :   0.9592 B(  2-C ,  3-C ) :   1.1918 B(  2-C ,  6-C ) :   1.0296
B(  3-C ,  4-C ) :   1.6209 B(  3-C ,  5-H ) :   0.9908 B(  4-C , 20-C ) :   0.9811
B(  6-C ,  7-H ) :   0.9486 B(  6-C ,  8-H ) :   0.9417 B(  6-C ,  9-C ) :   1.0487
B(  9-C , 10-H ) :   0.9613 B(  9-C , 11-H ) :   0.9577 B(  9-C , 12-C ) :   1.0748
B( 12-C , 13-H ) :   0.9721 B( 12-C , 14-H ) :   0.9751 B( 12-C , 15-H ) :   0.9781
B( 16-S , 17-C ) :   1.1657 B( 16-S , 20-C ) :   1.1797 B( 17-C , 18-C ) :   1.5838
B( 17-C , 20-C ) :   0.1078 B( 17-C , 33-H ) :   0.9739 B( 18-C , 19-C ) :   1.2748
B( 18-C , 21-H ) :   0.9812 B( 19-C , 20-C ) :   1.5677 B( 19-C , 22-C ) :   1.0392
B( 22-C , 23-H ) :   0.9255 B( 22-C , 24-H ) :   0.9294 B( 22-C , 25-C ) :   1.0732
B( 25-C , 26-H ) :   0.9527 B( 25-C , 27-H ) :   0.9623 B( 25-C , 28-C ) :   1.0722
B( 28-C , 29-H ) :   0.9767 B( 28-C , 30-H ) :   0.9750 B( 28-C , 31-H ) :   0.9743

Dispersion correction           -0.013788087
FINAL SINGLE POINT ENERGY     -1339.862803828908

DIPOLE MOMENT
-------------
                                X             Y             Z
Electronic contribution:     -1.95925      17.34190       5.99446
Nuclear contribution   :      2.02945     -17.77026      -6.08071
                        -----------------------------------------
Total Dipole Moment    :      0.07020      -0.42836      -0.08625
                        -----------------------------------------
Magnitude (a.u.)       :      0.44256
Magnitude (Debye)      :      1.12490

Rotational constants in cm-1:     0.020189     0.007446     0.006447
Rotational constants in MHz :   605.240542   223.232915   193.283847

                             ****ORCA TERMINATED NORMALLY****
TOTAL RUN TIME: 0 days 0 hours 0 minutes 20 seconds 656 msec
