                         Program Version 4.2.1 -  RELEASE  -
|  1> ! wB97X-D3 SP def2-SVP
|  2> %pal
|  3> nprocs 24
|  4> end
|  5>
|  6> * xyz 0 1
|  7> S 	 -123.958 	 58.3912 	 -59.0192
|  8> C 	 -123.703 	 58.1754 	 -60.7745
|  9> C 	 -124.729 	 57.4079 	 -61.3303
| 10> C 	 -125.652 	 56.9048 	 -60.3469
| 11> C 	 -125.369 	 57.3481 	 -59.0402
| 12> H 	 -126.342 	 56.0297 	 -60.4149
| 13> C 	 -124.795 	 56.8909 	 -62.7959
| 14> H 	 -124.083 	 57.5367 	 -63.3931
| 15> H 	 -125.796 	 57.213 	 -63.1929
| 16> C 	 -124.277 	 55.5121 	 -63.1333
| 17> H 	 -124.906 	 54.7778 	 -62.66
| 18> H 	 -124.259 	 55.4594 	 -64.1844
| 19> C 	 -122.972 	 55.2046 	 -62.4466
| 20> H 	 -122.13 	 55.834 	 -62.7974
| 21> H 	 -123.001 	 55.269 	 -61.3926
| 22> H 	 -122.663 	 54.151 	 -62.6155
| 23> S 	 -125.305 	 56.3811 	 -56.5981
| 24> C 	 -126.633 	 56.5742 	 -55.4679
| 25> C 	 -127.792 	 56.8569 	 -56.1342
| 26> C 	 -127.567 	 57.2031 	 -57.5315
| 27> C 	 -126.205 	 57.1159 	 -57.862
| 28> H 	 -128.753 	 56.9565 	 -55.6229
| 29> C 	 -128.622 	 57.9292 	 -58.4527
| 30> H 	 -128.363 	 57.932 	 -59.5264
| 31> H 	 -128.61 	 58.9995 	 -58.2947
| 32> C 	 -130.038 	 57.384 	 -58.3775
| 33> H 	 -130.722 	 58.2052 	 -58.6883
| 34> H 	 -130.332 	 57.2067 	 -57.3958
| 35> C 	 -130.403 	 56.2895 	 -59.3234
| 36> H 	 -131.354 	 55.8055 	 -58.9659
| 37> H 	 -129.704 	 55.5063 	 -59.2615
| 38> H 	 -130.465 	 56.7087 	 -60.3965
| 39> H 	 -122.902 	 58.5924 	 -61.3793
| 40> H 	 -126.631 	 56.2033 	 -54.5013
| 41> *
| 42>
| 43>                          ****END OF INPUT****

CARTESIAN COORDINATES (ANGSTROEM)
---------------------------------
  S    -123.958000   58.391200  -59.019200
  C    -123.703000   58.175400  -60.774500
  C    -124.729000   57.407900  -61.330300
  C    -125.652000   56.904800  -60.346900
  C    -125.369000   57.348100  -59.040200
  H    -126.342000   56.029700  -60.414900
  C    -124.795000   56.890900  -62.795900
  H    -124.083000   57.536700  -63.393100
  H    -125.796000   57.213000  -63.192900
  C    -124.277000   55.512100  -63.133300
  H    -124.906000   54.777800  -62.660000
  H    -124.259000   55.459400  -64.184400
  C    -122.972000   55.204600  -62.446600
  H    -122.130000   55.834000  -62.797400
  H    -123.001000   55.269000  -61.392600
  H    -122.663000   54.151000  -62.615500
  S    -125.305000   56.381100  -56.598100
  C    -126.633000   56.574200  -55.467900
  C    -127.792000   56.856900  -56.134200
  C    -127.567000   57.203100  -57.531500
  C    -126.205000   57.115900  -57.862000
  H    -128.753000   56.956500  -55.622900
  C    -128.622000   57.929200  -58.452700
  H    -128.363000   57.932000  -59.526400
  H    -128.610000   58.999500  -58.294700
  C    -130.038000   57.384000  -58.377500
  H    -130.722000   58.205200  -58.688300
  H    -130.332000   57.206700  -57.395800
  C    -130.403000   56.289500  -59.323400
  H    -131.354000   55.805500  -58.965900
  H    -129.704000   55.506300  -59.261500
  H    -130.465000   56.708700  -60.396500
  H    -122.902000   58.592400  -61.379300
  H    -126.631000   56.203300  -54.501300

 Total Charge           Charge          ....    0
 Multiplicity           Mult            ....    1
 Number of Electrons    NEL             ....  134
 Basis Dimension        Dim             ....  322

ORBITAL ENERGIES
----------------

  NO   OCC          E(Eh)            E(eV)
   0   2.0000     -88.971058     -2421.0256
   1   2.0000     -88.962654     -2420.7969
   2   2.0000     -10.333204      -281.1808
   3   2.0000     -10.327295      -281.0200
   4   2.0000     -10.321288      -280.8565
   5   2.0000     -10.313660      -280.6490
   6   2.0000     -10.311992      -280.6036
   7   2.0000     -10.307564      -280.4831
   8   2.0000     -10.299968      -280.2764
   9   2.0000     -10.299313      -280.2585
  10   2.0000     -10.299205      -280.2556
  11   2.0000     -10.293011      -280.0871
  12   2.0000     -10.282365      -279.7974
  13   2.0000     -10.279618      -279.7226
  14   2.0000     -10.277109      -279.6544
  15   2.0000     -10.273301      -279.5507
  16   2.0000      -8.084743      -219.9970
  17   2.0000      -8.078309      -219.8220
  18   2.0000      -6.043304      -164.4467
  19   2.0000      -6.039299      -164.3377
  20   2.0000      -6.036771      -164.2689
  21   2.0000      -6.035575      -164.2364
  22   2.0000      -6.032644      -164.1566
  23   2.0000      -6.029093      -164.0600
  24   2.0000      -1.006103       -27.3775
  25   2.0000      -0.979408       -26.6510
  26   2.0000      -0.915351       -24.9080
  27   2.0000      -0.909973       -24.7616
  28   2.0000      -0.871373       -23.7113
  29   2.0000      -0.847345       -23.0574
  30   2.0000      -0.842123       -22.9153
  31   2.0000      -0.812578       -22.1114
  32   2.0000      -0.782472       -21.2921
  33   2.0000      -0.775163       -21.0933
  34   2.0000      -0.706222       -19.2173
  35   2.0000      -0.696150       -18.9432
  36   2.0000      -0.695445       -18.9240
  37   2.0000      -0.655736       -17.8435
  38   2.0000      -0.636433       -17.3182
  39   2.0000      -0.615641       -16.7524
  40   2.0000      -0.604034       -16.4366
  41   2.0000      -0.571104       -15.5405
  42   2.0000      -0.551428       -15.0051
  43   2.0000      -0.549459       -14.9515
  44   2.0000      -0.547877       -14.9085
  45   2.0000      -0.542930       -14.7739
  46   2.0000      -0.516841       -14.0640
  47   2.0000      -0.507805       -13.8181
  48   2.0000      -0.499656       -13.5963
  49   2.0000      -0.494189       -13.4476
  50   2.0000      -0.489366       -13.3163
  51   2.0000      -0.477866       -13.0034
  52   2.0000      -0.471450       -12.8288
  53   2.0000      -0.463119       -12.6021
  54   2.0000      -0.458449       -12.4750
  55   2.0000      -0.447616       -12.1802
  56   2.0000      -0.442705       -12.0466
  57   2.0000      -0.437157       -11.8956
  58   2.0000      -0.431754       -11.7486
  59   2.0000      -0.426119       -11.5953
  60   2.0000      -0.420813       -11.4509
  61   2.0000      -0.405526       -11.0349
  62   2.0000      -0.403461       -10.9787
  63   2.0000      -0.344463        -9.3733
  64   2.0000      -0.334553        -9.1036
  65   2.0000      -0.327393        -8.9088
  66   2.0000      -0.296354        -8.0642
  67   0.0000       0.024601         0.6694
  68   0.0000       0.067699         1.8422
  69   0.0000       0.107666         2.9297
  70   0.0000       0.117820         3.2061
  71   0.0000       0.125315         3.4100

MULLIKEN ATOMIC CHARGES
-----------------------
   0 S :    0.122430
   1 C :   -0.119628
   2 C :   -0.107917
   3 C :    0.022867
   4 C :   -0.163158
   5 H :    0.045408
   6 C :    0.010006
   7 H :    0.013088
   8 H :    0.046054
   9 C :    0.005880
  10 H :    0.021976
  11 H :    0.031933
  12 C :   -0.071714
  13 H :    0.022339
  14 H :    0.040276
  15 H :    0.030899
  16 S :    0.097603
  17 C :   -0.050730
  18 C :   -0.057349
  19 C :   -0.009474
  20 C :   -0.172752
  21 H :    0.034203
  22 C :    0.055005
  23 H :    0.014599
  24 H :    0.039216
  25 C :   -0.071222
  26 H :    0.021545
  27 H :    0.004348
  28 C :   -0.045119
  29 H :    0.036532
  30 H :    0.017076
  31 H :    0.047921
  32 H :    0.052783
  33 H :    0.035073
Sum of atomic charges:   -0.0000000

LOEWDIN ATOMIC CHARGES
----------------------
   0 S :    0.400412
   1 C :   -0.190820
   2 C :   -0.064747
   3 C :   -0.072636
   4 C :   -0.203773
   5 H :    0.042349
   6 C :   -0.040268
   7 H :    0.029415
   8 H :    0.036126
   9 C :   -0.035330
  10 H :    0.023684
  11 H :    0.024065
  12 C :   -0.063156
  13 H :    0.021537
  14 H :    0.023336
  15 H :    0.029799
  16 S :    0.418240
  17 C :   -0.174211
  18 C :   -0.068031
  19 C :   -0.055321
  20 C :   -0.205381
  21 H :    0.034617
  22 C :   -0.032054
  23 H :    0.032144
  24 H :    0.034805
  25 C :   -0.050169
  26 H :    0.031384
  27 H :    0.009698
  28 C :   -0.065997
  29 H :    0.034342
  30 H :    0.012903
  31 H :    0.035869
  32 H :    0.031847
  33 H :    0.015322

  Mayer bond orders larger than 0.100000
B(  0-S ,  1-C ) :   1.1302 B(  0-S ,  4-C ) :   1.1556 B(  1-C ,  2-C ) :   1.6112
B(  1-C ,  4-C ) :   0.1013 B(  1-C , 32-H ) :   0.9670 B(  2-C ,  3-C ) :   1.2360
B(  2-C ,  6-C ) :   1.0228 B(  3-C ,  4-C ) :   1.5753 B(  3-C ,  5-H ) :   0.9819
B(  4-C , 20-C ) :   1.0176 B(  6-C ,  7-H ) :   0.9423 B(  6-C ,  8-H ) :   0.9439
B(  6-C ,  9-C ) :   1.0625 B(  9-C , 10-H ) :   0.9511 B(  9-C , 11-H ) :   0.9563
B(  9-C , 12-C ) :   1.0820 B( 12-C , 13-H ) :   0.9749 B( 12-C , 14-H ) :   0.9685
B( 12-C , 15-H ) :   0.9726 B( 16-S , 17-C ) :   1.1442 B( 16-S , 20-C ) :   1.1693
B( 17-C , 18-C ) :   1.6301 B( 17-C , 33-H ) :   0.9729 B( 18-C , 19-C ) :   1.2255
B( 18-C , 21-H ) :   0.9829 B( 19-C , 20-C ) :   1.5894 B( 19-C , 22-C ) :   1.0228
B( 22-C , 23-H ) :   0.9416 B( 22-C , 24-H ) :   0.9419 B( 22-C , 25-C ) :   1.0655
B( 25-C , 26-H ) :   0.9497 B( 25-C , 27-H ) :   0.9583 B( 25-C , 28-C ) :   1.0887
B( 28-C , 29-H ) :   0.9699 B( 28-C , 30-H ) :   0.9758 B( 28-C , 31-H ) :   0.9719

Dispersion correction           -0.014359359
FINAL SINGLE POINT ENERGY     -1339.857630109339

DIPOLE MOMENT
-------------
                                X             Y             Z
Electronic contribution:     13.07531       7.18315      18.96966
Nuclear contribution   :    -13.46607      -7.34184     -19.28309
                        -----------------------------------------
Total Dipole Moment    :     -0.39075      -0.15869      -0.31343
                        -----------------------------------------
Magnitude (a.u.)       :      0.52546
Magnitude (Debye)      :      1.33561

Rotational constants in cm-1:     0.018674     0.008581     0.006865
Rotational constants in MHz :   559.845904   257.263880   205.803059

                             ****ORCA TERMINATED NORMALLY****
TOTAL RUN TIME: 0 days 0 hours 0 minutes 21 seconds 475 msec
