                         Program Version 4.2.1 -  RELEASE  -
|  1> ! wB97X-D3 SP def2-SVP
|  2> %pal
|  3> nprocs 24
|  4> end
|  5>
|  6> * xyz 0 1
|  7> S 	 -88.5929 	 -3.99871 	 -61.4038
|  8> C 	 -89.8677 	 -3.4423 	 -62.4893
|  9> C 	 -89.4205 	 -3.23298 	 -63.7837
| 10> C 	 -87.9866 	 -3.44188 	 -63.8618
| 11> C 	 -87.3789 	 -3.74392 	 -62.633
| 12> H 	 -87.3677 	 -3.23246 	 -64.7471
| 13> C 	 -90.3174 	 -2.84705 	 -64.9237
| 14> H 	 -89.7457 	 -2.10363 	 -65.5133
| 15> H 	 -91.1748 	 -2.27502 	 -64.4536
| 16> C 	 -90.8835 	 -3.89951 	 -65.9471
| 17> H 	 -91.5338 	 -3.38214 	 -66.5961
| 18> H 	 -90.1282 	 -4.37981 	 -66.5301
| 19> C 	 -91.752 	 -5.05421 	 -65.2883
| 20> H 	 -92.5781 	 -4.69091 	 -64.6884
| 21> H 	 -92.2202 	 -5.63517 	 -65.9941
| 22> H 	 -91.1717 	 -5.80623 	 -64.8308
| 23> S 	 -85.6345 	 -5.60108 	 -61.6007
| 24> C 	 -84.0029 	 -5.16953 	 -61.4637
| 25> C 	 -83.7005 	 -3.99454 	 -62.0476
| 26> C 	 -84.8418 	 -3.24274 	 -62.5043
| 27> C 	 -85.9986 	 -4.01352 	 -62.3694
| 28> H 	 -82.6651 	 -3.81226 	 -61.9884
| 29> C 	 -84.6887 	 -1.84351 	 -62.9314
| 30> H 	 -85.6251 	 -1.27976 	 -62.9667
| 31> H 	 -84.468 	 -2.05 	 -63.9491
| 32> C 	 -83.4186 	 -1.03209 	 -62.5118
| 33> H 	 -82.507 	 -1.34898 	 -62.9322
| 34> H 	 -83.4381 	 -0.882005 	 -61.4416
| 35> C 	 -83.6088 	 0.364627 	 -63.1364
| 36> H 	 -84.5788 	 0.763921 	 -62.8761
| 37> H 	 -83.3768 	 0.144109 	 -64.1821
| 38> H 	 -82.9184 	 1.10808 	 -62.7118
| 39> H 	 -90.8751 	 -3.37371 	 -62.0308
| 40> H 	 -83.3034 	 -5.89309 	 -61.087
| 41> *
| 42>
| 43>                          ****END OF INPUT****

CARTESIAN COORDINATES (ANGSTROEM)
---------------------------------
  S    -88.592900   -3.998710  -61.403800
  C    -89.867700   -3.442300  -62.489300
  C    -89.420500   -3.232980  -63.783700
  C    -87.986600   -3.441880  -63.861800
  C    -87.378900   -3.743920  -62.633000
  H    -87.367700   -3.232460  -64.747100
  C    -90.317400   -2.847050  -64.923700
  H    -89.745700   -2.103630  -65.513300
  H    -91.174800   -2.275020  -64.453600
  C    -90.883500   -3.899510  -65.947100
  H    -91.533800   -3.382140  -66.596100
  H    -90.128200   -4.379810  -66.530100
  C    -91.752000   -5.054210  -65.288300
  H    -92.578100   -4.690910  -64.688400
  H    -92.220200   -5.635170  -65.994100
  H    -91.171700   -5.806230  -64.830800
  S    -85.634500   -5.601080  -61.600700
  C    -84.002900   -5.169530  -61.463700
  C    -83.700500   -3.994540  -62.047600
  C    -84.841800   -3.242740  -62.504300
  C    -85.998600   -4.013520  -62.369400
  H    -82.665100   -3.812260  -61.988400
  C    -84.688700   -1.843510  -62.931400
  H    -85.625100   -1.279760  -62.966700
  H    -84.468000   -2.050000  -63.949100
  C    -83.418600   -1.032090  -62.511800
  H    -82.507000   -1.348980  -62.932200
  H    -83.438100   -0.882005  -61.441600
  C    -83.608800    0.364627  -63.136400
  H    -84.578800    0.763921  -62.876100
  H    -83.376800    0.144109  -64.182100
  H    -82.918400    1.108080  -62.711800
  H    -90.875100   -3.373710  -62.030800
  H    -83.303400   -5.893090  -61.087000

 Total Charge           Charge          ....    0
 Multiplicity           Mult            ....    1
 Number of Electrons    NEL             ....  134
 Basis Dimension        Dim             ....  322

ORBITAL ENERGIES
----------------

  NO   OCC          E(Eh)            E(eV)
   0   2.0000     -88.960379     -2420.7350
   1   2.0000     -88.956527     -2420.6302
   2   2.0000     -10.325869      -280.9812
   3   2.0000     -10.321786      -280.8701
   4   2.0000     -10.315732      -280.7053
   5   2.0000     -10.307179      -280.4726
   6   2.0000     -10.305252      -280.4202
   7   2.0000     -10.303601      -280.3752
   8   2.0000     -10.299328      -280.2590
   9   2.0000     -10.297616      -280.2124
  10   2.0000     -10.289093      -279.9805
  11   2.0000     -10.288868      -279.9743
  12   2.0000     -10.287200      -279.9289
  13   2.0000     -10.283074      -279.8167
  14   2.0000     -10.278715      -279.6981
  15   2.0000     -10.265278      -279.3324
  16   2.0000      -8.075377      -219.7422
  17   2.0000      -8.072248      -219.6570
  18   2.0000      -6.033842      -164.1892
  19   2.0000      -6.030595      -164.1008
  20   2.0000      -6.029831      -164.0800
  21   2.0000      -6.026761      -163.9965
  22   2.0000      -6.026175      -163.9806
  23   2.0000      -6.022974      -163.8934
  24   2.0000      -1.003649       -27.3107
  25   2.0000      -0.980376       -26.6774
  26   2.0000      -0.918194       -24.9853
  27   2.0000      -0.902850       -24.5678
  28   2.0000      -0.868304       -23.6278
  29   2.0000      -0.856882       -23.3170
  30   2.0000      -0.841903       -22.9094
  31   2.0000      -0.811484       -22.0816
  32   2.0000      -0.785319       -21.3696
  33   2.0000      -0.771594       -20.9961
  34   2.0000      -0.713044       -19.4029
  35   2.0000      -0.703193       -19.1348
  36   2.0000      -0.694185       -18.8897
  37   2.0000      -0.651329       -17.7236
  38   2.0000      -0.636495       -17.3199
  39   2.0000      -0.616306       -16.7705
  40   2.0000      -0.599358       -16.3094
  41   2.0000      -0.589268       -16.0348
  42   2.0000      -0.562787       -15.3142
  43   2.0000      -0.547890       -14.9088
  44   2.0000      -0.537888       -14.6367
  45   2.0000      -0.526703       -14.3323
  46   2.0000      -0.520534       -14.1644
  47   2.0000      -0.514593       -14.0028
  48   2.0000      -0.496577       -13.5126
  49   2.0000      -0.492304       -13.3963
  50   2.0000      -0.485231       -13.2038
  51   2.0000      -0.475533       -12.9399
  52   2.0000      -0.466841       -12.7034
  53   2.0000      -0.463004       -12.5990
  54   2.0000      -0.458619       -12.4797
  55   2.0000      -0.446417       -12.1476
  56   2.0000      -0.444268       -12.0891
  57   2.0000      -0.440772       -11.9940
  58   2.0000      -0.434477       -11.8227
  59   2.0000      -0.427886       -11.6434
  60   2.0000      -0.422843       -11.5061
  61   2.0000      -0.418332       -11.3834
  62   2.0000      -0.413991       -11.2653
  63   2.0000      -0.341294        -9.2871
  64   2.0000      -0.327559        -8.9133
  65   2.0000      -0.322407        -8.7731
  66   2.0000      -0.287671        -7.8279
  67   0.0000       0.034736         0.9452
  68   0.0000       0.070757         1.9254
  69   0.0000       0.115783         3.1506
  70   0.0000       0.122399         3.3306
  71   0.0000       0.132662         3.6099

MULLIKEN ATOMIC CHARGES
-----------------------
   0 S :    0.101023
   1 C :   -0.151754
   2 C :   -0.058624
   3 C :    0.030062
   4 C :   -0.172775
   5 H :    0.018772
   6 C :    0.027231
   7 H :    0.028667
   8 H :    0.034007
   9 C :   -0.028553
  10 H :    0.023408
  11 H :    0.026526
  12 C :   -0.024031
  13 H :    0.023682
  14 H :   -0.000342
  15 H :    0.029137
  16 S :    0.093566
  17 C :   -0.089897
  18 C :   -0.036478
  19 C :    0.026905
  20 C :   -0.182346
  21 H :    0.000404
  22 C :    0.044232
  23 H :    0.032227
  24 H :    0.023563
  25 C :   -0.048384
  26 H :    0.029061
  27 H :    0.038895
  28 C :   -0.054436
  29 H :    0.031491
  30 H :    0.034279
  31 H :    0.033061
  32 H :    0.065443
  33 H :    0.051979
Sum of atomic charges:    0.0000000

LOEWDIN ATOMIC CHARGES
----------------------
   0 S :    0.397476
   1 C :   -0.191362
   2 C :   -0.069847
   3 C :   -0.064139
   4 C :   -0.200383
   5 H :    0.033209
   6 C :   -0.038184
   7 H :    0.032662
   8 H :    0.038578
   9 C :   -0.022962
  10 H :    0.020310
  11 H :    0.021665
  12 C :   -0.062647
  13 H :    0.024018
  14 H :    0.016039
  15 H :    0.023549
  16 S :    0.394221
  17 C :   -0.188780
  18 C :   -0.079232
  19 C :   -0.039189
  20 C :   -0.197446
  21 H :    0.026787
  22 C :   -0.038342
  23 H :    0.036138
  24 H :    0.040174
  25 C :   -0.027000
  26 H :    0.019989
  27 H :    0.022293
  28 C :   -0.059298
  29 H :    0.021967
  30 H :    0.026731
  31 H :    0.025927
  32 H :    0.031520
  33 H :    0.025558

  Mayer bond orders larger than 0.100000
B(  0-S ,  1-C ) :   1.1419 B(  0-S ,  4-C ) :   1.1528 B(  1-C ,  2-C ) :   1.5935
B(  1-C , 32-H ) :   0.9684 B(  2-C ,  3-C ) :   1.2308 B(  2-C ,  6-C ) :   1.0253
B(  3-C ,  4-C ) :   1.5682 B(  3-C ,  5-H ) :   0.9902 B(  4-C , 20-C ) :   1.0672
B(  6-C ,  7-H ) :   0.9385 B(  6-C ,  8-H ) :   0.9445 B(  6-C ,  9-C ) :   1.0695
B(  9-C , 10-H ) :   0.9565 B(  9-C , 11-H ) :   0.9581 B(  9-C , 12-C ) :   1.0793
B( 12-C , 13-H ) :   0.9766 B( 12-C , 14-H ) :   0.9688 B( 12-C , 15-H ) :   0.9746
B( 16-S , 17-C ) :   1.1596 B( 16-S , 20-C ) :   1.1211 B( 17-C , 18-C ) :   1.6485
B( 17-C , 33-H ) :   0.9618 B( 18-C , 19-C ) :   1.1805 B( 18-C , 21-H ) :   0.9966
B( 19-C , 20-C ) :   1.6090 B( 19-C , 22-C ) :   1.0354 B( 22-C , 23-H ) :   0.9402
B( 22-C , 24-H ) :   0.9089 B( 22-C , 25-C ) :   1.0752 B( 25-C , 26-H ) :   0.9489
B( 25-C , 27-H ) :   0.9579 B( 25-C , 28-C ) :   1.0764 B( 28-C , 29-H ) :   0.9756
B( 28-C , 30-H ) :   0.9824 B( 28-C , 31-H ) :   0.9732

Dispersion correction           -0.013420438
FINAL SINGLE POINT ENERGY     -1339.856271060633

DIPOLE MOMENT
-------------
                                X             Y             Z
Electronic contribution:      2.98832     -14.66919      16.41203
Nuclear contribution   :     -2.81094      15.06371     -16.90810
                        -----------------------------------------
Total Dipole Moment    :      0.17738       0.39452      -0.49606
                        -----------------------------------------
Magnitude (a.u.)       :      0.65817
Magnitude (Debye)      :      1.67294

Rotational constants in cm-1:     0.019927     0.007478     0.006154
Rotational constants in MHz :   597.404490   224.189303   184.497084

                             ****ORCA TERMINATED NORMALLY****
TOTAL RUN TIME: 0 days 0 hours 0 minutes 20 seconds 940 msec
