                         Program Version 4.2.1 -  RELEASE  -
|  1> ! wB97X-D3 SP def2-SVP
|  2> %pal
|  3> nprocs 24
|  4> end
|  5>
|  6> * xyz 0 1
|  7> S 	 -108.326 	 54.8017 	 -101.451
|  8> C 	 -109.954 	 54.1008 	 -101.217
|  9> C 	 -110.907 	 55.1123 	 -101.057
| 10> C 	 -110.325 	 56.3938 	 -101.313
| 11> C 	 -108.946 	 56.4206 	 -101.467
| 12> H 	 -110.893 	 57.2387 	 -101.416
| 13> C 	 -112.444 	 54.9831 	 -100.953
| 14> H 	 -112.84 	 55.8043 	 -100.338
| 15> H 	 -112.62 	 54.0864 	 -100.505
| 16> C 	 -113.134 	 54.885 	 -102.326
| 17> H 	 -112.622 	 55.4907 	 -103.051
| 18> H 	 -112.925 	 53.7935 	 -102.675
| 19> C 	 -114.607 	 55.122 	 -102.407
| 20> H 	 -114.836 	 56.0065 	 -101.743
| 21> H 	 -114.96 	 55.4425 	 -103.437
| 22> H 	 -115.179 	 54.2889 	 -101.984
| 23> S 	 -106.713 	 57.6103 	 -100.391
| 24> C 	 -106.336 	 59.2665 	 -100.86
| 25> C 	 -107.137 	 59.7321 	 -101.899
| 26> C 	 -108.132 	 58.7482 	 -102.316
| 27> C 	 -108.003 	 57.5426 	 -101.604
| 28> H 	 -107.199 	 60.7574 	 -102.214
| 29> C 	 -109.213 	 59.1403 	 -103.318
| 30> H 	 -109.764 	 58.2585 	 -103.591
| 31> H 	 -108.728 	 59.3388 	 -104.322
| 32> C 	 -110.056 	 60.4469 	 -103.204
| 33> H 	 -110.525 	 60.5659 	 -104.137
| 34> H 	 -109.372 	 61.2822 	 -103.036
| 35> C 	 -111.241 	 60.3735 	 -102.182
| 36> H 	 -112.024 	 59.68 	 -102.487
| 37> H 	 -111.762 	 61.3502 	 -102.084
| 38> H 	 -110.771 	 60.0748 	 -101.208
| 39> H 	 -110.119 	 53.055 	 -101.061
| 40> H 	 -105.592 	 59.8509 	 -100.3
| 41> *
| 42>
| 43>                          ****END OF INPUT****

CARTESIAN COORDINATES (ANGSTROEM)
---------------------------------
  S    -108.326000   54.801700  -101.451000
  C    -109.954000   54.100800  -101.217000
  C    -110.907000   55.112300  -101.057000
  C    -110.325000   56.393800  -101.313000
  C    -108.946000   56.420600  -101.467000
  H    -110.893000   57.238700  -101.416000
  C    -112.444000   54.983100  -100.953000
  H    -112.840000   55.804300  -100.338000
  H    -112.620000   54.086400  -100.505000
  C    -113.134000   54.885000  -102.326000
  H    -112.622000   55.490700  -103.051000
  H    -112.925000   53.793500  -102.675000
  C    -114.607000   55.122000  -102.407000
  H    -114.836000   56.006500  -101.743000
  H    -114.960000   55.442500  -103.437000
  H    -115.179000   54.288900  -101.984000
  S    -106.713000   57.610300  -100.391000
  C    -106.336000   59.266500  -100.860000
  C    -107.137000   59.732100  -101.899000
  C    -108.132000   58.748200  -102.316000
  C    -108.003000   57.542600  -101.604000
  H    -107.199000   60.757400  -102.214000
  C    -109.213000   59.140300  -103.318000
  H    -109.764000   58.258500  -103.591000
  H    -108.728000   59.338800  -104.322000
  C    -110.056000   60.446900  -103.204000
  H    -110.525000   60.565900  -104.137000
  H    -109.372000   61.282200  -103.036000
  C    -111.241000   60.373500  -102.182000
  H    -112.024000   59.680000  -102.487000
  H    -111.762000   61.350200  -102.084000
  H    -110.771000   60.074800  -101.208000
  H    -110.119000   53.055000  -101.061000
  H    -105.592000   59.850900  -100.300000

 Total Charge           Charge          ....    0
 Multiplicity           Mult            ....    1
 Number of Electrons    NEL             ....  134
 Basis Dimension        Dim             ....  322

ORBITAL ENERGIES
----------------

  NO   OCC          E(Eh)            E(eV)
   0   2.0000     -88.968405     -2420.9534
   1   2.0000     -88.964404     -2420.8445
   2   2.0000     -10.332278      -281.1556
   3   2.0000     -10.329819      -281.0887
   4   2.0000     -10.325611      -280.9742
   5   2.0000     -10.317433      -280.7516
   6   2.0000     -10.312209      -280.6095
   7   2.0000     -10.304833      -280.4088
   8   2.0000     -10.299562      -280.2653
   9   2.0000     -10.297149      -280.1997
  10   2.0000     -10.293539      -280.1014
  11   2.0000     -10.290545      -280.0200
  12   2.0000     -10.289358      -279.9877
  13   2.0000     -10.287194      -279.9288
  14   2.0000     -10.286082      -279.8985
  15   2.0000     -10.285710      -279.8884
  16   2.0000      -8.082659      -219.9403
  17   2.0000      -8.078913      -219.8384
  18   2.0000      -6.041199      -164.3894
  19   2.0000      -6.037502      -164.2888
  20   2.0000      -6.037261      -164.2822
  21   2.0000      -6.033379      -164.1766
  22   2.0000      -6.033375      -164.1765
  23   2.0000      -6.029685      -164.0761
  24   2.0000      -1.001096       -27.2412
  25   2.0000      -0.977253       -26.5924
  26   2.0000      -0.913035       -24.8449
  27   2.0000      -0.904901       -24.6236
  28   2.0000      -0.866404       -23.5761
  29   2.0000      -0.849296       -23.1105
  30   2.0000      -0.843521       -22.9534
  31   2.0000      -0.812423       -22.1072
  32   2.0000      -0.785375       -21.3711
  33   2.0000      -0.773852       -21.0576
  34   2.0000      -0.707769       -19.2594
  35   2.0000      -0.693280       -18.8651
  36   2.0000      -0.692586       -18.8462
  37   2.0000      -0.659677       -17.9507
  38   2.0000      -0.644505       -17.5379
  39   2.0000      -0.624992       -17.0069
  40   2.0000      -0.600461       -16.3394
  41   2.0000      -0.565440       -15.3864
  42   2.0000      -0.560793       -15.2599
  43   2.0000      -0.551432       -15.0052
  44   2.0000      -0.537069       -14.6144
  45   2.0000      -0.525748       -14.3063
  46   2.0000      -0.520359       -14.1597
  47   2.0000      -0.509333       -13.8597
  48   2.0000      -0.502872       -13.6838
  49   2.0000      -0.498766       -13.5721
  50   2.0000      -0.492708       -13.4073
  51   2.0000      -0.479596       -13.0505
  52   2.0000      -0.471654       -12.8344
  53   2.0000      -0.465277       -12.6608
  54   2.0000      -0.463257       -12.6059
  55   2.0000      -0.450378       -12.2554
  56   2.0000      -0.446051       -12.1377
  57   2.0000      -0.434553       -11.8248
  58   2.0000      -0.429902       -11.6982
  59   2.0000      -0.428180       -11.6514
  60   2.0000      -0.421235       -11.4624
  61   2.0000      -0.414271       -11.2729
  62   2.0000      -0.410877       -11.1805
  63   2.0000      -0.345790        -9.4094
  64   2.0000      -0.330536        -8.9943
  65   2.0000      -0.328663        -8.9434
  66   2.0000      -0.291321        -7.9272
  67   0.0000       0.030118         0.8195
  68   0.0000       0.064938         1.7670
  69   0.0000       0.106248         2.8912
  70   0.0000       0.112607         3.0642
  71   0.0000       0.124284         3.3819

MULLIKEN ATOMIC CHARGES
-----------------------
   0 S :    0.095825
   1 C :   -0.123006
   2 C :   -0.102467
   3 C :    0.066269
   4 C :   -0.146729
   5 H :   -0.046860
   6 C :    0.115004
   7 H :    0.031528
   8 H :   -0.001556
   9 C :   -0.098499
  10 H :    0.024693
  11 H :    0.029934
  12 C :   -0.055737
  13 H :    0.024800
  14 H :    0.050623
  15 H :    0.040949
  16 S :    0.106206
  17 C :   -0.104268
  18 C :   -0.017436
  19 C :   -0.036329
  20 C :   -0.122772
  21 H :    0.020794
  22 C :    0.017147
  23 H :    0.015228
  24 H :    0.037792
  25 C :   -0.039603
  26 H :    0.020730
  27 H :    0.031048
  28 C :   -0.081057
  29 H :    0.036880
  30 H :    0.040889
  31 H :    0.052384
  32 H :    0.046228
  33 H :    0.071371
Sum of atomic charges:   -0.0000000

LOEWDIN ATOMIC CHARGES
----------------------
   0 S :    0.398155
   1 C :   -0.185942
   2 C :   -0.052912
   3 C :   -0.057569
   4 C :   -0.194965
   5 H :    0.011643
   6 C :   -0.020500
   7 H :    0.031457
   8 H :    0.016411
   9 C :   -0.048936
  10 H :    0.018846
  11 H :    0.032129
  12 C :   -0.075446
  13 H :    0.027016
  14 H :    0.037390
  15 H :    0.026661
  16 S :    0.396921
  17 C :   -0.177381
  18 C :   -0.068796
  19 C :   -0.050319
  20 C :   -0.199574
  21 H :    0.029045
  22 C :   -0.043951
  23 H :    0.026750
  24 H :    0.045517
  25 C :   -0.030983
  26 H :    0.020648
  27 H :    0.023931
  28 C :   -0.074505
  29 H :    0.023199
  30 H :    0.029120
  31 H :    0.031297
  32 H :    0.022681
  33 H :    0.032962

  Mayer bond orders larger than 0.100000
B(  0-S ,  1-C ) :   1.1365 B(  0-S ,  4-C ) :   1.1587 B(  1-C ,  2-C ) :   1.5998
B(  1-C ,  4-C ) :   0.1031 B(  1-C , 32-H ) :   0.9724 B(  2-C ,  3-C ) :   1.2450
B(  2-C ,  6-C ) :   1.0397 B(  3-C ,  4-C ) :   1.5670 B(  3-C ,  5-H ) :   1.0101
B(  4-C , 20-C ) :   1.0069 B(  6-C ,  7-H ) :   0.9415 B(  6-C ,  8-H ) :   0.9325
B(  6-C ,  9-C ) :   1.0513 B(  9-C , 10-H ) :   0.9638 B(  9-C , 11-H ) :   0.9522
B(  9-C , 12-C ) :   1.0803 B( 12-C , 13-H ) :   0.9725 B( 12-C , 14-H ) :   0.9725
B( 12-C , 15-H ) :   0.9741 B( 16-S , 17-C ) :   1.1557 B( 16-S , 20-C ) :   1.1346
B( 17-C , 18-C ) :   1.6104 B( 17-C , 33-H ) :   0.9654 B( 18-C , 19-C ) :   1.2244
B( 18-C , 21-H ) :   0.9888 B( 19-C , 20-C ) :   1.6104 B( 19-C , 22-C ) :   1.0512
B( 22-C , 23-H ) :   0.9350 B( 22-C , 24-H ) :   0.9296 B( 22-C , 25-C ) :   1.0689
B( 25-C , 26-H ) :   0.9519 B( 25-C , 27-H ) :   0.9545 B( 25-C , 28-C ) :   1.0744
B( 28-C , 29-H ) :   0.9730 B( 28-C , 30-H ) :   0.9737 B( 28-C , 31-H ) :   0.9775

Dispersion correction           -0.014358360
FINAL SINGLE POINT ENERGY     -1339.870106527786

DIPOLE MOMENT
-------------
                                X             Y             Z
Electronic contribution:     29.60805      -8.56819       9.16658
Nuclear contribution   :    -30.26721       9.04480      -9.35116
                        -----------------------------------------
Total Dipole Moment    :     -0.65917       0.47662      -0.18458
                        -----------------------------------------
Magnitude (a.u.)       :      0.83411
Magnitude (Debye)      :      2.12013

Rotational constants in cm-1:     0.017808     0.009210     0.006513
Rotational constants in MHz :   533.876157   276.102233   195.251032

                             ****ORCA TERMINATED NORMALLY****
TOTAL RUN TIME: 0 days 0 hours 0 minutes 21 seconds 686 msec
