                         Program Version 4.2.1 -  RELEASE  -
|  1> ! wB97X-D3 SP def2-SVP
|  2> %pal
|  3> nprocs 24
|  4> end
|  5>
|  6> * xyz 0 1
|  7> S 	 -108.868 	 25.971 	 -118.031
|  8> C 	 -108.003 	 26.9039 	 -116.779
|  9> C 	 -106.909 	 27.6895 	 -117.29
| 10> C 	 -106.82 	 27.4408 	 -118.736
| 11> C 	 -107.794 	 26.6076 	 -119.236
| 12> H 	 -106.021 	 27.8967 	 -119.307
| 13> C 	 -106.031 	 28.637 	 -116.463
| 14> H 	 -104.974 	 28.1685 	 -116.541
| 15> H 	 -106.304 	 28.4482 	 -115.409
| 16> C 	 -106.094 	 30.1671 	 -116.808
| 17> H 	 -107.137 	 30.2949 	 -117.066
| 18> H 	 -106.026 	 30.6737 	 -115.855
| 19> C 	 -105.304 	 30.6766 	 -117.994
| 20> H 	 -104.211 	 30.6331 	 -117.83
| 21> H 	 -105.489 	 30.2168 	 -118.992
| 22> H 	 -105.515 	 31.7462 	 -118.197
| 23> S 	 -107.426 	 24.7167 	 -121.076
| 24> C 	 -107.594 	 25.1413 	 -122.709
| 25> C 	 -108.328 	 26.29 	 -122.948
| 26> C 	 -108.514 	 27.0685 	 -121.758
| 27> C 	 -108.063 	 26.3159 	 -120.666
| 28> H 	 -108.579 	 26.6522 	 -124.001
| 29> C 	 -109.183 	 28.4047 	 -121.857
| 30> H 	 -108.954 	 28.8541 	 -122.891
| 31> H 	 -108.814 	 29.047 	 -121.028
| 32> C 	 -110.702 	 28.3617 	 -121.764
| 33> H 	 -111.012 	 27.6968 	 -122.529
| 34> H 	 -111.092 	 29.38 	 -121.881
| 35> C 	 -111.271 	 27.7145 	 -120.529
| 36> H 	 -110.697 	 28.2574 	 -119.711
| 37> H 	 -111.139 	 26.6187 	 -120.391
| 38> H 	 -112.32 	 27.9054 	 -120.382
| 39> H 	 -108.23 	 26.7597 	 -115.761
| 40> H 	 -107.111 	 24.6586 	 -123.58
| 41> *
| 42>
| 43>                          ****END OF INPUT****

CARTESIAN COORDINATES (ANGSTROEM)
---------------------------------
  S    -108.868000   25.971000  -118.031000
  C    -108.003000   26.903900  -116.779000
  C    -106.909000   27.689500  -117.290000
  C    -106.820000   27.440800  -118.736000
  C    -107.794000   26.607600  -119.236000
  H    -106.021000   27.896700  -119.307000
  C    -106.031000   28.637000  -116.463000
  H    -104.974000   28.168500  -116.541000
  H    -106.304000   28.448200  -115.409000
  C    -106.094000   30.167100  -116.808000
  H    -107.137000   30.294900  -117.066000
  H    -106.026000   30.673700  -115.855000
  C    -105.304000   30.676600  -117.994000
  H    -104.211000   30.633100  -117.830000
  H    -105.489000   30.216800  -118.992000
  H    -105.515000   31.746200  -118.197000
  S    -107.426000   24.716700  -121.076000
  C    -107.594000   25.141300  -122.709000
  C    -108.328000   26.290000  -122.948000
  C    -108.514000   27.068500  -121.758000
  C    -108.063000   26.315900  -120.666000
  H    -108.579000   26.652200  -124.001000
  C    -109.183000   28.404700  -121.857000
  H    -108.954000   28.854100  -122.891000
  H    -108.814000   29.047000  -121.028000
  C    -110.702000   28.361700  -121.764000
  H    -111.012000   27.696800  -122.529000
  H    -111.092000   29.380000  -121.881000
  C    -111.271000   27.714500  -120.529000
  H    -110.697000   28.257400  -119.711000
  H    -111.139000   26.618700  -120.391000
  H    -112.320000   27.905400  -120.382000
  H    -108.230000   26.759700  -115.761000
  H    -107.111000   24.658600  -123.580000

 Total Charge           Charge          ....    0
 Multiplicity           Mult            ....    1
 Number of Electrons    NEL             ....  134
 Basis Dimension        Dim             ....  322

ORBITAL ENERGIES
----------------

  NO   OCC          E(Eh)            E(eV)
   0   2.0000     -88.966988     -2420.9148
   1   2.0000     -88.965229     -2420.8669
   2   2.0000     -10.326191      -280.9899
   3   2.0000     -10.326045      -280.9860
   4   2.0000     -10.315428      -280.6971
   5   2.0000     -10.313352      -280.6406
   6   2.0000     -10.310614      -280.5661
   7   2.0000     -10.306926      -280.4657
   8   2.0000     -10.305909      -280.4380
   9   2.0000     -10.298515      -280.2368
  10   2.0000     -10.295669      -280.1594
  11   2.0000     -10.294592      -280.1301
  12   2.0000     -10.291694      -280.0512
  13   2.0000     -10.287693      -279.9424
  14   2.0000     -10.279039      -279.7069
  15   2.0000     -10.271818      -279.5104
  16   2.0000      -8.082539      -219.9371
  17   2.0000      -8.079499      -219.8544
  18   2.0000      -6.040814      -164.3789
  19   2.0000      -6.038010      -164.3026
  20   2.0000      -6.037109      -164.2781
  21   2.0000      -6.034091      -164.1960
  22   2.0000      -6.033302      -164.1745
  23   2.0000      -6.030294      -164.0926
  24   2.0000      -1.003809       -27.3150
  25   2.0000      -0.975888       -26.5553
  26   2.0000      -0.915619       -24.9153
  27   2.0000      -0.905354       -24.6359
  28   2.0000      -0.860030       -23.4026
  29   2.0000      -0.851435       -23.1687
  30   2.0000      -0.841950       -22.9106
  31   2.0000      -0.807485       -21.9728
  32   2.0000      -0.784101       -21.3365
  33   2.0000      -0.768606       -20.9148
  34   2.0000      -0.705913       -19.2089
  35   2.0000      -0.696251       -18.9460
  36   2.0000      -0.681176       -18.5357
  37   2.0000      -0.654519       -17.8104
  38   2.0000      -0.638082       -17.3631
  39   2.0000      -0.616468       -16.7749
  40   2.0000      -0.595894       -16.2151
  41   2.0000      -0.558928       -15.2092
  42   2.0000      -0.550889       -14.9905
  43   2.0000      -0.547407       -14.8957
  44   2.0000      -0.542422       -14.7600
  45   2.0000      -0.531852       -14.4724
  46   2.0000      -0.513615       -13.9762
  47   2.0000      -0.503239       -13.6938
  48   2.0000      -0.502308       -13.6685
  49   2.0000      -0.496362       -13.5067
  50   2.0000      -0.484407       -13.1814
  51   2.0000      -0.481444       -13.1008
  52   2.0000      -0.471110       -12.8196
  53   2.0000      -0.457900       -12.4601
  54   2.0000      -0.452709       -12.3188
  55   2.0000      -0.447334       -12.1726
  56   2.0000      -0.439635       -11.9631
  57   2.0000      -0.438058       -11.9202
  58   2.0000      -0.432179       -11.7602
  59   2.0000      -0.426728       -11.6119
  60   2.0000      -0.424396       -11.5484
  61   2.0000      -0.413093       -11.2408
  62   2.0000      -0.402584       -10.9549
  63   2.0000      -0.336758        -9.1637
  64   2.0000      -0.326045        -8.8721
  65   2.0000      -0.320426        -8.7192
  66   2.0000      -0.297029        -8.0826
  67   0.0000       0.046871         1.2754
  68   0.0000       0.051851         1.4109
  69   0.0000       0.110823         3.0156
  70   0.0000       0.116136         3.1602
  71   0.0000       0.120273         3.2728

MULLIKEN ATOMIC CHARGES
-----------------------
   0 S :    0.111953
   1 C :   -0.115593
   2 C :   -0.120962
   3 C :    0.052442
   4 C :   -0.155550
   5 H :    0.010390
   6 C :    0.022902
   7 H :    0.050578
   8 H :    0.021702
   9 C :   -0.029725
  10 H :    0.027342
  11 H :    0.034239
  12 C :   -0.070334
  13 H :    0.036044
  14 H :    0.042129
  15 H :    0.036853
  16 S :    0.132680
  17 C :   -0.093215
  18 C :   -0.078465
  19 C :   -0.003664
  20 C :   -0.205973
  21 H :    0.041228
  22 C :    0.037343
  23 H :    0.038319
  24 H :    0.034884
  25 C :   -0.030509
  26 H :    0.009722
  27 H :    0.039353
  28 C :   -0.078740
  29 H :    0.024809
  30 H :    0.049400
  31 H :    0.031863
  32 H :    0.032792
  33 H :    0.063764
Sum of atomic charges:    0.0000000

LOEWDIN ATOMIC CHARGES
----------------------
   0 S :    0.401470
   1 C :   -0.189506
   2 C :   -0.055206
   3 C :   -0.064895
   4 C :   -0.211452
   5 H :    0.029491
   6 C :   -0.041080
   7 H :    0.040919
   8 H :    0.033024
   9 C :   -0.044008
  10 H :    0.029812
  11 H :    0.030063
  12 C :   -0.074992
  13 H :    0.025977
  14 H :    0.031288
  15 H :    0.032935
  16 S :    0.429089
  17 C :   -0.207765
  18 C :   -0.084583
  19 C :   -0.048623
  20 C :   -0.200189
  21 H :    0.040781
  22 C :   -0.035357
  23 H :    0.041956
  24 H :    0.032480
  25 C :   -0.041439
  26 H :    0.017547
  27 H :    0.029551
  28 C :   -0.072888
  29 H :    0.027215
  30 H :    0.027722
  31 H :    0.023335
  32 H :    0.011743
  33 H :    0.035585

  Mayer bond orders larger than 0.100000
B(  0-S ,  1-C ) :   1.1373 B(  0-S ,  4-C ) :   1.1599 B(  1-C ,  2-C ) :   1.6071
B(  1-C , 32-H ) :   0.9721 B(  2-C ,  3-C ) :   1.2235 B(  2-C ,  6-C ) :   1.0300
B(  3-C ,  4-C ) :   1.6002 B(  3-C ,  5-H ) :   0.9961 B(  4-C , 20-C ) :   0.9726
B(  6-C ,  7-H ) :   0.9424 B(  6-C ,  8-H ) :   0.9404 B(  6-C ,  9-C ) :   1.0421
B(  9-C , 10-H ) :   0.9546 B(  9-C , 11-H ) :   0.9586 B(  9-C , 12-C ) :   1.0715
B( 12-C , 13-H ) :   0.9761 B( 12-C , 14-H ) :   0.9722 B( 12-C , 15-H ) :   0.9698
B( 16-S , 17-C ) :   1.1702 B( 16-S , 20-C ) :   1.1517 B( 17-C , 18-C ) :   1.6241
B( 17-C , 33-H ) :   0.9585 B( 18-C , 19-C ) :   1.2254 B( 18-C , 21-H ) :   0.9721
B( 19-C , 20-C ) :   1.6117 B( 19-C , 22-C ) :   1.0492 B( 22-C , 23-H ) :   0.9303
B( 22-C , 24-H ) :   0.9299 B( 22-C , 25-C ) :   1.0845 B( 25-C , 26-H ) :   0.9466
B( 25-C , 27-H ) :   0.9535 B( 25-C , 28-C ) :   1.0783 B( 28-C , 29-H ) :   0.9751
B( 28-C , 30-H ) :   0.9704 B( 28-C , 31-H ) :   0.9718

Dispersion correction           -0.015361788
FINAL SINGLE POINT ENERGY     -1339.861704195401

DIPOLE MOMENT
-------------
                                X             Y             Z
Electronic contribution:      0.31675     -23.30550      -2.08139
Nuclear contribution   :     -0.15363      23.92153       1.97510
                        -----------------------------------------
Total Dipole Moment    :      0.16312       0.61603      -0.10629
                        -----------------------------------------
Magnitude (a.u.)       :      0.64606
Magnitude (Debye)      :      1.64217

Rotational constants in cm-1:     0.018449     0.008721     0.008179
Rotational constants in MHz :   553.091076   261.455991   245.210770

                             ****ORCA TERMINATED NORMALLY****
TOTAL RUN TIME: 0 days 0 hours 0 minutes 22 seconds 178 msec
