                         Program Version 4.2.1 -  RELEASE  -
|  1> ! wB97X-D3 SP def2-SVP
|  2> %pal
|  3> nprocs 24
|  4> end
|  5>
|  6> * xyz 0 1
|  7> S 	 -133.697 	 69.4148 	 -60.2728
|  8> C 	 -132.812 	 67.9617 	 -60.1261
|  9> C 	 -133.401 	 66.9904 	 -60.9581
| 10> C 	 -134.569 	 67.4665 	 -61.6081
| 11> C 	 -134.779 	 68.8329 	 -61.4499
| 12> H 	 -135.237 	 66.9704 	 -62.2974
| 13> C 	 -132.8 	 65.6654 	 -61.465
| 14> H 	 -131.769 	 65.8058 	 -61.7437
| 15> H 	 -133.299 	 65.4984 	 -62.4022
| 16> C 	 -133.025 	 64.4645 	 -60.4914
| 17> H 	 -134.123 	 64.4973 	 -60.3145
| 18> H 	 -132.586 	 63.5727 	 -60.8534
| 19> C 	 -132.185 	 64.531 	 -59.1623
| 20> H 	 -131.614 	 65.4707 	 -59.0414
| 21> H 	 -132.666 	 64.4047 	 -58.1756
| 22> H 	 -131.458 	 63.671 	 -59.1571
| 23> S 	 -137.339 	 69.7574 	 -60.901
| 24> C 	 -138.379 	 70.1615 	 -62.172
| 25> C 	 -137.755 	 70.1041 	 -63.387
| 26> C 	 -136.424 	 69.6648 	 -63.3393
| 27> C 	 -135.998 	 69.4595 	 -62.03
| 28> H 	 -138.177 	 70.3211 	 -64.3946
| 29> C 	 -135.432 	 69.4638 	 -64.4875
| 30> H 	 -134.451 	 69.2339 	 -64.1546
| 31> H 	 -135.218 	 70.4044 	 -64.9403
| 32> C 	 -135.936 	 68.4789 	 -65.6244
| 33> H 	 -136.899 	 68.7747 	 -65.9858
| 34> H 	 -136.181 	 67.4683 	 -65.196
| 35> C 	 -135.01 	 68.5354 	 -66.8501
| 36> H 	 -134.712 	 69.5877 	 -67.1295
| 37> H 	 -135.414 	 68.0338 	 -67.7322
| 38> H 	 -134.103 	 68.0598 	 -66.611
| 39> H 	 -131.873 	 67.9862 	 -59.6691
| 40> H 	 -139.408 	 70.2854 	 -62.0284
| 41> *
| 42>
| 43>                          ****END OF INPUT****

CARTESIAN COORDINATES (ANGSTROEM)
---------------------------------
  S    -133.697000   69.414800  -60.272800
  C    -132.812000   67.961700  -60.126100
  C    -133.401000   66.990400  -60.958100
  C    -134.569000   67.466500  -61.608100
  C    -134.779000   68.832900  -61.449900
  H    -135.237000   66.970400  -62.297400
  C    -132.800000   65.665400  -61.465000
  H    -131.769000   65.805800  -61.743700
  H    -133.299000   65.498400  -62.402200
  C    -133.025000   64.464500  -60.491400
  H    -134.123000   64.497300  -60.314500
  H    -132.586000   63.572700  -60.853400
  C    -132.185000   64.531000  -59.162300
  H    -131.614000   65.470700  -59.041400
  H    -132.666000   64.404700  -58.175600
  H    -131.458000   63.671000  -59.157100
  S    -137.339000   69.757400  -60.901000
  C    -138.379000   70.161500  -62.172000
  C    -137.755000   70.104100  -63.387000
  C    -136.424000   69.664800  -63.339300
  C    -135.998000   69.459500  -62.030000
  H    -138.177000   70.321100  -64.394600
  C    -135.432000   69.463800  -64.487500
  H    -134.451000   69.233900  -64.154600
  H    -135.218000   70.404400  -64.940300
  C    -135.936000   68.478900  -65.624400
  H    -136.899000   68.774700  -65.985800
  H    -136.181000   67.468300  -65.196000
  C    -135.010000   68.535400  -66.850100
  H    -134.712000   69.587700  -67.129500
  H    -135.414000   68.033800  -67.732200
  H    -134.103000   68.059800  -66.611000
  H    -131.873000   67.986200  -59.669100
  H    -139.408000   70.285400  -62.028400

 Total Charge           Charge          ....    0
 Multiplicity           Mult            ....    1
 Number of Electrons    NEL             ....  134
 Basis Dimension        Dim             ....  322

ORBITAL ENERGIES
----------------

  NO   OCC          E(Eh)            E(eV)
   0   2.0000     -88.967079     -2420.9173
   1   2.0000     -88.962833     -2420.8018
   2   2.0000     -10.327247      -281.0187
   3   2.0000     -10.325109      -280.9605
   4   2.0000     -10.312759      -280.6245
   5   2.0000     -10.310542      -280.5641
   6   2.0000     -10.304615      -280.4028
   7   2.0000     -10.302090      -280.3341
   8   2.0000     -10.292904      -280.0842
   9   2.0000     -10.292766      -280.0804
  10   2.0000     -10.291403      -280.0433
  11   2.0000     -10.290278      -280.0127
  12   2.0000     -10.290093      -280.0077
  13   2.0000     -10.289805      -279.9998
  14   2.0000     -10.282792      -279.8090
  15   2.0000     -10.280164      -279.7375
  16   2.0000      -8.083112      -219.9526
  17   2.0000      -8.078589      -219.8296
  18   2.0000      -6.041418      -164.3954
  19   2.0000      -6.037136      -164.2788
  20   2.0000      -6.036896      -164.2723
  21   2.0000      -6.034302      -164.2017
  22   2.0000      -6.032901      -164.1636
  23   2.0000      -6.029543      -164.0722
  24   2.0000      -1.012284       -27.5457
  25   2.0000      -0.992982       -27.0204
  26   2.0000      -0.905459       -24.6388
  27   2.0000      -0.904346       -24.6085
  28   2.0000      -0.868790       -23.6410
  29   2.0000      -0.852972       -23.2105
  30   2.0000      -0.846902       -23.0454
  31   2.0000      -0.810094       -22.0438
  32   2.0000      -0.782152       -21.2834
  33   2.0000      -0.774851       -21.0848
  34   2.0000      -0.708378       -19.2759
  35   2.0000      -0.698585       -19.0095
  36   2.0000      -0.697759       -18.9870
  37   2.0000      -0.657972       -17.9043
  38   2.0000      -0.652074       -17.7438
  39   2.0000      -0.615969       -16.7614
  40   2.0000      -0.604106       -16.4386
  41   2.0000      -0.572643       -15.5824
  42   2.0000      -0.555477       -15.1153
  43   2.0000      -0.549739       -14.9592
  44   2.0000      -0.540354       -14.7038
  45   2.0000      -0.529560       -14.4101
  46   2.0000      -0.515368       -14.0239
  47   2.0000      -0.511478       -13.9180
  48   2.0000      -0.500905       -13.6303
  49   2.0000      -0.495391       -13.4803
  50   2.0000      -0.486845       -13.2477
  51   2.0000      -0.485259       -13.2046
  52   2.0000      -0.471756       -12.8371
  53   2.0000      -0.463237       -12.6053
  54   2.0000      -0.459736       -12.5101
  55   2.0000      -0.453905       -12.3514
  56   2.0000      -0.442950       -12.0533
  57   2.0000      -0.438853       -11.9418
  58   2.0000      -0.433897       -11.8069
  59   2.0000      -0.422447       -11.4954
  60   2.0000      -0.417891       -11.3714
  61   2.0000      -0.417427       -11.3588
  62   2.0000      -0.408584       -11.1181
  63   2.0000      -0.340800        -9.2736
  64   2.0000      -0.332947        -9.0600
  65   2.0000      -0.325988        -8.8706
  66   2.0000      -0.300705        -8.1826
  67   0.0000       0.042728         1.1627
  68   0.0000       0.057885         1.5751
  69   0.0000       0.116737         3.1766
  70   0.0000       0.127934         3.4813
  71   0.0000       0.132447         3.6041

MULLIKEN ATOMIC CHARGES
-----------------------
   0 S :    0.121378
   1 C :   -0.113513
   2 C :   -0.075309
   3 C :    0.023843
   4 C :   -0.172535
   5 H :    0.015778
   6 C :    0.058609
   7 H :    0.026379
   8 H :    0.017209
   9 C :   -0.027849
  10 H :    0.046918
  11 H :    0.027801
  12 C :   -0.100419
  13 H :    0.026838
  14 H :    0.038753
  15 H :    0.029868
  16 S :    0.113144
  17 C :   -0.066014
  18 C :   -0.032679
  19 C :   -0.028024
  20 C :   -0.186331
  21 H :    0.023943
  22 C :    0.099148
  23 H :    0.014399
  24 H :    0.013254
  25 C :   -0.090733
  26 H :    0.015885
  27 H :    0.035371
  28 C :   -0.037037
  29 H :    0.033595
  30 H :    0.038613
  31 H :    0.019313
  32 H :    0.046634
  33 H :    0.043772
Sum of atomic charges:   -0.0000000

LOEWDIN ATOMIC CHARGES
----------------------
   0 S :    0.452650
   1 C :   -0.206394
   2 C :   -0.061593
   3 C :   -0.061995
   4 C :   -0.226589
   5 H :    0.030745
   6 C :   -0.025174
   7 H :    0.026333
   8 H :    0.027942
   9 C :   -0.037024
  10 H :    0.033157
  11 H :    0.021629
  12 C :   -0.080098
  13 H :    0.022318
  14 H :    0.028910
  15 H :    0.027511
  16 S :    0.422479
  17 C :   -0.191234
  18 C :   -0.080128
  19 C :   -0.056282
  20 C :   -0.188926
  21 H :    0.036931
  22 C :   -0.022790
  23 H :    0.026042
  24 H :    0.028351
  25 C :   -0.039865
  26 H :    0.015597
  27 H :    0.027935
  28 C :   -0.065473
  29 H :    0.032333
  30 H :    0.027752
  31 H :    0.017033
  32 H :    0.017330
  33 H :    0.020587

  Mayer bond orders larger than 0.100000
B(  0-S ,  1-C ) :   1.1757 B(  0-S ,  4-C ) :   1.1870 B(  1-C ,  2-C ) :   1.5396
B(  1-C ,  4-C ) :   0.1049 B(  1-C , 32-H ) :   0.9801 B(  2-C ,  3-C ) :   1.2882
B(  2-C ,  6-C ) :   1.0033 B(  3-C ,  4-C ) :   1.5341 B(  3-C ,  5-H ) :   0.9918
B(  4-C , 20-C ) :   1.0013 B(  6-C ,  7-H ) :   0.9486 B(  6-C ,  8-H ) :   0.9476
B(  6-C ,  9-C ) :   1.0742 B(  9-C , 10-H ) :   0.9592 B(  9-C , 11-H ) :   0.9675
B(  9-C , 12-C ) :   1.0370 B( 12-C , 13-H ) :   0.9799 B( 12-C , 14-H ) :   0.9775
B( 12-C , 15-H ) :   0.9869 B( 16-S , 17-C ) :   1.1826 B( 16-S , 20-C ) :   1.1564
B( 17-C , 18-C ) :   1.5598 B( 17-C , 33-H ) :   0.9750 B( 18-C , 19-C ) :   1.2854
B( 18-C , 21-H ) :   0.9832 B( 19-C , 20-C ) :   1.5947 B( 19-C , 22-C ) :   1.0334
B( 22-C , 23-H ) :   0.9377 B( 22-C , 24-H ) :   0.9331 B( 22-C , 25-C ) :   1.0409
B( 25-C , 26-H ) :   0.9597 B( 25-C , 27-H ) :   0.9581 B( 25-C , 28-C ) :   1.0744
B( 28-C , 29-H ) :   0.9724 B( 28-C , 30-H ) :   0.9750 B( 28-C , 31-H ) :   0.9765

Dispersion correction           -0.014136771
FINAL SINGLE POINT ENERGY     -1339.861061301090

DIPOLE MOMENT
-------------
                                X             Y             Z
Electronic contribution:    -10.31622      18.51878      15.21661
Nuclear contribution   :     10.46652     -18.89512     -15.78926
                        -----------------------------------------
Total Dipole Moment    :      0.15029      -0.37634      -0.57264
                        -----------------------------------------
Magnitude (a.u.)       :      0.70153
Magnitude (Debye)      :      1.78315

Rotational constants in cm-1:     0.017895     0.008298     0.006585
Rotational constants in MHz :   536.467218   248.759885   197.408001

                             ****ORCA TERMINATED NORMALLY****
TOTAL RUN TIME: 0 days 0 hours 0 minutes 21 seconds 296 msec
