                         Program Version 4.2.1 -  RELEASE  -
|  1> ! wB97X-D3 SP def2-SVP
|  2> %pal
|  3> nprocs 24
|  4> end
|  5>
|  6> * xyz 0 1
|  7> S 	 -117.606 	 19.7785 	 -110.679
|  8> C 	 -118.67 	 21.1828 	 -110.773
|  9> C 	 -119.942 	 20.7566 	 -111.153
| 10> C 	 -120.071 	 19.3182 	 -111.231
| 11> C 	 -118.896 	 18.6407 	 -110.907
| 12> H 	 -120.96 	 18.7375 	 -111.604
| 13> C 	 -121.13 	 21.7091 	 -111.368
| 14> H 	 -121.334 	 22.2282 	 -110.44
| 15> H 	 -121.926 	 21.0146 	 -111.363
| 16> C 	 -121.207 	 22.537 	 -112.724
| 17> H 	 -121.84 	 23.3538 	 -112.43
| 18> H 	 -120.247 	 23.0168 	 -113.106
| 19> C 	 -121.69 	 21.7871 	 -113.878
| 20> H 	 -121.557 	 22.3949 	 -114.784
| 21> H 	 -121.182 	 20.8265 	 -114.028
| 22> H 	 -122.772 	 21.5296 	 -113.872
| 23> S 	 -117.379 	 16.7712 	 -112.123
| 24> C 	 -117.558 	 15.0734 	 -111.679
| 25> C 	 -118.464 	 14.8842 	 -110.648
| 26> C 	 -119.224 	 16.0829 	 -110.345
| 27> C 	 -118.673 	 17.2056 	 -111.056
| 28> H 	 -118.579 	 13.8749 	 -110.154
| 29> C 	 -120.234 	 16.1747 	 -109.26
| 30> H 	 -120.887 	 17.0171 	 -109.624
| 31> H 	 -119.805 	 16.8115 	 -108.458
| 32> C 	 -120.874 	 14.8855 	 -108.765
| 33> H 	 -120.144 	 14.0399 	 -108.534
| 34> H 	 -121.515 	 14.4829 	 -109.449
| 35> C 	 -121.531 	 15.245 	 -107.424
| 36> H 	 -120.755 	 15.7009 	 -106.751
| 37> H 	 -121.817 	 14.3645 	 -106.827
| 38> H 	 -122.361 	 15.9674 	 -107.489
| 39> H 	 -118.461 	 22.2388 	 -110.527
| 40> H 	 -117.008 	 14.2769 	 -112.089
| 41> *
| 42>
| 43>                          ****END OF INPUT****

CARTESIAN COORDINATES (ANGSTROEM)
---------------------------------
  S    -117.606000   19.778500  -110.679000
  C    -118.670000   21.182800  -110.773000
  C    -119.942000   20.756600  -111.153000
  C    -120.071000   19.318200  -111.231000
  C    -118.896000   18.640700  -110.907000
  H    -120.960000   18.737500  -111.604000
  C    -121.130000   21.709100  -111.368000
  H    -121.334000   22.228200  -110.440000
  H    -121.926000   21.014600  -111.363000
  C    -121.207000   22.537000  -112.724000
  H    -121.840000   23.353800  -112.430000
  H    -120.247000   23.016800  -113.106000
  C    -121.690000   21.787100  -113.878000
  H    -121.557000   22.394900  -114.784000
  H    -121.182000   20.826500  -114.028000
  H    -122.772000   21.529600  -113.872000
  S    -117.379000   16.771200  -112.123000
  C    -117.558000   15.073400  -111.679000
  C    -118.464000   14.884200  -110.648000
  C    -119.224000   16.082900  -110.345000
  C    -118.673000   17.205600  -111.056000
  H    -118.579000   13.874900  -110.154000
  C    -120.234000   16.174700  -109.260000
  H    -120.887000   17.017100  -109.624000
  H    -119.805000   16.811500  -108.458000
  C    -120.874000   14.885500  -108.765000
  H    -120.144000   14.039900  -108.534000
  H    -121.515000   14.482900  -109.449000
  C    -121.531000   15.245000  -107.424000
  H    -120.755000   15.700900  -106.751000
  H    -121.817000   14.364500  -106.827000
  H    -122.361000   15.967400  -107.489000
  H    -118.461000   22.238800  -110.527000
  H    -117.008000   14.276900  -112.089000

 Total Charge           Charge          ....    0
 Multiplicity           Mult            ....    1
 Number of Electrons    NEL             ....  134
 Basis Dimension        Dim             ....  322

ORBITAL ENERGIES
----------------

  NO   OCC          E(Eh)            E(eV)
   0   2.0000     -88.967669     -2420.9333
   1   2.0000     -88.967188     -2420.9203
   2   2.0000     -10.329760      -281.0871
   3   2.0000     -10.326052      -280.9861
   4   2.0000     -10.316815      -280.7348
   5   2.0000     -10.312951      -280.6297
   6   2.0000     -10.308423      -280.5065
   7   2.0000     -10.303411      -280.3701
   8   2.0000     -10.299514      -280.2640
   9   2.0000     -10.299098      -280.2527
  10   2.0000     -10.293370      -280.0968
  11   2.0000     -10.290928      -280.0304
  12   2.0000     -10.290707      -280.0244
  13   2.0000     -10.290442      -280.0172
  14   2.0000     -10.284014      -279.8423
  15   2.0000     -10.275539      -279.6116
  16   2.0000      -8.082061      -219.9241
  17   2.0000      -8.081711      -219.9145
  18   2.0000      -6.040673      -164.3751
  19   2.0000      -6.040218      -164.3627
  20   2.0000      -6.036491      -164.2613
  21   2.0000      -6.036212      -164.2537
  22   2.0000      -6.032838      -164.1619
  23   2.0000      -6.032532      -164.1535
  24   2.0000      -1.003364       -27.3029
  25   2.0000      -0.977979       -26.6122
  26   2.0000      -0.914373       -24.8814
  27   2.0000      -0.908810       -24.7300
  28   2.0000      -0.869037       -23.6477
  29   2.0000      -0.851266       -23.1641
  30   2.0000      -0.845516       -23.0077
  31   2.0000      -0.812862       -22.1191
  32   2.0000      -0.780187       -21.2300
  33   2.0000      -0.764464       -20.8021
  34   2.0000      -0.715116       -19.4593
  35   2.0000      -0.701822       -19.0975
  36   2.0000      -0.696067       -18.9409
  37   2.0000      -0.649621       -17.6771
  38   2.0000      -0.633976       -17.2514
  39   2.0000      -0.610571       -16.6145
  40   2.0000      -0.595657       -16.2087
  41   2.0000      -0.567112       -15.4319
  42   2.0000      -0.563332       -15.3290
  43   2.0000      -0.551354       -15.0031
  44   2.0000      -0.538046       -14.6410
  45   2.0000      -0.532704       -14.4956
  46   2.0000      -0.519200       -14.1282
  47   2.0000      -0.511335       -13.9141
  48   2.0000      -0.501877       -13.6568
  49   2.0000      -0.492895       -13.4124
  50   2.0000      -0.482995       -13.1430
  51   2.0000      -0.477920       -13.0049
  52   2.0000      -0.469572       -12.7777
  53   2.0000      -0.460523       -12.5315
  54   2.0000      -0.456342       -12.4177
  55   2.0000      -0.453008       -12.3270
  56   2.0000      -0.445565       -12.1244
  57   2.0000      -0.442827       -12.0499
  58   2.0000      -0.428556       -11.6616
  59   2.0000      -0.424165       -11.5421
  60   2.0000      -0.422122       -11.4865
  61   2.0000      -0.416069       -11.3218
  62   2.0000      -0.405776       -11.0417
  63   2.0000      -0.345018        -9.3884
  64   2.0000      -0.328192        -8.9306
  65   2.0000      -0.325957        -8.8697
  66   2.0000      -0.284596        -7.7443
  67   0.0000       0.030282         0.8240
  68   0.0000       0.060915         1.6576
  69   0.0000       0.111523         3.0347
  70   0.0000       0.121974         3.3191
  71   0.0000       0.131752         3.5852

MULLIKEN ATOMIC CHARGES
-----------------------
   0 S :    0.114855
   1 C :   -0.120914
   2 C :   -0.124406
   3 C :    0.012903
   4 C :   -0.169203
   5 H :    0.043851
   6 C :    0.078981
   7 H :    0.033090
   8 H :   -0.008107
   9 C :   -0.046696
  10 H :    0.026624
  11 H :    0.040469
  12 C :   -0.063869
  13 H :    0.034698
  14 H :    0.039775
  15 H :    0.026564
  16 S :    0.117317
  17 C :   -0.075329
  18 C :   -0.070319
  19 C :   -0.035913
  20 C :   -0.164081
  21 H :    0.042724
  22 C :    0.041544
  23 H :    0.017951
  24 H :    0.036511
  25 C :   -0.020597
  26 H :    0.042480
  27 H :    0.020546
  28 C :   -0.073616
  29 H :    0.033006
  30 H :    0.031757
  31 H :    0.040259
  32 H :    0.060163
  33 H :    0.036986
Sum of atomic charges:   -0.0000000

LOEWDIN ATOMIC CHARGES
----------------------
   0 S :    0.410654
   1 C :   -0.203762
   2 C :   -0.065214
   3 C :   -0.079645
   4 C :   -0.207765
   5 H :    0.041178
   6 C :   -0.032729
   7 H :    0.033111
   8 H :    0.023470
   9 C :   -0.043378
  10 H :    0.023738
  11 H :    0.034584
  12 C :   -0.073012
  13 H :    0.030235
  14 H :    0.029287
  15 H :    0.024254
  16 S :    0.416062
  17 C :   -0.181402
  18 C :   -0.077654
  19 C :   -0.050933
  20 C :   -0.214466
  21 H :    0.041286
  22 C :   -0.051941
  23 H :    0.043945
  24 H :    0.042998
  25 C :   -0.032761
  26 H :    0.035796
  27 H :    0.013956
  28 C :   -0.068707
  29 H :    0.030350
  30 H :    0.024370
  31 H :    0.026080
  32 H :    0.039399
  33 H :    0.018615

  Mayer bond orders larger than 0.100000
B(  0-S ,  1-C ) :   1.1317 B(  0-S ,  4-C ) :   1.1642 B(  1-C ,  2-C ) :   1.6012
B(  1-C , 32-H ) :   0.9684 B(  2-C ,  3-C ) :   1.2628 B(  2-C ,  6-C ) :   1.0081
B(  3-C ,  4-C ) :   1.5536 B(  3-C ,  5-H ) :   0.9737 B(  4-C , 20-C ) :   1.0414
B(  6-C ,  7-H ) :   0.9455 B(  6-C ,  8-H ) :   0.9377 B(  6-C ,  9-C ) :   1.0400
B(  9-C , 10-H ) :   0.9534 B(  9-C , 11-H ) :   0.9640 B(  9-C , 12-C ) :   1.0898
B( 12-C , 13-H ) :   0.9716 B( 12-C , 14-H ) :   0.9739 B( 12-C , 15-H ) :   0.9695
B( 16-S , 17-C ) :   1.1523 B( 16-S , 20-C ) :   1.1594 B( 17-C , 18-C ) :   1.6095
B( 17-C , 20-C ) :   0.1021 B( 17-C , 33-H ) :   0.9708 B( 18-C , 19-C ) :   1.2570
B( 18-C , 21-H ) :   0.9735 B( 19-C , 20-C ) :   1.5449 B( 19-C , 22-C ) :   1.0543
B( 22-C , 23-H ) :   0.9105 B( 22-C , 24-H ) :   0.9253 B( 22-C , 25-C ) :   1.0472
B( 25-C , 26-H ) :   0.9493 B( 25-C , 27-H ) :   0.9572 B( 25-C , 28-C ) :   1.0794
B( 28-C , 29-H ) :   0.9761 B( 28-C , 30-H ) :   0.9743 B( 28-C , 31-H ) :   0.9748

Dispersion correction           -0.013572232
FINAL SINGLE POINT ENERGY     -1339.856231141285

DIPOLE MOMENT
-------------
                                X             Y             Z
Electronic contribution:     23.30848      -2.85715      -4.93118
Nuclear contribution   :    -23.87864       2.84456       5.13250
                        -----------------------------------------
Total Dipole Moment    :     -0.57016      -0.01259       0.20132
                        -----------------------------------------
Magnitude (a.u.)       :      0.60479
Magnitude (Debye)      :      1.53725

Rotational constants in cm-1:     0.018413     0.007714     0.006459
Rotational constants in MHz :   551.996375   231.261081   193.650031

                             ****ORCA TERMINATED NORMALLY****
TOTAL RUN TIME: 0 days 0 hours 0 minutes 20 seconds 872 msec
