                         Program Version 4.2.1 -  RELEASE  -
|  1> ! wB97X-D3 SP def2-SVP
|  2> %pal
|  3> nprocs 24
|  4> end
|  5>
|  6> * xyz 0 1
|  7> S 	 -76.445 	 9.60713 	 -112.111
|  8> C 	 -77.556 	 9.05021 	 -110.96
|  9> C 	 -77.2668 	 9.51533 	 -109.713
| 10> C 	 -76.1717 	 10.431 	 -109.76
| 11> C 	 -75.5979 	 10.6294 	 -110.959
| 12> H 	 -75.7186 	 10.8179 	 -108.87
| 13> C 	 -77.9822 	 9.1055 	 -108.432
| 14> H 	 -77.2593 	 9.00338 	 -107.601
| 15> H 	 -78.306 	 8.05955 	 -108.529
| 16> C 	 -79.1135 	 9.99456 	 -107.899
| 17> H 	 -79.5978 	 9.50665 	 -107.075
| 18> H 	 -78.7141 	 10.909 	 -107.414
| 19> C 	 -80.2142 	 10.2864 	 -108.925
| 20> H 	 -80.7444 	 9.36193 	 -109.179
| 21> H 	 -80.9294 	 10.9542 	 -108.374
| 22> H 	 -79.6725 	 10.6956 	 -109.752
| 23> S 	 -72.9885 	 10.4013 	 -112.122
| 24> C 	 -71.9536 	 11.7355 	 -111.908
| 25> C 	 -72.5655 	 12.7687 	 -111.276
| 26> C 	 -73.9494 	 12.5184 	 -110.929
| 27> C 	 -74.3531 	 11.2493 	 -111.27
| 28> H 	 -72.135 	 13.6555 	 -111.171
| 29> C 	 -74.7773 	 13.661 	 -110.383
| 30> H 	 -74.0334 	 14.3376 	 -109.99
| 31> H 	 -75.4954 	 13.354 	 -109.636
| 32> C 	 -75.6175 	 14.2698 	 -111.478
| 33> H 	 -76.4211 	 14.98 	 -111.151
| 34> H 	 -76.2755 	 13.5261 	 -112.076
| 35> C 	 -74.8493 	 15.2435 	 -112.402
| 36> H 	 -74.6646 	 16.2439 	 -111.961
| 37> H 	 -75.5026 	 15.4241 	 -113.338
| 38> H 	 -73.9178 	 14.8762 	 -112.723
| 39> H 	 -78.1688 	 8.23165 	 -111.248
| 40> H 	 -70.9431 	 11.799 	 -112.324
| 41> *
| 42>
| 43>                          ****END OF INPUT****

CARTESIAN COORDINATES (ANGSTROEM)
---------------------------------
  S    -76.445000    9.607130  -112.111000
  C    -77.556000    9.050210  -110.960000
  C    -77.266800    9.515330  -109.713000
  C    -76.171700   10.431000  -109.760000
  C    -75.597900   10.629400  -110.959000
  H    -75.718600   10.817900  -108.870000
  C    -77.982200    9.105500  -108.432000
  H    -77.259300    9.003380  -107.601000
  H    -78.306000    8.059550  -108.529000
  C    -79.113500    9.994560  -107.899000
  H    -79.597800    9.506650  -107.075000
  H    -78.714100   10.909000  -107.414000
  C    -80.214200   10.286400  -108.925000
  H    -80.744400    9.361930  -109.179000
  H    -80.929400   10.954200  -108.374000
  H    -79.672500   10.695600  -109.752000
  S    -72.988500   10.401300  -112.122000
  C    -71.953600   11.735500  -111.908000
  C    -72.565500   12.768700  -111.276000
  C    -73.949400   12.518400  -110.929000
  C    -74.353100   11.249300  -111.270000
  H    -72.135000   13.655500  -111.171000
  C    -74.777300   13.661000  -110.383000
  H    -74.033400   14.337600  -109.990000
  H    -75.495400   13.354000  -109.636000
  C    -75.617500   14.269800  -111.478000
  H    -76.421100   14.980000  -111.151000
  H    -76.275500   13.526100  -112.076000
  C    -74.849300   15.243500  -112.402000
  H    -74.664600   16.243900  -111.961000
  H    -75.502600   15.424100  -113.338000
  H    -73.917800   14.876200  -112.723000
  H    -78.168800    8.231650  -111.248000
  H    -70.943100   11.799000  -112.324000

 Total Charge           Charge          ....    0
 Multiplicity           Mult            ....    1
 Number of Electrons    NEL             ....  134
 Basis Dimension        Dim             ....  322

ORBITAL ENERGIES
----------------

  NO   OCC          E(Eh)            E(eV)
   0   2.0000     -88.965270     -2420.8681
   1   2.0000     -88.960241     -2420.7312
   2   2.0000     -10.326346      -280.9942
   3   2.0000     -10.323947      -280.9289
   4   2.0000     -10.315869      -280.7091
   5   2.0000     -10.309355      -280.5318
   6   2.0000     -10.301724      -280.3242
   7   2.0000     -10.300674      -280.2956
   8   2.0000     -10.294368      -280.1240
   9   2.0000     -10.291660      -280.0503
  10   2.0000     -10.290981      -280.0318
  11   2.0000     -10.289767      -279.9988
  12   2.0000     -10.283701      -279.8337
  13   2.0000     -10.282088      -279.7898
  14   2.0000     -10.277172      -279.6561
  15   2.0000     -10.275392      -279.6076
  16   2.0000      -8.079988      -219.8676
  17   2.0000      -8.076645      -219.7767
  18   2.0000      -6.038580      -164.3181
  19   2.0000      -6.034971      -164.2199
  20   2.0000      -6.034516      -164.2075
  21   2.0000      -6.030872      -164.1084
  22   2.0000      -6.030628      -164.1017
  23   2.0000      -6.027528      -164.0174
  24   2.0000      -1.014286       -27.6001
  25   2.0000      -0.990744       -26.9595
  26   2.0000      -0.912863       -24.8403
  27   2.0000      -0.910560       -24.7776
  28   2.0000      -0.878412       -23.9028
  29   2.0000      -0.850499       -23.1433
  30   2.0000      -0.843947       -22.9650
  31   2.0000      -0.817995       -22.2588
  32   2.0000      -0.786328       -21.3971
  33   2.0000      -0.775214       -21.0946
  34   2.0000      -0.711353       -19.3569
  35   2.0000      -0.694443       -18.8967
  36   2.0000      -0.686358       -18.6768
  37   2.0000      -0.666772       -18.1438
  38   2.0000      -0.650286       -17.6952
  39   2.0000      -0.623668       -16.9709
  40   2.0000      -0.596683       -16.2366
  41   2.0000      -0.571887       -15.5618
  42   2.0000      -0.558956       -15.2100
  43   2.0000      -0.550324       -14.9751
  44   2.0000      -0.546061       -14.8591
  45   2.0000      -0.540696       -14.7131
  46   2.0000      -0.518135       -14.0992
  47   2.0000      -0.512331       -13.9412
  48   2.0000      -0.509526       -13.8649
  49   2.0000      -0.492197       -13.3934
  50   2.0000      -0.490978       -13.3602
  51   2.0000      -0.482577       -13.1316
  52   2.0000      -0.475532       -12.9399
  53   2.0000      -0.468285       -12.7427
  54   2.0000      -0.464829       -12.6487
  55   2.0000      -0.443424       -12.0662
  56   2.0000      -0.440198       -11.9784
  57   2.0000      -0.437194       -11.8967
  58   2.0000      -0.429753       -11.6942
  59   2.0000      -0.422915       -11.5081
  60   2.0000      -0.419019       -11.4021
  61   2.0000      -0.410046       -11.1579
  62   2.0000      -0.398428       -10.8418
  63   2.0000      -0.355923        -9.6852
  64   2.0000      -0.331171        -9.0116
  65   2.0000      -0.329207        -8.9582
  66   2.0000      -0.295665        -8.0455
  67   0.0000       0.028767         0.7828
  68   0.0000       0.072257         1.9662
  69   0.0000       0.117610         3.2003
  70   0.0000       0.120692         3.2842
  71   0.0000       0.131051         3.5661

MULLIKEN ATOMIC CHARGES
-----------------------
   0 S :    0.092433
   1 C :   -0.107378
   2 C :   -0.101388
   3 C :    0.043449
   4 C :   -0.171457
   5 H :    0.003991
   6 C :    0.055402
   7 H :    0.025349
   8 H :    0.022108
   9 C :   -0.074233
  10 H :    0.016515
  11 H :    0.026998
  12 C :   -0.051501
  13 H :    0.029595
  14 H :    0.042354
  15 H :    0.050925
  16 S :    0.111189
  17 C :   -0.085141
  18 C :    0.021544
  19 C :   -0.061944
  20 C :   -0.135293
  21 H :   -0.041344
  22 C :    0.140279
  23 H :    0.021612
  24 H :    0.023833
  25 C :   -0.118341
  26 H :    0.031537
  27 H :    0.054383
  28 C :   -0.073633
  29 H :    0.034407
  30 H :    0.040996
  31 H :    0.019343
  32 H :    0.047244
  33 H :    0.066165
Sum of atomic charges:   -0.0000000

LOEWDIN ATOMIC CHARGES
----------------------
   0 S :    0.417550
   1 C :   -0.197110
   2 C :   -0.071416
   3 C :   -0.054274
   4 C :   -0.193627
   5 H :    0.028638
   6 C :   -0.037575
   7 H :    0.034202
   8 H :    0.031101
   9 C :   -0.044511
  10 H :    0.019817
  11 H :    0.023419
  12 C :   -0.064268
  13 H :    0.024355
  14 H :    0.033527
  15 H :    0.023485
  16 S :    0.395113
  17 C :   -0.189499
  18 C :   -0.065047
  19 C :   -0.042204
  20 C :   -0.185653
  21 H :    0.004101
  22 C :   -0.027907
  23 H :    0.031515
  24 H :    0.033015
  25 C :   -0.052466
  26 H :    0.028261
  27 H :    0.037647
  28 C :   -0.071670
  29 H :    0.024743
  30 H :    0.037138
  31 H :    0.008947
  32 H :    0.023162
  33 H :    0.037491

  Mayer bond orders larger than 0.100000
B(  0-S ,  1-C ) :   1.1663 B(  0-S ,  4-C ) :   1.1321 B(  1-C ,  2-C ) :   1.5863
B(  1-C , 32-H ) :   0.9740 B(  2-C ,  3-C ) :   1.2552 B(  2-C ,  6-C ) :   1.0235
B(  3-C ,  4-C ) :   1.5859 B(  3-C ,  5-H ) :   0.9966 B(  4-C , 20-C ) :   1.0716
B(  6-C ,  7-H ) :   0.9388 B(  6-C ,  8-H ) :   0.9421 B(  6-C ,  9-C ) :   1.0757
B(  9-C , 10-H ) :   0.9515 B(  9-C , 11-H ) :   0.9563 B(  9-C , 12-C ) :   1.0742
B( 12-C , 13-H ) :   0.9750 B( 12-C , 14-H ) :   0.9734 B( 12-C , 15-H ) :   0.9767
B( 16-S , 17-C ) :   1.1617 B( 16-S , 20-C ) :   1.1078 B( 17-C , 18-C ) :   1.6102
B( 17-C , 33-H ) :   0.9610 B( 18-C , 19-C ) :   1.2347 B( 18-C , 21-H ) :   1.0049
B( 19-C , 20-C ) :   1.6093 B( 19-C , 22-C ) :   1.0489 B( 22-C , 23-H ) :   0.9345
B( 22-C , 24-H ) :   0.9211 B( 22-C , 25-C ) :   1.0654 B( 25-C , 26-H ) :   0.9572
B( 25-C , 27-H ) :   0.9589 B( 25-C , 28-C ) :   1.0638 B( 28-C , 29-H ) :   0.9776
B( 28-C , 30-H ) :   0.9729 B( 28-C , 31-H ) :   0.9788

Dispersion correction           -0.014738302
FINAL SINGLE POINT ENERGY     -1339.873753273881

DIPOLE MOMENT
-------------
                                X             Y             Z
Electronic contribution:     16.29884     -14.35045     -11.72997
Nuclear contribution   :    -16.38330      14.57355      12.22390
                        -----------------------------------------
Total Dipole Moment    :     -0.08445       0.22310       0.49393
                        -----------------------------------------
Magnitude (a.u.)       :      0.54852
Magnitude (Debye)      :      1.39422

Rotational constants in cm-1:     0.021386     0.008319     0.006974
Rotational constants in MHz :   641.148707   249.407546   209.084607

                             ****ORCA TERMINATED NORMALLY****
TOTAL RUN TIME: 0 days 0 hours 0 minutes 22 seconds 104 msec
