                         Program Version 4.2.1 -  RELEASE  -
|  1> ! wB97X-D3 SP def2-SVP
|  2> %pal
|  3> nprocs 24
|  4> end
|  5>
|  6> * xyz 0 1
|  7> S 	 -61.7705 	 14.8721 	 -101.688
|  8> C 	 -60.429 	 16.0015 	 -101.572
|  9> C 	 -59.5707 	 15.6213 	 -100.509
| 10> C 	 -59.9368 	 14.3751 	 -99.9148
| 11> C 	 -61.0831 	 13.7779 	 -100.408
| 12> H 	 -59.3698 	 13.7844 	 -99.1472
| 13> C 	 -58.3456 	 16.3887 	 -100.16
| 14> H 	 -58.114 	 16.2333 	 -99.1498
| 15> H 	 -58.536 	 17.4926 	 -100.275
| 16> C 	 -57.0833 	 16.1516 	 -101.054
| 17> H 	 -57.2204 	 16.3335 	 -102.083
| 18> H 	 -56.3976 	 16.9412 	 -100.771
| 19> C 	 -56.4715 	 14.699 	 -100.869
| 20> H 	 -56.125 	 14.5366 	 -99.8295
| 21> H 	 -57.1826 	 13.9891 	 -101.262
| 22> H 	 -55.5545 	 14.503 	 -101.413
| 23> S 	 -61.5466 	 11.9799 	 -98.4192
| 24> C 	 -62.1583 	 10.3766 	 -98.8097
| 25> C 	 -62.4467 	 10.2118 	 -100.082
| 26> C 	 -62.024 	 11.3328 	 -100.857
| 27> C 	 -61.5528 	 12.4443 	 -100.135
| 28> H 	 -62.9402 	 9.36558 	 -100.488
| 29> C 	 -62.3175 	 11.2492 	 -102.336
| 30> H 	 -62.0592 	 12.2752 	 -102.68
| 31> H 	 -63.4131 	 11.2607 	 -102.52
| 32> C 	 -61.427 	 10.3493 	 -103.207
| 33> H 	 -61.6481 	 10.6065 	 -104.23
| 34> H 	 -61.728 	 9.31937 	 -103.105
| 35> C 	 -59.9083 	 10.6846 	 -103.017
| 36> H 	 -59.7041 	 11.6429 	 -103.403
| 37> H 	 -59.252 	 9.99996 	 -103.482
| 38> H 	 -59.6419 	 10.6817 	 -101.952
| 39> H 	 -60.3362 	 16.9848 	 -102.032
| 40> H 	 -62.3355 	 9.73741 	 -97.9937
| 41> *
| 42>
| 43>                          ****END OF INPUT****

CARTESIAN COORDINATES (ANGSTROEM)
---------------------------------
  S    -61.770500   14.872100  -101.688000
  C    -60.429000   16.001500  -101.572000
  C    -59.570700   15.621300  -100.509000
  C    -59.936800   14.375100  -99.914800
  C    -61.083100   13.777900  -100.408000
  H    -59.369800   13.784400  -99.147200
  C    -58.345600   16.388700  -100.160000
  H    -58.114000   16.233300  -99.149800
  H    -58.536000   17.492600  -100.275000
  C    -57.083300   16.151600  -101.054000
  H    -57.220400   16.333500  -102.083000
  H    -56.397600   16.941200  -100.771000
  C    -56.471500   14.699000  -100.869000
  H    -56.125000   14.536600  -99.829500
  H    -57.182600   13.989100  -101.262000
  H    -55.554500   14.503000  -101.413000
  S    -61.546600   11.979900  -98.419200
  C    -62.158300   10.376600  -98.809700
  C    -62.446700   10.211800  -100.082000
  C    -62.024000   11.332800  -100.857000
  C    -61.552800   12.444300  -100.135000
  H    -62.940200    9.365580  -100.488000
  C    -62.317500   11.249200  -102.336000
  H    -62.059200   12.275200  -102.680000
  H    -63.413100   11.260700  -102.520000
  C    -61.427000   10.349300  -103.207000
  H    -61.648100   10.606500  -104.230000
  H    -61.728000    9.319370  -103.105000
  C    -59.908300   10.684600  -103.017000
  H    -59.704100   11.642900  -103.403000
  H    -59.252000    9.999960  -103.482000
  H    -59.641900   10.681700  -101.952000
  H    -60.336200   16.984800  -102.032000
  H    -62.335500    9.737410  -97.993700

 Total Charge           Charge          ....    0
 Multiplicity           Mult            ....    1
 Number of Electrons    NEL             ....  134
 Basis Dimension        Dim             ....  322

ORBITAL ENERGIES
----------------

  NO   OCC          E(Eh)            E(eV)
   0   2.0000     -88.969929     -2420.9948
   1   2.0000     -88.960884     -2420.7487
   2   2.0000     -10.337030      -281.2849
   3   2.0000     -10.332620      -281.1649
   4   2.0000     -10.320882      -280.8455
   5   2.0000     -10.311031      -280.5774
   6   2.0000     -10.304783      -280.4074
   7   2.0000     -10.303639      -280.3763
   8   2.0000     -10.300940      -280.3028
   9   2.0000     -10.292000      -280.0596
  10   2.0000     -10.287619      -279.9404
  11   2.0000     -10.287471      -279.9363
  12   2.0000     -10.285870      -279.8928
  13   2.0000     -10.284710      -279.8612
  14   2.0000     -10.278126      -279.6820
  15   2.0000     -10.267941      -279.4049
  16   2.0000      -8.082716      -219.9419
  17   2.0000      -8.075689      -219.7507
  18   2.0000      -6.041356      -164.3937
  19   2.0000      -6.037342      -164.2844
  20   2.0000      -6.034313      -164.2020
  21   2.0000      -6.033591      -164.1824
  22   2.0000      -6.030246      -164.0913
  23   2.0000      -6.026277      -163.9833
  24   2.0000      -1.003928       -27.3183
  25   2.0000      -0.981052       -26.6958
  26   2.0000      -0.907224       -24.6868
  27   2.0000      -0.904260       -24.6062
  28   2.0000      -0.874995       -23.8098
  29   2.0000      -0.844609       -22.9830
  30   2.0000      -0.839100       -22.8331
  31   2.0000      -0.817479       -22.2447
  32   2.0000      -0.781457       -21.2645
  33   2.0000      -0.769833       -20.9482
  34   2.0000      -0.712712       -19.3939
  35   2.0000      -0.708605       -19.2821
  36   2.0000      -0.695239       -18.9184
  37   2.0000      -0.667545       -18.1648
  38   2.0000      -0.634101       -17.2548
  39   2.0000      -0.612666       -16.6715
  40   2.0000      -0.599069       -16.3015
  41   2.0000      -0.574976       -15.6459
  42   2.0000      -0.552650       -15.0384
  43   2.0000      -0.545588       -14.8462
  44   2.0000      -0.540343       -14.7035
  45   2.0000      -0.539280       -14.6746
  46   2.0000      -0.516652       -14.0588
  47   2.0000      -0.514974       -14.0132
  48   2.0000      -0.501160       -13.6373
  49   2.0000      -0.494000       -13.4424
  50   2.0000      -0.489393       -13.3171
  51   2.0000      -0.474621       -12.9151
  52   2.0000      -0.471504       -12.8303
  53   2.0000      -0.463041       -12.6000
  54   2.0000      -0.455506       -12.3949
  55   2.0000      -0.443895       -12.0790
  56   2.0000      -0.443164       -12.0591
  57   2.0000      -0.437028       -11.8921
  58   2.0000      -0.433136       -11.7862
  59   2.0000      -0.424993       -11.5646
  60   2.0000      -0.422248       -11.4899
  61   2.0000      -0.409869       -11.1531
  62   2.0000      -0.404911       -11.0182
  63   2.0000      -0.357718        -9.7340
  64   2.0000      -0.333587        -9.0774
  65   2.0000      -0.325893        -8.8680
  66   2.0000      -0.287412        -7.8209
  67   0.0000       0.020200         0.5497
  68   0.0000       0.073215         1.9923
  69   0.0000       0.104399         2.8409
  70   0.0000       0.119322         3.2469
  71   0.0000       0.121293         3.3005

MULLIKEN ATOMIC CHARGES
-----------------------
   0 S :    0.108426
   1 C :   -0.119809
   2 C :   -0.093094
   3 C :    0.006928
   4 C :   -0.128277
   5 H :    0.038213
   6 C :    0.057500
   7 H :    0.014280
   8 H :    0.030766
   9 C :   -0.044843
  10 H :    0.017433
  11 H :    0.023681
  12 C :   -0.068423
  13 H :    0.031927
  14 H :    0.049081
  15 H :    0.026429
  16 S :    0.069611
  17 C :   -0.059756
  18 C :    0.017071
  19 C :   -0.082639
  20 C :   -0.139913
  21 H :    0.011778
  22 C :    0.020739
  23 H :   -0.003445
  24 H :    0.047567
  25 C :   -0.034755
  26 H :    0.024455
  27 H :    0.023504
  28 C :   -0.033125
  29 H :    0.023437
  30 H :    0.023549
  31 H :    0.042854
  32 H :    0.057953
  33 H :    0.040900
Sum of atomic charges:   -0.0000000

LOEWDIN ATOMIC CHARGES
----------------------
   0 S :    0.387877
   1 C :   -0.197486
   2 C :   -0.065876
   3 C :   -0.067040
   4 C :   -0.178747
   5 H :    0.038659
   6 C :   -0.031518
   7 H :    0.023141
   8 H :    0.038481
   9 C :   -0.029799
  10 H :    0.016514
  11 H :    0.022293
  12 C :   -0.071065
  13 H :    0.027035
  14 H :    0.027540
  15 H :    0.024218
  16 S :    0.383966
  17 C :   -0.155408
  18 C :   -0.066011
  19 C :   -0.056258
  20 C :   -0.187456
  21 H :    0.032621
  22 C :   -0.048432
  23 H :    0.018808
  24 H :    0.037613
  25 C :   -0.033124
  26 H :    0.025494
  27 H :    0.015429
  28 C :   -0.054221
  29 H :    0.021642
  30 H :    0.020291
  31 H :    0.029372
  32 H :    0.033948
  33 H :    0.017501

  Mayer bond orders larger than 0.100000
B(  0-S ,  1-C ) :   1.1466 B(  0-S ,  4-C ) :   1.1206 B(  1-C ,  2-C ) :   1.5792
B(  1-C ,  4-C ) :   0.1029 B(  1-C , 32-H ) :   0.9652 B(  2-C ,  3-C ) :   1.2512
B(  2-C ,  6-C ) :   1.0454 B(  3-C ,  4-C ) :   1.5675 B(  3-C ,  5-H ) :   0.9770
B(  4-C , 20-C ) :   1.0686 B(  6-C ,  7-H ) :   0.9409 B(  6-C ,  8-H ) :   0.9368
B(  6-C ,  9-C ) :   1.0672 B(  9-C , 10-H ) :   0.9583 B(  9-C , 11-H ) :   0.9570
B(  9-C , 12-C ) :   1.0680 B( 12-C , 13-H ) :   0.9774 B( 12-C , 14-H ) :   0.9765
B( 12-C , 15-H ) :   0.9751 B( 16-S , 17-C ) :   1.1446 B( 16-S , 20-C ) :   1.1217
B( 17-C , 18-C ) :   1.6140 B( 17-C , 33-H ) :   0.9728 B( 18-C , 19-C ) :   1.2131
B( 18-C , 21-H ) :   1.0044 B( 19-C , 20-C ) :   1.5902 B( 19-C , 22-C ) :   1.0434
B( 22-C , 23-H ) :   0.9280 B( 22-C , 24-H ) :   0.9411 B( 22-C , 25-C ) :   1.0623
B( 25-C , 26-H ) :   0.9562 B( 25-C , 27-H ) :   0.9619 B( 25-C , 28-C ) :   1.0646
B( 28-C , 29-H ) :   0.9756 B( 28-C , 30-H ) :   0.9754 B( 28-C , 31-H ) :   0.9766

Dispersion correction           -0.015165558
FINAL SINGLE POINT ENERGY     -1339.871699142882

DIPOLE MOMENT
-------------
                                X             Y             Z
Electronic contribution:    -18.10295       1.66137      11.61283
Nuclear contribution   :     18.42892      -1.73417     -11.79977
                        -----------------------------------------
Total Dipole Moment    :      0.32598      -0.07280      -0.18694
                        -----------------------------------------
Magnitude (a.u.)       :      0.38276
Magnitude (Debye)      :      0.97291

Rotational constants in cm-1:     0.019401     0.008548     0.007938
Rotational constants in MHz :   581.637910   256.252072   237.965558

                             ****ORCA TERMINATED NORMALLY****
TOTAL RUN TIME: 0 days 0 hours 0 minutes 22 seconds 162 msec
