                         Program Version 4.2.1 -  RELEASE  -
|  1> ! wB97X-D3 SP def2-SVP
|  2> %pal
|  3> nprocs 24
|  4> end
|  5>
|  6> * xyz 0 1
|  7> S 	 -40.2232 	 -52.0124 	 -73.4447
|  8> C 	 -40.3717 	 -50.8225 	 -74.7745
|  9> C 	 -40.253 	 -49.5357 	 -74.3068
| 10> C 	 -39.8426 	 -49.447 	 -72.9303
| 11> C 	 -39.9144 	 -50.7027 	 -72.2867
| 12> H 	 -39.5418 	 -48.5203 	 -72.4039
| 13> C 	 -40.2972 	 -48.3004 	 -75.2252
| 14> H 	 -39.9171 	 -48.6348 	 -76.2094
| 15> H 	 -39.6046 	 -47.5869 	 -74.9257
| 16> C 	 -41.6455 	 -47.5772 	 -75.3682
| 17> H 	 -41.5863 	 -46.7202 	 -76.1092
| 18> H 	 -42.2123 	 -48.38 	 -75.8081
| 19> C 	 -42.3183 	 -47.1233 	 -74.0555
| 20> H 	 -41.5038 	 -46.8609 	 -73.409
| 21> H 	 -42.9976 	 -46.2834 	 -74.1963
| 22> H 	 -42.8546 	 -47.8587 	 -73.4726
| 23> S 	 -38.5907 	 -52.2597 	 -70.4473
| 24> C 	 -38.6798 	 -51.8807 	 -68.7469
| 25> C 	 -39.5505 	 -50.8155 	 -68.5655
| 26> C 	 -40.2153 	 -50.3187 	 -69.7791
| 27> C 	 -39.7342 	 -50.9855 	 -70.8534
| 28> H 	 -39.6832 	 -50.3651 	 -67.6059
| 29> C 	 -41.1928 	 -49.1164 	 -69.6745
| 30> H 	 -40.7141 	 -48.3359 	 -70.2771
| 31> H 	 -41.0919 	 -48.8056 	 -68.65
| 32> C 	 -42.5639 	 -49.2233 	 -70.4526
| 33> H 	 -43.13 	 -50.0865 	 -69.9917
| 34> H 	 -42.309 	 -49.5017 	 -71.5097
| 35> C 	 -43.4081 	 -48.0368 	 -70.3073
| 36> H 	 -42.8538 	 -47.0865 	 -70.5198
| 37> H 	 -43.906 	 -48.0556 	 -69.3661
| 38> H 	 -44.1954 	 -48.0958 	 -71.0967
| 39> H 	 -40.4489 	 -51.1265 	 -75.8046
| 40> H 	 -38.1784 	 -52.2794 	 -67.9235
| 41> *
| 42>
| 43>                          ****END OF INPUT****

CARTESIAN COORDINATES (ANGSTROEM)
---------------------------------
  S    -40.223200  -52.012400  -73.444700
  C    -40.371700  -50.822500  -74.774500
  C    -40.253000  -49.535700  -74.306800
  C    -39.842600  -49.447000  -72.930300
  C    -39.914400  -50.702700  -72.286700
  H    -39.541800  -48.520300  -72.403900
  C    -40.297200  -48.300400  -75.225200
  H    -39.917100  -48.634800  -76.209400
  H    -39.604600  -47.586900  -74.925700
  C    -41.645500  -47.577200  -75.368200
  H    -41.586300  -46.720200  -76.109200
  H    -42.212300  -48.380000  -75.808100
  C    -42.318300  -47.123300  -74.055500
  H    -41.503800  -46.860900  -73.409000
  H    -42.997600  -46.283400  -74.196300
  H    -42.854600  -47.858700  -73.472600
  S    -38.590700  -52.259700  -70.447300
  C    -38.679800  -51.880700  -68.746900
  C    -39.550500  -50.815500  -68.565500
  C    -40.215300  -50.318700  -69.779100
  C    -39.734200  -50.985500  -70.853400
  H    -39.683200  -50.365100  -67.605900
  C    -41.192800  -49.116400  -69.674500
  H    -40.714100  -48.335900  -70.277100
  H    -41.091900  -48.805600  -68.650000
  C    -42.563900  -49.223300  -70.452600
  H    -43.130000  -50.086500  -69.991700
  H    -42.309000  -49.501700  -71.509700
  C    -43.408100  -48.036800  -70.307300
  H    -42.853800  -47.086500  -70.519800
  H    -43.906000  -48.055600  -69.366100
  H    -44.195400  -48.095800  -71.096700
  H    -40.448900  -51.126500  -75.804600
  H    -38.178400  -52.279400  -67.923500

 Total Charge           Charge          ....    0
 Multiplicity           Mult            ....    1
 Number of Electrons    NEL             ....  134
 Basis Dimension        Dim             ....  322

ORBITAL ENERGIES
----------------

  NO   OCC          E(Eh)            E(eV)
   0   2.0000     -88.968126     -2420.9458
   1   2.0000     -88.965395     -2420.8715
   2   2.0000     -10.337388      -281.2946
   3   2.0000     -10.324618      -280.9472
   4   2.0000     -10.318251      -280.7739
   5   2.0000     -10.315188      -280.6905
   6   2.0000     -10.306378      -280.4508
   7   2.0000     -10.305498      -280.4269
   8   2.0000     -10.303793      -280.3805
   9   2.0000     -10.297234      -280.2020
  10   2.0000     -10.294039      -280.1150
  11   2.0000     -10.291373      -280.0425
  12   2.0000     -10.290471      -280.0180
  13   2.0000     -10.290157      -280.0094
  14   2.0000     -10.278405      -279.6896
  15   2.0000     -10.276754      -279.6447
  16   2.0000      -8.081842      -219.9181
  17   2.0000      -8.080090      -219.8704
  18   2.0000      -6.040421      -164.3682
  19   2.0000      -6.038804      -164.3242
  20   2.0000      -6.036519      -164.2620
  21   2.0000      -6.034580      -164.2093
  22   2.0000      -6.032561      -164.1543
  23   2.0000      -6.030640      -164.1021
  24   2.0000      -1.002683       -27.2844
  25   2.0000      -0.978842       -26.6356
  26   2.0000      -0.909727       -24.7549
  27   2.0000      -0.908648       -24.7256
  28   2.0000      -0.866842       -23.5880
  29   2.0000      -0.856139       -23.2967
  30   2.0000      -0.841150       -22.8889
  31   2.0000      -0.814097       -22.1527
  32   2.0000      -0.785191       -21.3661
  33   2.0000      -0.777054       -21.1447
  34   2.0000      -0.705930       -19.2093
  35   2.0000      -0.700368       -19.0580
  36   2.0000      -0.686983       -18.6938
  37   2.0000      -0.665244       -18.1022
  38   2.0000      -0.640500       -17.4289
  39   2.0000      -0.612351       -16.6629
  40   2.0000      -0.590522       -16.0689
  41   2.0000      -0.575766       -15.6674
  42   2.0000      -0.569422       -15.4948
  43   2.0000      -0.548981       -14.9385
  44   2.0000      -0.541514       -14.7354
  45   2.0000      -0.524457       -14.2712
  46   2.0000      -0.518218       -14.1014
  47   2.0000      -0.512753       -13.9527
  48   2.0000      -0.505984       -13.7685
  49   2.0000      -0.499305       -13.5868
  50   2.0000      -0.489802       -13.3282
  51   2.0000      -0.480935       -13.0869
  52   2.0000      -0.474518       -12.9123
  53   2.0000      -0.470288       -12.7972
  54   2.0000      -0.457682       -12.4542
  55   2.0000      -0.450620       -12.2620
  56   2.0000      -0.446703       -12.1554
  57   2.0000      -0.440131       -11.9766
  58   2.0000      -0.425677       -11.5833
  59   2.0000      -0.421992       -11.4830
  60   2.0000      -0.418546       -11.3892
  61   2.0000      -0.412958       -11.2372
  62   2.0000      -0.409003       -11.1295
  63   2.0000      -0.344614        -9.3774
  64   2.0000      -0.333830        -9.0840
  65   2.0000      -0.327428        -8.9098
  66   2.0000      -0.294693        -8.0190
  67   0.0000       0.025286         0.6881
  68   0.0000       0.072182         1.9642
  69   0.0000       0.102474         2.7885
  70   0.0000       0.116982         3.1832
  71   0.0000       0.122939         3.3453

MULLIKEN ATOMIC CHARGES
-----------------------
   0 S :    0.099141
   1 C :   -0.120615
   2 C :   -0.087652
   3 C :    0.013016
   4 C :   -0.162519
   5 H :    0.038830
   6 C :    0.061412
   7 H :    0.025170
   8 H :    0.006207
   9 C :   -0.069283
  10 H :    0.046015
  11 H :    0.019244
  12 C :   -0.035576
  13 H :    0.008118
  14 H :    0.039019
  15 H :    0.033152
  16 S :    0.110362
  17 C :   -0.049338
  18 C :   -0.061510
  19 C :   -0.036592
  20 C :   -0.158206
  21 H :    0.008745
  22 C :    0.095871
  23 H :    0.013302
  24 H :    0.011584
  25 C :   -0.114888
  26 H :    0.039114
  27 H :    0.061325
  28 C :   -0.022624
  29 H :    0.032778
  30 H :    0.034122
  31 H :    0.036319
  32 H :    0.051557
  33 H :    0.034398
Sum of atomic charges:    0.0000000

LOEWDIN ATOMIC CHARGES
----------------------
   0 S :    0.378769
   1 C :   -0.181961
   2 C :   -0.062098
   3 C :   -0.066782
   4 C :   -0.179611
   5 H :    0.037687
   6 C :   -0.028477
   7 H :    0.034336
   8 H :    0.015563
   9 C :   -0.041533
  10 H :    0.033135
  11 H :    0.020213
  12 C :   -0.067343
  13 H :    0.018663
  14 H :    0.030002
  15 H :    0.026170
  16 S :    0.401973
  17 C :   -0.179929
  18 C :   -0.067580
  19 C :   -0.051291
  20 C :   -0.202642
  21 H :    0.022514
  22 C :   -0.030728
  23 H :    0.030647
  24 H :    0.026302
  25 C :   -0.045077
  26 H :    0.029902
  27 H :    0.031857
  28 C :   -0.067707
  29 H :    0.027346
  30 H :    0.024879
  31 H :    0.032563
  32 H :    0.027219
  33 H :    0.023016

  Mayer bond orders larger than 0.100000
B(  0-S ,  1-C ) :   1.1205 B(  0-S ,  4-C ) :   1.1538 B(  1-C ,  2-C ) :   1.6282
B(  1-C , 32-H ) :   0.9708 B(  2-C ,  3-C ) :   1.2252 B(  2-C ,  6-C ) :   1.0154
B(  3-C ,  4-C ) :   1.5720 B(  3-C ,  5-H ) :   0.9842 B(  4-C , 20-C ) :   1.0252
B(  6-C ,  7-H ) :   0.9478 B(  6-C ,  8-H ) :   0.9410 B(  6-C ,  9-C ) :   1.0673
B(  9-C , 10-H ) :   0.9581 B(  9-C , 11-H ) :   0.9567 B(  9-C , 12-C ) :   1.0689
B( 12-C , 13-H ) :   0.9766 B( 12-C , 14-H ) :   0.9736 B( 12-C , 15-H ) :   0.9695
B( 16-S , 17-C ) :   1.1351 B( 16-S , 20-C ) :   1.1289 B( 17-C , 18-C ) :   1.6398
B( 17-C , 33-H ) :   0.9737 B( 18-C , 19-C ) :   1.2112 B( 18-C , 21-H ) :   0.9853
B( 19-C , 20-C ) :   1.6383 B( 19-C , 22-C ) :   1.0328 B( 22-C , 23-H ) :   0.9262
B( 22-C , 24-H ) :   0.9376 B( 22-C , 25-C ) :   1.0386 B( 25-C , 26-H ) :   0.9543
B( 25-C , 27-H ) :   0.9487 B( 25-C , 28-C ) :   1.0989 B( 28-C , 29-H ) :   0.9684
B( 28-C , 30-H ) :   0.9716 B( 28-C , 31-H ) :   0.9668

Dispersion correction           -0.016068616
FINAL SINGLE POINT ENERGY     -1339.870804424628

DIPOLE MOMENT
-------------
                                X             Y             Z
Electronic contribution:     17.62007     -25.82535       3.70174
Nuclear contribution   :    -17.79384      26.51596      -3.63388
                        -----------------------------------------
Total Dipole Moment    :     -0.17377       0.69060       0.06785
                        -----------------------------------------
Magnitude (a.u.)       :      0.71535
Magnitude (Debye)      :      1.81829

Rotational constants in cm-1:     0.018642     0.010241     0.007305
Rotational constants in MHz :   558.858771   307.015710   219.009112

                             ****ORCA TERMINATED NORMALLY****
TOTAL RUN TIME: 0 days 0 hours 0 minutes 23 seconds 200 msec
