                         Program Version 4.2.1 -  RELEASE  -
|  1> ! wB97X-D3 SP def2-SVP
|  2> %pal
|  3> nprocs 24
|  4> end
|  5>
|  6> * xyz 0 1
|  7> S 	 -94.6254 	 48.8302 	 -96.7796
|  8> C 	 -93.4028 	 49.1686 	 -95.5246
|  9> C 	 -92.8654 	 50.4626 	 -95.6761
| 10> C 	 -93.4232 	 51.1568 	 -96.7841
| 11> C 	 -94.2721 	 50.3785 	 -97.5784
| 12> H 	 -93.2244 	 52.1243 	 -97.0771
| 13> C 	 -91.8071 	 51.0747 	 -94.7551
| 14> H 	 -91.0911 	 51.4036 	 -95.5529
| 15> H 	 -91.2453 	 50.2854 	 -94.1992
| 16> C 	 -92.1488 	 52.1597 	 -93.6957
| 17> H 	 -92.7154 	 52.9802 	 -94.1115
| 18> H 	 -92.9488 	 51.7254 	 -93.0916
| 19> C 	 -90.924 	 52.6962 	 -92.9104
| 20> H 	 -91.1977 	 53.5694 	 -92.433
| 21> H 	 -90.6418 	 52.0066 	 -92.1703
| 22> H 	 -90.0597 	 53.0022 	 -93.5268
| 23> S 	 -94.2642 	 50.55 	 -100.33
| 24> C 	 -95.3479 	 51.707 	 -101.085
| 25> C 	 -96.252 	 52.1667 	 -100.131
| 26> C 	 -95.8878 	 51.8729 	 -98.77
| 27> C 	 -94.937 	 50.9134 	 -98.7199
| 28> H 	 -97.0971 	 52.7587 	 -100.501
| 29> C 	 -96.676 	 52.3936 	 -97.5783
| 30> H 	 -96.4458 	 53.4718 	 -97.5798
| 31> H 	 -96.2305 	 52.0538 	 -96.6415
| 32> C 	 -98.1677 	 52.0722 	 -97.5952
| 33> H 	 -98.2025 	 51.0003 	 -97.3921
| 34> H 	 -98.5626 	 52.2697 	 -98.6074
| 35> C 	 -99.0801 	 52.9929 	 -96.7259
| 36> H 	 -98.9746 	 52.9606 	 -95.6643
| 37> H 	 -100.106 	 52.6656 	 -96.8264
| 38> H 	 -99.0878 	 54.0209 	 -97.0306
| 39> H 	 -93.0723 	 48.5274 	 -94.7176
| 40> H 	 -95.4849 	 51.8933 	 -102.139
| 41> *
| 42>
| 43>                          ****END OF INPUT****

CARTESIAN COORDINATES (ANGSTROEM)
---------------------------------
  S    -94.625400   48.830200  -96.779600
  C    -93.402800   49.168600  -95.524600
  C    -92.865400   50.462600  -95.676100
  C    -93.423200   51.156800  -96.784100
  C    -94.272100   50.378500  -97.578400
  H    -93.224400   52.124300  -97.077100
  C    -91.807100   51.074700  -94.755100
  H    -91.091100   51.403600  -95.552900
  H    -91.245300   50.285400  -94.199200
  C    -92.148800   52.159700  -93.695700
  H    -92.715400   52.980200  -94.111500
  H    -92.948800   51.725400  -93.091600
  C    -90.924000   52.696200  -92.910400
  H    -91.197700   53.569400  -92.433000
  H    -90.641800   52.006600  -92.170300
  H    -90.059700   53.002200  -93.526800
  S    -94.264200   50.550000  -100.330000
  C    -95.347900   51.707000  -101.085000
  C    -96.252000   52.166700  -100.131000
  C    -95.887800   51.872900  -98.770000
  C    -94.937000   50.913400  -98.719900
  H    -97.097100   52.758700  -100.501000
  C    -96.676000   52.393600  -97.578300
  H    -96.445800   53.471800  -97.579800
  H    -96.230500   52.053800  -96.641500
  C    -98.167700   52.072200  -97.595200
  H    -98.202500   51.000300  -97.392100
  H    -98.562600   52.269700  -98.607400
  C    -99.080100   52.992900  -96.725900
  H    -98.974600   52.960600  -95.664300
  H    -100.106000   52.665600  -96.826400
  H    -99.087800   54.020900  -97.030600
  H    -93.072300   48.527400  -94.717600
  H    -95.484900   51.893300  -102.139000

 Total Charge           Charge          ....    0
 Multiplicity           Mult            ....    1
 Number of Electrons    NEL             ....  134
 Basis Dimension        Dim             ....  322

ORBITAL ENERGIES
----------------

  NO   OCC          E(Eh)            E(eV)
   0   2.0000     -88.969999     -2420.9968
   1   2.0000     -88.961578     -2420.7676
   2   2.0000     -10.327121      -281.0152
   3   2.0000     -10.320129      -280.8250
   4   2.0000     -10.318537      -280.7817
   5   2.0000     -10.318067      -280.7689
   6   2.0000     -10.304442      -280.3981
   7   2.0000     -10.301794      -280.3261
   8   2.0000     -10.298766      -280.2437
   9   2.0000     -10.295352      -280.1508
  10   2.0000     -10.291186      -280.0374
  11   2.0000     -10.290686      -280.0238
  12   2.0000     -10.289643      -279.9954
  13   2.0000     -10.289622      -279.9948
  14   2.0000     -10.275499      -279.6105
  15   2.0000     -10.274954      -279.5957
  16   2.0000      -8.083201      -219.9551
  17   2.0000      -8.075945      -219.7576
  18   2.0000      -6.041787      -164.4054
  19   2.0000      -6.037926      -164.3003
  20   2.0000      -6.034566      -164.2089
  21   2.0000      -6.033975      -164.1928
  22   2.0000      -6.030541      -164.0994
  23   2.0000      -6.026559      -163.9910
  24   2.0000      -1.003154       -27.2972
  25   2.0000      -0.976434       -26.5701
  26   2.0000      -0.905857       -24.6496
  27   2.0000      -0.903972       -24.5983
  28   2.0000      -0.870633       -23.6911
  29   2.0000      -0.850459       -23.1422
  30   2.0000      -0.845392       -23.0043
  31   2.0000      -0.810673       -22.0595
  32   2.0000      -0.785467       -21.3736
  33   2.0000      -0.773768       -21.0553
  34   2.0000      -0.711331       -19.3563
  35   2.0000      -0.704580       -19.1726
  36   2.0000      -0.700018       -19.0484
  37   2.0000      -0.656874       -17.8744
  38   2.0000      -0.642514       -17.4837
  39   2.0000      -0.616295       -16.7702
  40   2.0000      -0.594140       -16.1674
  41   2.0000      -0.564373       -15.3574
  42   2.0000      -0.562222       -15.2988
  43   2.0000      -0.557149       -15.1608
  44   2.0000      -0.525651       -14.3037
  45   2.0000      -0.522458       -14.2168
  46   2.0000      -0.516657       -14.0589
  47   2.0000      -0.509656       -13.8685
  48   2.0000      -0.503764       -13.7081
  49   2.0000      -0.500968       -13.6320
  50   2.0000      -0.494696       -13.4614
  51   2.0000      -0.477016       -12.9803
  52   2.0000      -0.469930       -12.7874
  53   2.0000      -0.466842       -12.7034
  54   2.0000      -0.461047       -12.5457
  55   2.0000      -0.451502       -12.2860
  56   2.0000      -0.444374       -12.0920
  57   2.0000      -0.437492       -11.9048
  58   2.0000      -0.433620       -11.7994
  59   2.0000      -0.424923       -11.5627
  60   2.0000      -0.419804       -11.4234
  61   2.0000      -0.416021       -11.3205
  62   2.0000      -0.411214       -11.1897
  63   2.0000      -0.334748        -9.1089
  64   2.0000      -0.325534        -8.8582
  65   2.0000      -0.324517        -8.8305
  66   2.0000      -0.304794        -8.2939
  67   0.0000       0.039256         1.0682
  68   0.0000       0.054655         1.4872
  69   0.0000       0.110744         3.0135
  70   0.0000       0.122166         3.3243
  71   0.0000       0.122631         3.3369

MULLIKEN ATOMIC CHARGES
-----------------------
   0 S :    0.112124
   1 C :   -0.115834
   2 C :   -0.078028
   3 C :    0.067092
   4 C :   -0.165443
   5 H :   -0.016468
   6 C :    0.020238
   7 H :    0.038677
   8 H :    0.021640
   9 C :   -0.056566
  10 H :    0.014981
  11 H :    0.024867
  12 C :   -0.005923
  13 H :    0.014215
  14 H :    0.029446
  15 H :    0.037622
  16 S :    0.102810
  17 C :   -0.094604
  18 C :   -0.056971
  19 C :   -0.026044
  20 C :   -0.180120
  21 H :    0.028217
  22 C :    0.088354
  23 H :    0.023101
  24 H :    0.028030
  25 C :   -0.077318
  26 H :    0.040754
  27 H :    0.030456
  28 C :   -0.030235
  29 H :    0.024716
  30 H :    0.022926
  31 H :    0.028410
  32 H :    0.046419
  33 H :    0.058461
Sum of atomic charges:    0.0000000

LOEWDIN ATOMIC CHARGES
----------------------
   0 S :    0.386399
   1 C :   -0.191915
   2 C :   -0.063210
   3 C :   -0.041847
   4 C :   -0.191767
   5 H :    0.019074
   6 C :   -0.041828
   7 H :    0.036696
   8 H :    0.031007
   9 C :   -0.041912
  10 H :    0.019285
  11 H :    0.027594
  12 C :   -0.054486
  13 H :    0.019755
  14 H :    0.021449
  15 H :    0.033634
  16 S :    0.385678
  17 C :   -0.182133
  18 C :   -0.073380
  19 C :   -0.050880
  20 C :   -0.196560
  21 H :    0.031580
  22 C :   -0.033511
  23 H :    0.031969
  24 H :    0.029917
  25 C :   -0.035393
  26 H :    0.030625
  27 H :    0.026591
  28 C :   -0.065093
  29 H :    0.019702
  30 H :    0.028316
  31 H :    0.024356
  32 H :    0.029461
  33 H :    0.030828

  Mayer bond orders larger than 0.100000
B(  0-S ,  1-C ) :   1.1327 B(  0-S ,  4-C ) :   1.1363 B(  1-C ,  2-C ) :   1.6003
B(  1-C ,  4-C ) :   0.1027 B(  1-C , 32-H ) :   0.9670 B(  2-C ,  3-C ) :   1.2432
B(  2-C ,  6-C ) :   1.0151 B(  3-C ,  4-C ) :   1.5682 B(  3-C ,  5-H ) :   1.0095
B(  4-C , 20-C ) :   1.0319 B(  6-C ,  7-H ) :   0.9414 B(  6-C ,  8-H ) :   0.9457
B(  6-C ,  9-C ) :   1.0508 B(  9-C , 10-H ) :   0.9586 B(  9-C , 11-H ) :   0.9517
B(  9-C , 12-C ) :   1.0741 B( 12-C , 13-H ) :   0.9718 B( 12-C , 14-H ) :   0.9772
B( 12-C , 15-H ) :   0.9759 B( 16-S , 17-C ) :   1.1471 B( 16-S , 20-C ) :   1.1182
B( 17-C , 18-C ) :   1.6469 B( 17-C , 33-H ) :   0.9660 B( 18-C , 19-C ) :   1.1944
B( 18-C , 21-H ) :   0.9819 B( 19-C , 20-C ) :   1.6464 B( 19-C , 22-C ) :   1.0411
B( 22-C , 23-H ) :   0.9266 B( 22-C , 24-H ) :   0.9324 B( 22-C , 25-C ) :   1.0577
B( 25-C , 26-H ) :   0.9567 B( 25-C , 27-H ) :   0.9592 B( 25-C , 28-C ) :   1.0732
B( 28-C , 29-H ) :   0.9773 B( 28-C , 30-H ) :   0.9726 B( 28-C , 31-H ) :   0.9751

Dispersion correction           -0.013980761
FINAL SINGLE POINT ENERGY     -1339.867739074659

DIPOLE MOMENT
-------------
                                X             Y             Z
Electronic contribution:      3.01505     -17.30375     -20.54030
Nuclear contribution   :     -3.16193      17.93055      20.97953
                        -----------------------------------------
Total Dipole Moment    :     -0.14688       0.62680       0.43923
                        -----------------------------------------
Magnitude (a.u.)       :      0.77934
Magnitude (Debye)      :      1.98094

Rotational constants in cm-1:     0.016841     0.007808     0.006656
Rotational constants in MHz :   504.870667   234.073866   199.534438

                             ****ORCA TERMINATED NORMALLY****
TOTAL RUN TIME: 0 days 0 hours 0 minutes 19 seconds 683 msec
