                         Program Version 4.2.1 -  RELEASE  -
|  1> ! wB97X-D3 SP def2-SVP
|  2> %pal
|  3> nprocs 24
|  4> end
|  5>
|  6> * xyz 0 1
|  7> S 	 -87.5158 	 -34.4756 	 -75.7852
|  8> C 	 -86.3614 	 -35.088 	 -76.9012
|  9> C 	 -86.8392 	 -35.0315 	 -78.2354
| 10> C 	 -88.1885 	 -34.5289 	 -78.3248
| 11> C 	 -88.6515 	 -34.1581 	 -77.0768
| 12> H 	 -88.7214 	 -34.4422 	 -79.2478
| 13> C 	 -86.0206 	 -35.3285 	 -79.4808
| 14> H 	 -86.4816 	 -36.2157 	 -79.9234
| 15> H 	 -85.0576 	 -35.6659 	 -79.1863
| 16> C 	 -86.0093 	 -34.2202 	 -80.6117
| 17> H 	 -85.5084 	 -34.7968 	 -81.4216
| 18> H 	 -86.9852 	 -33.9269 	 -80.9478
| 19> C 	 -85.1226 	 -32.9631 	 -80.1894
| 20> H 	 -85.6625 	 -32.3205 	 -79.472
| 21> H 	 -84.2184 	 -33.18 	 -79.5772
| 22> H 	 -84.8476 	 -32.3545 	 -81.0672
| 23> S 	 -90.6727 	 -34.9419 	 -75.4596
| 24> C 	 -92.284 	 -34.1852 	 -75.6904
| 25> C 	 -92.3074 	 -33.2748 	 -76.7019
| 26> C 	 -91.0095 	 -33.07 	 -77.3011
| 27> C 	 -90.0118 	 -33.8457 	 -76.6686
| 28> H 	 -93.2331 	 -32.8344 	 -76.9177
| 29> C 	 -90.8105 	 -32.1037 	 -78.4381
| 30> H 	 -89.7751 	 -31.9289 	 -78.5677
| 31> H 	 -91.1527 	 -31.0112 	 -78.2246
| 32> C 	 -91.4176 	 -32.4437 	 -79.8563
| 33> H 	 -92.4792 	 -32.5 	 -79.831
| 34> H 	 -91.0934 	 -33.5065 	 -80.0209
| 35> C 	 -90.9539 	 -31.6182 	 -81.0071
| 36> H 	 -89.8972 	 -31.4457 	 -81.0113
| 37> H 	 -91.404 	 -30.5854 	 -80.9135
| 38> H 	 -91.2611 	 -32.0284 	 -81.9736
| 39> H 	 -85.3821 	 -35.4108 	 -76.5507
| 40> H 	 -93.2511 	 -34.6065 	 -75.3522
| 41> *
| 42>
| 43>                          ****END OF INPUT****

CARTESIAN COORDINATES (ANGSTROEM)
---------------------------------
  S    -87.515800  -34.475600  -75.785200
  C    -86.361400  -35.088000  -76.901200
  C    -86.839200  -35.031500  -78.235400
  C    -88.188500  -34.528900  -78.324800
  C    -88.651500  -34.158100  -77.076800
  H    -88.721400  -34.442200  -79.247800
  C    -86.020600  -35.328500  -79.480800
  H    -86.481600  -36.215700  -79.923400
  H    -85.057600  -35.665900  -79.186300
  C    -86.009300  -34.220200  -80.611700
  H    -85.508400  -34.796800  -81.421600
  H    -86.985200  -33.926900  -80.947800
  C    -85.122600  -32.963100  -80.189400
  H    -85.662500  -32.320500  -79.472000
  H    -84.218400  -33.180000  -79.577200
  H    -84.847600  -32.354500  -81.067200
  S    -90.672700  -34.941900  -75.459600
  C    -92.284000  -34.185200  -75.690400
  C    -92.307400  -33.274800  -76.701900
  C    -91.009500  -33.070000  -77.301100
  C    -90.011800  -33.845700  -76.668600
  H    -93.233100  -32.834400  -76.917700
  C    -90.810500  -32.103700  -78.438100
  H    -89.775100  -31.928900  -78.567700
  H    -91.152700  -31.011200  -78.224600
  C    -91.417600  -32.443700  -79.856300
  H    -92.479200  -32.500000  -79.831000
  H    -91.093400  -33.506500  -80.020900
  C    -90.953900  -31.618200  -81.007100
  H    -89.897200  -31.445700  -81.011300
  H    -91.404000  -30.585400  -80.913500
  H    -91.261100  -32.028400  -81.973600
  H    -85.382100  -35.410800  -76.550700
  H    -93.251100  -34.606500  -75.352200

 Total Charge           Charge          ....    0
 Multiplicity           Mult            ....    1
 Number of Electrons    NEL             ....  134
 Basis Dimension        Dim             ....  322

ORBITAL ENERGIES
----------------

  NO   OCC          E(Eh)            E(eV)
   0   2.0000     -88.966911     -2420.9127
   1   2.0000     -88.966212     -2420.8937
   2   2.0000     -10.329935      -281.0918
   3   2.0000     -10.329571      -281.0819
   4   2.0000     -10.316801      -280.7344
   5   2.0000     -10.315163      -280.6899
   6   2.0000     -10.308856      -280.5182
   7   2.0000     -10.304995      -280.4132
   8   2.0000     -10.300313      -280.2858
   9   2.0000     -10.296416      -280.1797
  10   2.0000     -10.296060      -280.1700
  11   2.0000     -10.292934      -280.0850
  12   2.0000     -10.290474      -280.0180
  13   2.0000     -10.288698      -279.9697
  14   2.0000     -10.285334      -279.8782
  15   2.0000     -10.281905      -279.7849
  16   2.0000      -8.081664      -219.9133
  17   2.0000      -8.080727      -219.8878
  18   2.0000      -6.040037      -164.3578
  19   2.0000      -6.039356      -164.3392
  20   2.0000      -6.036042      -164.2491
  21   2.0000      -6.035471      -164.2335
  22   2.0000      -6.032556      -164.1542
  23   2.0000      -6.031264      -164.1190
  24   2.0000      -1.005958       -27.3735
  25   2.0000      -0.978221       -26.6187
  26   2.0000      -0.906734       -24.6735
  27   2.0000      -0.902844       -24.5676
  28   2.0000      -0.868358       -23.6292
  29   2.0000      -0.853832       -23.2339
  30   2.0000      -0.843244       -22.9458
  31   2.0000      -0.815258       -22.1843
  32   2.0000      -0.780881       -21.2488
  33   2.0000      -0.766623       -20.8609
  34   2.0000      -0.712178       -19.3793
  35   2.0000      -0.698693       -19.0124
  36   2.0000      -0.690824       -18.7983
  37   2.0000      -0.658662       -17.9231
  38   2.0000      -0.640481       -17.4284
  39   2.0000      -0.627662       -17.0796
  40   2.0000      -0.595107       -16.1937
  41   2.0000      -0.564643       -15.3647
  42   2.0000      -0.557763       -15.1775
  43   2.0000      -0.542404       -14.7596
  44   2.0000      -0.534665       -14.5490
  45   2.0000      -0.526660       -14.3312
  46   2.0000      -0.520551       -14.1649
  47   2.0000      -0.512741       -13.9524
  48   2.0000      -0.496622       -13.5138
  49   2.0000      -0.495934       -13.4950
  50   2.0000      -0.487690       -13.2707
  51   2.0000      -0.484291       -13.1782
  52   2.0000      -0.470527       -12.8037
  53   2.0000      -0.466435       -12.6924
  54   2.0000      -0.455915       -12.4061
  55   2.0000      -0.450231       -12.2514
  56   2.0000      -0.443080       -12.0568
  57   2.0000      -0.440499       -11.9866
  58   2.0000      -0.433563       -11.7979
  59   2.0000      -0.430548       -11.7158
  60   2.0000      -0.427922       -11.6444
  61   2.0000      -0.414072       -11.2675
  62   2.0000      -0.407047       -11.0763
  63   2.0000      -0.354161        -9.6372
  64   2.0000      -0.329949        -8.9784
  65   2.0000      -0.325343        -8.8530
  66   2.0000      -0.286640        -7.7999
  67   0.0000       0.027980         0.7614
  68   0.0000       0.068087         1.8527
  69   0.0000       0.105321         2.8659
  70   0.0000       0.115020         3.1298
  71   0.0000       0.120097         3.2680

MULLIKEN ATOMIC CHARGES
-----------------------
   0 S :    0.107889
   1 C :   -0.129734
   2 C :   -0.103361
   3 C :    0.046766
   4 C :   -0.156356
   5 H :    0.005084
   6 C :    0.070121
   7 H :    0.032142
   8 H :    0.005772
   9 C :   -0.066737
  10 H :    0.039856
  11 H :    0.033050
  12 C :   -0.079955
  13 H :    0.039877
  14 H :    0.034655
  15 H :    0.045426
  16 S :    0.099186
  17 C :   -0.097786
  18 C :   -0.013898
  19 C :   -0.019266
  20 C :   -0.113922
  21 H :    0.002934
  22 C :    0.031548
  23 H :    0.004193
  24 H :    0.036439
  25 C :   -0.077578
  26 H :    0.023499
  27 H :    0.022928
  28 C :   -0.038660
  29 H :    0.025041
  30 H :    0.031183
  31 H :    0.041787
  32 H :    0.051975
  33 H :    0.065902
Sum of atomic charges:   -0.0000000

LOEWDIN ATOMIC CHARGES
----------------------
   0 S :    0.420036
   1 C :   -0.215505
   2 C :   -0.059708
   3 C :   -0.055739
   4 C :   -0.191459
   5 H :    0.029320
   6 C :   -0.031514
   7 H :    0.034314
   8 H :    0.022926
   9 C :   -0.031357
  10 H :    0.030799
  11 H :    0.019258
  12 C :   -0.076894
  13 H :    0.028937
  14 H :    0.029248
  15 H :    0.027542
  16 S :    0.385388
  17 C :   -0.180754
  18 C :   -0.058182
  19 C :   -0.056155
  20 C :   -0.191966
  21 H :    0.025841
  22 C :   -0.040915
  23 H :    0.020536
  24 H :    0.038483
  25 C :   -0.043620
  26 H :    0.017555
  27 H :    0.023131
  28 C :   -0.065862
  29 H :    0.020907
  30 H :    0.031140
  31 H :    0.030985
  32 H :    0.026366
  33 H :    0.036917

  Mayer bond orders larger than 0.100000
B(  0-S ,  1-C ) :   1.1461 B(  0-S ,  4-C ) :   1.1637 B(  1-C ,  2-C ) :   1.5827
B(  1-C , 32-H ) :   0.9707 B(  2-C ,  3-C ) :   1.2465 B(  2-C ,  6-C ) :   1.0280
B(  3-C ,  4-C ) :   1.5517 B(  3-C ,  5-H ) :   0.9970 B(  4-C , 20-C ) :   1.0233
B(  6-C ,  7-H ) :   0.9325 B(  6-C ,  8-H ) :   0.9437 B(  6-C ,  9-C ) :   1.0685
B(  9-C , 10-H ) :   0.9590 B(  9-C , 11-H ) :   0.9581 B(  9-C , 12-C ) :   1.0519
B( 12-C , 13-H ) :   0.9771 B( 12-C , 14-H ) :   0.9787 B( 12-C , 15-H ) :   0.9785
B( 16-S , 17-C ) :   1.1231 B( 16-S , 20-C ) :   1.1389 B( 17-C , 18-C ) :   1.6631
B( 17-C , 33-H ) :   0.9563 B( 18-C , 19-C ) :   1.2027 B( 18-C , 21-H ) :   0.9988
B( 19-C , 20-C ) :   1.6034 B( 19-C , 22-C ) :   1.0673 B( 22-C , 23-H ) :   0.9305
B( 22-C , 24-H ) :   0.9356 B( 22-C , 25-C ) :   1.0443 B( 25-C , 26-H ) :   0.9540
B( 25-C , 27-H ) :   0.9521 B( 25-C , 28-C ) :   1.0950 B( 28-C , 29-H ) :   0.9731
B( 28-C , 30-H ) :   0.9698 B( 28-C , 31-H ) :   0.9717

Dispersion correction           -0.014534973
FINAL SINGLE POINT ENERGY     -1339.875655635020

DIPOLE MOMENT
-------------
                                X             Y             Z
Electronic contribution:     -5.30530     -11.24177      28.81384
Nuclear contribution   :      5.26599      11.27733     -29.57502
                        -----------------------------------------
Total Dipole Moment    :     -0.03930       0.03556      -0.76118
                        -----------------------------------------
Magnitude (a.u.)       :      0.76303
Magnitude (Debye)      :      1.93946

Rotational constants in cm-1:     0.016423     0.010346     0.006832
Rotational constants in MHz :   492.357103   310.158799   204.803769

                             ****ORCA TERMINATED NORMALLY****
TOTAL RUN TIME: 0 days 0 hours 0 minutes 21 seconds 889 msec
