                         Program Version 4.2.1 -  RELEASE  -
|  1> ! wB97X-D3 SP def2-SVP
|  2> %pal
|  3> nprocs 24
|  4> end
|  5>
|  6> * xyz 0 1
|  7> S 	 -97.1343 	 -26.8596 	 -64.3233
|  8> C 	 -97.6603 	 -25.1482 	 -64.2374
|  9> C 	 -96.9224 	 -24.393 	 -63.4104
| 10> C 	 -96.0021 	 -25.1846 	 -62.7151
| 11> C 	 -96.0389 	 -26.5561 	 -63.0603
| 12> H 	 -95.539 	 -24.8648 	 -61.9114
| 13> C 	 -97.1636 	 -22.9333 	 -63.0948
| 14> H 	 -96.8798 	 -22.7037 	 -62.0552
| 15> H 	 -98.2212 	 -22.718 	 -63.1277
| 16> C 	 -96.3655 	 -21.8725 	 -64.0715
| 17> H 	 -96.0662 	 -21.0081 	 -63.5175
| 18> H 	 -95.4934 	 -22.448 	 -64.3136
| 19> C 	 -97.1001 	 -21.6006 	 -65.374
| 20> H 	 -98.0913 	 -21.2257 	 -65.1766
| 21> H 	 -96.5859 	 -20.7924 	 -65.9727
| 22> H 	 -97.1895 	 -22.4566 	 -66.0201
| 23> S 	 -94.2197 	 -28.5951 	 -63.4431
| 24> C 	 -94.1662 	 -29.9663 	 -62.3101
| 25> C 	 -94.7253 	 -29.4155 	 -61.1335
| 26> C 	 -95.2193 	 -28.0785 	 -61.181
| 27> C 	 -95.3337 	 -27.6727 	 -62.4911
| 28> H 	 -94.8366 	 -29.9725 	 -60.1534
| 29> C 	 -95.9314 	 -27.442 	 -60.0622
| 30> H 	 -96.4163 	 -28.3081 	 -59.5194
| 31> H 	 -96.8199 	 -26.959 	 -60.5698
| 32> C 	 -95.0466 	 -26.4691 	 -59.2734
| 33> H 	 -94.3907 	 -25.8482 	 -59.9143
| 34> H 	 -94.3735 	 -26.9138 	 -58.5147
| 35> C 	 -95.91 	 -25.4388 	 -58.5899
| 36> H 	 -95.3065 	 -24.7599 	 -58.0528
| 37> H 	 -96.6013 	 -25.8842 	 -57.8641
| 38> H 	 -96.526 	 -24.8442 	 -59.315
| 39> H 	 -98.492 	 -24.7916 	 -64.8539
| 40> H 	 -93.7349 	 -30.9582 	 -62.5206
| 41> *
| 42>
| 43>                          ****END OF INPUT****

CARTESIAN COORDINATES (ANGSTROEM)
---------------------------------
  S    -97.134300  -26.859600  -64.323300
  C    -97.660300  -25.148200  -64.237400
  C    -96.922400  -24.393000  -63.410400
  C    -96.002100  -25.184600  -62.715100
  C    -96.038900  -26.556100  -63.060300
  H    -95.539000  -24.864800  -61.911400
  C    -97.163600  -22.933300  -63.094800
  H    -96.879800  -22.703700  -62.055200
  H    -98.221200  -22.718000  -63.127700
  C    -96.365500  -21.872500  -64.071500
  H    -96.066200  -21.008100  -63.517500
  H    -95.493400  -22.448000  -64.313600
  C    -97.100100  -21.600600  -65.374000
  H    -98.091300  -21.225700  -65.176600
  H    -96.585900  -20.792400  -65.972700
  H    -97.189500  -22.456600  -66.020100
  S    -94.219700  -28.595100  -63.443100
  C    -94.166200  -29.966300  -62.310100
  C    -94.725300  -29.415500  -61.133500
  C    -95.219300  -28.078500  -61.181000
  C    -95.333700  -27.672700  -62.491100
  H    -94.836600  -29.972500  -60.153400
  C    -95.931400  -27.442000  -60.062200
  H    -96.416300  -28.308100  -59.519400
  H    -96.819900  -26.959000  -60.569800
  C    -95.046600  -26.469100  -59.273400
  H    -94.390700  -25.848200  -59.914300
  H    -94.373500  -26.913800  -58.514700
  C    -95.910000  -25.438800  -58.589900
  H    -95.306500  -24.759900  -58.052800
  H    -96.601300  -25.884200  -57.864100
  H    -96.526000  -24.844200  -59.315000
  H    -98.492000  -24.791600  -64.853900
  H    -93.734900  -30.958200  -62.520600

 Total Charge           Charge          ....    0
 Multiplicity           Mult            ....    1
 Number of Electrons    NEL             ....  134
 Basis Dimension        Dim             ....  322

ORBITAL ENERGIES
----------------

  NO   OCC          E(Eh)            E(eV)
   0   2.0000     -88.969243     -2420.9762
   1   2.0000     -88.957029     -2420.6438
   2   2.0000     -10.328163      -281.0436
   3   2.0000     -10.323460      -280.9156
   4   2.0000     -10.319844      -280.8172
   5   2.0000     -10.314706      -280.6774
   6   2.0000     -10.299738      -280.2701
   7   2.0000     -10.299680      -280.2685
   8   2.0000     -10.297625      -280.2126
   9   2.0000     -10.294452      -280.1263
  10   2.0000     -10.293047      -280.0881
  11   2.0000     -10.291911      -280.0571
  12   2.0000     -10.290274      -280.0126
  13   2.0000     -10.286188      -279.9014
  14   2.0000     -10.280010      -279.7333
  15   2.0000     -10.275343      -279.6063
  16   2.0000      -8.084409      -219.9879
  17   2.0000      -8.071944      -219.6488
  18   2.0000      -6.042665      -164.4293
  19   2.0000      -6.038893      -164.3266
  20   2.0000      -6.035344      -164.2301
  21   2.0000      -6.030540      -164.0993
  22   2.0000      -6.026453      -163.9881
  23   2.0000      -6.022553      -163.8820
  24   2.0000      -1.013465       -27.5778
  25   2.0000      -0.987685       -26.8763
  26   2.0000      -0.913310       -24.8524
  27   2.0000      -0.908242       -24.7145
  28   2.0000      -0.869767       -23.6676
  29   2.0000      -0.855974       -23.2922
  30   2.0000      -0.847962       -23.0742
  31   2.0000      -0.810024       -22.0419
  32   2.0000      -0.782989       -21.3062
  33   2.0000      -0.769310       -20.9340
  34   2.0000      -0.709204       -19.2984
  35   2.0000      -0.701362       -19.0850
  36   2.0000      -0.697426       -18.9779
  37   2.0000      -0.663394       -18.0519
  38   2.0000      -0.645629       -17.5685
  39   2.0000      -0.623539       -16.9673
  40   2.0000      -0.592675       -16.1275
  41   2.0000      -0.569875       -15.5071
  42   2.0000      -0.562042       -15.2939
  43   2.0000      -0.549879       -14.9630
  44   2.0000      -0.536859       -14.6087
  45   2.0000      -0.534204       -14.5364
  46   2.0000      -0.519349       -14.1322
  47   2.0000      -0.516250       -14.0479
  48   2.0000      -0.508395       -13.8341
  49   2.0000      -0.498906       -13.5759
  50   2.0000      -0.491026       -13.3615
  51   2.0000      -0.484326       -13.1792
  52   2.0000      -0.471717       -12.8361
  53   2.0000      -0.462863       -12.5951
  54   2.0000      -0.456209       -12.4141
  55   2.0000      -0.449391       -12.2285
  56   2.0000      -0.444570       -12.0974
  57   2.0000      -0.436195       -11.8695
  58   2.0000      -0.430616       -11.7177
  59   2.0000      -0.428967       -11.6728
  60   2.0000      -0.421193       -11.4613
  61   2.0000      -0.418417       -11.3857
  62   2.0000      -0.406199       -11.0532
  63   2.0000      -0.341465        -9.2917
  64   2.0000      -0.333522        -9.0756
  65   2.0000      -0.320000        -8.7076
  66   2.0000      -0.294104        -8.0030
  67   0.0000       0.022865         0.6222
  68   0.0000       0.065974         1.7952
  69   0.0000       0.111192         3.0257
  70   0.0000       0.116652         3.1742
  71   0.0000       0.123532         3.3615

MULLIKEN ATOMIC CHARGES
-----------------------
   0 S :    0.129203
   1 C :   -0.145894
   2 C :   -0.050563
   3 C :    0.127662
   4 C :   -0.183990
   5 H :   -0.083467
   6 C :    0.034268
   7 H :    0.024873
   8 H :    0.025187
   9 C :   -0.044315
  10 H :    0.032668
  11 H :    0.029611
  12 C :   -0.058567
  13 H :    0.022683
  14 H :    0.042462
  15 H :    0.035319
  16 S :    0.090221
  17 C :   -0.105252
  18 C :   -0.058598
  19 C :   -0.000651
  20 C :   -0.161751
  21 H :    0.033866
  22 C :    0.001797
  23 H :    0.036076
  24 H :    0.048144
  25 C :   -0.054505
  26 H :    0.037839
  27 H :    0.039566
  28 C :   -0.048104
  29 H :    0.018655
  30 H :    0.028167
  31 H :    0.032253
  32 H :    0.048194
  33 H :    0.076943
Sum of atomic charges:   -0.0000000

LOEWDIN ATOMIC CHARGES
----------------------
   0 S :    0.426591
   1 C :   -0.177856
   2 C :   -0.068497
   3 C :   -0.039468
   4 C :   -0.205618
   5 H :   -0.000824
   6 C :   -0.025285
   7 H :    0.030785
   8 H :    0.025800
   9 C :   -0.028790
  10 H :    0.021181
  11 H :    0.024143
  12 C :   -0.068756
  13 H :    0.019139
  14 H :    0.034853
  15 H :    0.024240
  16 S :    0.390976
  17 C :   -0.192480
  18 C :   -0.075136
  19 C :   -0.069393
  20 C :   -0.205729
  21 H :    0.034344
  22 C :   -0.042399
  23 H :    0.039232
  24 H :    0.042929
  25 C :   -0.041061
  26 H :    0.027892
  27 H :    0.031487
  28 C :   -0.064474
  29 H :    0.016528
  30 H :    0.023622
  31 H :    0.025315
  32 H :    0.026762
  33 H :    0.039945

  Mayer bond orders larger than 0.100000
B(  0-S ,  1-C ) :   1.1385 B(  0-S ,  4-C ) :   1.1811 B(  1-C ,  2-C ) :   1.6155
B(  1-C , 32-H ) :   0.9649 B(  2-C ,  3-C ) :   1.2578 B(  2-C ,  6-C ) :   1.0189
B(  3-C ,  4-C ) :   1.5276 B(  3-C ,  5-H ) :   1.0196 B(  4-C , 20-C ) :   1.0390
B(  6-C ,  7-H ) :   0.9455 B(  6-C ,  8-H ) :   0.9520 B(  6-C ,  9-C ) :   1.0398
B(  9-C , 10-H ) :   0.9629 B(  9-C , 11-H ) :   0.9610 B(  9-C , 12-C ) :   1.0773
B( 12-C , 13-H ) :   0.9773 B( 12-C , 14-H ) :   0.9720 B( 12-C , 15-H ) :   0.9754
B( 16-S , 17-C ) :   1.1298 B( 16-S , 20-C ) :   1.1637 B( 17-C , 18-C ) :   1.5670
B( 17-C , 20-C ) :   0.1147 B( 17-C , 33-H ) :   0.9770 B( 18-C , 19-C ) :   1.2570
B( 18-C , 21-H ) :   0.9722 B( 19-C , 20-C ) :   1.5455 B( 19-C , 22-C ) :   1.0503
B( 22-C , 23-H ) :   0.9376 B( 22-C , 24-H ) :   0.9474 B( 22-C , 25-C ) :   1.0293
B( 25-C , 26-H ) :   0.9600 B( 25-C , 27-H ) :   0.9493 B( 25-C , 28-C ) :   1.0907
B( 28-C , 29-H ) :   0.9734 B( 28-C , 30-H ) :   0.9708 B( 28-C , 31-H ) :   0.9746

Dispersion correction           -0.014883351
FINAL SINGLE POINT ENERGY     -1339.848574772657

DIPOLE MOMENT
-------------
                                X             Y             Z
Electronic contribution:      4.61860     -23.48035     -12.44670
Nuclear contribution   :     -4.84745      23.94858      12.93625
                        -----------------------------------------
Total Dipole Moment    :     -0.22886       0.46823       0.48955
                        -----------------------------------------
Magnitude (a.u.)       :      0.71503
Magnitude (Debye)      :      1.81747

Rotational constants in cm-1:     0.020175     0.008617     0.006709
Rotational constants in MHz :   604.818629   258.325068   201.142276

                             ****ORCA TERMINATED NORMALLY****
TOTAL RUN TIME: 0 days 0 hours 0 minutes 22 seconds 100 msec
