                         Program Version 4.2.1 -  RELEASE  -
|  1> ! wB97X-D3 SP def2-SVP
|  2> %pal
|  3> nprocs 24
|  4> end
|  5>
|  6> * xyz 0 1
|  7> S 	 -50.9838 	 3.71165 	 -23.8968
|  8> C 	 -51.0883 	 3.99287 	 -22.2181
|  9> C 	 -52.4103 	 3.90491 	 -21.7749
| 10> C 	 -53.3346 	 3.46077 	 -22.7843
| 11> C 	 -52.6702 	 3.17489 	 -23.9512
| 12> H 	 -54.4523 	 3.33574 	 -22.7348
| 13> C 	 -52.793 	 4.03093 	 -20.365
| 14> H 	 -52.2209 	 3.28247 	 -19.7709
| 15> H 	 -53.8093 	 3.68718 	 -20.2128
| 16> C 	 -52.4869 	 5.44206 	 -19.8379
| 17> H 	 -51.4072 	 5.56407 	 -19.8516
| 18> H 	 -52.8724 	 6.23888 	 -20.4921
| 19> C 	 -52.8782 	 5.78925 	 -18.387
| 20> H 	 -52.0676 	 5.398 	 -17.7167
| 21> H 	 -52.8598 	 6.82853 	 -18.2628
| 22> H 	 -53.7874 	 5.28421 	 -18.0231
| 23> S 	 -53.2528 	 3.53803 	 -26.555
| 24> C 	 -54.1956 	 2.39339 	 -27.3885
| 25> C 	 -54.6303 	 1.3549 	 -26.5543
| 26> C 	 -54.1289 	 1.5092 	 -25.2152
| 27> C 	 -53.3501 	 2.62014 	 -25.1253
| 28> H 	 -55.2909 	 0.622932 	 -26.906
| 29> C 	 -54.425 	 0.459884 	 -24.1117
| 30> H 	 -55.2042 	 -0.255736 	 -24.4436
| 31> H 	 -55.0187 	 0.976812 	 -23.3007
| 32> C 	 -53.2045 	 -0.140898 	 -23.5167
| 33> H 	 -53.479 	 -1.09001 	 -23.0073
| 34> H 	 -52.6629 	 0.621314 	 -22.9042
| 35> C 	 -52.1966 	 -0.702537 	 -24.5453
| 36> H 	 -52.5272 	 -1.51429 	 -25.1982
| 37> H 	 -51.2593 	 -1.0914 	 -24.0564
| 38> H 	 -51.8209 	 0.073589 	 -25.3354
| 39> H 	 -50.2459 	 4.20676 	 -21.6174
| 40> H 	 -54.4642 	 2.51652 	 -28.4978
| 41> *
| 42>
| 43>                          ****END OF INPUT****

CARTESIAN COORDINATES (ANGSTROEM)
---------------------------------
  S    -50.983800    3.711650  -23.896800
  C    -51.088300    3.992870  -22.218100
  C    -52.410300    3.904910  -21.774900
  C    -53.334600    3.460770  -22.784300
  C    -52.670200    3.174890  -23.951200
  H    -54.452300    3.335740  -22.734800
  C    -52.793000    4.030930  -20.365000
  H    -52.220900    3.282470  -19.770900
  H    -53.809300    3.687180  -20.212800
  C    -52.486900    5.442060  -19.837900
  H    -51.407200    5.564070  -19.851600
  H    -52.872400    6.238880  -20.492100
  C    -52.878200    5.789250  -18.387000
  H    -52.067600    5.398000  -17.716700
  H    -52.859800    6.828530  -18.262800
  H    -53.787400    5.284210  -18.023100
  S    -53.252800    3.538030  -26.555000
  C    -54.195600    2.393390  -27.388500
  C    -54.630300    1.354900  -26.554300
  C    -54.128900    1.509200  -25.215200
  C    -53.350100    2.620140  -25.125300
  H    -55.290900    0.622932  -26.906000
  C    -54.425000    0.459884  -24.111700
  H    -55.204200   -0.255736  -24.443600
  H    -55.018700    0.976812  -23.300700
  C    -53.204500   -0.140898  -23.516700
  H    -53.479000   -1.090010  -23.007300
  H    -52.662900    0.621314  -22.904200
  C    -52.196600   -0.702537  -24.545300
  H    -52.527200   -1.514290  -25.198200
  H    -51.259300   -1.091400  -24.056400
  H    -51.820900    0.073589  -25.335400
  H    -50.245900    4.206760  -21.617400
  H    -54.464200    2.516520  -28.497800

 Total Charge           Charge          ....    0
 Multiplicity           Mult            ....    1
 Number of Electrons    NEL             ....  134
 Basis Dimension        Dim             ....  322

ORBITAL ENERGIES
----------------

  NO   OCC          E(Eh)            E(eV)
   0   2.0000     -88.967476     -2420.9281
   1   2.0000     -88.964698     -2420.8525
   2   2.0000     -10.326375      -280.9950
   3   2.0000     -10.318440      -280.7790
   4   2.0000     -10.316509      -280.7265
   5   2.0000     -10.308926      -280.5201
   6   2.0000     -10.300920      -280.3023
   7   2.0000     -10.299128      -280.2535
   8   2.0000     -10.297400      -280.2065
   9   2.0000     -10.297021      -280.1962
  10   2.0000     -10.291024      -280.0330
  11   2.0000     -10.288723      -279.9704
  12   2.0000     -10.286863      -279.9198
  13   2.0000     -10.285843      -279.8920
  14   2.0000     -10.278023      -279.6792
  15   2.0000     -10.277037      -279.6524
  16   2.0000      -8.082518      -219.9365
  17   2.0000      -8.081346      -219.9046
  18   2.0000      -6.040976      -164.3833
  19   2.0000      -6.039575      -164.3452
  20   2.0000      -6.037000      -164.2751
  21   2.0000      -6.035587      -164.2367
  22   2.0000      -6.033313      -164.1748
  23   2.0000      -6.032298      -164.1472
  24   2.0000      -1.013837       -27.5879
  25   2.0000      -0.990083       -26.9415
  26   2.0000      -0.912173       -24.8215
  27   2.0000      -0.909364       -24.7450
  28   2.0000      -0.868166       -23.6240
  29   2.0000      -0.853119       -23.2146
  30   2.0000      -0.845002       -22.9937
  31   2.0000      -0.811681       -22.0870
  32   2.0000      -0.780485       -21.2381
  33   2.0000      -0.767779       -20.8923
  34   2.0000      -0.704853       -19.1800
  35   2.0000      -0.695617       -18.9287
  36   2.0000      -0.678508       -18.4631
  37   2.0000      -0.667567       -18.1654
  38   2.0000      -0.644296       -17.5322
  39   2.0000      -0.612318       -16.6620
  40   2.0000      -0.592907       -16.1338
  41   2.0000      -0.567959       -15.4550
  42   2.0000      -0.557124       -15.1601
  43   2.0000      -0.549948       -14.9648
  44   2.0000      -0.541991       -14.7483
  45   2.0000      -0.534167       -14.5354
  46   2.0000      -0.520015       -14.1503
  47   2.0000      -0.508285       -13.8312
  48   2.0000      -0.501657       -13.6508
  49   2.0000      -0.492170       -13.3926
  50   2.0000      -0.485397       -13.2083
  51   2.0000      -0.479916       -13.0592
  52   2.0000      -0.471289       -12.8244
  53   2.0000      -0.465668       -12.6715
  54   2.0000      -0.454990       -12.3809
  55   2.0000      -0.447437       -12.1754
  56   2.0000      -0.441934       -12.0256
  57   2.0000      -0.438335       -11.9277
  58   2.0000      -0.434562       -11.8250
  59   2.0000      -0.424031       -11.5385
  60   2.0000      -0.413832       -11.2609
  61   2.0000      -0.409389       -11.1400
  62   2.0000      -0.403210       -10.9719
  63   2.0000      -0.346878        -9.4390
  64   2.0000      -0.332579        -9.0499
  65   2.0000      -0.326013        -8.8713
  66   2.0000      -0.291211        -7.9243
  67   0.0000       0.035680         0.9709
  68   0.0000       0.068139         1.8541
  69   0.0000       0.112832         3.0703
  70   0.0000       0.122759         3.3404
  71   0.0000       0.137349         3.7375

MULLIKEN ATOMIC CHARGES
-----------------------
   0 S :    0.125067
   1 C :   -0.109152
   2 C :   -0.077761
   3 C :    0.007566
   4 C :   -0.171916
   5 H :    0.046338
   6 C :    0.086292
   7 H :    0.034369
   8 H :    0.009532
   9 C :   -0.121443
  10 H :    0.022752
  11 H :    0.037469
  12 C :   -0.021353
  13 H :    0.023850
  14 H :    0.027858
  15 H :    0.034148
  16 S :    0.130673
  17 C :   -0.127078
  18 C :   -0.027216
  19 C :   -0.045397
  20 C :   -0.179193
  21 H :   -0.002825
  22 C :    0.086584
  23 H :    0.017322
  24 H :    0.029802
  25 C :   -0.056051
  26 H :    0.039493
  27 H :    0.062863
  28 C :   -0.118681
  29 H :    0.026229
  30 H :    0.039259
  31 H :    0.048408
  32 H :    0.038899
  33 H :    0.083291
Sum of atomic charges:   -0.0000000

LOEWDIN ATOMIC CHARGES
----------------------
   0 S :    0.415715
   1 C :   -0.205530
   2 C :   -0.061321
   3 C :   -0.065372
   4 C :   -0.192686
   5 H :    0.046650
   6 C :   -0.037988
   7 H :    0.037933
   8 H :    0.024696
   9 C :   -0.043018
  10 H :    0.022549
  11 H :    0.026200
  12 C :   -0.066131
  13 H :    0.028373
  14 H :    0.020044
  15 H :    0.025444
  16 S :    0.447655
  17 C :   -0.214979
  18 C :   -0.066951
  19 C :   -0.056073
  20 C :   -0.218409
  21 H :    0.021560
  22 C :   -0.037267
  23 H :    0.031897
  24 H :    0.035659
  25 C :   -0.049839
  26 H :    0.034801
  27 H :    0.037030
  28 C :   -0.085875
  29 H :    0.019263
  30 H :    0.029077
  31 H :    0.032606
  32 H :    0.020556
  33 H :    0.043731

  Mayer bond orders larger than 0.100000
B(  0-S ,  1-C ) :   1.1434 B(  0-S ,  4-C ) :   1.1564 B(  1-C ,  2-C ) :   1.5824
B(  1-C , 32-H ) :   0.9772 B(  2-C ,  3-C ) :   1.2345 B(  2-C ,  6-C ) :   1.0393
B(  3-C ,  4-C ) :   1.5740 B(  3-C ,  5-H ) :   0.9857 B(  4-C , 20-C ) :   1.0161
B(  6-C ,  7-H ) :   0.9354 B(  6-C ,  8-H ) :   0.9413 B(  6-C ,  9-C ) :   1.0457
B(  9-C , 10-H ) :   0.9578 B(  9-C , 11-H ) :   0.9655 B(  9-C , 12-C ) :   1.0796
B( 12-C , 13-H ) :   0.9751 B( 12-C , 14-H ) :   0.9751 B( 12-C , 15-H ) :   0.9768
B( 16-S , 17-C ) :   1.1745 B( 16-S , 20-C ) :   1.1708 B( 17-C , 18-C ) :   1.5835
B( 17-C , 33-H ) :   0.9582 B( 18-C , 19-C ) :   1.2482 B( 18-C , 21-H ) :   1.0024
B( 19-C , 20-C ) :   1.6063 B( 19-C , 22-C ) :   1.0250 B( 22-C , 23-H ) :   0.9349
B( 22-C , 24-H ) :   0.9312 B( 22-C , 25-C ) :   1.0795 B( 25-C , 26-H ) :   0.9526
B( 25-C , 27-H ) :   0.9460 B( 25-C , 28-C ) :   1.0730 B( 28-C , 29-H ) :   0.9769
B( 28-C , 30-H ) :   0.9756 B( 28-C , 31-H ) :   0.9674

Dispersion correction           -0.015424498
FINAL SINGLE POINT ENERGY     -1339.877750364707

DIPOLE MOMENT
-------------
                                X             Y             Z
Electronic contribution:      3.36617       6.84452     -22.49693
Nuclear contribution   :     -3.66576      -7.03423      22.92454
                        -----------------------------------------
Total Dipole Moment    :     -0.29959      -0.18970       0.42761
                        -----------------------------------------
Magnitude (a.u.)       :      0.55551
Magnitude (Debye)      :      1.41200

Rotational constants in cm-1:     0.023271     0.007859     0.007105
Rotational constants in MHz :   697.652409   235.600807   213.010086

                             ****ORCA TERMINATED NORMALLY****
TOTAL RUN TIME: 0 days 0 hours 0 minutes 22 seconds 272 msec
