                         Program Version 4.2.1 -  RELEASE  -
|  1> ! wB97X-D3 SP def2-SVP
|  2> %pal
|  3> nprocs 24
|  4> end
|  5>
|  6> * xyz 0 1
|  7> S 	 -33.6659 	 -31.2889 	 -97.1231
|  8> C 	 -34.3407 	 -30.9107 	 -98.6777
|  9> C 	 -33.5033 	 -31.348 	 -99.7114
| 10> C 	 -32.416 	 -32.1171 	 -99.1699
| 11> C 	 -32.336 	 -32.1361 	 -97.7906
| 12> H 	 -31.7054 	 -32.696 	 -99.8141
| 13> C 	 -33.8975 	 -31.2593 	 -101.205
| 14> H 	 -33.0882 	 -30.8275 	 -101.732
| 15> H 	 -34.7228 	 -30.5793 	 -101.218
| 16> C 	 -34.1625 	 -32.5391 	 -102.023
| 17> H 	 -35.0969 	 -32.9335 	 -101.667
| 18> H 	 -34.3269 	 -32.3047 	 -103.053
| 19> C 	 -33.0868 	 -33.6286 	 -102.068
| 20> H 	 -33.0841 	 -34.2056 	 -101.118
| 21> H 	 -33.2936 	 -34.4314 	 -102.771
| 22> H 	 -32.0291 	 -33.2643 	 -102.252
| 23> S 	 -32.1402 	 -33.1581 	 -95.2764
| 24> C 	 -30.5059 	 -33.6747 	 -94.7478
| 25> C 	 -29.5721 	 -33.6803 	 -95.7516
| 26> C 	 -30.1154 	 -33.3598 	 -97.0244
| 27> C 	 -31.4325 	 -32.8466 	 -96.8736
| 28> H 	 -28.5167 	 -33.9516 	 -95.617
| 29> C 	 -29.1798 	 -33.0035 	 -98.2139
| 30> H 	 -29.7979 	 -33.1634 	 -99.0543
| 31> H 	 -28.3274 	 -33.6909 	 -98.156
| 32> C 	 -28.613 	 -31.5746 	 -98.159
| 33> H 	 -28.3062 	 -31.3583 	 -97.1866
| 34> H 	 -29.405 	 -30.8694 	 -98.2467
| 35> C 	 -27.5267 	 -31.3611 	 -99.1594
| 36> H 	 -27.0394 	 -30.4282 	 -98.975
| 37> H 	 -27.8988 	 -31.4231 	 -100.269
| 38> H 	 -26.8491 	 -32.2289 	 -99.1162
| 39> H 	 -35.2182 	 -30.3151 	 -98.7754
| 40> H 	 -30.2191 	 -33.8314 	 -93.7108
| 41> *
| 42>
| 43>                          ****END OF INPUT****

CARTESIAN COORDINATES (ANGSTROEM)
---------------------------------
  S    -33.665900  -31.288900  -97.123100
  C    -34.340700  -30.910700  -98.677700
  C    -33.503300  -31.348000  -99.711400
  C    -32.416000  -32.117100  -99.169900
  C    -32.336000  -32.136100  -97.790600
  H    -31.705400  -32.696000  -99.814100
  C    -33.897500  -31.259300  -101.205000
  H    -33.088200  -30.827500  -101.732000
  H    -34.722800  -30.579300  -101.218000
  C    -34.162500  -32.539100  -102.023000
  H    -35.096900  -32.933500  -101.667000
  H    -34.326900  -32.304700  -103.053000
  C    -33.086800  -33.628600  -102.068000
  H    -33.084100  -34.205600  -101.118000
  H    -33.293600  -34.431400  -102.771000
  H    -32.029100  -33.264300  -102.252000
  S    -32.140200  -33.158100  -95.276400
  C    -30.505900  -33.674700  -94.747800
  C    -29.572100  -33.680300  -95.751600
  C    -30.115400  -33.359800  -97.024400
  C    -31.432500  -32.846600  -96.873600
  H    -28.516700  -33.951600  -95.617000
  C    -29.179800  -33.003500  -98.213900
  H    -29.797900  -33.163400  -99.054300
  H    -28.327400  -33.690900  -98.156000
  C    -28.613000  -31.574600  -98.159000
  H    -28.306200  -31.358300  -97.186600
  H    -29.405000  -30.869400  -98.246700
  C    -27.526700  -31.361100  -99.159400
  H    -27.039400  -30.428200  -98.975000
  H    -27.898800  -31.423100  -100.269000
  H    -26.849100  -32.228900  -99.116200
  H    -35.218200  -30.315100  -98.775400
  H    -30.219100  -33.831400  -93.710800

 Total Charge           Charge          ....    0
 Multiplicity           Mult            ....    1
 Number of Electrons    NEL             ....  134
 Basis Dimension        Dim             ....  322

ORBITAL ENERGIES
----------------

  NO   OCC          E(Eh)            E(eV)
   0   2.0000     -88.969752     -2420.9900
   1   2.0000     -88.965537     -2420.8753
   2   2.0000     -10.334586      -281.2184
   3   2.0000     -10.328777      -281.0603
   4   2.0000     -10.317883      -280.7639
   5   2.0000     -10.313739      -280.6511
   6   2.0000     -10.306774      -280.4616
   7   2.0000     -10.304809      -280.4081
   8   2.0000     -10.297201      -280.2011
   9   2.0000     -10.295735      -280.1612
  10   2.0000     -10.291964      -280.0586
  11   2.0000     -10.291891      -280.0566
  12   2.0000     -10.286141      -279.9001
  13   2.0000     -10.285398      -279.8799
  14   2.0000     -10.282592      -279.8036
  15   2.0000     -10.273503      -279.5562
  16   2.0000      -8.083356      -219.9593
  17   2.0000      -8.081283      -219.9029
  18   2.0000      -6.041898      -164.4084
  19   2.0000      -6.039708      -164.3488
  20   2.0000      -6.038253      -164.3092
  21   2.0000      -6.035548      -164.2356
  22   2.0000      -6.033914      -164.1912
  23   2.0000      -6.032172      -164.1437
  24   2.0000      -1.008639       -27.4465
  25   2.0000      -0.980369       -26.6772
  26   2.0000      -0.913338       -24.8532
  27   2.0000      -0.909710       -24.7545
  28   2.0000      -0.869533       -23.6612
  29   2.0000      -0.852532       -23.1986
  30   2.0000      -0.841844       -22.9077
  31   2.0000      -0.815681       -22.1958
  32   2.0000      -0.786257       -21.3951
  33   2.0000      -0.768958       -20.9244
  34   2.0000      -0.707959       -19.2645
  35   2.0000      -0.702800       -19.1242
  36   2.0000      -0.694177       -18.8895
  37   2.0000      -0.662842       -18.0369
  38   2.0000      -0.640033       -17.4162
  39   2.0000      -0.618271       -16.8240
  40   2.0000      -0.592133       -16.1128
  41   2.0000      -0.573925       -15.6173
  42   2.0000      -0.568413       -15.4673
  43   2.0000      -0.545350       -14.8397
  44   2.0000      -0.540258       -14.7012
  45   2.0000      -0.532331       -14.4855
  46   2.0000      -0.511465       -13.9177
  47   2.0000      -0.507842       -13.8191
  48   2.0000      -0.504093       -13.7171
  49   2.0000      -0.496912       -13.5217
  50   2.0000      -0.491343       -13.3701
  51   2.0000      -0.478718       -13.0266
  52   2.0000      -0.476473       -12.9655
  53   2.0000      -0.465706       -12.6725
  54   2.0000      -0.459622       -12.5070
  55   2.0000      -0.450349       -12.2546
  56   2.0000      -0.445281       -12.1167
  57   2.0000      -0.441431       -12.0120
  58   2.0000      -0.432295       -11.7633
  59   2.0000      -0.429646       -11.6913
  60   2.0000      -0.419903       -11.4262
  61   2.0000      -0.413047       -11.2396
  62   2.0000      -0.411427       -11.1955
  63   2.0000      -0.356926        -9.7125
  64   2.0000      -0.337458        -9.1827
  65   2.0000      -0.329328        -8.9615
  66   2.0000      -0.279831        -7.6146
  67   0.0000       0.016593         0.4515
  68   0.0000       0.075360         2.0507
  69   0.0000       0.099591         2.7100
  70   0.0000       0.115418         3.1407
  71   0.0000       0.136424         3.7123

MULLIKEN ATOMIC CHARGES
-----------------------
   0 S :    0.095807
   1 C :   -0.122097
   2 C :   -0.098606
   3 C :   -0.031207
   4 C :   -0.098637
   5 H :    0.026368
   6 C :    0.110238
   7 H :    0.015339
   8 H :    0.013278
   9 C :   -0.037810
  10 H :    0.020626
  11 H :    0.024939
  12 C :   -0.097600
  13 H :    0.043373
  14 H :    0.034308
  15 H :    0.042998
  16 S :    0.093092
  17 C :   -0.079234
  18 C :   -0.039531
  19 C :   -0.047537
  20 C :   -0.138191
  21 H :    0.029700
  22 C :    0.042713
  23 H :    0.010618
  24 H :    0.020563
  25 C :   -0.002940
  26 H :   -0.000089
  27 H :    0.015761
  28 C :   -0.043579
  29 H :    0.039801
  30 H :    0.036421
  31 H :    0.022572
  32 H :    0.043477
  33 H :    0.055067
Sum of atomic charges:   -0.0000000

LOEWDIN ATOMIC CHARGES
----------------------
   0 S :    0.422994
   1 C :   -0.199139
   2 C :   -0.057826
   3 C :   -0.078201
   4 C :   -0.205571
   5 H :    0.034495
   6 C :   -0.022984
   7 H :    0.025618
   8 H :    0.028686
   9 C :   -0.035466
  10 H :    0.022251
  11 H :    0.024129
  12 C :   -0.077820
  13 H :    0.029584
  14 H :    0.028410
  15 H :    0.028042
  16 S :    0.374533
  17 C :   -0.175498
  18 C :   -0.067075
  19 C :   -0.060047
  20 C :   -0.176265
  21 H :    0.037040
  22 C :   -0.018928
  23 H :    0.018964
  24 H :    0.028362
  25 C :   -0.037643
  26 H :    0.017604
  27 H :    0.023980
  28 C :   -0.064960
  29 H :    0.024784
  30 H :    0.034758
  31 H :    0.023271
  32 H :    0.021590
  33 H :    0.028330

  Mayer bond orders larger than 0.100000
B(  0-S ,  1-C ) :   1.1504 B(  0-S ,  4-C ) :   1.1600 B(  1-C ,  2-C ) :   1.5794
B(  1-C , 32-H ) :   0.9727 B(  2-C ,  3-C ) :   1.2647 B(  2-C ,  6-C ) :   1.0304
B(  3-C ,  4-C ) :   1.5510 B(  3-C ,  5-H ) :   0.9760 B(  4-C , 20-C ) :   1.0714
B(  6-C ,  7-H ) :   0.9302 B(  6-C ,  8-H ) :   0.9414 B(  6-C ,  9-C ) :   1.0704
B(  9-C , 10-H ) :   0.9538 B(  9-C , 11-H ) :   0.9547 B(  9-C , 12-C ) :   1.0814
B( 12-C , 13-H ) :   0.9681 B( 12-C , 14-H ) :   0.9691 B( 12-C , 15-H ) :   0.9717
B( 16-S , 17-C ) :   1.1167 B( 16-S , 20-C ) :   1.1420 B( 17-C , 18-C ) :   1.6451
B( 17-C , 33-H ) :   0.9656 B( 18-C , 19-C ) :   1.2285 B( 18-C , 21-H ) :   0.9804
B( 19-C , 20-C ) :   1.5678 B( 19-C , 22-C ) :   1.0628 B( 22-C , 23-H ) :   0.9368
B( 22-C , 24-H ) :   0.9351 B( 22-C , 25-C ) :   1.0596 B( 25-C , 26-H ) :   0.9490
B( 25-C , 27-H ) :   0.9435 B( 25-C , 28-C ) :   1.0857 B( 28-C , 29-H ) :   0.9712
B( 28-C , 30-H ) :   0.9725 B( 28-C , 31-H ) :   0.9732

Dispersion correction           -0.014481276
FINAL SINGLE POINT ENERGY     -1339.869975500753

DIPOLE MOMENT
-------------
                                X             Y             Z
Electronic contribution:    -12.61047       0.35294      25.44966
Nuclear contribution   :     12.90446      -0.29330     -25.94926
                        -----------------------------------------
Total Dipole Moment    :      0.29399       0.05964      -0.49960
                        -----------------------------------------
Magnitude (a.u.)       :      0.58274
Magnitude (Debye)      :      1.48120

Rotational constants in cm-1:     0.016990     0.009646     0.007248
Rotational constants in MHz :   509.348631   289.169751   217.275440

                             ****ORCA TERMINATED NORMALLY****
TOTAL RUN TIME: 0 days 0 hours 0 minutes 22 seconds 55 msec
