                         Program Version 4.2.1 -  RELEASE  -
|  1> ! wB97X-D3 SP def2-SVP
|  2> %pal
|  3> nprocs 24
|  4> end
|  5>
|  6> * xyz 0 1
|  7> S 	 -93.9822 	 -32.0641 	 -64.6639
|  8> C 	 -95.2236 	 -33.277 	 -65.0876
|  9> C 	 -96.4051 	 -32.6306 	 -65.463
| 10> C 	 -96.2598 	 -31.1664 	 -65.3122
| 11> C 	 -95.0171 	 -30.6914 	 -64.9299
| 12> H 	 -97.1443 	 -30.5732 	 -65.5676
| 13> C 	 -97.5945 	 -33.2928 	 -66.0417
| 14> H 	 -98.3923 	 -32.5737 	 -65.9988
| 15> H 	 -98.0013 	 -33.9585 	 -65.2884
| 16> C 	 -97.3395 	 -33.8908 	 -67.4061
| 17> H 	 -96.3584 	 -34.285 	 -67.6109
| 18> H 	 -98.1349 	 -34.6526 	 -67.622
| 19> C 	 -97.4177 	 -32.8572 	 -68.5497
| 20> H 	 -97.3356 	 -33.4179 	 -69.4527
| 21> H 	 -98.3932 	 -32.4204 	 -68.4441
| 22> H 	 -96.6531 	 -32.077 	 -68.6392
| 23> S 	 -94.6971 	 -28.9144 	 -62.7977
| 24> C 	 -94.3145 	 -27.2724 	 -63.045
| 25> C 	 -94.1367 	 -27.099 	 -64.3969
| 26> C 	 -94.2138 	 -28.2441 	 -65.2466
| 27> C 	 -94.5321 	 -29.3823 	 -64.5528
| 28> H 	 -93.9996 	 -26.0551 	 -64.7324
| 29> C 	 -93.8599 	 -28.2527 	 -66.6904
| 30> H 	 -93.5873 	 -29.3254 	 -66.9209
| 31> H 	 -92.8685 	 -27.7559 	 -66.8875
| 32> C 	 -94.9689 	 -27.7293 	 -67.6168
| 33> H 	 -95.3583 	 -26.8081 	 -67.2308
| 34> H 	 -95.7427 	 -28.4562 	 -67.7313
| 35> C 	 -94.3635 	 -27.3798 	 -69.039
| 36> H 	 -93.9433 	 -28.2858 	 -69.4476
| 37> H 	 -93.5377 	 -26.6457 	 -68.9509
| 38> H 	 -95.1206 	 -26.9308 	 -69.7346
| 39> H 	 -95.065 	 -34.3434 	 -65.0834
| 40> H 	 -94.3529 	 -26.4484 	 -62.2905
| 41> *
| 42>
| 43>                          ****END OF INPUT****

CARTESIAN COORDINATES (ANGSTROEM)
---------------------------------
  S    -93.982200  -32.064100  -64.663900
  C    -95.223600  -33.277000  -65.087600
  C    -96.405100  -32.630600  -65.463000
  C    -96.259800  -31.166400  -65.312200
  C    -95.017100  -30.691400  -64.929900
  H    -97.144300  -30.573200  -65.567600
  C    -97.594500  -33.292800  -66.041700
  H    -98.392300  -32.573700  -65.998800
  H    -98.001300  -33.958500  -65.288400
  C    -97.339500  -33.890800  -67.406100
  H    -96.358400  -34.285000  -67.610900
  H    -98.134900  -34.652600  -67.622000
  C    -97.417700  -32.857200  -68.549700
  H    -97.335600  -33.417900  -69.452700
  H    -98.393200  -32.420400  -68.444100
  H    -96.653100  -32.077000  -68.639200
  S    -94.697100  -28.914400  -62.797700
  C    -94.314500  -27.272400  -63.045000
  C    -94.136700  -27.099000  -64.396900
  C    -94.213800  -28.244100  -65.246600
  C    -94.532100  -29.382300  -64.552800
  H    -93.999600  -26.055100  -64.732400
  C    -93.859900  -28.252700  -66.690400
  H    -93.587300  -29.325400  -66.920900
  H    -92.868500  -27.755900  -66.887500
  C    -94.968900  -27.729300  -67.616800
  H    -95.358300  -26.808100  -67.230800
  H    -95.742700  -28.456200  -67.731300
  C    -94.363500  -27.379800  -69.039000
  H    -93.943300  -28.285800  -69.447600
  H    -93.537700  -26.645700  -68.950900
  H    -95.120600  -26.930800  -69.734600
  H    -95.065000  -34.343400  -65.083400
  H    -94.352900  -26.448400  -62.290500

 Total Charge           Charge          ....    0
 Multiplicity           Mult            ....    1
 Number of Electrons    NEL             ....  134
 Basis Dimension        Dim             ....  322

ORBITAL ENERGIES
----------------

  NO   OCC          E(Eh)            E(eV)
   0   2.0000     -88.962328     -2420.7880
   1   2.0000     -88.957794     -2420.6646
   2   2.0000     -10.332237      -281.1545
   3   2.0000     -10.328666      -281.0573
   4   2.0000     -10.320130      -280.8250
   5   2.0000     -10.318687      -280.7858
   6   2.0000     -10.304271      -280.3935
   7   2.0000     -10.303567      -280.3743
   8   2.0000     -10.301810      -280.3265
   9   2.0000     -10.295251      -280.1480
  10   2.0000     -10.291662      -280.0503
  11   2.0000     -10.291037      -280.0334
  12   2.0000     -10.289909      -280.0027
  13   2.0000     -10.285946      -279.8948
  14   2.0000     -10.282950      -279.8133
  15   2.0000     -10.273326      -279.5514
  16   2.0000      -8.076803      -219.7810
  17   2.0000      -8.072794      -219.6719
  18   2.0000      -6.035488      -164.2340
  19   2.0000      -6.031340      -164.1211
  20   2.0000      -6.031101      -164.1146
  21   2.0000      -6.027609      -164.0196
  22   2.0000      -6.027122      -164.0063
  23   2.0000      -6.023584      -163.9101
  24   2.0000      -1.004102       -27.3230
  25   2.0000      -0.981451       -26.7066
  26   2.0000      -0.920329       -25.0434
  27   2.0000      -0.907987       -24.7076
  28   2.0000      -0.869870       -23.6704
  29   2.0000      -0.847842       -23.0710
  30   2.0000      -0.840259       -22.8646
  31   2.0000      -0.811412       -22.0796
  32   2.0000      -0.783410       -21.3177
  33   2.0000      -0.770423       -20.9643
  34   2.0000      -0.707758       -19.2591
  35   2.0000      -0.704066       -19.1586
  36   2.0000      -0.697332       -18.9754
  37   2.0000      -0.654432       -17.8080
  38   2.0000      -0.641070       -17.4444
  39   2.0000      -0.616122       -16.7655
  40   2.0000      -0.596478       -16.2310
  41   2.0000      -0.578528       -15.7425
  42   2.0000      -0.560873       -15.2621
  43   2.0000      -0.557577       -15.1725
  44   2.0000      -0.543759       -14.7964
  45   2.0000      -0.526840       -14.3360
  46   2.0000      -0.519445       -14.1348
  47   2.0000      -0.516224       -14.0472
  48   2.0000      -0.506510       -13.7828
  49   2.0000      -0.498820       -13.5736
  50   2.0000      -0.493926       -13.4404
  51   2.0000      -0.471193       -12.8218
  52   2.0000      -0.469975       -12.7887
  53   2.0000      -0.462963       -12.5979
  54   2.0000      -0.457252       -12.4424
  55   2.0000      -0.449312       -12.2264
  56   2.0000      -0.440540       -11.9877
  57   2.0000      -0.433738       -11.8026
  58   2.0000      -0.432148       -11.7593
  59   2.0000      -0.421584       -11.4719
  60   2.0000      -0.418712       -11.3937
  61   2.0000      -0.410075       -11.1587
  62   2.0000      -0.407376       -11.0853
  63   2.0000      -0.331280        -9.0146
  64   2.0000      -0.328607        -8.9419
  65   2.0000      -0.320190        -8.7128
  66   2.0000      -0.311665        -8.4808
  67   0.0000       0.039937         1.0868
  68   0.0000       0.050744         1.3808
  69   0.0000       0.114962         3.1283
  70   0.0000       0.122264         3.3270
  71   0.0000       0.125870         3.4251

MULLIKEN ATOMIC CHARGES
-----------------------
   0 S :    0.097910
   1 C :   -0.114415
   2 C :   -0.154665
   3 C :    0.059705
   4 C :   -0.168098
   5 H :    0.013000
   6 C :    0.109846
   7 H :   -0.000301
   8 H :    0.030527
   9 C :   -0.068095
  10 H :    0.036002
  11 H :    0.038753
  12 C :   -0.053557
  13 H :    0.025252
  14 H :    0.019101
  15 H :    0.043533
  16 S :    0.093411
  17 C :   -0.093919
  18 C :   -0.062940
  19 C :    0.020767
  20 C :   -0.157281
  21 H :    0.021192
  22 C :    0.006779
  23 H :    0.033767
  24 H :    0.039323
  25 C :   -0.035765
  26 H :    0.025720
  27 H :    0.031991
  28 C :   -0.076555
  29 H :    0.030113
  30 H :    0.032565
  31 H :    0.045362
  32 H :    0.050514
  33 H :    0.080459
Sum of atomic charges:    0.0000000

LOEWDIN ATOMIC CHARGES
----------------------
   0 S :    0.400394
   1 C :   -0.181046
   2 C :   -0.061486
   3 C :   -0.057278
   4 C :   -0.209740
   5 H :    0.030465
   6 C :   -0.042303
   7 H :    0.027938
   8 H :    0.036881
   9 C :   -0.036113
  10 H :    0.025756
  11 H :    0.031691
  12 C :   -0.060033
  13 H :    0.022797
  14 H :    0.018014
  15 H :    0.026273
  16 S :    0.393588
  17 C :   -0.199693
  18 C :   -0.087569
  19 C :   -0.053003
  20 C :   -0.186854
  21 H :    0.031013
  22 C :   -0.039394
  23 H :    0.037626
  24 H :    0.037586
  25 C :   -0.028591
  26 H :    0.019716
  27 H :    0.022390
  28 C :   -0.068536
  29 H :    0.020803
  30 H :    0.024271
  31 H :    0.029737
  32 H :    0.027637
  33 H :    0.047061

  Mayer bond orders larger than 0.100000
B(  0-S ,  1-C ) :   1.1438 B(  0-S ,  4-C ) :   1.1489 B(  1-C ,  2-C ) :   1.5975
B(  1-C , 32-H ) :   0.9733 B(  2-C ,  3-C ) :   1.2510 B(  2-C ,  6-C ) :   1.0296
B(  3-C ,  4-C ) :   1.5743 B(  3-C ,  5-H ) :   0.9924 B(  4-C , 20-C ) :   1.0027
B(  6-C ,  7-H ) :   0.9330 B(  6-C ,  8-H ) :   0.9278 B(  6-C ,  9-C ) :   1.0555
B(  9-C , 10-H ) :   0.9657 B(  9-C , 11-H ) :   0.9543 B(  9-C , 12-C ) :   1.0709
B( 12-C , 13-H ) :   0.9746 B( 12-C , 14-H ) :   0.9772 B( 12-C , 15-H ) :   0.9780
B( 16-S , 17-C ) :   1.1676 B( 16-S , 20-C ) :   1.1265 B( 17-C , 18-C ) :   1.6046
B( 17-C , 33-H ) :   0.9608 B( 18-C , 19-C ) :   1.2314 B( 18-C , 21-H ) :   0.9870
B( 19-C , 20-C ) :   1.6102 B( 19-C , 22-C ) :   1.0444 B( 22-C , 23-H ) :   0.9294
B( 22-C , 24-H ) :   0.9486 B( 22-C , 25-C ) :   1.0476 B( 25-C , 26-H ) :   0.9652
B( 25-C , 27-H ) :   0.9525 B( 25-C , 28-C ) :   1.0745 B( 28-C , 29-H ) :   0.9758
B( 28-C , 30-H ) :   0.9785 B( 28-C , 31-H ) :   0.9762

Dispersion correction           -0.014215735
FINAL SINGLE POINT ENERGY     -1339.871909272171

DIPOLE MOMENT
-------------
                                X             Y             Z
Electronic contribution:     10.05477      -0.24937      26.96896
Nuclear contribution   :    -10.50230       0.32844     -27.50182
                        -----------------------------------------
Total Dipole Moment    :     -0.44753       0.07907      -0.53286
                        -----------------------------------------
Magnitude (a.u.)       :      0.70034
Magnitude (Debye)      :      1.78011

Rotational constants in cm-1:     0.017381     0.009165     0.006810
Rotational constants in MHz :   521.077931   274.746255   204.144026

                             ****ORCA TERMINATED NORMALLY****
TOTAL RUN TIME: 0 days 0 hours 0 minutes 21 seconds 526 msec
