                         Program Version 4.2.1 -  RELEASE  -
|  1> ! wB97X-D3 SP def2-SVP
|  2> %pal
|  3> nprocs 24
|  4> end
|  5>
|  6> * xyz 0 1
|  7> S 	 35.7937 	 -5.4175 	 -124.772
|  8> C 	 34.4453 	 -6.08718 	 -125.71
|  9> C 	 33.2885 	 -6.10215 	 -125.02
| 10> C 	 33.5742 	 -5.75829 	 -123.662
| 11> C 	 34.8271 	 -5.3607 	 -123.383
| 12> H 	 32.8774 	 -5.76575 	 -122.867
| 13> C 	 31.9171 	 -6.48859 	 -125.563
| 14> H 	 32.0137 	 -6.87533 	 -126.592
| 15> H 	 31.4366 	 -5.55956 	 -125.737
| 16> C 	 31.1243 	 -7.49415 	 -124.686
| 17> H 	 31.6969 	 -8.44422 	 -124.628
| 18> H 	 30.8839 	 -7.16891 	 -123.604
| 19> C 	 29.728 	 -7.84022 	 -125.285
| 20> H 	 29.1296 	 -6.91986 	 -125.467
| 21> H 	 29.7434 	 -8.48409 	 -126.129
| 22> H 	 29.1608 	 -8.31396 	 -124.482
| 23> S 	 34.8816 	 -5.81146 	 -120.587
| 24> C 	 35.9275 	 -4.90898 	 -119.544
| 25> C 	 36.6811 	 -4.06495 	 -120.336
| 26> C 	 36.2475 	 -3.99297 	 -121.712
| 27> C 	 35.355 	 -4.96712 	 -122.071
| 28> H 	 37.3831 	 -3.53367 	 -119.768
| 29> C 	 36.944 	 -3.04597 	 -122.716
| 30> H 	 37.3883 	 -3.76778 	 -123.454
| 31> H 	 37.7413 	 -2.57382 	 -122.184
| 32> C 	 36.0209 	 -1.96508 	 -123.371
| 33> H 	 35.698 	 -1.1724 	 -122.755
| 34> H 	 35.127 	 -2.53019 	 -123.705
| 35> C 	 36.7827 	 -1.24596 	 -124.496
| 36> H 	 37.6928 	 -0.862809 	 -124.074
| 37> H 	 36.3332 	 -0.379874 	 -124.967
| 38> H 	 37.0221 	 -1.97326 	 -125.307
| 39> H 	 34.4371 	 -6.10705 	 -126.845
| 40> H 	 35.9713 	 -4.86834 	 -118.436
| 41> *
| 42>
| 43>                          ****END OF INPUT****

CARTESIAN COORDINATES (ANGSTROEM)
---------------------------------
  S     35.793700   -5.417500  -124.772000
  C     34.445300   -6.087180  -125.710000
  C     33.288500   -6.102150  -125.020000
  C     33.574200   -5.758290  -123.662000
  C     34.827100   -5.360700  -123.383000
  H     32.877400   -5.765750  -122.867000
  C     31.917100   -6.488590  -125.563000
  H     32.013700   -6.875330  -126.592000
  H     31.436600   -5.559560  -125.737000
  C     31.124300   -7.494150  -124.686000
  H     31.696900   -8.444220  -124.628000
  H     30.883900   -7.168910  -123.604000
  C     29.728000   -7.840220  -125.285000
  H     29.129600   -6.919860  -125.467000
  H     29.743400   -8.484090  -126.129000
  H     29.160800   -8.313960  -124.482000
  S     34.881600   -5.811460  -120.587000
  C     35.927500   -4.908980  -119.544000
  C     36.681100   -4.064950  -120.336000
  C     36.247500   -3.992970  -121.712000
  C     35.355000   -4.967120  -122.071000
  H     37.383100   -3.533670  -119.768000
  C     36.944000   -3.045970  -122.716000
  H     37.388300   -3.767780  -123.454000
  H     37.741300   -2.573820  -122.184000
  C     36.020900   -1.965080  -123.371000
  H     35.698000   -1.172400  -122.755000
  H     35.127000   -2.530190  -123.705000
  C     36.782700   -1.245960  -124.496000
  H     37.692800   -0.862809  -124.074000
  H     36.333200   -0.379874  -124.967000
  H     37.022100   -1.973260  -125.307000
  H     34.437100   -6.107050  -126.845000
  H     35.971300   -4.868340  -118.436000

 Total Charge           Charge          ....    0
 Multiplicity           Mult            ....    1
 Number of Electrons    NEL             ....  134
 Basis Dimension        Dim             ....  322

ORBITAL ENERGIES
----------------

  NO   OCC          E(Eh)            E(eV)
   0   2.0000     -88.965574     -2420.8763
   1   2.0000     -88.961941     -2420.7775
   2   2.0000     -10.327060      -281.0136
   3   2.0000     -10.325068      -280.9594
   4   2.0000     -10.318531      -280.7815
   5   2.0000     -10.314630      -280.6753
   6   2.0000     -10.303443      -280.3709
   7   2.0000     -10.301832      -280.3271
   8   2.0000     -10.300545      -280.2921
   9   2.0000     -10.298363      -280.2327
  10   2.0000     -10.293515      -280.1008
  11   2.0000     -10.289506      -279.9917
  12   2.0000     -10.285766      -279.8899
  13   2.0000     -10.282715      -279.8069
  14   2.0000     -10.280345      -279.7424
  15   2.0000     -10.272351      -279.5249
  16   2.0000      -8.080836      -219.8907
  17   2.0000      -8.076511      -219.7730
  18   2.0000      -6.039445      -164.3417
  19   2.0000      -6.035345      -164.2301
  20   2.0000      -6.035180      -164.2256
  21   2.0000      -6.031386      -164.1223
  22   2.0000      -6.030832      -164.1073
  23   2.0000      -6.027305      -164.0113
  24   2.0000      -1.014941       -27.6179
  25   2.0000      -0.989152       -26.9162
  26   2.0000      -0.912077       -24.8189
  27   2.0000      -0.901006       -24.5176
  28   2.0000      -0.872209       -23.7340
  29   2.0000      -0.849940       -23.1280
  30   2.0000      -0.844327       -22.9753
  31   2.0000      -0.818445       -22.2710
  32   2.0000      -0.786384       -21.3986
  33   2.0000      -0.769709       -20.9449
  34   2.0000      -0.710518       -19.3342
  35   2.0000      -0.697907       -18.9910
  36   2.0000      -0.687160       -18.6986
  37   2.0000      -0.665653       -18.1133
  38   2.0000      -0.635248       -17.2860
  39   2.0000      -0.624498       -16.9935
  40   2.0000      -0.584242       -15.8980
  41   2.0000      -0.572550       -15.5799
  42   2.0000      -0.567090       -15.4313
  43   2.0000      -0.565504       -15.3881
  44   2.0000      -0.527039       -14.3415
  45   2.0000      -0.518760       -14.1162
  46   2.0000      -0.516932       -14.0664
  47   2.0000      -0.512205       -13.9378
  48   2.0000      -0.506106       -13.7718
  49   2.0000      -0.503403       -13.6983
  50   2.0000      -0.491491       -13.3741
  51   2.0000      -0.480327       -13.0704
  52   2.0000      -0.478363       -13.0169
  53   2.0000      -0.466636       -12.6978
  54   2.0000      -0.458612       -12.4795
  55   2.0000      -0.448001       -12.1907
  56   2.0000      -0.439728       -11.9656
  57   2.0000      -0.434964       -11.8360
  58   2.0000      -0.430320       -11.7096
  59   2.0000      -0.426057       -11.5936
  60   2.0000      -0.420492       -11.4422
  61   2.0000      -0.410001       -11.1567
  62   2.0000      -0.408083       -11.1045
  63   2.0000      -0.352462        -9.5910
  64   2.0000      -0.333293        -9.0694
  65   2.0000      -0.326201        -8.8764
  66   2.0000      -0.296483        -8.0677
  67   0.0000       0.028616         0.7787
  68   0.0000       0.083903         2.2831
  69   0.0000       0.111217         3.0264
  70   0.0000       0.125107         3.4043
  71   0.0000       0.131211         3.5704

MULLIKEN ATOMIC CHARGES
-----------------------
   0 S :    0.091175
   1 C :   -0.142460
   2 C :   -0.076500
   3 C :    0.005846
   4 C :   -0.126864
   5 H :   -0.016171
   6 C :    0.117553
   7 H :    0.017150
   8 H :    0.028724
   9 C :   -0.136579
  10 H :    0.048395
  11 H :    0.053994
  12 C :   -0.045907
  13 H :    0.031934
  14 H :    0.036579
  15 H :    0.029159
  16 S :    0.096453
  17 C :   -0.112966
  18 C :   -0.027599
  19 C :   -0.055519
  20 C :   -0.106101
  21 H :   -0.001875
  22 C :    0.035086
  23 H :    0.051390
  24 H :    0.009994
  25 C :   -0.046926
  26 H :    0.023852
  27 H :    0.043674
  28 C :   -0.048507
  29 H :    0.018159
  30 H :    0.031083
  31 H :    0.032795
  32 H :    0.065629
  33 H :    0.075351
Sum of atomic charges:   -0.0000000

LOEWDIN ATOMIC CHARGES
----------------------
   0 S :    0.420634
   1 C :   -0.198972
   2 C :   -0.060237
   3 C :   -0.062411
   4 C :   -0.202420
   5 H :    0.019057
   6 C :   -0.029124
   7 H :    0.034868
   8 H :    0.030263
   9 C :   -0.045398
  10 H :    0.031836
  11 H :    0.034810
  12 C :   -0.067778
  13 H :    0.028379
  14 H :    0.018461
  15 H :    0.028396
  16 S :    0.400992
  17 C :   -0.196067
  18 C :   -0.073828
  19 C :   -0.061239
  20 C :   -0.190928
  21 H :    0.022060
  22 C :   -0.031527
  23 H :    0.029270
  24 H :    0.022620
  25 C :   -0.035898
  26 H :    0.020334
  27 H :    0.026026
  28 C :   -0.066810
  29 H :    0.020548
  30 H :    0.022972
  31 H :    0.027209
  32 H :    0.039106
  33 H :    0.044797

  Mayer bond orders larger than 0.100000
B(  0-S ,  1-C ) :   1.1179 B(  0-S ,  4-C ) :   1.1481 B(  1-C ,  2-C ) :   1.6672
B(  1-C , 32-H ) :   0.9491 B(  2-C ,  3-C ) :   1.2093 B(  2-C ,  6-C ) :   1.0134
B(  3-C ,  4-C ) :   1.6024 B(  3-C ,  5-H ) :   1.0072 B(  4-C , 20-C ) :   1.0334
B(  6-C ,  7-H ) :   0.9396 B(  6-C ,  8-H ) :   0.9281 B(  6-C ,  9-C ) :   1.0530
B(  9-C , 10-H ) :   0.9586 B(  9-C , 11-H ) :   0.9568 B(  9-C , 12-C ) :   1.0813
B( 12-C , 13-H ) :   0.9743 B( 12-C , 14-H ) :   0.9777 B( 12-C , 15-H ) :   0.9757
B( 16-S , 17-C ) :   1.1589 B( 16-S , 20-C ) :   1.1256 B( 17-C , 18-C ) :   1.6167
B( 17-C , 33-H ) :   0.9611 B( 18-C , 19-C ) :   1.2326 B( 18-C , 21-H ) :   0.9985
B( 19-C , 20-C ) :   1.5853 B( 19-C , 22-C ) :   1.0287 B( 22-C , 23-H ) :   0.9450
B( 22-C , 24-H ) :   0.9321 B( 22-C , 25-C ) :   1.0452 B( 25-C , 26-H ) :   0.9556
B( 25-C , 27-H ) :   0.9617 B( 25-C , 28-C ) :   1.0763 B( 28-C , 29-H ) :   0.9714
B( 28-C , 30-H ) :   0.9766 B( 28-C , 31-H ) :   0.9767

Dispersion correction           -0.014106103
FINAL SINGLE POINT ENERGY     -1339.872545414017

DIPOLE MOMENT
-------------
                                X             Y             Z
Electronic contribution:     11.27819      -5.95332      11.61515
Nuclear contribution   :    -11.61091       6.22673     -11.71392
                        -----------------------------------------
Total Dipole Moment    :     -0.33272       0.27341      -0.09877
                        -----------------------------------------
Magnitude (a.u.)       :      0.44183
Magnitude (Debye)      :      1.12304

Rotational constants in cm-1:     0.019267     0.008372     0.006468
Rotational constants in MHz :   577.603327   250.993148   193.908790

                             ****ORCA TERMINATED NORMALLY****
TOTAL RUN TIME: 0 days 0 hours 0 minutes 20 seconds 191 msec
