                         Program Version 4.2.1 -  RELEASE  -
|  1> ! wB97X-D3 SP def2-SVP
|  2> %pal
|  3> nprocs 24
|  4> end
|  5>
|  6> * xyz 0 1
|  7> S 	 -107.8 	 40.4747 	 -9.50096
|  8> C 	 -107.439 	 39.9957 	 -7.91552
|  9> C 	 -108.456 	 40.2316 	 -7.02766
| 10> C 	 -109.629 	 40.7055 	 -7.72807
| 11> C 	 -109.426 	 40.9007 	 -9.07083
| 12> H 	 -110.51 	 40.9593 	 -7.24089
| 13> C 	 -108.359 	 40.0704 	 -5.53846
| 14> H 	 -107.889 	 39.1154 	 -5.33467
| 15> H 	 -109.373 	 39.8254 	 -5.19958
| 16> C 	 -107.859 	 41.1781 	 -4.66327
| 17> H 	 -107.526 	 40.7797 	 -3.71801
| 18> H 	 -106.887 	 41.4996 	 -5.04845
| 19> C 	 -108.971 	 42.2665 	 -4.54997
| 20> H 	 -109.065 	 42.8662 	 -5.46025
| 21> H 	 -109.97 	 41.856 	 -4.38595
| 22> H 	 -108.708 	 43.02 	 -3.7646
| 23> S 	 -110.458 	 40.6366 	 -11.5196
| 24> C 	 -111.607 	 41.8087 	 -12.1785
| 25> C 	 -111.844 	 42.8075 	 -11.2552
| 26> C 	 -111.11 	 42.7352 	 -10.0735
| 27> C 	 -110.301 	 41.579 	 -10.023
| 28> H 	 -112.476 	 43.6669 	 -11.5688
| 29> C 	 -111.313 	 43.723 	 -8.9094
| 30> H 	 -110.599 	 44.5889 	 -9.06117
| 31> H 	 -111.103 	 43.2794 	 -7.93534
| 32> C 	 -112.656 	 44.3747 	 -8.86412
| 33> H 	 -113.494 	 43.7377 	 -8.9395
| 34> H 	 -112.718 	 44.9778 	 -9.74074
| 35> C 	 -112.834 	 45.3335 	 -7.63799
| 36> H 	 -111.994 	 45.9808 	 -7.5284
| 37> H 	 -112.966 	 44.7889 	 -6.66743
| 38> H 	 -113.67 	 45.9981 	 -7.78072
| 39> H 	 -106.451 	 39.6711 	 -7.60032
| 40> H 	 -112.057 	 41.8026 	 -13.1437
| 41> *
| 42>
| 43>                          ****END OF INPUT****

CARTESIAN COORDINATES (ANGSTROEM)
---------------------------------
  S    -107.800000   40.474700   -9.500960
  C    -107.439000   39.995700   -7.915520
  C    -108.456000   40.231600   -7.027660
  C    -109.629000   40.705500   -7.728070
  C    -109.426000   40.900700   -9.070830
  H    -110.510000   40.959300   -7.240890
  C    -108.359000   40.070400   -5.538460
  H    -107.889000   39.115400   -5.334670
  H    -109.373000   39.825400   -5.199580
  C    -107.859000   41.178100   -4.663270
  H    -107.526000   40.779700   -3.718010
  H    -106.887000   41.499600   -5.048450
  C    -108.971000   42.266500   -4.549970
  H    -109.065000   42.866200   -5.460250
  H    -109.970000   41.856000   -4.385950
  H    -108.708000   43.020000   -3.764600
  S    -110.458000   40.636600  -11.519600
  C    -111.607000   41.808700  -12.178500
  C    -111.844000   42.807500  -11.255200
  C    -111.110000   42.735200  -10.073500
  C    -110.301000   41.579000  -10.023000
  H    -112.476000   43.666900  -11.568800
  C    -111.313000   43.723000   -8.909400
  H    -110.599000   44.588900   -9.061170
  H    -111.103000   43.279400   -7.935340
  C    -112.656000   44.374700   -8.864120
  H    -113.494000   43.737700   -8.939500
  H    -112.718000   44.977800   -9.740740
  C    -112.834000   45.333500   -7.637990
  H    -111.994000   45.980800   -7.528400
  H    -112.966000   44.788900   -6.667430
  H    -113.670000   45.998100   -7.780720
  H    -106.451000   39.671100   -7.600320
  H    -112.057000   41.802600  -13.143700

 Total Charge           Charge          ....    0
 Multiplicity           Mult            ....    1
 Number of Electrons    NEL             ....  134
 Basis Dimension        Dim             ....  322

ORBITAL ENERGIES
----------------

  NO   OCC          E(Eh)            E(eV)
   0   2.0000     -88.964735     -2420.8535
   1   2.0000     -88.964460     -2420.8460
   2   2.0000     -10.330475      -281.1065
   3   2.0000     -10.326057      -280.9863
   4   2.0000     -10.315922      -280.7105
   5   2.0000     -10.307802      -280.4895
   6   2.0000     -10.307284      -280.4754
   7   2.0000     -10.297117      -280.1988
   8   2.0000     -10.296066      -280.1702
   9   2.0000     -10.293139      -280.0906
  10   2.0000     -10.288495      -279.9642
  11   2.0000     -10.288412      -279.9619
  12   2.0000     -10.285991      -279.8960
  13   2.0000     -10.285084      -279.8714
  14   2.0000     -10.280475      -279.7459
  15   2.0000     -10.280456      -279.7454
  16   2.0000      -8.080844      -219.8909
  17   2.0000      -8.078533      -219.8281
  18   2.0000      -6.039196      -164.3349
  19   2.0000      -6.037010      -164.2754
  20   2.0000      -6.035132      -164.2243
  21   2.0000      -6.033009      -164.1665
  22   2.0000      -6.031704      -164.1310
  23   2.0000      -6.029482      -164.0705
  24   2.0000      -1.010157       -27.4878
  25   2.0000      -0.985213       -26.8090
  26   2.0000      -0.917011       -24.9531
  27   2.0000      -0.912206       -24.8224
  28   2.0000      -0.870321       -23.6826
  29   2.0000      -0.850842       -23.1526
  30   2.0000      -0.844361       -22.9762
  31   2.0000      -0.814297       -22.1581
  32   2.0000      -0.782543       -21.2941
  33   2.0000      -0.773082       -21.0366
  34   2.0000      -0.713005       -19.4018
  35   2.0000      -0.706931       -19.2366
  36   2.0000      -0.699560       -19.0360
  37   2.0000      -0.657885       -17.9020
  38   2.0000      -0.642508       -17.4835
  39   2.0000      -0.619263       -16.8510
  40   2.0000      -0.599851       -16.3228
  41   2.0000      -0.572891       -15.5891
  42   2.0000      -0.571309       -15.5461
  43   2.0000      -0.555446       -15.1145
  44   2.0000      -0.536883       -14.6093
  45   2.0000      -0.524556       -14.2739
  46   2.0000      -0.512153       -13.9364
  47   2.0000      -0.508058       -13.8250
  48   2.0000      -0.503676       -13.7057
  49   2.0000      -0.498049       -13.5526
  50   2.0000      -0.485976       -13.2241
  51   2.0000      -0.481687       -13.1074
  52   2.0000      -0.476778       -12.9738
  53   2.0000      -0.471550       -12.8315
  54   2.0000      -0.457475       -12.4485
  55   2.0000      -0.450537       -12.2597
  56   2.0000      -0.443527       -12.0690
  57   2.0000      -0.440944       -11.9987
  58   2.0000      -0.438571       -11.9341
  59   2.0000      -0.424616       -11.5544
  60   2.0000      -0.420315       -11.4374
  61   2.0000      -0.417748       -11.3675
  62   2.0000      -0.414170       -11.2701
  63   2.0000      -0.347197        -9.4477
  64   2.0000      -0.332384        -9.0446
  65   2.0000      -0.329738        -8.9726
  66   2.0000      -0.290963        -7.9175
  67   0.0000       0.030265         0.8236
  68   0.0000       0.070803         1.9266
  69   0.0000       0.113176         3.0797
  70   0.0000       0.121673         3.3109
  71   0.0000       0.129274         3.5177

MULLIKEN ATOMIC CHARGES
-----------------------
   0 S :    0.128260
   1 C :   -0.111408
   2 C :   -0.106109
   3 C :    0.052073
   4 C :   -0.126905
   5 H :   -0.021310
   6 C :    0.044385
   7 H :    0.019501
   8 H :    0.005768
   9 C :    0.001664
  10 H :    0.019741
  11 H :    0.016770
  12 C :   -0.072227
  13 H :    0.041164
  14 H :    0.030238
  15 H :    0.040969
  16 S :    0.092633
  17 C :   -0.067155
  18 C :   -0.080183
  19 C :    0.010220
  20 C :   -0.182567
  21 H :    0.032715
  22 C :    0.075120
  23 H :    0.041657
  24 H :    0.023922
  25 C :   -0.090764
  26 H :    0.023846
  27 H :    0.018277
  28 C :   -0.034624
  29 H :    0.016638
  30 H :    0.040078
  31 H :    0.029021
  32 H :    0.042898
  33 H :    0.045693
Sum of atomic charges:   -0.0000000

LOEWDIN ATOMIC CHARGES
----------------------
   0 S :    0.435722
   1 C :   -0.208859
   2 C :   -0.064580
   3 C :   -0.052101
   4 C :   -0.208630
   5 H :    0.017218
   6 C :   -0.041065
   7 H :    0.031157
   8 H :    0.028378
   9 C :   -0.037291
  10 H :    0.024469
  11 H :    0.025236
  12 C :   -0.068672
  13 H :    0.028287
  14 H :    0.023814
  15 H :    0.031221
  16 S :    0.395445
  17 C :   -0.177402
  18 C :   -0.081028
  19 C :   -0.057361
  20 C :   -0.184895
  21 H :    0.038648
  22 C :   -0.029284
  23 H :    0.043016
  24 H :    0.025609
  25 C :   -0.040429
  26 H :    0.017614
  27 H :    0.018509
  28 C :   -0.060164
  29 H :    0.018961
  30 H :    0.029558
  31 H :    0.025286
  32 H :    0.027796
  33 H :    0.025817

  Mayer bond orders larger than 0.100000
B(  0-S ,  1-C ) :   1.1537 B(  0-S ,  4-C ) :   1.1637 B(  1-C ,  2-C ) :   1.6106
B(  1-C , 32-H ) :   0.9668 B(  2-C ,  3-C ) :   1.2489 B(  2-C ,  6-C ) :   1.0228
B(  3-C ,  4-C ) :   1.5615 B(  3-C ,  5-H ) :   1.0117 B(  4-C , 20-C ) :   1.0182
B(  6-C ,  7-H ) :   0.9331 B(  6-C ,  8-H ) :   0.9373 B(  6-C ,  9-C ) :   1.0771
B(  9-C , 10-H ) :   0.9514 B(  9-C , 11-H ) :   0.9509 B(  9-C , 12-C ) :   1.0617
B( 12-C , 13-H ) :   0.9762 B( 12-C , 14-H ) :   0.9773 B( 12-C , 15-H ) :   0.9742
B( 16-S , 17-C ) :   1.1504 B( 16-S , 20-C ) :   1.1567 B( 17-C , 18-C ) :   1.6012
B( 17-C , 20-C ) :   0.1146 B( 17-C , 33-H ) :   0.9680 B( 18-C , 19-C ) :   1.2701
B( 18-C , 21-H ) :   0.9763 B( 19-C , 20-C ) :   1.5720 B( 19-C , 22-C ) :   1.0211
B( 22-C , 23-H ) :   0.9195 B( 22-C , 24-H ) :   0.9526 B( 22-C , 25-C ) :   1.0780
B( 25-C , 26-H ) :   0.9597 B( 25-C , 27-H ) :   0.9389 B( 25-C , 28-C ) :   1.0868
B( 28-C , 29-H ) :   0.9726 B( 28-C , 30-H ) :   0.9761 B( 28-C , 31-H ) :   0.9747

Dispersion correction           -0.014060408
FINAL SINGLE POINT ENERGY     -1339.883654034546

DIPOLE MOMENT
-------------
                                X             Y             Z
Electronic contribution:      8.65806     -16.88134     -25.28967
Nuclear contribution   :     -8.83749      17.34697      25.81859
                        -----------------------------------------
Total Dipole Moment    :     -0.17943       0.46563       0.52891
                        -----------------------------------------
Magnitude (a.u.)       :      0.72716
Magnitude (Debye)      :      1.84828

Rotational constants in cm-1:     0.016236     0.009961     0.006479
Rotational constants in MHz :   486.730592   298.638025   194.235063

                             ****ORCA TERMINATED NORMALLY****
TOTAL RUN TIME: 0 days 0 hours 0 minutes 21 seconds 821 msec
