                         Program Version 4.2.1 -  RELEASE  -
|  1> ! wB97X-D3 SP def2-SVP
|  2> %pal
|  3> nprocs 24
|  4> end
|  5>
|  6> * xyz 0 1
|  7> S 	 -45.718 	 -9.07107 	 15.6906
|  8> C 	 -45.9071 	 -9.65915 	 17.3239
|  9> C 	 -44.7184 	 -10.0572 	 17.8802
| 10> C 	 -43.6744 	 -10.0106 	 16.9292
| 11> C 	 -43.9986 	 -9.5825 	 15.6505
| 12> H 	 -42.6647 	 -10.1891 	 17.0882
| 13> C 	 -44.4587 	 -10.3948 	 19.2992
| 14> H 	 -43.4726 	 -10.3374 	 19.6009
| 15> H 	 -44.7625 	 -11.4101 	 19.424
| 16> C 	 -45.2442 	 -9.44168 	 20.2612
| 17> H 	 -44.9733 	 -8.42524 	 20.1811
| 18> H 	 -46.325 	 -9.48943 	 20.0425
| 19> C 	 -45.1648 	 -9.94966 	 21.7731
| 20> H 	 -45.6491 	 -9.21156 	 22.4222
| 21> H 	 -45.7602 	 -10.8931 	 21.9637
| 22> H 	 -44.1423 	 -9.93921 	 22.015
| 23> S 	 -41.8149 	 -10.4522 	 14.0612
| 24> C 	 -41.3488 	 -9.41431 	 12.7723
| 25> C 	 -42.1923 	 -8.2479 	 12.6717
| 26> C 	 -43.1191 	 -8.10053 	 13.7677
| 27> C 	 -43.1346 	 -9.29636 	 14.5167
| 28> H 	 -41.9605 	 -7.51462 	 11.8796
| 29> C 	 -43.8822 	 -6.81292 	 13.9834
| 30> H 	 -44.6147 	 -6.84669 	 14.769
| 31> H 	 -44.4455 	 -6.52356 	 13.124
| 32> C 	 -42.8967 	 -5.60588 	 14.2094
| 33> H 	 -43.5469 	 -4.70991 	 14.0193
| 34> H 	 -42.0488 	 -5.67384 	 13.5032
| 35> C 	 -42.4582 	 -5.48944 	 15.6671
| 36> H 	 -41.9805 	 -6.37879 	 15.9775
| 37> H 	 -43.3301 	 -5.36203 	 16.2946
| 38> H 	 -41.7621 	 -4.66394 	 15.7563
| 39> H 	 -46.8491 	 -9.4205 	 17.8319
| 40> H 	 -40.6466 	 -9.67431 	 12.0164
| 41> *
| 42>
| 43>                          ****END OF INPUT****

CARTESIAN COORDINATES (ANGSTROEM)
---------------------------------
  S    -45.718000   -9.071070   15.690600
  C    -45.907100   -9.659150   17.323900
  C    -44.718400  -10.057200   17.880200
  C    -43.674400  -10.010600   16.929200
  C    -43.998600   -9.582500   15.650500
  H    -42.664700  -10.189100   17.088200
  C    -44.458700  -10.394800   19.299200
  H    -43.472600  -10.337400   19.600900
  H    -44.762500  -11.410100   19.424000
  C    -45.244200   -9.441680   20.261200
  H    -44.973300   -8.425240   20.181100
  H    -46.325000   -9.489430   20.042500
  C    -45.164800   -9.949660   21.773100
  H    -45.649100   -9.211560   22.422200
  H    -45.760200  -10.893100   21.963700
  H    -44.142300   -9.939210   22.015000
  S    -41.814900  -10.452200   14.061200
  C    -41.348800   -9.414310   12.772300
  C    -42.192300   -8.247900   12.671700
  C    -43.119100   -8.100530   13.767700
  C    -43.134600   -9.296360   14.516700
  H    -41.960500   -7.514620   11.879600
  C    -43.882200   -6.812920   13.983400
  H    -44.614700   -6.846690   14.769000
  H    -44.445500   -6.523560   13.124000
  C    -42.896700   -5.605880   14.209400
  H    -43.546900   -4.709910   14.019300
  H    -42.048800   -5.673840   13.503200
  C    -42.458200   -5.489440   15.667100
  H    -41.980500   -6.378790   15.977500
  H    -43.330100   -5.362030   16.294600
  H    -41.762100   -4.663940   15.756300
  H    -46.849100   -9.420500   17.831900
  H    -40.646600   -9.674310   12.016400

 Total Charge           Charge          ....    0
 Multiplicity           Mult            ....    1
 Number of Electrons    NEL             ....  134
 Basis Dimension        Dim             ....  322

ORBITAL ENERGIES
----------------

  NO   OCC          E(Eh)            E(eV)
   0   2.0000     -88.973188     -2421.0835
   1   2.0000     -88.962796     -2420.8007
   2   2.0000     -10.333634      -281.1925
   3   2.0000     -10.329165      -281.0709
   4   2.0000     -10.321032      -280.8495
   5   2.0000     -10.312417      -280.6151
   6   2.0000     -10.311315      -280.5851
   7   2.0000     -10.302921      -280.3567
   8   2.0000     -10.297856      -280.2189
   9   2.0000     -10.290472      -280.0180
  10   2.0000     -10.289293      -279.9859
  11   2.0000     -10.289118      -279.9811
  12   2.0000     -10.285583      -279.8850
  13   2.0000     -10.284728      -279.8617
  14   2.0000     -10.282353      -279.7971
  15   2.0000     -10.267191      -279.3845
  16   2.0000      -8.087021      -220.0590
  17   2.0000      -8.076743      -219.7793
  18   2.0000      -6.045537      -164.5074
  19   2.0000      -6.041673      -164.4023
  20   2.0000      -6.037822      -164.2975
  21   2.0000      -6.035257      -164.2277
  22   2.0000      -6.031397      -164.1227
  23   2.0000      -6.027507      -164.0168
  24   2.0000      -1.000242       -27.2180
  25   2.0000      -0.978997       -26.6399
  26   2.0000      -0.910551       -24.7774
  27   2.0000      -0.907830       -24.7033
  28   2.0000      -0.863431       -23.4951
  29   2.0000      -0.850829       -23.1522
  30   2.0000      -0.845373       -23.0038
  31   2.0000      -0.806442       -21.9444
  32   2.0000      -0.787040       -21.4164
  33   2.0000      -0.770828       -20.9753
  34   2.0000      -0.711041       -19.3484
  35   2.0000      -0.697423       -18.9778
  36   2.0000      -0.692017       -18.8307
  37   2.0000      -0.658314       -17.9136
  38   2.0000      -0.641352       -17.4521
  39   2.0000      -0.616178       -16.7670
  40   2.0000      -0.601512       -16.3680
  41   2.0000      -0.579016       -15.7558
  42   2.0000      -0.557218       -15.1627
  43   2.0000      -0.548971       -14.9382
  44   2.0000      -0.539520       -14.6811
  45   2.0000      -0.523757       -14.2522
  46   2.0000      -0.520975       -14.1764
  47   2.0000      -0.512755       -13.9528
  48   2.0000      -0.508118       -13.8266
  49   2.0000      -0.495154       -13.4738
  50   2.0000      -0.489902       -13.3309
  51   2.0000      -0.484948       -13.1961
  52   2.0000      -0.466702       -12.6996
  53   2.0000      -0.464692       -12.6449
  54   2.0000      -0.458936       -12.4883
  55   2.0000      -0.445901       -12.1336
  56   2.0000      -0.441979       -12.0269
  57   2.0000      -0.435373       -11.8471
  58   2.0000      -0.430237       -11.7073
  59   2.0000      -0.427644       -11.6368
  60   2.0000      -0.422748       -11.5036
  61   2.0000      -0.420160       -11.4331
  62   2.0000      -0.411966       -11.2102
  63   2.0000      -0.350070        -9.5259
  64   2.0000      -0.331020        -9.0075
  65   2.0000      -0.327466        -8.9108
  66   2.0000      -0.282164        -7.6781
  67   0.0000       0.021397         0.5822
  68   0.0000       0.071144         1.9359
  69   0.0000       0.102232         2.7819
  70   0.0000       0.109180         2.9710
  71   0.0000       0.132944         3.6176

MULLIKEN ATOMIC CHARGES
-----------------------
   0 S :    0.085781
   1 C :   -0.150347
   2 C :   -0.056449
   3 C :    0.032181
   4 C :   -0.146771
   5 H :   -0.022645
   6 C :    0.150037
   7 H :    0.002753
   8 H :    0.031566
   9 C :   -0.131361
  10 H :    0.033648
  11 H :    0.030032
  12 C :   -0.057282
  13 H :    0.029242
  14 H :    0.050258
  15 H :    0.027256
  16 S :    0.124438
  17 C :   -0.096030
  18 C :   -0.056706
  19 C :   -0.040561
  20 C :   -0.148275
  21 H :    0.035931
  22 C :    0.094527
  23 H :    0.011274
  24 H :    0.027396
  25 C :   -0.126165
  26 H :    0.033034
  27 H :    0.040059
  28 C :   -0.006056
  29 H :    0.023843
  30 H :    0.025807
  31 H :    0.033024
  32 H :    0.060671
  33 H :    0.055891
Sum of atomic charges:    0.0000000

LOEWDIN ATOMIC CHARGES
----------------------
   0 S :    0.398128
   1 C :   -0.198755
   2 C :   -0.063319
   3 C :   -0.059018
   4 C :   -0.174664
   5 H :    0.016465
   6 C :   -0.019568
   7 H :    0.020007
   8 H :    0.036016
   9 C :   -0.030546
  10 H :    0.018749
  11 H :    0.020959
  12 C :   -0.067305
  13 H :    0.025864
  14 H :    0.034662
  15 H :    0.015169
  16 S :    0.403836
  17 C :   -0.196730
  18 C :   -0.070079
  19 C :   -0.048236
  20 C :   -0.187484
  21 H :    0.033306
  22 C :   -0.032795
  23 H :    0.013825
  24 H :    0.031818
  25 C :   -0.034382
  26 H :    0.027424
  27 H :    0.023432
  28 C :   -0.058814
  29 H :    0.019851
  30 H :    0.025031
  31 H :    0.025290
  32 H :    0.028007
  33 H :    0.023855

  Mayer bond orders larger than 0.100000
B(  0-S ,  1-C ) :   1.1470 B(  0-S ,  4-C ) :   1.1379 B(  1-C ,  2-C ) :   1.5877
B(  1-C , 32-H ) :   0.9644 B(  2-C ,  3-C ) :   1.2539 B(  2-C ,  6-C ) :   1.0191
B(  3-C ,  4-C ) :   1.5651 B(  3-C ,  5-H ) :   1.0037 B(  4-C , 20-C ) :   1.0707
B(  6-C ,  7-H ) :   0.9448 B(  6-C ,  8-H ) :   0.9254 B(  6-C ,  9-C ) :   1.0559
B(  9-C , 10-H ) :   0.9653 B(  9-C , 11-H ) :   0.9568 B(  9-C , 12-C ) :   1.0781
B( 12-C , 13-H ) :   0.9750 B( 12-C , 14-H ) :   0.9774 B( 12-C , 15-H ) :   0.9779
B( 16-S , 17-C ) :   1.1635 B( 16-S , 20-C ) :   1.1312 B( 17-C , 18-C ) :   1.5974
B( 17-C , 20-C ) :   0.1021 B( 17-C , 33-H ) :   0.9693 B( 18-C , 19-C ) :   1.2384
B( 18-C , 21-H ) :   0.9782 B( 19-C , 20-C ) :   1.5583 B( 19-C , 22-C ) :   1.0496
B( 22-C , 23-H ) :   0.9272 B( 22-C , 24-H ) :   0.9325 B( 22-C , 25-C ) :   1.0621
B( 25-C , 26-H ) :   0.9568 B( 25-C , 27-H ) :   0.9586 B( 25-C , 28-C ) :   1.0781
B( 28-C , 29-H ) :   0.9774 B( 28-C , 30-H ) :   0.9719 B( 28-C , 31-H ) :   0.9732

Dispersion correction           -0.014268429
FINAL SINGLE POINT ENERGY     -1339.869561101836

DIPOLE MOMENT
-------------
                                X             Y             Z
Electronic contribution:      1.55997     -13.08149     -19.72989
Nuclear contribution   :     -1.42049      13.49768      20.05489
                        -----------------------------------------
Total Dipole Moment    :      0.13948       0.41620       0.32500
                        -----------------------------------------
Magnitude (a.u.)       :      0.54617
Magnitude (Debye)      :      1.38825

Rotational constants in cm-1:     0.021709     0.007515     0.006702
Rotational constants in MHz :   650.832737   225.284280   200.908444

                             ****ORCA TERMINATED NORMALLY****
TOTAL RUN TIME: 0 days 0 hours 0 minutes 23 seconds 478 msec
