                         Program Version 4.2.1 -  RELEASE  -
|  1> ! wB97X-D3 SP def2-SVP
|  2> %pal
|  3> nprocs 24
|  4> end
|  5>
|  6> * xyz 0 1
|  7> S 	 -102.029 	 0.0535139 	 -104.098
|  8> C 	 -103.228 	 -0.119028 	 -105.233
|  9> C 	 -104.222 	 -1.05015 	 -104.89
| 10> C 	 -103.928 	 -1.55044 	 -103.6
| 11> C 	 -102.853 	 -1.01069 	 -102.967
| 12> H 	 -104.554 	 -2.24993 	 -103.011
| 13> C 	 -105.27 	 -1.62002 	 -105.747
| 14> H 	 -105.816 	 -0.732255 	 -106.18
| 15> H 	 -106.048 	 -2.06195 	 -105.08
| 16> C 	 -104.839 	 -2.6453 	 -106.802
| 17> H 	 -104.232 	 -2.24075 	 -107.613
| 18> H 	 -104.158 	 -3.41214 	 -106.371
| 19> C 	 -106.122 	 -3.31295 	 -107.38
| 20> H 	 -105.936 	 -4.01922 	 -108.158
| 21> H 	 -106.811 	 -3.90446 	 -106.706
| 22> H 	 -106.791 	 -2.65436 	 -107.921
| 23> S 	 -101.739 	 -2.91056 	 -101.302
| 24> C 	 -101.426 	 -2.55261 	 -99.6281
| 25> C 	 -101.887 	 -1.25885 	 -99.3526
| 26> C 	 -102.402 	 -0.520343 	 -100.466
| 27> C 	 -102.468 	 -1.3133 	 -101.617
| 28> H 	 -101.736 	 -0.818513 	 -98.3771
| 29> C 	 -102.859 	 0.888614 	 -100.438
| 30> H 	 -102.848 	 1.26365 	 -101.457
| 31> H 	 -102.098 	 1.49498 	 -99.9648
| 32> C 	 -104.255 	 1.11493 	 -99.8115
| 33> H 	 -104.312 	 2.10786 	 -99.41
| 34> H 	 -104.455 	 0.532519 	 -98.9704
| 35> C 	 -105.316 	 0.796006 	 -100.86
| 36> H 	 -106.294 	 1.00779 	 -100.479
| 37> H 	 -105.412 	 -0.198725 	 -101.195
| 38> H 	 -105.199 	 1.43152 	 -101.741
| 39> H 	 -103.195 	 0.289031 	 -106.244
| 40> H 	 -100.821 	 -3.13551 	 -98.9894
| 41> *
| 42>
| 43>                          ****END OF INPUT****

CARTESIAN COORDINATES (ANGSTROEM)
---------------------------------
  S    -102.029000    0.053514  -104.098000
  C    -103.228000   -0.119028  -105.233000
  C    -104.222000   -1.050150  -104.890000
  C    -103.928000   -1.550440  -103.600000
  C    -102.853000   -1.010690  -102.967000
  H    -104.554000   -2.249930  -103.011000
  C    -105.270000   -1.620020  -105.747000
  H    -105.816000   -0.732255  -106.180000
  H    -106.048000   -2.061950  -105.080000
  C    -104.839000   -2.645300  -106.802000
  H    -104.232000   -2.240750  -107.613000
  H    -104.158000   -3.412140  -106.371000
  C    -106.122000   -3.312950  -107.380000
  H    -105.936000   -4.019220  -108.158000
  H    -106.811000   -3.904460  -106.706000
  H    -106.791000   -2.654360  -107.921000
  S    -101.739000   -2.910560  -101.302000
  C    -101.426000   -2.552610  -99.628100
  C    -101.887000   -1.258850  -99.352600
  C    -102.402000   -0.520343  -100.466000
  C    -102.468000   -1.313300  -101.617000
  H    -101.736000   -0.818513  -98.377100
  C    -102.859000    0.888614  -100.438000
  H    -102.848000    1.263650  -101.457000
  H    -102.098000    1.494980  -99.964800
  C    -104.255000    1.114930  -99.811500
  H    -104.312000    2.107860  -99.410000
  H    -104.455000    0.532519  -98.970400
  C    -105.316000    0.796006  -100.860000
  H    -106.294000    1.007790  -100.479000
  H    -105.412000   -0.198725  -101.195000
  H    -105.199000    1.431520  -101.741000
  H    -103.195000    0.289031  -106.244000
  H    -100.821000   -3.135510  -98.989400

 Total Charge           Charge          ....    0
 Multiplicity           Mult            ....    1
 Number of Electrons    NEL             ....  134
 Basis Dimension        Dim             ....  322

ORBITAL ENERGIES
----------------

  NO   OCC          E(Eh)            E(eV)
   0   2.0000     -88.968642     -2420.9598
   1   2.0000     -88.961837     -2420.7747
   2   2.0000     -10.323840      -280.9260
   3   2.0000     -10.319918      -280.8192
   4   2.0000     -10.317171      -280.7445
   5   2.0000     -10.310559      -280.5646
   6   2.0000     -10.301198      -280.3099
   7   2.0000     -10.296318      -280.1770
   8   2.0000     -10.295306      -280.1495
   9   2.0000     -10.294884      -280.1380
  10   2.0000     -10.293951      -280.1127
  11   2.0000     -10.288788      -279.9722
  12   2.0000     -10.283619      -279.8315
  13   2.0000     -10.280070      -279.7349
  14   2.0000     -10.277569      -279.6669
  15   2.0000     -10.263341      -279.2797
  16   2.0000      -8.084379      -219.9871
  17   2.0000      -8.076258      -219.7662
  18   2.0000      -6.042647      -164.4288
  19   2.0000      -6.038603      -164.3188
  20   2.0000      -6.035474      -164.2336
  21   2.0000      -6.034709      -164.2128
  22   2.0000      -6.030685      -164.1033
  23   2.0000      -6.027215      -164.0089
  24   2.0000      -1.011606       -27.5272
  25   2.0000      -0.984550       -26.7910
  26   2.0000      -0.912016       -24.8172
  27   2.0000      -0.909529       -24.7496
  28   2.0000      -0.872364       -23.7382
  29   2.0000      -0.853539       -23.2260
  30   2.0000      -0.846647       -23.0384
  31   2.0000      -0.810774       -22.0623
  32   2.0000      -0.780477       -21.2379
  33   2.0000      -0.768521       -20.9125
  34   2.0000      -0.711376       -19.3575
  35   2.0000      -0.710308       -19.3285
  36   2.0000      -0.698989       -19.0205
  37   2.0000      -0.660036       -17.9605
  38   2.0000      -0.643275       -17.5044
  39   2.0000      -0.615344       -16.7444
  40   2.0000      -0.598248       -16.2792
  41   2.0000      -0.570967       -15.5368
  42   2.0000      -0.554963       -15.1013
  43   2.0000      -0.550252       -14.9731
  44   2.0000      -0.536503       -14.5990
  45   2.0000      -0.526348       -14.3226
  46   2.0000      -0.519929       -14.1480
  47   2.0000      -0.511727       -13.9248
  48   2.0000      -0.503690       -13.7061
  49   2.0000      -0.496801       -13.5186
  50   2.0000      -0.488989       -13.3061
  51   2.0000      -0.475497       -12.9389
  52   2.0000      -0.466718       -12.7000
  53   2.0000      -0.463693       -12.6177
  54   2.0000      -0.453954       -12.3527
  55   2.0000      -0.451710       -12.2917
  56   2.0000      -0.440411       -11.9842
  57   2.0000      -0.438758       -11.9392
  58   2.0000      -0.434450       -11.8220
  59   2.0000      -0.428601       -11.6628
  60   2.0000      -0.422289       -11.4911
  61   2.0000      -0.415853       -11.3159
  62   2.0000      -0.413661       -11.2563
  63   2.0000      -0.343171        -9.3382
  64   2.0000      -0.328418        -8.9367
  65   2.0000      -0.322152        -8.7662
  66   2.0000      -0.297156        -8.0860
  67   0.0000       0.039998         1.0884
  68   0.0000       0.057097         1.5537
  69   0.0000       0.114989         3.1290
  70   0.0000       0.119866         3.2617
  71   0.0000       0.135397         3.6843

MULLIKEN ATOMIC CHARGES
-----------------------
   0 S :    0.146862
   1 C :   -0.121051
   2 C :   -0.086913
   3 C :    0.017224
   4 C :   -0.173573
   5 H :    0.022141
   6 C :    0.038059
   7 H :    0.035971
   8 H :    0.026721
   9 C :   -0.033022
  10 H :    0.030375
  11 H :    0.040323
  12 C :   -0.064299
  13 H :    0.016810
  14 H :    0.037403
  15 H :    0.020738
  16 S :    0.105031
  17 C :   -0.079396
  18 C :   -0.035673
  19 C :   -0.025145
  20 C :   -0.188546
  21 H :    0.013026
  22 C :    0.076676
  23 H :    0.009397
  24 H :    0.019003
  25 C :   -0.007098
  26 H :    0.017973
  27 H :    0.009409
  28 C :   -0.025594
  29 H :    0.011295
  30 H :    0.023057
  31 H :    0.025053
  32 H :    0.047939
  33 H :    0.049826
Sum of atomic charges:   -0.0000000

LOEWDIN ATOMIC CHARGES
----------------------
   0 S :    0.450002
   1 C :   -0.222291
   2 C :   -0.076943
   3 C :   -0.057335
   4 C :   -0.212677
   5 H :    0.034737
   6 C :   -0.043696
   7 H :    0.039393
   8 H :    0.035976
   9 C :   -0.035060
  10 H :    0.026788
  11 H :    0.032494
  12 C :   -0.077640
  13 H :    0.021150
  14 H :    0.031704
  15 H :    0.023503
  16 S :    0.399516
  17 C :   -0.182654
  18 C :   -0.070311
  19 C :   -0.050338
  20 C :   -0.193573
  21 H :    0.027436
  22 C :   -0.031528
  23 H :    0.025356
  24 H :    0.029544
  25 C :   -0.026610
  26 H :    0.023583
  27 H :    0.016620
  28 C :   -0.057676
  29 H :    0.020538
  30 H :    0.020094
  31 H :    0.025911
  32 H :    0.030257
  33 H :    0.023728

  Mayer bond orders larger than 0.100000
B(  0-S ,  1-C ) :   1.1888 B(  0-S ,  4-C ) :   1.1364 B(  1-C ,  2-C ) :   1.5522
B(  1-C , 32-H ) :   0.9648 B(  2-C ,  3-C ) :   1.2811 B(  2-C ,  6-C ) :   1.0390
B(  3-C ,  4-C ) :   1.5651 B(  3-C ,  5-H ) :   0.9857 B(  4-C , 20-C ) :   1.0458
B(  6-C ,  7-H ) :   0.9274 B(  6-C ,  8-H ) :   0.9437 B(  6-C ,  9-C ) :   1.0541
B(  9-C , 10-H ) :   0.9528 B(  9-C , 11-H ) :   0.9572 B(  9-C , 12-C ) :   1.0710
B( 12-C , 13-H ) :   0.9729 B( 12-C , 14-H ) :   0.9771 B( 12-C , 15-H ) :   0.9746
B( 16-S , 17-C ) :   1.1636 B( 16-S , 20-C ) :   1.1421 B( 17-C , 18-C ) :   1.5796
B( 17-C , 20-C ) :   0.1056 B( 17-C , 33-H ) :   0.9757 B( 18-C , 19-C ) :   1.2542
B( 18-C , 21-H ) :   0.9878 B( 19-C , 20-C ) :   1.5675 B( 19-C , 22-C ) :   1.0635
B( 22-C , 23-H ) :   0.9259 B( 22-C , 24-H ) :   0.9241 B( 22-C , 25-C ) :   1.0671
B( 25-C , 26-H ) :   0.9522 B( 25-C , 27-H ) :   0.9575 B( 25-C , 28-C ) :   1.0788
B( 28-C , 29-H ) :   0.9691 B( 28-C , 30-H ) :   0.9751 B( 28-C , 31-H ) :   0.9757

Dispersion correction           -0.015302586
FINAL SINGLE POINT ENERGY     -1339.884311540902

DIPOLE MOMENT
-------------
                                X             Y             Z
Electronic contribution:     20.51942      -2.47963       7.19937
Nuclear contribution   :    -20.80286       2.60470      -7.26602
                        -----------------------------------------
Total Dipole Moment    :     -0.28344       0.12507      -0.06666
                        -----------------------------------------
Magnitude (a.u.)       :      0.31690
Magnitude (Debye)      :      0.80549

Rotational constants in cm-1:     0.021259     0.007964     0.007152
Rotational constants in MHz :   637.323620   238.749380   214.399293

                             ****ORCA TERMINATED NORMALLY****
TOTAL RUN TIME: 0 days 0 hours 0 minutes 21 seconds 937 msec
