                         Program Version 4.2.1 -  RELEASE  -
|  1> ! wB97X-D3 SP def2-SVP
|  2> %pal
|  3> nprocs 24
|  4> end
|  5>
|  6> * xyz 0 1
|  7> S 	 -34.6251 	 10.355 	 12.5209
|  8> C 	 -35.1135 	 12.0299 	 12.1219
|  9> C 	 -34.2993 	 12.4515 	 11.0331
| 10> C 	 -33.2775 	 11.5223 	 10.7064
| 11> C 	 -33.3395 	 10.3091 	 11.3627
| 12> H 	 -32.4407 	 11.7419 	 10.0081
| 13> C 	 -34.3537 	 13.834 	 10.3984
| 14> H 	 -35.4008 	 14.114 	 10.3064
| 15> H 	 -33.9665 	 13.7167 	 9.43539
| 16> C 	 -33.6253 	 14.9425 	 11.0549
| 17> H 	 -34.0463 	 15.0148 	 12.067
| 18> H 	 -32.5609 	 14.8993 	 11.0933
| 19> C 	 -33.8109 	 16.3103 	 10.2866
| 20> H 	 -33.3653 	 17.0797 	 10.8735
| 21> H 	 -33.2687 	 16.3488 	 9.33261
| 22> H 	 -34.8779 	 16.5191 	 10.3242
| 23> S 	 -31.6127 	 8.99888 	 9.77538
| 24> C 	 -30.5915 	 7.77397 	 10.426
| 25> C 	 -30.7206 	 7.68401 	 11.7831
| 26> C 	 -31.6886 	 8.4972 	 12.3752
| 27> C 	 -32.2971 	 9.29159 	 11.3314
| 28> H 	 -29.9765 	 7.05747 	 12.3114
| 29> C 	 -31.8761 	 8.65181 	 13.856
| 30> H 	 -32.1955 	 9.65572 	 13.9244
| 31> H 	 -30.8709 	 8.57928 	 14.3582
| 32> C 	 -32.9535 	 7.628 	 14.3081
| 33> H 	 -32.4949 	 6.63069 	 14.3637
| 34> H 	 -33.7528 	 7.49879 	 13.5748
| 35> C 	 -33.7525 	 7.95365 	 15.5921
| 36> H 	 -34.3173 	 8.94284 	 15.5561
| 37> H 	 -33.0128 	 7.92877 	 16.3418
| 38> H 	 -34.5071 	 7.25764 	 15.8985
| 39> H 	 -35.859 	 12.5275 	 12.7763
| 40> H 	 -30.0257 	 7.19959 	 9.73096
| 41> *
| 42>
| 43>                          ****END OF INPUT****

CARTESIAN COORDINATES (ANGSTROEM)
---------------------------------
  S    -34.625100   10.355000   12.520900
  C    -35.113500   12.029900   12.121900
  C    -34.299300   12.451500   11.033100
  C    -33.277500   11.522300   10.706400
  C    -33.339500   10.309100   11.362700
  H    -32.440700   11.741900   10.008100
  C    -34.353700   13.834000   10.398400
  H    -35.400800   14.114000   10.306400
  H    -33.966500   13.716700    9.435390
  C    -33.625300   14.942500   11.054900
  H    -34.046300   15.014800   12.067000
  H    -32.560900   14.899300   11.093300
  C    -33.810900   16.310300   10.286600
  H    -33.365300   17.079700   10.873500
  H    -33.268700   16.348800    9.332610
  H    -34.877900   16.519100   10.324200
  S    -31.612700    8.998880    9.775380
  C    -30.591500    7.773970   10.426000
  C    -30.720600    7.684010   11.783100
  C    -31.688600    8.497200   12.375200
  C    -32.297100    9.291590   11.331400
  H    -29.976500    7.057470   12.311400
  C    -31.876100    8.651810   13.856000
  H    -32.195500    9.655720   13.924400
  H    -30.870900    8.579280   14.358200
  C    -32.953500    7.628000   14.308100
  H    -32.494900    6.630690   14.363700
  H    -33.752800    7.498790   13.574800
  C    -33.752500    7.953650   15.592100
  H    -34.317300    8.942840   15.556100
  H    -33.012800    7.928770   16.341800
  H    -34.507100    7.257640   15.898500
  H    -35.859000   12.527500   12.776300
  H    -30.025700    7.199590    9.730960

 Total Charge           Charge          ....    0
 Multiplicity           Mult            ....    1
 Number of Electrons    NEL             ....  134
 Basis Dimension        Dim             ....  322

ORBITAL ENERGIES
----------------

  NO   OCC          E(Eh)            E(eV)
   0   2.0000     -88.967038     -2420.9162
   1   2.0000     -88.966343     -2420.8973
   2   2.0000     -10.329075      -281.0684
   3   2.0000     -10.328513      -281.0531
   4   2.0000     -10.324208      -280.9360
   5   2.0000     -10.310127      -280.5528
   6   2.0000     -10.307540      -280.4824
   7   2.0000     -10.305407      -280.4244
   8   2.0000     -10.293348      -280.0962
   9   2.0000     -10.293146      -280.0907
  10   2.0000     -10.291568      -280.0478
  11   2.0000     -10.286514      -279.9103
  12   2.0000     -10.282273      -279.7949
  13   2.0000     -10.282118      -279.7907
  14   2.0000     -10.277801      -279.6732
  15   2.0000     -10.271943      -279.5138
  16   2.0000      -8.082632      -219.9396
  17   2.0000      -8.080181      -219.8729
  18   2.0000      -6.040817      -164.3790
  19   2.0000      -6.038686      -164.3210
  20   2.0000      -6.036972      -164.2744
  21   2.0000      -6.034572      -164.2090
  22   2.0000      -6.033766      -164.1871
  23   2.0000      -6.031263      -164.1190
  24   2.0000      -1.009489       -27.4696
  25   2.0000      -0.984272       -26.7834
  26   2.0000      -0.916236       -24.9320
  27   2.0000      -0.908919       -24.7329
  28   2.0000      -0.869060       -23.6483
  29   2.0000      -0.852413       -23.1953
  30   2.0000      -0.844498       -22.9799
  31   2.0000      -0.810007       -22.0414
  32   2.0000      -0.785554       -21.3760
  33   2.0000      -0.770353       -20.9624
  34   2.0000      -0.701810       -19.0972
  35   2.0000      -0.700005       -19.0481
  36   2.0000      -0.693042       -18.8586
  37   2.0000      -0.665969       -18.1219
  38   2.0000      -0.634873       -17.2758
  39   2.0000      -0.619281       -16.8515
  40   2.0000      -0.599232       -16.3059
  41   2.0000      -0.577175       -15.7057
  42   2.0000      -0.563065       -15.3218
  43   2.0000      -0.558536       -15.1985
  44   2.0000      -0.524766       -14.2796
  45   2.0000      -0.524076       -14.2608
  46   2.0000      -0.519501       -14.1364
  47   2.0000      -0.513506       -13.9732
  48   2.0000      -0.507482       -13.8093
  49   2.0000      -0.500320       -13.6144
  50   2.0000      -0.494576       -13.4581
  51   2.0000      -0.479178       -13.0391
  52   2.0000      -0.470732       -12.8093
  53   2.0000      -0.470037       -12.7903
  54   2.0000      -0.457022       -12.4362
  55   2.0000      -0.449818       -12.2402
  56   2.0000      -0.440485       -11.9862
  57   2.0000      -0.437522       -11.9056
  58   2.0000      -0.430367       -11.7109
  59   2.0000      -0.426419       -11.6035
  60   2.0000      -0.417697       -11.3661
  61   2.0000      -0.410387       -11.1672
  62   2.0000      -0.405888       -11.0448
  63   2.0000      -0.353658        -9.6235
  64   2.0000      -0.334422        -9.1001
  65   2.0000      -0.329010        -8.9528
  66   2.0000      -0.280209        -7.6249
  67   0.0000       0.020845         0.5672
  68   0.0000       0.078703         2.1416
  69   0.0000       0.106841         2.9073
  70   0.0000       0.118367         3.2209
  71   0.0000       0.140926         3.8348

MULLIKEN ATOMIC CHARGES
-----------------------
   0 S :    0.083814
   1 C :   -0.163733
   2 C :   -0.064777
   3 C :   -0.025006
   4 C :   -0.092393
   5 H :    0.030778
   6 C :    0.108368
   7 H :    0.020695
   8 H :   -0.002113
   9 C :   -0.073728
  10 H :    0.022910
  11 H :    0.023482
  12 C :   -0.049061
  13 H :    0.021838
  14 H :    0.044650
  15 H :    0.029503
  16 S :    0.111239
  17 C :   -0.090710
  18 C :   -0.041626
  19 C :   -0.051510
  20 C :   -0.183111
  21 H :    0.025539
  22 C :    0.109087
  23 H :    0.016548
  24 H :    0.044389
  25 C :   -0.091846
  26 H :    0.029569
  27 H :    0.034177
  28 C :   -0.035179
  29 H :    0.040839
  30 H :    0.015611
  31 H :    0.028111
  32 H :    0.075735
  33 H :    0.047910
Sum of atomic charges:   -0.0000000

LOEWDIN ATOMIC CHARGES
----------------------
   0 S :    0.409635
   1 C :   -0.200767
   2 C :   -0.053681
   3 C :   -0.081929
   4 C :   -0.202216
   5 H :    0.033175
   6 C :   -0.032023
   7 H :    0.032920
   8 H :    0.021516
   9 C :   -0.035564
  10 H :    0.023901
  11 H :    0.019690
  12 C :   -0.061817
  13 H :    0.021805
  14 H :    0.029130
  15 H :    0.023616
  16 S :    0.441925
  17 C :   -0.193732
  18 C :   -0.076825
  19 C :   -0.050634
  20 C :   -0.203590
  21 H :    0.036721
  22 C :   -0.028308
  23 H :    0.021318
  24 H :    0.041063
  25 C :   -0.042175
  26 H :    0.026736
  27 H :    0.021885
  28 C :   -0.068837
  29 H :    0.031142
  30 H :    0.015016
  31 H :    0.023037
  32 H :    0.036820
  33 H :    0.021046

  Mayer bond orders larger than 0.100000
B(  0-S ,  1-C ) :   1.1392 B(  0-S ,  4-C ) :   1.1584 B(  1-C ,  2-C ) :   1.5421
B(  1-C , 32-H ) :   0.9750 B(  2-C ,  3-C ) :   1.2945 B(  2-C ,  6-C ) :   1.0306
B(  3-C ,  4-C ) :   1.5280 B(  3-C ,  5-H ) :   0.9784 B(  4-C , 20-C ) :   1.0433
B(  6-C ,  7-H ) :   0.9357 B(  6-C ,  8-H ) :   0.9289 B(  6-C ,  9-C ) :   1.0829
B(  9-C , 10-H ) :   0.9526 B(  9-C , 11-H ) :   0.9567 B(  9-C , 12-C ) :   1.0821
B( 12-C , 13-H ) :   0.9742 B( 12-C , 14-H ) :   0.9755 B( 12-C , 15-H ) :   0.9760
B( 16-S , 17-C ) :   1.1691 B( 16-S , 20-C ) :   1.1922 B( 17-C , 18-C ) :   1.5596
B( 17-C , 20-C ) :   0.1087 B( 17-C , 33-H ) :   0.9767 B( 18-C , 19-C ) :   1.2909
B( 18-C , 21-H ) :   0.9862 B( 19-C , 20-C ) :   1.4956 B( 19-C , 22-C ) :   1.0318
B( 22-C , 23-H ) :   0.9300 B( 22-C , 24-H ) :   0.9395 B( 22-C , 25-C ) :   1.0324
B( 25-C , 26-H ) :   0.9555 B( 25-C , 27-H ) :   0.9640 B( 25-C , 28-C ) :   1.0761
B( 28-C , 29-H ) :   0.9740 B( 28-C , 30-H ) :   0.9743 B( 28-C , 31-H ) :   0.9751

Dispersion correction           -0.014113855
FINAL SINGLE POINT ENERGY     -1339.868001618910

DIPOLE MOMENT
-------------
                                X             Y             Z
Electronic contribution:      2.56869     -13.70998     -10.11499
Nuclear contribution   :     -2.28197      14.01287      10.28464
                        -----------------------------------------
Total Dipole Moment    :      0.28672       0.30289       0.16965
                        -----------------------------------------
Magnitude (a.u.)       :      0.45026
Magnitude (Debye)      :      1.14448

Rotational constants in cm-1:     0.020179     0.008060     0.006297
Rotational constants in MHz :   604.960223   241.623929   188.775578

                             ****ORCA TERMINATED NORMALLY****
TOTAL RUN TIME: 0 days 0 hours 0 minutes 20 seconds 3 msec
