                         Program Version 4.2.1 -  RELEASE  -
|  1> ! wB97X-D3 SP def2-SVP
|  2> %pal
|  3> nprocs 24
|  4> end
|  5>
|  6> * xyz 0 1
|  7> S 	 39.7567 	 -25.5687 	 -108.826
|  8> C 	 41.4913 	 -25.3919 	 -108.723
|  9> C 	 42.0791 	 -25.3078 	 -109.962
| 10> C 	 41.1094 	 -25.5358 	 -110.978
| 11> C 	 39.8373 	 -25.6413 	 -110.605
| 12> H 	 41.4002 	 -25.4678 	 -112.043
| 13> C 	 43.5904 	 -24.9624 	 -110.263
| 14> H 	 44.3626 	 -25.8188 	 -110.42
| 15> H 	 44.0096 	 -24.5966 	 -109.306
| 16> C 	 43.7675 	 -24.089 	 -111.489
| 17> H 	 44.8437 	 -24.1221 	 -111.854
| 18> H 	 43.2754 	 -24.5025 	 -112.402
| 19> C 	 43.2985 	 -22.6485 	 -111.203
| 20> H 	 42.2371 	 -22.6516 	 -110.926
| 21> H 	 44.0091 	 -22.1064 	 -110.482
| 22> H 	 43.3957 	 -22.0468 	 -112.013
| 23> S 	 38.1156 	 -27.4345 	 -111.842
| 24> C 	 36.798 	 -26.8624 	 -112.799
| 25> C 	 36.6768 	 -25.5057 	 -112.697
| 26> C 	 37.8029 	 -24.8841 	 -112.025
| 27> C 	 38.7042 	 -25.8152 	 -111.513
| 28> H 	 35.7694 	 -25.0915 	 -113.17
| 29> C 	 37.7803 	 -23.3811 	 -111.728
| 30> H 	 37.9304 	 -23.3801 	 -110.636
| 31> H 	 36.8036 	 -23.0269 	 -111.865
| 32> C 	 38.7435 	 -22.4604 	 -112.52
| 33> H 	 38.4803 	 -22.4688 	 -113.571
| 34> H 	 39.7836 	 -22.9205 	 -112.532
| 35> C 	 38.7165 	 -20.9816 	 -112.008
| 36> H 	 39.4164 	 -20.2264 	 -112.519
| 37> H 	 38.9292 	 -20.9324 	 -110.962
| 38> H 	 37.8507 	 -20.4055 	 -112.167
| 39> H 	 42.085 	 -25.3123 	 -107.779
| 40> H 	 36.1713 	 -27.5758 	 -113.356
| 41> *
| 42>
| 43>                          ****END OF INPUT****

CARTESIAN COORDINATES (ANGSTROEM)
---------------------------------
  S     39.756700  -25.568700  -108.826000
  C     41.491300  -25.391900  -108.723000
  C     42.079100  -25.307800  -109.962000
  C     41.109400  -25.535800  -110.978000
  C     39.837300  -25.641300  -110.605000
  H     41.400200  -25.467800  -112.043000
  C     43.590400  -24.962400  -110.263000
  H     44.362600  -25.818800  -110.420000
  H     44.009600  -24.596600  -109.306000
  C     43.767500  -24.089000  -111.489000
  H     44.843700  -24.122100  -111.854000
  H     43.275400  -24.502500  -112.402000
  C     43.298500  -22.648500  -111.203000
  H     42.237100  -22.651600  -110.926000
  H     44.009100  -22.106400  -110.482000
  H     43.395700  -22.046800  -112.013000
  S     38.115600  -27.434500  -111.842000
  C     36.798000  -26.862400  -112.799000
  C     36.676800  -25.505700  -112.697000
  C     37.802900  -24.884100  -112.025000
  C     38.704200  -25.815200  -111.513000
  H     35.769400  -25.091500  -113.170000
  C     37.780300  -23.381100  -111.728000
  H     37.930400  -23.380100  -110.636000
  H     36.803600  -23.026900  -111.865000
  C     38.743500  -22.460400  -112.520000
  H     38.480300  -22.468800  -113.571000
  H     39.783600  -22.920500  -112.532000
  C     38.716500  -20.981600  -112.008000
  H     39.416400  -20.226400  -112.519000
  H     38.929200  -20.932400  -110.962000
  H     37.850700  -20.405500  -112.167000
  H     42.085000  -25.312300  -107.779000
  H     36.171300  -27.575800  -113.356000

 Total Charge           Charge          ....    0
 Multiplicity           Mult            ....    1
 Number of Electrons    NEL             ....  134
 Basis Dimension        Dim             ....  322

ORBITAL ENERGIES
----------------

  NO   OCC          E(Eh)            E(eV)
   0   2.0000     -88.967202     -2420.9206
   1   2.0000     -88.961192     -2420.7571
   2   2.0000     -10.326275      -280.9922
   3   2.0000     -10.326107      -280.9876
   4   2.0000     -10.319153      -280.7984
   5   2.0000     -10.316426      -280.7242
   6   2.0000     -10.309130      -280.5257
   7   2.0000     -10.305974      -280.4398
   8   2.0000     -10.302882      -280.3557
   9   2.0000     -10.295698      -280.1602
  10   2.0000     -10.295627      -280.1583
  11   2.0000     -10.294709      -280.1333
  12   2.0000     -10.289756      -279.9985
  13   2.0000     -10.289022      -279.9785
  14   2.0000     -10.278553      -279.6937
  15   2.0000     -10.273732      -279.5625
  16   2.0000      -8.081375      -219.9054
  17   2.0000      -8.076637      -219.7765
  18   2.0000      -6.040012      -164.3571
  19   2.0000      -6.036029      -164.2487
  20   2.0000      -6.035035      -164.2216
  21   2.0000      -6.031954      -164.1378
  22   2.0000      -6.030982      -164.1114
  23   2.0000      -6.027528      -164.0174
  24   2.0000      -1.007425       -27.4134
  25   2.0000      -0.986681       -26.8489
  26   2.0000      -0.907005       -24.6809
  27   2.0000      -0.901144       -24.5214
  28   2.0000      -0.871352       -23.7107
  29   2.0000      -0.844684       -22.9850
  30   2.0000      -0.841750       -22.9052
  31   2.0000      -0.816233       -22.2108
  32   2.0000      -0.782738       -21.2994
  33   2.0000      -0.773335       -21.0435
  34   2.0000      -0.711492       -19.3607
  35   2.0000      -0.699699       -19.0398
  36   2.0000      -0.686516       -18.6811
  37   2.0000      -0.658118       -17.9083
  38   2.0000      -0.637763       -17.3544
  39   2.0000      -0.625351       -17.0167
  40   2.0000      -0.590406       -16.0658
  41   2.0000      -0.567785       -15.4502
  42   2.0000      -0.558468       -15.1967
  43   2.0000      -0.551108       -14.9964
  44   2.0000      -0.527635       -14.3577
  45   2.0000      -0.521365       -14.1871
  46   2.0000      -0.514395       -13.9974
  47   2.0000      -0.510012       -13.8781
  48   2.0000      -0.503202       -13.6928
  49   2.0000      -0.500436       -13.6176
  50   2.0000      -0.483944       -13.1688
  51   2.0000      -0.475718       -12.9449
  52   2.0000      -0.472126       -12.8472
  53   2.0000      -0.463464       -12.6115
  54   2.0000      -0.460453       -12.5296
  55   2.0000      -0.446413       -12.1475
  56   2.0000      -0.444135       -12.0855
  57   2.0000      -0.435004       -11.8371
  58   2.0000      -0.433219       -11.7885
  59   2.0000      -0.423013       -11.5108
  60   2.0000      -0.417446       -11.3593
  61   2.0000      -0.410222       -11.1627
  62   2.0000      -0.408980       -11.1289
  63   2.0000      -0.338356        -9.2071
  64   2.0000      -0.328996        -8.9524
  65   2.0000      -0.319236        -8.6869
  66   2.0000      -0.317500        -8.6396
  67   0.0000       0.048040         1.3072
  68   0.0000       0.051598         1.4041
  69   0.0000       0.111582         3.0363
  70   0.0000       0.118460         3.2235
  71   0.0000       0.130359         3.5473

MULLIKEN ATOMIC CHARGES
-----------------------
   0 S :    0.116157
   1 C :   -0.143595
   2 C :   -0.077882
   3 C :    0.032745
   4 C :   -0.151227
   5 H :    0.021422
   6 C :    0.061069
   7 H :    0.048108
   8 H :    0.016409
   9 C :   -0.126074
  10 H :    0.031846
  11 H :    0.038616
  12 C :   -0.021276
  13 H :    0.054299
  14 H :    0.035029
  15 H :    0.003113
  16 S :    0.107503
  17 C :   -0.114713
  18 C :   -0.043819
  19 C :   -0.036012
  20 C :   -0.179497
  21 H :    0.032607
  22 C :    0.095324
  23 H :    0.031228
  24 H :    0.000751
  25 C :   -0.058128
  26 H :    0.025610
  27 H :    0.040056
  28 C :   -0.055442
  29 H :    0.032804
  30 H :    0.031195
  31 H :    0.017483
  32 H :    0.064127
  33 H :    0.070165
Sum of atomic charges:    0.0000000

LOEWDIN ATOMIC CHARGES
----------------------
   0 S :    0.390415
   1 C :   -0.194457
   2 C :   -0.071663
   3 C :   -0.058575
   4 C :   -0.194440
   5 H :    0.035718
   6 C :   -0.039736
   7 H :    0.041759
   8 H :    0.029481
   9 C :   -0.053747
  10 H :    0.030630
  11 H :    0.027413
  12 C :   -0.064946
  13 H :    0.031919
  14 H :    0.036404
  15 H :    0.008046
  16 S :    0.414250
  17 C :   -0.190345
  18 C :   -0.083575
  19 C :   -0.046905
  20 C :   -0.205761
  21 H :    0.038677
  22 C :   -0.028233
  23 H :    0.034295
  24 H :    0.021386
  25 C :   -0.038010
  26 H :    0.023357
  27 H :    0.030678
  28 C :   -0.075425
  29 H :    0.036752
  30 H :    0.022170
  31 H :    0.018410
  32 H :    0.039595
  33 H :    0.034463

  Mayer bond orders larger than 0.100000
B(  0-S ,  1-C ) :   1.1465 B(  0-S ,  4-C ) :   1.1081 B(  1-C ,  2-C ) :   1.6378
B(  1-C , 32-H ) :   0.9550 B(  2-C ,  3-C ) :   1.2354 B(  2-C ,  6-C ) :   0.9983
B(  3-C ,  4-C ) :   1.6349 B(  3-C ,  5-H ) :   0.9809 B(  4-C , 20-C ) :   1.0302
B(  6-C ,  7-H ) :   0.9442 B(  6-C ,  8-H ) :   0.9455 B(  6-C ,  9-C ) :   1.0659
B(  9-C , 10-H ) :   0.9519 B(  9-C , 11-H ) :   0.9510 B(  9-C , 12-C ) :   1.0772
B( 12-C , 13-H ) :   0.9728 B( 12-C , 14-H ) :   0.9714 B( 12-C , 15-H ) :   0.9712
B( 16-S , 17-C ) :   1.1734 B( 16-S , 20-C ) :   1.1494 B( 17-C , 18-C ) :   1.6045
B( 17-C , 33-H ) :   0.9647 B( 18-C , 19-C ) :   1.2338 B( 18-C , 21-H ) :   0.9896
B( 19-C , 20-C ) :   1.5954 B( 19-C , 22-C ) :   1.0312 B( 22-C , 23-H ) :   0.9330
B( 22-C , 24-H ) :   0.9363 B( 22-C , 25-C ) :   1.0557 B( 25-C , 26-H ) :   0.9534
B( 25-C , 27-H ) :   0.9594 B( 25-C , 28-C ) :   1.0681 B( 28-C , 29-H ) :   0.9735
B( 28-C , 30-H ) :   0.9789 B( 28-C , 31-H ) :   0.9746

Dispersion correction           -0.015212776
FINAL SINGLE POINT ENERGY     -1339.864133376139

DIPOLE MOMENT
-------------
                                X             Y             Z
Electronic contribution:    -13.51197     -24.62425       7.67657
Nuclear contribution   :     13.68653      25.08827      -7.97254
                        -----------------------------------------
Total Dipole Moment    :      0.17456       0.46402      -0.29597
                        -----------------------------------------
Magnitude (a.u.)       :      0.57740
Magnitude (Debye)      :      1.46762

Rotational constants in cm-1:     0.016873     0.009954     0.007689
Rotational constants in MHz :   505.842390   298.403506   230.510630

                             ****ORCA TERMINATED NORMALLY****
TOTAL RUN TIME: 0 days 0 hours 0 minutes 21 seconds 102 msec
