                         Program Version 4.2.1 -  RELEASE  -
|  1> ! wB97X-D3 SP def2-SVP
|  2> %pal
|  3> nprocs 24
|  4> end
|  5>
|  6> * xyz 0 1
|  7> S 	 -82.5694 	 -38.2542 	 -72.5188
|  8> C 	 -83.2212 	 -37.8437 	 -74.1229
|  9> C 	 -83.4595 	 -38.9579 	 -74.9104
| 10> C 	 -83.2192 	 -40.1322 	 -74.1116
| 11> C 	 -82.7265 	 -39.9969 	 -72.8058
| 12> H 	 -83.1628 	 -41.1303 	 -74.5234
| 13> C 	 -83.921 	 -38.9714 	 -76.3919
| 14> H 	 -84.2683 	 -37.9754 	 -76.6926
| 15> H 	 -84.782 	 -39.6328 	 -76.4457
| 16> C 	 -82.8081 	 -39.3682 	 -77.445
| 17> H 	 -83.2981 	 -39.2008 	 -78.4438
| 18> H 	 -82.0642 	 -38.6594 	 -77.3999
| 19> C 	 -82.4209 	 -40.8745 	 -77.3486
| 20> H 	 -81.9695 	 -41.1576 	 -76.4077
| 21> H 	 -83.3087 	 -41.5135 	 -77.522
| 22> H 	 -81.7582 	 -41.2787 	 -78.0834
| 23> S 	 -80.4955 	 -40.8926 	 -71.3902
| 24> C 	 -80.6359 	 -42.5225 	 -70.7291
| 25> C 	 -81.9084 	 -43.0343 	 -70.7953
| 26> C 	 -82.8327 	 -42.2106 	 -71.5509
| 27> C 	 -82.2248 	 -41.0679 	 -71.9677
| 28> H 	 -82.013 	 -43.9946 	 -70.2437
| 29> C 	 -84.361 	 -42.5458 	 -71.7942
| 30> H 	 -84.9454 	 -41.7691 	 -72.3087
| 31> H 	 -84.8162 	 -42.4097 	 -70.873
| 32> C 	 -84.747 	 -44.0096 	 -72.2508
| 33> H 	 -85.7045 	 -44.2995 	 -71.863
| 34> H 	 -83.9737 	 -44.7637 	 -71.9412
| 35> C 	 -84.6566 	 -44.2059 	 -73.7412
| 36> H 	 -84.7082 	 -45.2788 	 -73.8929
| 37> H 	 -83.8494 	 -43.8065 	 -74.2511
| 38> H 	 -85.4865 	 -43.7381 	 -74.2257
| 39> H 	 -83.1875 	 -36.863 	 -74.549
| 40> H 	 -79.794 	 -43.0595 	 -70.4445
| 41> *
| 42>
| 43>                          ****END OF INPUT****

CARTESIAN COORDINATES (ANGSTROEM)
---------------------------------
  S    -82.569400  -38.254200  -72.518800
  C    -83.221200  -37.843700  -74.122900
  C    -83.459500  -38.957900  -74.910400
  C    -83.219200  -40.132200  -74.111600
  C    -82.726500  -39.996900  -72.805800
  H    -83.162800  -41.130300  -74.523400
  C    -83.921000  -38.971400  -76.391900
  H    -84.268300  -37.975400  -76.692600
  H    -84.782000  -39.632800  -76.445700
  C    -82.808100  -39.368200  -77.445000
  H    -83.298100  -39.200800  -78.443800
  H    -82.064200  -38.659400  -77.399900
  C    -82.420900  -40.874500  -77.348600
  H    -81.969500  -41.157600  -76.407700
  H    -83.308700  -41.513500  -77.522000
  H    -81.758200  -41.278700  -78.083400
  S    -80.495500  -40.892600  -71.390200
  C    -80.635900  -42.522500  -70.729100
  C    -81.908400  -43.034300  -70.795300
  C    -82.832700  -42.210600  -71.550900
  C    -82.224800  -41.067900  -71.967700
  H    -82.013000  -43.994600  -70.243700
  C    -84.361000  -42.545800  -71.794200
  H    -84.945400  -41.769100  -72.308700
  H    -84.816200  -42.409700  -70.873000
  C    -84.747000  -44.009600  -72.250800
  H    -85.704500  -44.299500  -71.863000
  H    -83.973700  -44.763700  -71.941200
  C    -84.656600  -44.205900  -73.741200
  H    -84.708200  -45.278800  -73.892900
  H    -83.849400  -43.806500  -74.251100
  H    -85.486500  -43.738100  -74.225700
  H    -83.187500  -36.863000  -74.549000
  H    -79.794000  -43.059500  -70.444500

 Total Charge           Charge          ....    0
 Multiplicity           Mult            ....    1
 Number of Electrons    NEL             ....  134
 Basis Dimension        Dim             ....  322

ORBITAL ENERGIES
----------------

  NO   OCC          E(Eh)            E(eV)
   0   2.0000     -88.965148     -2420.8647
   1   2.0000     -88.964050     -2420.8349
   2   2.0000     -10.331769      -281.1417
   3   2.0000     -10.330564      -281.1089
   4   2.0000     -10.316212      -280.7184
   5   2.0000     -10.315929      -280.7107
   6   2.0000     -10.314417      -280.6696
   7   2.0000     -10.305136      -280.4170
   8   2.0000     -10.301665      -280.3225
   9   2.0000     -10.301379      -280.3148
  10   2.0000     -10.295087      -280.1436
  11   2.0000     -10.293058      -280.0884
  12   2.0000     -10.292163      -280.0640
  13   2.0000     -10.291167      -280.0369
  14   2.0000     -10.278877      -279.7025
  15   2.0000     -10.264378      -279.3079
  16   2.0000      -8.078834      -219.8362
  17   2.0000      -8.077956      -219.8124
  18   2.0000      -6.037483      -164.2883
  19   2.0000      -6.036511      -164.2618
  20   2.0000      -6.033486      -164.1795
  21   2.0000      -6.032910      -164.1638
  22   2.0000      -6.029503      -164.0711
  23   2.0000      -6.028383      -164.0406
  24   2.0000      -0.997971       -27.1562
  25   2.0000      -0.975424       -26.5426
  26   2.0000      -0.903735       -24.5919
  27   2.0000      -0.903081       -24.5741
  28   2.0000      -0.869152       -23.6508
  29   2.0000      -0.850977       -23.1563
  30   2.0000      -0.836199       -22.7541
  31   2.0000      -0.811582       -22.0843
  32   2.0000      -0.789317       -21.4784
  33   2.0000      -0.778727       -21.1903
  34   2.0000      -0.708977       -19.2922
  35   2.0000      -0.704720       -19.1764
  36   2.0000      -0.699156       -19.0250
  37   2.0000      -0.656194       -17.8559
  38   2.0000      -0.637902       -17.3582
  39   2.0000      -0.613586       -16.6965
  40   2.0000      -0.599645       -16.3172
  41   2.0000      -0.570161       -15.5149
  42   2.0000      -0.551282       -15.0012
  43   2.0000      -0.546430       -14.8691
  44   2.0000      -0.538670       -14.6580
  45   2.0000      -0.531373       -14.4594
  46   2.0000      -0.524684       -14.2774
  47   2.0000      -0.505146       -13.7457
  48   2.0000      -0.499374       -13.5887
  49   2.0000      -0.497091       -13.5265
  50   2.0000      -0.491687       -13.3795
  51   2.0000      -0.480277       -13.0690
  52   2.0000      -0.470652       -12.8071
  53   2.0000      -0.463269       -12.6062
  54   2.0000      -0.458480       -12.4759
  55   2.0000      -0.446655       -12.1541
  56   2.0000      -0.442964       -12.0537
  57   2.0000      -0.431678       -11.7466
  58   2.0000      -0.429851       -11.6968
  59   2.0000      -0.428606       -11.6630
  60   2.0000      -0.421079       -11.4581
  61   2.0000      -0.416519       -11.3341
  62   2.0000      -0.413346       -11.2477
  63   2.0000      -0.347014        -9.4427
  64   2.0000      -0.332960        -9.0603
  65   2.0000      -0.328089        -8.9278
  66   2.0000      -0.290490        -7.9046
  67   0.0000       0.029529         0.8035
  68   0.0000       0.061378         1.6702
  69   0.0000       0.107781         2.9329
  70   0.0000       0.120364         3.2753
  71   0.0000       0.127853         3.4790

MULLIKEN ATOMIC CHARGES
-----------------------
   0 S :    0.095416
   1 C :   -0.114751
   2 C :   -0.089654
   3 C :    0.020455
   4 C :   -0.156095
   5 H :    0.005822
   6 C :    0.055836
   7 H :    0.019654
   8 H :    0.034870
   9 C :   -0.030958
  10 H :    0.033783
  11 H :    0.016676
  12 C :   -0.060769
  13 H :    0.043464
  14 H :    0.025951
  15 H :    0.025802
  16 S :    0.088948
  17 C :   -0.078641
  18 C :   -0.050259
  19 C :   -0.000742
  20 C :   -0.166184
  21 H :    0.040273
  22 C :    0.093974
  23 H :    0.029720
  24 H :    0.012896
  25 C :   -0.087531
  26 H :    0.029377
  27 H :    0.035542
  28 C :   -0.014038
  29 H :    0.026169
  30 H :    0.021903
  31 H :    0.011333
  32 H :    0.042143
  33 H :    0.039615
Sum of atomic charges:   -0.0000000

LOEWDIN ATOMIC CHARGES
----------------------
   0 S :    0.380254
   1 C :   -0.185885
   2 C :   -0.063348
   3 C :   -0.066556
   4 C :   -0.193218
   5 H :    0.023426
   6 C :   -0.022804
   7 H :    0.030249
   8 H :    0.030424
   9 C :   -0.025413
  10 H :    0.031491
  11 H :    0.011781
  12 C :   -0.071991
  13 H :    0.024696
  14 H :    0.029749
  15 H :    0.023578
  16 S :    0.354978
  17 C :   -0.160541
  18 C :   -0.075393
  19 C :   -0.042512
  20 C :   -0.168626
  21 H :    0.042198
  22 C :   -0.029304
  23 H :    0.037053
  24 H :    0.026612
  25 C :   -0.035796
  26 H :    0.023390
  27 H :    0.031350
  28 C :   -0.059496
  29 H :    0.026513
  30 H :    0.015196
  31 H :    0.018230
  32 H :    0.023799
  33 H :    0.015916

  Mayer bond orders larger than 0.100000
B(  0-S ,  1-C ) :   1.1374 B(  0-S ,  4-C ) :   1.1272 B(  1-C ,  2-C ) :   1.6235
B(  1-C , 32-H ) :   0.9632 B(  2-C ,  3-C ) :   1.2491 B(  2-C ,  6-C ) :   1.0133
B(  3-C ,  4-C ) :   1.5772 B(  3-C ,  5-H ) :   0.9841 B(  4-C , 20-C ) :   1.0680
B(  6-C ,  7-H ) :   0.9425 B(  6-C ,  8-H ) :   0.9466 B(  6-C ,  9-C ) :   1.0666
B(  9-C , 10-H ) :   0.9574 B(  9-C , 11-H ) :   0.9602 B(  9-C , 12-C ) :   1.0673
B( 12-C , 13-H ) :   0.9745 B( 12-C , 14-H ) :   0.9740 B( 12-C , 15-H ) :   0.9726
B( 16-S , 17-C ) :   1.1314 B( 16-S , 20-C ) :   1.0993 B( 17-C , 18-C ) :   1.6740
B( 17-C , 33-H ) :   0.9726 B( 18-C , 19-C ) :   1.1648 B( 18-C , 21-H ) :   0.9819
B( 19-C , 20-C ) :   1.6660 B( 19-C , 22-C ) :   1.0217 B( 22-C , 23-H ) :   0.9376
B( 22-C , 24-H ) :   0.9290 B( 22-C , 25-C ) :   1.0570 B( 25-C , 26-H ) :   0.9563
B( 25-C , 27-H ) :   0.9676 B( 25-C , 28-C ) :   1.0716 B( 28-C , 29-H ) :   0.9757
B( 28-C , 30-H ) :   0.9759 B( 28-C , 31-H ) :   0.9723

Dispersion correction           -0.014714530
FINAL SINGLE POINT ENERGY     -1339.853030420778

DIPOLE MOMENT
-------------
                                X             Y             Z
Electronic contribution:     13.13838      15.20278      20.40276
Nuclear contribution   :    -13.39884     -15.73181     -20.86429
                        -----------------------------------------
Total Dipole Moment    :     -0.26046      -0.52903      -0.46153
                        -----------------------------------------
Magnitude (a.u.)       :      0.74882
Magnitude (Debye)      :      1.90334

Rotational constants in cm-1:     0.016201     0.009727     0.007501
Rotational constants in MHz :   485.694753   291.610692   224.875088

                             ****ORCA TERMINATED NORMALLY****
TOTAL RUN TIME: 0 days 0 hours 0 minutes 21 seconds 964 msec
