                         Program Version 4.2.1 -  RELEASE  -
|  1> ! wB97X-D3 SP def2-SVP
|  2> %pal
|  3> nprocs 24
|  4> end
|  5>
|  6> * xyz 0 1
|  7> S 	 -82.503 	 -11.9566 	 -57.3142
|  8> C 	 -81.8544 	 -10.7923 	 -58.4313
|  9> C 	 -82.4163 	 -10.9125 	 -59.6899
| 10> C 	 -83.513 	 -11.8822 	 -59.7226
| 11> C 	 -83.6605 	 -12.5018 	 -58.5045
| 12> H 	 -84.2037 	 -12.0432 	 -60.512
| 13> C 	 -82.0657 	 -10.1352 	 -60.9107
| 14> H 	 -81.6709 	 -10.8112 	 -61.6881
| 15> H 	 -81.1728 	 -9.53113 	 -60.6439
| 16> C 	 -83.1724 	 -9.2516 	 -61.474
| 17> H 	 -84.1195 	 -9.85369 	 -61.5079
| 18> H 	 -83.3901 	 -8.42257 	 -60.7594
| 19> C 	 -82.9691 	 -8.6497 	 -62.8117
| 20> H 	 -81.9883 	 -8.14209 	 -63.002
| 21> H 	 -83.1037 	 -9.39283 	 -63.5925
| 22> H 	 -83.7431 	 -7.96796 	 -63.0783
| 23> S 	 -83.7789 	 -15.1274 	 -57.6139
| 24> C 	 -85.2003 	 -16.1109 	 -57.8459
| 25> C 	 -86.1688 	 -15.3646 	 -58.4968
| 26> C 	 -85.7875 	 -14.0792 	 -58.8781
| 27> C 	 -84.5192 	 -13.6928 	 -58.3517
| 28> H 	 -87.0713 	 -15.9057 	 -58.688
| 29> C 	 -86.6471 	 -13.1496 	 -59.7652
| 30> H 	 -86.3804 	 -13.3282 	 -60.7618
| 31> H 	 -86.1757 	 -12.1599 	 -59.5722
| 32> C 	 -88.1549 	 -13.1583 	 -59.5231
| 33> H 	 -88.5336 	 -12.1997 	 -59.9038
| 34> H 	 -88.5674 	 -13.1967 	 -58.4679
| 35> C 	 -88.9701 	 -14.3089 	 -60.1922
| 36> H 	 -88.6692 	 -14.3159 	 -61.2216
| 37> H 	 -90.0759 	 -14.0555 	 -60.2312
| 38> H 	 -88.8981 	 -15.2302 	 -59.6452
| 39> H 	 -81.0191 	 -10.0833 	 -58.3814
| 40> H 	 -85.2837 	 -17.1801 	 -57.7202
| 41> *
| 42>
| 43>                          ****END OF INPUT****

CARTESIAN COORDINATES (ANGSTROEM)
---------------------------------
  S    -82.503000  -11.956600  -57.314200
  C    -81.854400  -10.792300  -58.431300
  C    -82.416300  -10.912500  -59.689900
  C    -83.513000  -11.882200  -59.722600
  C    -83.660500  -12.501800  -58.504500
  H    -84.203700  -12.043200  -60.512000
  C    -82.065700  -10.135200  -60.910700
  H    -81.670900  -10.811200  -61.688100
  H    -81.172800   -9.531130  -60.643900
  C    -83.172400   -9.251600  -61.474000
  H    -84.119500   -9.853690  -61.507900
  H    -83.390100   -8.422570  -60.759400
  C    -82.969100   -8.649700  -62.811700
  H    -81.988300   -8.142090  -63.002000
  H    -83.103700   -9.392830  -63.592500
  H    -83.743100   -7.967960  -63.078300
  S    -83.778900  -15.127400  -57.613900
  C    -85.200300  -16.110900  -57.845900
  C    -86.168800  -15.364600  -58.496800
  C    -85.787500  -14.079200  -58.878100
  C    -84.519200  -13.692800  -58.351700
  H    -87.071300  -15.905700  -58.688000
  C    -86.647100  -13.149600  -59.765200
  H    -86.380400  -13.328200  -60.761800
  H    -86.175700  -12.159900  -59.572200
  C    -88.154900  -13.158300  -59.523100
  H    -88.533600  -12.199700  -59.903800
  H    -88.567400  -13.196700  -58.467900
  C    -88.970100  -14.308900  -60.192200
  H    -88.669200  -14.315900  -61.221600
  H    -90.075900  -14.055500  -60.231200
  H    -88.898100  -15.230200  -59.645200
  H    -81.019100  -10.083300  -58.381400
  H    -85.283700  -17.180100  -57.720200

 Total Charge           Charge          ....    0
 Multiplicity           Mult            ....    1
 Number of Electrons    NEL             ....  134
 Basis Dimension        Dim             ....  322

ORBITAL ENERGIES
----------------

  NO   OCC          E(Eh)            E(eV)
   0   2.0000     -88.973338     -2421.0876
   1   2.0000     -88.964005     -2420.8336
   2   2.0000     -10.333580      -281.1910
   3   2.0000     -10.332663      -281.1661
   4   2.0000     -10.316071      -280.7146
   5   2.0000     -10.314218      -280.6642
   6   2.0000     -10.306044      -280.4417
   7   2.0000     -10.302174      -280.3364
   8   2.0000     -10.295079      -280.1433
   9   2.0000     -10.294501      -280.1276
  10   2.0000     -10.294328      -280.1229
  11   2.0000     -10.293961      -280.1129
  12   2.0000     -10.291489      -280.0456
  13   2.0000     -10.288237      -279.9572
  14   2.0000     -10.281951      -279.7861
  15   2.0000     -10.277338      -279.6606
  16   2.0000      -8.087774      -220.0795
  17   2.0000      -8.078273      -219.8210
  18   2.0000      -6.046481      -164.5331
  19   2.0000      -6.042367      -164.4212
  20   2.0000      -6.038273      -164.3098
  21   2.0000      -6.036709      -164.2672
  22   2.0000      -6.032736      -164.1591
  23   2.0000      -6.029235      -164.0638
  24   2.0000      -1.005981       -27.3741
  25   2.0000      -0.983528       -26.7632
  26   2.0000      -0.917337       -24.9620
  27   2.0000      -0.905766       -24.6471
  28   2.0000      -0.872593       -23.7445
  29   2.0000      -0.855939       -23.2913
  30   2.0000      -0.844482       -22.9795
  31   2.0000      -0.817904       -22.2563
  32   2.0000      -0.786539       -21.4028
  33   2.0000      -0.774864       -21.0851
  34   2.0000      -0.709221       -19.2989
  35   2.0000      -0.696788       -18.9606
  36   2.0000      -0.695107       -18.9148
  37   2.0000      -0.656476       -17.8636
  38   2.0000      -0.637602       -17.3500
  39   2.0000      -0.624866       -17.0035
  40   2.0000      -0.596696       -16.2369
  41   2.0000      -0.575084       -15.6488
  42   2.0000      -0.562277       -15.3003
  43   2.0000      -0.550016       -14.9667
  44   2.0000      -0.534883       -14.5549
  45   2.0000      -0.529149       -14.3989
  46   2.0000      -0.521484       -14.1903
  47   2.0000      -0.518295       -14.1035
  48   2.0000      -0.505982       -13.7685
  49   2.0000      -0.502420       -13.6715
  50   2.0000      -0.493758       -13.4358
  51   2.0000      -0.485087       -13.1999
  52   2.0000      -0.480991       -13.0884
  53   2.0000      -0.466257       -12.6875
  54   2.0000      -0.461494       -12.5579
  55   2.0000      -0.449741       -12.2381
  56   2.0000      -0.438849       -11.9417
  57   2.0000      -0.436041       -11.8653
  58   2.0000      -0.430136       -11.7046
  59   2.0000      -0.426311       -11.6005
  60   2.0000      -0.420090       -11.4312
  61   2.0000      -0.412285       -11.2189
  62   2.0000      -0.408015       -11.1027
  63   2.0000      -0.355471        -9.6728
  64   2.0000      -0.330458        -8.9922
  65   2.0000      -0.329315        -8.9611
  66   2.0000      -0.286598        -7.7987
  67   0.0000       0.027693         0.7536
  68   0.0000       0.073105         1.9893
  69   0.0000       0.114072         3.1041
  70   0.0000       0.119618         3.2550
  71   0.0000       0.128167         3.4876

MULLIKEN ATOMIC CHARGES
-----------------------
   0 S :    0.127924
   1 C :   -0.092373
   2 C :   -0.116966
   3 C :    0.020004
   4 C :   -0.126046
   5 H :    0.002653
   6 C :    0.077061
   7 H :    0.036797
   8 H :    0.009762
   9 C :   -0.099847
  10 H :    0.029472
  11 H :    0.035522
  12 C :   -0.027831
  13 H :    0.038671
  14 H :    0.017770
  15 H :    0.024580
  16 S :    0.094681
  17 C :   -0.097038
  18 C :   -0.047711
  19 C :   -0.036509
  20 C :   -0.154035
  21 H :    0.002004
  22 C :    0.084235
  23 H :    0.031271
  24 H :    0.033844
  25 C :   -0.083977
  26 H :    0.028327
  27 H :    0.045209
  28 C :   -0.069372
  29 H :    0.026936
  30 H :    0.038612
  31 H :    0.043224
  32 H :    0.044914
  33 H :    0.058230
Sum of atomic charges:   -0.0000000

LOEWDIN ATOMIC CHARGES
----------------------
   0 S :    0.415406
   1 C :   -0.209917
   2 C :   -0.059016
   3 C :   -0.056547
   4 C :   -0.192341
   5 H :    0.023385
   6 C :   -0.039564
   7 H :    0.035646
   8 H :    0.029627
   9 C :   -0.048680
  10 H :    0.028059
  11 H :    0.029955
  12 C :   -0.070934
  13 H :    0.030344
  14 H :    0.023600
  15 H :    0.026062
  16 S :    0.401522
  17 C :   -0.191877
  18 C :   -0.077379
  19 C :   -0.055724
  20 C :   -0.189179
  21 H :    0.028151
  22 C :   -0.032197
  23 H :    0.024646
  24 H :    0.037853
  25 C :   -0.047529
  26 H :    0.027166
  27 H :    0.035189
  28 C :   -0.067591
  29 H :    0.019506
  30 H :    0.034783
  31 H :    0.018324
  32 H :    0.036981
  33 H :    0.032271

  Mayer bond orders larger than 0.100000
B(  0-S ,  1-C ) :   1.1119 B(  0-S ,  4-C ) :   1.1443 B(  1-C ,  2-C ) :   1.6570
B(  1-C , 32-H ) :   0.9554 B(  2-C ,  3-C ) :   1.2058 B(  2-C ,  6-C ) :   1.0440
B(  3-C ,  4-C ) :   1.5744 B(  3-C ,  5-H ) :   0.9921 B(  4-C , 20-C ) :   1.0441
B(  6-C ,  7-H ) :   0.9348 B(  6-C ,  8-H ) :   0.9288 B(  6-C ,  9-C ) :   1.0565
B(  9-C , 10-H ) :   0.9544 B(  9-C , 11-H ) :   0.9521 B(  9-C , 12-C ) :   1.0968
B( 12-C , 13-H ) :   0.9724 B( 12-C , 14-H ) :   0.9683 B( 12-C , 15-H ) :   0.9681
B( 16-S , 17-C ) :   1.1670 B( 16-S , 20-C ) :   1.1552 B( 17-C , 18-C ) :   1.5866
B( 17-C , 20-C ) :   0.1126 B( 17-C , 33-H ) :   0.9652 B( 18-C , 19-C ) :   1.2801
B( 18-C , 21-H ) :   0.9949 B( 19-C , 20-C ) :   1.5497 B( 19-C , 22-C ) :   1.0235
B( 22-C , 23-H ) :   0.9289 B( 22-C , 24-H ) :   0.9286 B( 22-C , 25-C ) :   1.0549
B( 25-C , 26-H ) :   0.9557 B( 25-C , 27-H ) :   0.9642 B( 25-C , 28-C ) :   1.0706
B( 28-C , 29-H ) :   0.9759 B( 28-C , 30-H ) :   0.9714 B( 28-C , 31-H ) :   0.9784

Dispersion correction           -0.013667202
FINAL SINGLE POINT ENERGY     -1339.871461515405

DIPOLE MOMENT
-------------
                                X             Y             Z
Electronic contribution:     15.29699     -13.24354      22.84135
Nuclear contribution   :    -15.61404      13.46646     -23.59779
                        -----------------------------------------
Total Dipole Moment    :     -0.31705       0.22292      -0.75643
                        -----------------------------------------
Magnitude (a.u.)       :      0.84994
Magnitude (Debye)      :      2.16039

Rotational constants in cm-1:     0.017132     0.008615     0.006150
Rotational constants in MHz :   513.606241   258.272539   184.368903

                             ****ORCA TERMINATED NORMALLY****
TOTAL RUN TIME: 0 days 0 hours 0 minutes 21 seconds 260 msec
