                         Program Version 4.2.1 -  RELEASE  -
|  1> ! wB97X-D3 SP def2-SVP
|  2> %pal
|  3> nprocs 24
|  4> end
|  5>
|  6> * xyz 0 1
|  7> S 	 -44.1928 	 -7.69021 	 6.96015
|  8> C 	 -43.2964 	 -8.94422 	 6.24331
|  9> C 	 -42.1661 	 -9.23313 	 6.94892
| 10> C 	 -42.023 	 -8.41914 	 8.13968
| 11> C 	 -43.0887 	 -7.54769 	 8.33297
| 12> H 	 -41.1926 	 -8.31485 	 8.83205
| 13> C 	 -40.9869 	 -10.1473 	 6.62794
| 14> H 	 -41.3927 	 -11.1036 	 6.23005
| 15> H 	 -40.448 	 -10.2693 	 7.5606
| 16> C 	 -40.0785 	 -9.46749 	 5.56803
| 17> H 	 -39.0232 	 -9.7982 	 5.84002
| 18> H 	 -40.1299 	 -9.89734 	 4.58467
| 19> C 	 -40.052 	 -7.90197 	 5.54223
| 20> H 	 -39.2988 	 -7.6917 	 4.77859
| 21> H 	 -41.0276 	 -7.50046 	 5.2124
| 22> H 	 -39.7029 	 -7.51815 	 6.5347
| 23> S 	 -43.4343 	 -7.11925 	 11.0151
| 24> C 	 -43.4426 	 -5.47247 	 11.618
| 25> C 	 -43.6852 	 -4.59826 	 10.6181
| 26> C 	 -43.6155 	 -5.20113 	 9.31033
| 27> C 	 -43.2713 	 -6.56605 	 9.38536
| 28> H 	 -43.9902 	 -3.60257 	 10.8503
| 29> C 	 -43.7717 	 -4.39441 	 7.97211
| 30> H 	 -44.594 	 -4.85009 	 7.37685
| 31> H 	 -42.9252 	 -4.65917 	 7.36565
| 32> C 	 -44.0159 	 -2.88225 	 8.09805
| 33> H 	 -43.1376 	 -2.49857 	 8.57076
| 34> H 	 -44.7893 	 -2.62939 	 8.78643
| 35> C 	 -44.1685 	 -2.28208 	 6.62833
| 36> H 	 -44.3646 	 -1.17461 	 6.59543
| 37> H 	 -45.108 	 -2.70219 	 6.18606
| 38> H 	 -43.3798 	 -2.58782 	 5.91864
| 39> H 	 -43.4203 	 -9.36495 	 5.18124
| 40> H 	 -43.5812 	 -5.09104 	 12.6242
| 41> *
| 42>
| 43>                          ****END OF INPUT****

CARTESIAN COORDINATES (ANGSTROEM)
---------------------------------
  S    -44.192800   -7.690210    6.960150
  C    -43.296400   -8.944220    6.243310
  C    -42.166100   -9.233130    6.948920
  C    -42.023000   -8.419140    8.139680
  C    -43.088700   -7.547690    8.332970
  H    -41.192600   -8.314850    8.832050
  C    -40.986900  -10.147300    6.627940
  H    -41.392700  -11.103600    6.230050
  H    -40.448000  -10.269300    7.560600
  C    -40.078500   -9.467490    5.568030
  H    -39.023200   -9.798200    5.840020
  H    -40.129900   -9.897340    4.584670
  C    -40.052000   -7.901970    5.542230
  H    -39.298800   -7.691700    4.778590
  H    -41.027600   -7.500460    5.212400
  H    -39.702900   -7.518150    6.534700
  S    -43.434300   -7.119250   11.015100
  C    -43.442600   -5.472470   11.618000
  C    -43.685200   -4.598260   10.618100
  C    -43.615500   -5.201130    9.310330
  C    -43.271300   -6.566050    9.385360
  H    -43.990200   -3.602570   10.850300
  C    -43.771700   -4.394410    7.972110
  H    -44.594000   -4.850090    7.376850
  H    -42.925200   -4.659170    7.365650
  C    -44.015900   -2.882250    8.098050
  H    -43.137600   -2.498570    8.570760
  H    -44.789300   -2.629390    8.786430
  C    -44.168500   -2.282080    6.628330
  H    -44.364600   -1.174610    6.595430
  H    -45.108000   -2.702190    6.186060
  H    -43.379800   -2.587820    5.918640
  H    -43.420300   -9.364950    5.181240
  H    -43.581200   -5.091040   12.624200

 Total Charge           Charge          ....    0
 Multiplicity           Mult            ....    1
 Number of Electrons    NEL             ....  134
 Basis Dimension        Dim             ....  322

ORBITAL ENERGIES
----------------

  NO   OCC          E(Eh)            E(eV)
   0   2.0000     -88.966207     -2420.8936
   1   2.0000     -88.965813     -2420.8828
   2   2.0000     -10.328825      -281.0616
   3   2.0000     -10.324812      -280.9524
   4   2.0000     -10.315095      -280.6880
   5   2.0000     -10.312232      -280.6101
   6   2.0000     -10.308185      -280.5000
   7   2.0000     -10.298611      -280.2395
   8   2.0000     -10.295144      -280.1451
   9   2.0000     -10.294448      -280.1262
  10   2.0000     -10.293497      -280.1003
  11   2.0000     -10.291009      -280.0326
  12   2.0000     -10.289881      -280.0019
  13   2.0000     -10.289689      -279.9967
  14   2.0000     -10.289358      -279.9877
  15   2.0000     -10.283020      -279.8152
  16   2.0000      -8.080996      -219.8951
  17   2.0000      -8.080694      -219.8869
  18   2.0000      -6.039573      -164.3451
  19   2.0000      -6.039216      -164.3354
  20   2.0000      -6.035662      -164.2387
  21   2.0000      -6.035063      -164.2224
  22   2.0000      -6.031548      -164.1268
  23   2.0000      -6.031492      -164.1252
  24   2.0000      -1.008182       -27.4340
  25   2.0000      -0.987550       -26.8726
  26   2.0000      -0.906958       -24.6796
  27   2.0000      -0.901190       -24.5226
  28   2.0000      -0.873024       -23.7562
  29   2.0000      -0.843257       -22.9462
  30   2.0000      -0.838156       -22.8074
  31   2.0000      -0.815393       -22.1880
  32   2.0000      -0.780150       -21.2290
  33   2.0000      -0.767045       -20.8724
  34   2.0000      -0.712685       -19.3932
  35   2.0000      -0.700917       -19.0729
  36   2.0000      -0.694908       -18.9094
  37   2.0000      -0.650603       -17.7038
  38   2.0000      -0.637615       -17.3504
  39   2.0000      -0.607614       -16.5340
  40   2.0000      -0.592454       -16.1215
  41   2.0000      -0.567433       -15.4406
  42   2.0000      -0.559503       -15.2249
  43   2.0000      -0.553225       -15.0540
  44   2.0000      -0.540768       -14.7151
  45   2.0000      -0.522474       -14.2172
  46   2.0000      -0.512628       -13.9493
  47   2.0000      -0.509223       -13.8567
  48   2.0000      -0.502463       -13.6727
  49   2.0000      -0.493429       -13.4269
  50   2.0000      -0.478812       -13.0291
  51   2.0000      -0.475280       -12.9330
  52   2.0000      -0.473150       -12.8751
  53   2.0000      -0.467447       -12.7199
  54   2.0000      -0.459677       -12.5085
  55   2.0000      -0.451243       -12.2790
  56   2.0000      -0.445993       -12.1361
  57   2.0000      -0.436025       -11.8649
  58   2.0000      -0.434370       -11.8198
  59   2.0000      -0.422919       -11.5082
  60   2.0000      -0.419768       -11.4225
  61   2.0000      -0.416817       -11.3422
  62   2.0000      -0.405403       -11.0316
  63   2.0000      -0.345741        -9.4081
  64   2.0000      -0.332206        -9.0398
  65   2.0000      -0.323143        -8.7932
  66   2.0000      -0.294737        -8.0202
  67   0.0000       0.027016         0.7352
  68   0.0000       0.073763         2.0072
  69   0.0000       0.109803         2.9879
  70   0.0000       0.122469         3.3325
  71   0.0000       0.126074         3.4306

MULLIKEN ATOMIC CHARGES
-----------------------
   0 S :    0.113260
   1 C :   -0.138417
   2 C :   -0.133091
   3 C :    0.015887
   4 C :   -0.174860
   5 H :    0.019917
   6 C :    0.126985
   7 H :    0.038683
   8 H :    0.025856
   9 C :   -0.138877
  10 H :    0.024192
  11 H :    0.025148
  12 C :   -0.030169
  13 H :    0.036010
  14 H :    0.048680
  15 H :    0.042790
  16 S :    0.121860
  17 C :   -0.060205
  18 C :   -0.067274
  19 C :   -0.026311
  20 C :   -0.159177
  21 H :    0.010009
  22 C :    0.029409
  23 H :    0.031156
  24 H :    0.032917
  25 C :   -0.041265
  26 H :    0.024628
  27 H :    0.032048
  28 C :   -0.077033
  29 H :    0.046065
  30 H :    0.031093
  31 H :    0.045711
  32 H :    0.074698
  33 H :    0.049677
Sum of atomic charges:    0.0000000

LOEWDIN ATOMIC CHARGES
----------------------
   0 S :    0.423917
   1 C :   -0.231576
   2 C :   -0.069668
   3 C :   -0.060968
   4 C :   -0.194553
   5 H :    0.032732
   6 C :   -0.029681
   7 H :    0.036913
   8 H :    0.030970
   9 C :   -0.051129
  10 H :    0.028663
  11 H :    0.018185
  12 C :   -0.065625
  13 H :    0.027747
  14 H :    0.027613
  15 H :    0.030613
  16 S :    0.420565
  17 C :   -0.188643
  18 C :   -0.074652
  19 C :   -0.048301
  20 C :   -0.214772
  21 H :    0.027593
  22 C :   -0.038530
  23 H :    0.026174
  24 H :    0.030826
  25 C :   -0.036974
  26 H :    0.020936
  27 H :    0.021020
  28 C :   -0.072120
  29 H :    0.030957
  30 H :    0.028047
  31 H :    0.030165
  32 H :    0.049940
  33 H :    0.033616

  Mayer bond orders larger than 0.100000
B(  0-S ,  1-C ) :   1.1447 B(  0-S ,  4-C ) :   1.1431 B(  1-C ,  2-C ) :   1.6266
B(  1-C , 32-H ) :   0.9519 B(  2-C ,  3-C ) :   1.2227 B(  2-C ,  6-C ) :   1.0307
B(  3-C ,  4-C ) :   1.5811 B(  3-C ,  5-H ) :   0.9913 B(  4-C , 20-C ) :   1.0538
B(  6-C ,  7-H ) :   0.9425 B(  6-C ,  8-H ) :   0.9372 B(  6-C ,  9-C ) :   1.0482
B(  9-C , 10-H ) :   0.9588 B(  9-C , 11-H ) :   0.9598 B(  9-C , 12-C ) :   1.0882
B( 12-C , 13-H ) :   0.9724 B( 12-C , 14-H ) :   0.9658 B( 12-C , 15-H ) :   0.9722
B( 16-S , 17-C ) :   1.1443 B( 16-S , 20-C ) :   1.1542 B( 17-C , 18-C ) :   1.6228
B( 17-C , 33-H ) :   0.9584 B( 18-C , 19-C ) :   1.2555 B( 18-C , 21-H ) :   0.9887
B( 19-C , 20-C ) :   1.5645 B( 19-C , 22-C ) :   1.0144 B( 22-C , 23-H ) :   0.9330
B( 22-C , 24-H ) :   0.9355 B( 22-C , 25-C ) :   1.0742 B( 25-C , 26-H ) :   0.9519
B( 25-C , 27-H ) :   0.9545 B( 25-C , 28-C ) :   1.0644 B( 28-C , 29-H ) :   0.9755
B( 28-C , 30-H ) :   0.9765 B( 28-C , 31-H ) :   0.9766

Dispersion correction           -0.014801837
FINAL SINGLE POINT ENERGY     -1339.868106699588

DIPOLE MOMENT
-------------
                                X             Y             Z
Electronic contribution:    -10.65704     -10.34644      16.24890
Nuclear contribution   :     10.92674      10.61341     -16.56434
                        -----------------------------------------
Total Dipole Moment    :      0.26970       0.26697      -0.31543
                        -----------------------------------------
Magnitude (a.u.)       :      0.49347
Magnitude (Debye)      :      1.25429

Rotational constants in cm-1:     0.018446     0.008793     0.007035
Rotational constants in MHz :   552.983128   263.600837   210.918334

                             ****ORCA TERMINATED NORMALLY****
TOTAL RUN TIME: 0 days 0 hours 0 minutes 21 seconds 688 msec
