                         Program Version 4.2.1 -  RELEASE  -
|  1> ! wB97X-D3 SP def2-SVP
|  2> %pal
|  3> nprocs 24
|  4> end
|  5>
|  6> * xyz 0 1
|  7> S 	 -66.73 	 10.6577 	 -73.6018
|  8> C 	 -67.3827 	 10.1913 	 -72.0775
|  9> C 	 -68.6836 	 10.502 	 -72.0367
| 10> C 	 -69.1603 	 11.1492 	 -73.247
| 11> C 	 -68.2358 	 11.1548 	 -74.2799
| 12> H 	 -70.163 	 11.3371 	 -73.5694
| 13> C 	 -69.5961 	 10.1797 	 -70.8608
| 14> H 	 -70.1603 	 11.0779 	 -70.5443
| 15> H 	 -69.018 	 9.86924 	 -69.9999
| 16> C 	 -70.5595 	 9.07584 	 -71.2549
| 17> H 	 -71.1731 	 8.78126 	 -70.3896
| 18> H 	 -71.3802 	 9.40347 	 -72.0304
| 19> C 	 -69.8727 	 7.75644 	 -71.634
| 20> H 	 -69.1297 	 7.96696 	 -72.313
| 21> H 	 -69.3506 	 7.29512 	 -70.7771
| 22> H 	 -70.6603 	 7.05465 	 -71.9952
| 23> S 	 -67.2844 	 12.421 	 -76.5741
| 24> C 	 -68.0798 	 12.3319 	 -78.0451
| 25> C 	 -69.3085 	 11.6594 	 -77.9604
| 26> C 	 -69.43 	 11.0208 	 -76.6139
| 27> C 	 -68.4471 	 11.4198 	 -75.69
| 28> H 	 -69.9629 	 11.4657 	 -78.7654
| 29> C 	 -70.4311 	 9.83105 	 -76.3399
| 30> H 	 -71.0656 	 9.84983 	 -77.245
| 31> H 	 -71.0229 	 10.2679 	 -75.489
| 32> C 	 -69.8464 	 8.46882 	 -76.0717
| 33> H 	 -69.331 	 8.51073 	 -75.0894
| 34> H 	 -68.967 	 8.33529 	 -76.6827
| 35> C 	 -70.7351 	 7.25354 	 -76.2219
| 36> H 	 -71.272 	 7.18581 	 -77.1978
| 37> H 	 -71.5497 	 7.30103 	 -75.4312
| 38> H 	 -70.2215 	 6.31347 	 -76.035
| 39> H 	 -66.8217 	 9.83813 	 -71.2958
| 40> H 	 -67.8336 	 12.9335 	 -78.9506
| 41> *
| 42>
| 43>                          ****END OF INPUT****

CARTESIAN COORDINATES (ANGSTROEM)
---------------------------------
  S    -66.730000   10.657700  -73.601800
  C    -67.382700   10.191300  -72.077500
  C    -68.683600   10.502000  -72.036700
  C    -69.160300   11.149200  -73.247000
  C    -68.235800   11.154800  -74.279900
  H    -70.163000   11.337100  -73.569400
  C    -69.596100   10.179700  -70.860800
  H    -70.160300   11.077900  -70.544300
  H    -69.018000    9.869240  -69.999900
  C    -70.559500    9.075840  -71.254900
  H    -71.173100    8.781260  -70.389600
  H    -71.380200    9.403470  -72.030400
  C    -69.872700    7.756440  -71.634000
  H    -69.129700    7.966960  -72.313000
  H    -69.350600    7.295120  -70.777100
  H    -70.660300    7.054650  -71.995200
  S    -67.284400   12.421000  -76.574100
  C    -68.079800   12.331900  -78.045100
  C    -69.308500   11.659400  -77.960400
  C    -69.430000   11.020800  -76.613900
  C    -68.447100   11.419800  -75.690000
  H    -69.962900   11.465700  -78.765400
  C    -70.431100    9.831050  -76.339900
  H    -71.065600    9.849830  -77.245000
  H    -71.022900   10.267900  -75.489000
  C    -69.846400    8.468820  -76.071700
  H    -69.331000    8.510730  -75.089400
  H    -68.967000    8.335290  -76.682700
  C    -70.735100    7.253540  -76.221900
  H    -71.272000    7.185810  -77.197800
  H    -71.549700    7.301030  -75.431200
  H    -70.221500    6.313470  -76.035000
  H    -66.821700    9.838130  -71.295800
  H    -67.833600   12.933500  -78.950600

 Total Charge           Charge          ....    0
 Multiplicity           Mult            ....    1
 Number of Electrons    NEL             ....  134
 Basis Dimension        Dim             ....  322

ORBITAL ENERGIES
----------------

  NO   OCC          E(Eh)            E(eV)
   0   2.0000     -88.966437     -2420.8998
   1   2.0000     -88.960692     -2420.7435
   2   2.0000     -10.332348      -281.1575
   3   2.0000     -10.331997      -281.1479
   4   2.0000     -10.323402      -280.9141
   5   2.0000     -10.316619      -280.7295
   6   2.0000     -10.305740      -280.4334
   7   2.0000     -10.301396      -280.3152
   8   2.0000     -10.301156      -280.3087
   9   2.0000     -10.299649      -280.2677
  10   2.0000     -10.294403      -280.1249
  11   2.0000     -10.294082      -280.1162
  12   2.0000     -10.292774      -280.0806
  13   2.0000     -10.284740      -279.8620
  14   2.0000     -10.282857      -279.8108
  15   2.0000     -10.272335      -279.5245
  16   2.0000      -8.082346      -219.9318
  17   2.0000      -8.076828      -219.7817
  18   2.0000      -6.040789      -164.3782
  19   2.0000      -6.036471      -164.2607
  20   2.0000      -6.035306      -164.2290
  21   2.0000      -6.033300      -164.1744
  22   2.0000      -6.031018      -164.1123
  23   2.0000      -6.027632      -164.0202
  24   2.0000      -1.012897       -27.5623
  25   2.0000      -0.990142       -26.9431
  26   2.0000      -0.915800       -24.9202
  27   2.0000      -0.906720       -24.6731
  28   2.0000      -0.875126       -23.8134
  29   2.0000      -0.848621       -23.0922
  30   2.0000      -0.840163       -22.8620
  31   2.0000      -0.818581       -22.2747
  32   2.0000      -0.784783       -21.3550
  33   2.0000      -0.775758       -21.1095
  34   2.0000      -0.711122       -19.3506
  35   2.0000      -0.693264       -18.8647
  36   2.0000      -0.689948       -18.7744
  37   2.0000      -0.663985       -18.0680
  38   2.0000      -0.649163       -17.6646
  39   2.0000      -0.618739       -16.8368
  40   2.0000      -0.588040       -16.0014
  41   2.0000      -0.574184       -15.6243
  42   2.0000      -0.561065       -15.2674
  43   2.0000      -0.553426       -15.0595
  44   2.0000      -0.541292       -14.7293
  45   2.0000      -0.525400       -14.2969
  46   2.0000      -0.522055       -14.2058
  47   2.0000      -0.518759       -14.1162
  48   2.0000      -0.512135       -13.9359
  49   2.0000      -0.497191       -13.5292
  50   2.0000      -0.491782       -13.3821
  51   2.0000      -0.487918       -13.2769
  52   2.0000      -0.473750       -12.8914
  53   2.0000      -0.470115       -12.7925
  54   2.0000      -0.459976       -12.5166
  55   2.0000      -0.450318       -12.2538
  56   2.0000      -0.441449       -12.0124
  57   2.0000      -0.438351       -11.9281
  58   2.0000      -0.432752       -11.7758
  59   2.0000      -0.424022       -11.5382
  60   2.0000      -0.412947       -11.2369
  61   2.0000      -0.403423       -10.9777
  62   2.0000      -0.400553       -10.8996
  63   2.0000      -0.355538        -9.6747
  64   2.0000      -0.328483        -8.9385
  65   2.0000      -0.326753        -8.8914
  66   2.0000      -0.297199        -8.0872
  67   0.0000       0.026484         0.7207
  68   0.0000       0.073992         2.0134
  69   0.0000       0.114922         3.1272
  70   0.0000       0.120461         3.2779
  71   0.0000       0.121691         3.3114

MULLIKEN ATOMIC CHARGES
-----------------------
   0 S :    0.100178
   1 C :   -0.077739
   2 C :   -0.118653
   3 C :    0.058763
   4 C :   -0.158883
   5 H :    0.000857
   6 C :    0.104777
   7 H :    0.039572
   8 H :    0.012641
   9 C :   -0.131741
  10 H :    0.028400
  11 H :    0.044551
  12 C :   -0.035902
  13 H :    0.029075
  14 H :    0.024120
  15 H :    0.045346
  16 S :    0.117919
  17 C :   -0.091347
  18 C :   -0.025328
  19 C :   -0.105930
  20 C :   -0.146831
  21 H :    0.013465
  22 C :    0.058441
  23 H :    0.014088
  24 H :    0.037624
  25 C :   -0.041457
  26 H :    0.034924
  27 H :    0.023251
  28 C :   -0.059098
  29 H :    0.038966
  30 H :    0.029599
  31 H :    0.039650
  32 H :    0.014844
  33 H :    0.081858
Sum of atomic charges:    0.0000000

LOEWDIN ATOMIC CHARGES
----------------------
   0 S :    0.416312
   1 C :   -0.188218
   2 C :   -0.063913
   3 C :   -0.062867
   4 C :   -0.198221
   5 H :    0.024694
   6 C :   -0.029982
   7 H :    0.037293
   8 H :    0.027175
   9 C :   -0.052277
  10 H :    0.022987
  11 H :    0.031385
  12 C :   -0.062259
  13 H :    0.008869
  14 H :    0.026845
  15 H :    0.034341
  16 S :    0.432825
  17 C :   -0.209646
  18 C :   -0.075618
  19 C :   -0.044051
  20 C :   -0.207859
  21 H :    0.023843
  22 C :   -0.033970
  23 H :    0.027165
  24 H :    0.033620
  25 C :   -0.054375
  26 H :    0.033484
  27 H :    0.025861
  28 C :   -0.068204
  29 H :    0.028547
  30 H :    0.028437
  31 H :    0.029188
  32 H :    0.014790
  33 H :    0.043797

  Mayer bond orders larger than 0.100000
B(  0-S ,  1-C ) :   1.1301 B(  0-S ,  4-C ) :   1.1585 B(  1-C ,  2-C ) :   1.6187
B(  1-C , 32-H ) :   0.9859 B(  2-C ,  3-C ) :   1.2128 B(  2-C ,  6-C ) :   1.0307
B(  3-C ,  4-C ) :   1.5783 B(  3-C ,  5-H ) :   0.9978 B(  4-C , 20-C ) :   1.0533
B(  6-C ,  7-H ) :   0.9371 B(  6-C ,  8-H ) :   0.9412 B(  6-C ,  9-C ) :   1.0730
B(  9-C , 10-H ) :   0.9556 B(  9-C , 11-H ) :   0.9564 B(  9-C , 12-C ) :   1.0646
B( 12-C , 13-H ) :   0.9774 B( 12-C , 14-H ) :   0.9698 B( 12-C , 15-H ) :   0.9718
B( 16-S , 17-C ) :   1.1962 B( 16-S , 20-C ) :   1.1299 B( 17-C , 18-C ) :   1.5792
B( 17-C , 33-H ) :   0.9573 B( 18-C , 19-C ) :   1.2601 B( 18-C , 21-H ) :   0.9915
B( 19-C , 20-C ) :   1.5814 B( 19-C , 22-C ) :   1.0255 B( 22-C , 23-H ) :   0.9373
B( 22-C , 24-H ) :   0.9318 B( 22-C , 25-C ) :   1.0606 B( 25-C , 26-H ) :   0.9407
B( 25-C , 27-H ) :   0.9503 B( 25-C , 28-C ) :   1.0922 B( 28-C , 29-H ) :   0.9736
B( 28-C , 30-H ) :   0.9742 B( 28-C , 31-H ) :   0.9727

Dispersion correction           -0.016050242
FINAL SINGLE POINT ENERGY     -1339.870004281665

DIPOLE MOMENT
-------------
                                X             Y             Z
Electronic contribution:     20.02632      21.21702      -8.23516
Nuclear contribution   :    -20.53032     -21.57430       8.29621
                        -----------------------------------------
Total Dipole Moment    :     -0.50400      -0.35729       0.06105
                        -----------------------------------------
Magnitude (a.u.)       :      0.62081
Magnitude (Debye)      :      1.57796

Rotational constants in cm-1:     0.019134     0.010210     0.007554
Rotational constants in MHz :   573.627145   306.102698   226.471072

                             ****ORCA TERMINATED NORMALLY****
TOTAL RUN TIME: 0 days 0 hours 0 minutes 22 seconds 982 msec
