                         Program Version 4.2.1 -  RELEASE  -
|  1> ! wB97X-D3 SP def2-SVP
|  2> %pal
|  3> nprocs 24
|  4> end
|  5>
|  6> * xyz 0 1
|  7> S 	 -33.4857 	 15.7017 	 15.9625
|  8> C 	 -31.8314 	 16.1444 	 16.2957
|  9> C 	 -31.212 	 16.5248 	 15.1265
| 10> C 	 -32.0354 	 16.415 	 13.986
| 11> C 	 -33.2947 	 15.99 	 14.2655
| 12> H 	 -31.7955 	 16.759 	 12.9483
| 13> C 	 -29.772 	 16.9552 	 14.9776
| 14> H 	 -29.4323 	 17.4203 	 15.8722
| 15> H 	 -29.6339 	 17.8615 	 14.4021
| 16> C 	 -28.8237 	 15.8255 	 14.6435
| 17> H 	 -28.9635 	 14.8922 	 15.2125
| 18> H 	 -29.1173 	 15.504 	 13.6089
| 19> C 	 -27.3658 	 16.3107 	 14.7227
| 20> H 	 -27.0809 	 17.0001 	 15.5591
| 21> H 	 -26.6119 	 15.4624 	 14.7889
| 22> H 	 -27.0466 	 16.864 	 13.8154
| 23> S 	 -34.9023 	 13.9466 	 13.4586
| 24> C 	 -36.1041 	 14.1976 	 12.2303
| 25> C 	 -35.8918 	 15.3837 	 11.5917
| 26> C 	 -34.7799 	 16.1059 	 12.1565
| 27> C 	 -34.2292 	 15.5433 	 13.262
| 28> H 	 -36.4305 	 15.5984 	 10.6874
| 29> C 	 -34.2907 	 17.4881 	 11.6419
| 30> H 	 -33.2661 	 17.2242 	 11.3616
| 31> H 	 -34.2538 	 18.1249 	 12.5481
| 32> C 	 -34.9617 	 18.1911 	 10.4847
| 33> H 	 -35.9192 	 18.4757 	 10.7985
| 34> H 	 -35.1679 	 17.5134 	 9.69501
| 35> C 	 -34.0534 	 19.337 	 10.1667
| 36> H 	 -33.1206 	 18.9301 	 9.96787
| 37> H 	 -33.9901 	 20.0523 	 10.9444
| 38> H 	 -34.3928 	 19.9899 	 9.3371
| 39> H 	 -31.2955 	 15.9147 	 17.2183
| 40> H 	 -36.793 	 13.4151 	 11.8711
| 41> *
| 42>
| 43>                          ****END OF INPUT****

CARTESIAN COORDINATES (ANGSTROEM)
---------------------------------
  S    -33.485700   15.701700   15.962500
  C    -31.831400   16.144400   16.295700
  C    -31.212000   16.524800   15.126500
  C    -32.035400   16.415000   13.986000
  C    -33.294700   15.990000   14.265500
  H    -31.795500   16.759000   12.948300
  C    -29.772000   16.955200   14.977600
  H    -29.432300   17.420300   15.872200
  H    -29.633900   17.861500   14.402100
  C    -28.823700   15.825500   14.643500
  H    -28.963500   14.892200   15.212500
  H    -29.117300   15.504000   13.608900
  C    -27.365800   16.310700   14.722700
  H    -27.080900   17.000100   15.559100
  H    -26.611900   15.462400   14.788900
  H    -27.046600   16.864000   13.815400
  S    -34.902300   13.946600   13.458600
  C    -36.104100   14.197600   12.230300
  C    -35.891800   15.383700   11.591700
  C    -34.779900   16.105900   12.156500
  C    -34.229200   15.543300   13.262000
  H    -36.430500   15.598400   10.687400
  C    -34.290700   17.488100   11.641900
  H    -33.266100   17.224200   11.361600
  H    -34.253800   18.124900   12.548100
  C    -34.961700   18.191100   10.484700
  H    -35.919200   18.475700   10.798500
  H    -35.167900   17.513400    9.695010
  C    -34.053400   19.337000   10.166700
  H    -33.120600   18.930100    9.967870
  H    -33.990100   20.052300   10.944400
  H    -34.392800   19.989900    9.337100
  H    -31.295500   15.914700   17.218300
  H    -36.793000   13.415100   11.871100

 Total Charge           Charge          ....    0
 Multiplicity           Mult            ....    1
 Number of Electrons    NEL             ....  134
 Basis Dimension        Dim             ....  322

ORBITAL ENERGIES
----------------

  NO   OCC          E(Eh)            E(eV)
   0   2.0000     -88.967308     -2420.9235
   1   2.0000     -88.958482     -2420.6834
   2   2.0000     -10.324388      -280.9409
   3   2.0000     -10.318312      -280.7755
   4   2.0000     -10.315029      -280.6862
   5   2.0000     -10.314206      -280.6638
   6   2.0000     -10.300052      -280.2787
   7   2.0000     -10.298204      -280.2284
   8   2.0000     -10.292080      -280.0617
   9   2.0000     -10.291275      -280.0398
  10   2.0000     -10.291136      -280.0360
  11   2.0000     -10.290751      -280.0256
  12   2.0000     -10.288167      -279.9553
  13   2.0000     -10.284566      -279.8573
  14   2.0000     -10.277180      -279.6563
  15   2.0000     -10.270608      -279.4774
  16   2.0000      -8.082377      -219.9327
  17   2.0000      -8.073947      -219.7033
  18   2.0000      -6.040869      -164.3804
  19   2.0000      -6.036755      -164.2685
  20   2.0000      -6.033186      -164.1713
  21   2.0000      -6.032461      -164.1516
  22   2.0000      -6.028321      -164.0390
  23   2.0000      -6.024672      -163.9397
  24   2.0000      -1.014280       -27.6000
  25   2.0000      -0.989749       -26.9324
  26   2.0000      -0.919340       -25.0165
  27   2.0000      -0.914433       -24.8830
  28   2.0000      -0.874674       -23.8011
  29   2.0000      -0.853310       -23.2197
  30   2.0000      -0.844332       -22.9754
  31   2.0000      -0.817322       -22.2405
  32   2.0000      -0.779260       -21.2047
  33   2.0000      -0.770691       -20.9716
  34   2.0000      -0.716065       -19.4851
  35   2.0000      -0.704872       -19.1805
  36   2.0000      -0.700679       -19.0664
  37   2.0000      -0.656249       -17.8574
  38   2.0000      -0.642786       -17.4911
  39   2.0000      -0.621948       -16.9241
  40   2.0000      -0.595547       -16.2056
  41   2.0000      -0.582524       -15.8513
  42   2.0000      -0.573150       -15.5962
  43   2.0000      -0.551233       -14.9998
  44   2.0000      -0.528384       -14.3780
  45   2.0000      -0.525869       -14.3096
  46   2.0000      -0.518865       -14.1190
  47   2.0000      -0.514836       -14.0094
  48   2.0000      -0.508781       -13.8446
  49   2.0000      -0.502610       -13.6767
  50   2.0000      -0.488372       -13.2893
  51   2.0000      -0.482330       -13.1249
  52   2.0000      -0.472623       -12.8607
  53   2.0000      -0.464707       -12.6453
  54   2.0000      -0.461444       -12.5565
  55   2.0000      -0.448464       -12.2033
  56   2.0000      -0.445449       -12.1213
  57   2.0000      -0.440246       -11.9797
  58   2.0000      -0.432658       -11.7732
  59   2.0000      -0.430832       -11.7235
  60   2.0000      -0.422117       -11.4864
  61   2.0000      -0.409694       -11.1483
  62   2.0000      -0.403354       -10.9758
  63   2.0000      -0.349778        -9.5179
  64   2.0000      -0.332941        -9.0598
  65   2.0000      -0.325515        -8.8577
  66   2.0000      -0.293892        -7.9972
  67   0.0000       0.029432         0.8009
  68   0.0000       0.075810         2.0629
  69   0.0000       0.118765         3.2318
  70   0.0000       0.123350         3.3565
  71   0.0000       0.138351         3.7647

MULLIKEN ATOMIC CHARGES
-----------------------
   0 S :    0.120231
   1 C :   -0.127745
   2 C :   -0.071604
   3 C :   -0.000893
   4 C :   -0.137960
   5 H :    0.030182
   6 C :    0.075923
   7 H :   -0.009816
   8 H :    0.019527
   9 C :   -0.051326
  10 H :    0.036976
  11 H :    0.029486
  12 C :   -0.089739
  13 H :    0.039378
  14 H :    0.040352
  15 H :    0.035407
  16 S :    0.095750
  17 C :   -0.096548
  18 C :   -0.037629
  19 C :   -0.034106
  20 C :   -0.155336
  21 H :    0.014443
  22 C :   -0.039066
  23 H :    0.034005
  24 H :    0.050702
  25 C :    0.012713
  26 H :    0.009983
  27 H :    0.016934
  28 C :    0.008542
  29 H :    0.010208
  30 H :    0.017511
  31 H :    0.027134
  32 H :    0.059020
  33 H :    0.067359
Sum of atomic charges:   -0.0000000

LOEWDIN ATOMIC CHARGES
----------------------
   0 S :    0.421338
   1 C :   -0.201035
   2 C :   -0.062475
   3 C :   -0.065649
   4 C :   -0.202477
   5 H :    0.039186
   6 C :   -0.040167
   7 H :    0.021976
   8 H :    0.033057
   9 C :   -0.042271
  10 H :    0.028693
  11 H :    0.029372
  12 C :   -0.081945
  13 H :    0.028399
  14 H :    0.031943
  15 H :    0.028009
  16 S :    0.405626
  17 C :   -0.188361
  18 C :   -0.080746
  19 C :   -0.057644
  20 C :   -0.202033
  21 H :    0.029933
  22 C :   -0.032304
  23 H :    0.027560
  24 H :    0.038110
  25 C :   -0.035478
  26 H :    0.018483
  27 H :    0.019888
  28 C :   -0.049956
  29 H :    0.016400
  30 H :    0.023543
  31 H :    0.029031
  32 H :    0.035455
  33 H :    0.036536

  Mayer bond orders larger than 0.100000
B(  0-S ,  1-C ) :   1.1390 B(  0-S ,  4-C ) :   1.1576 B(  1-C ,  2-C ) :   1.6026
B(  1-C , 32-H ) :   0.9655 B(  2-C ,  3-C ) :   1.2635 B(  2-C ,  6-C ) :   1.0266
B(  3-C ,  4-C ) :   1.5550 B(  3-C ,  5-H ) :   0.9838 B(  4-C , 20-C ) :   1.0465
B(  6-C ,  7-H ) :   0.9333 B(  6-C ,  8-H ) :   0.9385 B(  6-C ,  9-C ) :   1.0494
B(  9-C , 10-H ) :   0.9611 B(  9-C , 11-H ) :   0.9544 B(  9-C , 12-C ) :   1.0641
B( 12-C , 13-H ) :   0.9767 B( 12-C , 14-H ) :   0.9761 B( 12-C , 15-H ) :   0.9752
B( 16-S , 17-C ) :   1.1622 B( 16-S , 20-C ) :   1.1284 B( 17-C , 18-C ) :   1.6027
B( 17-C , 33-H ) :   0.9606 B( 18-C , 19-C ) :   1.2438 B( 18-C , 21-H ) :   0.9936
B( 19-C , 20-C ) :   1.6263 B( 19-C , 22-C ) :   0.9981 B( 22-C , 23-H ) :   0.9373
B( 22-C , 24-H ) :   0.9397 B( 22-C , 25-C ) :   1.0827 B( 25-C , 26-H ) :   0.9419
B( 25-C , 27-H ) :   0.9457 B( 25-C , 28-C ) :   1.0846 B( 28-C , 29-H ) :   0.9752
B( 28-C , 30-H ) :   0.9708 B( 28-C , 31-H ) :   0.9682

Dispersion correction           -0.013535558
FINAL SINGLE POINT ENERGY     -1339.869076880810

DIPOLE MOMENT
-------------
                                X             Y             Z
Electronic contribution:    -19.26028     -16.16572      12.81669
Nuclear contribution   :     19.64441      16.49919     -13.26414
                        -----------------------------------------
Total Dipole Moment    :      0.38412       0.33347      -0.44745
                        -----------------------------------------
Magnitude (a.u.)       :      0.67747
Magnitude (Debye)      :      1.72200

Rotational constants in cm-1:     0.017403     0.008229     0.006394
Rotational constants in MHz :   521.728506   246.687842   191.695624

                             ****ORCA TERMINATED NORMALLY****
TOTAL RUN TIME: 0 days 0 hours 0 minutes 20 seconds 130 msec
