                         Program Version 4.2.1 -  RELEASE  -
|  1> ! wB97X-D3 SP def2-SVP
|  2> %pal
|  3> nprocs 24
|  4> end
|  5>
|  6> * xyz 0 1
|  7> S 	 -149.92 	 5.16118 	 9.85879
|  8> C 	 -148.715 	 3.94201 	 9.69846
|  9> C 	 -148.529 	 3.50664 	 8.41705
| 10> C 	 -149.402 	 4.1518 	 7.51143
| 11> C 	 -150.184 	 5.13069 	 8.14179
| 12> H 	 -149.546 	 3.82994 	 6.50905
| 13> C 	 -147.653 	 2.40121 	 7.87982
| 14> H 	 -146.821 	 2.24827 	 8.57807
| 15> H 	 -147.142 	 2.75144 	 6.93892
| 16> C 	 -148.242 	 1.05085 	 7.67777
| 17> H 	 -148.889 	 0.855109 	 8.60258
| 18> H 	 -148.834 	 1.04161 	 6.79954
| 19> C 	 -147.089 	 -0.00900101 	 7.40197
| 20> H 	 -146.472 	 0.251164 	 6.52769
| 21> H 	 -146.356 	 -0.243346 	 8.21608
| 22> H 	 -147.592 	 -0.923138 	 7.19509
| 23> S 	 -152.663 	 6.11391 	 7.95611
| 24> C 	 -153.059 	 7.16402 	 6.60214
| 25> C 	 -151.964 	 7.40804 	 5.83162
| 26> C 	 -150.748 	 6.83775 	 6.35855
| 27> C 	 -151.021 	 6.03605 	 7.46274
| 28> H 	 -152.054 	 8.12249 	 4.98184
| 29> C 	 -149.4 	 7.02303 	 5.72162
| 30> H 	 -148.584 	 6.63913 	 6.36232
| 31> H 	 -149.044 	 8.04157 	 5.58528
| 32> C 	 -149.269 	 6.24882 	 4.40637
| 33> H 	 -150.061 	 6.31202 	 3.69362
| 34> H 	 -149.278 	 5.15836 	 4.6467
| 35> C 	 -147.921 	 6.61722 	 3.7472
| 36> H 	 -147.009 	 6.33783 	 4.33937
| 37> H 	 -147.736 	 7.6463 	 3.44726
| 38> H 	 -147.763 	 5.98658 	 2.85499
| 39> H 	 -148.163 	 3.62091 	 10.5764
| 40> H 	 -153.998 	 7.57877 	 6.47733
| 41> *
| 42>
| 43>                          ****END OF INPUT****

CARTESIAN COORDINATES (ANGSTROEM)
---------------------------------
  S    -149.920000    5.161180    9.858790
  C    -148.715000    3.942010    9.698460
  C    -148.529000    3.506640    8.417050
  C    -149.402000    4.151800    7.511430
  C    -150.184000    5.130690    8.141790
  H    -149.546000    3.829940    6.509050
  C    -147.653000    2.401210    7.879820
  H    -146.821000    2.248270    8.578070
  H    -147.142000    2.751440    6.938920
  C    -148.242000    1.050850    7.677770
  H    -148.889000    0.855109    8.602580
  H    -148.834000    1.041610    6.799540
  C    -147.089000   -0.009001    7.401970
  H    -146.472000    0.251164    6.527690
  H    -146.356000   -0.243346    8.216080
  H    -147.592000   -0.923138    7.195090
  S    -152.663000    6.113910    7.956110
  C    -153.059000    7.164020    6.602140
  C    -151.964000    7.408040    5.831620
  C    -150.748000    6.837750    6.358550
  C    -151.021000    6.036050    7.462740
  H    -152.054000    8.122490    4.981840
  C    -149.400000    7.023030    5.721620
  H    -148.584000    6.639130    6.362320
  H    -149.044000    8.041570    5.585280
  C    -149.269000    6.248820    4.406370
  H    -150.061000    6.312020    3.693620
  H    -149.278000    5.158360    4.646700
  C    -147.921000    6.617220    3.747200
  H    -147.009000    6.337830    4.339370
  H    -147.736000    7.646300    3.447260
  H    -147.763000    5.986580    2.854990
  H    -148.163000    3.620910   10.576400
  H    -153.998000    7.578770    6.477330

 Total Charge           Charge          ....    0
 Multiplicity           Mult            ....    1
 Number of Electrons    NEL             ....  134
 Basis Dimension        Dim             ....  322

ORBITAL ENERGIES
----------------

  NO   OCC          E(Eh)            E(eV)
   0   2.0000     -88.967864     -2420.9386
   1   2.0000     -88.961174     -2420.7566
   2   2.0000     -10.322684      -280.8945
   3   2.0000     -10.317535      -280.7544
   4   2.0000     -10.311360      -280.5864
   5   2.0000     -10.310241      -280.5559
   6   2.0000     -10.302455      -280.3441
   7   2.0000     -10.295691      -280.1600
   8   2.0000     -10.295444      -280.1533
   9   2.0000     -10.292084      -280.0619
  10   2.0000     -10.289875      -280.0017
  11   2.0000     -10.289239      -279.9844
  12   2.0000     -10.288642      -279.9682
  13   2.0000     -10.288128      -279.9542
  14   2.0000     -10.284596      -279.8581
  15   2.0000     -10.281034      -279.7612
  16   2.0000      -8.083450      -219.9619
  17   2.0000      -8.076880      -219.7831
  18   2.0000      -6.041756      -164.4045
  19   2.0000      -6.037862      -164.2986
  20   2.0000      -6.035300      -164.2289
  21   2.0000      -6.034364      -164.2034
  22   2.0000      -6.031302      -164.1201
  23   2.0000      -6.027631      -164.0202
  24   2.0000      -1.013209       -27.5708
  25   2.0000      -0.987545       -26.8725
  26   2.0000      -0.915330       -24.9074
  27   2.0000      -0.908714       -24.7274
  28   2.0000      -0.875173       -23.8147
  29   2.0000      -0.853080       -23.2135
  30   2.0000      -0.845163       -22.9981
  31   2.0000      -0.811068       -22.0703
  32   2.0000      -0.781117       -21.2553
  33   2.0000      -0.769890       -20.9498
  34   2.0000      -0.708278       -19.2732
  35   2.0000      -0.702116       -19.1056
  36   2.0000      -0.699200       -19.0262
  37   2.0000      -0.663594       -18.0573
  38   2.0000      -0.642647       -17.4873
  39   2.0000      -0.624885       -17.0040
  40   2.0000      -0.604457       -16.4481
  41   2.0000      -0.571618       -15.5545
  42   2.0000      -0.559122       -15.2145
  43   2.0000      -0.553843       -15.0708
  44   2.0000      -0.524991       -14.2857
  45   2.0000      -0.522006       -14.2045
  46   2.0000      -0.515799       -14.0356
  47   2.0000      -0.511385       -13.9155
  48   2.0000      -0.506146       -13.7729
  49   2.0000      -0.502039       -13.6612
  50   2.0000      -0.494043       -13.4436
  51   2.0000      -0.474304       -12.9065
  52   2.0000      -0.467778       -12.7289
  53   2.0000      -0.466452       -12.6928
  54   2.0000      -0.454230       -12.3602
  55   2.0000      -0.452484       -12.3127
  56   2.0000      -0.448578       -12.2064
  57   2.0000      -0.439640       -11.9632
  58   2.0000      -0.438674       -11.9369
  59   2.0000      -0.423958       -11.5365
  60   2.0000      -0.420971       -11.4552
  61   2.0000      -0.416175       -11.3247
  62   2.0000      -0.412421       -11.2226
  63   2.0000      -0.346405        -9.4262
  64   2.0000      -0.334460        -9.1011
  65   2.0000      -0.326748        -8.8913
  66   2.0000      -0.290970        -7.9177
  67   0.0000       0.032173         0.8755
  68   0.0000       0.074689         2.0324
  69   0.0000       0.113064         3.0766
  70   0.0000       0.119461         3.2507
  71   0.0000       0.130020         3.5380

MULLIKEN ATOMIC CHARGES
-----------------------
   0 S :    0.127658
   1 C :   -0.136406
   2 C :   -0.047654
   3 C :    0.018821
   4 C :   -0.151760
   5 H :    0.010392
   6 C :    0.035771
   7 H :    0.011460
   8 H :    0.028314
   9 C :   -0.054396
  10 H :    0.048297
  11 H :    0.021560
  12 C :   -0.069482
  13 H :    0.034221
  14 H :    0.041998
  15 H :    0.029453
  16 S :    0.100295
  17 C :   -0.067413
  18 C :   -0.037355
  19 C :   -0.004183
  20 C :   -0.160284
  21 H :    0.034039
  22 C :    0.055227
  23 H :    0.029989
  24 H :    0.026241
  25 C :   -0.066368
  26 H :    0.026899
  27 H :    0.017489
  28 C :   -0.069911
  29 H :    0.028547
  30 H :    0.036544
  31 H :    0.027208
  32 H :    0.045020
  33 H :    0.029767
Sum of atomic charges:   -0.0000000

LOEWDIN ATOMIC CHARGES
----------------------
   0 S :    0.426622
   1 C :   -0.203002
   2 C :   -0.068597
   3 C :   -0.050060
   4 C :   -0.201643
   5 H :    0.025376
   6 C :   -0.043449
   7 H :    0.027433
   8 H :    0.033201
   9 C :   -0.035645
  10 H :    0.037080
  11 H :    0.017808
  12 C :   -0.068486
  13 H :    0.027987
  14 H :    0.029308
  15 H :    0.021779
  16 S :    0.408811
  17 C :   -0.170344
  18 C :   -0.068918
  19 C :   -0.053035
  20 C :   -0.211287
  21 H :    0.039211
  22 C :   -0.037139
  23 H :    0.037050
  24 H :    0.029688
  25 C :   -0.036640
  26 H :    0.018470
  27 H :    0.026174
  28 C :   -0.076476
  29 H :    0.028915
  30 H :    0.023065
  31 H :    0.026679
  32 H :    0.026137
  33 H :    0.013928

  Mayer bond orders larger than 0.100000
B(  0-S ,  1-C ) :   1.1438 B(  0-S ,  4-C ) :   1.1682 B(  1-C ,  2-C ) :   1.5988
B(  1-C , 32-H ) :   0.9687 B(  2-C ,  3-C ) :   1.2540 B(  2-C ,  6-C ) :   1.0295
B(  3-C ,  4-C ) :   1.5304 B(  3-C ,  5-H ) :   1.0029 B(  4-C , 20-C ) :   1.0520
B(  6-C ,  7-H ) :   0.9397 B(  6-C ,  8-H ) :   0.9329 B(  6-C ,  9-C ) :   1.0704
B(  9-C , 10-H ) :   0.9535 B(  9-C , 11-H ) :   0.9511 B(  9-C , 12-C ) :   1.0726
B( 12-C , 13-H ) :   0.9741 B( 12-C , 14-H ) :   0.9771 B( 12-C , 15-H ) :   0.9768
B( 16-S , 17-C ) :   1.1409 B( 16-S , 20-C ) :   1.1476 B( 17-C , 18-C ) :   1.6275
B( 17-C , 33-H ) :   0.9800 B( 18-C , 19-C ) :   1.2160 B( 18-C , 21-H ) :   0.9834
B( 19-C , 20-C ) :   1.5922 B( 19-C , 22-C ) :   1.0538 B( 22-C , 23-H ) :   0.9266
B( 22-C , 24-H ) :   0.9431 B( 22-C , 25-C ) :   1.0483 B( 25-C , 26-H ) :   0.9621
B( 25-C , 27-H ) :   0.9465 B( 25-C , 28-C ) :   1.0797 B( 28-C , 29-H ) :   0.9725
B( 28-C , 30-H ) :   0.9769 B( 28-C , 31-H ) :   0.9724

Dispersion correction           -0.014293949
FINAL SINGLE POINT ENERGY     -1339.884813582606

DIPOLE MOMENT
-------------
                                X             Y             Z
Electronic contribution:    -21.22643      13.42031      18.83396
Nuclear contribution   :     21.61107     -13.60812     -19.30555
                        -----------------------------------------
Total Dipole Moment    :      0.38463      -0.18781      -0.47159
                        -----------------------------------------
Magnitude (a.u.)       :      0.63688
Magnitude (Debye)      :      1.61881

Rotational constants in cm-1:     0.017317     0.008959     0.006780
Rotational constants in MHz :   519.138581   268.578445   203.273268

                             ****ORCA TERMINATED NORMALLY****
TOTAL RUN TIME: 0 days 0 hours 0 minutes 21 seconds 804 msec
