                         Program Version 4.2.1 -  RELEASE  -
|  1> ! wB97X-D3 SP def2-SVP
|  2> %pal
|  3> nprocs 24
|  4> end
|  5>
|  6> * xyz 0 1
|  7> S 	 -118.685 	 62.4806 	 -39.3355
|  8> C 	 -118.915 	 62.2383 	 -41.0476
|  9> C 	 -118.822 	 60.8964 	 -41.3436
| 10> C 	 -118.501 	 60.1189 	 -40.2504
| 11> C 	 -118.49 	 60.807 	 -39.043
| 12> H 	 -118.406 	 59.0081 	 -40.2473
| 13> C 	 -119.148 	 60.3027 	 -42.6909
| 14> H 	 -118.185 	 60.1935 	 -43.0519
| 15> H 	 -119.619 	 60.9963 	 -43.3874
| 16> C 	 -119.767 	 58.9632 	 -42.7602
| 17> H 	 -119.788 	 58.5858 	 -43.8249
| 18> H 	 -119.263 	 58.1509 	 -42.1555
| 19> C 	 -121.276 	 59.0396 	 -42.4009
| 20> H 	 -121.766 	 59.6037 	 -43.216
| 21> H 	 -121.65 	 58.0008 	 -42.3578
| 22> H 	 -121.477 	 59.544 	 -41.4244
| 23> S 	 -117.679 	 61.1785 	 -36.399
| 24> C 	 -117.48 	 59.8777 	 -35.3294
| 25> C 	 -118.08 	 58.7678 	 -35.9056
| 26> C 	 -118.446 	 58.9526 	 -37.2452
| 27> C 	 -118.136 	 60.1997 	 -37.7403
| 28> H 	 -118.204 	 57.8766 	 -35.3215
| 29> C 	 -119.271 	 57.865 	 -37.9151
| 30> H 	 -119.195 	 56.8522 	 -37.3764
| 31> H 	 -118.811 	 57.7267 	 -38.9445
| 32> C 	 -120.777 	 58.1055 	 -38.1163
| 33> H 	 -120.901 	 58.955 	 -38.7152
| 34> H 	 -121.213 	 58.5242 	 -37.241
| 35> C 	 -121.543 	 57.0507 	 -38.8323
| 36> H 	 -121.538 	 56.1885 	 -38.1664
| 37> H 	 -121.056 	 56.8762 	 -39.799
| 38> H 	 -122.565 	 57.3239 	 -38.9418
| 39> H 	 -119.152 	 62.975 	 -41.8183
| 40> H 	 -117.033 	 59.8497 	 -34.3525
| 41> *
| 42>
| 43>                          ****END OF INPUT****

CARTESIAN COORDINATES (ANGSTROEM)
---------------------------------
  S    -118.685000   62.480600  -39.335500
  C    -118.915000   62.238300  -41.047600
  C    -118.822000   60.896400  -41.343600
  C    -118.501000   60.118900  -40.250400
  C    -118.490000   60.807000  -39.043000
  H    -118.406000   59.008100  -40.247300
  C    -119.148000   60.302700  -42.690900
  H    -118.185000   60.193500  -43.051900
  H    -119.619000   60.996300  -43.387400
  C    -119.767000   58.963200  -42.760200
  H    -119.788000   58.585800  -43.824900
  H    -119.263000   58.150900  -42.155500
  C    -121.276000   59.039600  -42.400900
  H    -121.766000   59.603700  -43.216000
  H    -121.650000   58.000800  -42.357800
  H    -121.477000   59.544000  -41.424400
  S    -117.679000   61.178500  -36.399000
  C    -117.480000   59.877700  -35.329400
  C    -118.080000   58.767800  -35.905600
  C    -118.446000   58.952600  -37.245200
  C    -118.136000   60.199700  -37.740300
  H    -118.204000   57.876600  -35.321500
  C    -119.271000   57.865000  -37.915100
  H    -119.195000   56.852200  -37.376400
  H    -118.811000   57.726700  -38.944500
  C    -120.777000   58.105500  -38.116300
  H    -120.901000   58.955000  -38.715200
  H    -121.213000   58.524200  -37.241000
  C    -121.543000   57.050700  -38.832300
  H    -121.538000   56.188500  -38.166400
  H    -121.056000   56.876200  -39.799000
  H    -122.565000   57.323900  -38.941800
  H    -119.152000   62.975000  -41.818300
  H    -117.033000   59.849700  -34.352500

 Total Charge           Charge          ....    0
 Multiplicity           Mult            ....    1
 Number of Electrons    NEL             ....  134
 Basis Dimension        Dim             ....  322

ORBITAL ENERGIES
----------------

  NO   OCC          E(Eh)            E(eV)
   0   2.0000     -88.969907     -2420.9943
   1   2.0000     -88.966802     -2420.9098
   2   2.0000     -10.331775      -281.1419
   3   2.0000     -10.328658      -281.0571
   4   2.0000     -10.314202      -280.6637
   5   2.0000     -10.310351      -280.5589
   6   2.0000     -10.301246      -280.3112
   7   2.0000     -10.300304      -280.2855
   8   2.0000     -10.295949      -280.1670
   9   2.0000     -10.294779      -280.1352
  10   2.0000     -10.289663      -279.9960
  11   2.0000     -10.288489      -279.9640
  12   2.0000     -10.283172      -279.8193
  13   2.0000     -10.281868      -279.7839
  14   2.0000     -10.274196      -279.5751
  15   2.0000     -10.269821      -279.4560
  16   2.0000      -8.084960      -220.0029
  17   2.0000      -8.082886      -219.9465
  18   2.0000      -6.043444      -164.4505
  19   2.0000      -6.041328      -164.3929
  20   2.0000      -6.039368      -164.3396
  21   2.0000      -6.037194      -164.2804
  22   2.0000      -6.035793      -164.2423
  23   2.0000      -6.033648      -164.1839
  24   2.0000      -1.019636       -27.7457
  25   2.0000      -0.998695       -27.1759
  26   2.0000      -0.922460       -25.1014
  27   2.0000      -0.912956       -24.8428
  28   2.0000      -0.871813       -23.7232
  29   2.0000      -0.860828       -23.4243
  30   2.0000      -0.847065       -23.0498
  31   2.0000      -0.817127       -22.2352
  32   2.0000      -0.785122       -21.3643
  33   2.0000      -0.776259       -21.1231
  34   2.0000      -0.710668       -19.3382
  35   2.0000      -0.696374       -18.9493
  36   2.0000      -0.691625       -18.8201
  37   2.0000      -0.663813       -18.0633
  38   2.0000      -0.636172       -17.3111
  39   2.0000      -0.628770       -17.1097
  40   2.0000      -0.599532       -16.3141
  41   2.0000      -0.574974       -15.6458
  42   2.0000      -0.565778       -15.3956
  43   2.0000      -0.561247       -15.2723
  44   2.0000      -0.540317       -14.7028
  45   2.0000      -0.527557       -14.3556
  46   2.0000      -0.524561       -14.2740
  47   2.0000      -0.519334       -14.1318
  48   2.0000      -0.511837       -13.9278
  49   2.0000      -0.499562       -13.5938
  50   2.0000      -0.489955       -13.3324
  51   2.0000      -0.486747       -13.2451
  52   2.0000      -0.473128       -12.8745
  53   2.0000      -0.470894       -12.8137
  54   2.0000      -0.463617       -12.6157
  55   2.0000      -0.450014       -12.2455
  56   2.0000      -0.442810       -12.0495
  57   2.0000      -0.438947       -11.9444
  58   2.0000      -0.431475       -11.7410
  59   2.0000      -0.425377       -11.5751
  60   2.0000      -0.422133       -11.4868
  61   2.0000      -0.412546       -11.2259
  62   2.0000      -0.401304       -10.9200
  63   2.0000      -0.359310        -9.7773
  64   2.0000      -0.334871        -9.1123
  65   2.0000      -0.327664        -8.9162
  66   2.0000      -0.283191        -7.7060
  67   0.0000       0.020648         0.5619
  68   0.0000       0.084358         2.2955
  69   0.0000       0.104772         2.8510
  70   0.0000       0.118494         3.2244
  71   0.0000       0.132766         3.6127

MULLIKEN ATOMIC CHARGES
-----------------------
   0 S :    0.115536
   1 C :   -0.138624
   2 C :   -0.081282
   3 C :   -0.023253
   4 C :   -0.108302
   5 H :    0.006804
   6 C :    0.144070
   7 H :    0.018559
   8 H :    0.013287
   9 C :   -0.125907
  10 H :    0.037456
  11 H :    0.038603
  12 C :   -0.078886
  13 H :    0.033003
  14 H :    0.040325
  15 H :    0.053409
  16 S :    0.106813
  17 C :   -0.081531
  18 C :   -0.040485
  19 C :   -0.037030
  20 C :   -0.114259
  21 H :    0.011162
  22 C :    0.002748
  23 H :    0.028839
  24 H :    0.020914
  25 C :   -0.029242
  26 H :   -0.003356
  27 H :    0.007460
  28 C :   -0.005088
  29 H :    0.022733
  30 H :    0.032225
  31 H :    0.030825
  32 H :    0.046332
  33 H :    0.056142
Sum of atomic charges:   -0.0000000

LOEWDIN ATOMIC CHARGES
----------------------
   0 S :    0.428829
   1 C :   -0.213723
   2 C :   -0.060309
   3 C :   -0.078566
   4 C :   -0.195643
   5 H :    0.032283
   6 C :   -0.033995
   7 H :    0.031725
   8 H :    0.032039
   9 C :   -0.048477
  10 H :    0.034333
  11 H :    0.025233
  12 C :   -0.071404
  13 H :    0.026244
  14 H :    0.025497
  15 H :    0.027867
  16 S :    0.442514
  17 C :   -0.200843
  18 C :   -0.071078
  19 C :   -0.066420
  20 C :   -0.202419
  21 H :    0.028433
  22 C :   -0.033558
  23 H :    0.033516
  24 H :    0.027921
  25 C :   -0.049933
  26 H :    0.016568
  27 H :    0.020812
  28 C :   -0.052482
  29 H :    0.022957
  30 H :    0.028150
  31 H :    0.026926
  32 H :    0.033402
  33 H :    0.033602

  Mayer bond orders larger than 0.100000
B(  0-S ,  1-C ) :   1.1359 B(  0-S ,  4-C ) :   1.1743 B(  1-C ,  2-C ) :   1.5808
B(  1-C ,  4-C ) :   0.1009 B(  1-C , 32-H ) :   0.9673 B(  2-C ,  3-C ) :   1.3014
B(  2-C ,  6-C ) :   0.9992 B(  3-C ,  4-C ) :   1.5201 B(  3-C ,  5-H ) :   0.9814
B(  4-C , 20-C ) :   1.0678 B(  6-C ,  7-H ) :   0.9089 B(  6-C ,  8-H ) :   0.9413
B(  6-C ,  9-C ) :   1.0986 B(  9-C , 10-H ) :   0.9491 B(  9-C , 11-H ) :   0.9473
B(  9-C , 12-C ) :   1.0693 B( 12-C , 13-H ) :   0.9730 B( 12-C , 14-H ) :   0.9746
B( 12-C , 15-H ) :   0.9767 B( 16-S , 17-C ) :   1.1853 B( 16-S , 20-C ) :   1.1502
B( 17-C , 18-C ) :   1.5428 B( 17-C , 20-C ) :   0.1026 B( 17-C , 33-H ) :   0.9727
B( 18-C , 19-C ) :   1.3109 B( 18-C , 21-H ) :   0.9975 B( 19-C , 20-C ) :   1.5327
B( 19-C , 22-C ) :   1.0363 B( 22-C , 23-H ) :   0.9403 B( 22-C , 24-H ) :   0.9288
B( 22-C , 25-C ) :   1.0613 B( 25-C , 26-H ) :   0.9389 B( 25-C , 27-H ) :   0.9422
B( 25-C , 28-C ) :   1.0920 B( 28-C , 29-H ) :   0.9749 B( 28-C , 30-H ) :   0.9687
B( 28-C , 31-H ) :   0.9688

Dispersion correction           -0.016094822
FINAL SINGLE POINT ENERGY     -1339.865911508480

DIPOLE MOMENT
-------------
                                X             Y             Z
Electronic contribution:     16.64286      21.81672      16.90324
Nuclear contribution   :    -16.94445     -22.30763     -17.18223
                        -----------------------------------------
Total Dipole Moment    :     -0.30160      -0.49091      -0.27899
                        -----------------------------------------
Magnitude (a.u.)       :      0.64014
Magnitude (Debye)      :      1.62712

Rotational constants in cm-1:     0.018802     0.010800     0.007465
Rotational constants in MHz :   563.676913   323.780228   223.803668

                             ****ORCA TERMINATED NORMALLY****
TOTAL RUN TIME: 0 days 0 hours 0 minutes 22 seconds 493 msec
