                         Program Version 4.2.1 -  RELEASE  -
|  1> ! wB97X-D3 SP def2-SVP
|  2> %pal
|  3> nprocs 24
|  4> end
|  5>
|  6> * xyz 0 1
|  7> S 	 -118.509 	 25.2385 	 -15.8238
|  8> C 	 -117.749 	 25.9078 	 -17.2555
|  9> C 	 -117.794 	 27.3116 	 -17.1737
| 10> C 	 -118.551 	 27.7719 	 -16.06
| 11> C 	 -119.009 	 26.7842 	 -15.2537
| 12> H 	 -118.71 	 28.8322 	 -15.7344
| 13> C 	 -117.208 	 28.2533 	 -18.1367
| 14> H 	 -116.204 	 27.9915 	 -18.3349
| 15> H 	 -117.092 	 29.2511 	 -17.6522
| 16> C 	 -117.968 	 28.5729 	 -19.3753
| 17> H 	 -118.138 	 27.6573 	 -19.9118
| 18> H 	 -118.948 	 28.9687 	 -19.0588
| 19> C 	 -117.35 	 29.7008 	 -20.1811
| 20> H 	 -116.294 	 29.4534 	 -20.0737
| 21> H 	 -117.552 	 29.6047 	 -21.2847
| 22> H 	 -117.614 	 30.7273 	 -19.7363
| 23> S 	 -118.89 	 25.8973 	 -12.6433
| 24> C 	 -119.844 	 26.6292 	 -11.4115
| 25> C 	 -120.635 	 27.6605 	 -11.8834
| 26> C 	 -120.543 	 27.7944 	 -13.2799
| 27> C 	 -119.572 	 26.953 	 -13.9165
| 28> H 	 -121.349 	 28.0697 	 -11.1505
| 29> C 	 -121.537 	 28.7387 	 -14.0124
| 30> H 	 -120.964 	 28.9832 	 -14.9292
| 31> H 	 -121.763 	 29.6725 	 -13.451
| 32> C 	 -122.922 	 28.2513 	 -14.4716
| 33> H 	 -122.822 	 27.3471 	 -15.0547
| 34> H 	 -123.212 	 29.0105 	 -15.2444
| 35> C 	 -124.03 	 28.1093 	 -13.3344
| 36> H 	 -124.988 	 28.1922 	 -13.8874
| 37> H 	 -124.097 	 28.9893 	 -12.8459
| 38> H 	 -123.966 	 27.3441 	 -12.6529
| 39> H 	 -117.131 	 25.3472 	 -17.9943
| 40> H 	 -119.96 	 26.2802 	 -10.4238
| 41> *
| 42>
| 43>                          ****END OF INPUT****

CARTESIAN COORDINATES (ANGSTROEM)
---------------------------------
  S    -118.509000   25.238500  -15.823800
  C    -117.749000   25.907800  -17.255500
  C    -117.794000   27.311600  -17.173700
  C    -118.551000   27.771900  -16.060000
  C    -119.009000   26.784200  -15.253700
  H    -118.710000   28.832200  -15.734400
  C    -117.208000   28.253300  -18.136700
  H    -116.204000   27.991500  -18.334900
  H    -117.092000   29.251100  -17.652200
  C    -117.968000   28.572900  -19.375300
  H    -118.138000   27.657300  -19.911800
  H    -118.948000   28.968700  -19.058800
  C    -117.350000   29.700800  -20.181100
  H    -116.294000   29.453400  -20.073700
  H    -117.552000   29.604700  -21.284700
  H    -117.614000   30.727300  -19.736300
  S    -118.890000   25.897300  -12.643300
  C    -119.844000   26.629200  -11.411500
  C    -120.635000   27.660500  -11.883400
  C    -120.543000   27.794400  -13.279900
  C    -119.572000   26.953000  -13.916500
  H    -121.349000   28.069700  -11.150500
  C    -121.537000   28.738700  -14.012400
  H    -120.964000   28.983200  -14.929200
  H    -121.763000   29.672500  -13.451000
  C    -122.922000   28.251300  -14.471600
  H    -122.822000   27.347100  -15.054700
  H    -123.212000   29.010500  -15.244400
  C    -124.030000   28.109300  -13.334400
  H    -124.988000   28.192200  -13.887400
  H    -124.097000   28.989300  -12.845900
  H    -123.966000   27.344100  -12.652900
  H    -117.131000   25.347200  -17.994300
  H    -119.960000   26.280200  -10.423800

 Total Charge           Charge          ....    0
 Multiplicity           Mult            ....    1
 Number of Electrons    NEL             ....  134
 Basis Dimension        Dim             ....  322

ORBITAL ENERGIES
----------------

  NO   OCC          E(Eh)            E(eV)
   0   2.0000     -88.968312     -2420.9508
   1   2.0000     -88.966843     -2420.9109
   2   2.0000     -10.335694      -281.2485
   3   2.0000     -10.328377      -281.0494
   4   2.0000     -10.321679      -280.8672
   5   2.0000     -10.311902      -280.6011
   6   2.0000     -10.310838      -280.5722
   7   2.0000     -10.302545      -280.3465
   8   2.0000     -10.294191      -280.1192
   9   2.0000     -10.293878      -280.1107
  10   2.0000     -10.292612      -280.0762
  11   2.0000     -10.290676      -280.0235
  12   2.0000     -10.287760      -279.9442
  13   2.0000     -10.282805      -279.8093
  14   2.0000     -10.280091      -279.7355
  15   2.0000     -10.268628      -279.4236
  16   2.0000      -8.083395      -219.9604
  17   2.0000      -8.081328      -219.9041
  18   2.0000      -6.041913      -164.4088
  19   2.0000      -6.039804      -164.3514
  20   2.0000      -6.037762      -164.2958
  21   2.0000      -6.035710      -164.2400
  22   2.0000      -6.034198      -164.1989
  23   2.0000      -6.032305      -164.1474
  24   2.0000      -1.010243       -27.4901
  25   2.0000      -0.985152       -26.8073
  26   2.0000      -0.924935       -25.1688
  27   2.0000      -0.899083       -24.4653
  28   2.0000      -0.871943       -23.7268
  29   2.0000      -0.853140       -23.2151
  30   2.0000      -0.844996       -22.9935
  31   2.0000      -0.816445       -22.2166
  32   2.0000      -0.786407       -21.3992
  33   2.0000      -0.772471       -21.0200
  34   2.0000      -0.709606       -19.3094
  35   2.0000      -0.698681       -19.0121
  36   2.0000      -0.690365       -18.7858
  37   2.0000      -0.659074       -17.9343
  38   2.0000      -0.642866       -17.4933
  39   2.0000      -0.621621       -16.9152
  40   2.0000      -0.589385       -16.0380
  41   2.0000      -0.577380       -15.7113
  42   2.0000      -0.568607       -15.4726
  43   2.0000      -0.549301       -14.9472
  44   2.0000      -0.541092       -14.7239
  45   2.0000      -0.523354       -14.2412
  46   2.0000      -0.519104       -14.1255
  47   2.0000      -0.512197       -13.9376
  48   2.0000      -0.503240       -13.6939
  49   2.0000      -0.500926       -13.6309
  50   2.0000      -0.486326       -13.2336
  51   2.0000      -0.484363       -13.1802
  52   2.0000      -0.479657       -13.0521
  53   2.0000      -0.467102       -12.7105
  54   2.0000      -0.461105       -12.5473
  55   2.0000      -0.452794       -12.3211
  56   2.0000      -0.441202       -12.0057
  57   2.0000      -0.431145       -11.7320
  58   2.0000      -0.427709       -11.6386
  59   2.0000      -0.422202       -11.4887
  60   2.0000      -0.416126       -11.3234
  61   2.0000      -0.413484       -11.2515
  62   2.0000      -0.409115       -11.1326
  63   2.0000      -0.353086        -9.6080
  64   2.0000      -0.334106        -9.0915
  65   2.0000      -0.330515        -8.9938
  66   2.0000      -0.286613        -7.7991
  67   0.0000       0.022256         0.6056
  68   0.0000       0.070904         1.9294
  69   0.0000       0.111061         3.0221
  70   0.0000       0.121812         3.3147
  71   0.0000       0.126489         3.4419

MULLIKEN ATOMIC CHARGES
-----------------------
   0 S :    0.107601
   1 C :   -0.126073
   2 C :   -0.088487
   3 C :    0.003231
   4 C :   -0.125560
   5 H :    0.039138
   6 C :    0.047643
   7 H :    0.012211
   8 H :    0.011432
   9 C :   -0.044598
  10 H :    0.020601
  11 H :    0.019886
  12 C :   -0.069944
  13 H :    0.023240
  14 H :    0.048515
  15 H :    0.058735
  16 S :    0.100972
  17 C :   -0.080663
  18 C :   -0.048004
  19 C :   -0.033514
  20 C :   -0.149510
  21 H :    0.032536
  22 C :    0.037662
  23 H :    0.014625
  24 H :    0.028603
  25 C :   -0.080641
  26 H :    0.028421
  27 H :    0.033784
  28 C :    0.020542
  29 H :    0.025944
  30 H :   -0.014100
  31 H :    0.036434
  32 H :    0.067438
  33 H :    0.041900
Sum of atomic charges:   -0.0000000

LOEWDIN ATOMIC CHARGES
----------------------
   0 S :    0.419216
   1 C :   -0.205879
   2 C :   -0.058924
   3 C :   -0.069340
   4 C :   -0.206327
   5 H :    0.041847
   6 C :   -0.042615
   7 H :    0.021839
   8 H :    0.034321
   9 C :   -0.042594
  10 H :    0.018680
  11 H :    0.024816
  12 C :   -0.073825
  13 H :    0.022653
  14 H :    0.035584
  15 H :    0.038128
  16 S :    0.407919
  17 C :   -0.186988
  18 C :   -0.080796
  19 C :   -0.057108
  20 C :   -0.188901
  21 H :    0.040225
  22 C :   -0.040892
  23 H :    0.029845
  24 H :    0.031065
  25 C :   -0.035597
  26 H :    0.021500
  27 H :    0.032619
  28 C :   -0.055427
  29 H :    0.038326
  30 H :    0.008982
  31 H :    0.015960
  32 H :    0.039833
  33 H :    0.021852

  Mayer bond orders larger than 0.100000
B(  0-S ,  1-C ) :   1.1356 B(  0-S ,  4-C ) :   1.1586 B(  1-C ,  2-C ) :   1.5804
B(  1-C , 32-H ) :   0.9677 B(  2-C ,  3-C ) :   1.2626 B(  2-C ,  6-C ) :   1.0438
B(  3-C ,  4-C ) :   1.5657 B(  3-C ,  5-H ) :   0.9800 B(  4-C , 20-C ) :   1.0481
B(  6-C ,  7-H ) :   0.9213 B(  6-C ,  8-H ) :   0.9362 B(  6-C ,  9-C ) :   1.0741
B(  9-C , 10-H ) :   0.9532 B(  9-C , 11-H ) :   0.9529 B(  9-C , 12-C ) :   1.0697
B( 12-C , 13-H ) :   0.9754 B( 12-C , 14-H ) :   0.9721 B( 12-C , 15-H ) :   0.9731
B( 16-S , 17-C ) :   1.1768 B( 16-S , 20-C ) :   1.1388 B( 17-C , 18-C ) :   1.5887
B( 17-C , 20-C ) :   0.1098 B( 17-C , 33-H ) :   0.9672 B( 18-C , 19-C ) :   1.2739
B( 18-C , 21-H ) :   0.9880 B( 19-C , 20-C ) :   1.5528 B( 19-C , 22-C ) :   1.0339
B( 22-C , 23-H ) :   0.9293 B( 22-C , 24-H ) :   0.9425 B( 22-C , 25-C ) :   1.0799
B( 25-C , 26-H ) :   0.9555 B( 25-C , 27-H ) :   0.9551 B( 25-C , 28-C ) :   1.0658
B( 28-C , 29-H ) :   0.9691 B( 28-C , 30-H ) :   0.9679 B( 28-C , 31-H ) :   0.9815

Dispersion correction           -0.013466217
FINAL SINGLE POINT ENERGY     -1339.854039202981

DIPOLE MOMENT
-------------
                                X             Y             Z
Electronic contribution:     10.46886     -19.74269      15.45516
Nuclear contribution   :    -10.64765      20.21731     -15.61384
                        -----------------------------------------
Total Dipole Moment    :     -0.17879       0.47463      -0.15868
                        -----------------------------------------
Magnitude (a.u.)       :      0.53143
Magnitude (Debye)      :      1.35079

Rotational constants in cm-1:     0.019598     0.007670     0.006154
Rotational constants in MHz :   587.547655   229.927254   184.487327

                             ****ORCA TERMINATED NORMALLY****
TOTAL RUN TIME: 0 days 0 hours 0 minutes 20 seconds 966 msec
