                         Program Version 4.2.1 -  RELEASE  -
|  1> ! wB97X-D3 SP def2-SVP
|  2> %pal
|  3> nprocs 24
|  4> end
|  5>
|  6> * xyz 0 1
|  7> S 	 -104.211 	 37.3415 	 -20.677
|  8> C 	 -103.416 	 36.5981 	 -19.3029
|  9> C 	 -103.239 	 35.2259 	 -19.5425
| 10> C 	 -103.689 	 34.7831 	 -20.8415
| 11> C 	 -104.221 	 35.7976 	 -21.5759
| 12> H 	 -103.773 	 33.718 	 -21.1311
| 13> C 	 -102.76 	 34.3123 	 -18.4562
| 14> H 	 -102.936 	 33.3107 	 -18.7487
| 15> H 	 -103.234 	 34.554 	 -17.5524
| 16> C 	 -101.228 	 34.3804 	 -18.2017
| 17> H 	 -100.641 	 34.2354 	 -19.1261
| 18> H 	 -101.083 	 35.4003 	 -17.8507
| 19> C 	 -100.758 	 33.5155 	 -16.9557
| 20> H 	 -99.8304 	 33.9264 	 -16.4936
| 21> H 	 -101.511 	 33.4507 	 -16.1856
| 22> H 	 -100.536 	 32.5306 	 -17.2003
| 23> S 	 -106.541 	 36.4486 	 -23.0628
| 24> C 	 -106.716 	 35.6756 	 -24.6252
| 25> C 	 -105.61 	 34.8975 	 -24.9008
| 26> C 	 -104.56 	 35.0362 	 -23.9728
| 27> C 	 -104.922 	 35.7654 	 -22.8491
| 28> H 	 -105.458 	 34.377 	 -25.8928
| 29> C 	 -103.138 	 34.4458 	 -24.1287
| 30> H 	 -103.07 	 33.8301 	 -25.0038
| 31> H 	 -102.926 	 33.7806 	 -23.3239
| 32> C 	 -102.005 	 35.4867 	 -24.27
| 33> H 	 -102.209 	 36.2469 	 -23.4753
| 34> H 	 -102.187 	 36.0461 	 -25.1952
| 35> C 	 -100.577 	 34.921 	 -23.9746
| 36> H 	 -100.437 	 34.5668 	 -22.997
| 37> H 	 -99.6728 	 35.4623 	 -24.1766
| 38> H 	 -100.361 	 34.0836 	 -24.6282
| 39> H 	 -103.197 	 37.063 	 -18.2499
| 40> H 	 -107.568 	 35.7011 	 -25.2295
| 41> *
| 42>
| 43>                          ****END OF INPUT****

CARTESIAN COORDINATES (ANGSTROEM)
---------------------------------
  S    -104.211000   37.341500  -20.677000
  C    -103.416000   36.598100  -19.302900
  C    -103.239000   35.225900  -19.542500
  C    -103.689000   34.783100  -20.841500
  C    -104.221000   35.797600  -21.575900
  H    -103.773000   33.718000  -21.131100
  C    -102.760000   34.312300  -18.456200
  H    -102.936000   33.310700  -18.748700
  H    -103.234000   34.554000  -17.552400
  C    -101.228000   34.380400  -18.201700
  H    -100.641000   34.235400  -19.126100
  H    -101.083000   35.400300  -17.850700
  C    -100.758000   33.515500  -16.955700
  H    -99.830400   33.926400  -16.493600
  H    -101.511000   33.450700  -16.185600
  H    -100.536000   32.530600  -17.200300
  S    -106.541000   36.448600  -23.062800
  C    -106.716000   35.675600  -24.625200
  C    -105.610000   34.897500  -24.900800
  C    -104.560000   35.036200  -23.972800
  C    -104.922000   35.765400  -22.849100
  H    -105.458000   34.377000  -25.892800
  C    -103.138000   34.445800  -24.128700
  H    -103.070000   33.830100  -25.003800
  H    -102.926000   33.780600  -23.323900
  C    -102.005000   35.486700  -24.270000
  H    -102.209000   36.246900  -23.475300
  H    -102.187000   36.046100  -25.195200
  C    -100.577000   34.921000  -23.974600
  H    -100.437000   34.566800  -22.997000
  H    -99.672800   35.462300  -24.176600
  H    -100.361000   34.083600  -24.628200
  H    -103.197000   37.063000  -18.249900
  H    -107.568000   35.701100  -25.229500

 Total Charge           Charge          ....    0
 Multiplicity           Mult            ....    1
 Number of Electrons    NEL             ....  134
 Basis Dimension        Dim             ....  322

ORBITAL ENERGIES
----------------

  NO   OCC          E(Eh)            E(eV)
   0   2.0000     -88.969626     -2420.9866
   1   2.0000     -88.967247     -2420.9219
   2   2.0000     -10.333636      -281.1925
   3   2.0000     -10.326936      -281.0102
   4   2.0000     -10.324226      -280.9365
   5   2.0000     -10.317514      -280.7538
   6   2.0000     -10.303112      -280.3619
   7   2.0000     -10.302557      -280.3468
   8   2.0000     -10.301144      -280.3084
   9   2.0000     -10.298241      -280.2294
  10   2.0000     -10.290963      -280.0313
  11   2.0000     -10.288714      -279.9702
  12   2.0000     -10.287920      -279.9485
  13   2.0000     -10.283883      -279.8387
  14   2.0000     -10.278075      -279.6806
  15   2.0000     -10.272088      -279.5177
  16   2.0000      -8.083848      -219.9727
  17   2.0000      -8.081271      -219.9026
  18   2.0000      -6.042369      -164.4212
  19   2.0000      -6.039882      -164.3536
  20   2.0000      -6.038381      -164.3127
  21   2.0000      -6.035863      -164.2442
  22   2.0000      -6.034651      -164.2112
  23   2.0000      -6.031964      -164.1381
  24   2.0000      -1.006217       -27.3806
  25   2.0000      -0.982649       -26.7392
  26   2.0000      -0.910068       -24.7642
  27   2.0000      -0.902392       -24.5553
  28   2.0000      -0.866268       -23.5724
  29   2.0000      -0.849711       -23.1218
  30   2.0000      -0.843321       -22.9479
  31   2.0000      -0.816396       -22.2153
  32   2.0000      -0.785896       -21.3853
  33   2.0000      -0.770887       -20.9769
  34   2.0000      -0.709328       -19.3018
  35   2.0000      -0.703188       -19.1347
  36   2.0000      -0.695895       -18.9363
  37   2.0000      -0.661142       -17.9906
  38   2.0000      -0.636596       -17.3227
  39   2.0000      -0.619788       -16.8653
  40   2.0000      -0.596868       -16.2416
  41   2.0000      -0.569975       -15.5098
  42   2.0000      -0.559743       -15.2314
  43   2.0000      -0.558983       -15.2107
  44   2.0000      -0.522696       -14.2233
  45   2.0000      -0.514821       -14.0090
  46   2.0000      -0.513230       -13.9657
  47   2.0000      -0.510652       -13.8955
  48   2.0000      -0.506267       -13.7762
  49   2.0000      -0.499133       -13.5821
  50   2.0000      -0.492499       -13.4016
  51   2.0000      -0.482565       -13.1313
  52   2.0000      -0.474072       -12.9001
  53   2.0000      -0.463121       -12.6022
  54   2.0000      -0.460267       -12.5245
  55   2.0000      -0.448434       -12.2025
  56   2.0000      -0.444475       -12.0948
  57   2.0000      -0.442364       -12.0373
  58   2.0000      -0.433485       -11.7957
  59   2.0000      -0.427585       -11.6352
  60   2.0000      -0.424582       -11.5535
  61   2.0000      -0.413285       -11.2461
  62   2.0000      -0.405462       -11.0332
  63   2.0000      -0.352250        -9.5852
  64   2.0000      -0.336353        -9.1526
  65   2.0000      -0.328395        -8.9361
  66   2.0000      -0.289409        -7.8752
  67   0.0000       0.021390         0.5821
  68   0.0000       0.069037         1.8786
  69   0.0000       0.106198         2.8898
  70   0.0000       0.119994         3.2652
  71   0.0000       0.128093         3.4856

MULLIKEN ATOMIC CHARGES
-----------------------
   0 S :    0.101328
   1 C :   -0.144986
   2 C :   -0.123819
   3 C :    0.030944
   4 C :   -0.165775
   5 H :    0.042268
   6 C :    0.105425
   7 H :    0.005847
   8 H :    0.016574
   9 C :   -0.100384
  10 H :    0.041181
  11 H :    0.019626
  12 C :   -0.030662
  13 H :    0.038434
  14 H :    0.021426
  15 H :    0.018385
  16 S :    0.115685
  17 C :   -0.073473
  18 C :   -0.047486
  19 C :   -0.062092
  20 C :   -0.130507
  21 H :    0.039733
  22 C :    0.108596
  23 H :    0.003606
  24 H :    0.006567
  25 C :   -0.079245
  26 H :    0.042232
  27 H :    0.032709
  28 C :   -0.019075
  29 H :    0.020618
  30 H :    0.024912
  31 H :    0.010649
  32 H :    0.089232
  33 H :    0.041528
Sum of atomic charges:   -0.0000000

LOEWDIN ATOMIC CHARGES
----------------------
   0 S :    0.388886
   1 C :   -0.217589
   2 C :   -0.062270
   3 C :   -0.064964
   4 C :   -0.174072
   5 H :    0.042420
   6 C :   -0.025981
   7 H :    0.021741
   8 H :    0.024498
   9 C :   -0.034090
  10 H :    0.026793
  11 H :    0.019152
  12 C :   -0.064070
  13 H :    0.032541
  14 H :    0.022900
  15 H :    0.013246
  16 S :    0.404667
  17 C :   -0.175354
  18 C :   -0.077585
  19 C :   -0.056316
  20 C :   -0.200355
  21 H :    0.042087
  22 C :   -0.025326
  23 H :    0.022722
  24 H :    0.022068
  25 C :   -0.038454
  26 H :    0.028515
  27 H :    0.026416
  28 C :   -0.068862
  29 H :    0.020730
  30 H :    0.028238
  31 H :    0.022612
  32 H :    0.054064
  33 H :    0.020994

  Mayer bond orders larger than 0.100000
B(  0-S ,  1-C ) :   1.1284 B(  0-S ,  4-C ) :   1.1371 B(  1-C ,  2-C ) :   1.6130
B(  1-C , 32-H ) :   0.9523 B(  2-C ,  3-C ) :   1.2399 B(  2-C ,  6-C ) :   1.0362
B(  3-C ,  4-C ) :   1.5914 B(  3-C ,  5-H ) :   0.9790 B(  4-C , 20-C ) :   1.0433
B(  6-C ,  7-H ) :   0.9401 B(  6-C ,  8-H ) :   0.9374 B(  6-C ,  9-C ) :   1.0628
B(  9-C , 10-H ) :   0.9606 B(  9-C , 11-H ) :   0.9625 B(  9-C , 12-C ) :   1.0625
B( 12-C , 13-H ) :   0.9783 B( 12-C , 14-H ) :   0.9740 B( 12-C , 15-H ) :   0.9785
B( 16-S , 17-C ) :   1.1570 B( 16-S , 20-C ) :   1.1376 B( 17-C , 18-C ) :   1.5880
B( 17-C , 20-C ) :   0.1031 B( 17-C , 33-H ) :   0.9748 B( 18-C , 19-C ) :   1.2924
B( 18-C , 21-H ) :   0.9735 B( 19-C , 20-C ) :   1.5658 B( 19-C , 22-C ) :   1.0376
B( 22-C , 23-H ) :   0.9307 B( 22-C , 24-H ) :   0.9322 B( 22-C , 25-C ) :   1.0516
B( 25-C , 26-H ) :   0.9636 B( 25-C , 27-H ) :   0.9579 B( 25-C , 28-C ) :   1.0602
B( 28-C , 29-H ) :   0.9750 B( 28-C , 30-H ) :   0.9748 B( 28-C , 31-H ) :   0.9738

Dispersion correction           -0.014370558
FINAL SINGLE POINT ENERGY     -1339.870133254509

DIPOLE MOMENT
-------------
                                X             Y             Z
Electronic contribution:    -25.63418      15.08531      -7.57473
Nuclear contribution   :     25.91970     -15.67136       7.66331
                        -----------------------------------------
Total Dipole Moment    :      0.28553      -0.58605       0.08858
                        -----------------------------------------
Magnitude (a.u.)       :      0.65789
Magnitude (Debye)      :      1.67224

Rotational constants in cm-1:     0.020220     0.008193     0.006664
Rotational constants in MHz :   606.177730   245.608118   199.771509

                             ****ORCA TERMINATED NORMALLY****
TOTAL RUN TIME: 0 days 0 hours 0 minutes 20 seconds 564 msec
