                         Program Version 4.2.1 -  RELEASE  -
|  1> ! wB97X-D3 SP def2-SVP
|  2> %pal
|  3> nprocs 24
|  4> end
|  5>
|  6> * xyz 0 1
|  7> S 	 -115.038 	 37.5339 	 -116.611
|  8> C 	 -113.643 	 37.0786 	 -117.573
|  9> C 	 -112.533 	 36.7875 	 -116.794
| 10> C 	 -112.782 	 36.9859 	 -115.385
| 11> C 	 -114.069 	 37.3165 	 -115.117
| 12> H 	 -112.054 	 36.8822 	 -114.563
| 13> C 	 -111.193 	 36.4445 	 -117.405
| 14> H 	 -111.232 	 35.4626 	 -117.868
| 15> H 	 -110.303 	 36.4388 	 -116.724
| 16> C 	 -110.644 	 37.4816 	 -118.457
| 17> H 	 -111.19 	 37.7082 	 -119.364
| 18> H 	 -110.592 	 38.4797 	 -117.984
| 19> C 	 -109.203 	 37.2313 	 -118.844
| 20> H 	 -108.569 	 37.027 	 -117.956
| 21> H 	 -109.016 	 36.4479 	 -119.643
| 22> H 	 -108.867 	 38.1596 	 -119.238
| 23> S 	 -115.531 	 38.9624 	 -113.566
| 24> C 	 -115.68 	 38.6935 	 -111.87
| 25> C 	 -115.128 	 37.5477 	 -111.516
| 26> C 	 -114.51 	 36.8328 	 -112.6
| 27> C 	 -114.673 	 37.4819 	 -113.802
| 28> H 	 -115.229 	 37.3227 	 -110.422
| 29> C 	 -113.648 	 35.6925 	 -112.271
| 30> H 	 -113.133 	 35.8747 	 -111.32
| 31> H 	 -112.83 	 35.7318 	 -112.988
| 32> C 	 -114.254 	 34.3212 	 -112.227
| 33> H 	 -114.71 	 34.0179 	 -113.222
| 34> H 	 -115.026 	 34.4335 	 -111.427
| 35> C 	 -113.3 	 33.2796 	 -111.688
| 36> H 	 -113.771 	 32.2401 	 -111.607
| 37> H 	 -113.03 	 33.5212 	 -110.648
| 38> H 	 -112.358 	 33.255 	 -112.282
| 39> H 	 -113.467 	 37.1552 	 -118.644
| 40> H 	 -116.198 	 39.3626 	 -111.21
| 41> *
| 42>
| 43>                          ****END OF INPUT****

CARTESIAN COORDINATES (ANGSTROEM)
---------------------------------
  S    -115.038000   37.533900  -116.611000
  C    -113.643000   37.078600  -117.573000
  C    -112.533000   36.787500  -116.794000
  C    -112.782000   36.985900  -115.385000
  C    -114.069000   37.316500  -115.117000
  H    -112.054000   36.882200  -114.563000
  C    -111.193000   36.444500  -117.405000
  H    -111.232000   35.462600  -117.868000
  H    -110.303000   36.438800  -116.724000
  C    -110.644000   37.481600  -118.457000
  H    -111.190000   37.708200  -119.364000
  H    -110.592000   38.479700  -117.984000
  C    -109.203000   37.231300  -118.844000
  H    -108.569000   37.027000  -117.956000
  H    -109.016000   36.447900  -119.643000
  H    -108.867000   38.159600  -119.238000
  S    -115.531000   38.962400  -113.566000
  C    -115.680000   38.693500  -111.870000
  C    -115.128000   37.547700  -111.516000
  C    -114.510000   36.832800  -112.600000
  C    -114.673000   37.481900  -113.802000
  H    -115.229000   37.322700  -110.422000
  C    -113.648000   35.692500  -112.271000
  H    -113.133000   35.874700  -111.320000
  H    -112.830000   35.731800  -112.988000
  C    -114.254000   34.321200  -112.227000
  H    -114.710000   34.017900  -113.222000
  H    -115.026000   34.433500  -111.427000
  C    -113.300000   33.279600  -111.688000
  H    -113.771000   32.240100  -111.607000
  H    -113.030000   33.521200  -110.648000
  H    -112.358000   33.255000  -112.282000
  H    -113.467000   37.155200  -118.644000
  H    -116.198000   39.362600  -111.210000

 Total Charge           Charge          ....    0
 Multiplicity           Mult            ....    1
 Number of Electrons    NEL             ....  134
 Basis Dimension        Dim             ....  322

ORBITAL ENERGIES
----------------

  NO   OCC          E(Eh)            E(eV)
   0   2.0000     -88.968991     -2420.9693
   1   2.0000     -88.958867     -2420.6938
   2   2.0000     -10.330725      -281.1133
   3   2.0000     -10.324306      -280.9387
   4   2.0000     -10.313740      -280.6511
   5   2.0000     -10.307508      -280.4815
   6   2.0000     -10.303355      -280.3685
   7   2.0000     -10.301205      -280.3101
   8   2.0000     -10.299167      -280.2546
   9   2.0000     -10.297040      -280.1967
  10   2.0000     -10.289620      -279.9948
  11   2.0000     -10.288861      -279.9741
  12   2.0000     -10.288563      -279.9660
  13   2.0000     -10.285049      -279.8704
  14   2.0000     -10.284260      -279.8489
  15   2.0000     -10.280972      -279.7595
  16   2.0000      -8.082722      -219.9420
  17   2.0000      -8.075227      -219.7381
  18   2.0000      -6.041442      -164.3960
  19   2.0000      -6.037483      -164.2883
  20   2.0000      -6.033702      -164.1854
  21   2.0000      -6.033207      -164.1719
  22   2.0000      -6.029494      -164.0709
  23   2.0000      -6.025916      -163.9735
  24   2.0000      -1.013905       -27.5898
  25   2.0000      -0.986011       -26.8307
  26   2.0000      -0.918513       -24.9940
  27   2.0000      -0.910331       -24.7714
  28   2.0000      -0.875713       -23.8294
  29   2.0000      -0.855121       -23.2690
  30   2.0000      -0.847536       -23.0626
  31   2.0000      -0.822636       -22.3851
  32   2.0000      -0.779662       -21.2157
  33   2.0000      -0.768654       -20.9161
  34   2.0000      -0.706787       -19.2327
  35   2.0000      -0.698632       -19.0107
  36   2.0000      -0.689114       -18.7518
  37   2.0000      -0.662686       -18.0326
  38   2.0000      -0.637166       -17.3382
  39   2.0000      -0.620902       -16.8956
  40   2.0000      -0.600066       -16.3286
  41   2.0000      -0.576649       -15.6914
  42   2.0000      -0.568830       -15.4787
  43   2.0000      -0.559378       -15.2215
  44   2.0000      -0.526146       -14.3172
  45   2.0000      -0.523417       -14.2429
  46   2.0000      -0.519464       -14.1353
  47   2.0000      -0.512972       -13.9587
  48   2.0000      -0.505960       -13.7679
  49   2.0000      -0.499630       -13.5956
  50   2.0000      -0.495412       -13.4809
  51   2.0000      -0.478022       -13.0076
  52   2.0000      -0.473732       -12.8909
  53   2.0000      -0.456699       -12.4274
  54   2.0000      -0.455374       -12.3913
  55   2.0000      -0.450095       -12.2477
  56   2.0000      -0.447826       -12.1860
  57   2.0000      -0.431703       -11.7472
  58   2.0000      -0.430263       -11.7080
  59   2.0000      -0.429414       -11.6849
  60   2.0000      -0.420785       -11.4501
  61   2.0000      -0.416130       -11.3235
  62   2.0000      -0.409471       -11.1423
  63   2.0000      -0.354865        -9.6564
  64   2.0000      -0.332718        -9.0537
  65   2.0000      -0.326787        -8.8923
  66   2.0000      -0.294917        -8.0251
  67   0.0000       0.031105         0.8464
  68   0.0000       0.076174         2.0728
  69   0.0000       0.108623         2.9558
  70   0.0000       0.119572         3.2537
  71   0.0000       0.138638         3.7725

MULLIKEN ATOMIC CHARGES
-----------------------
   0 S :    0.114107
   1 C :   -0.101677
   2 C :   -0.082958
   3 C :    0.010808
   4 C :   -0.137056
   5 H :    0.035688
   6 C :    0.059857
   7 H :    0.044094
   8 H :    0.023780
   9 C :   -0.109800
  10 H :    0.026945
  11 H :    0.031046
  12 C :   -0.064476
  13 H :    0.030039
  14 H :    0.044546
  15 H :    0.023574
  16 S :    0.090872
  17 C :   -0.081834
  18 C :   -0.052879
  19 C :   -0.023136
  20 C :   -0.127344
  21 H :    0.033969
  22 C :    0.056295
  23 H :    0.016258
  24 H :   -0.010408
  25 C :   -0.063868
  26 H :    0.051131
  27 H :    0.023811
  28 C :   -0.066436
  29 H :    0.050047
  30 H :    0.024102
  31 H :    0.036048
  32 H :    0.047432
  33 H :    0.047423
Sum of atomic charges:   -0.0000000

LOEWDIN ATOMIC CHARGES
----------------------
   0 S :    0.385263
   1 C :   -0.197552
   2 C :   -0.062904
   3 C :   -0.063089
   4 C :   -0.177225
   5 H :    0.037714
   6 C :   -0.035854
   7 H :    0.033604
   8 H :    0.035118
   9 C :   -0.047800
  10 H :    0.018980
  11 H :    0.029567
  12 C :   -0.070169
  13 H :    0.025100
  14 H :    0.028923
  15 H :    0.023175
  16 S :    0.414564
  17 C :   -0.184465
  18 C :   -0.080345
  19 C :   -0.055934
  20 C :   -0.201356
  21 H :    0.043326
  22 C :   -0.040978
  23 H :    0.033047
  24 H :    0.022516
  25 C :   -0.045260
  26 H :    0.034151
  27 H :    0.027429
  28 C :   -0.074190
  29 H :    0.035822
  30 H :    0.023286
  31 H :    0.025566
  32 H :    0.032196
  33 H :    0.027774

  Mayer bond orders larger than 0.100000
B(  0-S ,  1-C ) :   1.1208 B(  0-S ,  4-C ) :   1.1269 B(  1-C ,  2-C ) :   1.6439
B(  1-C , 32-H ) :   0.9635 B(  2-C ,  3-C ) :   1.2190 B(  2-C ,  6-C ) :   1.0217
B(  3-C ,  4-C ) :   1.6229 B(  3-C ,  5-H ) :   0.9808 B(  4-C , 20-C ) :   1.0159
B(  6-C ,  7-H ) :   0.9374 B(  6-C ,  8-H ) :   0.9501 B(  6-C ,  9-C ) :   1.0466
B(  9-C , 10-H ) :   0.9520 B(  9-C , 11-H ) :   0.9602 B(  9-C , 12-C ) :   1.0928
B( 12-C , 13-H ) :   0.9700 B( 12-C , 14-H ) :   0.9745 B( 12-C , 15-H ) :   0.9739
B( 16-S , 17-C ) :   1.1461 B( 16-S , 20-C ) :   1.1430 B( 17-C , 18-C ) :   1.6565
B( 17-C , 33-H ) :   0.9666 B( 18-C , 19-C ) :   1.1988 B( 18-C , 21-H ) :   0.9862
B( 19-C , 20-C ) :   1.6188 B( 19-C , 22-C ) :   1.0504 B( 22-C , 23-H ) :   0.9320
B( 22-C , 24-H ) :   0.9182 B( 22-C , 25-C ) :   1.0695 B( 25-C , 26-H ) :   0.9512
B( 25-C , 27-H ) :   0.9525 B( 25-C , 28-C ) :   1.0858 B( 28-C , 29-H ) :   0.9726
B( 28-C , 30-H ) :   0.9702 B( 28-C , 31-H ) :   0.9732

Dispersion correction           -0.013306948
FINAL SINGLE POINT ENERGY     -1339.877233192704

DIPOLE MOMENT
-------------
                                X             Y             Z
Electronic contribution:    -22.81641      15.75561       0.96422
Nuclear contribution   :     23.42317     -15.90026      -0.69079
                        -----------------------------------------
Total Dipole Moment    :      0.60676      -0.14465       0.27343
                        -----------------------------------------
Magnitude (a.u.)       :      0.68106
Magnitude (Debye)      :      1.73111

Rotational constants in cm-1:     0.018505     0.007773     0.006188
Rotational constants in MHz :   554.758999   233.036506   185.512932

                             ****ORCA TERMINATED NORMALLY****
TOTAL RUN TIME: 0 days 0 hours 0 minutes 21 seconds 124 msec
