                         Program Version 4.2.1 -  RELEASE  -
|  1> ! wB97X-D3 SP def2-SVP
|  2> %pal
|  3> nprocs 24
|  4> end
|  5>
|  6> * xyz 0 1
|  7> S 	 -128.392 	 73.3925 	 -50.9634
|  8> C 	 -128.351 	 72.1551 	 -52.1423
|  9> C 	 -127.036 	 71.8096 	 -52.5091
| 10> C 	 -126.105 	 72.4455 	 -51.6215
| 11> C 	 -126.689 	 73.317 	 -50.7603
| 12> H 	 -125.014 	 72.2194 	 -51.5628
| 13> C 	 -126.736 	 70.7295 	 -53.5568
| 14> H 	 -125.668 	 70.5478 	 -53.5207
| 15> H 	 -127.001 	 71.0448 	 -54.578
| 16> C 	 -127.387 	 69.365 	 -53.2835
| 17> H 	 -128.437 	 69.4264 	 -53.3256
| 18> H 	 -127.059 	 68.6139 	 -54.0629
| 19> C 	 -127.076 	 68.8204 	 -51.8722
| 20> H 	 -127.399 	 69.5436 	 -51.2031
| 21> H 	 -127.602 	 67.8852 	 -51.7356
| 22> H 	 -126.021 	 68.7468 	 -51.7046
| 23> S 	 -125.868 	 75.8216 	 -49.9915
| 24> C 	 -125.022 	 76.0492 	 -48.53
| 25> C 	 -124.551 	 74.8358 	 -48.0254
| 26> C 	 -125.068 	 73.7555 	 -48.7675
| 27> C 	 -125.941 	 74.1299 	 -49.773
| 28> H 	 -123.81 	 74.812 	 -47.2541
| 29> C 	 -124.662 	 72.2811 	 -48.4142
| 30> H 	 -123.732 	 72.242 	 -47.831
| 31> H 	 -124.453 	 71.621 	 -49.2955
| 32> C 	 -125.627 	 71.5369 	 -47.5398
| 33> H 	 -126.589 	 71.4395 	 -48.0457
| 34> H 	 -125.742 	 72.0285 	 -46.5441
| 35> C 	 -125.01 	 70.1467 	 -47.2225
| 36> H 	 -125.625 	 69.6043 	 -46.5138
| 37> H 	 -124.074 	 70.2639 	 -46.7358
| 38> H 	 -124.951 	 69.5518 	 -48.167
| 39> H 	 -129.307 	 71.7793 	 -52.5784
| 40> H 	 -124.624 	 76.9747 	 -48.1438
| 41> *
| 42>
| 43>                          ****END OF INPUT****

CARTESIAN COORDINATES (ANGSTROEM)
---------------------------------
  S    -128.392000   73.392500  -50.963400
  C    -128.351000   72.155100  -52.142300
  C    -127.036000   71.809600  -52.509100
  C    -126.105000   72.445500  -51.621500
  C    -126.689000   73.317000  -50.760300
  H    -125.014000   72.219400  -51.562800
  C    -126.736000   70.729500  -53.556800
  H    -125.668000   70.547800  -53.520700
  H    -127.001000   71.044800  -54.578000
  C    -127.387000   69.365000  -53.283500
  H    -128.437000   69.426400  -53.325600
  H    -127.059000   68.613900  -54.062900
  C    -127.076000   68.820400  -51.872200
  H    -127.399000   69.543600  -51.203100
  H    -127.602000   67.885200  -51.735600
  H    -126.021000   68.746800  -51.704600
  S    -125.868000   75.821600  -49.991500
  C    -125.022000   76.049200  -48.530000
  C    -124.551000   74.835800  -48.025400
  C    -125.068000   73.755500  -48.767500
  C    -125.941000   74.129900  -49.773000
  H    -123.810000   74.812000  -47.254100
  C    -124.662000   72.281100  -48.414200
  H    -123.732000   72.242000  -47.831000
  H    -124.453000   71.621000  -49.295500
  C    -125.627000   71.536900  -47.539800
  H    -126.589000   71.439500  -48.045700
  H    -125.742000   72.028500  -46.544100
  C    -125.010000   70.146700  -47.222500
  H    -125.625000   69.604300  -46.513800
  H    -124.074000   70.263900  -46.735800
  H    -124.951000   69.551800  -48.167000
  H    -129.307000   71.779300  -52.578400
  H    -124.624000   76.974700  -48.143800

 Total Charge           Charge          ....    0
 Multiplicity           Mult            ....    1
 Number of Electrons    NEL             ....  134
 Basis Dimension        Dim             ....  322

ORBITAL ENERGIES
----------------

  NO   OCC          E(Eh)            E(eV)
   0   2.0000     -88.969301     -2420.9778
   1   2.0000     -88.966250     -2420.8947
   2   2.0000     -10.324889      -280.9545
   3   2.0000     -10.321722      -280.8683
   4   2.0000     -10.318158      -280.7713
   5   2.0000     -10.311602      -280.5930
   6   2.0000     -10.307001      -280.4677
   7   2.0000     -10.301731      -280.3244
   8   2.0000     -10.297470      -280.2084
   9   2.0000     -10.294923      -280.1391
  10   2.0000     -10.292456      -280.0720
  11   2.0000     -10.290384      -280.0156
  12   2.0000     -10.285974      -279.8956
  13   2.0000     -10.281665      -279.7783
  14   2.0000     -10.275091      -279.5994
  15   2.0000     -10.265399      -279.3357
  16   2.0000      -8.085244      -220.0107
  17   2.0000      -8.082364      -219.9323
  18   2.0000      -6.043492      -164.4518
  19   2.0000      -6.040628      -164.3739
  20   2.0000      -6.039465      -164.3422
  21   2.0000      -6.036687      -164.2666
  22   2.0000      -6.036336      -164.2571
  23   2.0000      -6.033287      -164.1741
  24   2.0000      -1.015931       -27.6449
  25   2.0000      -0.994657       -27.0660
  26   2.0000      -0.912519       -24.8309
  27   2.0000      -0.909054       -24.7366
  28   2.0000      -0.867819       -23.6146
  29   2.0000      -0.852535       -23.1987
  30   2.0000      -0.847346       -23.0575
  31   2.0000      -0.812637       -22.1130
  32   2.0000      -0.782892       -21.3036
  33   2.0000      -0.770415       -20.9641
  34   2.0000      -0.702083       -19.1046
  35   2.0000      -0.696262       -18.9462
  36   2.0000      -0.683688       -18.6041
  37   2.0000      -0.663990       -18.0681
  38   2.0000      -0.643999       -17.5241
  39   2.0000      -0.615088       -16.7374
  40   2.0000      -0.596647       -16.2356
  41   2.0000      -0.576984       -15.7005
  42   2.0000      -0.569911       -15.5081
  43   2.0000      -0.554224       -15.0812
  44   2.0000      -0.543326       -14.7847
  45   2.0000      -0.515319       -14.0225
  46   2.0000      -0.512828       -13.9548
  47   2.0000      -0.509024       -13.8512
  48   2.0000      -0.506544       -13.7838
  49   2.0000      -0.493823       -13.4376
  50   2.0000      -0.492574       -13.4036
  51   2.0000      -0.477354       -12.9895
  52   2.0000      -0.475218       -12.9313
  53   2.0000      -0.469404       -12.7731
  54   2.0000      -0.460851       -12.5404
  55   2.0000      -0.446879       -12.1602
  56   2.0000      -0.444371       -12.0920
  57   2.0000      -0.438160       -11.9229
  58   2.0000      -0.432696       -11.7742
  59   2.0000      -0.427408       -11.6304
  60   2.0000      -0.420679       -11.4473
  61   2.0000      -0.418379       -11.3847
  62   2.0000      -0.412762       -11.2318
  63   2.0000      -0.344316        -9.3693
  64   2.0000      -0.331339        -9.0162
  65   2.0000      -0.330295        -8.9878
  66   2.0000      -0.298662        -8.1270
  67   0.0000       0.038806         1.0560
  68   0.0000       0.063037         1.7153
  69   0.0000       0.111317         3.0291
  70   0.0000       0.122995         3.3469
  71   0.0000       0.126913         3.4535

MULLIKEN ATOMIC CHARGES
-----------------------
   0 S :    0.140544
   1 C :   -0.151154
   2 C :   -0.112228
   3 C :    0.020808
   4 C :   -0.166460
   5 H :    0.034517
   6 C :    0.094197
   7 H :    0.014236
   8 H :    0.044077
   9 C :   -0.105498
  10 H :    0.017335
  11 H :    0.039319
  12 C :   -0.015192
  13 H :    0.024224
  14 H :    0.036487
  15 H :    0.015482
  16 S :    0.133102
  17 C :   -0.084993
  18 C :   -0.045846
  19 C :    0.011073
  20 C :   -0.172622
  21 H :    0.011498
  22 C :    0.037581
  23 H :    0.007701
  24 H :    0.019210
  25 C :   -0.079953
  26 H :    0.039188
  27 H :    0.031195
  28 C :   -0.048608
  29 H :    0.029775
  30 H :    0.022828
  31 H :    0.037531
  32 H :    0.069823
  33 H :    0.050825
Sum of atomic charges:   -0.0000000

LOEWDIN ATOMIC CHARGES
----------------------
   0 S :    0.445388
   1 C :   -0.213714
   2 C :   -0.065297
   3 C :   -0.065128
   4 C :   -0.216024
   5 H :    0.040576
   6 C :   -0.031092
   7 H :    0.026925
   8 H :    0.035850
   9 C :   -0.037594
  10 H :    0.011966
  11 H :    0.029455
  12 C :   -0.055279
  13 H :    0.016476
  14 H :    0.027432
  15 H :    0.018694
  16 S :    0.452606
  17 C :   -0.203365
  18 C :   -0.068718
  19 C :   -0.056827
  20 C :   -0.218143
  21 H :    0.028697
  22 C :   -0.036188
  23 H :    0.027172
  24 H :    0.027867
  25 C :   -0.040166
  26 H :    0.023396
  27 H :    0.026581
  28 C :   -0.063482
  29 H :    0.023921
  30 H :    0.017834
  31 H :    0.028450
  32 H :    0.034088
  33 H :    0.027642

  Mayer bond orders larger than 0.100000
B(  0-S ,  1-C ) :   1.1729 B(  0-S ,  4-C ) :   1.1713 B(  1-C ,  2-C ) :   1.5627
B(  1-C , 32-H ) :   0.9671 B(  2-C ,  3-C ) :   1.2622 B(  2-C ,  6-C ) :   1.0187
B(  3-C ,  4-C ) :   1.5764 B(  3-C ,  5-H ) :   0.9859 B(  4-C , 20-C ) :   0.9962
B(  6-C ,  7-H ) :   0.9432 B(  6-C ,  8-H ) :   0.9382 B(  6-C ,  9-C ) :   1.0750
B(  9-C , 10-H ) :   0.9558 B(  9-C , 11-H ) :   0.9572 B(  9-C , 12-C ) :   1.0747
B( 12-C , 13-H ) :   0.9714 B( 12-C , 14-H ) :   0.9735 B( 12-C , 15-H ) :   0.9769
B( 16-S , 17-C ) :   1.1857 B( 16-S , 20-C ) :   1.1812 B( 17-C , 18-C ) :   1.5608
B( 17-C , 20-C ) :   0.1054 B( 17-C , 33-H ) :   0.9675 B( 18-C , 19-C ) :   1.2921
B( 18-C , 21-H ) :   0.9960 B( 19-C , 20-C ) :   1.5681 B( 19-C , 22-C ) :   1.0207
B( 22-C , 23-H ) :   0.9388 B( 22-C , 24-H ) :   0.9404 B( 22-C , 25-C ) :   1.0753
B( 25-C , 26-H ) :   0.9549 B( 25-C , 27-H ) :   0.9524 B( 25-C , 28-C ) :   1.0815
B( 28-C , 29-H ) :   0.9740 B( 28-C , 30-H ) :   0.9738 B( 28-C , 31-H ) :   0.9739

Dispersion correction           -0.015003068
FINAL SINGLE POINT ENERGY     -1339.887179598187

DIPOLE MOMENT
-------------
                                X             Y             Z
Electronic contribution:     -6.43900      29.01267      -2.90371
Nuclear contribution   :      6.72909     -29.47882       2.88906
                        -----------------------------------------
Total Dipole Moment    :      0.29009      -0.46616      -0.01466
                        -----------------------------------------
Magnitude (a.u.)       :      0.54924
Magnitude (Debye)      :      1.39607

Rotational constants in cm-1:     0.018602     0.009671     0.007191
Rotational constants in MHz :   557.672265   289.937676   215.582038

                             ****ORCA TERMINATED NORMALLY****
TOTAL RUN TIME: 0 days 0 hours 0 minutes 22 seconds 460 msec
