                         Program Version 4.2.1 -  RELEASE  -
|  1> ! wB97X-D3 SP def2-SVP
|  2> %pal
|  3> nprocs 24
|  4> end
|  5>
|  6> * xyz 0 1
|  7> S 	 -99.8339 	 44.4121 	 -90.9672
|  8> C 	 -99.4796 	 42.8578 	 -90.1707
|  9> C 	 -98.4471 	 42.2116 	 -90.7935
| 10> C 	 -98.0183 	 42.8326 	 -91.9998
| 11> C 	 -98.8096 	 43.9523 	 -92.363
| 12> H 	 -97.1412 	 42.4596 	 -92.5482
| 13> C 	 -97.8228 	 40.9357 	 -90.2634
| 14> H 	 -98.3431 	 40.0862 	 -90.6516
| 15> H 	 -98.0442 	 40.8388 	 -89.2147
| 16> C 	 -96.3452 	 40.6666 	 -90.5404
| 17> H 	 -96.1165 	 40.4886 	 -91.6162
| 18> H 	 -96.003 	 41.6598 	 -90.3183
| 19> C 	 -95.75 	 39.521 	 -89.6759
| 20> H 	 -96.2599 	 38.568 	 -89.7881
| 21> H 	 -94.6459 	 39.3485 	 -89.9405
| 22> H 	 -95.9274 	 39.812 	 -88.6543
| 23> S 	 -98.5879 	 46.5736 	 -93.4564
| 24> C 	 -98.2349 	 46.7927 	 -95.1607
| 25> C 	 -98.144 	 45.5503 	 -95.78
| 26> C 	 -98.3794 	 44.3794 	 -94.9176
| 27> C 	 -98.6261 	 44.7242 	 -93.5875
| 28> H 	 -97.97 	 45.6178 	 -96.8547
| 29> C 	 -98.5221 	 42.976 	 -95.5113
| 30> H 	 -98.0262 	 42.2399 	 -94.8568
| 31> H 	 -97.8573 	 42.9024 	 -96.3823
| 32> C 	 -99.9521 	 42.7111 	 -95.8372
| 33> H 	 -100.618 	 42.788 	 -94.9646
| 34> H 	 -99.9784 	 41.7125 	 -96.2658
| 35> C 	 -100.646 	 43.5544 	 -96.9363
| 36> H 	 -101.686 	 43.1855 	 -97.0224
| 37> H 	 -100.273 	 43.3367 	 -97.8747
| 38> H 	 -100.658 	 44.6419 	 -96.6373
| 39> H 	 -99.9342 	 42.5294 	 -89.2951
| 40> H 	 -98.0029 	 47.7035 	 -95.6478
| 41> *
| 42>
| 43>                          ****END OF INPUT****

CARTESIAN COORDINATES (ANGSTROEM)
---------------------------------
  S    -99.833900   44.412100  -90.967200
  C    -99.479600   42.857800  -90.170700
  C    -98.447100   42.211600  -90.793500
  C    -98.018300   42.832600  -91.999800
  C    -98.809600   43.952300  -92.363000
  H    -97.141200   42.459600  -92.548200
  C    -97.822800   40.935700  -90.263400
  H    -98.343100   40.086200  -90.651600
  H    -98.044200   40.838800  -89.214700
  C    -96.345200   40.666600  -90.540400
  H    -96.116500   40.488600  -91.616200
  H    -96.003000   41.659800  -90.318300
  C    -95.750000   39.521000  -89.675900
  H    -96.259900   38.568000  -89.788100
  H    -94.645900   39.348500  -89.940500
  H    -95.927400   39.812000  -88.654300
  S    -98.587900   46.573600  -93.456400
  C    -98.234900   46.792700  -95.160700
  C    -98.144000   45.550300  -95.780000
  C    -98.379400   44.379400  -94.917600
  C    -98.626100   44.724200  -93.587500
  H    -97.970000   45.617800  -96.854700
  C    -98.522100   42.976000  -95.511300
  H    -98.026200   42.239900  -94.856800
  H    -97.857300   42.902400  -96.382300
  C    -99.952100   42.711100  -95.837200
  H    -100.618000   42.788000  -94.964600
  H    -99.978400   41.712500  -96.265800
  C    -100.646000   43.554400  -96.936300
  H    -101.686000   43.185500  -97.022400
  H    -100.273000   43.336700  -97.874700
  H    -100.658000   44.641900  -96.637300
  H    -99.934200   42.529400  -89.295100
  H    -98.002900   47.703500  -95.647800

 Total Charge           Charge          ....    0
 Multiplicity           Mult            ....    1
 Number of Electrons    NEL             ....  134
 Basis Dimension        Dim             ....  322

ORBITAL ENERGIES
----------------

  NO   OCC          E(Eh)            E(eV)
   0   2.0000     -88.970527     -2421.0111
   1   2.0000     -88.960911     -2420.7494
   2   2.0000     -10.341617      -281.4097
   3   2.0000     -10.338422      -281.3228
   4   2.0000     -10.319156      -280.7985
   5   2.0000     -10.312969      -280.6301
   6   2.0000     -10.312870      -280.6275
   7   2.0000     -10.301384      -280.3149
   8   2.0000     -10.301053      -280.3059
   9   2.0000     -10.299046      -280.2513
  10   2.0000     -10.293232      -280.0931
  11   2.0000     -10.290673      -280.0235
  12   2.0000     -10.289439      -279.9899
  13   2.0000     -10.287479      -279.9365
  14   2.0000     -10.281978      -279.7868
  15   2.0000     -10.273044      -279.5438
  16   2.0000      -8.083883      -219.9736
  17   2.0000      -8.074410      -219.7159
  18   2.0000      -6.042610      -164.4278
  19   2.0000      -6.038726      -164.3221
  20   2.0000      -6.034351      -164.2030
  21   2.0000      -6.033120      -164.1695
  22   2.0000      -6.029134      -164.0611
  23   2.0000      -6.024977      -163.9480
  24   2.0000      -0.995856       -27.0986
  25   2.0000      -0.974061       -26.5056
  26   2.0000      -0.913911       -24.8688
  27   2.0000      -0.909700       -24.7542
  28   2.0000      -0.869416       -23.6580
  29   2.0000      -0.847239       -23.0546
  30   2.0000      -0.836206       -22.7543
  31   2.0000      -0.812304       -22.1039
  32   2.0000      -0.785073       -21.3629
  33   2.0000      -0.776193       -21.1213
  34   2.0000      -0.718210       -19.5435
  35   2.0000      -0.698186       -18.9986
  36   2.0000      -0.686734       -18.6870
  37   2.0000      -0.657035       -17.8788
  38   2.0000      -0.639127       -17.3915
  39   2.0000      -0.623189       -16.9578
  40   2.0000      -0.594343       -16.1729
  41   2.0000      -0.573676       -15.6105
  42   2.0000      -0.565104       -15.3773
  43   2.0000      -0.553286       -15.0557
  44   2.0000      -0.542912       -14.7734
  45   2.0000      -0.523470       -14.2443
  46   2.0000      -0.517497       -14.0818
  47   2.0000      -0.508991       -13.8504
  48   2.0000      -0.504678       -13.7330
  49   2.0000      -0.502407       -13.6712
  50   2.0000      -0.484433       -13.1821
  51   2.0000      -0.478971       -13.0335
  52   2.0000      -0.474982       -12.9249
  53   2.0000      -0.470005       -12.7895
  54   2.0000      -0.455539       -12.3959
  55   2.0000      -0.452533       -12.3140
  56   2.0000      -0.439653       -11.9636
  57   2.0000      -0.436994       -11.8912
  58   2.0000      -0.432455       -11.7677
  59   2.0000      -0.427505       -11.6330
  60   2.0000      -0.414466       -11.2782
  61   2.0000      -0.407633       -11.0923
  62   2.0000      -0.402977       -10.9656
  63   2.0000      -0.352777        -9.5996
  64   2.0000      -0.331543        -9.0217
  65   2.0000      -0.326456        -8.8833
  66   2.0000      -0.285664        -7.7733
  67   0.0000       0.015941         0.4338
  68   0.0000       0.066273         1.8034
  69   0.0000       0.099674         2.7123
  70   0.0000       0.122425         3.3314
  71   0.0000       0.130637         3.5548

MULLIKEN ATOMIC CHARGES
-----------------------
   0 S :    0.107273
   1 C :   -0.098824
   2 C :   -0.081352
   3 C :    0.006014
   4 C :   -0.124024
   5 H :    0.032862
   6 C :    0.084463
   7 H :    0.023756
   8 H :    0.003990
   9 C :   -0.109575
  10 H :    0.039552
  11 H :    0.031217
  12 C :   -0.047559
  13 H :    0.032686
  14 H :    0.056610
  15 H :    0.030587
  16 S :    0.068786
  17 C :   -0.076842
  18 C :   -0.054958
  19 C :   -0.066806
  20 C :   -0.143545
  21 H :    0.027339
  22 C :    0.106203
  23 H :    0.020381
  24 H :    0.014061
  25 C :   -0.070801
  26 H :    0.044608
  27 H :    0.022736
  28 C :   -0.050071
  29 H :    0.029387
  30 H :    0.009607
  31 H :    0.060843
  32 H :    0.020424
  33 H :    0.050975
Sum of atomic charges:    0.0000000

LOEWDIN ATOMIC CHARGES
----------------------
   0 S :    0.381187
   1 C :   -0.172522
   2 C :   -0.062947
   3 C :   -0.059025
   4 C :   -0.179269
   5 H :    0.035241
   6 C :   -0.033590
   7 H :    0.027958
   8 H :    0.025801
   9 C :   -0.046313
  10 H :    0.024055
  11 H :    0.022601
  12 C :   -0.064328
  13 H :    0.024904
  14 H :    0.039867
  15 H :    0.024110
  16 S :    0.349392
  17 C :   -0.174991
  18 C :   -0.077615
  19 C :   -0.050861
  20 C :   -0.164978
  21 H :    0.033189
  22 C :   -0.035902
  23 H :    0.032132
  24 H :    0.031006
  25 C :   -0.039756
  26 H :    0.031142
  27 H :    0.024472
  28 C :   -0.063253
  29 H :    0.031855
  30 H :    0.009437
  31 H :    0.034104
  32 H :    0.015797
  33 H :    0.027101

  Mayer bond orders larger than 0.100000
B(  0-S ,  1-C ) :   1.1185 B(  0-S ,  4-C ) :   1.1417 B(  1-C ,  2-C ) :   1.6167
B(  1-C ,  4-C ) :   0.1009 B(  1-C , 32-H ) :   0.9785 B(  2-C ,  3-C ) :   1.2585
B(  2-C ,  6-C ) :   1.0197 B(  3-C ,  4-C ) :   1.5300 B(  3-C ,  5-H ) :   0.9822
B(  4-C , 20-C ) :   1.0959 B(  6-C ,  7-H ) :   0.9228 B(  6-C ,  8-H ) :   0.9409
B(  6-C ,  9-C ) :   1.0567 B(  9-C , 10-H ) :   0.9469 B(  9-C , 11-H ) :   0.9665
B(  9-C , 12-C ) :   1.0749 B( 12-C , 13-H ) :   0.9755 B( 12-C , 14-H ) :   0.9742
B( 12-C , 15-H ) :   0.9751 B( 16-S , 17-C ) :   1.1417 B( 16-S , 20-C ) :   1.0980
B( 17-C , 18-C ) :   1.6395 B( 17-C , 33-H ) :   0.9700 B( 18-C , 19-C ) :   1.2002
B( 18-C , 21-H ) :   0.9862 B( 19-C , 20-C ) :   1.6178 B( 19-C , 22-C ) :   1.0386
B( 22-C , 23-H ) :   0.9293 B( 22-C , 24-H ) :   0.9278 B( 22-C , 25-C ) :   1.0756
B( 25-C , 26-H ) :   0.9583 B( 25-C , 27-H ) :   0.9514 B( 25-C , 28-C ) :   1.0876
B( 28-C , 29-H ) :   0.9703 B( 28-C , 30-H ) :   0.9745 B( 28-C , 31-H ) :   0.9693

Dispersion correction           -0.014163191
FINAL SINGLE POINT ENERGY     -1339.862343162533

DIPOLE MOMENT
-------------
                                X             Y             Z
Electronic contribution:     -6.15187      23.76622       5.89595
Nuclear contribution   :      6.43346     -24.48748      -6.14724
                        -----------------------------------------
Total Dipole Moment    :      0.28159      -0.72126      -0.25130
                        -----------------------------------------
Magnitude (a.u.)       :      0.81404
Magnitude (Debye)      :      2.06913

Rotational constants in cm-1:     0.019775     0.007679     0.006707
Rotational constants in MHz :   592.835593   230.221242   201.064048

                             ****ORCA TERMINATED NORMALLY****
TOTAL RUN TIME: 0 days 0 hours 0 minutes 21 seconds 476 msec
