                         Program Version 4.2.1 -  RELEASE  -
|  1> ! wB97X-D3 SP def2-SVP
|  2> %pal
|  3> nprocs 24
|  4> end
|  5>
|  6> * xyz 0 1
|  7> S 	 -47.4869 	 18.9177 	 31.8099
|  8> C 	 -46.2273 	 17.7218 	 31.5068
|  9> C 	 -45.0776 	 18.3824 	 31.1528
| 10> C 	 -45.0505 	 19.804 	 31.4354
| 11> C 	 -46.31 	 20.2795 	 31.8024
| 12> H 	 -44.2809 	 20.4686 	 31.319
| 13> C 	 -43.8793 	 17.661 	 30.6787
| 14> H 	 -43.7055 	 16.6888 	 31.2127
| 15> H 	 -43.0624 	 18.3585 	 30.9202
| 16> C 	 -43.896 	 17.3843 	 29.1714
| 17> H 	 -43.0232 	 17.0322 	 28.7526
| 18> H 	 -44.5691 	 16.5812 	 28.9517
| 19> C 	 -44.2425 	 18.6247 	 28.2633
| 20> H 	 -43.6723 	 19.5141 	 28.5261
| 21> H 	 -44.0392 	 18.3884 	 27.1858
| 22> H 	 -45.3009 	 18.832 	 28.289
| 23> S 	 -48.2291 	 22.3474 	 31.8547
| 24> C 	 -47.7472 	 23.7472 	 32.6898
| 25> C 	 -46.4329 	 23.7868 	 33.0572
| 26> C 	 -45.6704 	 22.6319 	 32.7591
| 27> C 	 -46.5654 	 21.6848 	 32.1679
| 28> H 	 -46.1413 	 24.6942 	 33.5473
| 29> C 	 -44.2634 	 22.4671 	 33.2499
| 30> H 	 -44.1131 	 21.4149 	 33.5651
| 31> H 	 -44.0871 	 23.1028 	 34.0999
| 32> C 	 -43.286 	 22.7815 	 32.1144
| 33> H 	 -43.3194 	 23.8681 	 31.9396
| 34> H 	 -43.7238 	 22.382 	 31.1181
| 35> C 	 -41.8418 	 22.2366 	 32.4174
| 36> H 	 -41.566 	 22.3111 	 33.4605
| 37> H 	 -41.0719 	 22.6663 	 31.7348
| 38> H 	 -41.8389 	 21.1706 	 32.167
| 39> H 	 -46.3449 	 16.65 	 31.4065
| 40> H 	 -48.3065 	 24.6811 	 32.66
| 41> *
| 42>
| 43>                          ****END OF INPUT****

CARTESIAN COORDINATES (ANGSTROEM)
---------------------------------
  S    -47.486900   18.917700   31.809900
  C    -46.227300   17.721800   31.506800
  C    -45.077600   18.382400   31.152800
  C    -45.050500   19.804000   31.435400
  C    -46.310000   20.279500   31.802400
  H    -44.280900   20.468600   31.319000
  C    -43.879300   17.661000   30.678700
  H    -43.705500   16.688800   31.212700
  H    -43.062400   18.358500   30.920200
  C    -43.896000   17.384300   29.171400
  H    -43.023200   17.032200   28.752600
  H    -44.569100   16.581200   28.951700
  C    -44.242500   18.624700   28.263300
  H    -43.672300   19.514100   28.526100
  H    -44.039200   18.388400   27.185800
  H    -45.300900   18.832000   28.289000
  S    -48.229100   22.347400   31.854700
  C    -47.747200   23.747200   32.689800
  C    -46.432900   23.786800   33.057200
  C    -45.670400   22.631900   32.759100
  C    -46.565400   21.684800   32.167900
  H    -46.141300   24.694200   33.547300
  C    -44.263400   22.467100   33.249900
  H    -44.113100   21.414900   33.565100
  H    -44.087100   23.102800   34.099900
  C    -43.286000   22.781500   32.114400
  H    -43.319400   23.868100   31.939600
  H    -43.723800   22.382000   31.118100
  C    -41.841800   22.236600   32.417400
  H    -41.566000   22.311100   33.460500
  H    -41.071900   22.666300   31.734800
  H    -41.838900   21.170600   32.167000
  H    -46.344900   16.650000   31.406500
  H    -48.306500   24.681100   32.660000

 Total Charge           Charge          ....    0
 Multiplicity           Mult            ....    1
 Number of Electrons    NEL             ....  134
 Basis Dimension        Dim             ....  322

ORBITAL ENERGIES
----------------

  NO   OCC          E(Eh)            E(eV)
   0   2.0000     -88.970434     -2421.0086
   1   2.0000     -88.965066     -2420.8625
   2   2.0000     -10.339111      -281.3415
   3   2.0000     -10.335600      -281.2460
   4   2.0000     -10.312599      -280.6201
   5   2.0000     -10.311208      -280.5822
   6   2.0000     -10.309912      -280.5470
   7   2.0000     -10.300981      -280.3039
   8   2.0000     -10.297718      -280.2151
   9   2.0000     -10.297161      -280.2000
  10   2.0000     -10.291368      -280.0424
  11   2.0000     -10.289455      -279.9903
  12   2.0000     -10.288773      -279.9718
  13   2.0000     -10.288626      -279.9678
  14   2.0000     -10.278170      -279.6832
  15   2.0000     -10.276430      -279.6359
  16   2.0000      -8.085026      -220.0047
  17   2.0000      -8.078636      -219.8309
  18   2.0000      -6.043369      -164.4484
  19   2.0000      -6.039739      -164.3497
  20   2.0000      -6.037493      -164.2885
  21   2.0000      -6.035801      -164.2425
  22   2.0000      -6.033336      -164.1754
  23   2.0000      -6.029060      -164.0591
  24   2.0000      -1.001503       -27.2523
  25   2.0000      -0.981819       -26.7166
  26   2.0000      -0.915644       -24.9159
  27   2.0000      -0.909239       -24.7417
  28   2.0000      -0.865515       -23.5519
  29   2.0000      -0.853713       -23.2307
  30   2.0000      -0.840843       -22.8805
  31   2.0000      -0.813120       -22.1261
  32   2.0000      -0.786181       -21.3931
  33   2.0000      -0.768659       -20.9163
  34   2.0000      -0.708978       -19.2923
  35   2.0000      -0.705794       -19.2056
  36   2.0000      -0.694931       -18.9100
  37   2.0000      -0.661603       -18.0031
  38   2.0000      -0.638798       -17.3826
  39   2.0000      -0.615576       -16.7507
  40   2.0000      -0.596189       -16.2231
  41   2.0000      -0.568916       -15.4810
  42   2.0000      -0.565695       -15.3933
  43   2.0000      -0.545716       -14.8497
  44   2.0000      -0.542577       -14.7643
  45   2.0000      -0.526608       -14.3297
  46   2.0000      -0.517264       -14.0755
  47   2.0000      -0.512411       -13.9434
  48   2.0000      -0.505734       -13.7617
  49   2.0000      -0.499394       -13.5892
  50   2.0000      -0.491475       -13.3737
  51   2.0000      -0.475913       -12.9502
  52   2.0000      -0.468884       -12.7590
  53   2.0000      -0.465868       -12.6769
  54   2.0000      -0.456233       -12.4147
  55   2.0000      -0.449436       -12.2298
  56   2.0000      -0.446903       -12.1609
  57   2.0000      -0.438039       -11.9196
  58   2.0000      -0.431859       -11.7515
  59   2.0000      -0.431684       -11.7467
  60   2.0000      -0.421088       -11.4584
  61   2.0000      -0.419070       -11.4035
  62   2.0000      -0.408777       -11.1234
  63   2.0000      -0.357575        -9.7301
  64   2.0000      -0.337366        -9.1802
  65   2.0000      -0.325796        -8.8654
  66   2.0000      -0.279846        -7.6150
  67   0.0000       0.018414         0.5011
  68   0.0000       0.072748         1.9796
  69   0.0000       0.102046         2.7768
  70   0.0000       0.118675         3.2293
  71   0.0000       0.125716         3.4209

MULLIKEN ATOMIC CHARGES
-----------------------
   0 S :    0.095240
   1 C :   -0.116958
   2 C :   -0.080266
   3 C :    0.052899
   4 C :   -0.089194
   5 H :   -0.070108
   6 C :    0.056305
   7 H :    0.041146
   8 H :    0.018106
   9 C :   -0.025726
  10 H :    0.006901
  11 H :    0.012184
  12 C :   -0.084590
  13 H :    0.031672
  14 H :    0.034393
  15 H :    0.044413
  16 S :    0.116734
  17 C :   -0.080238
  18 C :   -0.050625
  19 C :   -0.029793
  20 C :   -0.178726
  21 H :    0.007414
  22 C :    0.080661
  23 H :    0.039550
  24 H :    0.029659
  25 C :   -0.138996
  26 H :    0.028671
  27 H :    0.057091
  28 C :   -0.029811
  29 H :    0.040162
  30 H :    0.045914
  31 H :    0.028287
  32 H :    0.051304
  33 H :    0.056326
Sum of atomic charges:    0.0000000

LOEWDIN ATOMIC CHARGES
----------------------
   0 S :    0.372286
   1 C :   -0.193744
   2 C :   -0.060781
   3 C :   -0.059162
   4 C :   -0.168270
   5 H :    0.010467
   6 C :   -0.035954
   7 H :    0.038186
   8 H :    0.028668
   9 C :   -0.034364
  10 H :    0.012495
  11 H :    0.019857
  12 C :   -0.066795
  13 H :    0.021504
  14 H :    0.030321
  15 H :    0.024578
  16 S :    0.401795
  17 C :   -0.204627
  18 C :   -0.073850
  19 C :   -0.044522
  20 C :   -0.170380
  21 H :    0.028944
  22 C :   -0.030341
  23 H :    0.035570
  24 H :    0.031368
  25 C :   -0.047689
  26 H :    0.023660
  27 H :    0.031847
  28 C :   -0.068717
  29 H :    0.025821
  30 H :    0.032895
  31 H :    0.025373
  32 H :    0.032704
  33 H :    0.030855

  Mayer bond orders larger than 0.100000
B(  0-S ,  1-C ) :   1.1107 B(  0-S ,  4-C ) :   1.1292 B(  1-C ,  2-C ) :   1.6234
B(  1-C , 32-H ) :   0.9690 B(  2-C ,  3-C ) :   1.2116 B(  2-C ,  6-C ) :   1.0286
B(  3-C ,  4-C ) :   1.5591 B(  3-C ,  5-H ) :   1.0044 B(  4-C , 20-C ) :   1.0930
B(  6-C ,  7-H ) :   0.9455 B(  6-C ,  8-H ) :   0.9407 B(  6-C ,  9-C ) :   1.0657
B(  9-C , 10-H ) :   0.9594 B(  9-C , 11-H ) :   0.9531 B(  9-C , 12-C ) :   1.0726
B( 12-C , 13-H ) :   0.9783 B( 12-C , 14-H ) :   0.9763 B( 12-C , 15-H ) :   0.9741
B( 16-S , 17-C ) :   1.1506 B( 16-S , 20-C ) :   1.1429 B( 17-C , 18-C ) :   1.6392
B( 17-C , 33-H ) :   0.9556 B( 18-C , 19-C ) :   1.2444 B( 18-C , 21-H ) :   0.9888
B( 19-C , 20-C ) :   1.5512 B( 19-C , 22-C ) :   1.0387 B( 22-C , 23-H ) :   0.9372
B( 22-C , 24-H ) :   0.9317 B( 22-C , 25-C ) :   1.0378 B( 25-C , 26-H ) :   0.9512
B( 25-C , 27-H ) :   0.9571 B( 25-C , 28-C ) :   1.0590 B( 28-C , 29-H ) :   0.9729
B( 28-C , 30-H ) :   0.9745 B( 28-C , 31-H ) :   0.9754

Dispersion correction           -0.015280556
FINAL SINGLE POINT ENERGY     -1339.869280068876

DIPOLE MOMENT
-------------
                                X             Y             Z
Electronic contribution:    -27.67908       2.68462       7.92614
Nuclear contribution   :     28.39982      -2.51934      -7.98296
                        -----------------------------------------
Total Dipole Moment    :      0.72074       0.16528      -0.05683
                        -----------------------------------------
Magnitude (a.u.)       :      0.74162
Magnitude (Debye)      :      1.88506

Rotational constants in cm-1:     0.017442     0.010080     0.007281
Rotational constants in MHz :   522.893691   302.179210   218.268337

                             ****ORCA TERMINATED NORMALLY****
TOTAL RUN TIME: 0 days 0 hours 0 minutes 22 seconds 746 msec
