                         Program Version 4.2.1 -  RELEASE  -
|  1> ! wB97X-D3 SP def2-SVP
|  2> %pal
|  3> nprocs 24
|  4> end
|  5>
|  6> * xyz 0 1
|  7> S 	 -37.7166 	 10.5091 	 -4.46877
|  8> C 	 -37.985 	 8.75628 	 -4.54224
|  9> C 	 -36.7772 	 8.01717 	 -4.48642
| 10> C 	 -35.6383 	 8.88467 	 -4.33478
| 11> C 	 -35.9292 	 10.2604 	 -4.42097
| 12> H 	 -34.6434 	 8.56611 	 -4.18921
| 13> C 	 -36.6693 	 6.51602 	 -4.60785
| 14> H 	 -37.6406 	 6.18639 	 -4.18126
| 15> H 	 -35.9283 	 6.15277 	 -3.84378
| 16> C 	 -36.3419 	 5.97134 	 -5.98712
| 17> H 	 -36.4289 	 4.86131 	 -5.84435
| 18> H 	 -37.1217 	 6.33626 	 -6.66752
| 19> C 	 -34.9922 	 6.49067 	 -6.33447
| 20> H 	 -34.2568 	 6.35982 	 -5.5577
| 21> H 	 -34.6737 	 5.73121 	 -7.17578
| 22> H 	 -35.053 	 7.5137 	 -6.74328
| 23> S 	 -35.602 	 12.6892 	 -3.27494
| 24> C 	 -34.0497 	 13.5111 	 -3.42475
| 25> C 	 -33.1595 	 12.7285 	 -3.96422
| 26> C 	 -33.6613 	 11.5016 	 -4.49132
| 27> C 	 -34.9984 	 11.3537 	 -4.24156
| 28> H 	 -32.0995 	 13.0195 	 -3.99042
| 29> C 	 -32.791 	 10.4896 	 -5.24967
| 30> H 	 -32.874 	 9.49627 	 -4.85414
| 31> H 	 -31.7046 	 10.7019 	 -5.11516
| 32> C 	 -33.1725 	 10.4345 	 -6.75659
| 33> H 	 -32.9632 	 11.3434 	 -7.29547
| 34> H 	 -34.2427 	 10.3114 	 -6.91087
| 35> C 	 -32.5997 	 9.15236 	 -7.40262
| 36> H 	 -32.6706 	 8.32331 	 -6.79992
| 37> H 	 -31.5384 	 9.19231 	 -7.56776
| 38> H 	 -33.0958 	 8.88044 	 -8.30206
| 39> H 	 -38.9629 	 8.36207 	 -4.70018
| 40> H 	 -33.8696 	 14.5341 	 -3.09125
| 41> *
| 42>
| 43>                          ****END OF INPUT****

CARTESIAN COORDINATES (ANGSTROEM)
---------------------------------
  S    -37.716600   10.509100   -4.468770
  C    -37.985000    8.756280   -4.542240
  C    -36.777200    8.017170   -4.486420
  C    -35.638300    8.884670   -4.334780
  C    -35.929200   10.260400   -4.420970
  H    -34.643400    8.566110   -4.189210
  C    -36.669300    6.516020   -4.607850
  H    -37.640600    6.186390   -4.181260
  H    -35.928300    6.152770   -3.843780
  C    -36.341900    5.971340   -5.987120
  H    -36.428900    4.861310   -5.844350
  H    -37.121700    6.336260   -6.667520
  C    -34.992200    6.490670   -6.334470
  H    -34.256800    6.359820   -5.557700
  H    -34.673700    5.731210   -7.175780
  H    -35.053000    7.513700   -6.743280
  S    -35.602000   12.689200   -3.274940
  C    -34.049700   13.511100   -3.424750
  C    -33.159500   12.728500   -3.964220
  C    -33.661300   11.501600   -4.491320
  C    -34.998400   11.353700   -4.241560
  H    -32.099500   13.019500   -3.990420
  C    -32.791000   10.489600   -5.249670
  H    -32.874000    9.496270   -4.854140
  H    -31.704600   10.701900   -5.115160
  C    -33.172500   10.434500   -6.756590
  H    -32.963200   11.343400   -7.295470
  H    -34.242700   10.311400   -6.910870
  C    -32.599700    9.152360   -7.402620
  H    -32.670600    8.323310   -6.799920
  H    -31.538400    9.192310   -7.567760
  H    -33.095800    8.880440   -8.302060
  H    -38.962900    8.362070   -4.700180
  H    -33.869600   14.534100   -3.091250

 Total Charge           Charge          ....    0
 Multiplicity           Mult            ....    1
 Number of Electrons    NEL             ....  134
 Basis Dimension        Dim             ....  322

ORBITAL ENERGIES
----------------

  NO   OCC          E(Eh)            E(eV)
   0   2.0000     -88.969410     -2420.9807
   1   2.0000     -88.959013     -2420.6978
   2   2.0000     -10.335611      -281.2463
   3   2.0000     -10.324229      -280.9366
   4   2.0000     -10.320074      -280.8235
   5   2.0000     -10.309335      -280.5313
   6   2.0000     -10.306495      -280.4540
   7   2.0000     -10.300625      -280.2943
   8   2.0000     -10.296967      -280.1947
   9   2.0000     -10.296243      -280.1750
  10   2.0000     -10.293691      -280.1056
  11   2.0000     -10.290658      -280.0230
  12   2.0000     -10.286770      -279.9172
  13   2.0000     -10.286549      -279.9112
  14   2.0000     -10.284132      -279.8455
  15   2.0000     -10.264553      -279.3127
  16   2.0000      -8.082603      -219.9388
  17   2.0000      -8.074194      -219.7100
  18   2.0000      -6.041215      -164.3898
  19   2.0000      -6.037368      -164.2851
  20   2.0000      -6.033311      -164.1747
  21   2.0000      -6.032809      -164.1611
  22   2.0000      -6.028839      -164.0531
  23   2.0000      -6.024600      -163.9377
  24   2.0000      -1.007486       -27.4151
  25   2.0000      -0.977867       -26.6091
  26   2.0000      -0.920714       -25.0539
  27   2.0000      -0.906017       -24.6540
  28   2.0000      -0.873738       -23.7756
  29   2.0000      -0.851023       -23.1575
  30   2.0000      -0.841800       -22.9066
  31   2.0000      -0.817839       -22.2545
  32   2.0000      -0.780431       -21.2366
  33   2.0000      -0.770691       -20.9716
  34   2.0000      -0.712041       -19.3756
  35   2.0000      -0.699359       -19.0305
  36   2.0000      -0.698056       -18.9951
  37   2.0000      -0.663031       -18.0420
  38   2.0000      -0.640503       -17.4290
  39   2.0000      -0.616083       -16.7645
  40   2.0000      -0.599733       -16.3196
  41   2.0000      -0.580644       -15.8001
  42   2.0000      -0.559306       -15.2195
  43   2.0000      -0.548784       -14.9332
  44   2.0000      -0.538327       -14.6486
  45   2.0000      -0.526073       -14.3152
  46   2.0000      -0.515681       -14.0324
  47   2.0000      -0.514008       -13.9869
  48   2.0000      -0.510801       -13.8996
  49   2.0000      -0.497572       -13.5396
  50   2.0000      -0.489800       -13.3281
  51   2.0000      -0.484022       -13.1709
  52   2.0000      -0.478901       -13.0315
  53   2.0000      -0.462666       -12.5898
  54   2.0000      -0.457131       -12.4392
  55   2.0000      -0.451626       -12.2894
  56   2.0000      -0.444759       -12.1025
  57   2.0000      -0.435836       -11.8597
  58   2.0000      -0.428557       -11.6616
  59   2.0000      -0.425162       -11.5692
  60   2.0000      -0.421011       -11.4563
  61   2.0000      -0.412067       -11.2129
  62   2.0000      -0.410211       -11.1624
  63   2.0000      -0.356978        -9.7139
  64   2.0000      -0.332300        -9.0423
  65   2.0000      -0.327387        -8.9087
  66   2.0000      -0.285435        -7.7671
  67   0.0000       0.019184         0.5220
  68   0.0000       0.078501         2.1361
  69   0.0000       0.098111         2.6697
  70   0.0000       0.122392         3.3304
  71   0.0000       0.127273         3.4633

MULLIKEN ATOMIC CHARGES
-----------------------
   0 S :    0.098052
   1 C :   -0.115166
   2 C :   -0.098639
   3 C :    0.037263
   4 C :   -0.132911
   5 H :   -0.016258
   6 C :    0.007795
   7 H :    0.020139
   8 H :    0.035897
   9 C :   -0.021224
  10 H :    0.044483
  11 H :    0.034872
  12 C :   -0.097329
  13 H :    0.033217
  14 H :    0.042046
  15 H :    0.072200
  16 S :    0.078737
  17 C :   -0.082468
  18 C :   -0.026360
  19 C :   -0.045189
  20 C :   -0.125917
  21 H :    0.020294
  22 C :    0.070062
  23 H :    0.009511
  24 H :    0.025061
  25 C :   -0.070334
  26 H :    0.029635
  27 H :    0.034149
  28 C :    0.003225
  29 H :   -0.005719
  30 H :    0.015983
  31 H :    0.024302
  32 H :    0.043904
  33 H :    0.056685
Sum of atomic charges:   -0.0000000

LOEWDIN ATOMIC CHARGES
----------------------
   0 S :    0.375063
   1 C :   -0.184761
   2 C :   -0.060464
   3 C :   -0.051989
   4 C :   -0.177379
   5 H :    0.019753
   6 C :   -0.044882
   7 H :    0.028464
   8 H :    0.032792
   9 C :   -0.043373
  10 H :    0.031936
  11 H :    0.029975
  12 C :   -0.072107
  13 H :    0.019126
  14 H :    0.039721
  15 H :    0.036124
  16 S :    0.382146
  17 C :   -0.174871
  18 C :   -0.075919
  19 C :   -0.060650
  20 C :   -0.186164
  21 H :    0.037081
  22 C :   -0.026214
  23 H :    0.020675
  24 H :    0.033746
  25 C :   -0.032543
  26 H :    0.023831
  27 H :    0.026511
  28 C :   -0.058292
  29 H :    0.011691
  30 H :    0.022113
  31 H :    0.023370
  32 H :    0.021239
  33 H :    0.034252

  Mayer bond orders larger than 0.100000
B(  0-S ,  1-C ) :   1.1379 B(  0-S ,  4-C ) :   1.1345 B(  1-C ,  2-C ) :   1.5973
B(  1-C ,  4-C ) :   0.1033 B(  1-C , 32-H ) :   0.9712 B(  2-C ,  3-C ) :   1.2441
B(  2-C ,  6-C ) :   1.0170 B(  3-C ,  4-C ) :   1.5543 B(  3-C ,  5-H ) :   0.9929
B(  4-C , 20-C ) :   1.0775 B(  6-C ,  7-H ) :   0.9372 B(  6-C ,  8-H ) :   0.9459
B(  6-C ,  9-C ) :   1.0598 B(  9-C , 10-H ) :   0.9537 B(  9-C , 11-H ) :   0.9482
B(  9-C , 12-C ) :   1.0822 B( 12-C , 13-H ) :   0.9707 B( 12-C , 14-H ) :   0.9686
B( 12-C , 15-H ) :   0.9605 B( 16-S , 17-C ) :   1.1187 B( 16-S , 20-C ) :   1.1295
B( 17-C , 18-C ) :   1.6571 B( 17-C , 33-H ) :   0.9650 B( 18-C , 19-C ) :   1.2246
B( 18-C , 21-H ) :   0.9884 B( 19-C , 20-C ) :   1.6207 B( 19-C , 22-C ) :   1.0373
B( 22-C , 23-H ) :   0.9402 B( 22-C , 24-H ) :   0.9339 B( 22-C , 25-C ) :   1.0537
B( 25-C , 26-H ) :   0.9560 B( 25-C , 27-H ) :   0.9619 B( 25-C , 28-C ) :   1.0763
B( 28-C , 29-H ) :   0.9687 B( 28-C , 30-H ) :   0.9688 B( 28-C , 31-H ) :   0.9732

Dispersion correction           -0.016260578
FINAL SINGLE POINT ENERGY     -1339.871976045121

DIPOLE MOMENT
-------------
                                X             Y             Z
Electronic contribution:    -14.69384      22.65378      15.68572
Nuclear contribution   :     15.15609     -23.19683     -15.89702
                        -----------------------------------------
Total Dipole Moment    :      0.46225      -0.54305      -0.21131
                        -----------------------------------------
Magnitude (a.u.)       :      0.74379
Magnitude (Debye)      :      1.89057

Rotational constants in cm-1:     0.018780     0.010758     0.007399
Rotational constants in MHz :   563.008118   322.530557   221.818208

                             ****ORCA TERMINATED NORMALLY****
TOTAL RUN TIME: 0 days 0 hours 0 minutes 23 seconds 514 msec
