                         Program Version 4.2.1 -  RELEASE  -
|  1> ! wB97X-D3 SP def2-SVP
|  2> %pal
|  3> nprocs 24
|  4> end
|  5>
|  6> * xyz 0 1
|  7> S 	 46.8495 	 -33.3659 	 -121.035
|  8> C 	 47.8782 	 -33.3376 	 -122.521
|  9> C 	 47.209 	 -32.6057 	 -123.5
| 10> C 	 45.9008 	 -32.1917 	 -123.109
| 11> C 	 45.4907 	 -32.5847 	 -121.871
| 12> H 	 45.2542 	 -31.709 	 -123.75
| 13> C 	 47.9135 	 -31.9284 	 -124.699
| 14> H 	 48.9571 	 -31.5816 	 -124.444
| 15> H 	 47.3598 	 -30.9923 	 -124.857
| 16> C 	 48.0293 	 -32.6771 	 -126.093
| 17> H 	 48.3227 	 -31.9421 	 -126.83
| 18> H 	 48.8546 	 -33.3755 	 -126.07
| 19> C 	 46.7311 	 -33.5404 	 -126.386
| 20> H 	 46.9315 	 -34.4005 	 -127.075
| 21> H 	 46.2799 	 -33.869 	 -125.421
| 22> H 	 45.9486 	 -32.9298 	 -126.963
| 23> S 	 44.408 	 -31.6516 	 -119.632
| 24> C 	 42.8032 	 -31.3813 	 -119.488
| 25> C 	 42.1741 	 -31.6775 	 -120.719
| 26> C 	 42.9362 	 -32.3826 	 -121.65
| 27> C 	 44.2574 	 -32.3014 	 -121.236
| 28> H 	 41.1732 	 -31.4143 	 -120.867
| 29> C 	 42.3418 	 -32.858 	 -122.936
| 30> H 	 41.8702 	 -33.8057 	 -122.784
| 31> H 	 43.1261 	 -33.053 	 -123.622
| 32> C 	 41.3661 	 -31.9358 	 -123.677
| 33> H 	 40.538 	 -31.8054 	 -122.945
| 34> H 	 40.9472 	 -32.3985 	 -124.571
| 35> C 	 41.8955 	 -30.5994 	 -124.167
| 36> H 	 41.219 	 -29.9328 	 -124.56
| 37> H 	 42.7511 	 -30.7224 	 -124.883
| 38> H 	 42.2873 	 -29.8665 	 -123.394
| 39> H 	 48.9729 	 -33.5344 	 -122.534
| 40> H 	 42.2545 	 -30.7828 	 -118.787
| 41> *
| 42>
| 43>                          ****END OF INPUT****

CARTESIAN COORDINATES (ANGSTROEM)
---------------------------------
  S     46.849500  -33.365900  -121.035000
  C     47.878200  -33.337600  -122.521000
  C     47.209000  -32.605700  -123.500000
  C     45.900800  -32.191700  -123.109000
  C     45.490700  -32.584700  -121.871000
  H     45.254200  -31.709000  -123.750000
  C     47.913500  -31.928400  -124.699000
  H     48.957100  -31.581600  -124.444000
  H     47.359800  -30.992300  -124.857000
  C     48.029300  -32.677100  -126.093000
  H     48.322700  -31.942100  -126.830000
  H     48.854600  -33.375500  -126.070000
  C     46.731100  -33.540400  -126.386000
  H     46.931500  -34.400500  -127.075000
  H     46.279900  -33.869000  -125.421000
  H     45.948600  -32.929800  -126.963000
  S     44.408000  -31.651600  -119.632000
  C     42.803200  -31.381300  -119.488000
  C     42.174100  -31.677500  -120.719000
  C     42.936200  -32.382600  -121.650000
  C     44.257400  -32.301400  -121.236000
  H     41.173200  -31.414300  -120.867000
  C     42.341800  -32.858000  -122.936000
  H     41.870200  -33.805700  -122.784000
  H     43.126100  -33.053000  -123.622000
  C     41.366100  -31.935800  -123.677000
  H     40.538000  -31.805400  -122.945000
  H     40.947200  -32.398500  -124.571000
  C     41.895500  -30.599400  -124.167000
  H     41.219000  -29.932800  -124.560000
  H     42.751100  -30.722400  -124.883000
  H     42.287300  -29.866500  -123.394000
  H     48.972900  -33.534400  -122.534000
  H     42.254500  -30.782800  -118.787000

 Total Charge           Charge          ....    0
 Multiplicity           Mult            ....    1
 Number of Electrons    NEL             ....  134
 Basis Dimension        Dim             ....  322

ORBITAL ENERGIES
----------------

  NO   OCC          E(Eh)            E(eV)
   0   2.0000     -88.968766     -2420.9632
   1   2.0000     -88.963533     -2420.8208
   2   2.0000     -10.327280      -281.0196
   3   2.0000     -10.322829      -280.8985
   4   2.0000     -10.321661      -280.8667
   5   2.0000     -10.309513      -280.5361
   6   2.0000     -10.304640      -280.4035
   7   2.0000     -10.302242      -280.3382
   8   2.0000     -10.300290      -280.2851
   9   2.0000     -10.294748      -280.1343
  10   2.0000     -10.290744      -280.0254
  11   2.0000     -10.289058      -279.9795
  12   2.0000     -10.288133      -279.9543
  13   2.0000     -10.285667      -279.8872
  14   2.0000     -10.285178      -279.8739
  15   2.0000     -10.279837      -279.7286
  16   2.0000      -8.085875      -220.0278
  17   2.0000      -8.077130      -219.7899
  18   2.0000      -6.043993      -164.4654
  19   2.0000      -6.039920      -164.3546
  20   2.0000      -6.036988      -164.2748
  21   2.0000      -6.035869      -164.2443
  22   2.0000      -6.031844      -164.1348
  23   2.0000      -6.027642      -164.0205
  24   2.0000      -1.020969       -27.7820
  25   2.0000      -0.984260       -26.7831
  26   2.0000      -0.920500       -25.0481
  27   2.0000      -0.899449       -24.4752
  28   2.0000      -0.869562       -23.6620
  29   2.0000      -0.859166       -23.3791
  30   2.0000      -0.837857       -22.7992
  31   2.0000      -0.810199       -22.0466
  32   2.0000      -0.794895       -21.6302
  33   2.0000      -0.768929       -20.9236
  34   2.0000      -0.713450       -19.4140
  35   2.0000      -0.703068       -19.1315
  36   2.0000      -0.698519       -19.0077
  37   2.0000      -0.663689       -18.0599
  38   2.0000      -0.637652       -17.3514
  39   2.0000      -0.621356       -16.9079
  40   2.0000      -0.603136       -16.4122
  41   2.0000      -0.565064       -15.3762
  42   2.0000      -0.563155       -15.3242
  43   2.0000      -0.543584       -14.7917
  44   2.0000      -0.538576       -14.6554
  45   2.0000      -0.537448       -14.6247
  46   2.0000      -0.521332       -14.1862
  47   2.0000      -0.509276       -13.8581
  48   2.0000      -0.507522       -13.8104
  49   2.0000      -0.501667       -13.6511
  50   2.0000      -0.495223       -13.4757
  51   2.0000      -0.480797       -13.0831
  52   2.0000      -0.470459       -12.8018
  53   2.0000      -0.461064       -12.5462
  54   2.0000      -0.457777       -12.4567
  55   2.0000      -0.452510       -12.3134
  56   2.0000      -0.446303       -12.1445
  57   2.0000      -0.436433       -11.8760
  58   2.0000      -0.428483       -11.6596
  59   2.0000      -0.423771       -11.5314
  60   2.0000      -0.419462       -11.4142
  61   2.0000      -0.414498       -11.2791
  62   2.0000      -0.407396       -11.0858
  63   2.0000      -0.350327        -9.5329
  64   2.0000      -0.335533        -9.1303
  65   2.0000      -0.328541        -8.9401
  66   2.0000      -0.287248        -7.8164
  67   0.0000       0.024735         0.6731
  68   0.0000       0.067231         1.8295
  69   0.0000       0.103812         2.8249
  70   0.0000       0.122926         3.3450
  71   0.0000       0.129801         3.5321

MULLIKEN ATOMIC CHARGES
-----------------------
   0 S :    0.083890
   1 C :   -0.126906
   2 C :   -0.088367
   3 C :    0.063176
   4 C :   -0.130659
   5 H :   -0.030322
   6 C :    0.001503
   7 H :    0.039960
   8 H :    0.031971
   9 C :   -0.041183
  10 H :    0.032805
  11 H :    0.024967
  12 C :   -0.118602
  13 H :    0.045808
  14 H :    0.064690
  15 H :    0.036878
  16 S :    0.144416
  17 C :   -0.059037
  18 C :   -0.077932
  19 C :   -0.013250
  20 C :   -0.175551
  21 H :   -0.008941
  22 C :    0.130887
  23 H :    0.035105
  24 H :   -0.001166
  25 C :   -0.083209
  26 H :    0.030387
  27 H :    0.037074
  28 C :   -0.054907
  29 H :    0.015657
  30 H :    0.035645
  31 H :    0.030217
  32 H :    0.071798
  33 H :    0.053196
Sum of atomic charges:   -0.0000000

LOEWDIN ATOMIC CHARGES
----------------------
   0 S :    0.364341
   1 C :   -0.185477
   2 C :   -0.069198
   3 C :   -0.059368
   4 C :   -0.180093
   5 H :    0.015350
   6 C :   -0.034746
   7 H :    0.035613
   8 H :    0.030761
   9 C :   -0.039716
  10 H :    0.023828
  11 H :    0.019185
  12 C :   -0.082126
  13 H :    0.029284
  14 H :    0.032183
  15 H :    0.028402
  16 S :    0.477486
  17 C :   -0.228932
  18 C :   -0.064943
  19 C :   -0.049593
  20 C :   -0.202791
  21 H :    0.014532
  22 C :   -0.025046
  23 H :    0.038084
  24 H :    0.023060
  25 C :   -0.038088
  26 H :    0.023883
  27 H :    0.031268
  28 C :   -0.076671
  29 H :    0.016540
  30 H :    0.028738
  31 H :    0.033697
  32 H :    0.038965
  33 H :    0.031589

  Mayer bond orders larger than 0.100000
B(  0-S ,  1-C ) :   1.1193 B(  0-S ,  4-C ) :   1.1259 B(  1-C ,  2-C ) :   1.6166
B(  1-C , 32-H ) :   0.9628 B(  2-C ,  3-C ) :   1.2325 B(  2-C ,  6-C ) :   1.0043
B(  3-C ,  4-C ) :   1.5816 B(  3-C ,  5-H ) :   1.0037 B(  4-C , 20-C ) :   1.0688
B(  6-C ,  7-H ) :   0.9530 B(  6-C ,  8-H ) :   0.9535 B(  6-C ,  9-C ) :   1.0564
B(  9-C , 10-H ) :   0.9606 B(  9-C , 11-H ) :   0.9627 B(  9-C , 12-C ) :   1.0595
B( 12-C , 13-H ) :   0.9791 B( 12-C , 14-H ) :   0.9694 B( 12-C , 15-H ) :   0.9781
B( 16-S , 17-C ) :   1.1978 B( 16-S , 20-C ) :   1.1816 B( 17-C , 18-C ) :   1.5515
B( 17-C , 20-C ) :   0.1053 B( 17-C , 33-H ) :   0.9667 B( 18-C , 19-C ) :   1.2873
B( 18-C , 21-H ) :   0.9912 B( 19-C , 20-C ) :   1.5225 B( 19-C , 22-C ) :   1.0433
B( 22-C , 23-H ) :   0.9160 B( 22-C , 24-H ) :   0.9273 B( 22-C , 25-C ) :   1.0828
B( 25-C , 26-H ) :   0.9492 B( 25-C , 27-H ) :   0.9515 B( 25-C , 28-C ) :   1.0793
B( 28-C , 29-H ) :   0.9709 B( 28-C , 30-H ) :   0.9714 B( 28-C , 31-H ) :   0.9681

Dispersion correction           -0.014751253
FINAL SINGLE POINT ENERGY     -1339.853128219125

DIPOLE MOMENT
-------------
                                X             Y             Z
Electronic contribution:      6.01619      -3.18286      28.76233
Nuclear contribution   :     -6.31654       3.61033     -29.32223
                        -----------------------------------------
Total Dipole Moment    :     -0.30035       0.42747      -0.55990
                        -----------------------------------------
Magnitude (a.u.)       :      0.76579
Magnitude (Debye)      :      1.94648

Rotational constants in cm-1:     0.018299     0.009695     0.006890
Rotational constants in MHz :   548.576656   290.650251   206.557897

                             ****ORCA TERMINATED NORMALLY****
TOTAL RUN TIME: 0 days 0 hours 0 minutes 22 seconds 262 msec
