                         Program Version 4.2.1 -  RELEASE  -
|  1> ! wB97X-D3 SP def2-SVP
|  2> %pal
|  3> nprocs 24
|  4> end
|  5>
|  6> * xyz 0 1
|  7> S 	 -110.066 	 19.6197 	 -107.626
|  8> C 	 -108.573 	 19.2351 	 -106.774
|  9> C 	 -107.443 	 19.5503 	 -107.561
| 10> C 	 -107.869 	 20.258 	 -108.731
| 11> C 	 -109.225 	 20.1912 	 -109.033
| 12> H 	 -107.217 	 20.7752 	 -109.402
| 13> C 	 -106.029 	 19.1097 	 -107.27
| 14> H 	 -105.495 	 19.6469 	 -108.088
| 15> H 	 -105.962 	 18.0394 	 -107.465
| 16> C 	 -105.402 	 19.4802 	 -105.962
| 17> H 	 -105.838 	 18.9025 	 -105.191
| 18> H 	 -104.381 	 19.2185 	 -106.029
| 19> C 	 -105.46 	 21.0068 	 -105.596
| 20> H 	 -106.41 	 21.1632 	 -105.121
| 21> H 	 -104.759 	 21.2927 	 -104.866
| 22> H 	 -105.405 	 21.7071 	 -106.5
| 23> S 	 -111.309 	 21.7624 	 -109.747
| 24> C 	 -111.651 	 21.9692 	 -111.405
| 25> C 	 -110.679 	 21.476 	 -112.278
| 26> C 	 -109.617 	 20.9044 	 -111.54
| 27> C 	 -109.869 	 20.8523 	 -110.149
| 28> H 	 -110.787 	 21.5058 	 -113.362
| 29> C 	 -108.56 	 20.0734 	 -112.27
| 30> H 	 -109.182 	 19.4144 	 -112.828
| 31> H 	 -107.989 	 19.4246 	 -111.58
| 32> C 	 -107.65 	 20.9659 	 -113.202
| 33> H 	 -108.357 	 21.3709 	 -113.936
| 34> H 	 -107.011 	 20.2643 	 -113.839
| 35> C 	 -106.77 	 22.0004 	 -112.433
| 36> H 	 -107.413 	 22.7995 	 -112.02
| 37> H 	 -106.132 	 22.393 	 -113.15
| 38> H 	 -106.145 	 21.5005 	 -111.681
| 39> H 	 -108.536 	 18.7336 	 -105.827
| 40> H 	 -112.512 	 22.4973 	 -111.777
| 41> *
| 42>
| 43>                          ****END OF INPUT****

CARTESIAN COORDINATES (ANGSTROEM)
---------------------------------
  S    -110.066000   19.619700  -107.626000
  C    -108.573000   19.235100  -106.774000
  C    -107.443000   19.550300  -107.561000
  C    -107.869000   20.258000  -108.731000
  C    -109.225000   20.191200  -109.033000
  H    -107.217000   20.775200  -109.402000
  C    -106.029000   19.109700  -107.270000
  H    -105.495000   19.646900  -108.088000
  H    -105.962000   18.039400  -107.465000
  C    -105.402000   19.480200  -105.962000
  H    -105.838000   18.902500  -105.191000
  H    -104.381000   19.218500  -106.029000
  C    -105.460000   21.006800  -105.596000
  H    -106.410000   21.163200  -105.121000
  H    -104.759000   21.292700  -104.866000
  H    -105.405000   21.707100  -106.500000
  S    -111.309000   21.762400  -109.747000
  C    -111.651000   21.969200  -111.405000
  C    -110.679000   21.476000  -112.278000
  C    -109.617000   20.904400  -111.540000
  C    -109.869000   20.852300  -110.149000
  H    -110.787000   21.505800  -113.362000
  C    -108.560000   20.073400  -112.270000
  H    -109.182000   19.414400  -112.828000
  H    -107.989000   19.424600  -111.580000
  C    -107.650000   20.965900  -113.202000
  H    -108.357000   21.370900  -113.936000
  H    -107.011000   20.264300  -113.839000
  C    -106.770000   22.000400  -112.433000
  H    -107.413000   22.799500  -112.020000
  H    -106.132000   22.393000  -113.150000
  H    -106.145000   21.500500  -111.681000
  H    -108.536000   18.733600  -105.827000
  H    -112.512000   22.497300  -111.777000

 Total Charge           Charge          ....    0
 Multiplicity           Mult            ....    1
 Number of Electrons    NEL             ....  134
 Basis Dimension        Dim             ....  322

ORBITAL ENERGIES
----------------

  NO   OCC          E(Eh)            E(eV)
   0   2.0000     -88.966756     -2420.9085
   1   2.0000     -88.966386     -2420.8984
   2   2.0000     -10.326395      -280.9955
   3   2.0000     -10.325585      -280.9735
   4   2.0000     -10.314405      -280.6692
   5   2.0000     -10.313711      -280.6504
   6   2.0000     -10.304035      -280.3870
   7   2.0000     -10.302804      -280.3536
   8   2.0000     -10.297026      -280.1963
   9   2.0000     -10.294685      -280.1326
  10   2.0000     -10.293050      -280.0881
  11   2.0000     -10.290181      -280.0101
  12   2.0000     -10.289501      -279.9916
  13   2.0000     -10.281313      -279.7687
  14   2.0000     -10.278846      -279.7016
  15   2.0000     -10.276832      -279.6468
  16   2.0000      -8.081981      -219.9219
  17   2.0000      -8.081202      -219.9007
  18   2.0000      -6.040224      -164.3628
  19   2.0000      -6.039732      -164.3495
  20   2.0000      -6.036396      -164.2587
  21   2.0000      -6.035696      -164.2396
  22   2.0000      -6.032943      -164.1647
  23   2.0000      -6.032012      -164.1394
  24   2.0000      -1.007551       -27.4169
  25   2.0000      -0.983286       -26.7566
  26   2.0000      -0.915326       -24.9073
  27   2.0000      -0.903017       -24.5723
  28   2.0000      -0.866116       -23.5682
  29   2.0000      -0.849900       -23.1270
  30   2.0000      -0.843507       -22.9530
  31   2.0000      -0.809027       -22.0147
  32   2.0000      -0.785236       -21.3673
  33   2.0000      -0.773848       -21.0575
  34   2.0000      -0.709720       -19.3125
  35   2.0000      -0.703623       -19.1466
  36   2.0000      -0.690874       -18.7996
  37   2.0000      -0.659258       -17.9393
  38   2.0000      -0.637167       -17.3382
  39   2.0000      -0.611997       -16.6533
  40   2.0000      -0.590580       -16.0705
  41   2.0000      -0.574039       -15.6204
  42   2.0000      -0.558609       -15.2005
  43   2.0000      -0.551294       -15.0015
  44   2.0000      -0.543718       -14.7953
  45   2.0000      -0.535935       -14.5835
  46   2.0000      -0.514801       -14.0084
  47   2.0000      -0.506310       -13.7774
  48   2.0000      -0.500615       -13.6224
  49   2.0000      -0.497401       -13.5350
  50   2.0000      -0.491027       -13.3615
  51   2.0000      -0.473338       -12.8802
  52   2.0000      -0.467645       -12.7253
  53   2.0000      -0.465303       -12.6615
  54   2.0000      -0.461879       -12.5684
  55   2.0000      -0.453702       -12.3459
  56   2.0000      -0.448047       -12.1920
  57   2.0000      -0.438631       -11.9357
  58   2.0000      -0.436082       -11.8664
  59   2.0000      -0.426294       -11.6001
  60   2.0000      -0.422769       -11.5041
  61   2.0000      -0.414232       -11.2718
  62   2.0000      -0.407685       -11.0937
  63   2.0000      -0.347805        -9.4643
  64   2.0000      -0.333003        -9.0615
  65   2.0000      -0.326507        -8.8847
  66   2.0000      -0.282010        -7.6739
  67   0.0000       0.024367         0.6630
  68   0.0000       0.073795         2.0081
  69   0.0000       0.108594         2.9550
  70   0.0000       0.114383         3.1125
  71   0.0000       0.132741         3.6121

MULLIKEN ATOMIC CHARGES
-----------------------
   0 S :    0.104824
   1 C :   -0.126213
   2 C :   -0.101489
   3 C :    0.018731
   4 C :   -0.124495
   5 H :   -0.004585
   6 C :    0.060955
   7 H :    0.015953
   8 H :    0.050916
   9 C :   -0.036373
  10 H :    0.020181
  11 H :    0.023028
  12 C :   -0.056008
  13 H :    0.028820
  14 H :    0.027120
  15 H :    0.043024
  16 S :    0.121003
  17 C :   -0.086191
  18 C :   -0.050844
  19 C :   -0.029149
  20 C :   -0.169083
  21 H :    0.029022
  22 C :    0.048768
  23 H :    0.027079
  24 H :    0.027176
  25 C :   -0.117536
  26 H :    0.025050
  27 H :    0.034115
  28 C :   -0.017886
  29 H :    0.056188
  30 H :    0.021979
  31 H :    0.040561
  32 H :    0.045731
  33 H :    0.049627
Sum of atomic charges:    0.0000000

LOEWDIN ATOMIC CHARGES
----------------------
   0 S :    0.408346
   1 C :   -0.196329
   2 C :   -0.060872
   3 C :   -0.063530
   4 C :   -0.204774
   5 H :    0.022369
   6 C :   -0.033398
   7 H :    0.032850
   8 H :    0.039326
   9 C :   -0.034768
  10 H :    0.017955
  11 H :    0.021557
  12 C :   -0.063825
  13 H :    0.024619
  14 H :    0.018913
  15 H :    0.034556
  16 S :    0.427877
  17 C :   -0.193877
  18 C :   -0.074543
  19 C :   -0.054816
  20 C :   -0.201691
  21 H :    0.034868
  22 C :   -0.030800
  23 H :    0.028304
  24 H :    0.026974
  25 C :   -0.041951
  26 H :    0.020052
  27 H :    0.027180
  28 C :   -0.059567
  29 H :    0.035288
  30 H :    0.018805
  31 H :    0.027800
  32 H :    0.022986
  33 H :    0.024118

  Mayer bond orders larger than 0.100000
B(  0-S ,  1-C ) :   1.1491 B(  0-S ,  4-C ) :   1.1499 B(  1-C ,  2-C ) :   1.5658
B(  1-C ,  4-C ) :   0.1001 B(  1-C , 32-H ) :   0.9743 B(  2-C ,  3-C ) :   1.2716
B(  2-C ,  6-C ) :   1.0062 B(  3-C ,  4-C ) :   1.5451 B(  3-C ,  5-H ) :   0.9874
B(  4-C , 20-C ) :   1.0714 B(  6-C ,  7-H ) :   0.9371 B(  6-C ,  8-H ) :   0.9370
B(  6-C ,  9-C ) :   1.0903 B(  9-C , 10-H ) :   0.9533 B(  9-C , 11-H ) :   0.9554
B(  9-C , 12-C ) :   1.0682 B( 12-C , 13-H ) :   0.9726 B( 12-C , 14-H ) :   0.9770
B( 12-C , 15-H ) :   0.9786 B( 16-S , 17-C ) :   1.1771 B( 16-S , 20-C ) :   1.1498
B( 17-C , 18-C ) :   1.5860 B( 17-C , 33-H ) :   0.9671 B( 18-C , 19-C ) :   1.2614
B( 18-C , 21-H ) :   0.9888 B( 19-C , 20-C ) :   1.5540 B( 19-C , 22-C ) :   1.0231
B( 22-C , 23-H ) :   0.9456 B( 22-C , 24-H ) :   0.9461 B( 22-C , 25-C ) :   1.0588
B( 25-C , 26-H ) :   0.9588 B( 25-C , 27-H ) :   0.9593 B( 25-C , 28-C ) :   1.0643
B( 28-C , 29-H ) :   0.9731 B( 28-C , 30-H ) :   0.9718 B( 28-C , 31-H ) :   0.9720

Dispersion correction           -0.014720478
FINAL SINGLE POINT ENERGY     -1339.874836921824

DIPOLE MOMENT
-------------
                                X             Y             Z
Electronic contribution:    -26.06237      -0.64421       3.76200
Nuclear contribution   :     26.58853       0.54252      -4.02741
                        -----------------------------------------
Total Dipole Moment    :      0.52616      -0.10169      -0.26541
                        -----------------------------------------
Magnitude (a.u.)       :      0.59801
Magnitude (Debye)      :      1.52003

Rotational constants in cm-1:     0.019891     0.008650     0.006708
Rotational constants in MHz :   596.313281   259.318475   201.097488

                             ****ORCA TERMINATED NORMALLY****
TOTAL RUN TIME: 0 days 0 hours 0 minutes 22 seconds 43 msec
