                         Program Version 4.2.1 -  RELEASE  -
|  1> ! wB97X-D3 SP def2-SVP
|  2> %pal
|  3> nprocs 24
|  4> end
|  5>
|  6> * xyz 0 1
|  7> S 	 -49.2528 	 13.3376 	 25.0586
|  8> C 	 -49.1164 	 14.7103 	 26.1355
|  9> C 	 -49.8981 	 15.7886 	 25.6747
| 10> C 	 -50.6078 	 15.5612 	 24.4378
| 11> C 	 -50.3861 	 14.2657 	 24.0169
| 12> H 	 -51.2987 	 16.2277 	 23.9285
| 13> C 	 -49.9516 	 17.1337 	 26.3591
| 14> H 	 -50.1429 	 17.9171 	 25.7084
| 15> H 	 -48.973 	 17.3161 	 26.8166
| 16> C 	 -50.9637 	 17.2307 	 27.4911
| 17> H 	 -50.7313 	 16.459 	 28.1411
| 18> H 	 -50.7656 	 18.1711 	 27.9959
| 19> C 	 -52.4135 	 17.1542 	 27.026
| 20> H 	 -52.631 	 16.2127 	 26.5238
| 21> H 	 -53.0149 	 17.0548 	 27.9201
| 22> H 	 -52.6876 	 17.9672 	 26.4666
| 23> S 	 -51.4229 	 12.0162 	 22.8488
| 24> C 	 -51.5856 	 11.9723 	 21.1069
| 25> C 	 -51.3101 	 13.1597 	 20.5146
| 26> C 	 -50.7606 	 14.1086 	 21.4764
| 27> C 	 -50.7591 	 13.6618 	 22.7776
| 28> H 	 -51.4428 	 13.282 	 19.4833
| 29> C 	 -50.2493 	 15.4819 	 21.0538
| 30> H 	 -49.5951 	 15.5967 	 20.1572
| 31> H 	 -49.6672 	 15.8626 	 21.9511
| 32> C 	 -51.3063 	 16.553 	 20.8257
| 33> H 	 -52.2046 	 16.4476 	 21.4863
| 34> H 	 -51.7179 	 16.3794 	 19.8347
| 35> C 	 -50.6773 	 17.9826 	 20.9418
| 36> H 	 -51.2978 	 18.8664 	 20.7293
| 37> H 	 -49.7153 	 17.9709 	 20.3531
| 38> H 	 -50.2746 	 18.0096 	 22.0046
| 39> H 	 -48.3948 	 14.8163 	 27.001
| 40> H 	 -52.0474 	 11.138 	 20.6067
| 41> *
| 42>
| 43>                          ****END OF INPUT****

CARTESIAN COORDINATES (ANGSTROEM)
---------------------------------
  S    -49.252800   13.337600   25.058600
  C    -49.116400   14.710300   26.135500
  C    -49.898100   15.788600   25.674700
  C    -50.607800   15.561200   24.437800
  C    -50.386100   14.265700   24.016900
  H    -51.298700   16.227700   23.928500
  C    -49.951600   17.133700   26.359100
  H    -50.142900   17.917100   25.708400
  H    -48.973000   17.316100   26.816600
  C    -50.963700   17.230700   27.491100
  H    -50.731300   16.459000   28.141100
  H    -50.765600   18.171100   27.995900
  C    -52.413500   17.154200   27.026000
  H    -52.631000   16.212700   26.523800
  H    -53.014900   17.054800   27.920100
  H    -52.687600   17.967200   26.466600
  S    -51.422900   12.016200   22.848800
  C    -51.585600   11.972300   21.106900
  C    -51.310100   13.159700   20.514600
  C    -50.760600   14.108600   21.476400
  C    -50.759100   13.661800   22.777600
  H    -51.442800   13.282000   19.483300
  C    -50.249300   15.481900   21.053800
  H    -49.595100   15.596700   20.157200
  H    -49.667200   15.862600   21.951100
  C    -51.306300   16.553000   20.825700
  H    -52.204600   16.447600   21.486300
  H    -51.717900   16.379400   19.834700
  C    -50.677300   17.982600   20.941800
  H    -51.297800   18.866400   20.729300
  H    -49.715300   17.970900   20.353100
  H    -50.274600   18.009600   22.004600
  H    -48.394800   14.816300   27.001000
  H    -52.047400   11.138000   20.606700

 Total Charge           Charge          ....    0
 Multiplicity           Mult            ....    1
 Number of Electrons    NEL             ....  134
 Basis Dimension        Dim             ....  322

ORBITAL ENERGIES
----------------

  NO   OCC          E(Eh)            E(eV)
   0   2.0000     -88.970029     -2420.9976
   1   2.0000     -88.962101     -2420.7818
   2   2.0000     -10.332862      -281.1715
   3   2.0000     -10.325658      -280.9754
   4   2.0000     -10.322374      -280.8861
   5   2.0000     -10.315302      -280.6936
   6   2.0000     -10.308210      -280.5007
   7   2.0000     -10.305245      -280.4200
   8   2.0000     -10.301825      -280.3269
   9   2.0000     -10.295932      -280.1666
  10   2.0000     -10.292181      -280.0645
  11   2.0000     -10.291685      -280.0510
  12   2.0000     -10.289586      -279.9939
  13   2.0000     -10.280548      -279.7479
  14   2.0000     -10.274789      -279.5912
  15   2.0000     -10.265978      -279.3515
  16   2.0000      -8.083845      -219.9726
  17   2.0000      -8.076999      -219.7863
  18   2.0000      -6.042436      -164.4231
  19   2.0000      -6.038471      -164.3152
  20   2.0000      -6.035579      -164.2365
  21   2.0000      -6.034557      -164.2087
  22   2.0000      -6.031587      -164.1278
  23   2.0000      -6.027568      -164.0185
  24   2.0000      -1.005721       -27.3670
  25   2.0000      -0.979989       -26.6669
  26   2.0000      -0.916203       -24.9312
  27   2.0000      -0.908035       -24.7089
  28   2.0000      -0.872930       -23.7536
  29   2.0000      -0.851072       -23.1589
  30   2.0000      -0.842513       -22.9259
  31   2.0000      -0.818128       -22.2624
  32   2.0000      -0.782687       -21.2980
  33   2.0000      -0.766486       -20.8571
  34   2.0000      -0.705054       -19.1855
  35   2.0000      -0.703086       -19.1319
  36   2.0000      -0.692237       -18.8367
  37   2.0000      -0.665207       -18.1012
  38   2.0000      -0.639701       -17.4071
  39   2.0000      -0.617068       -16.7913
  40   2.0000      -0.600854       -16.3501
  41   2.0000      -0.580581       -15.7984
  42   2.0000      -0.563772       -15.3410
  43   2.0000      -0.547175       -14.8894
  44   2.0000      -0.542751       -14.7690
  45   2.0000      -0.523398       -14.2424
  46   2.0000      -0.521171       -14.1818
  47   2.0000      -0.516289       -14.0489
  48   2.0000      -0.504104       -13.7174
  49   2.0000      -0.497908       -13.5488
  50   2.0000      -0.484444       -13.1824
  51   2.0000      -0.481106       -13.0916
  52   2.0000      -0.470309       -12.7978
  53   2.0000      -0.464025       -12.6268
  54   2.0000      -0.457775       -12.4567
  55   2.0000      -0.450342       -12.2544
  56   2.0000      -0.443776       -12.0758
  57   2.0000      -0.435794       -11.8586
  58   2.0000      -0.430298       -11.7090
  59   2.0000      -0.427260       -11.6263
  60   2.0000      -0.419487       -11.4148
  61   2.0000      -0.416778       -11.3411
  62   2.0000      -0.411951       -11.2097
  63   2.0000      -0.352008        -9.5786
  64   2.0000      -0.333583        -9.0773
  65   2.0000      -0.329732        -8.9725
  66   2.0000      -0.290424        -7.9028
  67   0.0000       0.026226         0.7136
  68   0.0000       0.067319         1.8318
  69   0.0000       0.103608         2.8193
  70   0.0000       0.115028         3.1301
  71   0.0000       0.123529         3.3614

MULLIKEN ATOMIC CHARGES
-----------------------
   0 S :    0.115004
   1 C :   -0.127437
   2 C :   -0.120517
   3 C :    0.026761
   4 C :   -0.130111
   5 H :    0.025903
   6 C :    0.088439
   7 H :   -0.002631
   8 H :    0.016745
   9 C :   -0.042495
  10 H :    0.002518
  11 H :    0.024326
  12 C :   -0.020157
  13 H :    0.035471
  14 H :    0.025820
  15 H :    0.016501
  16 S :    0.088864
  17 C :   -0.081423
  18 C :    0.000123
  19 C :   -0.013511
  20 C :   -0.150472
  21 H :    0.003266
  22 C :   -0.005763
  23 H :    0.041607
  24 H :    0.036185
  25 C :   -0.082366
  26 H :    0.034927
  27 H :    0.022332
  28 C :   -0.075954
  29 H :    0.056582
  30 H :    0.034262
  31 H :    0.028964
  32 H :    0.071807
  33 H :    0.056432
Sum of atomic charges:   -0.0000000

LOEWDIN ATOMIC CHARGES
----------------------
   0 S :    0.394523
   1 C :   -0.212858
   2 C :   -0.057681
   3 C :   -0.057085
   4 C :   -0.173423
   5 H :    0.038021
   6 C :   -0.029111
   7 H :    0.015768
   8 H :    0.031281
   9 C :   -0.028535
  10 H :    0.012043
  11 H :    0.023262
  12 C :   -0.057156
  13 H :    0.029321
  14 H :    0.029501
  15 H :    0.011439
  16 S :    0.383892
  17 C :   -0.171985
  18 C :   -0.063265
  19 C :   -0.050265
  20 C :   -0.193364
  21 H :    0.025625
  22 C :   -0.042750
  23 H :    0.035424
  24 H :    0.034192
  25 C :   -0.049206
  26 H :    0.021708
  27 H :    0.017335
  28 C :   -0.074902
  29 H :    0.029009
  30 H :    0.030059
  31 H :    0.028414
  32 H :    0.043410
  33 H :    0.027359

  Mayer bond orders larger than 0.100000
B(  0-S ,  1-C ) :   1.1257 B(  0-S ,  4-C ) :   1.1463 B(  1-C ,  2-C ) :   1.6227
B(  1-C , 32-H ) :   0.9572 B(  2-C ,  3-C ) :   1.2115 B(  2-C ,  6-C ) :   1.0332
B(  3-C ,  4-C ) :   1.5701 B(  3-C ,  5-H ) :   0.9969 B(  4-C , 20-C ) :   1.0474
B(  6-C ,  7-H ) :   0.9405 B(  6-C ,  8-H ) :   0.9356 B(  6-C ,  9-C ) :   1.0803
B(  9-C , 10-H ) :   0.9525 B(  9-C , 11-H ) :   0.9537 B(  9-C , 12-C ) :   1.0882
B( 12-C , 13-H ) :   0.9703 B( 12-C , 14-H ) :   0.9696 B( 12-C , 15-H ) :   0.9769
B( 16-S , 17-C ) :   1.1404 B( 16-S , 20-C ) :   1.1168 B( 17-C , 18-C ) :   1.6441
B( 17-C , 33-H ) :   0.9654 B( 18-C , 19-C ) :   1.1908 B( 18-C , 21-H ) :   1.0029
B( 19-C , 20-C ) :   1.6319 B( 19-C , 22-C ) :   1.0420 B( 22-C , 23-H ) :   0.9401
B( 22-C , 24-H ) :   0.9405 B( 22-C , 25-C ) :   1.0415 B( 25-C , 26-H ) :   0.9569
B( 25-C , 27-H ) :   0.9532 B( 25-C , 28-C ) :   1.0671 B( 28-C , 29-H ) :   0.9744
B( 28-C , 30-H ) :   0.9706 B( 28-C , 31-H ) :   0.9728

Dispersion correction           -0.014888352
FINAL SINGLE POINT ENERGY     -1339.878565062865

DIPOLE MOMENT
-------------
                                X             Y             Z
Electronic contribution:      4.83278     -28.05310      -1.08695
Nuclear contribution   :     -4.91571      28.66538       0.91832
                        -----------------------------------------
Total Dipole Moment    :     -0.08293       0.61229      -0.16863
                        -----------------------------------------
Magnitude (a.u.)       :      0.64048
Magnitude (Debye)      :      1.62796

Rotational constants in cm-1:     0.017541     0.009668     0.007275
Rotational constants in MHz :   525.853819   289.850967   218.097573

                             ****ORCA TERMINATED NORMALLY****
TOTAL RUN TIME: 0 days 0 hours 0 minutes 21 seconds 76 msec
