                         Program Version 4.2.1 -  RELEASE  -
|  1> ! wB97X-D3 SP def2-SVP
|  2> %pal
|  3> nprocs 24
|  4> end
|  5>
|  6> * xyz 0 1
|  7> S 	 -31.4977 	 18.0693 	 3.77228
|  8> C 	 -32.4176 	 16.7359 	 3.25929
|  9> C 	 -32.1593 	 15.617 	 4.01948
| 10> C 	 -30.9615 	 15.8689 	 4.80224
| 11> C 	 -30.4717 	 17.148 	 4.80002
| 12> H 	 -30.5946 	 15.053 	 5.49224
| 13> C 	 -32.7735 	 14.2077 	 3.91392
| 14> H 	 -33.7114 	 14.1698 	 3.35753
| 15> H 	 -32.9285 	 13.9544 	 4.98397
| 16> C 	 -31.836 	 13.181 	 3.40822
| 17> H 	 -31.4672 	 13.4653 	 2.38959
| 18> H 	 -31.0051 	 13.344 	 4.08395
| 19> C 	 -32.3975 	 11.7361 	 3.33465
| 20> H 	 -31.5703 	 11.0425 	 3.13483
| 21> H 	 -32.9468 	 11.4326 	 4.23043
| 22> H 	 -33.1512 	 11.7639 	 2.52881
| 23> S 	 -29.7989 	 19.0559 	 6.54875
| 24> C 	 -28.2606 	 19.096 	 7.48446
| 25> C 	 -27.6912 	 17.8832 	 7.3187
| 26> C 	 -28.2459 	 17.1039 	 6.19638
| 27> C 	 -29.3831 	 17.6859 	 5.6619
| 28> H 	 -26.8783 	 17.6765 	 7.98399
| 29> C 	 -27.7815 	 15.6179 	 5.93155
| 30> H 	 -28.1684 	 15.2576 	 4.97195
| 31> H 	 -28.3696 	 15.1763 	 6.73745
| 32> C 	 -26.2662 	 15.3503 	 5.9091
| 33> H 	 -25.6981 	 15.5634 	 6.8279
| 34> H 	 -25.8434 	 15.9672 	 5.10491
| 35> C 	 -26.0053 	 13.9176 	 5.38147
| 36> H 	 -24.9203 	 13.7093 	 5.34244
| 37> H 	 -26.4456 	 13.7042 	 4.41813
| 38> H 	 -26.4321 	 13.2147 	 6.10641
| 39> H 	 -33.1149 	 16.6478 	 2.43909
| 40> H 	 -28.3122 	 19.5695 	 8.43144
| 41> *
| 42>
| 43>                          ****END OF INPUT****

CARTESIAN COORDINATES (ANGSTROEM)
---------------------------------
  S    -31.497700   18.069300    3.772280
  C    -32.417600   16.735900    3.259290
  C    -32.159300   15.617000    4.019480
  C    -30.961500   15.868900    4.802240
  C    -30.471700   17.148000    4.800020
  H    -30.594600   15.053000    5.492240
  C    -32.773500   14.207700    3.913920
  H    -33.711400   14.169800    3.357530
  H    -32.928500   13.954400    4.983970
  C    -31.836000   13.181000    3.408220
  H    -31.467200   13.465300    2.389590
  H    -31.005100   13.344000    4.083950
  C    -32.397500   11.736100    3.334650
  H    -31.570300   11.042500    3.134830
  H    -32.946800   11.432600    4.230430
  H    -33.151200   11.763900    2.528810
  S    -29.798900   19.055900    6.548750
  C    -28.260600   19.096000    7.484460
  C    -27.691200   17.883200    7.318700
  C    -28.245900   17.103900    6.196380
  C    -29.383100   17.685900    5.661900
  H    -26.878300   17.676500    7.983990
  C    -27.781500   15.617900    5.931550
  H    -28.168400   15.257600    4.971950
  H    -28.369600   15.176300    6.737450
  C    -26.266200   15.350300    5.909100
  H    -25.698100   15.563400    6.827900
  H    -25.843400   15.967200    5.104910
  C    -26.005300   13.917600    5.381470
  H    -24.920300   13.709300    5.342440
  H    -26.445600   13.704200    4.418130
  H    -26.432100   13.214700    6.106410
  H    -33.114900   16.647800    2.439090
  H    -28.312200   19.569500    8.431440

 Total Charge           Charge          ....    0
 Multiplicity           Mult            ....    1
 Number of Electrons    NEL             ....  134
 Basis Dimension        Dim             ....  322

ORBITAL ENERGIES
----------------

  NO   OCC          E(Eh)            E(eV)
   0   2.0000     -88.967863     -2420.9386
   1   2.0000     -88.956404     -2420.6268
   2   2.0000     -10.333744      -281.1955
   3   2.0000     -10.330308      -281.1020
   4   2.0000     -10.312679      -280.6223
   5   2.0000     -10.311412      -280.5878
   6   2.0000     -10.310858      -280.5727
   7   2.0000     -10.303378      -280.3692
   8   2.0000     -10.299865      -280.2736
   9   2.0000     -10.299573      -280.2656
  10   2.0000     -10.299236      -280.2565
  11   2.0000     -10.295777      -280.1623
  12   2.0000     -10.291875      -280.0562
  13   2.0000     -10.287219      -279.9295
  14   2.0000     -10.286881      -279.9203
  15   2.0000     -10.280598      -279.7493
  16   2.0000      -8.083824      -219.9720
  17   2.0000      -8.072457      -219.6627
  18   2.0000      -6.042414      -164.4225
  19   2.0000      -6.037995      -164.3022
  20   2.0000      -6.034558      -164.2087
  21   2.0000      -6.031006      -164.1120
  22   2.0000      -6.026853      -163.9990
  23   2.0000      -6.022962      -163.8931
  24   2.0000      -1.016314       -27.6553
  25   2.0000      -0.992333       -27.0028
  26   2.0000      -0.921047       -25.0630
  27   2.0000      -0.904667       -24.6172
  28   2.0000      -0.878133       -23.8952
  29   2.0000      -0.848994       -23.1023
  30   2.0000      -0.841163       -22.8892
  31   2.0000      -0.822774       -22.3888
  32   2.0000      -0.784359       -21.3435
  33   2.0000      -0.770124       -20.9561
  34   2.0000      -0.707601       -19.2548
  35   2.0000      -0.699294       -19.0288
  36   2.0000      -0.692989       -18.8572
  37   2.0000      -0.659715       -17.9518
  38   2.0000      -0.636978       -17.3331
  39   2.0000      -0.628595       -17.1049
  40   2.0000      -0.594148       -16.1676
  41   2.0000      -0.575250       -15.6534
  42   2.0000      -0.569361       -15.4931
  43   2.0000      -0.566940       -15.4272
  44   2.0000      -0.530255       -14.4290
  45   2.0000      -0.525056       -14.2875
  46   2.0000      -0.523891       -14.2558
  47   2.0000      -0.510508       -13.8916
  48   2.0000      -0.506317       -13.7776
  49   2.0000      -0.498714       -13.5707
  50   2.0000      -0.493843       -13.4382
  51   2.0000      -0.485047       -13.1988
  52   2.0000      -0.476902       -12.9772
  53   2.0000      -0.464577       -12.6418
  54   2.0000      -0.458298       -12.4709
  55   2.0000      -0.450859       -12.2685
  56   2.0000      -0.442807       -12.0494
  57   2.0000      -0.440116       -11.9762
  58   2.0000      -0.436077       -11.8662
  59   2.0000      -0.426087       -11.5944
  60   2.0000      -0.419305       -11.4099
  61   2.0000      -0.413694       -11.2572
  62   2.0000      -0.402007       -10.9392
  63   2.0000      -0.363479        -9.8908
  64   2.0000      -0.329568        -8.9680
  65   2.0000      -0.321851        -8.7580
  66   2.0000      -0.297104        -8.0846
  67   0.0000       0.030685         0.8350
  68   0.0000       0.070240         1.9113
  69   0.0000       0.100886         2.7452
  70   0.0000       0.123171         3.3516
  71   0.0000       0.134244         3.6530

MULLIKEN ATOMIC CHARGES
-----------------------
   0 S :    0.128870
   1 C :   -0.102860
   2 C :   -0.098334
   3 C :   -0.045565
   4 C :   -0.118470
   5 H :    0.035490
   6 C :    0.064541
   7 H :    0.018239
   8 H :    0.032236
   9 C :   -0.097593
  10 H :    0.031856
  11 H :    0.012345
  12 C :   -0.031847
  13 H :    0.050238
  14 H :    0.029729
  15 H :    0.033629
  16 S :    0.055577
  17 C :   -0.070866
  18 C :   -0.053395
  19 C :   -0.081882
  20 C :   -0.083163
  21 H :    0.028388
  22 C :    0.023850
  23 H :    0.031556
  24 H :    0.052597
  25 C :   -0.072131
  26 H :    0.040653
  27 H :    0.038497
  28 C :   -0.059853
  29 H :    0.038333
  30 H :    0.035130
  31 H :    0.025529
  32 H :    0.042569
  33 H :    0.066105
Sum of atomic charges:   -0.0000000

LOEWDIN ATOMIC CHARGES
----------------------
   0 S :    0.440865
   1 C :   -0.209672
   2 C :   -0.064157
   3 C :   -0.074917
   4 C :   -0.209186
   5 H :    0.034441
   6 C :   -0.032643
   7 H :    0.024639
   8 H :    0.037484
   9 C :   -0.049307
  10 H :    0.026883
  11 H :    0.017320
  12 C :   -0.063211
  13 H :    0.032620
  14 H :    0.024253
  15 H :    0.028844
  16 S :    0.401108
  17 C :   -0.181820
  18 C :   -0.056372
  19 C :   -0.064634
  20 C :   -0.206041
  21 H :    0.031311
  22 C :   -0.032493
  23 H :    0.031358
  24 H :    0.033892
  25 C :   -0.044547
  26 H :    0.025014
  27 H :    0.031288
  28 C :   -0.065657
  29 H :    0.028583
  30 H :    0.022934
  31 H :    0.022457
  32 H :    0.032325
  33 H :    0.027040

  Mayer bond orders larger than 0.100000
B(  0-S ,  1-C ) :   1.1586 B(  0-S ,  4-C ) :   1.1498 B(  1-C ,  2-C ) :   1.6071
B(  1-C , 32-H ) :   0.9654 B(  2-C ,  3-C ) :   1.2521 B(  2-C ,  6-C ) :   1.0299
B(  3-C ,  4-C ) :   1.5671 B(  3-C ,  5-H ) :   0.9738 B(  4-C , 20-C ) :   1.0083
B(  6-C ,  7-H ) :   0.9467 B(  6-C ,  8-H ) :   0.9287 B(  6-C ,  9-C ) :   1.0674
B(  9-C , 10-H ) :   0.9538 B(  9-C , 11-H ) :   0.9512 B(  9-C , 12-C ) :   1.0731
B( 12-C , 13-H ) :   0.9743 B( 12-C , 14-H ) :   0.9756 B( 12-C , 15-H ) :   0.9741
B( 16-S , 17-C ) :   1.1221 B( 16-S , 20-C ) :   1.1738 B( 17-C , 18-C ) :   1.6579
B( 17-C , 33-H ) :   0.9587 B( 18-C , 19-C ) :   1.2160 B( 18-C , 21-H ) :   0.9862
B( 19-C , 20-C ) :   1.6060 B( 19-C , 22-C ) :   1.0192 B( 22-C , 23-H ) :   0.9412
B( 22-C , 24-H ) :   0.9375 B( 22-C , 25-C ) :   1.0555 B( 25-C , 26-H ) :   0.9549
B( 25-C , 27-H ) :   0.9566 B( 25-C , 28-C ) :   1.0873 B( 28-C , 29-H ) :   0.9751
B( 28-C , 30-H ) :   0.9745 B( 28-C , 31-H ) :   0.9754

Dispersion correction           -0.013466623
FINAL SINGLE POINT ENERGY     -1339.854505347648

DIPOLE MOMENT
-------------
                                X             Y             Z
Electronic contribution:     -7.43480      31.68250       3.31290
Nuclear contribution   :      7.47599     -32.64246      -3.09733
                        -----------------------------------------
Total Dipole Moment    :      0.04119      -0.95995       0.21557
                        -----------------------------------------
Magnitude (a.u.)       :      0.98472
Magnitude (Debye)      :      2.50297

Rotational constants in cm-1:     0.015810     0.009275     0.006269
Rotational constants in MHz :   473.978349   278.070981   187.942481

                             ****ORCA TERMINATED NORMALLY****
TOTAL RUN TIME: 0 days 0 hours 0 minutes 21 seconds 123 msec
