                         Program Version 4.2.1 -  RELEASE  -
|  1> ! wB97X-D3 SP def2-SVP
|  2> %pal
|  3> nprocs 24
|  4> end
|  5>
|  6> * xyz 0 1
|  7> S 	 -75.1794 	 -0.167622 	 13.3554
|  8> C 	 -74.729 	 1.30296 	 12.5671
|  9> C 	 -74.2571 	 2.31762 	 13.4229
| 10> C 	 -74.1774 	 1.82652 	 14.7702
| 11> C 	 -74.5619 	 0.519614 	 14.8759
| 12> H 	 -73.7915 	 2.37689 	 15.5821
| 13> C 	 -73.8468 	 3.68562 	 12.9545
| 14> H 	 -74.3436 	 4.36677 	 13.5545
| 15> H 	 -74.2598 	 3.94701 	 11.9883
| 16> C 	 -72.2523 	 3.91164 	 13.0831
| 17> H 	 -71.9245 	 3.74428 	 14.1022
| 18> H 	 -71.8322 	 3.13943 	 12.4475
| 19> C 	 -71.8142 	 5.2538 	 12.6535
| 20> H 	 -70.723 	 5.41728 	 12.7683
| 21> H 	 -72.0742 	 5.25996 	 11.5856
| 22> H 	 -72.462 	 6.01288 	 13.087
| 23> S 	 -73.3259 	 -1.67228 	 15.947
| 24> C 	 -73.6896 	 -2.15732 	 17.6223
| 25> C 	 -74.583 	 -1.30816 	 18.1831
| 26> C 	 -75.0654 	 -0.300388 	 17.2777
| 27> C 	 -74.4636 	 -0.384405 	 16.0107
| 28> H 	 -74.8244 	 -1.41814 	 19.261
| 29> C 	 -76.0344 	 0.768325 	 17.7368
| 30> H 	 -76.9361 	 0.20223 	 17.7416
| 31> H 	 -76.2234 	 1.50909 	 16.9525
| 32> C 	 -75.6481 	 1.48852 	 19.017
| 33> H 	 -75.5812 	 0.906688 	 19.8772
| 34> H 	 -76.3655 	 2.29398 	 19.4128
| 35> C 	 -74.294 	 2.21876 	 18.9302
| 36> H 	 -74.225 	 2.87751 	 19.7326
| 37> H 	 -74.1238 	 2.79404 	 18.0226
| 38> H 	 -73.5521 	 1.51993 	 19.0214
| 39> H 	 -74.847 	 1.43766 	 11.4468
| 40> H 	 -73.3777 	 -3.1037 	 18.0098
| 41> *
| 42>
| 43>                          ****END OF INPUT****

CARTESIAN COORDINATES (ANGSTROEM)
---------------------------------
  S    -75.179400   -0.167622   13.355400
  C    -74.729000    1.302960   12.567100
  C    -74.257100    2.317620   13.422900
  C    -74.177400    1.826520   14.770200
  C    -74.561900    0.519614   14.875900
  H    -73.791500    2.376890   15.582100
  C    -73.846800    3.685620   12.954500
  H    -74.343600    4.366770   13.554500
  H    -74.259800    3.947010   11.988300
  C    -72.252300    3.911640   13.083100
  H    -71.924500    3.744280   14.102200
  H    -71.832200    3.139430   12.447500
  C    -71.814200    5.253800   12.653500
  H    -70.723000    5.417280   12.768300
  H    -72.074200    5.259960   11.585600
  H    -72.462000    6.012880   13.087000
  S    -73.325900   -1.672280   15.947000
  C    -73.689600   -2.157320   17.622300
  C    -74.583000   -1.308160   18.183100
  C    -75.065400   -0.300388   17.277700
  C    -74.463600   -0.384405   16.010700
  H    -74.824400   -1.418140   19.261000
  C    -76.034400    0.768325   17.736800
  H    -76.936100    0.202230   17.741600
  H    -76.223400    1.509090   16.952500
  C    -75.648100    1.488520   19.017000
  H    -75.581200    0.906688   19.877200
  H    -76.365500    2.293980   19.412800
  C    -74.294000    2.218760   18.930200
  H    -74.225000    2.877510   19.732600
  H    -74.123800    2.794040   18.022600
  H    -73.552100    1.519930   19.021400
  H    -74.847000    1.437660   11.446800
  H    -73.377700   -3.103700   18.009800

 Total Charge           Charge          ....    0
 Multiplicity           Mult            ....    1
 Number of Electrons    NEL             ....  134
 Basis Dimension        Dim             ....  322

ORBITAL ENERGIES
----------------

  NO   OCC          E(Eh)            E(eV)
   0   2.0000     -88.965724     -2420.8804
   1   2.0000     -88.960716     -2420.7441
   2   2.0000     -10.326973      -281.0112
   3   2.0000     -10.321595      -280.8649
   4   2.0000     -10.316940      -280.7382
   5   2.0000     -10.314883      -280.6822
   6   2.0000     -10.303324      -280.3677
   7   2.0000     -10.302810      -280.3537
   8   2.0000     -10.295118      -280.1444
   9   2.0000     -10.293894      -280.1111
  10   2.0000     -10.290085      -280.0075
  11   2.0000     -10.287174      -279.9282
  12   2.0000     -10.286421      -279.9077
  13   2.0000     -10.285399      -279.8799
  14   2.0000     -10.277369      -279.6614
  15   2.0000     -10.262600      -279.2595
  16   2.0000      -8.080566      -219.8834
  17   2.0000      -8.075781      -219.7532
  18   2.0000      -6.038934      -164.3277
  19   2.0000      -6.035177      -164.2255
  20   2.0000      -6.034277      -164.2010
  21   2.0000      -6.031356      -164.1215
  22   2.0000      -6.030167      -164.0892
  23   2.0000      -6.026607      -163.9923
  24   2.0000      -1.005042       -27.3486
  25   2.0000      -0.981466       -26.7070
  26   2.0000      -0.911643       -24.8071
  27   2.0000      -0.909711       -24.7545
  28   2.0000      -0.870412       -23.6851
  29   2.0000      -0.855073       -23.2677
  30   2.0000      -0.847082       -23.0503
  31   2.0000      -0.819915       -22.3110
  32   2.0000      -0.784419       -21.3451
  33   2.0000      -0.767055       -20.8726
  34   2.0000      -0.707504       -19.2522
  35   2.0000      -0.700395       -19.0587
  36   2.0000      -0.691241       -18.8096
  37   2.0000      -0.654989       -17.8231
  38   2.0000      -0.642330       -17.4787
  39   2.0000      -0.623874       -16.9765
  40   2.0000      -0.598278       -16.2800
  41   2.0000      -0.569517       -15.4974
  42   2.0000      -0.562756       -15.3134
  43   2.0000      -0.558325       -15.1928
  44   2.0000      -0.541059       -14.7230
  45   2.0000      -0.532993       -14.5035
  46   2.0000      -0.519554       -14.1378
  47   2.0000      -0.511898       -13.9295
  48   2.0000      -0.504737       -13.7346
  49   2.0000      -0.494934       -13.4679
  50   2.0000      -0.487829       -13.2745
  51   2.0000      -0.474589       -12.9142
  52   2.0000      -0.469593       -12.7783
  53   2.0000      -0.463125       -12.6023
  54   2.0000      -0.457429       -12.4473
  55   2.0000      -0.454935       -12.3794
  56   2.0000      -0.445976       -12.1356
  57   2.0000      -0.436712       -11.8835
  58   2.0000      -0.433941       -11.8081
  59   2.0000      -0.426317       -11.6007
  60   2.0000      -0.424267       -11.5449
  61   2.0000      -0.419984       -11.4283
  62   2.0000      -0.407959       -11.1011
  63   2.0000      -0.344944        -9.3864
  64   2.0000      -0.329497        -8.9661
  65   2.0000      -0.319941        -8.7060
  66   2.0000      -0.297357        -8.0915
  67   0.0000       0.037571         1.0224
  68   0.0000       0.066965         1.8222
  69   0.0000       0.112758         3.0683
  70   0.0000       0.121151         3.2967
  71   0.0000       0.130858         3.5608

MULLIKEN ATOMIC CHARGES
-----------------------
   0 S :    0.118722
   1 C :   -0.142990
   2 C :   -0.110370
   3 C :    0.081176
   4 C :   -0.181028
   5 H :   -0.012040
   6 C :    0.103362
   7 H :    0.002179
   8 H :    0.008998
   9 C :   -0.091723
  10 H :    0.028134
  11 H :    0.033349
  12 C :   -0.022605
  13 H :    0.051895
  14 H :    0.019679
  15 H :    0.025999
  16 S :    0.104628
  17 C :   -0.095582
  18 C :   -0.042375
  19 C :   -0.057187
  20 C :   -0.161977
  21 H :    0.036774
  22 C :    0.130194
  23 H :    0.030095
  24 H :    0.023308
  25 C :   -0.091828
  26 H :    0.007806
  27 H :    0.032886
  28 C :   -0.001626
  29 H :    0.011229
  30 H :    0.024252
  31 H :    0.017177
  32 H :    0.066104
  33 H :    0.053384
Sum of atomic charges:   -0.0000000

LOEWDIN ATOMIC CHARGES
----------------------
   0 S :    0.402697
   1 C :   -0.211933
   2 C :   -0.062063
   3 C :   -0.045563
   4 C :   -0.183468
   5 H :    0.025374
   6 C :   -0.025767
   7 H :    0.019719
   8 H :    0.028304
   9 C :   -0.034632
  10 H :    0.019411
  11 H :    0.024542
  12 C :   -0.069904
  13 H :    0.033575
  14 H :    0.026957
  15 H :    0.024390
  16 S :    0.403304
  17 C :   -0.171265
  18 C :   -0.076233
  19 C :   -0.053464
  20 C :   -0.221459
  21 H :    0.039903
  22 C :   -0.032250
  23 H :    0.033997
  24 H :    0.033574
  25 C :   -0.040364
  26 H :    0.011670
  27 H :    0.033545
  28 C :   -0.049269
  29 H :    0.018916
  30 H :    0.022388
  31 H :    0.013909
  32 H :    0.036109
  33 H :    0.025347

  Mayer bond orders larger than 0.100000
B(  0-S ,  1-C ) :   1.1470 B(  0-S ,  4-C ) :   1.1481 B(  1-C ,  2-C ) :   1.6145
B(  1-C , 32-H ) :   0.9574 B(  2-C ,  3-C ) :   1.2248 B(  2-C ,  6-C ) :   1.0390
B(  3-C ,  4-C ) :   1.5998 B(  3-C ,  5-H ) :   1.0025 B(  4-C , 20-C ) :   1.0096
B(  6-C ,  7-H ) :   0.9243 B(  6-C ,  8-H ) :   0.9418 B(  6-C ,  9-C ) :   1.0400
B(  9-C , 10-H ) :   0.9580 B(  9-C , 11-H ) :   0.9594 B(  9-C , 12-C ) :   1.0904
B( 12-C , 13-H ) :   0.9709 B( 12-C , 14-H ) :   0.9715 B( 12-C , 15-H ) :   0.9705
B( 16-S , 17-C ) :   1.1465 B( 16-S , 20-C ) :   1.1557 B( 17-C , 18-C ) :   1.6201
B( 17-C , 33-H ) :   0.9700 B( 18-C , 19-C ) :   1.2322 B( 18-C , 21-H ) :   0.9839
B( 19-C , 20-C ) :   1.5884 B( 19-C , 22-C ) :   1.0294 B( 22-C , 23-H ) :   0.9290
B( 22-C , 24-H ) :   0.9351 B( 22-C , 25-C ) :   1.0629 B( 25-C , 26-H ) :   0.9545
B( 25-C , 27-H ) :   0.9611 B( 25-C , 28-C ) :   1.0742 B( 28-C , 29-H ) :   0.9694
B( 28-C , 30-H ) :   0.9752 B( 28-C , 31-H ) :   0.9742

Dispersion correction           -0.014796626
FINAL SINGLE POINT ENERGY     -1339.871801888699

DIPOLE MOMENT
-------------
                                X             Y             Z
Electronic contribution:     -4.32791     -25.72917      -6.56842
Nuclear contribution   :      4.32531      26.24093       6.87665
                        -----------------------------------------
Total Dipole Moment    :     -0.00260       0.51176       0.30823
                        -----------------------------------------
Magnitude (a.u.)       :      0.59742
Magnitude (Debye)      :      1.51853

Rotational constants in cm-1:     0.018940     0.008387     0.006970
Rotational constants in MHz :   567.810726   251.450558   208.942772

                             ****ORCA TERMINATED NORMALLY****
TOTAL RUN TIME: 0 days 0 hours 0 minutes 21 seconds 871 msec
