                         Program Version 4.2.1 -  RELEASE  -
|  1> ! wB97X-D3 SP def2-SVP
|  2> %pal
|  3> nprocs 24
|  4> end
|  5>
|  6> * xyz 0 1
|  7> S 	 -17.2733 	 -29.4498 	 -101.728
|  8> C 	 -18.2907 	 -28.0266 	 -101.805
|  9> C 	 -19.6237 	 -28.3115 	 -101.815
| 10> C 	 -19.9303 	 -29.7366 	 -101.645
| 11> C 	 -18.7536 	 -30.4789 	 -101.647
| 12> H 	 -20.8931 	 -30.182 	 -101.574
| 13> C 	 -20.7711 	 -27.2755 	 -101.645
| 14> H 	 -21.6118 	 -27.5636 	 -102.32
| 15> H 	 -20.488 	 -26.3074 	 -102.005
| 16> C 	 -21.3468 	 -27.1851 	 -100.218
| 17> H 	 -22.1897 	 -26.4798 	 -100.265
| 18> H 	 -21.6296 	 -28.2141 	 -99.9444
| 19> C 	 -20.3518 	 -26.671 	 -99.2263
| 20> H 	 -19.5287 	 -27.4224 	 -98.9838
| 21> H 	 -20.0233 	 -25.6505 	 -99.316
| 22> H 	 -20.7695 	 -26.7581 	 -98.2236
| 23> S 	 -18.2789 	 -32.4582 	 -103.394
| 24> C 	 -18.1789 	 -34.1243 	 -102.816
| 25> C 	 -18.5117 	 -34.2895 	 -101.479
| 26> C 	 -18.8892 	 -33.0135 	 -100.915
| 27> C 	 -18.6623 	 -31.9039 	 -101.758
| 28> H 	 -18.5006 	 -35.2705 	 -101.039
| 29> C 	 -19.3929 	 -32.9812 	 -99.5301
| 30> H 	 -20.2241 	 -33.6572 	 -99.5233
| 31> H 	 -19.9442 	 -32.0237 	 -99.452
| 32> C 	 -18.3653 	 -32.9781 	 -98.4001
| 33> H 	 -17.8746 	 -34.0407 	 -98.3441
| 34> H 	 -18.9086 	 -32.7955 	 -97.4733
| 35> C 	 -17.3519 	 -31.8542 	 -98.4377
| 36> H 	 -17.9105 	 -30.9026 	 -98.4536
| 37> H 	 -16.7229 	 -31.8113 	 -99.2752
| 38> H 	 -16.7082 	 -31.7412 	 -97.6237
| 39> H 	 -17.788 	 -27.0364 	 -101.883
| 40> H 	 -17.7168 	 -34.9353 	 -103.49
| 41> *
| 42>
| 43>                          ****END OF INPUT****

CARTESIAN COORDINATES (ANGSTROEM)
---------------------------------
  S    -17.273300  -29.449800  -101.728000
  C    -18.290700  -28.026600  -101.805000
  C    -19.623700  -28.311500  -101.815000
  C    -19.930300  -29.736600  -101.645000
  C    -18.753600  -30.478900  -101.647000
  H    -20.893100  -30.182000  -101.574000
  C    -20.771100  -27.275500  -101.645000
  H    -21.611800  -27.563600  -102.320000
  H    -20.488000  -26.307400  -102.005000
  C    -21.346800  -27.185100  -100.218000
  H    -22.189700  -26.479800  -100.265000
  H    -21.629600  -28.214100  -99.944400
  C    -20.351800  -26.671000  -99.226300
  H    -19.528700  -27.422400  -98.983800
  H    -20.023300  -25.650500  -99.316000
  H    -20.769500  -26.758100  -98.223600
  S    -18.278900  -32.458200  -103.394000
  C    -18.178900  -34.124300  -102.816000
  C    -18.511700  -34.289500  -101.479000
  C    -18.889200  -33.013500  -100.915000
  C    -18.662300  -31.903900  -101.758000
  H    -18.500600  -35.270500  -101.039000
  C    -19.392900  -32.981200  -99.530100
  H    -20.224100  -33.657200  -99.523300
  H    -19.944200  -32.023700  -99.452000
  C    -18.365300  -32.978100  -98.400100
  H    -17.874600  -34.040700  -98.344100
  H    -18.908600  -32.795500  -97.473300
  C    -17.351900  -31.854200  -98.437700
  H    -17.910500  -30.902600  -98.453600
  H    -16.722900  -31.811300  -99.275200
  H    -16.708200  -31.741200  -97.623700
  H    -17.788000  -27.036400  -101.883000
  H    -17.716800  -34.935300  -103.490000

 Total Charge           Charge          ....    0
 Multiplicity           Mult            ....    1
 Number of Electrons    NEL             ....  134
 Basis Dimension        Dim             ....  322

ORBITAL ENERGIES
----------------

  NO   OCC          E(Eh)            E(eV)
   0   2.0000     -88.965838     -2420.8835
   1   2.0000     -88.961287     -2420.7597
   2   2.0000     -10.332545      -281.1628
   3   2.0000     -10.323931      -280.9284
   4   2.0000     -10.322815      -280.8981
   5   2.0000     -10.318197      -280.7724
   6   2.0000     -10.304703      -280.4052
   7   2.0000     -10.304613      -280.4028
   8   2.0000     -10.300543      -280.2920
   9   2.0000     -10.294628      -280.1311
  10   2.0000     -10.293625      -280.1038
  11   2.0000     -10.292464      -280.0722
  12   2.0000     -10.289814      -280.0001
  13   2.0000     -10.284828      -279.8644
  14   2.0000     -10.275119      -279.6002
  15   2.0000     -10.263511      -279.2843
  16   2.0000      -8.079964      -219.8670
  17   2.0000      -8.075777      -219.7531
  18   2.0000      -6.038557      -164.3175
  19   2.0000      -6.034681      -164.2120
  20   2.0000      -6.034315      -164.2020
  21   2.0000      -6.030537      -164.0993
  22   2.0000      -6.030353      -164.0943
  23   2.0000      -6.026477      -163.9888
  24   2.0000      -0.999633       -27.2014
  25   2.0000      -0.975785       -26.5525
  26   2.0000      -0.911118       -24.7928
  27   2.0000      -0.908530       -24.7224
  28   2.0000      -0.869835       -23.6694
  29   2.0000      -0.848275       -23.0827
  30   2.0000      -0.844311       -22.9749
  31   2.0000      -0.810896       -22.0656
  32   2.0000      -0.784340       -21.3430
  33   2.0000      -0.770099       -20.9555
  34   2.0000      -0.709220       -19.2988
  35   2.0000      -0.691899       -18.8275
  36   2.0000      -0.684905       -18.6372
  37   2.0000      -0.657657       -17.8957
  38   2.0000      -0.644825       -17.5466
  39   2.0000      -0.619136       -16.8476
  40   2.0000      -0.590837       -16.0775
  41   2.0000      -0.567109       -15.4318
  42   2.0000      -0.553752       -15.0684
  43   2.0000      -0.550462       -14.9788
  44   2.0000      -0.546238       -14.8639
  45   2.0000      -0.535098       -14.5608
  46   2.0000      -0.517680       -14.0868
  47   2.0000      -0.504668       -13.7327
  48   2.0000      -0.499653       -13.5963
  49   2.0000      -0.498573       -13.5669
  50   2.0000      -0.484867       -13.1939
  51   2.0000      -0.475700       -12.9445
  52   2.0000      -0.468277       -12.7425
  53   2.0000      -0.460254       -12.5242
  54   2.0000      -0.452470       -12.3123
  55   2.0000      -0.448570       -12.2062
  56   2.0000      -0.444755       -12.1024
  57   2.0000      -0.439166       -11.9503
  58   2.0000      -0.430364       -11.7108
  59   2.0000      -0.422501       -11.4968
  60   2.0000      -0.415004       -11.2928
  61   2.0000      -0.407903       -11.0996
  62   2.0000      -0.406047       -11.0491
  63   2.0000      -0.340036        -9.2528
  64   2.0000      -0.326400        -8.8818
  65   2.0000      -0.321676        -8.7533
  66   2.0000      -0.301056        -8.1921
  67   0.0000       0.036512         0.9936
  68   0.0000       0.056124         1.5272
  69   0.0000       0.108151         2.9429
  70   0.0000       0.112878         3.0716
  71   0.0000       0.123421         3.3585

MULLIKEN ATOMIC CHARGES
-----------------------
   0 S :    0.105970
   1 C :   -0.135119
   2 C :   -0.068949
   3 C :    0.056251
   4 C :   -0.177400
   5 H :    0.016092
   6 C :    0.053853
   7 H :    0.029604
   8 H :    0.008063
   9 C :   -0.050713
  10 H :    0.037016
  11 H :    0.026717
  12 C :   -0.063424
  13 H :    0.041938
  14 H :    0.035607
  15 H :    0.016492
  16 S :    0.103810
  17 C :   -0.126937
  18 C :   -0.023106
  19 C :   -0.050417
  20 C :   -0.171389
  21 H :    0.023107
  22 C :    0.076717
  23 H :    0.025301
  24 H :    0.002016
  25 C :   -0.057622
  26 H :    0.038079
  27 H :    0.030566
  28 C :   -0.011763
  29 H :    0.018309
  30 H :    0.019775
  31 H :    0.018109
  32 H :    0.068289
  33 H :    0.085158
Sum of atomic charges:    0.0000000

LOEWDIN ATOMIC CHARGES
----------------------
   0 S :    0.381063
   1 C :   -0.192301
   2 C :   -0.066268
   3 C :   -0.044255
   4 C :   -0.183661
   5 H :    0.030364
   6 C :   -0.032840
   7 H :    0.032164
   8 H :    0.019597
   9 C :   -0.038568
  10 H :    0.028876
  11 H :    0.026534
  12 C :   -0.080377
  13 H :    0.038108
  14 H :    0.022383
  15 H :    0.026913
  16 S :    0.392660
  17 C :   -0.187621
  18 C :   -0.073183
  19 C :   -0.049901
  20 C :   -0.204411
  21 H :    0.034592
  22 C :   -0.044548
  23 H :    0.032471
  24 H :    0.030608
  25 C :   -0.037706
  26 H :    0.028334
  27 H :    0.027121
  28 C :   -0.060919
  29 H :    0.029850
  30 H :    0.015749
  31 H :    0.020724
  32 H :    0.036412
  33 H :    0.042035

  Mayer bond orders larger than 0.100000
B(  0-S ,  1-C ) :   1.1244 B(  0-S ,  4-C ) :   1.1281 B(  1-C ,  2-C ) :   1.6542
B(  1-C , 32-H ) :   0.9625 B(  2-C ,  3-C ) :   1.1822 B(  2-C ,  6-C ) :   1.0283
B(  3-C ,  4-C ) :   1.6128 B(  3-C ,  5-H ) :   0.9958 B(  4-C , 20-C ) :   1.0458
B(  6-C ,  7-H ) :   0.9398 B(  6-C ,  8-H ) :   0.9458 B(  6-C ,  9-C ) :   1.0680
B(  9-C , 10-H ) :   0.9522 B(  9-C , 11-H ) :   0.9507 B(  9-C , 12-C ) :   1.0973
B( 12-C , 13-H ) :   0.9652 B( 12-C , 14-H ) :   0.9748 B( 12-C , 15-H ) :   0.9643
B( 16-S , 17-C ) :   1.1578 B( 16-S , 20-C ) :   1.1363 B( 17-C , 18-C ) :   1.6201
B( 17-C , 33-H ) :   0.9527 B( 18-C , 19-C ) :   1.2103 B( 18-C , 21-H ) :   0.9969
B( 19-C , 20-C ) :   1.5936 B( 19-C , 22-C ) :   1.0550 B( 22-C , 23-H ) :   0.9305
B( 22-C , 24-H ) :   0.9227 B( 22-C , 25-C ) :   1.0688 B( 25-C , 26-H ) :   0.9546
B( 25-C , 27-H ) :   0.9535 B( 25-C , 28-C ) :   1.0748 B( 28-C , 29-H ) :   0.9676
B( 28-C , 30-H ) :   0.9731 B( 28-C , 31-H ) :   0.9721

Dispersion correction           -0.015819611
FINAL SINGLE POINT ENERGY     -1339.867699574071

DIPOLE MOMENT
-------------
                                X             Y             Z
Electronic contribution:      9.47451      -8.74242     -20.60886
Nuclear contribution   :     -9.86052       8.86313      21.04132
                        -----------------------------------------
Total Dipole Moment    :     -0.38601       0.12071       0.43246
                        -----------------------------------------
Magnitude (a.u.)       :      0.59211
Magnitude (Debye)      :      1.50503

Rotational constants in cm-1:     0.020738     0.009018     0.007691
Rotational constants in MHz :   621.694928   270.366511   230.584429

                             ****ORCA TERMINATED NORMALLY****
TOTAL RUN TIME: 0 days 0 hours 0 minutes 22 seconds 518 msec
