                         Program Version 4.2.1 -  RELEASE  -
|  1> ! wB97X-D3 SP def2-SVP
|  2> %pal
|  3> nprocs 24
|  4> end
|  5>
|  6> * xyz 0 1
|  7> S 	 -130.199 	 67.1074 	 -37.1018
|  8> C 	 -130.301 	 65.922 	 -38.4292
|  9> C 	 -129.199 	 65.2204 	 -38.5767
| 10> C 	 -128.191 	 65.667 	 -37.7117
| 11> C 	 -128.52 	 66.7065 	 -36.9002
| 12> H 	 -127.239 	 65.136 	 -37.6365
| 13> C 	 -128.941 	 64.0986 	 -39.5619
| 14> H 	 -129.754 	 63.3989 	 -39.3585
| 15> H 	 -127.987 	 63.5265 	 -39.2771
| 16> C 	 -128.82 	 64.4519 	 -41.0778
| 17> H 	 -128.983 	 63.574 	 -41.7347
| 18> H 	 -129.734 	 65.0293 	 -41.3704
| 19> C 	 -127.557 	 65.2334 	 -41.3738
| 20> H 	 -126.696 	 64.5595 	 -41.2954
| 21> H 	 -127.534 	 65.7374 	 -42.3512
| 22> H 	 -127.509 	 66.0963 	 -40.636
| 23> S 	 -128.529 	 67.2682 	 -34.2496
| 24> C 	 -127.155 	 68.0366 	 -33.4555
| 25> C 	 -126.122 	 68.2195 	 -34.4015
| 26> C 	 -126.428 	 67.7554 	 -35.7113
| 27> C 	 -127.739 	 67.28 	 -35.8229
| 28> H 	 -125.14 	 68.6595 	 -34.0981
| 29> C 	 -125.467 	 67.9427 	 -36.8938
| 30> H 	 -126.072 	 68.416 	 -37.7179
| 31> H 	 -125.21 	 66.8979 	 -37.2805
| 32> C 	 -124.23 	 68.723 	 -36.7153
| 33> H 	 -123.57 	 68.3648 	 -35.9603
| 34> H 	 -124.512 	 69.7155 	 -36.3395
| 35> C 	 -123.548 	 68.7364 	 -38.1633
| 36> H 	 -122.694 	 69.3499 	 -38.1787
| 37> H 	 -124.125 	 68.9902 	 -39.0115
| 38> H 	 -123.028 	 67.7893 	 -38.3269
| 39> H 	 -131.082 	 65.8044 	 -39.1366
| 40> H 	 -127.14 	 68.1784 	 -32.4
| 41> *
| 42>
| 43>                          ****END OF INPUT****

CARTESIAN COORDINATES (ANGSTROEM)
---------------------------------
  S    -130.199000   67.107400  -37.101800
  C    -130.301000   65.922000  -38.429200
  C    -129.199000   65.220400  -38.576700
  C    -128.191000   65.667000  -37.711700
  C    -128.520000   66.706500  -36.900200
  H    -127.239000   65.136000  -37.636500
  C    -128.941000   64.098600  -39.561900
  H    -129.754000   63.398900  -39.358500
  H    -127.987000   63.526500  -39.277100
  C    -128.820000   64.451900  -41.077800
  H    -128.983000   63.574000  -41.734700
  H    -129.734000   65.029300  -41.370400
  C    -127.557000   65.233400  -41.373800
  H    -126.696000   64.559500  -41.295400
  H    -127.534000   65.737400  -42.351200
  H    -127.509000   66.096300  -40.636000
  S    -128.529000   67.268200  -34.249600
  C    -127.155000   68.036600  -33.455500
  C    -126.122000   68.219500  -34.401500
  C    -126.428000   67.755400  -35.711300
  C    -127.739000   67.280000  -35.822900
  H    -125.140000   68.659500  -34.098100
  C    -125.467000   67.942700  -36.893800
  H    -126.072000   68.416000  -37.717900
  H    -125.210000   66.897900  -37.280500
  C    -124.230000   68.723000  -36.715300
  H    -123.570000   68.364800  -35.960300
  H    -124.512000   69.715500  -36.339500
  C    -123.548000   68.736400  -38.163300
  H    -122.694000   69.349900  -38.178700
  H    -124.125000   68.990200  -39.011500
  H    -123.028000   67.789300  -38.326900
  H    -131.082000   65.804400  -39.136600
  H    -127.140000   68.178400  -32.400000

 Total Charge           Charge          ....    0
 Multiplicity           Mult            ....    1
 Number of Electrons    NEL             ....  134
 Basis Dimension        Dim             ....  322

ORBITAL ENERGIES
----------------

  NO   OCC          E(Eh)            E(eV)
   0   2.0000     -88.966150     -2420.8920
   1   2.0000     -88.963696     -2420.8252
   2   2.0000     -10.326145      -280.9887
   3   2.0000     -10.325875      -280.9813
   4   2.0000     -10.319839      -280.8171
   5   2.0000     -10.305735      -280.4333
   6   2.0000     -10.304471      -280.3989
   7   2.0000     -10.300932      -280.3026
   8   2.0000     -10.300576      -280.2929
   9   2.0000     -10.295950      -280.1670
  10   2.0000     -10.294848      -280.1371
  11   2.0000     -10.289784      -279.9993
  12   2.0000     -10.289653      -279.9957
  13   2.0000     -10.286605      -279.9128
  14   2.0000     -10.284007      -279.8420
  15   2.0000     -10.276691      -279.6430
  16   2.0000      -8.080782      -219.8893
  17   2.0000      -8.078119      -219.8168
  18   2.0000      -6.039372      -164.3397
  19   2.0000      -6.036638      -164.2653
  20   2.0000      -6.035460      -164.2332
  21   2.0000      -6.032500      -164.1527
  22   2.0000      -6.031285      -164.1196
  23   2.0000      -6.029050      -164.0588
  24   2.0000      -1.011346       -27.5201
  25   2.0000      -0.983652       -26.7665
  26   2.0000      -0.913593       -24.8601
  27   2.0000      -0.909810       -24.7572
  28   2.0000      -0.871048       -23.7024
  29   2.0000      -0.849402       -23.1134
  30   2.0000      -0.841877       -22.9086
  31   2.0000      -0.812393       -22.1063
  32   2.0000      -0.781673       -21.2704
  33   2.0000      -0.775555       -21.1039
  34   2.0000      -0.713437       -19.4136
  35   2.0000      -0.706874       -19.2350
  36   2.0000      -0.698260       -19.0006
  37   2.0000      -0.653624       -17.7860
  38   2.0000      -0.635499       -17.2928
  39   2.0000      -0.616408       -16.7733
  40   2.0000      -0.600045       -16.3280
  41   2.0000      -0.571593       -15.5538
  42   2.0000      -0.569255       -15.4902
  43   2.0000      -0.557026       -15.1575
  44   2.0000      -0.539789       -14.6884
  45   2.0000      -0.527633       -14.3576
  46   2.0000      -0.509223       -13.8567
  47   2.0000      -0.506693       -13.7878
  48   2.0000      -0.499087       -13.5809
  49   2.0000      -0.494917       -13.4674
  50   2.0000      -0.489651       -13.3241
  51   2.0000      -0.478516       -13.0211
  52   2.0000      -0.476597       -12.9689
  53   2.0000      -0.461936       -12.5699
  54   2.0000      -0.456445       -12.4205
  55   2.0000      -0.446725       -12.1560
  56   2.0000      -0.445453       -12.1214
  57   2.0000      -0.439573       -11.9614
  58   2.0000      -0.436163       -11.8686
  59   2.0000      -0.425073       -11.5668
  60   2.0000      -0.422825       -11.5056
  61   2.0000      -0.414593       -11.2816
  62   2.0000      -0.411751       -11.2043
  63   2.0000      -0.349010        -9.4970
  64   2.0000      -0.335712        -9.1352
  65   2.0000      -0.329075        -8.9546
  66   2.0000      -0.289011        -7.8644
  67   0.0000       0.028557         0.7771
  68   0.0000       0.067798         1.8449
  69   0.0000       0.107034         2.9125
  70   0.0000       0.128806         3.5050
  71   0.0000       0.134304         3.6546

MULLIKEN ATOMIC CHARGES
-----------------------
   0 S :    0.109357
   1 C :   -0.115339
   2 C :   -0.058884
   3 C :    0.013139
   4 C :   -0.141834
   5 H :    0.010121
   6 C :    0.031954
   7 H :    0.037286
   8 H :    0.032563
   9 C :   -0.068067
  10 H :    0.032872
  11 H :    0.020997
  12 C :   -0.064999
  13 H :    0.036393
  14 H :    0.039371
  15 H :    0.048971
  16 S :    0.095219
  17 C :   -0.087999
  18 C :   -0.065870
  19 C :   -0.002975
  20 C :   -0.151501
  21 H :    0.034982
  22 C :    0.001672
  23 H :    0.049480
  24 H :    0.038120
  25 C :   -0.064123
  26 H :    0.027799
  27 H :    0.029408
  28 C :   -0.012724
  29 H :    0.008393
  30 H :    0.034980
  31 H :    0.025026
  32 H :    0.020880
  33 H :    0.055333
Sum of atomic charges:   -0.0000000

LOEWDIN ATOMIC CHARGES
----------------------
   0 S :    0.395324
   1 C :   -0.174073
   2 C :   -0.074551
   3 C :   -0.062890
   4 C :   -0.197089
   5 H :    0.031465
   6 C :   -0.033174
   7 H :    0.034186
   8 H :    0.035868
   9 C :   -0.050015
  10 H :    0.026527
  11 H :    0.023651
  12 C :   -0.072566
  13 H :    0.025638
  14 H :    0.028485
  15 H :    0.036465
  16 S :    0.401868
  17 C :   -0.181780
  18 C :   -0.078667
  19 C :   -0.061946
  20 C :   -0.194862
  21 H :    0.037413
  22 C :   -0.042614
  23 H :    0.041991
  24 H :    0.036148
  25 C :   -0.038347
  26 H :    0.020289
  27 H :    0.025056
  28 C :   -0.055830
  29 H :    0.018864
  30 H :    0.022960
  31 H :    0.030432
  32 H :    0.022005
  33 H :    0.023771

  Mayer bond orders larger than 0.100000
B(  0-S ,  1-C ) :   1.1132 B(  0-S ,  4-C ) :   1.1411 B(  1-C ,  2-C ) :   1.6687
B(  1-C , 32-H ) :   0.9636 B(  2-C ,  3-C ) :   1.2364 B(  2-C ,  6-C ) :   0.9998
B(  3-C ,  4-C ) :   1.5829 B(  3-C ,  5-H ) :   0.9935 B(  4-C , 20-C ) :   1.0374
B(  6-C ,  7-H ) :   0.9361 B(  6-C ,  8-H ) :   0.9478 B(  6-C ,  9-C ) :   1.0665
B(  9-C , 10-H ) :   0.9548 B(  9-C , 11-H ) :   0.9553 B(  9-C , 12-C ) :   1.0673
B( 12-C , 13-H ) :   0.9752 B( 12-C , 14-H ) :   0.9727 B( 12-C , 15-H ) :   0.9745
B( 16-S , 17-C ) :   1.1654 B( 16-S , 20-C ) :   1.1553 B( 17-C , 18-C ) :   1.5555
B( 17-C , 20-C ) :   0.1148 B( 17-C , 33-H ) :   0.9745 B( 18-C , 19-C ) :   1.2811
B( 18-C , 21-H ) :   0.9773 B( 19-C , 20-C ) :   1.5781 B( 19-C , 22-C ) :   1.0135
B( 22-C , 23-H ) :   0.9412 B( 22-C , 24-H ) :   0.9294 B( 22-C , 25-C ) :   1.0945
B( 25-C , 26-H ) :   0.9463 B( 25-C , 27-H ) :   0.9483 B( 25-C , 28-C ) :   1.0721
B( 28-C , 29-H ) :   0.9700 B( 28-C , 30-H ) :   0.9795 B( 28-C , 31-H ) :   0.9721

Dispersion correction           -0.013935221
FINAL SINGLE POINT ENERGY     -1339.874203391282

DIPOLE MOMENT
-------------
                                X             Y             Z
Electronic contribution:    -20.12386       3.26708      22.57882
Nuclear contribution   :     20.68414      -3.48426     -23.02535
                        -----------------------------------------
Total Dipole Moment    :      0.56027      -0.21718      -0.44653
                        -----------------------------------------
Magnitude (a.u.)       :      0.74864
Magnitude (Debye)      :      1.90289

Rotational constants in cm-1:     0.016749     0.009394     0.006459
Rotational constants in MHz :   502.118547   281.632837   193.626756

                             ****ORCA TERMINATED NORMALLY****
TOTAL RUN TIME: 0 days 0 hours 0 minutes 21 seconds 553 msec
