                         Program Version 4.2.1 -  RELEASE  -
|  1> ! wB97X-D3 SP def2-SVP
|  2> %pal
|  3> nprocs 24
|  4> end
|  5>
|  6> * xyz 0 1
|  7> S 	 -88.3673 	 -30.3473 	 -56.7431
|  8> C 	 -86.7129 	 -30.6609 	 -57.0117
|  9> C 	 -85.9404 	 -29.9635 	 -56.0251
| 10> C 	 -86.803 	 -29.2306 	 -55.1007
| 11> C 	 -88.1409 	 -29.3127 	 -55.424
| 12> H 	 -86.5069 	 -28.6133 	 -54.3121
| 13> C 	 -84.4724 	 -30.1091 	 -55.832
| 14> H 	 -84.1754 	 -29.0767 	 -55.8829
| 15> H 	 -83.9409 	 -30.5756 	 -56.6398
| 16> C 	 -83.9422 	 -30.6656 	 -54.5203
| 17> H 	 -82.8239 	 -30.7276 	 -54.5633
| 18> H 	 -84.3036 	 -29.9678 	 -53.7427
| 19> C 	 -84.494 	 -32.0289 	 -54.0817
| 20> H 	 -83.8309 	 -32.3688 	 -53.2851
| 21> H 	 -85.4601 	 -31.9393 	 -53.604
| 22> H 	 -84.5544 	 -32.7831 	 -54.793
| 23> S 	 -90.6207 	 -28.1688 	 -55.7934
| 24> C 	 -91.4128 	 -27.3004 	 -54.4556
| 25> C 	 -90.7032 	 -27.4324 	 -53.271
| 26> C 	 -89.4502 	 -28.0982 	 -53.4034
| 27> C 	 -89.2258 	 -28.5833 	 -54.7409
| 28> H 	 -91.1574 	 -27.0079 	 -52.3484
| 29> C 	 -88.4795 	 -28.1125 	 -52.1707
| 30> H 	 -88.3968 	 -27.1463 	 -51.7621
| 31> H 	 -87.4622 	 -28.3475 	 -52.509
| 32> C 	 -89.0501 	 -28.95 	 -50.9864
| 33> H 	 -89.2217 	 -30.012 	 -51.2585
| 34> H 	 -89.9626 	 -28.4824 	 -50.6197
| 35> C 	 -88.195 	 -29.0333 	 -49.7586
| 36> H 	 -87.4209 	 -29.7762 	 -49.8957
| 37> H 	 -88.8426 	 -29.4717 	 -49.0263
| 38> H 	 -87.8208 	 -28.044 	 -49.4216
| 39> H 	 -86.3175 	 -31.4753 	 -57.6051
| 40> H 	 -92.3906 	 -26.8316 	 -54.4154
| 41> *
| 42>
| 43>                          ****END OF INPUT****

CARTESIAN COORDINATES (ANGSTROEM)
---------------------------------
  S    -88.367300  -30.347300  -56.743100
  C    -86.712900  -30.660900  -57.011700
  C    -85.940400  -29.963500  -56.025100
  C    -86.803000  -29.230600  -55.100700
  C    -88.140900  -29.312700  -55.424000
  H    -86.506900  -28.613300  -54.312100
  C    -84.472400  -30.109100  -55.832000
  H    -84.175400  -29.076700  -55.882900
  H    -83.940900  -30.575600  -56.639800
  C    -83.942200  -30.665600  -54.520300
  H    -82.823900  -30.727600  -54.563300
  H    -84.303600  -29.967800  -53.742700
  C    -84.494000  -32.028900  -54.081700
  H    -83.830900  -32.368800  -53.285100
  H    -85.460100  -31.939300  -53.604000
  H    -84.554400  -32.783100  -54.793000
  S    -90.620700  -28.168800  -55.793400
  C    -91.412800  -27.300400  -54.455600
  C    -90.703200  -27.432400  -53.271000
  C    -89.450200  -28.098200  -53.403400
  C    -89.225800  -28.583300  -54.740900
  H    -91.157400  -27.007900  -52.348400
  C    -88.479500  -28.112500  -52.170700
  H    -88.396800  -27.146300  -51.762100
  H    -87.462200  -28.347500  -52.509000
  C    -89.050100  -28.950000  -50.986400
  H    -89.221700  -30.012000  -51.258500
  H    -89.962600  -28.482400  -50.619700
  C    -88.195000  -29.033300  -49.758600
  H    -87.420900  -29.776200  -49.895700
  H    -88.842600  -29.471700  -49.026300
  H    -87.820800  -28.044000  -49.421600
  H    -86.317500  -31.475300  -57.605100
  H    -92.390600  -26.831600  -54.415400

 Total Charge           Charge          ....    0
 Multiplicity           Mult            ....    1
 Number of Electrons    NEL             ....  134
 Basis Dimension        Dim             ....  322

ORBITAL ENERGIES
----------------

  NO   OCC          E(Eh)            E(eV)
   0   2.0000     -88.968994     -2420.9694
   1   2.0000     -88.966997     -2420.9151
   2   2.0000     -10.341500      -281.4065
   3   2.0000     -10.329623      -281.0833
   4   2.0000     -10.319831      -280.8169
   5   2.0000     -10.315804      -280.7073
   6   2.0000     -10.314436      -280.6701
   7   2.0000     -10.309205      -280.5277
   8   2.0000     -10.297973      -280.2221
   9   2.0000     -10.297887      -280.2198
  10   2.0000     -10.291737      -280.0524
  11   2.0000     -10.291495      -280.0458
  12   2.0000     -10.288150      -279.9548
  13   2.0000     -10.284193      -279.8471
  14   2.0000     -10.275919      -279.6220
  15   2.0000     -10.268065      -279.4082
  16   2.0000      -8.083259      -219.9567
  17   2.0000      -8.082271      -219.9298
  18   2.0000      -6.041609      -164.4005
  19   2.0000      -6.040961      -164.3829
  20   2.0000      -6.037365      -164.2851
  21   2.0000      -6.036971      -164.2743
  22   2.0000      -6.034267      -164.2008
  23   2.0000      -6.032932      -164.1644
  24   2.0000      -1.008771       -27.4501
  25   2.0000      -0.977573       -26.6011
  26   2.0000      -0.916148       -24.9296
  27   2.0000      -0.909258       -24.7422
  28   2.0000      -0.868020       -23.6200
  29   2.0000      -0.854542       -23.2533
  30   2.0000      -0.846137       -23.0246
  31   2.0000      -0.816250       -22.2113
  32   2.0000      -0.786901       -21.4127
  33   2.0000      -0.774698       -21.0806
  34   2.0000      -0.705949       -19.2098
  35   2.0000      -0.694758       -18.9053
  36   2.0000      -0.690849       -18.7990
  37   2.0000      -0.655722       -17.8431
  38   2.0000      -0.640874       -17.4391
  39   2.0000      -0.625628       -17.0242
  40   2.0000      -0.591751       -16.1024
  41   2.0000      -0.574219       -15.6253
  42   2.0000      -0.568152       -15.4602
  43   2.0000      -0.550903       -14.9908
  44   2.0000      -0.545085       -14.8325
  45   2.0000      -0.530784       -14.4434
  46   2.0000      -0.521057       -14.1787
  47   2.0000      -0.514133       -13.9903
  48   2.0000      -0.504761       -13.7352
  49   2.0000      -0.499508       -13.5923
  50   2.0000      -0.493708       -13.4345
  51   2.0000      -0.488301       -13.2874
  52   2.0000      -0.470871       -12.8131
  53   2.0000      -0.465961       -12.6795
  54   2.0000      -0.459642       -12.5075
  55   2.0000      -0.449639       -12.2353
  56   2.0000      -0.439667       -11.9639
  57   2.0000      -0.435849       -11.8600
  58   2.0000      -0.429370       -11.6838
  59   2.0000      -0.425309       -11.5732
  60   2.0000      -0.421488       -11.4693
  61   2.0000      -0.419692       -11.4204
  62   2.0000      -0.408931       -11.1276
  63   2.0000      -0.358124        -9.7451
  64   2.0000      -0.333094        -9.0639
  65   2.0000      -0.324019        -8.8170
  66   2.0000      -0.283160        -7.7052
  67   0.0000       0.022102         0.6014
  68   0.0000       0.077093         2.0978
  69   0.0000       0.106465         2.8971
  70   0.0000       0.111078         3.0226
  71   0.0000       0.128951         3.5089

MULLIKEN ATOMIC CHARGES
-----------------------
   0 S :    0.120865
   1 C :   -0.110927
   2 C :   -0.111113
   3 C :    0.003212
   4 C :   -0.099796
   5 H :   -0.011281
   6 C :    0.088713
   7 H :    0.027866
   8 H :    0.011161
   9 C :   -0.103237
  10 H :    0.043761
  11 H :    0.027952
  12 C :   -0.019985
  13 H :    0.025155
  14 H :    0.031442
  15 H :    0.015251
  16 S :    0.092912
  17 C :   -0.085480
  18 C :   -0.068140
  19 C :   -0.020500
  20 C :   -0.156924
  21 H :    0.037719
  22 C :    0.113126
  23 H :    0.012426
  24 H :    0.009343
  25 C :   -0.122014
  26 H :    0.040244
  27 H :    0.027721
  28 C :   -0.021264
  29 H :    0.027908
  30 H :    0.025398
  31 H :    0.031911
  32 H :    0.059261
  33 H :    0.057313
Sum of atomic charges:    0.0000000

LOEWDIN ATOMIC CHARGES
----------------------
   0 S :    0.450710
   1 C :   -0.225566
   2 C :   -0.048990
   3 C :   -0.068309
   4 C :   -0.210996
   5 H :    0.016619
   6 C :   -0.043092
   7 H :    0.037054
   8 H :    0.025961
   9 C :   -0.040420
  10 H :    0.031379
  11 H :    0.026072
  12 C :   -0.062869
  13 H :    0.029171
  14 H :    0.027240
  15 H :    0.012165
  16 S :    0.378670
  17 C :   -0.183299
  18 C :   -0.075940
  19 C :   -0.052151
  20 C :   -0.176836
  21 H :    0.039015
  22 C :   -0.024327
  23 H :    0.025207
  24 H :    0.024856
  25 C :   -0.040794
  26 H :    0.030716
  27 H :    0.022492
  28 C :   -0.063226
  29 H :    0.022536
  30 H :    0.026836
  31 H :    0.024618
  32 H :    0.032264
  33 H :    0.033235

  Mayer bond orders larger than 0.100000
B(  0-S ,  1-C ) :   1.1535 B(  0-S ,  4-C ) :   1.1822 B(  1-C ,  2-C ) :   1.5578
B(  1-C , 32-H ) :   0.9705 B(  2-C ,  3-C ) :   1.2576 B(  2-C ,  6-C ) :   1.0337
B(  3-C ,  4-C ) :   1.5349 B(  3-C ,  5-H ) :   1.0032 B(  4-C , 20-C ) :   1.0554
B(  6-C ,  7-H ) :   0.9270 B(  6-C ,  8-H ) :   0.9421 B(  6-C ,  9-C ) :   1.0830
B(  9-C , 10-H ) :   0.9585 B(  9-C , 11-H ) :   0.9516 B(  9-C , 12-C ) :   1.0776
B( 12-C , 13-H ) :   0.9730 B( 12-C , 14-H ) :   0.9721 B( 12-C , 15-H ) :   0.9792
B( 16-S , 17-C ) :   1.1355 B( 16-S , 20-C ) :   1.1360 B( 17-C , 18-C ) :   1.6397
B( 17-C , 20-C ) :   0.1073 B( 17-C , 33-H ) :   0.9625 B( 18-C , 19-C ) :   1.2439
B( 18-C , 21-H ) :   0.9764 B( 19-C , 20-C ) :   1.5730 B( 19-C , 22-C ) :   1.0321
B( 22-C , 23-H ) :   0.9312 B( 22-C , 24-H ) :   0.9429 B( 22-C , 25-C ) :   1.0576
B( 25-C , 26-H ) :   0.9567 B( 25-C , 27-H ) :   0.9581 B( 25-C , 28-C ) :   1.0973
B( 28-C , 29-H ) :   0.9743 B( 28-C , 30-H ) :   0.9722 B( 28-C , 31-H ) :   0.9699

Dispersion correction           -0.013810266
FINAL SINGLE POINT ENERGY     -1339.866766654579

DIPOLE MOMENT
-------------
                                X             Y             Z
Electronic contribution:    -19.03238       5.32602     -24.03559
Nuclear contribution   :     19.40232      -5.33050      24.73830
                        -----------------------------------------
Total Dipole Moment    :      0.36994      -0.00448       0.70271
                        -----------------------------------------
Magnitude (a.u.)       :      0.79415
Magnitude (Debye)      :      2.01858

Rotational constants in cm-1:     0.016241     0.009772     0.006544
Rotational constants in MHz :   486.883599   292.965152   196.189057

                             ****ORCA TERMINATED NORMALLY****
TOTAL RUN TIME: 0 days 0 hours 0 minutes 21 seconds 380 msec
