                         Program Version 4.2.1 -  RELEASE  -
|  1> ! wB97X-D3 SP def2-SVP
|  2> %pal
|  3> nprocs 24
|  4> end
|  5>
|  6> * xyz 0 1
|  7> S 	 22.173 	 0.863438 	 -109.996
|  8> C 	 21.4249 	 0.624501 	 -111.582
|  9> C 	 22.3761 	 0.73591 	 -112.571
| 10> C 	 23.6106 	 1.19986 	 -112.041
| 11> C 	 23.6718 	 1.46964 	 -110.689
| 12> H 	 24.4805 	 1.27281 	 -112.62
| 13> C 	 22.1579 	 0.278028 	 -114.013
| 14> H 	 21.2528 	 -0.248962 	 -114.22
| 15> H 	 22.9899 	 -0.433503 	 -114.303
| 16> C 	 22.1535 	 1.43835 	 -114.956
| 17> H 	 21.1938 	 1.96281 	 -114.671
| 18> H 	 22.9499 	 2.14506 	 -114.661
| 19> C 	 22.393 	 1.20642 	 -116.445
| 20> H 	 22.399 	 2.09112 	 -117.013
| 21> H 	 23.3022 	 0.730481 	 -116.653
| 22> H 	 21.6138 	 0.635646 	 -116.752
| 23> S 	 25.559 	 0.469264 	 -108.995
| 24> C 	 26.9728 	 1.42502 	 -108.601
| 25> C 	 26.8596 	 2.65807 	 -109.153
| 26> C 	 25.6699 	 2.87255 	 -109.895
| 27> C 	 24.8524 	 1.7288 	 -109.919
| 28> H 	 27.6376 	 3.35139 	 -108.948
| 29> C 	 25.5048 	 4.09898 	 -110.743
| 30> H 	 24.9432 	 3.89327 	 -111.627
| 31> H 	 26.5318 	 4.35354 	 -111.202
| 32> C 	 24.9111 	 5.23348 	 -109.91
| 33> H 	 25.5701 	 5.60203 	 -109.216
| 34> H 	 24.0534 	 4.89307 	 -109.448
| 35> C 	 24.4257 	 6.33738 	 -110.899
| 36> H 	 25.2026 	 7.04618 	 -111.238
| 37> H 	 23.6123 	 7.0568 	 -110.473
| 38> H 	 23.9993 	 5.96112 	 -111.87
| 39> H 	 20.4105 	 0.313087 	 -111.782
| 40> H 	 27.8541 	 1.14614 	 -107.984
| 41> *
| 42>
| 43>                          ****END OF INPUT****

CARTESIAN COORDINATES (ANGSTROEM)
---------------------------------
  S     22.173000    0.863438  -109.996000
  C     21.424900    0.624501  -111.582000
  C     22.376100    0.735910  -112.571000
  C     23.610600    1.199860  -112.041000
  C     23.671800    1.469640  -110.689000
  H     24.480500    1.272810  -112.620000
  C     22.157900    0.278028  -114.013000
  H     21.252800   -0.248962  -114.220000
  H     22.989900   -0.433503  -114.303000
  C     22.153500    1.438350  -114.956000
  H     21.193800    1.962810  -114.671000
  H     22.949900    2.145060  -114.661000
  C     22.393000    1.206420  -116.445000
  H     22.399000    2.091120  -117.013000
  H     23.302200    0.730481  -116.653000
  H     21.613800    0.635646  -116.752000
  S     25.559000    0.469264  -108.995000
  C     26.972800    1.425020  -108.601000
  C     26.859600    2.658070  -109.153000
  C     25.669900    2.872550  -109.895000
  C     24.852400    1.728800  -109.919000
  H     27.637600    3.351390  -108.948000
  C     25.504800    4.098980  -110.743000
  H     24.943200    3.893270  -111.627000
  H     26.531800    4.353540  -111.202000
  C     24.911100    5.233480  -109.910000
  H     25.570100    5.602030  -109.216000
  H     24.053400    4.893070  -109.448000
  C     24.425700    6.337380  -110.899000
  H     25.202600    7.046180  -111.238000
  H     23.612300    7.056800  -110.473000
  H     23.999300    5.961120  -111.870000
  H     20.410500    0.313087  -111.782000
  H     27.854100    1.146140  -107.984000

 Total Charge           Charge          ....    0
 Multiplicity           Mult            ....    1
 Number of Electrons    NEL             ....  134
 Basis Dimension        Dim             ....  322

ORBITAL ENERGIES
----------------

  NO   OCC          E(Eh)            E(eV)
   0   2.0000     -88.965439     -2420.8727
   1   2.0000     -88.964733     -2420.8535
   2   2.0000     -10.329029      -281.0672
   3   2.0000     -10.323933      -280.9285
   4   2.0000     -10.317102      -280.7426
   5   2.0000     -10.316350      -280.7222
   6   2.0000     -10.302493      -280.3451
   7   2.0000     -10.300282      -280.2849
   8   2.0000     -10.294858      -280.1373
   9   2.0000     -10.291672      -280.0506
  10   2.0000     -10.290249      -280.0119
  11   2.0000     -10.286409      -279.9074
  12   2.0000     -10.285362      -279.8789
  13   2.0000     -10.284781      -279.8631
  14   2.0000     -10.275553      -279.6120
  15   2.0000     -10.263828      -279.2930
  16   2.0000      -8.080698      -219.8870
  17   2.0000      -8.079089      -219.8432
  18   2.0000      -6.039217      -164.3354
  19   2.0000      -6.037666      -164.2932
  20   2.0000      -6.035015      -164.2211
  21   2.0000      -6.033691      -164.1851
  22   2.0000      -6.031514      -164.1258
  23   2.0000      -6.029730      -164.0773
  24   2.0000      -1.011317       -27.5193
  25   2.0000      -0.987496       -26.8711
  26   2.0000      -0.918148       -24.9841
  27   2.0000      -0.910672       -24.7806
  28   2.0000      -0.877055       -23.8659
  29   2.0000      -0.847740       -23.0682
  30   2.0000      -0.845741       -23.0138
  31   2.0000      -0.818765       -22.2797
  32   2.0000      -0.789765       -21.4906
  33   2.0000      -0.765013       -20.8171
  34   2.0000      -0.712080       -19.3767
  35   2.0000      -0.703109       -19.1326
  36   2.0000      -0.692499       -18.8439
  37   2.0000      -0.659052       -17.9337
  38   2.0000      -0.646448       -17.5907
  39   2.0000      -0.627575       -17.0772
  40   2.0000      -0.597723       -16.2649
  41   2.0000      -0.574160       -15.6237
  42   2.0000      -0.566843       -15.4246
  43   2.0000      -0.564348       -15.3567
  44   2.0000      -0.531068       -14.4511
  45   2.0000      -0.521438       -14.1891
  46   2.0000      -0.519660       -14.1407
  47   2.0000      -0.509512       -13.8645
  48   2.0000      -0.507138       -13.7999
  49   2.0000      -0.503489       -13.7006
  50   2.0000      -0.500699       -13.6247
  51   2.0000      -0.489152       -13.3105
  52   2.0000      -0.470584       -12.8052
  53   2.0000      -0.465289       -12.6612
  54   2.0000      -0.457313       -12.4441
  55   2.0000      -0.447290       -12.1714
  56   2.0000      -0.443434       -12.0664
  57   2.0000      -0.437953       -11.9173
  58   2.0000      -0.430872       -11.7246
  59   2.0000      -0.420558       -11.4440
  60   2.0000      -0.418008       -11.3746
  61   2.0000      -0.414528       -11.2799
  62   2.0000      -0.412748       -11.2314
  63   2.0000      -0.346210        -9.4209
  64   2.0000      -0.327775        -8.9192
  65   2.0000      -0.326500        -8.8845
  66   2.0000      -0.299723        -8.1559
  67   0.0000       0.035297         0.9605
  68   0.0000       0.060583         1.6486
  69   0.0000       0.109051         2.9674
  70   0.0000       0.123402         3.3579
  71   0.0000       0.135473         3.6864

MULLIKEN ATOMIC CHARGES
-----------------------
   0 S :    0.097952
   1 C :   -0.114840
   2 C :   -0.078717
   3 C :    0.060317
   4 C :   -0.155780
   5 H :   -0.006297
   6 C :    0.081732
   7 H :    0.013466
   8 H :    0.034564
   9 C :   -0.150018
  10 H :    0.028823
  11 H :    0.024712
  12 C :    0.062619
  13 H :    0.022488
  14 H :    0.016219
  15 H :    0.001903
  16 S :    0.120919
  17 C :   -0.105398
  18 C :   -0.027500
  19 C :   -0.025763
  20 C :   -0.165368
  21 H :    0.006306
  22 C :    0.037622
  23 H :    0.009764
  24 H :    0.035777
  25 C :    0.032145
  26 H :    0.016569
  27 H :    0.021798
  28 C :   -0.116450
  29 H :    0.029195
  30 H :    0.042202
  31 H :    0.036196
  32 H :    0.045515
  33 H :    0.067330
Sum of atomic charges:   -0.0000000

LOEWDIN ATOMIC CHARGES
----------------------
   0 S :    0.393446
   1 C :   -0.182547
   2 C :   -0.062187
   3 C :   -0.047939
   4 C :   -0.196555
   5 H :    0.021129
   6 C :   -0.031030
   7 H :    0.024066
   8 H :    0.035837
   9 C :   -0.050398
  10 H :    0.029002
  11 H :    0.019910
  12 C :   -0.047407
  13 H :    0.026277
  14 H :    0.021559
  15 H :    0.011833
  16 S :    0.424449
  17 C :   -0.192639
  18 C :   -0.072232
  19 C :   -0.054603
  20 C :   -0.218309
  21 H :    0.027391
  22 C :   -0.030008
  23 H :    0.022401
  24 H :    0.038560
  25 C :   -0.018888
  26 H :    0.016175
  27 H :    0.021640
  28 C :   -0.081478
  29 H :    0.022074
  30 H :    0.032015
  31 H :    0.027332
  32 H :    0.029220
  33 H :    0.041906

  Mayer bond orders larger than 0.100000
B(  0-S ,  1-C ) :   1.1447 B(  0-S ,  4-C ) :   1.1343 B(  1-C ,  2-C ) :   1.6021
B(  1-C , 32-H ) :   0.9698 B(  2-C ,  3-C ) :   1.2555 B(  2-C ,  6-C ) :   1.0259
B(  3-C ,  4-C ) :   1.5715 B(  3-C ,  5-H ) :   0.9959 B(  4-C , 20-C ) :   1.0445
B(  6-C ,  7-H ) :   0.9442 B(  6-C ,  8-H ) :   0.9407 B(  6-C ,  9-C ) :   1.0499
B(  9-C , 10-H ) :   0.9522 B(  9-C , 11-H ) :   0.9654 B(  9-C , 12-C ) :   1.0759
B( 12-C , 13-H ) :   0.9688 B( 12-C , 14-H ) :   0.9696 B( 12-C , 15-H ) :   0.9705
B( 16-S , 17-C ) :   1.1486 B( 16-S , 20-C ) :   1.1597 B( 17-C , 18-C ) :   1.6205
B( 17-C , 33-H ) :   0.9612 B( 18-C , 19-C ) :   1.2519 B( 18-C , 21-H ) :   0.9937
B( 19-C , 20-C ) :   1.5670 B( 19-C , 22-C ) :   1.0467 B( 22-C , 23-H ) :   0.9375
B( 22-C , 24-H ) :   0.9407 B( 22-C , 25-C ) :   1.0541 B( 25-C , 26-H ) :   0.9580
B( 25-C , 27-H ) :   0.9562 B( 25-C , 28-C ) :   1.0678 B( 28-C , 29-H ) :   0.9757
B( 28-C , 30-H ) :   0.9778 B( 28-C , 31-H ) :   0.9768

Dispersion correction           -0.013712310
FINAL SINGLE POINT ENERGY     -1339.858820614775

DIPOLE MOMENT
-------------
                                X             Y             Z
Electronic contribution:      2.20424     -16.72919      23.21807
Nuclear contribution   :     -1.95283      16.88331     -23.80733
                        -----------------------------------------
Total Dipole Moment    :      0.25141       0.15412      -0.58926
                        -----------------------------------------
Magnitude (a.u.)       :      0.65893
Magnitude (Debye)      :      1.67486

Rotational constants in cm-1:     0.016963     0.008420     0.006888
Rotational constants in MHz :   508.547095   252.425887   206.484447

                             ****ORCA TERMINATED NORMALLY****
TOTAL RUN TIME: 0 days 0 hours 0 minutes 21 seconds 287 msec
