                         Program Version 4.2.1 -  RELEASE  -
|  1> ! wB97X-D3 SP def2-SVP
|  2> %pal
|  3> nprocs 24
|  4> end
|  5>
|  6> * xyz 0 1
|  7> S 	 -63.5435 	 17.5448 	 -118.053
|  8> C 	 -62.1861 	 18.4683 	 -118.818
|  9> C 	 -61.7025 	 19.3911 	 -117.92
| 10> C 	 -62.5531 	 19.6241 	 -116.772
| 11> C 	 -63.6396 	 18.7688 	 -116.753
| 12> H 	 -62.3602 	 20.3073 	 -115.921
| 13> C 	 -60.4609 	 20.1215 	 -118.168
| 14> H 	 -60.3251 	 20.951 	 -117.498
| 15> H 	 -60.5302 	 20.6028 	 -119.16
| 16> C 	 -59.1247 	 19.3311 	 -117.931
| 17> H 	 -59.2076 	 18.8508 	 -116.927
| 18> H 	 -59.1033 	 18.4693 	 -118.599
| 19> C 	 -57.8573 	 20.0557 	 -118.145
| 20> H 	 -57.8508 	 20.8145 	 -117.348
| 21> H 	 -57.0009 	 19.4767 	 -118.114
| 22> H 	 -57.8942 	 20.501 	 -119.153
| 23> S 	 -64.9614 	 16.8981 	 -115.085
| 24> C 	 -66.0964 	 17.487 	 -113.85
| 25> C 	 -66.187 	 18.8724 	 -113.865
| 26> C 	 -65.3541 	 19.4678 	 -114.919
| 27> C 	 -64.64 	 18.5384 	 -115.68
| 28> H 	 -66.8015 	 19.3438 	 -113.141
| 29> C 	 -65.2642 	 21.0748 	 -115.117
| 30> H 	 -65.2265 	 21.3633 	 -116.174
| 31> H 	 -64.2993 	 21.5026 	 -114.615
| 32> C 	 -66.4448 	 21.7186 	 -114.438
| 33> H 	 -66.456 	 21.4896 	 -113.332
| 34> H 	 -67.355 	 21.163 	 -114.798
| 35> C 	 -66.6269 	 23.2288 	 -114.829
| 36> H 	 -65.8589 	 23.8512 	 -114.272
| 37> H 	 -67.5966 	 23.4815 	 -114.54
| 38> H 	 -66.4988 	 23.3891 	 -115.866
| 39> H 	 -61.706 	 18.2845 	 -119.798
| 40> H 	 -66.2578 	 16.8981 	 -112.917
| 41> *
| 42>
| 43>                          ****END OF INPUT****

CARTESIAN COORDINATES (ANGSTROEM)
---------------------------------
  S    -63.543500   17.544800  -118.053000
  C    -62.186100   18.468300  -118.818000
  C    -61.702500   19.391100  -117.920000
  C    -62.553100   19.624100  -116.772000
  C    -63.639600   18.768800  -116.753000
  H    -62.360200   20.307300  -115.921000
  C    -60.460900   20.121500  -118.168000
  H    -60.325100   20.951000  -117.498000
  H    -60.530200   20.602800  -119.160000
  C    -59.124700   19.331100  -117.931000
  H    -59.207600   18.850800  -116.927000
  H    -59.103300   18.469300  -118.599000
  C    -57.857300   20.055700  -118.145000
  H    -57.850800   20.814500  -117.348000
  H    -57.000900   19.476700  -118.114000
  H    -57.894200   20.501000  -119.153000
  S    -64.961400   16.898100  -115.085000
  C    -66.096400   17.487000  -113.850000
  C    -66.187000   18.872400  -113.865000
  C    -65.354100   19.467800  -114.919000
  C    -64.640000   18.538400  -115.680000
  H    -66.801500   19.343800  -113.141000
  C    -65.264200   21.074800  -115.117000
  H    -65.226500   21.363300  -116.174000
  H    -64.299300   21.502600  -114.615000
  C    -66.444800   21.718600  -114.438000
  H    -66.456000   21.489600  -113.332000
  H    -67.355000   21.163000  -114.798000
  C    -66.626900   23.228800  -114.829000
  H    -65.858900   23.851200  -114.272000
  H    -67.596600   23.481500  -114.540000
  H    -66.498800   23.389100  -115.866000
  H    -61.706000   18.284500  -119.798000
  H    -66.257800   16.898100  -112.917000

 Total Charge           Charge          ....    0
 Multiplicity           Mult            ....    1
 Number of Electrons    NEL             ....  134
 Basis Dimension        Dim             ....  322

ORBITAL ENERGIES
----------------

  NO   OCC          E(Eh)            E(eV)
   0   2.0000     -88.966741     -2420.9081
   1   2.0000     -88.966266     -2420.8952
   2   2.0000     -10.338859      -281.3346
   3   2.0000     -10.335245      -281.2363
   4   2.0000     -10.322896      -280.9003
   5   2.0000     -10.320092      -280.8240
   6   2.0000     -10.315482      -280.6985
   7   2.0000     -10.305889      -280.4375
   8   2.0000     -10.303092      -280.3614
   9   2.0000     -10.302364      -280.3416
  10   2.0000     -10.302247      -280.3384
  11   2.0000     -10.292725      -280.0793
  12   2.0000     -10.289617      -279.9947
  13   2.0000     -10.285217      -279.8750
  14   2.0000     -10.279087      -279.7082
  15   2.0000     -10.274167      -279.5743
  16   2.0000      -8.080214      -219.8738
  17   2.0000      -8.079968      -219.8671
  18   2.0000      -6.038837      -164.3251
  19   2.0000      -6.038701      -164.3214
  20   2.0000      -6.034888      -164.2176
  21   2.0000      -6.034823      -164.2159
  22   2.0000      -6.030890      -164.1089
  23   2.0000      -6.030374      -164.0948
  24   2.0000      -0.997631       -27.1469
  25   2.0000      -0.975835       -26.5538
  26   2.0000      -0.915045       -24.8997
  27   2.0000      -0.902920       -24.5697
  28   2.0000      -0.871399       -23.7120
  29   2.0000      -0.848500       -23.0888
  30   2.0000      -0.838498       -22.8167
  31   2.0000      -0.817441       -22.2437
  32   2.0000      -0.781530       -21.2665
  33   2.0000      -0.771188       -20.9851
  34   2.0000      -0.699753       -19.0413
  35   2.0000      -0.699299       -19.0289
  36   2.0000      -0.694340       -18.8940
  37   2.0000      -0.649261       -17.6673
  38   2.0000      -0.636705       -17.3256
  39   2.0000      -0.615716       -16.7545
  40   2.0000      -0.592525       -16.1234
  41   2.0000      -0.577412       -15.7122
  42   2.0000      -0.561504       -15.2793
  43   2.0000      -0.560837       -15.2612
  44   2.0000      -0.530488       -14.4353
  45   2.0000      -0.525882       -14.3100
  46   2.0000      -0.519955       -14.1487
  47   2.0000      -0.513449       -13.9717
  48   2.0000      -0.508540       -13.8381
  49   2.0000      -0.499591       -13.5946
  50   2.0000      -0.485133       -13.2011
  51   2.0000      -0.480760       -13.0821
  52   2.0000      -0.473645       -12.8885
  53   2.0000      -0.460699       -12.5363
  54   2.0000      -0.454379       -12.3643
  55   2.0000      -0.451834       -12.2950
  56   2.0000      -0.446883       -12.1603
  57   2.0000      -0.437246       -11.8981
  58   2.0000      -0.428962       -11.6726
  59   2.0000      -0.427961       -11.6454
  60   2.0000      -0.416603       -11.3363
  61   2.0000      -0.408476       -11.1152
  62   2.0000      -0.404257       -11.0004
  63   2.0000      -0.353300        -9.6138
  64   2.0000      -0.331815        -9.0292
  65   2.0000      -0.328646        -8.9429
  66   2.0000      -0.289261        -7.8712
  67   0.0000       0.022202         0.6042
  68   0.0000       0.059641         1.6229
  69   0.0000       0.094861         2.5813
  70   0.0000       0.116517         3.1706
  71   0.0000       0.129885         3.5343

MULLIKEN ATOMIC CHARGES
-----------------------
   0 S :    0.083564
   1 C :   -0.118536
   2 C :   -0.079560
   3 C :    0.022962
   4 C :   -0.136656
   5 H :    0.032268
   6 C :    0.050106
   7 H :    0.000452
   8 H :    0.035445
   9 C :   -0.101983
  10 H :    0.031870
  11 H :    0.012549
  12 C :    0.007541
  13 H :    0.027681
  14 H :    0.025262
  15 H :    0.027986
  16 S :    0.089726
  17 C :   -0.102401
  18 C :   -0.047024
  19 C :   -0.051570
  20 C :   -0.124097
  21 H :    0.019275
  22 C :    0.042763
  23 H :    0.042564
  24 H :    0.049911
  25 C :   -0.178547
  26 H :    0.045951
  27 H :    0.038356
  28 C :    0.019529
  29 H :    0.037533
  30 H :    0.023124
  31 H :    0.026219
  32 H :    0.061489
  33 H :    0.086250
Sum of atomic charges:   -0.0000000

LOEWDIN ATOMIC CHARGES
----------------------
   0 S :    0.361665
   1 C :   -0.178751
   2 C :   -0.063163
   3 C :   -0.063000
   4 C :   -0.166967
   5 H :    0.041202
   6 C :   -0.038735
   7 H :    0.023153
   8 H :    0.035840
   9 C :   -0.044020
  10 H :    0.027748
  11 H :    0.015385
  12 C :   -0.057556
  13 H :    0.026809
  14 H :    0.019279
  15 H :    0.030583
  16 S :    0.380799
  17 C :   -0.191688
  18 C :   -0.065351
  19 C :   -0.056556
  20 C :   -0.192430
  21 H :    0.027808
  22 C :   -0.035567
  23 H :    0.030904
  24 H :    0.036401
  25 C :   -0.058384
  26 H :    0.026846
  27 H :    0.027097
  28 C :   -0.052473
  29 H :    0.032343
  30 H :    0.018954
  31 H :    0.020631
  32 H :    0.038122
  33 H :    0.043074

  Mayer bond orders larger than 0.100000
B(  0-S ,  1-C ) :   1.1050 B(  0-S ,  4-C ) :   1.1344 B(  1-C ,  2-C ) :   1.6352
B(  1-C , 32-H ) :   0.9665 B(  2-C ,  3-C ) :   1.2097 B(  2-C ,  6-C ) :   1.0458
B(  3-C ,  4-C ) :   1.5894 B(  3-C ,  5-H ) :   0.9862 B(  4-C , 20-C ) :   1.0400
B(  6-C ,  7-H ) :   0.9385 B(  6-C ,  8-H ) :   0.9353 B(  6-C ,  9-C ) :   1.0464
B(  9-C , 10-H ) :   0.9535 B(  9-C , 11-H ) :   0.9542 B(  9-C , 12-C ) :   1.0923
B( 12-C , 13-H ) :   0.9734 B( 12-C , 14-H ) :   0.9706 B( 12-C , 15-H ) :   0.9685
B( 16-S , 17-C ) :   1.1409 B( 16-S , 20-C ) :   1.1340 B( 17-C , 18-C ) :   1.6275
B( 17-C , 33-H ) :   0.9499 B( 18-C , 19-C ) :   1.2284 B( 18-C , 21-H ) :   0.9911
B( 19-C , 20-C ) :   1.6272 B( 19-C , 22-C ) :   1.0074 B( 22-C , 23-H ) :   0.9433
B( 22-C , 24-H ) :   0.9375 B( 22-C , 25-C ) :   1.0827 B( 25-C , 26-H ) :   0.9432
B( 25-C , 27-H ) :   0.9573 B( 25-C , 28-C ) :   1.0671 B( 28-C , 29-H ) :   0.9742
B( 28-C , 30-H ) :   0.9740 B( 28-C , 31-H ) :   0.9756

Dispersion correction           -0.013175440
FINAL SINGLE POINT ENERGY     -1339.858287427106

DIPOLE MOMENT
-------------
                                X             Y             Z
Electronic contribution:    -11.48682     -23.94553      -1.16999
Nuclear contribution   :     11.87854      24.59166       1.43960
                        -----------------------------------------
Total Dipole Moment    :      0.39171       0.64612       0.26961
                        -----------------------------------------
Magnitude (a.u.)       :      0.80225
Magnitude (Debye)      :      2.03916

Rotational constants in cm-1:     0.018500     0.007329     0.005879
Rotational constants in MHz :   554.618545   219.724084   176.258482

                             ****ORCA TERMINATED NORMALLY****
TOTAL RUN TIME: 0 days 0 hours 0 minutes 20 seconds 688 msec
