                         Program Version 4.2.1 -  RELEASE  -
|  1> ! wB97X-D3 SP def2-SVP
|  2> %pal
|  3> nprocs 24
|  4> end
|  5>
|  6> * xyz 0 1
|  7> S 	 -98.803 	 1.20474 	 -122.991
|  8> C 	 -99.6396 	 2.78901 	 -123.046
|  9> C 	 -100.191 	 3.08801 	 -121.812
| 10> C 	 -99.8438 	 2.09593 	 -120.777
| 11> C 	 -98.9098 	 1.14968 	 -121.234
| 12> H 	 -100.207 	 2.07234 	 -119.788
| 13> C 	 -101.033 	 4.27376 	 -121.57
| 14> H 	 -102.07 	 4.00741 	 -121.292
| 15> H 	 -101.122 	 4.84308 	 -122.41
| 16> C 	 -100.393 	 5.21094 	 -120.528
| 17> H 	 -100.026 	 4.63956 	 -119.648
| 18> H 	 -99.5352 	 5.66914 	 -120.898
| 19> C 	 -101.4 	 6.21284 	 -120.056
| 20> H 	 -102.312 	 5.8219 	 -119.549
| 21> H 	 -100.941 	 6.80438 	 -119.293
| 22> H 	 -101.742 	 6.83247 	 -120.851
| 23> S 	 -98.9462 	 -1.60241 	 -120.822
| 24> C 	 -98.0406 	 -2.23833 	 -119.478
| 25> C 	 -97.5869 	 -1.21621 	 -118.638
| 26> C 	 -97.8002 	 0.090811 	 -119.145
| 27> C 	 -98.3723 	 0.0582357 	 -120.398
| 28> H 	 -97.2806 	 -1.42581 	 -117.62
| 29> C 	 -97.7118 	 1.39417 	 -118.348
| 30> H 	 -98.6815 	 1.78388 	 -118.097
| 31> H 	 -97.2616 	 2.19815 	 -119.014
| 32> C 	 -96.9533 	 1.35872 	 -117.023
| 33> H 	 -95.928 	 1.00404 	 -117.173
| 34> H 	 -97.3774 	 0.659168 	 -116.328
| 35> C 	 -96.9959 	 2.69563 	 -116.243
| 36> H 	 -96.3892 	 3.42152 	 -116.812
| 37> H 	 -96.6694 	 2.63533 	 -115.19
| 38> H 	 -97.992 	 3.10463 	 -116.299
| 39> H 	 -99.8954 	 3.44402 	 -123.847
| 40> H 	 -97.8402 	 -3.29303 	 -119.337
| 41> *
| 42>
| 43>                          ****END OF INPUT****

CARTESIAN COORDINATES (ANGSTROEM)
---------------------------------
  S    -98.803000    1.204740  -122.991000
  C    -99.639600    2.789010  -123.046000
  C    -100.191000    3.088010  -121.812000
  C    -99.843800    2.095930  -120.777000
  C    -98.909800    1.149680  -121.234000
  H    -100.207000    2.072340  -119.788000
  C    -101.033000    4.273760  -121.570000
  H    -102.070000    4.007410  -121.292000
  H    -101.122000    4.843080  -122.410000
  C    -100.393000    5.210940  -120.528000
  H    -100.026000    4.639560  -119.648000
  H    -99.535200    5.669140  -120.898000
  C    -101.400000    6.212840  -120.056000
  H    -102.312000    5.821900  -119.549000
  H    -100.941000    6.804380  -119.293000
  H    -101.742000    6.832470  -120.851000
  S    -98.946200   -1.602410  -120.822000
  C    -98.040600   -2.238330  -119.478000
  C    -97.586900   -1.216210  -118.638000
  C    -97.800200    0.090811  -119.145000
  C    -98.372300    0.058236  -120.398000
  H    -97.280600   -1.425810  -117.620000
  C    -97.711800    1.394170  -118.348000
  H    -98.681500    1.783880  -118.097000
  H    -97.261600    2.198150  -119.014000
  C    -96.953300    1.358720  -117.023000
  H    -95.928000    1.004040  -117.173000
  H    -97.377400    0.659168  -116.328000
  C    -96.995900    2.695630  -116.243000
  H    -96.389200    3.421520  -116.812000
  H    -96.669400    2.635330  -115.190000
  H    -97.992000    3.104630  -116.299000
  H    -99.895400    3.444020  -123.847000
  H    -97.840200   -3.293030  -119.337000

 Total Charge           Charge          ....    0
 Multiplicity           Mult            ....    1
 Number of Electrons    NEL             ....  134
 Basis Dimension        Dim             ....  322

ORBITAL ENERGIES
----------------

  NO   OCC          E(Eh)            E(eV)
   0   2.0000     -88.967142     -2420.9190
   1   2.0000     -88.966277     -2420.8955
   2   2.0000     -10.333603      -281.1916
   3   2.0000     -10.328502      -281.0528
   4   2.0000     -10.319940      -280.8198
   5   2.0000     -10.314528      -280.6726
   6   2.0000     -10.305826      -280.4358
   7   2.0000     -10.301633      -280.3217
   8   2.0000     -10.298785      -280.2442
   9   2.0000     -10.297808      -280.2176
  10   2.0000     -10.295400      -280.1521
  11   2.0000     -10.285897      -279.8935
  12   2.0000     -10.284105      -279.8447
  13   2.0000     -10.282603      -279.8038
  14   2.0000     -10.281417      -279.7716
  15   2.0000     -10.273567      -279.5580
  16   2.0000      -8.080724      -219.8877
  17   2.0000      -8.080420      -219.8794
  18   2.0000      -6.039502      -164.3432
  19   2.0000      -6.038903      -164.3269
  20   2.0000      -6.035544      -164.2355
  21   2.0000      -6.035193      -164.2260
  22   2.0000      -6.031088      -164.1142
  23   2.0000      -6.031064      -164.1136
  24   2.0000      -0.999850       -27.2073
  25   2.0000      -0.977631       -26.6027
  26   2.0000      -0.920226       -25.0406
  27   2.0000      -0.909517       -24.7492
  28   2.0000      -0.869030       -23.6475
  29   2.0000      -0.853384       -23.2218
  30   2.0000      -0.842463       -22.9246
  31   2.0000      -0.811068       -22.0703
  32   2.0000      -0.783427       -21.3181
  33   2.0000      -0.772596       -21.0234
  34   2.0000      -0.710424       -19.3316
  35   2.0000      -0.703823       -19.1520
  36   2.0000      -0.696911       -18.9639
  37   2.0000      -0.653578       -17.7848
  38   2.0000      -0.641685       -17.4612
  39   2.0000      -0.620954       -16.8970
  40   2.0000      -0.601525       -16.3683
  41   2.0000      -0.570404       -15.5215
  42   2.0000      -0.568296       -15.4641
  43   2.0000      -0.563590       -15.3361
  44   2.0000      -0.532064       -14.4782
  45   2.0000      -0.527744       -14.3606
  46   2.0000      -0.518991       -14.1225
  47   2.0000      -0.505252       -13.7486
  48   2.0000      -0.503571       -13.7029
  49   2.0000      -0.498129       -13.5548
  50   2.0000      -0.496128       -13.5003
  51   2.0000      -0.481169       -13.0933
  52   2.0000      -0.476440       -12.9646
  53   2.0000      -0.462031       -12.5725
  54   2.0000      -0.457507       -12.4494
  55   2.0000      -0.454281       -12.3616
  56   2.0000      -0.450106       -12.2480
  57   2.0000      -0.439047       -11.9471
  58   2.0000      -0.433613       -11.7992
  59   2.0000      -0.428117       -11.6496
  60   2.0000      -0.423138       -11.5142
  61   2.0000      -0.416073       -11.3219
  62   2.0000      -0.415968       -11.3191
  63   2.0000      -0.336616        -9.1598
  64   2.0000      -0.331795        -9.0286
  65   2.0000      -0.322947        -8.7878
  66   2.0000      -0.294958        -8.0262
  67   0.0000       0.022987         0.6255
  68   0.0000       0.063511         1.7282
  69   0.0000       0.099032         2.6948
  70   0.0000       0.111913         3.0453
  71   0.0000       0.126171         3.4333

MULLIKEN ATOMIC CHARGES
-----------------------
   0 S :    0.108493
   1 C :   -0.087032
   2 C :   -0.108715
   3 C :    0.047208
   4 C :   -0.158747
   5 H :    0.005496
   6 C :    0.114294
   7 H :    0.036392
   8 H :   -0.017662
   9 C :   -0.078676
  10 H :    0.025128
  11 H :    0.016492
  12 C :   -0.027558
  13 H :    0.030366
  14 H :    0.022942
  15 H :    0.022608
  16 S :    0.101858
  17 C :   -0.088042
  18 C :   -0.051184
  19 C :   -0.005590
  20 C :   -0.153060
  21 H :    0.022482
  22 C :    0.028473
  23 H :    0.025869
  24 H :    0.050182
  25 C :   -0.086080
  26 H :    0.033201
  27 H :    0.022450
  28 C :   -0.043075
  29 H :    0.028566
  30 H :    0.049134
  31 H :    0.019515
  32 H :    0.031463
  33 H :    0.062808
Sum of atomic charges:    0.0000000

LOEWDIN ATOMIC CHARGES
----------------------
   0 S :    0.383799
   1 C :   -0.187541
   2 C :   -0.054802
   3 C :   -0.047171
   4 C :   -0.193373
   5 H :    0.021258
   6 C :   -0.027123
   7 H :    0.037287
   8 H :    0.015434
   9 C :   -0.031539
  10 H :    0.024150
  11 H :    0.018349
  12 C :   -0.063697
  13 H :    0.028643
  14 H :    0.023341
  15 H :    0.019530
  16 S :    0.389791
  17 C :   -0.182642
  18 C :   -0.074924
  19 C :   -0.054657
  20 C :   -0.179641
  21 H :    0.031286
  22 C :   -0.032151
  23 H :    0.025009
  24 H :    0.044087
  25 C :   -0.046088
  26 H :    0.023849
  27 H :    0.018078
  28 C :   -0.063674
  29 H :    0.026103
  30 H :    0.031689
  31 H :    0.020744
  32 H :    0.027050
  33 H :    0.029546

  Mayer bond orders larger than 0.100000
B(  0-S ,  1-C ) :   1.1066 B(  0-S ,  4-C ) :   1.1402 B(  1-C ,  2-C ) :   1.6492
B(  1-C , 32-H ) :   0.9658 B(  2-C ,  3-C ) :   1.1975 B(  2-C ,  6-C ) :   1.0540
B(  3-C ,  4-C ) :   1.5680 B(  3-C ,  5-H ) :   0.9956 B(  4-C , 20-C ) :   1.0397
B(  6-C ,  7-H ) :   0.9380 B(  6-C ,  8-H ) :   0.9263 B(  6-C ,  9-C ) :   1.0488
B(  9-C , 10-H ) :   0.9610 B(  9-C , 11-H ) :   0.9517 B(  9-C , 12-C ) :   1.0909
B( 12-C , 13-H ) :   0.9740 B( 12-C , 14-H ) :   0.9704 B( 12-C , 15-H ) :   0.9711
B( 16-S , 17-C ) :   1.1636 B( 16-S , 20-C ) :   1.1409 B( 17-C , 18-C ) :   1.5858
B( 17-C , 20-C ) :   0.1068 B( 17-C , 33-H ) :   0.9664 B( 18-C , 19-C ) :   1.2595
B( 18-C , 21-H ) :   0.9861 B( 19-C , 20-C ) :   1.6081 B( 19-C , 22-C ) :   1.0346
B( 22-C , 23-H ) :   0.9330 B( 22-C , 24-H ) :   0.9299 B( 22-C , 25-C ) :   1.0767
B( 25-C , 26-H ) :   0.9570 B( 25-C , 27-H ) :   0.9462 B( 25-C , 28-C ) :   1.0806
B( 28-C , 29-H ) :   0.9756 B( 28-C , 30-H ) :   0.9747 B( 28-C , 31-H ) :   0.9718

Dispersion correction           -0.013804763
FINAL SINGLE POINT ENERGY     -1339.864973834204

DIPOLE MOMENT
-------------
                                X             Y             Z
Electronic contribution:      2.25818     -25.77584     -20.73565
Nuclear contribution   :     -2.56468      26.30057      21.35952
                        -----------------------------------------
Total Dipole Moment    :     -0.30650       0.52473       0.62386
                        -----------------------------------------
Magnitude (a.u.)       :      0.87091
Magnitude (Debye)      :      2.21369

Rotational constants in cm-1:     0.015589     0.009554     0.006399
Rotational constants in MHz :   467.350103   286.407508   191.844999

                             ****ORCA TERMINATED NORMALLY****
TOTAL RUN TIME: 0 days 0 hours 0 minutes 21 seconds 507 msec
