                         Program Version 4.2.1 -  RELEASE  -
|  1> ! wB97X-D3 SP def2-SVP
|  2> %pal
|  3> nprocs 24
|  4> end
|  5>
|  6> * xyz 0 1
|  7> S 	 -54.6151 	 9.47842 	 20.2735
|  8> C 	 -54.8517 	 10.407 	 18.8241
|  9> C 	 -56.0605 	 10.0457 	 18.1718
| 10> C 	 -56.7034 	 8.92874 	 18.7478
| 11> C 	 -55.9517 	 8.46956 	 19.853
| 12> H 	 -57.7409 	 8.62815 	 18.4682
| 13> C 	 -56.6854 	 10.8786 	 17.0018
| 14> H 	 -56.0072 	 11.6486 	 16.8269
| 15> H 	 -57.5441 	 11.4529 	 17.4033
| 16> C 	 -57.0902 	 10.109 	 15.7196
| 17> H 	 -56.2586 	 9.54439 	 15.2358
| 18> H 	 -57.8888 	 9.42697 	 15.9615
| 19> C 	 -57.579 	 11.0724 	 14.6766
| 20> H 	 -57.9139 	 10.4793 	 13.8241
| 21> H 	 -58.4721 	 11.5652 	 15.0783
| 22> H 	 -56.8208 	 11.8605 	 14.3987
| 23> S 	 -56.4787 	 7.92864 	 22.4858
| 24> C 	 -57.1555 	 6.39974 	 23.0408
| 25> C 	 -57.3666 	 5.59466 	 21.9521
| 26> C 	 -56.8824 	 6.16477 	 20.7123
| 27> C 	 -56.3457 	 7.46001 	 20.8386
| 28> H 	 -57.8242 	 4.63211 	 22.0814
| 29> C 	 -57.2647 	 5.53532 	 19.4248
| 30> H 	 -56.836 	 4.55169 	 19.4961
| 31> H 	 -56.6075 	 5.89112 	 18.7089
| 32> C 	 -58.6932 	 5.5603 	 19.0597
| 33> H 	 -59.0316 	 6.56219 	 18.9215
| 34> H 	 -59.2211 	 5.0506 	 19.8496
| 35> C 	 -59.0797 	 4.9024 	 17.763
| 36> H 	 -58.9109 	 5.41624 	 16.8474
| 37> H 	 -60.1333 	 4.86481 	 17.8175
| 38> H 	 -58.6131 	 3.90785 	 17.7872
| 39> H 	 -54.3922 	 11.2924 	 18.5472
| 40> H 	 -57.3918 	 6.1051 	 24.0875
| 41> *
| 42>
| 43>                          ****END OF INPUT****

CARTESIAN COORDINATES (ANGSTROEM)
---------------------------------
  S    -54.615100    9.478420   20.273500
  C    -54.851700   10.407000   18.824100
  C    -56.060500   10.045700   18.171800
  C    -56.703400    8.928740   18.747800
  C    -55.951700    8.469560   19.853000
  H    -57.740900    8.628150   18.468200
  C    -56.685400   10.878600   17.001800
  H    -56.007200   11.648600   16.826900
  H    -57.544100   11.452900   17.403300
  C    -57.090200   10.109000   15.719600
  H    -56.258600    9.544390   15.235800
  H    -57.888800    9.426970   15.961500
  C    -57.579000   11.072400   14.676600
  H    -57.913900   10.479300   13.824100
  H    -58.472100   11.565200   15.078300
  H    -56.820800   11.860500   14.398700
  S    -56.478700    7.928640   22.485800
  C    -57.155500    6.399740   23.040800
  C    -57.366600    5.594660   21.952100
  C    -56.882400    6.164770   20.712300
  C    -56.345700    7.460010   20.838600
  H    -57.824200    4.632110   22.081400
  C    -57.264700    5.535320   19.424800
  H    -56.836000    4.551690   19.496100
  H    -56.607500    5.891120   18.708900
  C    -58.693200    5.560300   19.059700
  H    -59.031600    6.562190   18.921500
  H    -59.221100    5.050600   19.849600
  C    -59.079700    4.902400   17.763000
  H    -58.910900    5.416240   16.847400
  H    -60.133300    4.864810   17.817500
  H    -58.613100    3.907850   17.787200
  H    -54.392200   11.292400   18.547200
  H    -57.391800    6.105100   24.087500

 Total Charge           Charge          ....    0
 Multiplicity           Mult            ....    1
 Number of Electrons    NEL             ....  134
 Basis Dimension        Dim             ....  322

ORBITAL ENERGIES
----------------

  NO   OCC          E(Eh)            E(eV)
   0   2.0000     -88.974482     -2421.1188
   1   2.0000     -88.960887     -2420.7488
   2   2.0000     -10.334075      -281.2045
   3   2.0000     -10.323942      -280.9287
   4   2.0000     -10.318654      -280.7848
   5   2.0000     -10.310207      -280.5550
   6   2.0000     -10.304558      -280.4013
   7   2.0000     -10.301942      -280.3301
   8   2.0000     -10.297666      -280.2137
   9   2.0000     -10.293729      -280.1066
  10   2.0000     -10.291088      -280.0347
  11   2.0000     -10.289320      -279.9866
  12   2.0000     -10.281764      -279.7810
  13   2.0000     -10.276640      -279.6416
  14   2.0000     -10.269992      -279.4607
  15   2.0000     -10.269766      -279.4545
  16   2.0000      -8.089206      -220.1185
  17   2.0000      -8.076017      -219.7596
  18   2.0000      -6.047490      -164.5606
  19   2.0000      -6.043775      -164.4595
  20   2.0000      -6.040143      -164.3607
  21   2.0000      -6.034583      -164.2093
  22   2.0000      -6.030341      -164.0939
  23   2.0000      -6.026798      -163.9975
  24   2.0000      -1.008621       -27.4460
  25   2.0000      -0.983680       -26.7673
  26   2.0000      -0.921229       -25.0679
  27   2.0000      -0.912306       -24.8251
  28   2.0000      -0.870955       -23.6999
  29   2.0000      -0.856191       -23.2981
  30   2.0000      -0.850343       -23.1390
  31   2.0000      -0.816724       -22.2242
  32   2.0000      -0.782141       -21.2831
  33   2.0000      -0.769445       -20.9377
  34   2.0000      -0.708356       -19.2753
  35   2.0000      -0.700593       -19.0641
  36   2.0000      -0.692009       -18.8305
  37   2.0000      -0.659195       -17.9376
  38   2.0000      -0.637504       -17.3474
  39   2.0000      -0.624032       -16.9808
  40   2.0000      -0.594859       -16.1869
  41   2.0000      -0.576581       -15.6896
  42   2.0000      -0.571324       -15.5465
  43   2.0000      -0.564912       -15.3721
  44   2.0000      -0.537391       -14.6231
  45   2.0000      -0.531664       -14.4673
  46   2.0000      -0.520129       -14.1534
  47   2.0000      -0.513774       -13.9805
  48   2.0000      -0.500070       -13.6076
  49   2.0000      -0.495551       -13.4846
  50   2.0000      -0.494050       -13.4438
  51   2.0000      -0.487967       -13.2782
  52   2.0000      -0.471198       -12.8220
  53   2.0000      -0.467087       -12.7101
  54   2.0000      -0.459486       -12.5033
  55   2.0000      -0.450965       -12.2714
  56   2.0000      -0.444675       -12.1002
  57   2.0000      -0.439396       -11.9566
  58   2.0000      -0.430864       -11.7244
  59   2.0000      -0.427412       -11.6305
  60   2.0000      -0.421380       -11.4663
  61   2.0000      -0.417967       -11.3735
  62   2.0000      -0.403986       -10.9930
  63   2.0000      -0.348835        -9.4923
  64   2.0000      -0.335250        -9.1226
  65   2.0000      -0.322119        -8.7653
  66   2.0000      -0.288970        -7.8633
  67   0.0000       0.026257         0.7145
  68   0.0000       0.073619         2.0033
  69   0.0000       0.104500         2.8436
  70   0.0000       0.125581         3.4172
  71   0.0000       0.129246         3.5170

MULLIKEN ATOMIC CHARGES
-----------------------
   0 S :    0.132323
   1 C :   -0.071025
   2 C :   -0.124899
   3 C :    0.021762
   4 C :   -0.151275
   5 H :    0.036330
   6 C :    0.078426
   7 H :   -0.014194
   8 H :    0.036374
   9 C :   -0.072505
  10 H :    0.042535
  11 H :    0.026168
  12 C :   -0.058226
  13 H :    0.036640
  14 H :    0.022142
  15 H :    0.046160
  16 S :    0.090738
  17 C :   -0.103348
  18 C :   -0.038523
  19 C :   -0.085833
  20 C :   -0.122709
  21 H :    0.016862
  22 C :    0.120804
  23 H :    0.000785
  24 H :   -0.012084
  25 C :   -0.033219
  26 H :    0.012250
  27 H :    0.017830
  28 C :   -0.014208
  29 H :    0.026437
  30 H :    0.019409
  31 H :    0.028503
  32 H :    0.017757
  33 H :    0.071814
Sum of atomic charges:   -0.0000000

LOEWDIN ATOMIC CHARGES
----------------------
   0 S :    0.442923
   1 C :   -0.206404
   2 C :   -0.053408
   3 C :   -0.064485
   4 C :   -0.196498
   5 H :    0.040935
   6 C :   -0.029447
   7 H :    0.016399
   8 H :    0.037182
   9 C :   -0.042311
  10 H :    0.031180
  11 H :    0.020901
  12 C :   -0.067543
  13 H :    0.027356
  14 H :    0.022345
  15 H :    0.031360
  16 S :    0.407820
  17 C :   -0.190737
  18 C :   -0.071598
  19 C :   -0.059036
  20 C :   -0.214941
  21 H :    0.029246
  22 C :   -0.042492
  23 H :    0.030114
  24 H :    0.020343
  25 C :   -0.032691
  26 H :    0.019995
  27 H :    0.024788
  28 C :   -0.055316
  29 H :    0.019942
  30 H :    0.024167
  31 H :    0.026745
  32 H :    0.011919
  33 H :    0.041245

  Mayer bond orders larger than 0.100000
B(  0-S ,  1-C ) :   1.1473 B(  0-S ,  4-C ) :   1.1901 B(  1-C ,  2-C ) :   1.5829
B(  1-C ,  4-C ) :   0.1065 B(  1-C , 32-H ) :   0.9695 B(  2-C ,  3-C ) :   1.2953
B(  2-C ,  6-C ) :   1.0188 B(  3-C ,  4-C ) :   1.5082 B(  3-C ,  5-H ) :   0.9838
B(  4-C , 20-C ) :   1.0249 B(  6-C ,  7-H ) :   0.9369 B(  6-C ,  8-H ) :   0.9369
B(  6-C ,  9-C ) :   1.0598 B(  9-C , 10-H ) :   0.9577 B(  9-C , 11-H ) :   0.9508
B(  9-C , 12-C ) :   1.0931 B( 12-C , 13-H ) :   0.9722 B( 12-C , 14-H ) :   0.9723
B( 12-C , 15-H ) :   0.9748 B( 16-S , 17-C ) :   1.1496 B( 16-S , 20-C ) :   1.1492
B( 17-C , 18-C ) :   1.5985 B( 17-C , 33-H ) :   0.9640 B( 18-C , 19-C ) :   1.2434
B( 18-C , 21-H ) :   0.9941 B( 19-C , 20-C ) :   1.5776 B( 19-C , 22-C ) :   1.0705
B( 22-C , 23-H ) :   0.9063 B( 22-C , 24-H ) :   0.9119 B( 22-C , 25-C ) :   1.0761
B( 25-C , 26-H ) :   0.9481 B( 25-C , 27-H ) :   0.9472 B( 25-C , 28-C ) :   1.0925
B( 28-C , 29-H ) :   0.9749 B( 28-C , 30-H ) :   0.9714 B( 28-C , 31-H ) :   0.9727

Dispersion correction           -0.013856478
FINAL SINGLE POINT ENERGY     -1339.862753198243

DIPOLE MOMENT
-------------
                                X             Y             Z
Electronic contribution:     16.10636       3.66019      27.74286
Nuclear contribution   :    -16.68420      -3.66631     -28.20156
                        -----------------------------------------
Total Dipole Moment    :     -0.57783      -0.00612      -0.45869
                        -----------------------------------------
Magnitude (a.u.)       :      0.73779
Magnitude (Debye)      :      1.87531

Rotational constants in cm-1:     0.017437     0.009127     0.006362
Rotational constants in MHz :   522.750189   273.618955   190.717638

                             ****ORCA TERMINATED NORMALLY****
TOTAL RUN TIME: 0 days 0 hours 0 minutes 21 seconds 542 msec
