                         Program Version 4.2.1 -  RELEASE  -
|  1> ! wB97X-D3 SP def2-SVP
|  2> %pal
|  3> nprocs 24
|  4> end
|  5>
|  6> * xyz 0 1
|  7> S 	 -126.869 	 27.5239 	 -19.2767
|  8> C 	 -128.057 	 28.7489 	 -18.8794
|  9> C 	 -129.086 	 28.639 	 -19.8052
| 10> C 	 -128.837 	 27.6265 	 -20.8785
| 11> C 	 -127.643 	 27.0122 	 -20.7711
| 12> H 	 -129.337 	 27.4183 	 -21.7952
| 13> C 	 -130.182 	 29.6162 	 -19.888
| 14> H 	 -130.199 	 30.1233 	 -20.8157
| 15> H 	 -130.059 	 30.4862 	 -19.1611
| 16> C 	 -131.541 	 29.097 	 -19.571
| 17> H 	 -131.405 	 28.619 	 -18.5283
| 18> H 	 -132.222 	 29.9823 	 -19.4833
| 19> C 	 -132.127 	 28.0116 	 -20.4977
| 20> H 	 -132.993 	 27.596 	 -19.9117
| 21> H 	 -132.404 	 28.3514 	 -21.5171
| 22> H 	 -131.366 	 27.2238 	 -20.6164
| 23> S 	 -126.032 	 27.172 	 -22.9358
| 24> C 	 -125.222 	 25.7208 	 -23.4346
| 25> C 	 -125.792 	 24.6083 	 -22.9261
| 26> C 	 -126.714 	 24.8986 	 -21.8931
| 27> C 	 -126.925 	 26.2305 	 -21.7969
| 28> H 	 -125.424 	 23.7072 	 -23.3457
| 29> C 	 -127.432 	 23.8305 	 -21.0962
| 30> H 	 -127.122 	 22.8014 	 -21.3128
| 31> H 	 -128.563 	 23.8708 	 -21.1871
| 32> C 	 -127.241 	 23.9239 	 -19.5468
| 33> H 	 -127.505 	 24.9131 	 -19.1538
| 34> H 	 -126.15 	 23.9426 	 -19.4442
| 35> C 	 -127.597 	 22.7609 	 -18.6239
| 36> H 	 -127.237 	 21.796 	 -18.932
| 37> H 	 -128.707 	 22.7283 	 -18.508
| 38> H 	 -127.334 	 22.9914 	 -17.5818
| 39> H 	 -127.999 	 29.5316 	 -18.1464
| 40> H 	 -124.584 	 25.688 	 -24.2849
| 41> *
| 42>
| 43>                          ****END OF INPUT****

CARTESIAN COORDINATES (ANGSTROEM)
---------------------------------
  S    -126.869000   27.523900  -19.276700
  C    -128.057000   28.748900  -18.879400
  C    -129.086000   28.639000  -19.805200
  C    -128.837000   27.626500  -20.878500
  C    -127.643000   27.012200  -20.771100
  H    -129.337000   27.418300  -21.795200
  C    -130.182000   29.616200  -19.888000
  H    -130.199000   30.123300  -20.815700
  H    -130.059000   30.486200  -19.161100
  C    -131.541000   29.097000  -19.571000
  H    -131.405000   28.619000  -18.528300
  H    -132.222000   29.982300  -19.483300
  C    -132.127000   28.011600  -20.497700
  H    -132.993000   27.596000  -19.911700
  H    -132.404000   28.351400  -21.517100
  H    -131.366000   27.223800  -20.616400
  S    -126.032000   27.172000  -22.935800
  C    -125.222000   25.720800  -23.434600
  C    -125.792000   24.608300  -22.926100
  C    -126.714000   24.898600  -21.893100
  C    -126.925000   26.230500  -21.796900
  H    -125.424000   23.707200  -23.345700
  C    -127.432000   23.830500  -21.096200
  H    -127.122000   22.801400  -21.312800
  H    -128.563000   23.870800  -21.187100
  C    -127.241000   23.923900  -19.546800
  H    -127.505000   24.913100  -19.153800
  H    -126.150000   23.942600  -19.444200
  C    -127.597000   22.760900  -18.623900
  H    -127.237000   21.796000  -18.932000
  H    -128.707000   22.728300  -18.508000
  H    -127.334000   22.991400  -17.581800
  H    -127.999000   29.531600  -18.146400
  H    -124.584000   25.688000  -24.284900

 Total Charge           Charge          ....    0
 Multiplicity           Mult            ....    1
 Number of Electrons    NEL             ....  134
 Basis Dimension        Dim             ....  322

ORBITAL ENERGIES
----------------

  NO   OCC          E(Eh)            E(eV)
   0   2.0000     -88.966818     -2420.9102
   1   2.0000     -88.960053     -2420.7261
   2   2.0000     -10.328063      -281.0409
   3   2.0000     -10.323235      -280.9095
   4   2.0000     -10.318310      -280.7755
   5   2.0000     -10.310684      -280.5680
   6   2.0000     -10.306673      -280.4588
   7   2.0000     -10.304815      -280.4083
   8   2.0000     -10.297802      -280.2175
   9   2.0000     -10.296345      -280.1778
  10   2.0000     -10.289993      -280.0050
  11   2.0000     -10.289653      -279.9957
  12   2.0000     -10.284305      -279.8502
  13   2.0000     -10.282066      -279.7892
  14   2.0000     -10.277878      -279.6753
  15   2.0000     -10.277807      -279.6734
  16   2.0000      -8.082593      -219.9385
  17   2.0000      -8.074484      -219.7179
  18   2.0000      -6.040946      -164.3825
  19   2.0000      -6.037088      -164.2775
  20   2.0000      -6.033312      -164.1748
  21   2.0000      -6.033186      -164.1713
  22   2.0000      -6.028901      -164.0547
  23   2.0000      -6.025118      -163.9518
  24   2.0000      -1.016481       -27.6598
  25   2.0000      -0.988696       -26.9038
  26   2.0000      -0.917216       -24.9587
  27   2.0000      -0.903397       -24.5827
  28   2.0000      -0.875316       -23.8186
  29   2.0000      -0.853139       -23.2151
  30   2.0000      -0.836513       -22.7627
  31   2.0000      -0.826334       -22.4857
  32   2.0000      -0.784163       -21.3382
  33   2.0000      -0.774275       -21.0691
  34   2.0000      -0.706182       -19.2162
  35   2.0000      -0.691487       -18.8163
  36   2.0000      -0.684202       -18.6181
  37   2.0000      -0.666298       -18.1309
  38   2.0000      -0.648043       -17.6341
  39   2.0000      -0.614411       -16.7190
  40   2.0000      -0.601517       -16.3681
  41   2.0000      -0.582031       -15.8379
  42   2.0000      -0.562428       -15.3044
  43   2.0000      -0.543407       -14.7869
  44   2.0000      -0.537455       -14.6249
  45   2.0000      -0.522537       -14.2190
  46   2.0000      -0.521374       -14.1873
  47   2.0000      -0.512180       -13.9371
  48   2.0000      -0.506824       -13.7914
  49   2.0000      -0.501874       -13.6567
  50   2.0000      -0.489714       -13.3258
  51   2.0000      -0.482523       -13.1301
  52   2.0000      -0.476918       -12.9776
  53   2.0000      -0.470832       -12.8120
  54   2.0000      -0.463557       -12.6140
  55   2.0000      -0.451511       -12.2862
  56   2.0000      -0.439132       -11.9494
  57   2.0000      -0.434356       -11.8194
  58   2.0000      -0.424017       -11.5381
  59   2.0000      -0.418599       -11.3907
  60   2.0000      -0.414088       -11.2679
  61   2.0000      -0.406740       -11.0680
  62   2.0000      -0.392382       -10.6773
  63   2.0000      -0.339356        -9.2343
  64   2.0000      -0.334680        -9.1071
  65   2.0000      -0.322957        -8.7881
  66   2.0000      -0.312823        -8.5123
  67   0.0000       0.044773         1.2183
  68   0.0000       0.051979         1.4144
  69   0.0000       0.103860         2.8262
  70   0.0000       0.122890         3.3440
  71   0.0000       0.130625         3.5545

MULLIKEN ATOMIC CHARGES
-----------------------
   0 S :    0.097012
   1 C :   -0.099159
   2 C :   -0.088986
   3 C :    0.061283
   4 C :   -0.166288
   5 H :    0.009768
   6 C :    0.055964
   7 H :    0.020957
   8 H :    0.021374
   9 C :   -0.117440
  10 H :    0.032401
  11 H :    0.038011
  12 C :   -0.060974
  13 H :    0.047461
  14 H :    0.037955
  15 H :    0.034931
  16 S :    0.128795
  17 C :   -0.084196
  18 C :   -0.029782
  19 C :    0.025711
  20 C :   -0.193628
  21 H :    0.005131
  22 C :    0.090938
  23 H :    0.012261
  24 H :    0.044835
  25 C :   -0.139391
  26 H :    0.040126
  27 H :    0.018287
  28 C :   -0.025779
  29 H :    0.031429
  30 H :    0.021141
  31 H :    0.034985
  32 H :    0.050615
  33 H :    0.044252
Sum of atomic charges:    0.0000000

LOEWDIN ATOMIC CHARGES
----------------------
   0 S :    0.396722
   1 C :   -0.186878
   2 C :   -0.059619
   3 C :   -0.064543
   4 C :   -0.187051
   5 H :    0.030449
   6 C :   -0.047657
   7 H :    0.023511
   8 H :    0.037701
   9 C :   -0.050224
  10 H :    0.031695
  11 H :    0.026137
  12 C :   -0.075372
  13 H :    0.036123
  14 H :    0.025026
  15 H :    0.025506
  16 S :    0.426442
  17 C :   -0.176705
  18 C :   -0.062609
  19 C :   -0.051702
  20 C :   -0.205886
  21 H :    0.030185
  22 C :   -0.031758
  23 H :    0.028364
  24 H :    0.038386
  25 C :   -0.057111
  26 H :    0.013021
  27 H :    0.021005
  28 C :   -0.066485
  29 H :    0.020666
  30 H :    0.024255
  31 H :    0.034072
  32 H :    0.032600
  33 H :    0.021734

  Mayer bond orders larger than 0.100000
B(  0-S ,  1-C ) :   1.1187 B(  0-S ,  4-C ) :   1.1273 B(  1-C ,  2-C ) :   1.6482
B(  1-C , 32-H ) :   0.9739 B(  2-C ,  3-C ) :   1.1477 B(  2-C ,  6-C ) :   1.0423
B(  3-C ,  4-C ) :   1.6681 B(  3-C ,  5-H ) :   0.9877 B(  4-C , 20-C ) :   0.9825
B(  6-C ,  7-H ) :   0.9369 B(  6-C ,  8-H ) :   0.9411 B(  6-C ,  9-C ) :   1.0731
B(  9-C , 10-H ) :   0.9504 B(  9-C , 11-H ) :   0.9542 B(  9-C , 12-C ) :   1.0799
B( 12-C , 13-H ) :   0.9726 B( 12-C , 14-H ) :   0.9743 B( 12-C , 15-H ) :   0.9663
B( 16-S , 17-C ) :   1.1555 B( 16-S , 20-C ) :   1.1543 B( 17-C , 18-C ) :   1.6431
B( 17-C , 33-H ) :   0.9633 B( 18-C , 19-C ) :   1.2106 B( 18-C , 21-H ) :   0.9997
B( 19-C , 20-C ) :   1.6217 B( 19-C , 22-C ) :   1.0430 B( 22-C , 23-H ) :   0.9363
B( 22-C , 24-H ) :   0.9370 B( 22-C , 25-C ) :   1.0422 B( 25-C , 26-H ) :   0.9489
B( 25-C , 27-H ) :   0.9555 B( 25-C , 28-C ) :   1.0968 B( 28-C , 29-H ) :   0.9720
B( 28-C , 30-H ) :   0.9718 B( 28-C , 31-H ) :   0.9690

Dispersion correction           -0.014740010
FINAL SINGLE POINT ENERGY     -1339.861006822543

DIPOLE MOMENT
-------------
                                X             Y             Z
Electronic contribution:     19.06854       8.00706      -9.53510
Nuclear contribution   :    -19.29064      -8.03276       9.34421
                        -----------------------------------------
Total Dipole Moment    :     -0.22210      -0.02570      -0.19089
                        -----------------------------------------
Magnitude (a.u.)       :      0.29398
Magnitude (Debye)      :      0.74725

Rotational constants in cm-1:     0.018048     0.009147     0.007717
Rotational constants in MHz :   541.065184   274.210184   231.348855

                             ****ORCA TERMINATED NORMALLY****
TOTAL RUN TIME: 0 days 0 hours 0 minutes 20 seconds 928 msec
