                         Program Version 4.2.1 -  RELEASE  -
|  1> ! wB97X-D3 SP def2-SVP
|  2> %pal
|  3> nprocs 24
|  4> end
|  5>
|  6> * xyz 0 1
|  7> S 	 -131.955 	 2.87077 	 2.17687
|  8> C 	 -130.878 	 1.72619 	 1.33388
|  9> C 	 -129.911 	 1.26749 	 2.25161
| 10> C 	 -130.16 	 1.71894 	 3.56417
| 11> C 	 -131.264 	 2.53246 	 3.74222
| 12> H 	 -129.569 	 1.55727 	 4.45245
| 13> C 	 -128.813 	 0.228791 	 2.07835
| 14> H 	 -127.864 	 0.679113 	 2.2732
| 15> H 	 -128.847 	 -0.167577 	 1.08119
| 16> C 	 -129.071 	 -1.06657 	 2.84554
| 17> H 	 -128.491 	 -1.15725 	 3.79114
| 18> H 	 -130.236 	 -1.10656 	 2.89539
| 19> C 	 -128.671 	 -2.32156 	 2.07579
| 20> H 	 -129.391 	 -2.55455 	 1.31709
| 21> H 	 -127.649 	 -2.1963 	 1.64295
| 22> H 	 -128.784 	 -3.27554 	 2.64695
| 23> S 	 -132.05 	 5.07949 	 4.61133
| 24> C 	 -132.089 	 5.30963 	 6.29571
| 25> C 	 -132.153 	 4.1293 	 7.05158
| 26> C 	 -131.843 	 3.01823 	 6.23239
| 27> C 	 -131.777 	 3.32838 	 4.86886
| 28> H 	 -132.248 	 4.10632 	 8.08251
| 29> C 	 -131.491 	 1.73376 	 6.86022
| 30> H 	 -131.557 	 1.85842 	 7.92531
| 31> H 	 -130.485 	 1.41308 	 6.65424
| 32> C 	 -132.541 	 0.695602 	 6.41166
| 33> H 	 -132.363 	 0.344841 	 5.39738
| 34> H 	 -133.538 	 1.2301 	 6.5371
| 35> C 	 -132.658 	 -0.495313 	 7.30111
| 36> H 	 -132.611 	 -0.274498 	 8.39001
| 37> H 	 -131.809 	 -1.14034 	 7.02818
| 38> H 	 -133.594 	 -0.995393 	 6.98083
| 39> H 	 -130.916 	 1.40747 	 0.233294
| 40> H 	 -132.24 	 6.26823 	 6.72906
| 41> *
| 42>
| 43>                          ****END OF INPUT****

CARTESIAN COORDINATES (ANGSTROEM)
---------------------------------
  S    -131.955000    2.870770    2.176870
  C    -130.878000    1.726190    1.333880
  C    -129.911000    1.267490    2.251610
  C    -130.160000    1.718940    3.564170
  C    -131.264000    2.532460    3.742220
  H    -129.569000    1.557270    4.452450
  C    -128.813000    0.228791    2.078350
  H    -127.864000    0.679113    2.273200
  H    -128.847000   -0.167577    1.081190
  C    -129.071000   -1.066570    2.845540
  H    -128.491000   -1.157250    3.791140
  H    -130.236000   -1.106560    2.895390
  C    -128.671000   -2.321560    2.075790
  H    -129.391000   -2.554550    1.317090
  H    -127.649000   -2.196300    1.642950
  H    -128.784000   -3.275540    2.646950
  S    -132.050000    5.079490    4.611330
  C    -132.089000    5.309630    6.295710
  C    -132.153000    4.129300    7.051580
  C    -131.843000    3.018230    6.232390
  C    -131.777000    3.328380    4.868860
  H    -132.248000    4.106320    8.082510
  C    -131.491000    1.733760    6.860220
  H    -131.557000    1.858420    7.925310
  H    -130.485000    1.413080    6.654240
  C    -132.541000    0.695602    6.411660
  H    -132.363000    0.344841    5.397380
  H    -133.538000    1.230100    6.537100
  C    -132.658000   -0.495313    7.301110
  H    -132.611000   -0.274498    8.390010
  H    -131.809000   -1.140340    7.028180
  H    -133.594000   -0.995393    6.980830
  H    -130.916000    1.407470    0.233294
  H    -132.240000    6.268230    6.729060

 Total Charge           Charge          ....    0
 Multiplicity           Mult            ....    1
 Number of Electrons    NEL             ....  134
 Basis Dimension        Dim             ....  322

ORBITAL ENERGIES
----------------

  NO   OCC          E(Eh)            E(eV)
   0   2.0000     -88.970368     -2421.0068
   1   2.0000     -88.962980     -2420.8058
   2   2.0000     -10.330284      -281.1013
   3   2.0000     -10.327529      -281.0263
   4   2.0000     -10.325172      -280.9622
   5   2.0000     -10.316988      -280.7395
   6   2.0000     -10.303460      -280.3714
   7   2.0000     -10.301211      -280.3102
   8   2.0000     -10.294667      -280.1321
   9   2.0000     -10.290927      -280.0304
  10   2.0000     -10.289153      -279.9821
  11   2.0000     -10.288539      -279.9654
  12   2.0000     -10.285765      -279.8899
  13   2.0000     -10.282273      -279.7949
  14   2.0000     -10.281037      -279.7612
  15   2.0000     -10.276172      -279.6289
  16   2.0000      -8.085210      -220.0097
  17   2.0000      -8.077335      -219.7955
  18   2.0000      -6.043633      -164.4556
  19   2.0000      -6.039752      -164.3500
  20   2.0000      -6.035993      -164.2477
  21   2.0000      -6.035927      -164.2459
  22   2.0000      -6.031828      -164.1344
  23   2.0000      -6.028109      -164.0332
  24   2.0000      -1.006326       -27.3835
  25   2.0000      -0.983764       -26.7696
  26   2.0000      -0.918677       -24.9985
  27   2.0000      -0.915585       -24.9143
  28   2.0000      -0.865925       -23.5630
  29   2.0000      -0.859561       -23.3898
  30   2.0000      -0.842739       -22.9321
  31   2.0000      -0.811367       -22.0784
  32   2.0000      -0.785533       -21.3754
  33   2.0000      -0.770489       -20.9661
  34   2.0000      -0.701370       -19.0853
  35   2.0000      -0.690237       -18.7823
  36   2.0000      -0.681477       -18.5439
  37   2.0000      -0.666803       -18.1446
  38   2.0000      -0.641226       -17.4486
  39   2.0000      -0.619790       -16.8654
  40   2.0000      -0.602509       -16.3951
  41   2.0000      -0.581491       -15.8232
  42   2.0000      -0.573987       -15.6190
  43   2.0000      -0.559661       -15.2291
  44   2.0000      -0.531314       -14.4578
  45   2.0000      -0.527035       -14.3414
  46   2.0000      -0.515882       -14.0379
  47   2.0000      -0.511322       -13.9138
  48   2.0000      -0.504581       -13.7304
  49   2.0000      -0.499524       -13.5927
  50   2.0000      -0.490734       -13.3536
  51   2.0000      -0.480756       -13.0820
  52   2.0000      -0.474282       -12.9059
  53   2.0000      -0.464162       -12.6305
  54   2.0000      -0.455827       -12.4037
  55   2.0000      -0.453187       -12.3318
  56   2.0000      -0.446166       -12.1408
  57   2.0000      -0.433954       -11.8085
  58   2.0000      -0.425592       -11.5810
  59   2.0000      -0.422460       -11.4957
  60   2.0000      -0.414988       -11.2924
  61   2.0000      -0.411201       -11.1894
  62   2.0000      -0.407965       -11.1013
  63   2.0000      -0.348896        -9.4939
  64   2.0000      -0.333788        -9.0828
  65   2.0000      -0.328600        -8.9416
  66   2.0000      -0.283127        -7.7043
  67   0.0000       0.026385         0.7180
  68   0.0000       0.062212         1.6929
  69   0.0000       0.106986         2.9112
  70   0.0000       0.120520         3.2795
  71   0.0000       0.127929         3.4811

MULLIKEN ATOMIC CHARGES
-----------------------
   0 S :    0.078819
   1 C :   -0.144515
   2 C :   -0.112218
   3 C :    0.025709
   4 C :   -0.143835
   5 H :    0.001070
   6 C :    0.122597
   7 H :    0.036759
   8 H :   -0.000256
   9 C :   -0.124116
  10 H :    0.041531
  11 H :    0.056436
  12 C :   -0.077488
  13 H :    0.022147
  14 H :    0.045746
  15 H :    0.037236
  16 S :    0.124240
  17 C :   -0.079237
  18 C :   -0.004241
  19 C :   -0.072181
  20 C :   -0.120594
  21 H :   -0.005635
  22 C :    0.116462
  23 H :   -0.002741
  24 H :    0.028315
  25 C :   -0.130625
  26 H :    0.051443
  27 H :    0.039879
  28 C :   -0.040670
  29 H :    0.036035
  30 H :    0.024234
  31 H :    0.042651
  32 H :    0.079531
  33 H :    0.047513
Sum of atomic charges:    0.0000000

LOEWDIN ATOMIC CHARGES
----------------------
   0 S :    0.389731
   1 C :   -0.209554
   2 C :   -0.065364
   3 C :   -0.074357
   4 C :   -0.182216
   5 H :    0.028367
   6 C :   -0.030642
   7 H :    0.030754
   8 H :    0.027392
   9 C :   -0.051166
  10 H :    0.026641
  11 H :    0.041829
  12 C :   -0.079801
  13 H :    0.019423
  14 H :    0.028542
  15 H :    0.032543
  16 S :    0.420371
  17 C :   -0.181817
  18 C :   -0.063640
  19 C :   -0.043375
  20 C :   -0.203609
  21 H :    0.019928
  22 C :   -0.027976
  23 H :    0.025624
  24 H :    0.027005
  25 C :   -0.041668
  26 H :    0.028051
  27 H :    0.031244
  28 C :   -0.072290
  29 H :    0.024838
  30 H :    0.023805
  31 H :    0.032314
  32 H :    0.048599
  33 H :    0.020475

  Mayer bond orders larger than 0.100000
B(  0-S ,  1-C ) :   1.1312 B(  0-S ,  4-C ) :   1.1520 B(  1-C ,  2-C ) :   1.5990
B(  1-C ,  4-C ) :   0.1070 B(  1-C , 32-H ) :   0.9583 B(  2-C ,  3-C ) :   1.2369
B(  2-C ,  6-C ) :   1.0445 B(  3-C ,  4-C ) :   1.5713 B(  3-C ,  5-H ) :   0.9948
B(  4-C , 20-C ) :   1.0352 B(  6-C ,  7-H ) :   0.9288 B(  6-C ,  8-H ) :   0.9409
B(  6-C ,  9-C ) :   1.0459 B(  9-C , 10-H ) :   0.9525 B(  9-C , 11-H ) :   0.9585
B(  9-C , 12-C ) :   1.0933 B( 12-C , 13-H ) :   0.9693 B( 12-C , 14-H ) :   0.9729
B( 12-C , 15-H ) :   0.9722 B( 16-S , 17-C ) :   1.1967 B( 16-S , 20-C ) :   1.1217
B( 17-C , 18-C ) :   1.5676 B( 17-C , 20-C ) :   0.1001 B( 17-C , 33-H ) :   0.9669
B( 18-C , 19-C ) :   1.2678 B( 18-C , 21-H ) :   0.9990 B( 19-C , 20-C ) :   1.5770
B( 19-C , 22-C ) :   1.0619 B( 22-C , 23-H ) :   0.9257 B( 22-C , 24-H ) :   0.9240
B( 22-C , 25-C ) :   1.0538 B( 25-C , 26-H ) :   0.9515 B( 25-C , 27-H ) :   0.9613
B( 25-C , 28-C ) :   1.0928 B( 28-C , 29-H ) :   0.9733 B( 28-C , 30-H ) :   0.9693
B( 28-C , 31-H ) :   0.9738

Dispersion correction           -0.014299074
FINAL SINGLE POINT ENERGY     -1339.856291344953

DIPOLE MOMENT
-------------
                                X             Y             Z
Electronic contribution:     -8.53213      29.31688      -7.14951
Nuclear contribution   :      8.88457     -29.74099       7.56172
                        -----------------------------------------
Total Dipole Moment    :      0.35244      -0.42410       0.41221
                        -----------------------------------------
Magnitude (a.u.)       :      0.68847
Magnitude (Debye)      :      1.74996

Rotational constants in cm-1:     0.018430     0.009225     0.006816
Rotational constants in MHz :   552.506152   276.565614   204.328967

                             ****ORCA TERMINATED NORMALLY****
TOTAL RUN TIME: 0 days 0 hours 0 minutes 22 seconds 169 msec
