                         Program Version 4.2.1 -  RELEASE  -
|  1> ! wB97X-D3 SP def2-SVP
|  2> %pal
|  3> nprocs 24
|  4> end
|  5>
|  6> * xyz 0 1
|  7> S 	 -126.154 	 57.267 	 -58.1935
|  8> C 	 -125.905 	 56.7625 	 -59.838
|  9> C 	 -126.482 	 55.5926 	 -60.0906
| 10> C 	 -127.443 	 55.1956 	 -59.0717
| 11> C 	 -127.383 	 56.065 	 -57.9877
| 12> H 	 -128.083 	 54.3437 	 -59.1466
| 13> C 	 -126.281 	 54.8745 	 -61.4001
| 14> H 	 -125.297 	 54.5197 	 -61.4818
| 15> H 	 -126.421 	 55.7024 	 -62.1615
| 16> C 	 -127.224 	 53.7662 	 -61.7532
| 17> H 	 -128.268 	 54.0281 	 -61.6074
| 18> H 	 -127.197 	 53.7333 	 -62.8631
| 19> C 	 -126.856 	 52.4446 	 -61.0582
| 20> H 	 -127.458 	 51.6037 	 -61.3226
| 21> H 	 -125.814 	 52.1771 	 -61.2119
| 22> H 	 -127.01 	 52.4977 	 -59.9696
| 23> S 	 -127.453 	 55.422 	 -55.3092
| 24> C 	 -129.037 	 55.5817 	 -54.4204
| 25> C 	 -130.013 	 55.9918 	 -55.2481
| 26> C 	 -129.488 	 56.2906 	 -56.5526
| 27> C 	 -128.156 	 56.0584 	 -56.7647
| 28> H 	 -131.046 	 56.0132 	 -54.8909
| 29> C 	 -130.463 	 56.8284 	 -57.6625
| 30> H 	 -131.521 	 56.7732 	 -57.2573
| 31> H 	 -130.455 	 56.0693 	 -58.4522
| 32> C 	 -130.152 	 58.1603 	 -58.4388
| 33> H 	 -129.16 	 58.1998 	 -58.784
| 34> H 	 -130.271 	 58.8959 	 -57.6815
| 35> C 	 -131.132 	 58.5251 	 -59.5446
| 36> H 	 -131.992 	 59.0623 	 -59.1007
| 37> H 	 -131.386 	 57.6472 	 -60.079
| 38> H 	 -130.624 	 59.081 	 -60.3178
| 39> H 	 -125.301 	 57.1989 	 -60.5816
| 40> H 	 -129.167 	 55.2563 	 -53.3439
| 41> *
| 42>
| 43>                          ****END OF INPUT****

CARTESIAN COORDINATES (ANGSTROEM)
---------------------------------
  S    -126.154000   57.267000  -58.193500
  C    -125.905000   56.762500  -59.838000
  C    -126.482000   55.592600  -60.090600
  C    -127.443000   55.195600  -59.071700
  C    -127.383000   56.065000  -57.987700
  H    -128.083000   54.343700  -59.146600
  C    -126.281000   54.874500  -61.400100
  H    -125.297000   54.519700  -61.481800
  H    -126.421000   55.702400  -62.161500
  C    -127.224000   53.766200  -61.753200
  H    -128.268000   54.028100  -61.607400
  H    -127.197000   53.733300  -62.863100
  C    -126.856000   52.444600  -61.058200
  H    -127.458000   51.603700  -61.322600
  H    -125.814000   52.177100  -61.211900
  H    -127.010000   52.497700  -59.969600
  S    -127.453000   55.422000  -55.309200
  C    -129.037000   55.581700  -54.420400
  C    -130.013000   55.991800  -55.248100
  C    -129.488000   56.290600  -56.552600
  C    -128.156000   56.058400  -56.764700
  H    -131.046000   56.013200  -54.890900
  C    -130.463000   56.828400  -57.662500
  H    -131.521000   56.773200  -57.257300
  H    -130.455000   56.069300  -58.452200
  C    -130.152000   58.160300  -58.438800
  H    -129.160000   58.199800  -58.784000
  H    -130.271000   58.895900  -57.681500
  C    -131.132000   58.525100  -59.544600
  H    -131.992000   59.062300  -59.100700
  H    -131.386000   57.647200  -60.079000
  H    -130.624000   59.081000  -60.317800
  H    -125.301000   57.198900  -60.581600
  H    -129.167000   55.256300  -53.343900

 Total Charge           Charge          ....    0
 Multiplicity           Mult            ....    1
 Number of Electrons    NEL             ....  134
 Basis Dimension        Dim             ....  322

ORBITAL ENERGIES
----------------

  NO   OCC          E(Eh)            E(eV)
   0   2.0000     -88.965198     -2420.8661
   1   2.0000     -88.959926     -2420.7226
   2   2.0000     -10.329438      -281.0783
   3   2.0000     -10.323308      -280.9115
   4   2.0000     -10.321203      -280.8542
   5   2.0000     -10.303971      -280.3853
   6   2.0000     -10.301755      -280.3250
   7   2.0000     -10.297847      -280.2187
   8   2.0000     -10.294890      -280.1382
   9   2.0000     -10.294120      -280.1173
  10   2.0000     -10.293904      -280.1114
  11   2.0000     -10.290093      -280.0077
  12   2.0000     -10.289471      -279.9907
  13   2.0000     -10.279247      -279.7125
  14   2.0000     -10.272221      -279.5214
  15   2.0000     -10.270349      -279.4704
  16   2.0000      -8.080351      -219.8775
  17   2.0000      -8.074296      -219.7128
  18   2.0000      -6.038833      -164.3250
  19   2.0000      -6.034872      -164.2172
  20   2.0000      -6.032958      -164.1651
  21   2.0000      -6.031027      -164.1126
  22   2.0000      -6.028940      -164.0558
  23   2.0000      -6.024806      -163.9433
  24   2.0000      -1.009948       -27.4821
  25   2.0000      -0.985408       -26.8143
  26   2.0000      -0.920004       -25.0346
  27   2.0000      -0.895459       -24.3667
  28   2.0000      -0.877194       -23.8697
  29   2.0000      -0.844563       -22.9817
  30   2.0000      -0.843189       -22.9443
  31   2.0000      -0.822235       -22.3741
  32   2.0000      -0.786831       -21.4108
  33   2.0000      -0.766070       -20.8458
  34   2.0000      -0.716765       -19.5042
  35   2.0000      -0.698047       -18.9948
  36   2.0000      -0.687853       -18.7174
  37   2.0000      -0.657925       -17.9031
  38   2.0000      -0.641875       -17.4663
  39   2.0000      -0.626075       -17.0364
  40   2.0000      -0.587676       -15.9915
  41   2.0000      -0.577627       -15.7180
  42   2.0000      -0.567022       -15.4295
  43   2.0000      -0.554672       -15.0934
  44   2.0000      -0.530572       -14.4376
  45   2.0000      -0.523088       -14.2339
  46   2.0000      -0.515010       -14.0141
  47   2.0000      -0.508580       -13.8392
  48   2.0000      -0.502446       -13.6722
  49   2.0000      -0.501144       -13.6368
  50   2.0000      -0.492894       -13.4123
  51   2.0000      -0.484165       -13.1748
  52   2.0000      -0.478810       -13.0291
  53   2.0000      -0.466340       -12.6897
  54   2.0000      -0.459872       -12.5138
  55   2.0000      -0.447257       -12.1705
  56   2.0000      -0.442485       -12.0406
  57   2.0000      -0.441204       -12.0058
  58   2.0000      -0.429764       -11.6945
  59   2.0000      -0.424075       -11.5397
  60   2.0000      -0.414217       -11.2714
  61   2.0000      -0.411072       -11.1858
  62   2.0000      -0.408772       -11.1233
  63   2.0000      -0.342865        -9.3298
  64   2.0000      -0.329267        -8.9598
  65   2.0000      -0.323025        -8.7900
  66   2.0000      -0.303693        -8.2639
  67   0.0000       0.043292         1.1780
  68   0.0000       0.057359         1.5608
  69   0.0000       0.110320         3.0020
  70   0.0000       0.121009         3.2928
  71   0.0000       0.132295         3.5999

MULLIKEN ATOMIC CHARGES
-----------------------
   0 S :    0.125299
   1 C :   -0.106405
   2 C :   -0.092099
   3 C :    0.064769
   4 C :   -0.187922
   5 H :    0.009192
   6 C :    0.054886
   7 H :    0.026441
   8 H :    0.040087
   9 C :   -0.068480
  10 H :    0.021883
  11 H :    0.028094
  12 C :   -0.040008
  13 H :    0.029350
  14 H :    0.030215
  15 H :    0.029395
  16 S :    0.085603
  17 C :   -0.125059
  18 C :   -0.018718
  19 C :   -0.031602
  20 C :   -0.136127
  21 H :    0.031493
  22 C :    0.037742
  23 H :    0.020683
  24 H :    0.015344
  25 C :   -0.038059
  26 H :    0.024324
  27 H :    0.017750
  28 C :   -0.029117
  29 H :    0.045510
  30 H :    0.010906
  31 H :    0.025943
  32 H :    0.019284
  33 H :    0.079405
Sum of atomic charges:   -0.0000000

LOEWDIN ATOMIC CHARGES
----------------------
   0 S :    0.420417
   1 C :   -0.195117
   2 C :   -0.063099
   3 C :   -0.051326
   4 C :   -0.196315
   5 H :    0.027941
   6 C :   -0.032445
   7 H :    0.025858
   8 H :    0.042791
   9 C :   -0.048112
  10 H :    0.022605
  11 H :    0.031223
  12 C :   -0.065357
  13 H :    0.023677
  14 H :    0.026113
  15 H :    0.027690
  16 S :    0.373187
  17 C :   -0.165470
  18 C :   -0.076078
  19 C :   -0.054711
  20 C :   -0.212828
  21 H :    0.040565
  22 C :   -0.036613
  23 H :    0.030104
  24 H :    0.023650
  25 C :   -0.034855
  26 H :    0.016403
  27 H :    0.019237
  28 C :   -0.061248
  29 H :    0.031918
  30 H :    0.017497
  31 H :    0.028790
  32 H :    0.021225
  33 H :    0.042681

  Mayer bond orders larger than 0.100000
B(  0-S ,  1-C ) :   1.1187 B(  0-S ,  4-C ) :   1.1577 B(  1-C ,  2-C ) :   1.6715
B(  1-C , 32-H ) :   0.9747 B(  2-C ,  3-C ) :   1.2123 B(  2-C ,  6-C ) :   1.0039
B(  3-C ,  4-C ) :   1.5901 B(  3-C ,  5-H ) :   0.9952 B(  4-C , 20-C ) :   1.0008
B(  6-C ,  7-H ) :   0.9316 B(  6-C ,  8-H ) :   0.9426 B(  6-C ,  9-C ) :   1.0941
B(  9-C , 10-H ) :   0.9499 B(  9-C , 11-H ) :   0.9509 B(  9-C , 12-C ) :   1.0665
B( 12-C , 13-H ) :   0.9730 B( 12-C , 14-H ) :   0.9740 B( 12-C , 15-H ) :   0.9753
B( 16-S , 17-C ) :   1.1351 B( 16-S , 20-C ) :   1.1253 B( 17-C , 18-C ) :   1.6461
B( 17-C , 33-H ) :   0.9567 B( 18-C , 19-C ) :   1.2129 B( 18-C , 21-H ) :   0.9905
B( 19-C , 20-C ) :   1.6466 B( 19-C , 22-C ) :   1.0293 B( 22-C , 23-H ) :   0.9454
B( 22-C , 24-H ) :   0.9293 B( 22-C , 25-C ) :   1.0555 B( 25-C , 26-H ) :   0.9554
B( 25-C , 27-H ) :   0.9597 B( 25-C , 28-C ) :   1.0862 B( 28-C , 29-H ) :   0.9789
B( 28-C , 30-H ) :   0.9732 B( 28-C , 31-H ) :   0.9724

Dispersion correction           -0.014752314
FINAL SINGLE POINT ENERGY     -1339.867314629155

DIPOLE MOMENT
-------------
                                X             Y             Z
Electronic contribution:     12.47210       4.24475      21.43425
Nuclear contribution   :    -12.83949      -4.52471     -21.98348
                        -----------------------------------------
Total Dipole Moment    :     -0.36738      -0.27996      -0.54923
                        -----------------------------------------
Magnitude (a.u.)       :      0.71764
Magnitude (Debye)      :      1.82408

Rotational constants in cm-1:     0.016788     0.009282     0.008017
Rotational constants in MHz :   503.304410   278.276598   240.352935

                             ****ORCA TERMINATED NORMALLY****
TOTAL RUN TIME: 0 days 0 hours 0 minutes 22 seconds 316 msec
