                         Program Version 4.2.1 -  RELEASE  -
|  1> ! wB97X-D3 SP def2-SVP
|  2> %pal
|  3> nprocs 24
|  4> end
|  5>
|  6> * xyz 0 1
|  7> S 	 -111.638 	 61.4717 	 -67.6
|  8> C 	 -111.87 	 60.1994 	 -66.5384
|  9> C 	 -112.457 	 60.5261 	 -65.3351
| 10> C 	 -112.689 	 61.9748 	 -65.3605
| 11> C 	 -112.343 	 62.589 	 -66.549
| 12> H 	 -112.901 	 62.5847 	 -64.4445
| 13> C 	 -112.729 	 59.6453 	 -64.1497
| 14> H 	 -112.233 	 59.9952 	 -63.2585
| 15> H 	 -112.278 	 58.6895 	 -64.4078
| 16> C 	 -114.14 	 59.567 	 -63.6725
| 17> H 	 -114.385 	 60.5788 	 -63.4099
| 18> H 	 -114.793 	 59.2821 	 -64.5937
| 19> C 	 -114.373 	 58.537 	 -62.5507
| 20> H 	 -113.951 	 57.5982 	 -62.7133
| 21> H 	 -114.074 	 59.0071 	 -61.5704
| 22> H 	 -115.401 	 58.3359 	 -62.3319
| 23> S 	 -110.869 	 64.7532 	 -67.2212
| 24> C 	 -111.54 	 66.3448 	 -67.3162
| 25> C 	 -112.921 	 66.1949 	 -67.344
| 26> C 	 -113.475 	 64.8499 	 -67.0878
| 27> C 	 -112.386 	 63.9947 	 -66.9451
| 28> H 	 -113.517 	 67.0734 	 -67.4953
| 29> C 	 -114.936 	 64.6152 	 -66.8612
| 30> H 	 -115.258 	 64.8917 	 -65.8923
| 31> H 	 -115.078 	 63.5617 	 -66.9512
| 32> C 	 -115.857 	 65.2782 	 -67.9218
| 33> H 	 -115.827 	 66.369 	 -67.7653
| 34> H 	 -116.866 	 64.9439 	 -67.6214
| 35> C 	 -115.441 	 64.9102 	 -69.3703
| 36> H 	 -115.266 	 63.8397 	 -69.4378
| 37> H 	 -114.628 	 65.526 	 -69.5963
| 38> H 	 -116.171 	 65.2403 	 -70.0963
| 39> H 	 -111.47 	 59.2433 	 -66.8229
| 40> H 	 -111.035 	 67.2628 	 -67.4357
| 41> *
| 42>
| 43>                          ****END OF INPUT****

CARTESIAN COORDINATES (ANGSTROEM)
---------------------------------
  S    -111.638000   61.471700  -67.600000
  C    -111.870000   60.199400  -66.538400
  C    -112.457000   60.526100  -65.335100
  C    -112.689000   61.974800  -65.360500
  C    -112.343000   62.589000  -66.549000
  H    -112.901000   62.584700  -64.444500
  C    -112.729000   59.645300  -64.149700
  H    -112.233000   59.995200  -63.258500
  H    -112.278000   58.689500  -64.407800
  C    -114.140000   59.567000  -63.672500
  H    -114.385000   60.578800  -63.409900
  H    -114.793000   59.282100  -64.593700
  C    -114.373000   58.537000  -62.550700
  H    -113.951000   57.598200  -62.713300
  H    -114.074000   59.007100  -61.570400
  H    -115.401000   58.335900  -62.331900
  S    -110.869000   64.753200  -67.221200
  C    -111.540000   66.344800  -67.316200
  C    -112.921000   66.194900  -67.344000
  C    -113.475000   64.849900  -67.087800
  C    -112.386000   63.994700  -66.945100
  H    -113.517000   67.073400  -67.495300
  C    -114.936000   64.615200  -66.861200
  H    -115.258000   64.891700  -65.892300
  H    -115.078000   63.561700  -66.951200
  C    -115.857000   65.278200  -67.921800
  H    -115.827000   66.369000  -67.765300
  H    -116.866000   64.943900  -67.621400
  C    -115.441000   64.910200  -69.370300
  H    -115.266000   63.839700  -69.437800
  H    -114.628000   65.526000  -69.596300
  H    -116.171000   65.240300  -70.096300
  H    -111.470000   59.243300  -66.822900
  H    -111.035000   67.262800  -67.435700

 Total Charge           Charge          ....    0
 Multiplicity           Mult            ....    1
 Number of Electrons    NEL             ....  134
 Basis Dimension        Dim             ....  322

ORBITAL ENERGIES
----------------

  NO   OCC          E(Eh)            E(eV)
   0   2.0000     -88.962088     -2420.7815
   1   2.0000     -88.961736     -2420.7719
   2   2.0000     -10.323360      -280.9129
   3   2.0000     -10.320884      -280.8455
   4   2.0000     -10.313700      -280.6501
   5   2.0000     -10.306911      -280.4653
   6   2.0000     -10.305204      -280.4189
   7   2.0000     -10.302637      -280.3490
   8   2.0000     -10.297238      -280.2021
   9   2.0000     -10.293317      -280.0954
  10   2.0000     -10.290246      -280.0118
  11   2.0000     -10.289075      -279.9800
  12   2.0000     -10.287479      -279.9365
  13   2.0000     -10.284738      -279.8620
  14   2.0000     -10.278251      -279.6854
  15   2.0000     -10.269950      -279.4595
  16   2.0000      -8.079522      -219.8550
  17   2.0000      -8.077783      -219.8077
  18   2.0000      -6.037764      -164.2959
  19   2.0000      -6.036391      -164.2585
  20   2.0000      -6.033478      -164.1793
  21   2.0000      -6.032029      -164.1399
  22   2.0000      -6.030506      -164.0984
  23   2.0000      -6.028497      -164.0437
  24   2.0000      -1.016199       -27.6522
  25   2.0000      -0.989456       -26.9245
  26   2.0000      -0.919566       -25.0227
  27   2.0000      -0.910428       -24.7740
  28   2.0000      -0.871398       -23.7119
  29   2.0000      -0.849724       -23.1222
  30   2.0000      -0.840368       -22.8676
  31   2.0000      -0.814503       -22.1638
  32   2.0000      -0.788276       -21.4501
  33   2.0000      -0.779653       -21.2154
  34   2.0000      -0.708894       -19.2900
  35   2.0000      -0.698207       -18.9992
  36   2.0000      -0.688666       -18.7396
  37   2.0000      -0.655195       -17.8288
  38   2.0000      -0.646482       -17.5917
  39   2.0000      -0.619608       -16.8604
  40   2.0000      -0.600606       -16.3433
  41   2.0000      -0.576495       -15.6872
  42   2.0000      -0.561851       -15.2888
  43   2.0000      -0.561300       -15.2737
  44   2.0000      -0.534793       -14.5525
  45   2.0000      -0.527025       -14.3411
  46   2.0000      -0.520699       -14.1689
  47   2.0000      -0.514957       -14.0127
  48   2.0000      -0.504992       -13.7415
  49   2.0000      -0.499220       -13.5845
  50   2.0000      -0.489618       -13.3232
  51   2.0000      -0.478746       -13.0273
  52   2.0000      -0.472067       -12.8456
  53   2.0000      -0.468271       -12.7423
  54   2.0000      -0.463121       -12.6022
  55   2.0000      -0.450501       -12.2587
  56   2.0000      -0.439626       -11.9628
  57   2.0000      -0.438797       -11.9403
  58   2.0000      -0.433237       -11.7890
  59   2.0000      -0.428959       -11.6726
  60   2.0000      -0.420516       -11.4428
  61   2.0000      -0.414513       -11.2795
  62   2.0000      -0.407683       -11.0936
  63   2.0000      -0.341811        -9.3012
  64   2.0000      -0.327680        -8.9166
  65   2.0000      -0.322318        -8.7707
  66   2.0000      -0.301163        -8.1951
  67   0.0000       0.045632         1.2417
  68   0.0000       0.070980         1.9315
  69   0.0000       0.115024         3.1300
  70   0.0000       0.120306         3.2737
  71   0.0000       0.136663         3.7188

MULLIKEN ATOMIC CHARGES
-----------------------
   0 S :    0.128137
   1 C :   -0.126417
   2 C :   -0.084047
   3 C :    0.010459
   4 C :   -0.183051
   5 H :    0.034034
   6 C :    0.104590
   7 H :    0.021051
   8 H :    0.008923
   9 C :   -0.113516
  10 H :    0.025608
  11 H :    0.036859
  12 C :   -0.010791
  13 H :    0.024842
  14 H :    0.030102
  15 H :    0.023955
  16 S :    0.115666
  17 C :   -0.074349
  18 C :   -0.051929
  19 C :   -0.026650
  20 C :   -0.177092
  21 H :    0.007961
  22 C :    0.119175
  23 H :    0.030830
  24 H :    0.017498
  25 C :   -0.125144
  26 H :    0.030263
  27 H :    0.030383
  28 C :   -0.004789
  29 H :    0.042847
  30 H :    0.023208
  31 H :    0.028243
  32 H :    0.039159
  33 H :    0.043982
Sum of atomic charges:   -0.0000000

LOEWDIN ATOMIC CHARGES
----------------------
   0 S :    0.462396
   1 C :   -0.214785
   2 C :   -0.061206
   3 C :   -0.069367
   4 C :   -0.224515
   5 H :    0.037754
   6 C :   -0.035220
   7 H :    0.031613
   8 H :    0.026926
   9 C :   -0.042496
  10 H :    0.020360
  11 H :    0.029574
  12 C :   -0.062309
  13 H :    0.018381
  14 H :    0.033052
  15 H :    0.026128
  16 S :    0.423809
  17 C :   -0.191087
  18 C :   -0.068118
  19 C :   -0.051760
  20 C :   -0.213926
  21 H :    0.020596
  22 C :   -0.026519
  23 H :    0.029146
  24 H :    0.028427
  25 C :   -0.037089
  26 H :    0.019653
  27 H :    0.023880
  28 C :   -0.057755
  29 H :    0.029721
  30 H :    0.021685
  31 H :    0.026862
  32 H :    0.020709
  33 H :    0.025478

  Mayer bond orders larger than 0.100000
B(  0-S ,  1-C ) :   1.1734 B(  0-S ,  4-C ) :   1.1857 B(  1-C ,  2-C ) :   1.5970
B(  1-C , 32-H ) :   0.9678 B(  2-C ,  3-C ) :   1.2368 B(  2-C ,  6-C ) :   1.0400
B(  3-C ,  4-C ) :   1.5917 B(  3-C ,  5-H ) :   0.9840 B(  4-C , 20-C ) :   0.9880
B(  6-C ,  7-H ) :   0.9325 B(  6-C ,  8-H ) :   0.9362 B(  6-C ,  9-C ) :   1.0508
B(  9-C , 10-H ) :   0.9572 B(  9-C , 11-H ) :   0.9564 B(  9-C , 12-C ) :   1.0838
B( 12-C , 13-H ) :   0.9757 B( 12-C , 14-H ) :   0.9705 B( 12-C , 15-H ) :   0.9732
B( 16-S , 17-C ) :   1.1415 B( 16-S , 20-C ) :   1.1693 B( 17-C , 18-C ) :   1.6209
B( 17-C , 33-H ) :   0.9774 B( 18-C , 19-C ) :   1.2069 B( 18-C , 21-H ) :   0.9858
B( 19-C , 20-C ) :   1.5937 B( 19-C , 22-C ) :   1.0464 B( 22-C , 23-H ) :   0.9347
B( 22-C , 24-H ) :   0.9220 B( 22-C , 25-C ) :   1.0731 B( 25-C , 26-H ) :   0.9551
B( 25-C , 27-H ) :   0.9590 B( 25-C , 28-C ) :   1.0734 B( 28-C , 29-H ) :   0.9777
B( 28-C , 30-H ) :   0.9668 B( 28-C , 31-H ) :   0.9717

Dispersion correction           -0.013958134
FINAL SINGLE POINT ENERGY     -1339.876527310665

DIPOLE MOMENT
-------------
                                X             Y             Z
Electronic contribution:     21.45617       6.94246     -10.08847
Nuclear contribution   :    -21.85838      -6.93638      10.45985
                        -----------------------------------------
Total Dipole Moment    :     -0.40221       0.00608       0.37138
                        -----------------------------------------
Magnitude (a.u.)       :      0.54748
Magnitude (Debye)      :      1.39158

Rotational constants in cm-1:     0.020528     0.007616     0.006542
Rotational constants in MHz :   615.420435   228.335108   196.115211

                             ****ORCA TERMINATED NORMALLY****
TOTAL RUN TIME: 0 days 0 hours 0 minutes 21 seconds 277 msec
