                         Program Version 4.2.1 -  RELEASE  -
|  1> ! wB97X-D3 SP def2-SVP
|  2> %pal
|  3> nprocs 24
|  4> end
|  5>
|  6> * xyz 0 1
|  7> S 	 -98.7215 	 47.0204 	 -94.4774
|  8> C 	 -98.5259 	 45.4419 	 -93.6562
|  9> C 	 -97.619 	 44.6397 	 -94.3169
| 10> C 	 -96.9797 	 45.3264 	 -95.4064
| 11> C 	 -97.4085 	 46.6139 	 -95.6579
| 12> H 	 -96.177 	 45.0032 	 -96.0775
| 13> C 	 -97.2175 	 43.2689 	 -93.8245
| 14> H 	 -97.0961 	 43.4164 	 -92.7672
| 15> H 	 -96.1994 	 43.2092 	 -94.1608
| 16> C 	 -97.9891 	 42.057 	 -94.4027
| 17> H 	 -99.0101 	 42.2833 	 -94.4499
| 18> H 	 -97.5553 	 42.0027 	 -95.4564
| 19> C 	 -97.8015 	 40.7684 	 -93.6047
| 20> H 	 -96.7544 	 40.5309 	 -93.4226
| 21> H 	 -98.268 	 41.017 	 -92.5907
| 22> H 	 -98.3089 	 39.9444 	 -94.1574
| 23> S 	 -96.479 	 49.2239 	 -96.1632
| 24> C 	 -95.928 	 49.6295 	 -97.7538
| 25> C 	 -95.9806 	 48.5095 	 -98.5537
| 26> C 	 -96.5919 	 47.3752 	 -97.9887
| 27> C 	 -96.8733 	 47.5369 	 -96.6341
| 28> H 	 -95.4987 	 48.552 	 -99.5084
| 29> C 	 -96.7116 	 46.0763 	 -98.6495
| 30> H 	 -97.4484 	 46.246 	 -99.4208
| 31> H 	 -97.2062 	 45.2763 	 -98.0813
| 32> C 	 -95.481 	 45.3985 	 -99.274
| 33> H 	 -94.6825 	 45.7218 	 -98.6878
| 34> H 	 -95.3801 	 45.635 	 -100.367
| 35> C 	 -95.5085 	 43.8455 	 -99.2105
| 36> H 	 -94.6265 	 43.5047 	 -99.7662
| 37> H 	 -96.3296 	 43.4458 	 -99.8332
| 38> H 	 -95.5648 	 43.4172 	 -98.226
| 39> H 	 -99.1034 	 45.1246 	 -92.8158
| 40> H 	 -95.4288 	 50.5662 	 -97.9242
| 41> *
| 42>
| 43>                          ****END OF INPUT****

CARTESIAN COORDINATES (ANGSTROEM)
---------------------------------
  S    -98.721500   47.020400  -94.477400
  C    -98.525900   45.441900  -93.656200
  C    -97.619000   44.639700  -94.316900
  C    -96.979700   45.326400  -95.406400
  C    -97.408500   46.613900  -95.657900
  H    -96.177000   45.003200  -96.077500
  C    -97.217500   43.268900  -93.824500
  H    -97.096100   43.416400  -92.767200
  H    -96.199400   43.209200  -94.160800
  C    -97.989100   42.057000  -94.402700
  H    -99.010100   42.283300  -94.449900
  H    -97.555300   42.002700  -95.456400
  C    -97.801500   40.768400  -93.604700
  H    -96.754400   40.530900  -93.422600
  H    -98.268000   41.017000  -92.590700
  H    -98.308900   39.944400  -94.157400
  S    -96.479000   49.223900  -96.163200
  C    -95.928000   49.629500  -97.753800
  C    -95.980600   48.509500  -98.553700
  C    -96.591900   47.375200  -97.988700
  C    -96.873300   47.536900  -96.634100
  H    -95.498700   48.552000  -99.508400
  C    -96.711600   46.076300  -98.649500
  H    -97.448400   46.246000  -99.420800
  H    -97.206200   45.276300  -98.081300
  C    -95.481000   45.398500  -99.274000
  H    -94.682500   45.721800  -98.687800
  H    -95.380100   45.635000  -100.367000
  C    -95.508500   43.845500  -99.210500
  H    -94.626500   43.504700  -99.766200
  H    -96.329600   43.445800  -99.833200
  H    -95.564800   43.417200  -98.226000
  H    -99.103400   45.124600  -92.815800
  H    -95.428800   50.566200  -97.924200

 Total Charge           Charge          ....    0
 Multiplicity           Mult            ....    1
 Number of Electrons    NEL             ....  134
 Basis Dimension        Dim             ....  322

ORBITAL ENERGIES
----------------

  NO   OCC          E(Eh)            E(eV)
   0   2.0000     -88.964267     -2420.8408
   1   2.0000     -88.963022     -2420.8069
   2   2.0000     -10.332842      -281.1709
   3   2.0000     -10.329368      -281.0764
   4   2.0000     -10.318309      -280.7755
   5   2.0000     -10.315435      -280.6972
   6   2.0000     -10.302380      -280.3420
   7   2.0000     -10.302361      -280.3415
   8   2.0000     -10.296458      -280.1809
   9   2.0000     -10.292475      -280.0725
  10   2.0000     -10.290502      -280.0188
  11   2.0000     -10.288933      -279.9761
  12   2.0000     -10.288322      -279.9595
  13   2.0000     -10.287456      -279.9359
  14   2.0000     -10.283345      -279.8240
  15   2.0000     -10.283002      -279.8147
  16   2.0000      -8.077613      -219.8030
  17   2.0000      -8.077407      -219.7974
  18   2.0000      -6.036069      -164.2498
  19   2.0000      -6.036024      -164.2486
  20   2.0000      -6.032223      -164.1451
  21   2.0000      -6.032063      -164.1408
  22   2.0000      -6.028544      -164.0450
  23   2.0000      -6.028010      -164.0305
  24   2.0000      -1.003311       -27.3015
  25   2.0000      -0.979327       -26.6488
  26   2.0000      -0.913994       -24.8710
  27   2.0000      -0.911213       -24.7954
  28   2.0000      -0.871813       -23.7232
  29   2.0000      -0.854945       -23.2642
  30   2.0000      -0.843688       -22.9579
  31   2.0000      -0.815711       -22.1966
  32   2.0000      -0.784149       -21.3378
  33   2.0000      -0.771013       -20.9803
  34   2.0000      -0.708834       -19.2884
  35   2.0000      -0.702634       -19.1196
  36   2.0000      -0.700438       -19.0599
  37   2.0000      -0.658607       -17.9216
  38   2.0000      -0.643193       -17.5022
  39   2.0000      -0.617564       -16.8048
  40   2.0000      -0.602513       -16.3952
  41   2.0000      -0.575892       -15.6708
  42   2.0000      -0.572792       -15.5865
  43   2.0000      -0.556749       -15.1499
  44   2.0000      -0.530740       -14.4422
  45   2.0000      -0.527298       -14.3485
  46   2.0000      -0.523102       -14.2343
  47   2.0000      -0.511375       -13.9152
  48   2.0000      -0.505342       -13.7510
  49   2.0000      -0.498889       -13.5755
  50   2.0000      -0.493335       -13.4243
  51   2.0000      -0.483861       -13.1665
  52   2.0000      -0.469691       -12.7810
  53   2.0000      -0.465411       -12.6645
  54   2.0000      -0.462116       -12.5748
  55   2.0000      -0.449672       -12.2362
  56   2.0000      -0.443657       -12.0725
  57   2.0000      -0.435171       -11.8416
  58   2.0000      -0.429357       -11.6834
  59   2.0000      -0.424136       -11.5413
  60   2.0000      -0.421603       -11.4724
  61   2.0000      -0.416071       -11.3219
  62   2.0000      -0.410108       -11.1596
  63   2.0000      -0.349025        -9.4974
  64   2.0000      -0.330697        -8.9987
  65   2.0000      -0.328296        -8.9334
  66   2.0000      -0.290271        -7.8987
  67   0.0000       0.024037         0.6541
  68   0.0000       0.069133         1.8812
  69   0.0000       0.107644         2.9292
  70   0.0000       0.121763         3.3133
  71   0.0000       0.126448         3.4408

MULLIKEN ATOMIC CHARGES
-----------------------
   0 S :    0.095235
   1 C :   -0.114714
   2 C :   -0.095830
   3 C :    0.025414
   4 C :   -0.147615
   5 H :    0.011030
   6 C :    0.063749
   7 H :    0.023271
   8 H :    0.009274
   9 C :   -0.054905
  10 H :    0.026556
  11 H :    0.035628
  12 C :   -0.057890
  13 H :    0.034642
  14 H :    0.041584
  15 H :    0.053100
  16 S :    0.097334
  17 C :   -0.091210
  18 C :   -0.031112
  19 C :   -0.000377
  20 C :   -0.171927
  21 H :    0.014457
  22 C :    0.047204
  23 H :    0.023005
  24 H :    0.020417
  25 C :   -0.054911
  26 H :    0.022277
  27 H :    0.038973
  28 C :   -0.076559
  29 H :    0.034893
  30 H :    0.032729
  31 H :    0.039310
  32 H :    0.042771
  33 H :    0.064198
Sum of atomic charges:   -0.0000000

LOEWDIN ATOMIC CHARGES
----------------------
   0 S :    0.359647
   1 C :   -0.176258
   2 C :   -0.063770
   3 C :   -0.065236
   4 C :   -0.173210
   5 H :    0.032334
   6 C :   -0.037017
   7 H :    0.028655
   8 H :    0.028668
   9 C :   -0.037865
  10 H :    0.015873
  11 H :    0.031694
  12 C :   -0.068121
  13 H :    0.023062
  14 H :    0.035174
  15 H :    0.033506
  16 S :    0.395325
  17 C :   -0.180558
  18 C :   -0.071526
  19 C :   -0.054497
  20 C :   -0.186464
  21 H :    0.029793
  22 C :   -0.046054
  23 H :    0.035659
  24 H :    0.033382
  25 C :   -0.033755
  26 H :    0.015113
  27 H :    0.031788
  28 C :   -0.067088
  29 H :    0.030428
  30 H :    0.027313
  31 H :    0.019010
  32 H :    0.025087
  33 H :    0.029907

  Mayer bond orders larger than 0.100000
B(  0-S ,  1-C ) :   1.1238 B(  0-S ,  4-C ) :   1.1180 B(  1-C ,  2-C ) :   1.6261
B(  1-C , 32-H ) :   0.9724 B(  2-C ,  3-C ) :   1.2153 B(  2-C ,  6-C ) :   1.0099
B(  3-C ,  4-C ) :   1.5992 B(  3-C ,  5-H ) :   0.9864 B(  4-C , 20-C ) :   1.0805
B(  6-C ,  7-H ) :   0.9475 B(  6-C ,  8-H ) :   0.9373 B(  6-C ,  9-C ) :   1.0383
B(  9-C , 10-H ) :   0.9655 B(  9-C , 11-H ) :   0.9511 B(  9-C , 12-C ) :   1.0791
B( 12-C , 13-H ) :   0.9755 B( 12-C , 14-H ) :   0.9746 B( 12-C , 15-H ) :   0.9731
B( 16-S , 17-C ) :   1.1707 B( 16-S , 20-C ) :   1.1327 B( 17-C , 18-C ) :   1.5764
B( 17-C , 20-C ) :   0.1020 B( 17-C , 33-H ) :   0.9708 B( 18-C , 19-C ) :   1.2468
B( 18-C , 21-H ) :   0.9966 B( 19-C , 20-C ) :   1.5588 B( 19-C , 22-C ) :   1.0721
B( 22-C , 23-H ) :   0.9025 B( 22-C , 24-H ) :   0.9395 B( 22-C , 25-C ) :   1.0427
B( 25-C , 26-H ) :   0.9633 B( 25-C , 27-H ) :   0.9503 B( 25-C , 28-C ) :   1.0979
B( 28-C , 29-H ) :   0.9723 B( 28-C , 30-H ) :   0.9737 B( 28-C , 31-H ) :   0.9747

Dispersion correction           -0.014080302
FINAL SINGLE POINT ENERGY     -1339.872121862709

DIPOLE MOMENT
-------------
                                X             Y             Z
Electronic contribution:     -5.79240      31.36931       7.09584
Nuclear contribution   :      6.17135     -32.01783      -7.44061
                        -----------------------------------------
Total Dipole Moment    :      0.37895      -0.64851      -0.34477
                        -----------------------------------------
Magnitude (a.u.)       :      0.82646
Magnitude (Debye)      :      2.10070

Rotational constants in cm-1:     0.018512     0.008632     0.006182
Rotational constants in MHz :   554.982702   258.774829   185.317759

                             ****ORCA TERMINATED NORMALLY****
TOTAL RUN TIME: 0 days 0 hours 0 minutes 20 seconds 380 msec
