                         Program Version 4.2.1 -  RELEASE  -
|  1> ! wB97X-D3 SP def2-SVP
|  2> %pal
|  3> nprocs 24
|  4> end
|  5>
|  6> * xyz 0 1
|  7> S 	 -128.865 	 28.2407 	 -21.6211
|  8> C 	 -130.211 	 28.1435 	 -20.4672
|  9> C 	 -131.391 	 28.6654 	 -21.0184
| 10> C 	 -131.094 	 29.2316 	 -22.2473
| 11> C 	 -129.787 	 29.1847 	 -22.712
| 12> H 	 -131.831 	 29.613 	 -22.8804
| 13> C 	 -132.759 	 28.5457 	 -20.3562
| 14> H 	 -133.582 	 28.9732 	 -20.9435
| 15> H 	 -132.634 	 29.1177 	 -19.4616
| 16> C 	 -133.103 	 27.1047 	 -19.9079
| 17> H 	 -132.787 	 26.4625 	 -20.6717
| 18> H 	 -132.494 	 27.0149 	 -18.9631
| 19> C 	 -134.581 	 26.7459 	 -19.5812
| 20> H 	 -134.514 	 25.6598 	 -19.2494
| 21> H 	 -134.888 	 27.2228 	 -18.6689
| 22> H 	 -135.335 	 26.8218 	 -20.3869
| 23> S 	 -129.121 	 31.6089 	 -24.0033
| 24> C 	 -128.492 	 31.5011 	 -25.61
| 25> C 	 -128.151 	 30.1973 	 -25.927
| 26> C 	 -128.711 	 29.2032 	 -25.0638
| 27> C 	 -129.252 	 29.8004 	 -23.9299
| 28> H 	 -127.672 	 29.9562 	 -26.8728
| 29> C 	 -128.428 	 27.6891 	 -25.2302
| 30> H 	 -128.498 	 27.1602 	 -24.2488
| 31> H 	 -127.382 	 27.4428 	 -25.4762
| 32> C 	 -129.33 	 26.9229 	 -26.2777
| 33> H 	 -129.066 	 25.7771 	 -26.175
| 34> H 	 -129.064 	 27.3137 	 -27.2467
| 35> C 	 -130.773 	 27.2407 	 -26.0111
| 36> H 	 -131.343 	 26.6126 	 -26.7128
| 37> H 	 -130.919 	 28.3334 	 -26.1324
| 38> H 	 -130.98 	 26.9254 	 -24.9549
| 39> H 	 -130.258 	 27.4292 	 -19.6685
| 40> H 	 -128.208 	 32.2935 	 -26.3293
| 41> *
| 42>
| 43>                          ****END OF INPUT****

CARTESIAN COORDINATES (ANGSTROEM)
---------------------------------
  S    -128.865000   28.240700  -21.621100
  C    -130.211000   28.143500  -20.467200
  C    -131.391000   28.665400  -21.018400
  C    -131.094000   29.231600  -22.247300
  C    -129.787000   29.184700  -22.712000
  H    -131.831000   29.613000  -22.880400
  C    -132.759000   28.545700  -20.356200
  H    -133.582000   28.973200  -20.943500
  H    -132.634000   29.117700  -19.461600
  C    -133.103000   27.104700  -19.907900
  H    -132.787000   26.462500  -20.671700
  H    -132.494000   27.014900  -18.963100
  C    -134.581000   26.745900  -19.581200
  H    -134.514000   25.659800  -19.249400
  H    -134.888000   27.222800  -18.668900
  H    -135.335000   26.821800  -20.386900
  S    -129.121000   31.608900  -24.003300
  C    -128.492000   31.501100  -25.610000
  C    -128.151000   30.197300  -25.927000
  C    -128.711000   29.203200  -25.063800
  C    -129.252000   29.800400  -23.929900
  H    -127.672000   29.956200  -26.872800
  C    -128.428000   27.689100  -25.230200
  H    -128.498000   27.160200  -24.248800
  H    -127.382000   27.442800  -25.476200
  C    -129.330000   26.922900  -26.277700
  H    -129.066000   25.777100  -26.175000
  H    -129.064000   27.313700  -27.246700
  C    -130.773000   27.240700  -26.011100
  H    -131.343000   26.612600  -26.712800
  H    -130.919000   28.333400  -26.132400
  H    -130.980000   26.925400  -24.954900
  H    -130.258000   27.429200  -19.668500
  H    -128.208000   32.293500  -26.329300

 Total Charge           Charge          ....    0
 Multiplicity           Mult            ....    1
 Number of Electrons    NEL             ....  134
 Basis Dimension        Dim             ....  322

ORBITAL ENERGIES
----------------

  NO   OCC          E(Eh)            E(eV)
   0   2.0000     -88.969856     -2420.9929
   1   2.0000     -88.968284     -2420.9501
   2   2.0000     -10.332545      -281.1628
   3   2.0000     -10.325395      -280.9683
   4   2.0000     -10.319723      -280.8139
   5   2.0000     -10.312793      -280.6254
   6   2.0000     -10.308847      -280.5180
   7   2.0000     -10.300849      -280.3003
   8   2.0000     -10.295998      -280.1684
   9   2.0000     -10.293237      -280.0932
  10   2.0000     -10.292708      -280.0788
  11   2.0000     -10.291110      -280.0353
  12   2.0000     -10.290964      -280.0314
  13   2.0000     -10.288101      -279.9535
  14   2.0000     -10.284126      -279.8453
  15   2.0000     -10.274808      -279.5917
  16   2.0000      -8.083701      -219.9687
  17   2.0000      -8.082641      -219.9399
  18   2.0000      -6.042264      -164.4183
  19   2.0000      -6.041056      -164.3855
  20   2.0000      -6.038446      -164.3145
  21   2.0000      -6.037030      -164.2759
  22   2.0000      -6.034323      -164.2023
  23   2.0000      -6.033702      -164.1854
  24   2.0000      -1.005790       -27.3689
  25   2.0000      -0.983747       -26.7691
  26   2.0000      -0.912541       -24.8315
  27   2.0000      -0.903313       -24.5804
  28   2.0000      -0.865352       -23.5474
  29   2.0000      -0.848612       -23.0919
  30   2.0000      -0.846146       -23.0248
  31   2.0000      -0.811060       -22.0701
  32   2.0000      -0.784154       -21.3379
  33   2.0000      -0.771300       -20.9881
  34   2.0000      -0.705382       -19.1944
  35   2.0000      -0.697230       -18.9726
  36   2.0000      -0.680830       -18.5263
  37   2.0000      -0.654969       -17.8226
  38   2.0000      -0.638858       -17.3842
  39   2.0000      -0.616738       -16.7823
  40   2.0000      -0.595210       -16.1965
  41   2.0000      -0.574206       -15.6249
  42   2.0000      -0.569128       -15.4868
  43   2.0000      -0.546720       -14.8770
  44   2.0000      -0.543998       -14.8029
  45   2.0000      -0.522752       -14.2248
  46   2.0000      -0.515926       -14.0390
  47   2.0000      -0.507108       -13.7991
  48   2.0000      -0.502604       -13.6766
  49   2.0000      -0.495278       -13.4772
  50   2.0000      -0.489593       -13.3225
  51   2.0000      -0.473966       -12.8973
  52   2.0000      -0.472418       -12.8551
  53   2.0000      -0.462872       -12.5954
  54   2.0000      -0.455958       -12.4072
  55   2.0000      -0.446854       -12.1595
  56   2.0000      -0.444953       -12.1078
  57   2.0000      -0.431254       -11.7350
  58   2.0000      -0.428154       -11.6507
  59   2.0000      -0.423981       -11.5371
  60   2.0000      -0.418850       -11.3975
  61   2.0000      -0.417119       -11.3504
  62   2.0000      -0.413287       -11.2461
  63   2.0000      -0.335399        -9.1267
  64   2.0000      -0.332068        -9.0360
  65   2.0000      -0.327202        -8.9036
  66   2.0000      -0.301116        -8.1938
  67   0.0000       0.028308         0.7703
  68   0.0000       0.059024         1.6061
  69   0.0000       0.103658         2.8207
  70   0.0000       0.113159         3.0792
  71   0.0000       0.127999         3.4830

MULLIKEN ATOMIC CHARGES
-----------------------
   0 S :    0.122134
   1 C :   -0.129555
   2 C :   -0.090467
   3 C :    0.042766
   4 C :   -0.173978
   5 H :   -0.020581
   6 C :    0.108644
   7 H :    0.023975
   8 H :    0.035181
   9 C :   -0.129114
  10 H :    0.035217
  11 H :    0.040298
  12 C :   -0.049934
  13 H :    0.037937
  14 H :    0.026270
  15 H :    0.051118
  16 S :    0.127912
  17 C :   -0.097900
  18 C :   -0.040400
  19 C :   -0.017326
  20 C :   -0.163452
  21 H :    0.020888
  22 C :    0.020573
  23 H :    0.022203
  24 H :    0.034564
  25 C :   -0.107617
  26 H :    0.050094
  27 H :    0.024153
  28 C :   -0.050494
  29 H :    0.037483
  30 H :    0.057345
  31 H :    0.036316
  32 H :    0.046073
  33 H :    0.069676
Sum of atomic charges:   -0.0000000

LOEWDIN ATOMIC CHARGES
----------------------
   0 S :    0.429831
   1 C :   -0.196068
   2 C :   -0.056574
   3 C :   -0.059206
   4 C :   -0.214712
   5 H :    0.019771
   6 C :   -0.030319
   7 H :    0.029160
   8 H :    0.034330
   9 C :   -0.040703
  10 H :    0.016750
  11 H :    0.031183
  12 C :   -0.069984
  13 H :    0.038410
  14 H :    0.021077
  15 H :    0.028819
  16 S :    0.398928
  17 C :   -0.198954
  18 C :   -0.074329
  19 C :   -0.054065
  20 C :   -0.180462
  21 H :    0.029029
  22 C :   -0.041487
  23 H :    0.022809
  24 H :    0.032421
  25 C :   -0.045297
  26 H :    0.035945
  27 H :    0.015062
  28 C :   -0.070929
  29 H :    0.026150
  30 H :    0.032518
  31 H :    0.029424
  32 H :    0.019890
  33 H :    0.041580

  Mayer bond orders larger than 0.100000
B(  0-S ,  1-C ) :   1.1673 B(  0-S ,  4-C ) :   1.1683 B(  1-C ,  2-C ) :   1.5450
B(  1-C ,  4-C ) :   0.1126 B(  1-C , 32-H ) :   0.9650 B(  2-C ,  3-C ) :   1.3110
B(  2-C ,  6-C ) :   1.0121 B(  3-C ,  4-C ) :   1.5231 B(  3-C ,  5-H ) :   1.0095
B(  4-C , 20-C ) :   1.0290 B(  6-C ,  7-H ) :   0.9480 B(  6-C ,  8-H ) :   0.9353
B(  6-C ,  9-C ) :   1.0456 B(  9-C , 10-H ) :   0.9699 B(  9-C , 11-H ) :   0.9529
B(  9-C , 12-C ) :   1.0914 B( 12-C , 13-H ) :   0.9716 B( 12-C , 14-H ) :   0.9737
B( 12-C , 15-H ) :   0.9752 B( 16-S , 17-C ) :   1.1519 B( 16-S , 20-C ) :   1.1326
B( 17-C , 18-C ) :   1.6244 B( 17-C , 33-H ) :   0.9601 B( 18-C , 19-C ) :   1.2389
B( 18-C , 21-H ) :   0.9787 B( 19-C , 20-C ) :   1.5932 B( 19-C , 22-C ) :   1.0253
B( 22-C , 23-H ) :   0.9386 B( 22-C , 24-H ) :   0.9500 B( 22-C , 25-C ) :   1.0564
B( 25-C , 26-H ) :   0.9556 B( 25-C , 27-H ) :   0.9576 B( 25-C , 28-C ) :   1.0796
B( 28-C , 29-H ) :   0.9725 B( 28-C , 30-H ) :   0.9641 B( 28-C , 31-H ) :   0.9755

Dispersion correction           -0.014752502
FINAL SINGLE POINT ENERGY     -1339.865013988238

DIPOLE MOMENT
-------------
                                X             Y             Z
Electronic contribution:     17.83182      17.98898      -0.29197
Nuclear contribution   :    -18.17877     -18.37428       0.16085
                        -----------------------------------------
Total Dipole Moment    :     -0.34695      -0.38530      -0.13112
                        -----------------------------------------
Magnitude (a.u.)       :      0.53482
Magnitude (Debye)      :      1.35939

Rotational constants in cm-1:     0.021619     0.007576     0.006738
Rotational constants in MHz :   648.118600   227.122642   201.985491

                             ****ORCA TERMINATED NORMALLY****
TOTAL RUN TIME: 0 days 0 hours 0 minutes 20 seconds 410 msec
