                         Program Version 4.2.1 -  RELEASE  -
|  1> ! wB97X-D3 SP def2-SVP
|  2> %pal
|  3> nprocs 24
|  4> end
|  5>
|  6> * xyz 0 1
|  7> S 	 -136.004 	 9.66626 	 -10.3267
|  8> C 	 -136.267 	 11.4227 	 -10.0696
|  9> C 	 -135.459 	 11.9083 	 -9.10314
| 10> C 	 -134.667 	 10.9041 	 -8.45122
| 11> C 	 -134.748 	 9.65 	 -9.01733
| 12> H 	 -134.075 	 10.9979 	 -7.51585
| 13> C 	 -135.234 	 13.3415 	 -8.75928
| 14> H 	 -135.387 	 13.9817 	 -9.63909
| 15> H 	 -134.211 	 13.4766 	 -8.55586
| 16> C 	 -136.136 	 13.9678 	 -7.66101
| 17> H 	 -136.028 	 15.0424 	 -7.49659
| 18> H 	 -137.197 	 13.8983 	 -7.91833
| 19> C 	 -135.937 	 13.3126 	 -6.22108
| 20> H 	 -135.81 	 12.2325 	 -6.18321
| 21> H 	 -135.074 	 13.5669 	 -5.69362
| 22> H 	 -136.811 	 13.471 	 -5.62566
| 23> S 	 -134.848 	 6.94158 	 -8.59329
| 24> C 	 -133.444 	 6.1333 	 -7.87836
| 25> C 	 -132.413 	 6.9808 	 -7.68224
| 26> C 	 -132.717 	 8.36487 	 -7.97255
| 27> C 	 -134.01 	 8.47802 	 -8.53036
| 28> H 	 -131.447 	 6.58867 	 -7.34075
| 29> C 	 -131.649 	 9.42707 	 -7.99444
| 30> H 	 -131.927 	 10.2156 	 -7.30739
| 31> H 	 -131.821 	 9.94381 	 -8.92098
| 32> C 	 -130.158 	 9.05972 	 -7.79055
| 33> H 	 -129.909 	 8.50577 	 -8.71631
| 34> H 	 -129.921 	 8.35281 	 -6.93141
| 35> C 	 -129.307 	 10.249 	 -7.49121
| 36> H 	 -129.363 	 11.1281 	 -8.16708
| 37> H 	 -128.262 	 9.96776 	 -7.46889
| 38> H 	 -129.613 	 10.6333 	 -6.51675
| 39> H 	 -136.914 	 12.0609 	 -10.6086
| 40> H 	 -133.345 	 5.01506 	 -7.77383
| 41> *
| 42>
| 43>                          ****END OF INPUT****

CARTESIAN COORDINATES (ANGSTROEM)
---------------------------------
  S    -136.004000    9.666260  -10.326700
  C    -136.267000   11.422700  -10.069600
  C    -135.459000   11.908300   -9.103140
  C    -134.667000   10.904100   -8.451220
  C    -134.748000    9.650000   -9.017330
  H    -134.075000   10.997900   -7.515850
  C    -135.234000   13.341500   -8.759280
  H    -135.387000   13.981700   -9.639090
  H    -134.211000   13.476600   -8.555860
  C    -136.136000   13.967800   -7.661010
  H    -136.028000   15.042400   -7.496590
  H    -137.197000   13.898300   -7.918330
  C    -135.937000   13.312600   -6.221080
  H    -135.810000   12.232500   -6.183210
  H    -135.074000   13.566900   -5.693620
  H    -136.811000   13.471000   -5.625660
  S    -134.848000    6.941580   -8.593290
  C    -133.444000    6.133300   -7.878360
  C    -132.413000    6.980800   -7.682240
  C    -132.717000    8.364870   -7.972550
  C    -134.010000    8.478020   -8.530360
  H    -131.447000    6.588670   -7.340750
  C    -131.649000    9.427070   -7.994440
  H    -131.927000   10.215600   -7.307390
  H    -131.821000    9.943810   -8.920980
  C    -130.158000    9.059720   -7.790550
  H    -129.909000    8.505770   -8.716310
  H    -129.921000    8.352810   -6.931410
  C    -129.307000   10.249000   -7.491210
  H    -129.363000   11.128100   -8.167080
  H    -128.262000    9.967760   -7.468890
  H    -129.613000   10.633300   -6.516750
  H    -136.914000   12.060900  -10.608600
  H    -133.345000    5.015060   -7.773830

 Total Charge           Charge          ....    0
 Multiplicity           Mult            ....    1
 Number of Electrons    NEL             ....  134
 Basis Dimension        Dim             ....  322

ORBITAL ENERGIES
----------------

  NO   OCC          E(Eh)            E(eV)
   0   2.0000     -88.967857     -2420.9385
   1   2.0000     -88.965001     -2420.8607
   2   2.0000     -10.335513      -281.2436
   3   2.0000     -10.330944      -281.1193
   4   2.0000     -10.318759      -280.7877
   5   2.0000     -10.314410      -280.6694
   6   2.0000     -10.309476      -280.5351
   7   2.0000     -10.298876      -280.2467
   8   2.0000     -10.297237      -280.2021
   9   2.0000     -10.295744      -280.1614
  10   2.0000     -10.294644      -280.1315
  11   2.0000     -10.294065      -280.1157
  12   2.0000     -10.291550      -280.0473
  13   2.0000     -10.290501      -280.0188
  14   2.0000     -10.281672      -279.7785
  15   2.0000     -10.269798      -279.4554
  16   2.0000      -8.080824      -219.8904
  17   2.0000      -8.079602      -219.8571
  18   2.0000      -6.039685      -164.3482
  19   2.0000      -6.038229      -164.3086
  20   2.0000      -6.035716      -164.2402
  21   2.0000      -6.034187      -164.1986
  22   2.0000      -6.031162      -164.1163
  23   2.0000      -6.030186      -164.0897
  24   2.0000      -1.001525       -27.2529
  25   2.0000      -0.980364       -26.6771
  26   2.0000      -0.913293       -24.8520
  27   2.0000      -0.906048       -24.6548
  28   2.0000      -0.869254       -23.6536
  29   2.0000      -0.855512       -23.2797
  30   2.0000      -0.839661       -22.8483
  31   2.0000      -0.818676       -22.2773
  32   2.0000      -0.785528       -21.3753
  33   2.0000      -0.773797       -21.0561
  34   2.0000      -0.712821       -19.3968
  35   2.0000      -0.708330       -19.2747
  36   2.0000      -0.699564       -19.0361
  37   2.0000      -0.650996       -17.7145
  38   2.0000      -0.636943       -17.3321
  39   2.0000      -0.615861       -16.7584
  40   2.0000      -0.596938       -16.2435
  41   2.0000      -0.571056       -15.5392
  42   2.0000      -0.569202       -15.4888
  43   2.0000      -0.542102       -14.7514
  44   2.0000      -0.538408       -14.6508
  45   2.0000      -0.530621       -14.4389
  46   2.0000      -0.519740       -14.1428
  47   2.0000      -0.510693       -13.8967
  48   2.0000      -0.504687       -13.7332
  49   2.0000      -0.500057       -13.6072
  50   2.0000      -0.484076       -13.1724
  51   2.0000      -0.479439       -13.0462
  52   2.0000      -0.473680       -12.8895
  53   2.0000      -0.465771       -12.6743
  54   2.0000      -0.458802       -12.4846
  55   2.0000      -0.457417       -12.4470
  56   2.0000      -0.441992       -12.0272
  57   2.0000      -0.436847       -11.8872
  58   2.0000      -0.430445       -11.7130
  59   2.0000      -0.426254       -11.5989
  60   2.0000      -0.419251       -11.4084
  61   2.0000      -0.418592       -11.3905
  62   2.0000      -0.415372       -11.3029
  63   2.0000      -0.357556        -9.7296
  64   2.0000      -0.331902        -9.0315
  65   2.0000      -0.328241        -8.9319
  66   2.0000      -0.286998        -7.8096
  67   0.0000       0.021155         0.5757
  68   0.0000       0.079788         2.1711
  69   0.0000       0.098565         2.6821
  70   0.0000       0.122567         3.3352
  71   0.0000       0.131269         3.5720

MULLIKEN ATOMIC CHARGES
-----------------------
   0 S :    0.091754
   1 C :   -0.095632
   2 C :   -0.053550
   3 C :   -0.033034
   4 C :   -0.109280
   5 H :    0.036729
   6 C :    0.080805
   7 H :    0.020700
   8 H :    0.017685
   9 C :   -0.057697
  10 H :    0.034584
  11 H :    0.026842
  12 C :   -0.057729
  13 H :    0.021121
  14 H :    0.015266
  15 H :    0.029042
  16 S :    0.098509
  17 C :   -0.097353
  18 C :   -0.048760
  19 C :   -0.032381
  20 C :   -0.165979
  21 H :    0.025196
  22 C :    0.054233
  23 H :    0.011168
  24 H :    0.032950
  25 C :   -0.084157
  26 H :    0.039456
  27 H :    0.045958
  28 C :   -0.045381
  29 H :    0.032607
  30 H :    0.036496
  31 H :    0.029712
  32 H :    0.027225
  33 H :    0.072895
Sum of atomic charges:   -0.0000000

LOEWDIN ATOMIC CHARGES
----------------------
   0 S :    0.352562
   1 C :   -0.167579
   2 C :   -0.063214
   3 C :   -0.067128
   4 C :   -0.171044
   5 H :    0.037970
   6 C :   -0.030121
   7 H :    0.034345
   8 H :    0.025508
   9 C :   -0.032657
  10 H :    0.026362
  11 H :    0.024797
  12 C :   -0.072715
  13 H :    0.025336
  14 H :    0.015153
  15 H :    0.025369
  16 S :    0.393234
  17 C :   -0.187088
  18 C :   -0.076408
  19 C :   -0.051881
  20 C :   -0.195362
  21 H :    0.035673
  22 C :   -0.038968
  23 H :    0.025357
  24 H :    0.037740
  25 C :   -0.046820
  26 H :    0.027680
  27 H :    0.033297
  28 C :   -0.066128
  29 H :    0.026088
  30 H :    0.028350
  31 H :    0.026390
  32 H :    0.023816
  33 H :    0.042087

  Mayer bond orders larger than 0.100000
B(  0-S ,  1-C ) :   1.1027 B(  0-S ,  4-C ) :   1.1088 B(  1-C ,  2-C ) :   1.6725
B(  1-C , 32-H ) :   0.9672 B(  2-C ,  3-C ) :   1.1924 B(  2-C ,  6-C ) :   1.0187
B(  3-C ,  4-C ) :   1.6140 B(  3-C ,  5-H ) :   0.9811 B(  4-C , 20-C ) :   1.0766
B(  6-C ,  7-H ) :   0.9382 B(  6-C ,  8-H ) :   0.9464 B(  6-C ,  9-C ) :   1.0678
B(  9-C , 10-H ) :   0.9591 B(  9-C , 11-H ) :   0.9612 B(  9-C , 12-C ) :   1.0616
B( 12-C , 13-H ) :   0.9751 B( 12-C , 14-H ) :   0.9782 B( 12-C , 15-H ) :   0.9761
B( 16-S , 17-C ) :   1.1348 B( 16-S , 20-C ) :   1.1373 B( 17-C , 18-C ) :   1.6418
B( 17-C , 33-H ) :   0.9545 B( 18-C , 19-C ) :   1.2377 B( 18-C , 21-H ) :   0.9808
B( 19-C , 20-C ) :   1.5808 B( 19-C , 22-C ) :   1.0306 B( 22-C , 23-H ) :   0.9226
B( 22-C , 24-H ) :   0.9261 B( 22-C , 25-C ) :   1.0662 B( 25-C , 26-H ) :   0.9495
B( 25-C , 27-H ) :   0.9515 B( 25-C , 28-C ) :   1.0837 B( 28-C , 29-H ) :   0.9749
B( 28-C , 30-H ) :   0.9717 B( 28-C , 31-H ) :   0.9720

Dispersion correction           -0.013957744
FINAL SINGLE POINT ENERGY     -1339.872914954076

DIPOLE MOMENT
-------------
                                X             Y             Z
Electronic contribution:    -15.48793     -20.95030     -13.11253
Nuclear contribution   :     16.07291      21.43112      13.38433
                        -----------------------------------------
Total Dipole Moment    :      0.58499       0.48082       0.27180
                        -----------------------------------------
Magnitude (a.u.)       :      0.80453
Magnitude (Debye)      :      2.04496

Rotational constants in cm-1:     0.016034     0.009054     0.006656
Rotational constants in MHz :   480.682338   271.431998   199.542156

                             ****ORCA TERMINATED NORMALLY****
TOTAL RUN TIME: 0 days 0 hours 0 minutes 21 seconds 312 msec
