                         Program Version 4.2.1 -  RELEASE  -
|  1> ! wB97X-D3 SP def2-SVP
|  2> %pal
|  3> nprocs 24
|  4> end
|  5>
|  6> * xyz 0 1
|  7> S 	 -89.2817 	 -45.2055 	 -84.6895
|  8> C 	 -91.0063 	 -44.825 	 -84.8388
|  9> C 	 -91.593 	 -45.1959 	 -83.6128
| 10> C 	 -90.7576 	 -45.6838 	 -82.615
| 11> C 	 -89.4288 	 -45.5043 	 -82.9506
| 12> H 	 -91.0217 	 -46.1132 	 -81.6932
| 13> C 	 -93.0617 	 -45.3065 	 -83.2873
| 14> H 	 -93.2326 	 -46.3439 	 -83.0139
| 15> H 	 -93.5357 	 -45.0626 	 -84.2759
| 16> C 	 -93.5132 	 -44.2332 	 -82.236
| 17> H 	 -93.1119 	 -44.4955 	 -81.2593
| 18> H 	 -93.1261 	 -43.2789 	 -82.539
| 19> C 	 -95.0706 	 -44.0572 	 -82.0733
| 20> H 	 -95.6627 	 -44.9201 	 -81.7853
| 21> H 	 -95.2847 	 -43.3769 	 -81.2133
| 22> H 	 -95.4517 	 -43.6325 	 -82.9972
| 23> S 	 -87.0524 	 -46.9634 	 -83.0372
| 24> C 	 -86.3125 	 -47.5968 	 -81.5957
| 25> C 	 -86.9486 	 -47.0678 	 -80.4706
| 26> C 	 -88.0721 	 -46.2322 	 -80.7767
| 27> C 	 -88.2897 	 -46.0555 	 -82.1882
| 28> H 	 -86.7057 	 -47.3315 	 -79.4591
| 29> C 	 -88.9922 	 -45.5094 	 -79.7278
| 30> H 	 -89.35 	 -46.371 	 -79.1314
| 31> H 	 -89.9264 	 -45.1683 	 -80.0981
| 32> C 	 -88.2085 	 -44.4283 	 -78.9669
| 33> H 	 -87.3455 	 -44.8853 	 -78.6427
| 34> H 	 -88.6504 	 -44.1873 	 -77.9742
| 35> C 	 -88.0129 	 -43.1683 	 -79.7576
| 36> H 	 -88.7498 	 -43.0518 	 -80.4917
| 37> H 	 -86.9964 	 -43.1394 	 -80.1896
| 38> H 	 -88.1296 	 -42.3267 	 -79.1596
| 39> H 	 -91.5667 	 -44.5203 	 -85.7576
| 40> H 	 -85.6161 	 -48.4125 	 -81.4942
| 41> *
| 42>
| 43>                          ****END OF INPUT****

CARTESIAN COORDINATES (ANGSTROEM)
---------------------------------
  S    -89.281700  -45.205500  -84.689500
  C    -91.006300  -44.825000  -84.838800
  C    -91.593000  -45.195900  -83.612800
  C    -90.757600  -45.683800  -82.615000
  C    -89.428800  -45.504300  -82.950600
  H    -91.021700  -46.113200  -81.693200
  C    -93.061700  -45.306500  -83.287300
  H    -93.232600  -46.343900  -83.013900
  H    -93.535700  -45.062600  -84.275900
  C    -93.513200  -44.233200  -82.236000
  H    -93.111900  -44.495500  -81.259300
  H    -93.126100  -43.278900  -82.539000
  C    -95.070600  -44.057200  -82.073300
  H    -95.662700  -44.920100  -81.785300
  H    -95.284700  -43.376900  -81.213300
  H    -95.451700  -43.632500  -82.997200
  S    -87.052400  -46.963400  -83.037200
  C    -86.312500  -47.596800  -81.595700
  C    -86.948600  -47.067800  -80.470600
  C    -88.072100  -46.232200  -80.776700
  C    -88.289700  -46.055500  -82.188200
  H    -86.705700  -47.331500  -79.459100
  C    -88.992200  -45.509400  -79.727800
  H    -89.350000  -46.371000  -79.131400
  H    -89.926400  -45.168300  -80.098100
  C    -88.208500  -44.428300  -78.966900
  H    -87.345500  -44.885300  -78.642700
  H    -88.650400  -44.187300  -77.974200
  C    -88.012900  -43.168300  -79.757600
  H    -88.749800  -43.051800  -80.491700
  H    -86.996400  -43.139400  -80.189600
  H    -88.129600  -42.326700  -79.159600
  H    -91.566700  -44.520300  -85.757600
  H    -85.616100  -48.412500  -81.494200

 Total Charge           Charge          ....    0
 Multiplicity           Mult            ....    1
 Number of Electrons    NEL             ....  134
 Basis Dimension        Dim             ....  322

ORBITAL ENERGIES
----------------

  NO   OCC          E(Eh)            E(eV)
   0   2.0000     -88.968561     -2420.9576
   1   2.0000     -88.967552     -2420.9302
   2   2.0000     -10.335924      -281.2548
   3   2.0000     -10.333216      -281.1811
   4   2.0000     -10.323458      -280.9156
   5   2.0000     -10.320640      -280.8389
   6   2.0000     -10.311356      -280.5863
   7   2.0000     -10.298834      -280.2455
   8   2.0000     -10.298153      -280.2270
   9   2.0000     -10.294141      -280.1178
  10   2.0000     -10.293737      -280.1068
  11   2.0000     -10.291808      -280.0543
  12   2.0000     -10.288236      -279.9571
  13   2.0000     -10.282176      -279.7922
  14   2.0000     -10.277643      -279.6689
  15   2.0000     -10.261331      -279.2250
  16   2.0000      -8.082406      -219.9335
  17   2.0000      -8.082051      -219.9238
  18   2.0000      -6.041091      -164.3865
  19   2.0000      -6.040626      -164.3738
  20   2.0000      -6.037177      -164.2799
  21   2.0000      -6.036347      -164.2573
  22   2.0000      -6.032998      -164.1662
  23   2.0000      -6.032888      -164.1632
  24   2.0000      -1.005189       -27.3526
  25   2.0000      -0.982309       -26.7300
  26   2.0000      -0.909399       -24.7460
  27   2.0000      -0.905813       -24.6484
  28   2.0000      -0.865714       -23.5573
  29   2.0000      -0.852232       -23.1904
  30   2.0000      -0.843505       -22.9529
  31   2.0000      -0.814176       -22.1549
  32   2.0000      -0.781996       -21.2792
  33   2.0000      -0.768119       -20.9016
  34   2.0000      -0.709398       -19.3037
  35   2.0000      -0.702591       -19.1185
  36   2.0000      -0.699475       -19.0337
  37   2.0000      -0.656536       -17.8653
  38   2.0000      -0.640355       -17.4249
  39   2.0000      -0.623545       -16.9675
  40   2.0000      -0.596376       -16.2282
  41   2.0000      -0.569580       -15.4991
  42   2.0000      -0.557611       -15.1734
  43   2.0000      -0.555836       -15.1251
  44   2.0000      -0.537387       -14.6230
  45   2.0000      -0.523359       -14.2413
  46   2.0000      -0.520202       -14.1554
  47   2.0000      -0.509979       -13.8772
  48   2.0000      -0.507570       -13.8117
  49   2.0000      -0.499462       -13.5911
  50   2.0000      -0.492238       -13.3945
  51   2.0000      -0.478728       -13.0268
  52   2.0000      -0.472072       -12.8457
  53   2.0000      -0.465146       -12.6573
  54   2.0000      -0.460346       -12.5266
  55   2.0000      -0.449894       -12.2423
  56   2.0000      -0.441942       -12.0258
  57   2.0000      -0.438989       -11.9455
  58   2.0000      -0.433096       -11.7851
  59   2.0000      -0.427175       -11.6240
  60   2.0000      -0.421672       -11.4743
  61   2.0000      -0.412538       -11.2257
  62   2.0000      -0.398676       -10.8485
  63   2.0000      -0.356590        -9.7033
  64   2.0000      -0.334285        -9.0963
  65   2.0000      -0.325958        -8.8698
  66   2.0000      -0.281541        -7.6611
  67   0.0000       0.016809         0.4574
  68   0.0000       0.073072         1.9884
  69   0.0000       0.095952         2.6110
  70   0.0000       0.121089         3.2950
  71   0.0000       0.133232         3.6254

MULLIKEN ATOMIC CHARGES
-----------------------
   0 S :    0.086419
   1 C :   -0.123681
   2 C :   -0.106428
   3 C :    0.012361
   4 C :   -0.093757
   5 H :    0.012523
   6 C :    0.060609
   7 H :    0.041762
   8 H :    0.012501
   9 C :   -0.064373
  10 H :    0.025900
  11 H :    0.031500
  12 C :   -0.060601
  13 H :    0.030155
  14 H :    0.035095
  15 H :    0.034691
  16 S :    0.100105
  17 C :   -0.082846
  18 C :   -0.027398
  19 C :   -0.090854
  20 C :   -0.136543
  21 H :    0.014411
  22 C :    0.058447
  23 H :    0.025667
  24 H :    0.005105
  25 C :   -0.039257
  26 H :   -0.002974
  27 H :    0.020261
  28 C :    0.016979
  29 H :    0.017176
  30 H :    0.043948
  31 H :    0.009399
  32 H :    0.071504
  33 H :    0.062193
Sum of atomic charges:    0.0000000

LOEWDIN ATOMIC CHARGES
----------------------
   0 S :    0.390689
   1 C :   -0.210306
   2 C :   -0.065663
   3 C :   -0.057398
   4 C :   -0.172160
   5 H :    0.025567
   6 C :   -0.031530
   7 H :    0.032840
   8 H :    0.028641
   9 C :   -0.032524
  10 H :    0.018894
  11 H :    0.025530
  12 C :   -0.071221
  13 H :    0.022493
  14 H :    0.031185
  15 H :    0.022959
  16 S :    0.412689
  17 C :   -0.192581
  18 C :   -0.071541
  19 C :   -0.055643
  20 C :   -0.201795
  21 H :    0.027980
  22 C :   -0.029168
  23 H :    0.033519
  24 H :    0.017186
  25 C :   -0.038601
  26 H :    0.011625
  27 H :    0.026724
  28 C :   -0.053599
  29 H :    0.021627
  30 H :    0.036219
  31 H :    0.019445
  32 H :    0.043792
  33 H :    0.034126

  Mayer bond orders larger than 0.100000
B(  0-S ,  1-C ) :   1.1202 B(  0-S ,  4-C ) :   1.1616 B(  1-C ,  2-C ) :   1.5806
B(  1-C ,  4-C ) :   0.1036 B(  1-C , 32-H ) :   0.9654 B(  2-C ,  3-C ) :   1.2628
B(  2-C ,  6-C ) :   1.0277 B(  3-C ,  4-C ) :   1.5241 B(  3-C ,  5-H ) :   0.9971
B(  4-C , 20-C ) :   1.0659 B(  6-C ,  7-H ) :   0.9427 B(  6-C ,  8-H ) :   0.9410
B(  6-C ,  9-C ) :   1.0552 B(  9-C , 10-H ) :   0.9587 B(  9-C , 11-H ) :   0.9574
B(  9-C , 12-C ) :   1.0823 B( 12-C , 13-H ) :   0.9769 B( 12-C , 14-H ) :   0.9756
B( 12-C , 15-H ) :   0.9779 B( 16-S , 17-C ) :   1.1698 B( 16-S , 20-C ) :   1.1490
B( 17-C , 18-C ) :   1.5637 B( 17-C , 33-H ) :   0.9693 B( 18-C , 19-C ) :   1.3015
B( 18-C , 21-H ) :   0.9865 B( 19-C , 20-C ) :   1.5403 B( 19-C , 22-C ) :   1.0221
B( 22-C , 23-H ) :   0.9335 B( 22-C , 24-H ) :   0.9452 B( 22-C , 25-C ) :   1.0734
B( 25-C , 26-H ) :   0.9576 B( 25-C , 27-H ) :   0.9546 B( 25-C , 28-C ) :   1.0630
B( 28-C , 29-H ) :   0.9768 B( 28-C , 30-H ) :   0.9742 B( 28-C , 31-H ) :   0.9716

Dispersion correction           -0.014325293
FINAL SINGLE POINT ENERGY     -1339.852056149532

DIPOLE MOMENT
-------------
                                X             Y             Z
Electronic contribution:     19.80942     -11.75339     -18.10978
Nuclear contribution   :    -20.31499      11.60630      18.69825
                        -----------------------------------------
Total Dipole Moment    :     -0.50556      -0.14710       0.58847
                        -----------------------------------------
Magnitude (a.u.)       :      0.78964
Magnitude (Debye)      :      2.00710

Rotational constants in cm-1:     0.018573     0.008880     0.006842
Rotational constants in MHz :   556.813107   266.228613   205.114449

                             ****ORCA TERMINATED NORMALLY****
TOTAL RUN TIME: 0 days 0 hours 0 minutes 20 seconds 680 msec
