                         Program Version 4.2.1 -  RELEASE  -
|  1> ! wB97X-D3 SP def2-SVP
|  2> %pal
|  3> nprocs 24
|  4> end
|  5>
|  6> * xyz 0 1
|  7> S 	 -128.248 	 57.9532 	 -59.5306
|  8> C 	 -127.99 	 57.0143 	 -61.041
|  9> C 	 -128.528 	 55.799 	 -60.838
| 10> C 	 -128.965 	 55.5694 	 -59.505
| 11> C 	 -129.03 	 56.6273 	 -58.7041
| 12> H 	 -129.355 	 54.5403 	 -59.2186
| 13> C 	 -128.515 	 54.6632 	 -61.8093
| 14> H 	 -128.269 	 55.0945 	 -62.7826
| 15> H 	 -129.607 	 54.2771 	 -61.7664
| 16> C 	 -127.486 	 53.5011 	 -61.5562
| 17> H 	 -127.536 	 52.8309 	 -60.7606
| 18> H 	 -127.678 	 52.8565 	 -62.441
| 19> C 	 -125.971 	 53.9276 	 -61.6019
| 20> H 	 -125.316 	 53.064 	 -61.8209
| 21> H 	 -125.764 	 54.5592 	 -62.4059
| 22> H 	 -125.687 	 54.3772 	 -60.6442
| 23> S 	 -128.449 	 56.4936 	 -56.0464
| 24> C 	 -129.611 	 56.8362 	 -54.9243
| 25> C 	 -130.788 	 57.2194 	 -55.5856
| 26> C 	 -130.826 	 57.0781 	 -56.9978
| 27> C 	 -129.582 	 56.7341 	 -57.3592
| 28> H 	 -131.674 	 57.6518 	 -55.0103
| 29> C 	 -132.124 	 57.3266 	 -57.7743
| 30> H 	 -132.961 	 56.9193 	 -57.2229
| 31> H 	 -132.059 	 56.8313 	 -58.734
| 32> C 	 -132.472 	 58.7943 	 -58.0739
| 33> H 	 -131.572 	 59.2192 	 -58.5044
| 34> H 	 -132.433 	 59.2972 	 -57.1042
| 35> C 	 -133.884 	 58.9449 	 -58.8604
| 36> H 	 -133.907 	 58.6515 	 -59.8773
| 37> H 	 -134.275 	 59.9609 	 -58.803
| 38> H 	 -134.623 	 58.4136 	 -58.3568
| 39> H 	 -127.779 	 57.4298 	 -62.0159
| 40> H 	 -129.658 	 56.5838 	 -53.8573
| 41> *
| 42>
| 43>                          ****END OF INPUT****

CARTESIAN COORDINATES (ANGSTROEM)
---------------------------------
  S    -128.248000   57.953200  -59.530600
  C    -127.990000   57.014300  -61.041000
  C    -128.528000   55.799000  -60.838000
  C    -128.965000   55.569400  -59.505000
  C    -129.030000   56.627300  -58.704100
  H    -129.355000   54.540300  -59.218600
  C    -128.515000   54.663200  -61.809300
  H    -128.269000   55.094500  -62.782600
  H    -129.607000   54.277100  -61.766400
  C    -127.486000   53.501100  -61.556200
  H    -127.536000   52.830900  -60.760600
  H    -127.678000   52.856500  -62.441000
  C    -125.971000   53.927600  -61.601900
  H    -125.316000   53.064000  -61.820900
  H    -125.764000   54.559200  -62.405900
  H    -125.687000   54.377200  -60.644200
  S    -128.449000   56.493600  -56.046400
  C    -129.611000   56.836200  -54.924300
  C    -130.788000   57.219400  -55.585600
  C    -130.826000   57.078100  -56.997800
  C    -129.582000   56.734100  -57.359200
  H    -131.674000   57.651800  -55.010300
  C    -132.124000   57.326600  -57.774300
  H    -132.961000   56.919300  -57.222900
  H    -132.059000   56.831300  -58.734000
  C    -132.472000   58.794300  -58.073900
  H    -131.572000   59.219200  -58.504400
  H    -132.433000   59.297200  -57.104200
  C    -133.884000   58.944900  -58.860400
  H    -133.907000   58.651500  -59.877300
  H    -134.275000   59.960900  -58.803000
  H    -134.623000   58.413600  -58.356800
  H    -127.779000   57.429800  -62.015900
  H    -129.658000   56.583800  -53.857300

 Total Charge           Charge          ....    0
 Multiplicity           Mult            ....    1
 Number of Electrons    NEL             ....  134
 Basis Dimension        Dim             ....  322

ORBITAL ENERGIES
----------------

  NO   OCC          E(Eh)            E(eV)
   0   2.0000     -88.966528     -2420.9023
   1   2.0000     -88.956525     -2420.6301
   2   2.0000     -10.322072      -280.8778
   3   2.0000     -10.321822      -280.8711
   4   2.0000     -10.312436      -280.6157
   5   2.0000     -10.311540      -280.5913
   6   2.0000     -10.302206      -280.3373
   7   2.0000     -10.301454      -280.3168
   8   2.0000     -10.294462      -280.1266
   9   2.0000     -10.292943      -280.0852
  10   2.0000     -10.290966      -280.0314
  11   2.0000     -10.290702      -280.0242
  12   2.0000     -10.289539      -279.9926
  13   2.0000     -10.287835      -279.9462
  14   2.0000     -10.279673      -279.7241
  15   2.0000     -10.274280      -279.5774
  16   2.0000      -8.083252      -219.9565
  17   2.0000      -8.071114      -219.6262
  18   2.0000      -6.041602      -164.4003
  19   2.0000      -6.037412      -164.2863
  20   2.0000      -6.034101      -164.1962
  21   2.0000      -6.029873      -164.0812
  22   2.0000      -6.025619      -163.9654
  23   2.0000      -6.021605      -163.8562
  24   2.0000      -1.018274       -27.7087
  25   2.0000      -0.993344       -27.0303
  26   2.0000      -0.909622       -24.7521
  27   2.0000      -0.905899       -24.6508
  28   2.0000      -0.868952       -23.6454
  29   2.0000      -0.852258       -23.1911
  30   2.0000      -0.838541       -22.8179
  31   2.0000      -0.810674       -22.0596
  32   2.0000      -0.791330       -21.5332
  33   2.0000      -0.774238       -21.0681
  34   2.0000      -0.712471       -19.3873
  35   2.0000      -0.704109       -19.1598
  36   2.0000      -0.696906       -18.9638
  37   2.0000      -0.661043       -17.9879
  38   2.0000      -0.634947       -17.2778
  39   2.0000      -0.620622       -16.8880
  40   2.0000      -0.601373       -16.3642
  41   2.0000      -0.563907       -15.3447
  42   2.0000      -0.559558       -15.2263
  43   2.0000      -0.544567       -14.8184
  44   2.0000      -0.536687       -14.6040
  45   2.0000      -0.518532       -14.1100
  46   2.0000      -0.516673       -14.0594
  47   2.0000      -0.512710       -13.9516
  48   2.0000      -0.504218       -13.7205
  49   2.0000      -0.501581       -13.6487
  50   2.0000      -0.486332       -13.2338
  51   2.0000      -0.482486       -13.1291
  52   2.0000      -0.472703       -12.8629
  53   2.0000      -0.464137       -12.6298
  54   2.0000      -0.461587       -12.5604
  55   2.0000      -0.446863       -12.1598
  56   2.0000      -0.439293       -11.9538
  57   2.0000      -0.437094       -11.8939
  58   2.0000      -0.432047       -11.7566
  59   2.0000      -0.428397       -11.6573
  60   2.0000      -0.426828       -11.6146
  61   2.0000      -0.418883       -11.3984
  62   2.0000      -0.400774       -10.9056
  63   2.0000      -0.339163        -9.2291
  64   2.0000      -0.329919        -8.9775
  65   2.0000      -0.321311        -8.7433
  66   2.0000      -0.312014        -8.4903
  67   0.0000       0.049941         1.3590
  68   0.0000       0.058160         1.5826
  69   0.0000       0.119634         3.2554
  70   0.0000       0.121773         3.3136
  71   0.0000       0.127556         3.4710

MULLIKEN ATOMIC CHARGES
-----------------------
   0 S :    0.077544
   1 C :   -0.117809
   2 C :   -0.097357
   3 C :    0.015505
   4 C :   -0.132808
   5 H :    0.026790
   6 C :    0.048786
   7 H :    0.016137
   8 H :    0.049805
   9 C :   -0.064112
  10 H :    0.022221
  11 H :    0.029619
  12 C :   -0.053824
  13 H :    0.032537
  14 H :    0.010506
  15 H :    0.052053
  16 S :    0.148969
  17 C :   -0.084502
  18 C :   -0.104073
  19 C :    0.024050
  20 C :   -0.240699
  21 H :    0.033556
  22 C :    0.096671
  23 H :    0.021795
  24 H :    0.022584
  25 C :   -0.073529
  26 H :    0.025627
  27 H :    0.015942
  28 C :   -0.006946
  29 H :    0.037437
  30 H :    0.032580
  31 H :    0.010704
  32 H :    0.051653
  33 H :    0.072587
Sum of atomic charges:    0.0000000

LOEWDIN ATOMIC CHARGES
----------------------
   0 S :    0.370788
   1 C :   -0.182668
   2 C :   -0.078857
   3 C :   -0.073335
   4 C :   -0.193007
   5 H :    0.039347
   6 C :   -0.031629
   7 H :    0.028577
   8 H :    0.044080
   9 C :   -0.036679
  10 H :    0.014771
  11 H :    0.029382
  12 C :   -0.062285
  13 H :    0.030949
  14 H :    0.012173
  15 H :    0.030017
  16 S :    0.456024
  17 C :   -0.232504
  18 C :   -0.080493
  19 C :   -0.051827
  20 C :   -0.201063
  21 H :    0.033331
  22 C :   -0.023653
  23 H :    0.029132
  24 H :    0.029644
  25 C :   -0.036040
  26 H :    0.023148
  27 H :    0.021993
  28 C :   -0.056054
  29 H :    0.024197
  30 H :    0.031727
  31 H :    0.017759
  32 H :    0.031554
  33 H :    0.041499

  Mayer bond orders larger than 0.100000
B(  0-S ,  1-C ) :   1.1067 B(  0-S ,  4-C ) :   1.1303 B(  1-C ,  2-C ) :   1.6533
B(  1-C , 32-H ) :   0.9636 B(  2-C ,  3-C ) :   1.2072 B(  2-C ,  6-C ) :   1.0339
B(  3-C ,  4-C ) :   1.6440 B(  3-C ,  5-H ) :   0.9850 B(  4-C , 20-C ) :   0.9785
B(  6-C ,  7-H ) :   0.9402 B(  6-C ,  8-H ) :   0.9369 B(  6-C ,  9-C ) :   1.0576
B(  9-C , 10-H ) :   0.9642 B(  9-C , 11-H ) :   0.9575 B(  9-C , 12-C ) :   1.0689
B( 12-C , 13-H ) :   0.9742 B( 12-C , 14-H ) :   0.9771 B( 12-C , 15-H ) :   0.9775
B( 16-S , 17-C ) :   1.1719 B( 16-S , 20-C ) :   1.1771 B( 17-C , 18-C ) :   1.5902
B( 17-C , 33-H ) :   0.9620 B( 18-C , 19-C ) :   1.2527 B( 18-C , 21-H ) :   0.9700
B( 19-C , 20-C ) :   1.6102 B( 19-C , 22-C ) :   1.0411 B( 22-C , 23-H ) :   0.9320
B( 22-C , 24-H ) :   0.9285 B( 22-C , 25-C ) :   1.0662 B( 25-C , 26-H ) :   0.9553
B( 25-C , 27-H ) :   0.9578 B( 25-C , 28-C ) :   1.0539 B( 28-C , 29-H ) :   0.9805
B( 28-C , 30-H ) :   0.9764 B( 28-C , 31-H ) :   0.9740

Dispersion correction           -0.014234372
FINAL SINGLE POINT ENERGY     -1339.850180238150

DIPOLE MOMENT
-------------
                                X             Y             Z
Electronic contribution:     10.24791       5.87558      14.28629
Nuclear contribution   :    -10.75821      -6.24698     -14.51368
                        -----------------------------------------
Total Dipole Moment    :     -0.51030      -0.37140      -0.22739
                        -----------------------------------------
Magnitude (a.u.)       :      0.67086
Magnitude (Debye)      :      1.70519

Rotational constants in cm-1:     0.019220     0.008284     0.006763
Rotational constants in MHz :   576.190306   248.334592   202.739729

                             ****ORCA TERMINATED NORMALLY****
TOTAL RUN TIME: 0 days 0 hours 0 minutes 21 seconds 131 msec
