                         Program Version 4.2.1 -  RELEASE  -
|  1> ! wB97X-D3 SP def2-SVP
|  2> %pal
|  3> nprocs 24
|  4> end
|  5>
|  6> * xyz 0 1
|  7> S 	 -100.079 	 -25.5629 	 -65.9622
|  8> C 	 -99.8655 	 -23.8434 	 -65.8036
|  9> C 	 -98.8104 	 -23.5322 	 -64.9522
| 10> C 	 -98.4091 	 -24.6837 	 -64.173
| 11> C 	 -98.9077 	 -25.8694 	 -64.7386
| 12> H 	 -97.7981 	 -24.8174 	 -63.3358
| 13> C 	 -98.2447 	 -22.1184 	 -64.7397
| 14> H 	 -98.1167 	 -21.9565 	 -63.7219
| 15> H 	 -98.9962 	 -21.4224 	 -65.1708
| 16> C 	 -96.7935 	 -21.886 	 -65.3397
| 17> H 	 -96.7689 	 -22.2176 	 -66.373
| 18> H 	 -96.6598 	 -20.8301 	 -65.3747
| 19> C 	 -95.6379 	 -22.5895 	 -64.585
| 20> H 	 -94.7585 	 -22.7143 	 -65.2709
| 21> H 	 -95.4288 	 -22.1081 	 -63.6666
| 22> H 	 -95.8492 	 -23.6418 	 -64.396
| 23> S 	 -99.8324 	 -28.0124 	 -63.2477
| 24> C 	 -98.8387 	 -29.4236 	 -62.9908
| 25> C 	 -97.6192 	 -29.2274 	 -63.5742
| 26> C 	 -97.4513 	 -27.9029 	 -64.0999
| 27> C 	 -98.6139 	 -27.1864 	 -64.2229
| 28> H 	 -96.8993 	 -29.9514 	 -63.4147
| 29> C 	 -96.0905 	 -27.4183 	 -64.6249
| 30> H 	 -96.3783 	 -26.6025 	 -65.3674
| 31> H 	 -95.7888 	 -28.3416 	 -65.1298
| 32> C 	 -95.0771 	 -27.0049 	 -63.583
| 33> H 	 -94.7086 	 -27.8467 	 -63.0561
| 34> H 	 -95.6068 	 -26.3728 	 -62.847
| 35> C 	 -93.978 	 -26.166 	 -64.204
| 36> H 	 -93.3984 	 -26.7873 	 -64.9165
| 37> H 	 -93.3588 	 -25.8112 	 -63.4497
| 38> H 	 -94.3225 	 -25.3808 	 -64.769
| 39> H 	 -100.185 	 -23.1223 	 -66.5231
| 40> H 	 -99.3121 	 -30.2693 	 -62.5186
| 41> *
| 42>
| 43>                          ****END OF INPUT****

CARTESIAN COORDINATES (ANGSTROEM)
---------------------------------
  S    -100.079000  -25.562900  -65.962200
  C    -99.865500  -23.843400  -65.803600
  C    -98.810400  -23.532200  -64.952200
  C    -98.409100  -24.683700  -64.173000
  C    -98.907700  -25.869400  -64.738600
  H    -97.798100  -24.817400  -63.335800
  C    -98.244700  -22.118400  -64.739700
  H    -98.116700  -21.956500  -63.721900
  H    -98.996200  -21.422400  -65.170800
  C    -96.793500  -21.886000  -65.339700
  H    -96.768900  -22.217600  -66.373000
  H    -96.659800  -20.830100  -65.374700
  C    -95.637900  -22.589500  -64.585000
  H    -94.758500  -22.714300  -65.270900
  H    -95.428800  -22.108100  -63.666600
  H    -95.849200  -23.641800  -64.396000
  S    -99.832400  -28.012400  -63.247700
  C    -98.838700  -29.423600  -62.990800
  C    -97.619200  -29.227400  -63.574200
  C    -97.451300  -27.902900  -64.099900
  C    -98.613900  -27.186400  -64.222900
  H    -96.899300  -29.951400  -63.414700
  C    -96.090500  -27.418300  -64.624900
  H    -96.378300  -26.602500  -65.367400
  H    -95.788800  -28.341600  -65.129800
  C    -95.077100  -27.004900  -63.583000
  H    -94.708600  -27.846700  -63.056100
  H    -95.606800  -26.372800  -62.847000
  C    -93.978000  -26.166000  -64.204000
  H    -93.398400  -26.787300  -64.916500
  H    -93.358800  -25.811200  -63.449700
  H    -94.322500  -25.380800  -64.769000
  H    -100.185000  -23.122300  -66.523100
  H    -99.312100  -30.269300  -62.518600

 Total Charge           Charge          ....    0
 Multiplicity           Mult            ....    1
 Number of Electrons    NEL             ....  134
 Basis Dimension        Dim             ....  322

ORBITAL ENERGIES
----------------

  NO   OCC          E(Eh)            E(eV)
   0   2.0000     -88.968973     -2420.9688
   1   2.0000     -88.954673     -2420.5797
   2   2.0000     -10.327274      -281.0194
   3   2.0000     -10.320744      -280.8417
   4   2.0000     -10.316798      -280.7344
   5   2.0000     -10.311746      -280.5969
   6   2.0000     -10.306963      -280.4667
   7   2.0000     -10.301290      -280.3123
   8   2.0000     -10.295083      -280.1435
   9   2.0000     -10.295035      -280.1421
  10   2.0000     -10.291293      -280.0403
  11   2.0000     -10.289203      -279.9834
  12   2.0000     -10.288479      -279.9638
  13   2.0000     -10.283610      -279.8312
  14   2.0000     -10.281648      -279.7779
  15   2.0000     -10.267346      -279.3887
  16   2.0000      -8.084114      -219.9799
  17   2.0000      -8.070102      -219.5986
  18   2.0000      -6.042536      -164.4258
  19   2.0000      -6.038521      -164.3165
  20   2.0000      -6.034975      -164.2200
  21   2.0000      -6.028583      -164.0461
  22   2.0000      -6.024456      -163.9338
  23   2.0000      -6.020896      -163.8369
  24   2.0000      -1.008281       -27.4367
  25   2.0000      -0.985611       -26.8198
  26   2.0000      -0.912678       -24.8352
  27   2.0000      -0.906822       -24.6759
  28   2.0000      -0.872786       -23.7497
  29   2.0000      -0.852038       -23.1851
  30   2.0000      -0.846227       -23.0270
  31   2.0000      -0.816869       -22.2281
  32   2.0000      -0.784221       -21.3397
  33   2.0000      -0.774547       -21.0765
  34   2.0000      -0.707057       -19.2400
  35   2.0000      -0.705163       -19.1885
  36   2.0000      -0.697306       -18.9746
  37   2.0000      -0.664555       -18.0835
  38   2.0000      -0.649249       -17.6670
  39   2.0000      -0.609884       -16.5958
  40   2.0000      -0.593720       -16.1560
  41   2.0000      -0.579245       -15.7620
  42   2.0000      -0.571978       -15.5643
  43   2.0000      -0.547129       -14.8881
  44   2.0000      -0.542413       -14.7598
  45   2.0000      -0.533661       -14.5217
  46   2.0000      -0.523190       -14.2367
  47   2.0000      -0.512609       -13.9488
  48   2.0000      -0.509377       -13.8609
  49   2.0000      -0.495762       -13.4904
  50   2.0000      -0.493470       -13.4280
  51   2.0000      -0.487892       -13.2762
  52   2.0000      -0.473411       -12.8822
  53   2.0000      -0.466371       -12.6906
  54   2.0000      -0.460223       -12.5233
  55   2.0000      -0.447729       -12.1833
  56   2.0000      -0.443209       -12.0603
  57   2.0000      -0.436439       -11.8761
  58   2.0000      -0.435038       -11.8380
  59   2.0000      -0.429200       -11.6791
  60   2.0000      -0.424786       -11.5590
  61   2.0000      -0.420507       -11.4426
  62   2.0000      -0.403700       -10.9852
  63   2.0000      -0.338315        -9.2060
  64   2.0000      -0.328111        -8.9284
  65   2.0000      -0.321149        -8.7389
  66   2.0000      -0.304665        -8.2904
  67   0.0000       0.035274         0.9599
  68   0.0000       0.063544         1.7291
  69   0.0000       0.118438         3.2229
  70   0.0000       0.122578         3.3355
  71   0.0000       0.126507         3.4424

MULLIKEN ATOMIC CHARGES
-----------------------
   0 S :    0.131060
   1 C :   -0.097792
   2 C :   -0.112919
   3 C :    0.066890
   4 C :   -0.197280
   5 H :   -0.002141
   6 C :    0.083516
   7 H :    0.014030
   8 H :    0.029419
   9 C :   -0.060151
  10 H :    0.024961
  11 H :    0.028095
  12 C :   -0.060320
  13 H :    0.044840
  14 H :    0.033858
  15 H :    0.023163
  16 S :    0.079782
  17 C :   -0.098610
  18 C :    0.012879
  19 C :   -0.060802
  20 C :   -0.148096
  21 H :   -0.005402
  22 C :    0.024325
  23 H :    0.045365
  24 H :    0.028919
  25 C :   -0.048271
  26 H :    0.020442
  27 H :    0.022179
  28 C :    0.024547
  29 H :    0.021462
  30 H :    0.020793
  31 H :    0.000076
  32 H :    0.045774
  33 H :    0.065410
Sum of atomic charges:    0.0000000

LOEWDIN ATOMIC CHARGES
----------------------
   0 S :    0.431193
   1 C :   -0.206979
   2 C :   -0.053990
   3 C :   -0.050073
   4 C :   -0.209362
   5 H :    0.021326
   6 C :   -0.023463
   7 H :    0.020633
   8 H :    0.034600
   9 C :   -0.032897
  10 H :    0.022730
  11 H :    0.020446
  12 C :   -0.066998
  13 H :    0.035964
  14 H :    0.019997
  15 H :    0.022340
  16 S :    0.389197
  17 C :   -0.169603
  18 C :   -0.073624
  19 C :   -0.053077
  20 C :   -0.205715
  21 H :    0.019653
  22 C :   -0.035525
  23 H :    0.038631
  24 H :    0.031837
  25 C :   -0.035414
  26 H :    0.020640
  27 H :    0.022973
  28 C :   -0.048417
  29 H :    0.029471
  30 H :    0.019228
  31 H :    0.011537
  32 H :    0.024176
  33 H :    0.028566

  Mayer bond orders larger than 0.100000
B(  0-S ,  1-C ) :   1.1408 B(  0-S ,  4-C ) :   1.1714 B(  1-C ,  2-C ) :   1.6268
B(  1-C , 32-H ) :   0.9599 B(  2-C ,  3-C ) :   1.2104 B(  2-C ,  6-C ) :   1.0328
B(  3-C ,  4-C ) :   1.5655 B(  3-C ,  5-H ) :   0.9943 B(  4-C , 20-C ) :   1.0239
B(  6-C ,  7-H ) :   0.9418 B(  6-C ,  8-H ) :   0.9428 B(  6-C ,  9-C ) :   1.0551
B(  9-C , 10-H ) :   0.9597 B(  9-C , 11-H ) :   0.9588 B(  9-C , 12-C ) :   1.0750
B( 12-C , 13-H ) :   0.9729 B( 12-C , 14-H ) :   0.9720 B( 12-C , 15-H ) :   0.9685
B( 16-S , 17-C ) :   1.1704 B( 16-S , 20-C ) :   1.1278 B( 17-C , 18-C ) :   1.5937
B( 17-C , 33-H ) :   0.9708 B( 18-C , 19-C ) :   1.2249 B( 18-C , 21-H ) :   1.0032
B( 19-C , 20-C ) :   1.6197 B( 19-C , 22-C ) :   1.0309 B( 22-C , 23-H ) :   0.9410
B( 22-C , 24-H ) :   0.9330 B( 22-C , 25-C ) :   1.0639 B( 25-C , 26-H ) :   0.9475
B( 25-C , 27-H ) :   0.9544 B( 25-C , 28-C ) :   1.0957 B( 28-C , 29-H ) :   0.9666
B( 28-C , 30-H ) :   0.9719 B( 28-C , 31-H ) :   0.9701

Dispersion correction           -0.015880277
FINAL SINGLE POINT ENERGY     -1339.866535639227

DIPOLE MOMENT
-------------
                                X             Y             Z
Electronic contribution:    -27.48963     -14.52980      -0.73161
Nuclear contribution   :     28.17713      14.78322       0.83202
                        -----------------------------------------
Total Dipole Moment    :      0.68751       0.25342       0.10041
                        -----------------------------------------
Magnitude (a.u.)       :      0.73957
Magnitude (Debye)      :      1.87984

Rotational constants in cm-1:     0.017150     0.010822     0.007265
Rotational constants in MHz :   514.151440   324.441602   217.798498

                             ****ORCA TERMINATED NORMALLY****
TOTAL RUN TIME: 0 days 0 hours 0 minutes 23 seconds 170 msec
