                         Program Version 4.2.1 -  RELEASE  -
|  1> ! wB97X-D3 SP def2-SVP
|  2> %pal
|  3> nprocs 24
|  4> end
|  5>
|  6> * xyz 0 1
|  7> S 	 -39.6079 	 17.52 	 12.3963
|  8> C 	 -39.6467 	 16.0428 	 13.3206
|  9> C 	 -38.7964 	 16.1679 	 14.4258
| 10> C 	 -38.1207 	 17.4319 	 14.4488
| 11> C 	 -38.3637 	 18.2192 	 13.3376
| 12> H 	 -37.3996 	 17.7475 	 15.261
| 13> C 	 -38.7298 	 15.1185 	 15.5304
| 14> H 	 -39.3476 	 14.2595 	 15.1198
| 15> H 	 -39.2861 	 15.396 	 16.4171
| 16> C 	 -37.3374 	 14.6398 	 16.0451
| 17> H 	 -37.0422 	 14.1503 	 15.1896
| 18> H 	 -36.6169 	 15.4869 	 16.1807
| 19> C 	 -37.165 	 13.6025 	 17.1928
| 20> H 	 -36.4968 	 12.7691 	 16.9088
| 21> H 	 -36.5291 	 14.0158 	 17.9954
| 22> H 	 -38.0916 	 13.3062 	 17.607
| 23> S 	 -39.0174 	 20.8061 	 12.6703
| 24> C 	 -37.7672 	 22.076 	 12.6325
| 25> C 	 -36.5566 	 21.5674 	 13.0173
| 26> C 	 -36.6243 	 20.1663 	 13.3085
| 27> C 	 -37.8916 	 19.5858 	 13.1086
| 28> H 	 -35.6103 	 22.142 	 13.0434
| 29> C 	 -35.3624 	 19.3484 	 13.6418
| 30> H 	 -34.6642 	 19.2883 	 12.7554
| 31> H 	 -35.7091 	 18.3736 	 13.6962
| 32> C 	 -34.6378 	 19.7506 	 14.9407
| 33> H 	 -34.5034 	 20.8301 	 14.9169
| 34> H 	 -33.5939 	 19.4618 	 14.9045
| 35> C 	 -35.32 	 19.1876 	 16.1863
| 36> H 	 -36.3373 	 19.5567 	 16.2809
| 37> H 	 -34.7811 	 19.5169 	 17.0848
| 38> H 	 -35.2057 	 18.0996 	 16.1436
| 39> H 	 -40.116 	 15.1419 	 13.0519
| 40> H 	 -38.0066 	 23.0627 	 12.5908
| 41> *
| 42>
| 43>                          ****END OF INPUT****

CARTESIAN COORDINATES (ANGSTROEM)
---------------------------------
  S    -39.607900   17.520000   12.396300
  C    -39.646700   16.042800   13.320600
  C    -38.796400   16.167900   14.425800
  C    -38.120700   17.431900   14.448800
  C    -38.363700   18.219200   13.337600
  H    -37.399600   17.747500   15.261000
  C    -38.729800   15.118500   15.530400
  H    -39.347600   14.259500   15.119800
  H    -39.286100   15.396000   16.417100
  C    -37.337400   14.639800   16.045100
  H    -37.042200   14.150300   15.189600
  H    -36.616900   15.486900   16.180700
  C    -37.165000   13.602500   17.192800
  H    -36.496800   12.769100   16.908800
  H    -36.529100   14.015800   17.995400
  H    -38.091600   13.306200   17.607000
  S    -39.017400   20.806100   12.670300
  C    -37.767200   22.076000   12.632500
  C    -36.556600   21.567400   13.017300
  C    -36.624300   20.166300   13.308500
  C    -37.891600   19.585800   13.108600
  H    -35.610300   22.142000   13.043400
  C    -35.362400   19.348400   13.641800
  H    -34.664200   19.288300   12.755400
  H    -35.709100   18.373600   13.696200
  C    -34.637800   19.750600   14.940700
  H    -34.503400   20.830100   14.916900
  H    -33.593900   19.461800   14.904500
  C    -35.320000   19.187600   16.186300
  H    -36.337300   19.556700   16.280900
  H    -34.781100   19.516900   17.084800
  H    -35.205700   18.099600   16.143600
  H    -40.116000   15.141900   13.051900
  H    -38.006600   23.062700   12.590800

 Total Charge           Charge          ....    0
 Multiplicity           Mult            ....    1
 Number of Electrons    NEL             ....  134
 Basis Dimension        Dim             ....  322

ORBITAL ENERGIES
----------------

  NO   OCC          E(Eh)            E(eV)
   0   2.0000     -88.968548     -2420.9573
   1   2.0000     -88.965181     -2420.8657
   2   2.0000     -10.330975      -281.1201
   3   2.0000     -10.329724      -281.0861
   4   2.0000     -10.314518      -280.6723
   5   2.0000     -10.313471      -280.6438
   6   2.0000     -10.306650      -280.4582
   7   2.0000     -10.303223      -280.3649
   8   2.0000     -10.299649      -280.2677
   9   2.0000     -10.298055      -280.2243
  10   2.0000     -10.297917      -280.2206
  11   2.0000     -10.286257      -279.9033
  12   2.0000     -10.285770      -279.8900
  13   2.0000     -10.284981      -279.8686
  14   2.0000     -10.282280      -279.7951
  15   2.0000     -10.282142      -279.7913
  16   2.0000      -8.083968      -219.9760
  17   2.0000      -8.080177      -219.8728
  18   2.0000      -6.042430      -164.4229
  19   2.0000      -6.038756      -164.3229
  20   2.0000      -6.038269      -164.3096
  21   2.0000      -6.034832      -164.2161
  22   2.0000      -6.034527      -164.2078
  23   2.0000      -6.030966      -164.1109
  24   2.0000      -1.011534       -27.5253
  25   2.0000      -0.986418       -26.8418
  26   2.0000      -0.908403       -24.7189
  27   2.0000      -0.906430       -24.6652
  28   2.0000      -0.872936       -23.7538
  29   2.0000      -0.849199       -23.1079
  30   2.0000      -0.844582       -22.9822
  31   2.0000      -0.819836       -22.3089
  32   2.0000      -0.783700       -21.3256
  33   2.0000      -0.773514       -21.0484
  34   2.0000      -0.712695       -19.3934
  35   2.0000      -0.705669       -19.2022
  36   2.0000      -0.697192       -18.9715
  37   2.0000      -0.656833       -17.8733
  38   2.0000      -0.641859       -17.4659
  39   2.0000      -0.619593       -16.8600
  40   2.0000      -0.600204       -16.3324
  41   2.0000      -0.572755       -15.5854
  42   2.0000      -0.555831       -15.1249
  43   2.0000      -0.553390       -15.0585
  44   2.0000      -0.540939       -14.7197
  45   2.0000      -0.531979       -14.4759
  46   2.0000      -0.523902       -14.2561
  47   2.0000      -0.511937       -13.9305
  48   2.0000      -0.502094       -13.6627
  49   2.0000      -0.500696       -13.6246
  50   2.0000      -0.497329       -13.5330
  51   2.0000      -0.477925       -13.0050
  52   2.0000      -0.470718       -12.8089
  53   2.0000      -0.469458       -12.7746
  54   2.0000      -0.462507       -12.5854
  55   2.0000      -0.451129       -12.2758
  56   2.0000      -0.445962       -12.1352
  57   2.0000      -0.433041       -11.7836
  58   2.0000      -0.430891       -11.7251
  59   2.0000      -0.426065       -11.5938
  60   2.0000      -0.421933       -11.4814
  61   2.0000      -0.411817       -11.2061
  62   2.0000      -0.406778       -11.0690
  63   2.0000      -0.356459        -9.6998
  64   2.0000      -0.332082        -9.0364
  65   2.0000      -0.328795        -8.9470
  66   2.0000      -0.289340        -7.8733
  67   0.0000       0.026792         0.7290
  68   0.0000       0.072542         1.9740
  69   0.0000       0.109476         2.9790
  70   0.0000       0.119607         3.2547
  71   0.0000       0.127309         3.4643

MULLIKEN ATOMIC CHARGES
-----------------------
   0 S :    0.114370
   1 C :   -0.101737
   2 C :   -0.095820
   3 C :    0.021627
   4 C :   -0.148854
   5 H :    0.011038
   6 C :    0.057101
   7 H :    0.019710
   8 H :    0.037768
   9 C :   -0.098295
  10 H :    0.015415
  11 H :    0.038915
  12 C :   -0.033421
  13 H :    0.037883
  14 H :    0.026484
  15 H :    0.029219
  16 S :    0.093771
  17 C :   -0.058757
  18 C :   -0.021590
  19 C :   -0.083267
  20 C :   -0.120950
  21 H :    0.037441
  22 C :    0.069400
  23 H :    0.043686
  24 H :   -0.012519
  25 C :   -0.061596
  26 H :    0.015435
  27 H :    0.017547
  28 C :   -0.047435
  29 H :    0.057655
  30 H :    0.032897
  31 H :    0.042613
  32 H :    0.036118
  33 H :    0.028148
Sum of atomic charges:   -0.0000000

LOEWDIN ATOMIC CHARGES
----------------------
   0 S :    0.431595
   1 C :   -0.195869
   2 C :   -0.059457
   3 C :   -0.072063
   4 C :   -0.206315
   5 H :    0.039662
   6 C :   -0.033867
   7 H :    0.034114
   8 H :    0.027478
   9 C :   -0.050763
  10 H :    0.016162
  11 H :    0.027517
  12 C :   -0.066377
  13 H :    0.033935
  14 H :    0.031057
  15 H :    0.019716
  16 S :    0.406259
  17 C :   -0.160908
  18 C :   -0.065617
  19 C :   -0.062407
  20 C :   -0.206174
  21 H :    0.039924
  22 C :   -0.032548
  23 H :    0.039280
  24 H :    0.014380
  25 C :   -0.042563
  26 H :    0.018937
  27 H :    0.023268
  28 C :   -0.064372
  29 H :    0.028620
  30 H :    0.029613
  31 H :    0.027525
  32 H :    0.021116
  33 H :    0.009144

  Mayer bond orders larger than 0.100000
B(  0-S ,  1-C ) :   1.1459 B(  0-S ,  4-C ) :   1.1724 B(  1-C ,  2-C ) :   1.5801
B(  1-C , 32-H ) :   0.9729 B(  2-C ,  3-C ) :   1.2706 B(  2-C ,  6-C ) :   1.0307
B(  3-C ,  4-C ) :   1.5364 B(  3-C ,  5-H ) :   0.9732 B(  4-C , 20-C ) :   1.0336
B(  6-C ,  7-H ) :   0.9444 B(  6-C ,  8-H ) :   0.9384 B(  6-C ,  9-C ) :   1.0385
B(  9-C , 10-H ) :   0.9639 B(  9-C , 11-H ) :   0.9624 B(  9-C , 12-C ) :   1.0673
B( 12-C , 13-H ) :   0.9792 B( 12-C , 14-H ) :   0.9763 B( 12-C , 15-H ) :   0.9791
B( 16-S , 17-C ) :   1.1479 B( 16-S , 20-C ) :   1.1539 B( 17-C , 18-C ) :   1.5937
B( 17-C , 33-H ) :   0.9807 B( 18-C , 19-C ) :   1.2640 B( 18-C , 21-H ) :   0.9825
B( 19-C , 20-C ) :   1.5738 B( 19-C , 22-C ) :   1.0361 B( 22-C , 23-H ) :   0.9391
B( 22-C , 24-H ) :   0.9338 B( 22-C , 25-C ) :   1.0587 B( 25-C , 26-H ) :   0.9586
B( 25-C , 27-H ) :   0.9519 B( 25-C , 28-C ) :   1.0829 B( 28-C , 29-H ) :   0.9653
B( 28-C , 30-H ) :   0.9665 B( 28-C , 31-H ) :   0.9665

Dispersion correction           -0.014594185
FINAL SINGLE POINT ENERGY     -1339.866574379243

DIPOLE MOMENT
-------------
                                X             Y             Z
Electronic contribution:    -18.82670      15.52878     -21.91382
Nuclear contribution   :     19.38553     -15.72807      22.40740
                        -----------------------------------------
Total Dipole Moment    :      0.55883      -0.19929       0.49359
                        -----------------------------------------
Magnitude (a.u.)       :      0.77177
Magnitude (Debye)      :      1.96169

Rotational constants in cm-1:     0.018863     0.009207     0.006542
Rotational constants in MHz :   565.494569   276.017324   196.127190

                             ****ORCA TERMINATED NORMALLY****
TOTAL RUN TIME: 0 days 0 hours 0 minutes 22 seconds 28 msec
