                         Program Version 4.2.1 -  RELEASE  -
|  1> ! wB97X-D3 SP def2-SVP
|  2> %pal
|  3> nprocs 24
|  4> end
|  5>
|  6> * xyz 0 1
|  7> S 	 -100.869 	 57.3007 	 -101.396
|  8> C 	 -100.297 	 56.3459 	 -100.052
|  9> C 	 -101.339 	 56.0911 	 -99.0986
| 10> C 	 -102.516 	 56.86 	 -99.5033
| 11> C 	 -102.408 	 57.5073 	 -100.692
| 12> H 	 -103.431 	 57.0669 	 -98.9285
| 13> C 	 -101.249 	 55.2366 	 -97.8555
| 14> H 	 -102.093 	 55.5753 	 -97.2065
| 15> H 	 -100.314 	 55.6109 	 -97.3465
| 16> C 	 -101.424 	 53.6976 	 -97.8626
| 17> H 	 -100.721 	 53.1282 	 -98.4742
| 18> H 	 -101.277 	 53.3187 	 -96.8499
| 19> C 	 -102.763 	 53.3839 	 -98.5631
| 20> H 	 -102.64 	 53.7291 	 -99.5684
| 21> H 	 -103.179 	 52.3161 	 -98.4757
| 22> H 	 -103.519 	 54.0921 	 -98.2865
| 23> S 	 -102.82 	 60.1533 	 -101.017
| 24> C 	 -104.266 	 60.5465 	 -101.865
| 25> C 	 -105.103 	 59.4514 	 -102.152
| 26> C 	 -104.556 	 58.2614 	 -101.685
| 27> C 	 -103.308 	 58.4722 	 -101.202
| 28> H 	 -106.104 	 59.6632 	 -102.545
| 29> C 	 -105.255 	 56.957 	 -101.792
| 30> H 	 -106.274 	 57.1825 	 -102.199
| 31> H 	 -105.352 	 56.6443 	 -100.758
| 32> C 	 -104.844 	 55.8729 	 -102.828
| 33> H 	 -103.752 	 55.6562 	 -102.718
| 34> H 	 -105.056 	 56.1854 	 -103.835
| 35> C 	 -105.548 	 54.5896 	 -102.554
| 36> H 	 -106.547 	 54.5439 	 -102.911
| 37> H 	 -105.473 	 54.382 	 -101.51
| 38> H 	 -104.96 	 53.7705 	 -102.998
| 39> H 	 -99.3712 	 55.8032 	 -100.082
| 40> H 	 -104.631 	 61.5127 	 -101.862
| 41> *
| 42>
| 43>                          ****END OF INPUT****

CARTESIAN COORDINATES (ANGSTROEM)
---------------------------------
  S    -100.869000   57.300700  -101.396000
  C    -100.297000   56.345900  -100.052000
  C    -101.339000   56.091100  -99.098600
  C    -102.516000   56.860000  -99.503300
  C    -102.408000   57.507300  -100.692000
  H    -103.431000   57.066900  -98.928500
  C    -101.249000   55.236600  -97.855500
  H    -102.093000   55.575300  -97.206500
  H    -100.314000   55.610900  -97.346500
  C    -101.424000   53.697600  -97.862600
  H    -100.721000   53.128200  -98.474200
  H    -101.277000   53.318700  -96.849900
  C    -102.763000   53.383900  -98.563100
  H    -102.640000   53.729100  -99.568400
  H    -103.179000   52.316100  -98.475700
  H    -103.519000   54.092100  -98.286500
  S    -102.820000   60.153300  -101.017000
  C    -104.266000   60.546500  -101.865000
  C    -105.103000   59.451400  -102.152000
  C    -104.556000   58.261400  -101.685000
  C    -103.308000   58.472200  -101.202000
  H    -106.104000   59.663200  -102.545000
  C    -105.255000   56.957000  -101.792000
  H    -106.274000   57.182500  -102.199000
  H    -105.352000   56.644300  -100.758000
  C    -104.844000   55.872900  -102.828000
  H    -103.752000   55.656200  -102.718000
  H    -105.056000   56.185400  -103.835000
  C    -105.548000   54.589600  -102.554000
  H    -106.547000   54.543900  -102.911000
  H    -105.473000   54.382000  -101.510000
  H    -104.960000   53.770500  -102.998000
  H    -99.371200   55.803200  -100.082000
  H    -104.631000   61.512700  -101.862000

 Total Charge           Charge          ....    0
 Multiplicity           Mult            ....    1
 Number of Electrons    NEL             ....  134
 Basis Dimension        Dim             ....  322

ORBITAL ENERGIES
----------------

  NO   OCC          E(Eh)            E(eV)
   0   2.0000     -88.968414     -2420.9536
   1   2.0000     -88.965372     -2420.8708
   2   2.0000     -10.316505      -280.7264
   3   2.0000     -10.314757      -280.6788
   4   2.0000     -10.313550      -280.6460
   5   2.0000     -10.312158      -280.6081
   6   2.0000     -10.308292      -280.5029
   7   2.0000     -10.301621      -280.3214
   8   2.0000     -10.293945      -280.1125
   9   2.0000     -10.293505      -280.1005
  10   2.0000     -10.292233      -280.0659
  11   2.0000     -10.291841      -280.0552
  12   2.0000     -10.290691      -280.0239
  13   2.0000     -10.284129      -279.8454
  14   2.0000     -10.277819      -279.6737
  15   2.0000     -10.267978      -279.4059
  16   2.0000      -8.083602      -219.9660
  17   2.0000      -8.080928      -219.8932
  18   2.0000      -6.041737      -164.4040
  19   2.0000      -6.039287      -164.3374
  20   2.0000      -6.038292      -164.3103
  21   2.0000      -6.035205      -164.2263
  22   2.0000      -6.034487      -164.2067
  23   2.0000      -6.031903      -164.1364
  24   2.0000      -1.015370       -27.6296
  25   2.0000      -0.985567       -26.8186
  26   2.0000      -0.913938       -24.8695
  27   2.0000      -0.911881       -24.8135
  28   2.0000      -0.869889       -23.6709
  29   2.0000      -0.865060       -23.5395
  30   2.0000      -0.845628       -23.0107
  31   2.0000      -0.809301       -22.0222
  32   2.0000      -0.784552       -21.3487
  33   2.0000      -0.769445       -20.9377
  34   2.0000      -0.709413       -19.3041
  35   2.0000      -0.703510       -19.1435
  36   2.0000      -0.691731       -18.8230
  37   2.0000      -0.666114       -18.1259
  38   2.0000      -0.644533       -17.5386
  39   2.0000      -0.607154       -16.5215
  40   2.0000      -0.594057       -16.1651
  41   2.0000      -0.575559       -15.6618
  42   2.0000      -0.569191       -15.4885
  43   2.0000      -0.553133       -15.0515
  44   2.0000      -0.543003       -14.7759
  45   2.0000      -0.524557       -14.2739
  46   2.0000      -0.519572       -14.1383
  47   2.0000      -0.508188       -13.8285
  48   2.0000      -0.503566       -13.7027
  49   2.0000      -0.492010       -13.3883
  50   2.0000      -0.485587       -13.2135
  51   2.0000      -0.481400       -13.0996
  52   2.0000      -0.469371       -12.7722
  53   2.0000      -0.462204       -12.5772
  54   2.0000      -0.458549       -12.4778
  55   2.0000      -0.451035       -12.2733
  56   2.0000      -0.443468       -12.0674
  57   2.0000      -0.438171       -11.9232
  58   2.0000      -0.434761       -11.8304
  59   2.0000      -0.431069       -11.7300
  60   2.0000      -0.428790       -11.6680
  61   2.0000      -0.411812       -11.2060
  62   2.0000      -0.403366       -10.9761
  63   2.0000      -0.341932        -9.3044
  64   2.0000      -0.336318        -9.1517
  65   2.0000      -0.321332        -8.7439
  66   2.0000      -0.295900        -8.0519
  67   0.0000       0.038606         1.0505
  68   0.0000       0.055182         1.5016
  69   0.0000       0.107455         2.9240
  70   0.0000       0.117751         3.2042
  71   0.0000       0.123995         3.3741

MULLIKEN ATOMIC CHARGES
-----------------------
   0 S :    0.123483
   1 C :   -0.116907
   2 C :   -0.110905
   3 C :    0.030331
   4 C :   -0.196596
   5 H :    0.022109
   6 C :    0.002217
   7 H :    0.033989
   8 H :    0.050693
   9 C :   -0.023573
  10 H :    0.028303
  11 H :    0.035543
  12 C :   -0.073036
  13 H :    0.034818
  14 H :    0.059497
  15 H :    0.005209
  16 S :    0.137688
  17 C :   -0.064011
  18 C :   -0.062645
  19 C :    0.012321
  20 C :   -0.194505
  21 H :    0.022977
  22 C :    0.064786
  23 H :    0.014015
  24 H :    0.025817
  25 C :   -0.062377
  26 H :    0.037614
  27 H :    0.028621
  28 C :   -0.016993
  29 H :    0.029329
  30 H :    0.016126
  31 H :    0.028009
  32 H :    0.049751
  33 H :    0.028302
Sum of atomic charges:    0.0000000

LOEWDIN ATOMIC CHARGES
----------------------
   0 S :    0.431357
   1 C :   -0.201839
   2 C :   -0.061887
   3 C :   -0.071402
   4 C :   -0.220189
   5 H :    0.033654
   6 C :   -0.044656
   7 H :    0.037235
   8 H :    0.041349
   9 C :   -0.037595
  10 H :    0.023017
  11 H :    0.025540
  12 C :   -0.074519
  13 H :    0.027141
  14 H :    0.037280
  15 H :    0.015090
  16 S :    0.424107
  17 C :   -0.182996
  18 C :   -0.067008
  19 C :   -0.058029
  20 C :   -0.202640
  21 H :    0.034871
  22 C :   -0.035229
  23 H :    0.036037
  24 H :    0.031712
  25 C :   -0.034862
  26 H :    0.026945
  27 H :    0.022710
  28 C :   -0.059747
  29 H :    0.019016
  30 H :    0.021935
  31 H :    0.032006
  32 H :    0.023006
  33 H :    0.008590

  Mayer bond orders larger than 0.100000
B(  0-S ,  1-C ) :   1.1573 B(  0-S ,  4-C ) :   1.1565 B(  1-C ,  2-C ) :   1.5828
B(  1-C , 32-H ) :   0.9715 B(  2-C ,  3-C ) :   1.2294 B(  2-C ,  6-C ) :   1.0183
B(  3-C ,  4-C ) :   1.6084 B(  3-C ,  5-H ) :   0.9779 B(  4-C , 20-C ) :   1.0270
B(  6-C ,  7-H ) :   0.9448 B(  6-C ,  8-H ) :   0.9413 B(  6-C ,  9-C ) :   1.0601
B(  9-C , 10-H ) :   0.9610 B(  9-C , 11-H ) :   0.9576 B(  9-C , 12-C ) :   1.0541
B( 12-C , 13-H ) :   0.9678 B( 12-C , 14-H ) :   0.9733 B( 12-C , 15-H ) :   0.9751
B( 16-S , 17-C ) :   1.1695 B( 16-S , 20-C ) :   1.1546 B( 17-C , 18-C ) :   1.5961
B( 17-C , 20-C ) :   0.1057 B( 17-C , 33-H ) :   0.9704 B( 18-C , 19-C ) :   1.2568
B( 18-C , 21-H ) :   0.9864 B( 19-C , 20-C ) :   1.5963 B( 19-C , 22-C ) :   1.0434
B( 22-C , 23-H ) :   0.9308 B( 22-C , 24-H ) :   0.9225 B( 22-C , 25-C ) :   1.0622
B( 25-C , 26-H ) :   0.9572 B( 25-C , 27-H ) :   0.9552 B( 25-C , 28-C ) :   1.0901
B( 28-C , 29-H ) :   0.9753 B( 28-C , 30-H ) :   0.9719 B( 28-C , 31-H ) :   0.9701

Dispersion correction           -0.015186891
FINAL SINGLE POINT ENERGY     -1339.857870006191

DIPOLE MOMENT
-------------
                                X             Y             Z
Electronic contribution:     11.64588      25.86299      -5.53157
Nuclear contribution   :    -12.03324     -26.20019       5.78339
                        -----------------------------------------
Total Dipole Moment    :     -0.38737      -0.33720       0.25182
                        -----------------------------------------
Magnitude (a.u.)       :      0.57199
Magnitude (Debye)      :      1.45388

Rotational constants in cm-1:     0.018306     0.009925     0.007517
Rotational constants in MHz :   548.791284   297.543954   225.362903

                             ****ORCA TERMINATED NORMALLY****
TOTAL RUN TIME: 0 days 0 hours 0 minutes 22 seconds 651 msec
