                         Program Version 4.2.1 -  RELEASE  -
|  1> ! wB97X-D3 SP def2-SVP
|  2> %pal
|  3> nprocs 24
|  4> end
|  5>
|  6> * xyz 0 1
|  7> S 	 -52.5378 	 14.1108 	 25.6797
|  8> C 	 -53.8147 	 12.8537 	 25.6511
|  9> C 	 -54.6793 	 13.0996 	 26.6709
| 10> C 	 -54.0766 	 13.8958 	 27.668
| 11> C 	 -52.7746 	 14.2851 	 27.4098
| 12> H 	 -54.39 	 14.2758 	 28.6811
| 13> C 	 -56.0092 	 12.3471 	 26.9002
| 14> H 	 -55.6632 	 11.4671 	 27.3477
| 15> H 	 -56.3672 	 12.0804 	 25.9159
| 16> C 	 -57.1313 	 13.1797 	 27.5557
| 17> H 	 -56.9153 	 13.4647 	 28.6241
| 18> H 	 -57.1715 	 14.1667 	 27.0151
| 19> C 	 -58.5464 	 12.6027 	 27.5382
| 20> H 	 -59.2244 	 13.2591 	 28.0924
| 21> H 	 -58.8121 	 12.4946 	 26.4924
| 22> H 	 -58.7291 	 11.6847 	 28.0193
| 23> S 	 -51.3403 	 13.9861 	 29.7212
| 24> C 	 -50.2039 	 15.2154 	 30.1578
| 25> C 	 -50.1429 	 16.2797 	 29.3378
| 26> C 	 -51.0713 	 16.0247 	 28.2309
| 27> C 	 -51.8016 	 14.8632 	 28.3187
| 28> H 	 -49.4387 	 17.1188 	 29.4868
| 29> C 	 -51.2327 	 17.0687 	 27.1943
| 30> H 	 -51.1791 	 16.546 	 26.21
| 31> H 	 -50.3159 	 17.6537 	 27.1131
| 32> C 	 -52.5157 	 17.872 	 27.3191
| 33> H 	 -53.3106 	 17.21 	 27.4098
| 34> H 	 -52.7259 	 18.3167 	 26.2963
| 35> C 	 -52.5675 	 18.9333 	 28.4202
| 36> H 	 -53.5048 	 19.4374 	 28.4584
| 37> H 	 -51.8353 	 19.7305 	 28.3519
| 38> H 	 -52.4176 	 18.5249 	 29.4307
| 39> H 	 -54.0529 	 12.2762 	 24.7633
| 40> H 	 -49.4111 	 15.0421 	 30.9469
| 41> *
| 42>
| 43>                          ****END OF INPUT****

CARTESIAN COORDINATES (ANGSTROEM)
---------------------------------
  S    -52.537800   14.110800   25.679700
  C    -53.814700   12.853700   25.651100
  C    -54.679300   13.099600   26.670900
  C    -54.076600   13.895800   27.668000
  C    -52.774600   14.285100   27.409800
  H    -54.390000   14.275800   28.681100
  C    -56.009200   12.347100   26.900200
  H    -55.663200   11.467100   27.347700
  H    -56.367200   12.080400   25.915900
  C    -57.131300   13.179700   27.555700
  H    -56.915300   13.464700   28.624100
  H    -57.171500   14.166700   27.015100
  C    -58.546400   12.602700   27.538200
  H    -59.224400   13.259100   28.092400
  H    -58.812100   12.494600   26.492400
  H    -58.729100   11.684700   28.019300
  S    -51.340300   13.986100   29.721200
  C    -50.203900   15.215400   30.157800
  C    -50.142900   16.279700   29.337800
  C    -51.071300   16.024700   28.230900
  C    -51.801600   14.863200   28.318700
  H    -49.438700   17.118800   29.486800
  C    -51.232700   17.068700   27.194300
  H    -51.179100   16.546000   26.210000
  H    -50.315900   17.653700   27.113100
  C    -52.515700   17.872000   27.319100
  H    -53.310600   17.210000   27.409800
  H    -52.725900   18.316700   26.296300
  C    -52.567500   18.933300   28.420200
  H    -53.504800   19.437400   28.458400
  H    -51.835300   19.730500   28.351900
  H    -52.417600   18.524900   29.430700
  H    -54.052900   12.276200   24.763300
  H    -49.411100   15.042100   30.946900

 Total Charge           Charge          ....    0
 Multiplicity           Mult            ....    1
 Number of Electrons    NEL             ....  134
 Basis Dimension        Dim             ....  322

ORBITAL ENERGIES
----------------

  NO   OCC          E(Eh)            E(eV)
   0   2.0000     -88.965495     -2420.8742
   1   2.0000     -88.958348     -2420.6797
   2   2.0000     -10.328095      -281.0418
   3   2.0000     -10.320875      -280.8453
   4   2.0000     -10.316163      -280.7171
   5   2.0000     -10.312537      -280.6184
   6   2.0000     -10.302452      -280.3440
   7   2.0000     -10.298676      -280.2412
   8   2.0000     -10.296994      -280.1954
   9   2.0000     -10.295838      -280.1640
  10   2.0000     -10.295155      -280.1454
  11   2.0000     -10.291919      -280.0574
  12   2.0000     -10.284781      -279.8631
  13   2.0000     -10.281497      -279.7738
  14   2.0000     -10.276205      -279.6298
  15   2.0000     -10.271741      -279.5083
  16   2.0000      -8.081289      -219.9031
  17   2.0000      -8.072729      -219.6701
  18   2.0000      -6.039789      -164.3510
  19   2.0000      -6.035688      -164.2394
  20   2.0000      -6.031941      -164.1375
  21   2.0000      -6.031349      -164.1213
  22   2.0000      -6.027820      -164.0253
  23   2.0000      -6.022862      -163.8904
  24   2.0000      -1.012125       -27.5413
  25   2.0000      -0.989457       -26.9245
  26   2.0000      -0.911126       -24.7930
  27   2.0000      -0.908388       -24.7185
  28   2.0000      -0.874269       -23.7901
  29   2.0000      -0.849266       -23.1097
  30   2.0000      -0.841335       -22.8939
  31   2.0000      -0.818393       -22.2696
  32   2.0000      -0.787102       -21.4181
  33   2.0000      -0.773419       -21.0458
  34   2.0000      -0.714547       -19.4438
  35   2.0000      -0.700020       -19.0485
  36   2.0000      -0.686839       -18.6898
  37   2.0000      -0.662968       -18.0403
  38   2.0000      -0.636996       -17.3336
  39   2.0000      -0.611485       -16.6394
  40   2.0000      -0.593415       -16.1476
  41   2.0000      -0.571125       -15.5411
  42   2.0000      -0.564123       -15.3506
  43   2.0000      -0.547764       -14.9054
  44   2.0000      -0.537547       -14.6274
  45   2.0000      -0.526816       -14.3354
  46   2.0000      -0.522301       -14.2125
  47   2.0000      -0.515008       -14.0141
  48   2.0000      -0.505062       -13.7434
  49   2.0000      -0.494069       -13.4443
  50   2.0000      -0.487419       -13.2634
  51   2.0000      -0.479147       -13.0382
  52   2.0000      -0.475502       -12.9391
  53   2.0000      -0.469463       -12.7747
  54   2.0000      -0.462564       -12.5870
  55   2.0000      -0.444775       -12.1030
  56   2.0000      -0.443502       -12.0683
  57   2.0000      -0.435761       -11.8577
  58   2.0000      -0.430859       -11.7243
  59   2.0000      -0.424791       -11.5591
  60   2.0000      -0.420325       -11.4376
  61   2.0000      -0.411743       -11.2041
  62   2.0000      -0.403617       -10.9830
  63   2.0000      -0.348954        -9.4955
  64   2.0000      -0.329575        -8.9682
  65   2.0000      -0.323200        -8.7947
  66   2.0000      -0.290091        -7.8938
  67   0.0000       0.027095         0.7373
  68   0.0000       0.064009         1.7418
  69   0.0000       0.095455         2.5975
  70   0.0000       0.123646         3.3646
  71   0.0000       0.127614         3.4725

MULLIKEN ATOMIC CHARGES
-----------------------
   0 S :    0.081766
   1 C :   -0.125522
   2 C :   -0.072023
   3 C :   -0.002783
   4 C :   -0.162107
   5 H :    0.031227
   6 C :    0.125234
   7 H :    0.038353
   8 H :    0.005054
   9 C :   -0.131563
  10 H :    0.038969
  11 H :    0.042272
  12 C :   -0.016359
  13 H :    0.031770
  14 H :    0.028870
  15 H :    0.020549
  16 S :    0.122941
  17 C :   -0.107327
  18 C :   -0.031436
  19 C :   -0.084709
  20 C :   -0.145381
  21 H :    0.037659
  22 C :    0.058054
  23 H :    0.021682
  24 H :    0.011704
  25 C :   -0.015605
  26 H :    0.009138
  27 H :    0.026661
  28 C :   -0.032822
  29 H :    0.024605
  30 H :    0.018891
  31 H :    0.031179
  32 H :    0.047917
  33 H :    0.073140
Sum of atomic charges:   -0.0000000

LOEWDIN ATOMIC CHARGES
----------------------
   0 S :    0.369010
   1 C :   -0.177952
   2 C :   -0.062131
   3 C :   -0.077510
   4 C :   -0.179873
   5 H :    0.039917
   6 C :   -0.021437
   7 H :    0.029431
   8 H :    0.026329
   9 C :   -0.047732
  10 H :    0.025546
  11 H :    0.034581
  12 C :   -0.062611
  13 H :    0.031523
  14 H :    0.024326
  15 H :    0.018175
  16 S :    0.429149
  17 C :   -0.195410
  18 C :   -0.075927
  19 C :   -0.055111
  20 C :   -0.218471
  21 H :    0.042698
  22 C :   -0.043444
  23 H :    0.029997
  24 H :    0.027845
  25 C :   -0.033575
  26 H :    0.016629
  27 H :    0.031560
  28 C :   -0.066027
  29 H :    0.024022
  30 H :    0.021654
  31 H :    0.027909
  32 H :    0.026841
  33 H :    0.040069

  Mayer bond orders larger than 0.100000
B(  0-S ,  1-C ) :   1.1107 B(  0-S ,  4-C ) :   1.1268 B(  1-C ,  2-C ) :   1.6369
B(  1-C ,  4-C ) :   0.1048 B(  1-C , 32-H ) :   0.9733 B(  2-C ,  3-C ) :   1.1781
B(  2-C ,  6-C ) :   1.0063 B(  3-C ,  4-C ) :   1.5979 B(  3-C ,  5-H ) :   0.9936
B(  4-C , 20-C ) :   1.0591 B(  6-C ,  7-H ) :   0.9441 B(  6-C ,  8-H ) :   0.9352
B(  6-C ,  9-C ) :   1.0553 B(  9-C , 10-H ) :   0.9521 B(  9-C , 11-H ) :   0.9579
B(  9-C , 12-C ) :   1.0924 B( 12-C , 13-H ) :   0.9718 B( 12-C , 14-H ) :   0.9741
B( 12-C , 15-H ) :   0.9743 B( 16-S , 17-C ) :   1.1619 B( 16-S , 20-C ) :   1.1303
B( 17-C , 18-C ) :   1.6330 B( 17-C , 33-H ) :   0.9512 B( 18-C , 19-C ) :   1.2180
B( 18-C , 21-H ) :   0.9890 B( 19-C , 20-C ) :   1.6028 B( 19-C , 22-C ) :   1.0617
B( 22-C , 23-H ) :   0.9222 B( 22-C , 24-H ) :   0.9312 B( 22-C , 25-C ) :   1.0684
B( 25-C , 26-H ) :   0.9528 B( 25-C , 27-H ) :   0.9508 B( 25-C , 28-C ) :   1.0760
B( 28-C , 29-H ) :   0.9726 B( 28-C , 30-H ) :   0.9753 B( 28-C , 31-H ) :   0.9735

Dispersion correction           -0.014679223
FINAL SINGLE POINT ENERGY     -1339.852697855213

DIPOLE MOMENT
-------------
                                X             Y             Z
Electronic contribution:     19.31159      -9.32070       0.51582
Nuclear contribution   :    -19.62981       9.48361      -0.41620
                        -----------------------------------------
Total Dipole Moment    :     -0.31823       0.16290       0.09962
                        -----------------------------------------
Magnitude (a.u.)       :      0.37112
Magnitude (Debye)      :      0.94331

Rotational constants in cm-1:     0.020189     0.007625     0.007265
Rotational constants in MHz :   605.239379   228.593524   217.805809

                             ****ORCA TERMINATED NORMALLY****
TOTAL RUN TIME: 0 days 0 hours 0 minutes 22 seconds 709 msec
