                         Program Version 4.2.1 -  RELEASE  -
|  1> ! wB97X-D3 SP def2-SVP
|  2> %pal
|  3> nprocs 24
|  4> end
|  5>
|  6> * xyz 0 1
|  7> S 	 -106.571 	 56.2231 	 -80.1057
|  8> C 	 -105.704 	 55.2998 	 -81.3562
|  9> C 	 -106.587 	 54.535 	 -82.0798
| 10> C 	 -107.897 	 54.6009 	 -81.5352
| 11> C 	 -107.926 	 55.1924 	 -80.3131
| 12> H 	 -108.765 	 54.0667 	 -81.9098
| 13> C 	 -106.237 	 53.657 	 -83.2503
| 14> H 	 -106.793 	 52.7362 	 -83.2417
| 15> H 	 -105.141 	 53.3959 	 -83.1896
| 16> C 	 -106.582 	 54.3685 	 -84.5418
| 17> H 	 -107.703 	 54.4378 	 -84.643
| 18> H 	 -106.189 	 55.3584 	 -84.4327
| 19> C 	 -105.928 	 53.783 	 -85.7456
| 20> H 	 -106.165 	 54.2508 	 -86.681
| 21> H 	 -104.857 	 53.9103 	 -85.7604
| 22> H 	 -106.158 	 52.7025 	 -85.8058
| 23> S 	 -109.854 	 56.7732 	 -79.2546
| 24> C 	 -111.102 	 56.0635 	 -78.234
| 25> C 	 -110.894 	 54.6859 	 -78.0721
| 26> C 	 -109.671 	 54.2376 	 -78.6988
| 27> C 	 -109.024 	 55.2591 	 -79.3966
| 28> H 	 -111.601 	 54.151 	 -77.5046
| 29> C 	 -109.122 	 52.8557 	 -78.6091
| 30> H 	 -108.643 	 52.7363 	 -77.5935
| 31> H 	 -108.276 	 52.7914 	 -79.3144
| 32> C 	 -110.197 	 51.7269 	 -78.9648
| 33> H 	 -111.181 	 51.8608 	 -78.4353
| 34> H 	 -109.906 	 50.7336 	 -78.7282
| 35> C 	 -110.497 	 51.6714 	 -80.4739
| 36> H 	 -111.347 	 50.9904 	 -80.6866
| 37> H 	 -109.721 	 51.3487 	 -81.1252
| 38> H 	 -110.872 	 52.6663 	 -80.8397
| 39> H 	 -104.7 	 55.4994 	 -81.7044
| 40> H 	 -111.935 	 56.6086 	 -77.8359
| 41> *
| 42>
| 43>                          ****END OF INPUT****

CARTESIAN COORDINATES (ANGSTROEM)
---------------------------------
  S    -106.571000   56.223100  -80.105700
  C    -105.704000   55.299800  -81.356200
  C    -106.587000   54.535000  -82.079800
  C    -107.897000   54.600900  -81.535200
  C    -107.926000   55.192400  -80.313100
  H    -108.765000   54.066700  -81.909800
  C    -106.237000   53.657000  -83.250300
  H    -106.793000   52.736200  -83.241700
  H    -105.141000   53.395900  -83.189600
  C    -106.582000   54.368500  -84.541800
  H    -107.703000   54.437800  -84.643000
  H    -106.189000   55.358400  -84.432700
  C    -105.928000   53.783000  -85.745600
  H    -106.165000   54.250800  -86.681000
  H    -104.857000   53.910300  -85.760400
  H    -106.158000   52.702500  -85.805800
  S    -109.854000   56.773200  -79.254600
  C    -111.102000   56.063500  -78.234000
  C    -110.894000   54.685900  -78.072100
  C    -109.671000   54.237600  -78.698800
  C    -109.024000   55.259100  -79.396600
  H    -111.601000   54.151000  -77.504600
  C    -109.122000   52.855700  -78.609100
  H    -108.643000   52.736300  -77.593500
  H    -108.276000   52.791400  -79.314400
  C    -110.197000   51.726900  -78.964800
  H    -111.181000   51.860800  -78.435300
  H    -109.906000   50.733600  -78.728200
  C    -110.497000   51.671400  -80.473900
  H    -111.347000   50.990400  -80.686600
  H    -109.721000   51.348700  -81.125200
  H    -110.872000   52.666300  -80.839700
  H    -104.700000   55.499400  -81.704400
  H    -111.935000   56.608600  -77.835900

 Total Charge           Charge          ....    0
 Multiplicity           Mult            ....    1
 Number of Electrons    NEL             ....  134
 Basis Dimension        Dim             ....  322

ORBITAL ENERGIES
----------------

  NO   OCC          E(Eh)            E(eV)
   0   2.0000     -88.964870     -2420.8572
   1   2.0000     -88.962003     -2420.7792
   2   2.0000     -10.321402      -280.8596
   3   2.0000     -10.320472      -280.8343
   4   2.0000     -10.319243      -280.8009
   5   2.0000     -10.311421      -280.5880
   6   2.0000     -10.305122      -280.4166
   7   2.0000     -10.298405      -280.2338
   8   2.0000     -10.297651      -280.2133
   9   2.0000     -10.295901      -280.1657
  10   2.0000     -10.293634      -280.1040
  11   2.0000     -10.292148      -280.0636
  12   2.0000     -10.289621      -279.9948
  13   2.0000     -10.283242      -279.8212
  14   2.0000     -10.278504      -279.6923
  15   2.0000     -10.273961      -279.5687
  16   2.0000      -8.079790      -219.8623
  17   2.0000      -8.077322      -219.7951
  18   2.0000      -6.038272      -164.3097
  19   2.0000      -6.035794      -164.2423
  20   2.0000      -6.034185      -164.1985
  21   2.0000      -6.032028      -164.1398
  22   2.0000      -6.030656      -164.1025
  23   2.0000      -6.027791      -164.0245
  24   2.0000      -1.012875       -27.5617
  25   2.0000      -0.984265       -26.7832
  26   2.0000      -0.920999       -25.0617
  27   2.0000      -0.902026       -24.5454
  28   2.0000      -0.873121       -23.7588
  29   2.0000      -0.850047       -23.1309
  30   2.0000      -0.845644       -23.0112
  31   2.0000      -0.816495       -22.2179
  32   2.0000      -0.783856       -21.3298
  33   2.0000      -0.768285       -20.9061
  34   2.0000      -0.707921       -19.2635
  35   2.0000      -0.700033       -19.0489
  36   2.0000      -0.695817       -18.9341
  37   2.0000      -0.658467       -17.9178
  38   2.0000      -0.642477       -17.4827
  39   2.0000      -0.621038       -16.8993
  40   2.0000      -0.594456       -16.1760
  41   2.0000      -0.581040       -15.8109
  42   2.0000      -0.559368       -15.2212
  43   2.0000      -0.548269       -14.9192
  44   2.0000      -0.537491       -14.6259
  45   2.0000      -0.527461       -14.3529
  46   2.0000      -0.519918       -14.1477
  47   2.0000      -0.514695       -14.0056
  48   2.0000      -0.508897       -13.8478
  49   2.0000      -0.501112       -13.6360
  50   2.0000      -0.485585       -13.2134
  51   2.0000      -0.477178       -12.9847
  52   2.0000      -0.469441       -12.7741
  53   2.0000      -0.466557       -12.6957
  54   2.0000      -0.458246       -12.4695
  55   2.0000      -0.449726       -12.2377
  56   2.0000      -0.440779       -11.9942
  57   2.0000      -0.436119       -11.8674
  58   2.0000      -0.431202       -11.7336
  59   2.0000      -0.426532       -11.6065
  60   2.0000      -0.425399       -11.5757
  61   2.0000      -0.418710       -11.3937
  62   2.0000      -0.415740       -11.3129
  63   2.0000      -0.337689        -9.1890
  64   2.0000      -0.327388        -8.9087
  65   2.0000      -0.326354        -8.8805
  66   2.0000      -0.297337        -8.0910
  67   0.0000       0.034330         0.9342
  68   0.0000       0.059986         1.6323
  69   0.0000       0.107350         2.9211
  70   0.0000       0.121651         3.3103
  71   0.0000       0.127503         3.4695

MULLIKEN ATOMIC CHARGES
-----------------------
   0 S :    0.101557
   1 C :   -0.104945
   2 C :   -0.100020
   3 C :    0.060528
   4 C :   -0.187682
   5 H :    0.009389
   6 C :    0.062856
   7 H :    0.021561
   8 H :    0.030922
   9 C :   -0.081037
  10 H :    0.040323
  11 H :    0.019306
  12 C :   -0.018267
  13 H :    0.024774
  14 H :    0.020987
  15 H :    0.026810
  16 S :    0.112991
  17 C :   -0.097188
  18 C :   -0.022259
  19 C :   -0.030357
  20 C :   -0.148600
  21 H :    0.005118
  22 C :    0.054401
  23 H :    0.055500
  24 H :    0.035101
  25 C :   -0.062287
  26 H :    0.038135
  27 H :    0.021944
  28 C :   -0.085545
  29 H :    0.031125
  30 H :    0.029912
  31 H :    0.040930
  32 H :    0.039226
  33 H :    0.054790
Sum of atomic charges:   -0.0000000

LOEWDIN ATOMIC CHARGES
----------------------
   0 S :    0.399927
   1 C :   -0.189726
   2 C :   -0.059384
   3 C :   -0.057148
   4 C :   -0.201249
   5 H :    0.031399
   6 C :   -0.029577
   7 H :    0.025845
   8 H :    0.036177
   9 C :   -0.044188
  10 H :    0.030780
  11 H :    0.021150
  12 C :   -0.066969
  13 H :    0.024542
  14 H :    0.024039
  15 H :    0.026053
  16 S :    0.410047
  17 C :   -0.177742
  18 C :   -0.063493
  19 C :   -0.054527
  20 C :   -0.212556
  21 H :    0.023882
  22 C :   -0.034419
  23 H :    0.042503
  24 H :    0.033786
  25 C :   -0.038018
  26 H :    0.029032
  27 H :    0.018521
  28 C :   -0.072531
  29 H :    0.029149
  30 H :    0.016698
  31 H :    0.026757
  32 H :    0.025196
  33 H :    0.026044

  Mayer bond orders larger than 0.100000
B(  0-S ,  1-C ) :   1.1186 B(  0-S ,  4-C ) :   1.1504 B(  1-C ,  2-C ) :   1.6317
B(  1-C ,  4-C ) :   0.1007 B(  1-C , 32-H ) :   0.9679 B(  2-C ,  3-C ) :   1.2180
B(  2-C ,  6-C ) :   1.0324 B(  3-C ,  4-C ) :   1.5882 B(  3-C ,  5-H ) :   0.9954
B(  4-C , 20-C ) :   1.0190 B(  6-C ,  7-H ) :   0.9340 B(  6-C ,  8-H ) :   0.9459
B(  6-C ,  9-C ) :   1.0560 B(  9-C , 10-H ) :   0.9519 B(  9-C , 11-H ) :   0.9551
B(  9-C , 12-C ) :   1.0971 B( 12-C , 13-H ) :   0.9700 B( 12-C , 14-H ) :   0.9715
B( 12-C , 15-H ) :   0.9692 B( 16-S , 17-C ) :   1.1564 B( 16-S , 20-C ) :   1.1528
B( 17-C , 18-C ) :   1.6072 B( 17-C , 20-C ) :   0.1012 B( 17-C , 33-H ) :   0.9707
B( 18-C , 19-C ) :   1.2163 B( 18-C , 21-H ) :   1.0011 B( 19-C , 20-C ) :   1.5933
B( 19-C , 22-C ) :   1.0483 B( 22-C , 23-H ) :   0.9352 B( 22-C , 24-H ) :   0.9362
B( 22-C , 25-C ) :   1.0458 B( 25-C , 26-H ) :   0.9619 B( 25-C , 27-H ) :   0.9594
B( 25-C , 28-C ) :   1.0732 B( 28-C , 29-H ) :   0.9714 B( 28-C , 30-H ) :   0.9761
B( 28-C , 31-H ) :   0.9735

Dispersion correction           -0.014872501
FINAL SINGLE POINT ENERGY     -1339.878683013565

DIPOLE MOMENT
-------------
                                X             Y             Z
Electronic contribution:     -0.24388      22.14171      17.59150
Nuclear contribution   :      0.07934     -22.70475     -17.91710
                        -----------------------------------------
Total Dipole Moment    :     -0.16454      -0.56304      -0.32560
                        -----------------------------------------
Magnitude (a.u.)       :      0.67089
Magnitude (Debye)      :      1.70528

Rotational constants in cm-1:     0.019760     0.008577     0.006890
Rotational constants in MHz :   592.387095   257.135286   206.548564

                             ****ORCA TERMINATED NORMALLY****
TOTAL RUN TIME: 0 days 0 hours 0 minutes 20 seconds 925 msec
