                         Program Version 4.2.1 -  RELEASE  -
|  1> ! wB97X-D3 SP def2-SVP
|  2> %pal
|  3> nprocs 24
|  4> end
|  5>
|  6> * xyz 0 1
|  7> S 	 -98.6213 	 2.84603 	 -118.719
|  8> C 	 -99.7435 	 3.07779 	 -120.046
|  9> C 	 -101.062 	 2.94431 	 -119.733
| 10> C 	 -101.183 	 2.79542 	 -118.287
| 11> C 	 -99.9615 	 2.77148 	 -117.614
| 12> H 	 -102.053 	 2.7644 	 -117.676
| 13> C 	 -102.195 	 3.17446 	 -120.695
| 14> H 	 -101.965 	 2.73914 	 -121.661
| 15> H 	 -102.434 	 4.17248 	 -120.993
| 16> C 	 -103.502 	 2.40156 	 -120.367
| 17> H 	 -104.01 	 2.94195 	 -119.552
| 18> H 	 -104.204 	 2.55658 	 -121.195
| 19> C 	 -103.412 	 0.845752 	 -120.057
| 20> H 	 -103.395 	 0.228465 	 -120.933
| 21> H 	 -102.542 	 0.647045 	 -119.501
| 22> H 	 -104.325 	 0.633075 	 -119.545
| 23> S 	 -98.2964 	 3.52463 	 -115.451
| 24> C 	 -98.7647 	 3.0802 	 -113.852
| 25> C 	 -99.8994 	 2.24999 	 -113.849
| 26> C 	 -100.549 	 2.15487 	 -115.152
| 27> C 	 -99.8039 	 2.75239 	 -116.144
| 28> H 	 -100.293 	 1.83806 	 -112.949
| 29> C 	 -101.753 	 1.25444 	 -115.396
| 30> H 	 -101.57 	 0.357001 	 -114.765
| 31> H 	 -101.726 	 0.861766 	 -116.343
| 32> C 	 -103.2 	 1.78916 	 -115.105
| 33> H 	 -103.125 	 2.82108 	 -115.155
| 34> H 	 -103.485 	 1.6175 	 -114.061
| 35> C 	 -104.274 	 1.36563 	 -116.048
| 36> H 	 -104.125 	 1.61902 	 -117.11
| 37> H 	 -105.207 	 1.87157 	 -115.736
| 38> H 	 -104.417 	 0.29749 	 -116.045
| 39> H 	 -99.4088 	 3.42659 	 -120.963
| 40> H 	 -98.201 	 3.24926 	 -112.975
| 41> *
| 42>
| 43>                          ****END OF INPUT****

CARTESIAN COORDINATES (ANGSTROEM)
---------------------------------
  S    -98.621300    2.846030  -118.719000
  C    -99.743500    3.077790  -120.046000
  C    -101.062000    2.944310  -119.733000
  C    -101.183000    2.795420  -118.287000
  C    -99.961500    2.771480  -117.614000
  H    -102.053000    2.764400  -117.676000
  C    -102.195000    3.174460  -120.695000
  H    -101.965000    2.739140  -121.661000
  H    -102.434000    4.172480  -120.993000
  C    -103.502000    2.401560  -120.367000
  H    -104.010000    2.941950  -119.552000
  H    -104.204000    2.556580  -121.195000
  C    -103.412000    0.845752  -120.057000
  H    -103.395000    0.228465  -120.933000
  H    -102.542000    0.647045  -119.501000
  H    -104.325000    0.633075  -119.545000
  S    -98.296400    3.524630  -115.451000
  C    -98.764700    3.080200  -113.852000
  C    -99.899400    2.249990  -113.849000
  C    -100.549000    2.154870  -115.152000
  C    -99.803900    2.752390  -116.144000
  H    -100.293000    1.838060  -112.949000
  C    -101.753000    1.254440  -115.396000
  H    -101.570000    0.357001  -114.765000
  H    -101.726000    0.861766  -116.343000
  C    -103.200000    1.789160  -115.105000
  H    -103.125000    2.821080  -115.155000
  H    -103.485000    1.617500  -114.061000
  C    -104.274000    1.365630  -116.048000
  H    -104.125000    1.619020  -117.110000
  H    -105.207000    1.871570  -115.736000
  H    -104.417000    0.297490  -116.045000
  H    -99.408800    3.426590  -120.963000
  H    -98.201000    3.249260  -112.975000

 Total Charge           Charge          ....    0
 Multiplicity           Mult            ....    1
 Number of Electrons    NEL             ....  134
 Basis Dimension        Dim             ....  322

ORBITAL ENERGIES
----------------

  NO   OCC          E(Eh)            E(eV)
   0   2.0000     -88.967457     -2420.9276
   1   2.0000     -88.966199     -2420.8934
   2   2.0000     -10.333558      -281.1904
   3   2.0000     -10.331428      -281.1325
   4   2.0000     -10.318605      -280.7835
   5   2.0000     -10.307737      -280.4878
   6   2.0000     -10.307312      -280.4762
   7   2.0000     -10.305178      -280.4181
   8   2.0000     -10.297186      -280.2007
   9   2.0000     -10.295375      -280.1514
  10   2.0000     -10.291971      -280.0588
  11   2.0000     -10.291630      -280.0495
  12   2.0000     -10.288715      -279.9702
  13   2.0000     -10.281881      -279.7842
  14   2.0000     -10.279978      -279.7324
  15   2.0000     -10.273976      -279.5691
  16   2.0000      -8.082422      -219.9339
  17   2.0000      -8.080269      -219.8753
  18   2.0000      -6.040973      -164.3832
  19   2.0000      -6.038892      -164.3266
  20   2.0000      -6.037007      -164.2753
  21   2.0000      -6.034931      -164.2188
  22   2.0000      -6.033034      -164.1672
  23   2.0000      -6.030892      -164.1089
  24   2.0000      -1.002735       -27.2858
  25   2.0000      -0.979728       -26.6598
  26   2.0000      -0.910490       -24.7757
  27   2.0000      -0.908889       -24.7321
  28   2.0000      -0.867918       -23.6173
  29   2.0000      -0.855538       -23.2804
  30   2.0000      -0.840862       -22.8810
  31   2.0000      -0.814121       -22.1534
  32   2.0000      -0.789710       -21.4891
  33   2.0000      -0.779535       -21.2122
  34   2.0000      -0.710181       -19.3250
  35   2.0000      -0.702519       -19.1165
  36   2.0000      -0.694701       -18.9038
  37   2.0000      -0.662807       -18.0359
  38   2.0000      -0.645972       -17.5778
  39   2.0000      -0.622802       -16.9473
  40   2.0000      -0.598297       -16.2805
  41   2.0000      -0.565675       -15.3928
  42   2.0000      -0.561310       -15.2740
  43   2.0000      -0.554632       -15.0923
  44   2.0000      -0.536745       -14.6056
  45   2.0000      -0.528431       -14.3793
  46   2.0000      -0.524426       -14.2704
  47   2.0000      -0.509344       -13.8599
  48   2.0000      -0.504326       -13.7234
  49   2.0000      -0.500120       -13.6090
  50   2.0000      -0.491361       -13.3706
  51   2.0000      -0.488459       -13.2917
  52   2.0000      -0.476321       -12.9614
  53   2.0000      -0.464846       -12.6491
  54   2.0000      -0.462638       -12.5890
  55   2.0000      -0.452201       -12.3050
  56   2.0000      -0.440956       -11.9990
  57   2.0000      -0.439125       -11.9492
  58   2.0000      -0.433805       -11.8044
  59   2.0000      -0.430599       -11.7172
  60   2.0000      -0.424572       -11.5532
  61   2.0000      -0.412211       -11.2168
  62   2.0000      -0.408893       -11.1266
  63   2.0000      -0.355396        -9.6708
  64   2.0000      -0.332718        -9.0537
  65   2.0000      -0.329651        -8.9702
  66   2.0000      -0.286036        -7.7834
  67   0.0000       0.023413         0.6371
  68   0.0000       0.073899         2.0109
  69   0.0000       0.101500         2.7620
  70   0.0000       0.118422         3.2224
  71   0.0000       0.128253         3.4899

MULLIKEN ATOMIC CHARGES
-----------------------
   0 S :    0.111672
   1 C :   -0.102720
   2 C :   -0.042375
   3 C :    0.014943
   4 C :   -0.129611
   5 H :   -0.022466
   6 C :    0.101467
   7 H :    0.012917
   8 H :    0.037320
   9 C :   -0.147220
  10 H :    0.028939
  11 H :    0.026408
  12 C :   -0.017697
  13 H :    0.029510
  14 H :    0.039892
  15 H :    0.034878
  16 S :    0.093923
  17 C :   -0.068922
  18 C :   -0.022356
  19 C :   -0.051744
  20 C :   -0.137623
  21 H :    0.010044
  22 C :    0.055406
  23 H :    0.031276
  24 H :   -0.003002
  25 C :   -0.027337
  26 H :    0.013007
  27 H :    0.026037
  28 C :   -0.055582
  29 H :    0.026694
  30 H :    0.037347
  31 H :    0.029693
  32 H :    0.018102
  33 H :    0.049180
Sum of atomic charges:   -0.0000000

LOEWDIN ATOMIC CHARGES
----------------------
   0 S :    0.401753
   1 C :   -0.175496
   2 C :   -0.058625
   3 C :   -0.060334
   4 C :   -0.190094
   5 H :    0.022624
   6 C :   -0.034398
   7 H :    0.032164
   8 H :    0.032911
   9 C :   -0.043177
  10 H :    0.017230
  11 H :    0.025141
  12 C :   -0.055485
  13 H :    0.024576
  14 H :    0.019812
  15 H :    0.026498
  16 S :    0.377970
  17 C :   -0.182204
  18 C :   -0.064592
  19 C :   -0.052966
  20 C :   -0.169417
  21 H :    0.024798
  22 C :   -0.028625
  23 H :    0.038729
  24 H :    0.015349
  25 C :   -0.039374
  26 H :    0.015597
  27 H :    0.027574
  28 C :   -0.064318
  29 H :    0.024405
  30 H :    0.033993
  31 H :    0.022293
  32 H :    0.011815
  33 H :    0.023875

  Mayer bond orders larger than 0.100000
B(  0-S ,  1-C ) :   1.1322 B(  0-S ,  4-C ) :   1.1392 B(  1-C ,  2-C ) :   1.6401
B(  1-C , 32-H ) :   0.9765 B(  2-C ,  3-C ) :   1.1905 B(  2-C ,  6-C ) :   1.0217
B(  3-C ,  4-C ) :   1.5892 B(  3-C ,  5-H ) :   1.0009 B(  4-C , 20-C ) :   1.0644
B(  6-C ,  7-H ) :   0.9351 B(  6-C ,  8-H ) :   0.9391 B(  6-C ,  9-C ) :   1.0732
B(  9-C , 10-H ) :   0.9579 B(  9-C , 11-H ) :   0.9575 B(  9-C , 12-C ) :   1.0613
B( 12-C , 13-H ) :   0.9753 B( 12-C , 14-H ) :   0.9780 B( 12-C , 15-H ) :   0.9717
B( 16-S , 17-C ) :   1.1532 B( 16-S , 20-C ) :   1.1096 B( 17-C , 18-C ) :   1.6160
B( 17-C , 33-H ) :   0.9716 B( 18-C , 19-C ) :   1.2252 B( 18-C , 21-H ) :   0.9906
B( 19-C , 20-C ) :   1.6127 B( 19-C , 22-C ) :   1.0515 B( 22-C , 23-H ) :   0.9322
B( 22-C , 24-H ) :   0.9408 B( 22-C , 25-C ) :   1.0326 B( 25-C , 26-H ) :   0.9584
B( 25-C , 27-H ) :   0.9500 B( 25-C , 28-C ) :   1.0989 B( 28-C , 29-H ) :   0.9697
B( 28-C , 30-H ) :   0.9672 B( 28-C , 31-H ) :   0.9723

Dispersion correction           -0.015644212
FINAL SINGLE POINT ENERGY     -1339.870757747861

DIPOLE MOMENT
-------------
                                X             Y             Z
Electronic contribution:     30.93978       9.96156       5.80259
Nuclear contribution   :    -31.61182     -10.11753      -5.83384
                        -----------------------------------------
Total Dipole Moment    :     -0.67204      -0.15597      -0.03125
                        -----------------------------------------
Magnitude (a.u.)       :      0.69061
Magnitude (Debye)      :      1.75539

Rotational constants in cm-1:     0.017631     0.010696     0.007002
Rotational constants in MHz :   528.558932   320.657562   209.925577

                             ****ORCA TERMINATED NORMALLY****
TOTAL RUN TIME: 0 days 0 hours 0 minutes 22 seconds 995 msec
