                         Program Version 4.2.1 -  RELEASE  -
|  1> ! wB97X-D3 SP def2-SVP
|  2> %pal
|  3> nprocs 24
|  4> end
|  5>
|  6> * xyz 0 1
|  7> S 	 -45.9305 	 9.85657 	 24.5449
|  8> C 	 -45.2886 	 10.3157 	 22.9716
|  9> C 	 -45.8361 	 11.4975 	 22.4877
| 10> C 	 -46.9285 	 11.9082 	 23.358
| 11> C 	 -47.1207 	 11.1028 	 24.4909
| 12> H 	 -47.6678 	 12.6501 	 23.2608
| 13> C 	 -45.4108 	 12.2499 	 21.295
| 14> H 	 -46.3081 	 12.566 	 20.7539
| 15> H 	 -44.8227 	 11.6252 	 20.6093
| 16> C 	 -44.6203 	 13.5086 	 21.7728
| 17> H 	 -45.1881 	 14.1759 	 22.4828
| 18> H 	 -43.7503 	 13.1038 	 22.2579
| 19> C 	 -44.112 	 14.408 	 20.6202
| 20> H 	 -44.8773 	 14.972 	 20.1336
| 21> H 	 -43.4862 	 15.1658 	 21.0455
| 22> H 	 -43.4432 	 13.8464 	 20.021
| 23> S 	 -47.5829 	 11.4652 	 27.1351
| 24> C 	 -49.1864 	 11.5566 	 27.7089
| 25> C 	 -50.0613 	 11.3593 	 26.7323
| 26> C 	 -49.5167 	 11.047 	 25.4714
| 27> C 	 -48.1076 	 11.2266 	 25.5001
| 28> H 	 -51.1208 	 11.2816 	 26.9811
| 29> C 	 -50.3739 	 10.649 	 24.2508
| 30> H 	 -51.1814 	 10.101 	 24.7332
| 31> H 	 -49.8959 	 9.9671 	 23.5655
| 32> C 	 -50.8001 	 11.9058 	 23.3205
| 33> H 	 -49.978 	 12.5434 	 23.0779
| 34> H 	 -51.4901 	 12.5381 	 23.8497
| 35> C 	 -51.4946 	 11.326 	 22.0368
| 36> H 	 -52.3308 	 10.635 	 22.223
| 37> H 	 -50.7071 	 10.7155 	 21.3664
| 38> H 	 -51.9729 	 12.1414 	 21.4608
| 39> H 	 -44.5039 	 9.84378 	 22.4421
| 40> H 	 -49.5357 	 11.608 	 28.745
| 41> *
| 42>
| 43>                          ****END OF INPUT****

CARTESIAN COORDINATES (ANGSTROEM)
---------------------------------
  S    -45.930500    9.856570   24.544900
  C    -45.288600   10.315700   22.971600
  C    -45.836100   11.497500   22.487700
  C    -46.928500   11.908200   23.358000
  C    -47.120700   11.102800   24.490900
  H    -47.667800   12.650100   23.260800
  C    -45.410800   12.249900   21.295000
  H    -46.308100   12.566000   20.753900
  H    -44.822700   11.625200   20.609300
  C    -44.620300   13.508600   21.772800
  H    -45.188100   14.175900   22.482800
  H    -43.750300   13.103800   22.257900
  C    -44.112000   14.408000   20.620200
  H    -44.877300   14.972000   20.133600
  H    -43.486200   15.165800   21.045500
  H    -43.443200   13.846400   20.021000
  S    -47.582900   11.465200   27.135100
  C    -49.186400   11.556600   27.708900
  C    -50.061300   11.359300   26.732300
  C    -49.516700   11.047000   25.471400
  C    -48.107600   11.226600   25.500100
  H    -51.120800   11.281600   26.981100
  C    -50.373900   10.649000   24.250800
  H    -51.181400   10.101000   24.733200
  H    -49.895900    9.967100   23.565500
  C    -50.800100   11.905800   23.320500
  H    -49.978000   12.543400   23.077900
  H    -51.490100   12.538100   23.849700
  C    -51.494600   11.326000   22.036800
  H    -52.330800   10.635000   22.223000
  H    -50.707100   10.715500   21.366400
  H    -51.972900   12.141400   21.460800
  H    -44.503900    9.843780   22.442100
  H    -49.535700   11.608000   28.745000

 Total Charge           Charge          ....    0
 Multiplicity           Mult            ....    1
 Number of Electrons    NEL             ....  134
 Basis Dimension        Dim             ....  322

ORBITAL ENERGIES
----------------

  NO   OCC          E(Eh)            E(eV)
   0   2.0000     -88.963681     -2420.8248
   1   2.0000     -88.963064     -2420.8080
   2   2.0000     -10.322759      -280.8966
   3   2.0000     -10.321200      -280.8541
   4   2.0000     -10.310600      -280.5657
   5   2.0000     -10.306897      -280.4649
   6   2.0000     -10.303695      -280.3778
   7   2.0000     -10.302806      -280.3536
   8   2.0000     -10.296803      -280.1903
   9   2.0000     -10.294217      -280.1199
  10   2.0000     -10.293498      -280.1003
  11   2.0000     -10.293186      -280.0918
  12   2.0000     -10.292402      -280.0705
  13   2.0000     -10.290629      -280.0223
  14   2.0000     -10.283439      -279.8266
  15   2.0000     -10.270787      -279.4823
  16   2.0000      -8.079013      -219.8411
  17   2.0000      -8.078638      -219.8309
  18   2.0000      -6.037395      -164.2859
  19   2.0000      -6.037138      -164.2789
  20   2.0000      -6.033324      -164.1751
  21   2.0000      -6.033029      -164.1671
  22   2.0000      -6.029855      -164.0807
  23   2.0000      -6.029487      -164.0707
  24   2.0000      -1.012114       -27.5410
  25   2.0000      -0.986201       -26.8359
  26   2.0000      -0.915039       -24.8995
  27   2.0000      -0.896231       -24.3877
  28   2.0000      -0.873809       -23.7775
  29   2.0000      -0.846861       -23.0443
  30   2.0000      -0.846238       -23.0273
  31   2.0000      -0.815153       -22.1814
  32   2.0000      -0.783131       -21.3101
  33   2.0000      -0.766348       -20.8534
  34   2.0000      -0.710423       -19.3316
  35   2.0000      -0.701649       -19.0928
  36   2.0000      -0.696300       -18.9473
  37   2.0000      -0.656586       -17.8666
  38   2.0000      -0.645337       -17.5605
  39   2.0000      -0.615991       -16.7620
  40   2.0000      -0.596495       -16.2315
  41   2.0000      -0.571721       -15.5573
  42   2.0000      -0.565305       -15.3827
  43   2.0000      -0.552698       -15.0397
  44   2.0000      -0.523265       -14.2388
  45   2.0000      -0.518410       -14.1066
  46   2.0000      -0.515470       -14.0266
  47   2.0000      -0.511377       -13.9153
  48   2.0000      -0.505901       -13.7663
  49   2.0000      -0.503981       -13.7140
  50   2.0000      -0.497228       -13.5303
  51   2.0000      -0.474665       -12.9163
  52   2.0000      -0.469246       -12.7688
  53   2.0000      -0.464531       -12.6405
  54   2.0000      -0.453959       -12.3528
  55   2.0000      -0.450057       -12.2467
  56   2.0000      -0.446674       -12.1546
  57   2.0000      -0.436242       -11.8708
  58   2.0000      -0.432415       -11.7666
  59   2.0000      -0.427195       -11.6246
  60   2.0000      -0.426510       -11.6059
  61   2.0000      -0.422911       -11.5080
  62   2.0000      -0.414114       -11.2686
  63   2.0000      -0.340596        -9.2681
  64   2.0000      -0.328004        -8.9254
  65   2.0000      -0.324993        -8.8435
  66   2.0000      -0.294468        -8.0129
  67   0.0000       0.037532         1.0213
  68   0.0000       0.067019         1.8237
  69   0.0000       0.117154         3.1879
  70   0.0000       0.125323         3.4102
  71   0.0000       0.133577         3.6348

MULLIKEN ATOMIC CHARGES
-----------------------
   0 S :    0.120531
   1 C :   -0.101825
   2 C :   -0.081675
   3 C :    0.058395
   4 C :   -0.172400
   5 H :   -0.020531
   6 C :    0.089495
   7 H :    0.026735
   8 H :    0.021527
   9 C :   -0.121330
  10 H :    0.047710
  11 H :    0.025316
  12 C :    0.005896
  13 H :    0.030396
  14 H :    0.018355
  15 H :    0.019414
  16 S :    0.118481
  17 C :   -0.076366
  18 C :   -0.047764
  19 C :   -0.024601
  20 C :   -0.195424
  21 H :    0.014372
  22 C :    0.074299
  23 H :    0.026500
  24 H :    0.026659
  25 C :   -0.042632
  26 H :    0.027387
  27 H :    0.024134
  28 C :   -0.105433
  29 H :    0.037297
  30 H :    0.054484
  31 H :    0.040679
  32 H :    0.025473
  33 H :    0.056444
Sum of atomic charges:    0.0000000

LOEWDIN ATOMIC CHARGES
----------------------
   0 S :    0.411554
   1 C :   -0.193814
   2 C :   -0.055835
   3 C :   -0.053155
   4 C :   -0.208191
   5 H :    0.018255
   6 C :   -0.033117
   7 H :    0.031604
   8 H :    0.030887
   9 C :   -0.033556
  10 H :    0.031593
  11 H :    0.022569
  12 C :   -0.061408
  13 H :    0.022115
  14 H :    0.025844
  15 H :    0.019685
  16 S :    0.432361
  17 C :   -0.203505
  18 C :   -0.083725
  19 C :   -0.050994
  20 C :   -0.215369
  21 H :    0.032410
  22 C :   -0.023376
  23 H :    0.032182
  24 H :    0.028555
  25 C :   -0.028584
  26 H :    0.019369
  27 H :    0.020337
  28 C :   -0.081703
  29 H :    0.024645
  30 H :    0.038781
  31 H :    0.026430
  32 H :    0.019153
  33 H :    0.038001

  Mayer bond orders larger than 0.100000
B(  0-S ,  1-C ) :   1.1345 B(  0-S ,  4-C ) :   1.1490 B(  1-C ,  2-C ) :   1.6177
B(  1-C , 32-H ) :   0.9711 B(  2-C ,  3-C ) :   1.1988 B(  2-C ,  6-C ) :   1.0491
B(  3-C ,  4-C ) :   1.5915 B(  3-C ,  5-H ) :   0.9987 B(  4-C , 20-C ) :   1.0586
B(  6-C ,  7-H ) :   0.9321 B(  6-C ,  8-H ) :   0.9380 B(  6-C ,  9-C ) :   1.0489
B(  9-C , 10-H ) :   0.9609 B(  9-C , 11-H ) :   0.9554 B(  9-C , 12-C ) :   1.0925
B( 12-C , 13-H ) :   0.9744 B( 12-C , 14-H ) :   0.9703 B( 12-C , 15-H ) :   0.9721
B( 16-S , 17-C ) :   1.1558 B( 16-S , 20-C ) :   1.1612 B( 17-C , 18-C ) :   1.6191
B( 17-C , 33-H ) :   0.9607 B( 18-C , 19-C ) :   1.2710 B( 18-C , 21-H ) :   0.9828
B( 19-C , 20-C ) :   1.5425 B( 19-C , 22-C ) :   1.0420 B( 22-C , 23-H ) :   0.9355
B( 22-C , 24-H ) :   0.9421 B( 22-C , 25-C ) :   1.0441 B( 25-C , 26-H ) :   0.9602
B( 25-C , 27-H ) :   0.9560 B( 25-C , 28-C ) :   1.0735 B( 28-C , 29-H ) :   0.9757
B( 28-C , 30-H ) :   0.9738 B( 28-C , 31-H ) :   0.9744

Dispersion correction           -0.014063407
FINAL SINGLE POINT ENERGY     -1339.872417970716

DIPOLE MOMENT
-------------
                                X             Y             Z
Electronic contribution:      6.14079     -11.81269      24.41155
Nuclear contribution   :     -6.45181      12.05673     -24.83205
                        -----------------------------------------
Total Dipole Moment    :     -0.31103       0.24404      -0.42051
                        -----------------------------------------
Magnitude (a.u.)       :      0.57716
Magnitude (Debye)      :      1.46704

Rotational constants in cm-1:     0.017346     0.008512     0.006845
Rotational constants in MHz :   520.027273   255.168690   205.220805

                             ****ORCA TERMINATED NORMALLY****
TOTAL RUN TIME: 0 days 0 hours 0 minutes 21 seconds 368 msec
