                         Program Version 4.2.1 -  RELEASE  -
|  1> ! wB97X-D3 SP def2-SVP
|  2> %pal
|  3> nprocs 24
|  4> end
|  5>
|  6> * xyz 0 1
|  7> S 	 -52.6573 	 -44.6121 	 -77.0406
|  8> C 	 -53.3214 	 -44.5704 	 -78.6738
|  9> C 	 -52.3937 	 -44.7617 	 -79.6364
| 10> C 	 -51.1701 	 -45.1597 	 -79.0164
| 11> C 	 -51.0943 	 -45.0301 	 -77.6595
| 12> H 	 -50.2756 	 -45.4222 	 -79.5141
| 13> C 	 -52.5512 	 -44.8454 	 -81.1557
| 14> H 	 -53.0829 	 -43.9369 	 -81.4166
| 15> H 	 -53.2518 	 -45.6178 	 -81.4129
| 16> C 	 -51.3068 	 -44.9266 	 -82.003
| 17> H 	 -50.5528 	 -44.1959 	 -81.5904
| 18> H 	 -50.8488 	 -45.8804 	 -81.9183
| 19> C 	 -51.4219 	 -44.7067 	 -83.4477
| 20> H 	 -51.924 	 -43.7969 	 -83.6159
| 21> H 	 -50.442 	 -44.5572 	 -83.9745
| 22> H 	 -51.9003 	 -45.5571 	 -83.8599
| 23> S 	 -49.772 	 -46.5263 	 -75.7548
| 24> C 	 -48.2586 	 -45.9798 	 -75.0972
| 25> C 	 -47.8816 	 -44.725 	 -75.6
| 26> C 	 -48.7658 	 -44.3724 	 -76.7191
| 27> C 	 -49.9415 	 -45.119 	 -76.8116
| 28> H 	 -46.9668 	 -44.236 	 -75.2454
| 29> C 	 -48.3765 	 -43.0415 	 -77.4204
| 30> H 	 -48.6162 	 -42.2415 	 -76.6934
| 31> H 	 -48.965 	 -42.8602 	 -78.2757
| 32> C 	 -46.8837 	 -42.9873 	 -77.8771
| 33> H 	 -46.5389 	 -43.9799 	 -78.2965
| 34> H 	 -46.2801 	 -42.7517 	 -76.9682
| 35> C 	 -46.4928 	 -41.8701 	 -78.8708
| 36> H 	 -47.1342 	 -42.0341 	 -79.7541
| 37> H 	 -45.375 	 -41.9206 	 -79.0479
| 38> H 	 -46.6276 	 -40.8166 	 -78.4435
| 39> H 	 -54.302 	 -44.4623 	 -79.0176
| 40> H 	 -47.6715 	 -46.4881 	 -74.3184
| 41> *
| 42>
| 43>                          ****END OF INPUT****

CARTESIAN COORDINATES (ANGSTROEM)
---------------------------------
  S    -52.657300  -44.612100  -77.040600
  C    -53.321400  -44.570400  -78.673800
  C    -52.393700  -44.761700  -79.636400
  C    -51.170100  -45.159700  -79.016400
  C    -51.094300  -45.030100  -77.659500
  H    -50.275600  -45.422200  -79.514100
  C    -52.551200  -44.845400  -81.155700
  H    -53.082900  -43.936900  -81.416600
  H    -53.251800  -45.617800  -81.412900
  C    -51.306800  -44.926600  -82.003000
  H    -50.552800  -44.195900  -81.590400
  H    -50.848800  -45.880400  -81.918300
  C    -51.421900  -44.706700  -83.447700
  H    -51.924000  -43.796900  -83.615900
  H    -50.442000  -44.557200  -83.974500
  H    -51.900300  -45.557100  -83.859900
  S    -49.772000  -46.526300  -75.754800
  C    -48.258600  -45.979800  -75.097200
  C    -47.881600  -44.725000  -75.600000
  C    -48.765800  -44.372400  -76.719100
  C    -49.941500  -45.119000  -76.811600
  H    -46.966800  -44.236000  -75.245400
  C    -48.376500  -43.041500  -77.420400
  H    -48.616200  -42.241500  -76.693400
  H    -48.965000  -42.860200  -78.275700
  C    -46.883700  -42.987300  -77.877100
  H    -46.538900  -43.979900  -78.296500
  H    -46.280100  -42.751700  -76.968200
  C    -46.492800  -41.870100  -78.870800
  H    -47.134200  -42.034100  -79.754100
  H    -45.375000  -41.920600  -79.047900
  H    -46.627600  -40.816600  -78.443500
  H    -54.302000  -44.462300  -79.017600
  H    -47.671500  -46.488100  -74.318400

 Total Charge           Charge          ....    0
 Multiplicity           Mult            ....    1
 Number of Electrons    NEL             ....  134
 Basis Dimension        Dim             ....  322

ORBITAL ENERGIES
----------------

  NO   OCC          E(Eh)            E(eV)
   0   2.0000     -88.965230     -2420.8670
   1   2.0000     -88.962934     -2420.8045
   2   2.0000     -10.327066      -281.0137
   3   2.0000     -10.321715      -280.8681
   4   2.0000     -10.321680      -280.8672
   5   2.0000     -10.312092      -280.6063
   6   2.0000     -10.306901      -280.4650
   7   2.0000     -10.298806      -280.2448
   8   2.0000     -10.297432      -280.2074
   9   2.0000     -10.294670      -280.1322
  10   2.0000     -10.292940      -280.0851
  11   2.0000     -10.291712      -280.0517
  12   2.0000     -10.291401      -280.0432
  13   2.0000     -10.284400      -279.8527
  14   2.0000     -10.282379      -279.7977
  15   2.0000     -10.273005      -279.5427
  16   2.0000      -8.079989      -219.8677
  17   2.0000      -8.077720      -219.8059
  18   2.0000      -6.038597      -164.3186
  19   2.0000      -6.036303      -164.2561
  20   2.0000      -6.034523      -164.2077
  21   2.0000      -6.032093      -164.1416
  22   2.0000      -6.030600      -164.1010
  23   2.0000      -6.028510      -164.0441
  24   2.0000      -1.007316       -27.4105
  25   2.0000      -0.982194       -26.7269
  26   2.0000      -0.922760       -25.1096
  27   2.0000      -0.900081       -24.4924
  28   2.0000      -0.877935       -23.8898
  29   2.0000      -0.849918       -23.1274
  30   2.0000      -0.842329       -22.9209
  31   2.0000      -0.814727       -22.1699
  32   2.0000      -0.788787       -21.4640
  33   2.0000      -0.771365       -20.9899
  34   2.0000      -0.711880       -19.3712
  35   2.0000      -0.692002       -18.8303
  36   2.0000      -0.688133       -18.7250
  37   2.0000      -0.651826       -17.7371
  38   2.0000      -0.644254       -17.5310
  39   2.0000      -0.620176       -16.8758
  40   2.0000      -0.592533       -16.1236
  41   2.0000      -0.584912       -15.9163
  42   2.0000      -0.571113       -15.5408
  43   2.0000      -0.564350       -15.3567
  44   2.0000      -0.530168       -14.4266
  45   2.0000      -0.522749       -14.2247
  46   2.0000      -0.515667       -14.0320
  47   2.0000      -0.511391       -13.9156
  48   2.0000      -0.506687       -13.7877
  49   2.0000      -0.503260       -13.6944
  50   2.0000      -0.499616       -13.5952
  51   2.0000      -0.475699       -12.9444
  52   2.0000      -0.470190       -12.7945
  53   2.0000      -0.464113       -12.6292
  54   2.0000      -0.459062       -12.4917
  55   2.0000      -0.451244       -12.2790
  56   2.0000      -0.447001       -12.1635
  57   2.0000      -0.430282       -11.7086
  58   2.0000      -0.424754       -11.5582
  59   2.0000      -0.424324       -11.5464
  60   2.0000      -0.416496       -11.3334
  61   2.0000      -0.415999       -11.3199
  62   2.0000      -0.412207       -11.2167
  63   2.0000      -0.333029        -9.0622
  64   2.0000      -0.332352        -9.0438
  65   2.0000      -0.323828        -8.8118
  66   2.0000      -0.304434        -8.2841
  67   0.0000       0.040106         1.0913
  68   0.0000       0.063000         1.7143
  69   0.0000       0.112817         3.0699
  70   0.0000       0.124474         3.3871
  71   0.0000       0.128018         3.4835

MULLIKEN ATOMIC CHARGES
-----------------------
   0 S :    0.124758
   1 C :   -0.087017
   2 C :   -0.097235
   3 C :    0.044628
   4 C :   -0.167286
   5 H :   -0.009482
   6 C :    0.097887
   7 H :    0.016539
   8 H :    0.032537
   9 C :   -0.113873
  10 H :    0.031862
  11 H :    0.024237
  12 C :    0.003896
  13 H :    0.013775
  14 H :    0.037427
  15 H :    0.025398
  16 S :    0.106521
  17 C :   -0.098659
  18 C :   -0.047005
  19 C :   -0.039316
  20 C :   -0.156466
  21 H :    0.038649
  22 C :    0.094160
  23 H :    0.048260
  24 H :    0.003859
  25 C :   -0.144120
  26 H :    0.050079
  27 H :    0.032534
  28 C :   -0.077406
  29 H :    0.044024
  30 H :    0.049768
  31 H :    0.041328
  32 H :    0.008603
  33 H :    0.067135
Sum of atomic charges:   -0.0000000

LOEWDIN ATOMIC CHARGES
----------------------
   0 S :    0.411188
   1 C :   -0.183377
   2 C :   -0.060472
   3 C :   -0.055248
   4 C :   -0.208271
   5 H :    0.022144
   6 C :   -0.029709
   7 H :    0.031970
   8 H :    0.031664
   9 C :   -0.050388
  10 H :    0.028899
  11 H :    0.019989
  12 C :   -0.055188
  13 H :    0.017179
  14 H :    0.037105
  15 H :    0.021628
  16 S :    0.403561
  17 C :   -0.186763
  18 C :   -0.075854
  19 C :   -0.042261
  20 C :   -0.210126
  21 H :    0.036317
  22 C :   -0.030007
  23 H :    0.040228
  24 H :    0.016459
  25 C :   -0.052947
  26 H :    0.031616
  27 H :    0.022282
  28 C :   -0.076591
  29 H :    0.025334
  30 H :    0.035424
  31 H :    0.030893
  32 H :    0.018748
  33 H :    0.034573

  Mayer bond orders larger than 0.100000
B(  0-S ,  1-C ) :   1.1308 B(  0-S ,  4-C ) :   1.1369 B(  1-C ,  2-C ) :   1.6560
B(  1-C , 32-H ) :   0.9718 B(  2-C ,  3-C ) :   1.2281 B(  2-C ,  6-C ) :   0.9998
B(  3-C ,  4-C ) :   1.6060 B(  3-C ,  5-H ) :   0.9969 B(  4-C , 20-C ) :   1.0243
B(  6-C ,  7-H ) :   0.9289 B(  6-C ,  8-H ) :   0.9322 B(  6-C ,  9-C ) :   1.0860
B(  9-C , 10-H ) :   0.9525 B(  9-C , 11-H ) :   0.9415 B(  9-C , 12-C ) :   1.0981
B( 12-C , 13-H ) :   0.9704 B( 12-C , 14-H ) :   0.9684 B( 12-C , 15-H ) :   0.9726
B( 16-S , 17-C ) :   1.1696 B( 16-S , 20-C ) :   1.1219 B( 17-C , 18-C ) :   1.6167
B( 17-C , 33-H ) :   0.9635 B( 18-C , 19-C ) :   1.2073 B( 18-C , 21-H ) :   0.9847
B( 19-C , 20-C ) :   1.6204 B( 19-C , 22-C ) :   1.0447 B( 22-C , 23-H ) :   0.9395
B( 22-C , 24-H ) :   0.9405 B( 22-C , 25-C ) :   1.0446 B( 25-C , 26-H ) :   0.9620
B( 25-C , 27-H ) :   0.9505 B( 25-C , 28-C ) :   1.0855 B( 28-C , 29-H ) :   0.9746
B( 28-C , 30-H ) :   0.9731 B( 28-C , 31-H ) :   0.9734

Dispersion correction           -0.013437315
FINAL SINGLE POINT ENERGY     -1339.862017747268

DIPOLE MOMENT
-------------
                                X             Y             Z
Electronic contribution:    -12.84322     -12.58867      25.54715
Nuclear contribution   :     13.23810      12.85657     -26.10772
                        -----------------------------------------
Total Dipole Moment    :      0.39487       0.26790      -0.56057
                        -----------------------------------------
Magnitude (a.u.)       :      0.73616
Magnitude (Debye)      :      1.87117

Rotational constants in cm-1:     0.015371     0.009016     0.006546
Rotational constants in MHz :   460.821487   270.306962   196.245820

                             ****ORCA TERMINATED NORMALLY****
TOTAL RUN TIME: 0 days 0 hours 0 minutes 21 seconds 114 msec
