                         Program Version 4.2.1 -  RELEASE  -
|  1> ! wB97X-D3 SP def2-SVP
|  2> %pal
|  3> nprocs 24
|  4> end
|  5>
|  6> * xyz 0 1
|  7> S 	 -86.0604 	 -29.7942 	 -61.5695
|  8> C 	 -86.6538 	 -28.1191 	 -61.6016
|  9> C 	 -87.4695 	 -28.0053 	 -60.5302
| 10> C 	 -87.6082 	 -29.1347 	 -59.7213
| 11> C 	 -86.7309 	 -30.1401 	 -59.9818
| 12> H 	 -88.2749 	 -29.1327 	 -58.8172
| 13> C 	 -88.2635 	 -26.7438 	 -60.3196
| 14> H 	 -87.5613 	 -25.9083 	 -60.3681
| 15> H 	 -88.6205 	 -26.7651 	 -59.2408
| 16> C 	 -89.4567 	 -26.4744 	 -61.3398
| 17> H 	 -90.0461 	 -25.5257 	 -61.0843
| 18> H 	 -88.975 	 -26.4312 	 -62.3237
| 19> C 	 -90.3541 	 -27.6625 	 -61.5031
| 20> H 	 -89.7423 	 -28.408 	 -61.8777
| 21> H 	 -90.6016 	 -27.8523 	 -60.5152
| 22> H 	 -91.2461 	 -27.5812 	 -62.214
| 23> S 	 -86.7655 	 -32.8554 	 -60.0871
| 24> C 	 -86.4254 	 -33.7692 	 -58.712
| 25> C 	 -86.528 	 -33.0558 	 -57.5104
| 26> C 	 -86.5408 	 -31.6031 	 -57.8742
| 27> C 	 -86.5797 	 -31.3809 	 -59.2445
| 28> H 	 -86.389 	 -33.4945 	 -56.5313
| 29> C 	 -86.6634 	 -30.532 	 -56.7979
| 30> H 	 -86.415 	 -29.4942 	 -57.1583
| 31> H 	 -85.9428 	 -30.799 	 -56.0564
| 32> C 	 -88.0421 	 -30.4585 	 -56.0517
| 33> H 	 -88.8038 	 -30.1534 	 -56.8478
| 34> H 	 -87.8858 	 -29.6435 	 -55.2994
| 35> C 	 -88.2785 	 -31.7612 	 -55.2693
| 36> H 	 -87.3405 	 -31.9997 	 -54.763
| 37> H 	 -88.526 	 -32.6704 	 -55.824
| 38> H 	 -89.1447 	 -31.5483 	 -54.5945
| 39> H 	 -86.4284 	 -27.2982 	 -62.2975
| 40> H 	 -86.2932 	 -34.7665 	 -58.6955
| 41> *
| 42>
| 43>                          ****END OF INPUT****

CARTESIAN COORDINATES (ANGSTROEM)
---------------------------------
  S    -86.060400  -29.794200  -61.569500
  C    -86.653800  -28.119100  -61.601600
  C    -87.469500  -28.005300  -60.530200
  C    -87.608200  -29.134700  -59.721300
  C    -86.730900  -30.140100  -59.981800
  H    -88.274900  -29.132700  -58.817200
  C    -88.263500  -26.743800  -60.319600
  H    -87.561300  -25.908300  -60.368100
  H    -88.620500  -26.765100  -59.240800
  C    -89.456700  -26.474400  -61.339800
  H    -90.046100  -25.525700  -61.084300
  H    -88.975000  -26.431200  -62.323700
  C    -90.354100  -27.662500  -61.503100
  H    -89.742300  -28.408000  -61.877700
  H    -90.601600  -27.852300  -60.515200
  H    -91.246100  -27.581200  -62.214000
  S    -86.765500  -32.855400  -60.087100
  C    -86.425400  -33.769200  -58.712000
  C    -86.528000  -33.055800  -57.510400
  C    -86.540800  -31.603100  -57.874200
  C    -86.579700  -31.380900  -59.244500
  H    -86.389000  -33.494500  -56.531300
  C    -86.663400  -30.532000  -56.797900
  H    -86.415000  -29.494200  -57.158300
  H    -85.942800  -30.799000  -56.056400
  C    -88.042100  -30.458500  -56.051700
  H    -88.803800  -30.153400  -56.847800
  H    -87.885800  -29.643500  -55.299400
  C    -88.278500  -31.761200  -55.269300
  H    -87.340500  -31.999700  -54.763000
  H    -88.526000  -32.670400  -55.824000
  H    -89.144700  -31.548300  -54.594500
  H    -86.428400  -27.298200  -62.297500
  H    -86.293200  -34.766500  -58.695500

 Total Charge           Charge          ....    0
 Multiplicity           Mult            ....    1
 Number of Electrons    NEL             ....  134
 Basis Dimension        Dim             ....  322

ORBITAL ENERGIES
----------------

  NO   OCC          E(Eh)            E(eV)
   0   2.0000     -88.966179     -2420.8928
   1   2.0000     -88.964748     -2420.8539
   2   2.0000     -10.331061      -281.1225
   3   2.0000     -10.324202      -280.9358
   4   2.0000     -10.316985      -280.7394
   5   2.0000     -10.310425      -280.5609
   6   2.0000     -10.310060      -280.5510
   7   2.0000     -10.303121      -280.3622
   8   2.0000     -10.300733      -280.2972
   9   2.0000     -10.297273      -280.2030
  10   2.0000     -10.293585      -280.1027
  11   2.0000     -10.292987      -280.0864
  12   2.0000     -10.292082      -280.0618
  13   2.0000     -10.291659      -280.0503
  14   2.0000     -10.284217      -279.8478
  15   2.0000     -10.263873      -279.2942
  16   2.0000      -8.083003      -219.9497
  17   2.0000      -8.079002      -219.8408
  18   2.0000      -6.041402      -164.3949
  19   2.0000      -6.037652      -164.2929
  20   2.0000      -6.037328      -164.2840
  21   2.0000      -6.033640      -164.1837
  22   2.0000      -6.033594      -164.1824
  23   2.0000      -6.029571      -164.0730
  24   2.0000      -1.015799       -27.6413
  25   2.0000      -0.993824       -27.0433
  26   2.0000      -0.912490       -24.8301
  27   2.0000      -0.909184       -24.7401
  28   2.0000      -0.875322       -23.8187
  29   2.0000      -0.849384       -23.1129
  30   2.0000      -0.842181       -22.9169
  31   2.0000      -0.821529       -22.3549
  32   2.0000      -0.783013       -21.3069
  33   2.0000      -0.771059       -20.9816
  34   2.0000      -0.710922       -19.3452
  35   2.0000      -0.694309       -18.8931
  36   2.0000      -0.689711       -18.7680
  37   2.0000      -0.669254       -18.2113
  38   2.0000      -0.635078       -17.2813
  39   2.0000      -0.618395       -16.8274
  40   2.0000      -0.591839       -16.1048
  41   2.0000      -0.578350       -15.7377
  42   2.0000      -0.559001       -15.2112
  43   2.0000      -0.552576       -15.0364
  44   2.0000      -0.546131       -14.8610
  45   2.0000      -0.539300       -14.6751
  46   2.0000      -0.523680       -14.2500
  47   2.0000      -0.517100       -14.0710
  48   2.0000      -0.512067       -13.9341
  49   2.0000      -0.498277       -13.5588
  50   2.0000      -0.484485       -13.1835
  51   2.0000      -0.480147       -13.0655
  52   2.0000      -0.475010       -12.9257
  53   2.0000      -0.469636       -12.7794
  54   2.0000      -0.458890       -12.4870
  55   2.0000      -0.445799       -12.1308
  56   2.0000      -0.439369       -11.9558
  57   2.0000      -0.437029       -11.8922
  58   2.0000      -0.433881       -11.8065
  59   2.0000      -0.422585       -11.4991
  60   2.0000      -0.416663       -11.3380
  61   2.0000      -0.410888       -11.1808
  62   2.0000      -0.406961       -11.0740
  63   2.0000      -0.351846        -9.5742
  64   2.0000      -0.329674        -8.9709
  65   2.0000      -0.326223        -8.8770
  66   2.0000      -0.296328        -8.0635
  67   0.0000       0.024355         0.6627
  68   0.0000       0.072498         1.9728
  69   0.0000       0.101516         2.7624
  70   0.0000       0.115697         3.1483
  71   0.0000       0.131232         3.5710

MULLIKEN ATOMIC CHARGES
-----------------------
   0 S :    0.093499
   1 C :   -0.119628
   2 C :   -0.115297
   3 C :    0.026574
   4 C :   -0.135889
   5 H :    0.018070
   6 C :    0.026987
   7 H :    0.034970
   8 H :    0.027582
   9 C :   -0.084244
  10 H :    0.050343
  11 H :    0.017058
  12 C :   -0.016195
  13 H :    0.027221
  14 H :    0.006486
  15 H :    0.049592
  16 S :    0.128772
  17 C :   -0.035839
  18 C :   -0.045424
  19 C :   -0.066383
  20 C :   -0.128235
  21 H :    0.029342
  22 C :    0.019622
  23 H :    0.041522
  24 H :    0.013701
  25 C :   -0.090300
  26 H :    0.050913
  27 H :    0.044508
  28 C :   -0.065284
  29 H :    0.025995
  30 H :    0.049526
  31 H :    0.046545
  32 H :    0.062493
  33 H :    0.011398
Sum of atomic charges:   -0.0000000

LOEWDIN ATOMIC CHARGES
----------------------
   0 S :    0.388898
   1 C :   -0.186808
   2 C :   -0.081911
   3 C :   -0.071080
   4 C :   -0.184627
   5 H :    0.036093
   6 C :   -0.035722
   7 H :    0.032209
   8 H :    0.029564
   9 C :   -0.039885
  10 H :    0.031123
  11 H :    0.019032
  12 C :   -0.062304
  13 H :    0.017750
  14 H :    0.012320
  15 H :    0.036974
  16 S :    0.449556
  17 C :   -0.181224
  18 C :   -0.066972
  19 C :   -0.046956
  20 C :   -0.217945
  21 H :    0.032097
  22 C :   -0.042802
  23 H :    0.033487
  24 H :    0.021556
  25 C :   -0.039575
  26 H :    0.027700
  27 H :    0.031978
  28 C :   -0.072917
  29 H :    0.023976
  30 H :    0.026841
  31 H :    0.033442
  32 H :    0.041512
  33 H :    0.004621

  Mayer bond orders larger than 0.100000
B(  0-S ,  1-C ) :   1.1219 B(  0-S ,  4-C ) :   1.1494 B(  1-C ,  2-C ) :   1.5982
B(  1-C ,  4-C ) :   0.1029 B(  1-C , 32-H ) :   0.9711 B(  2-C ,  3-C ) :   1.2660
B(  2-C ,  6-C ) :   1.0158 B(  3-C ,  4-C ) :   1.5458 B(  3-C ,  5-H ) :   0.9792
B(  4-C , 20-C ) :   1.0469 B(  6-C ,  7-H ) :   0.9440 B(  6-C ,  8-H ) :   0.9443
B(  6-C ,  9-C ) :   1.0566 B(  9-C , 10-H ) :   0.9594 B(  9-C , 11-H ) :   0.9582
B(  9-C , 12-C ) :   1.0654 B( 12-C , 13-H ) :   0.9687 B( 12-C , 14-H ) :   0.9784
B( 12-C , 15-H ) :   0.9726 B( 16-S , 17-C ) :   1.1826 B( 16-S , 20-C ) :   1.1438
B( 17-C , 18-C ) :   1.5957 B( 17-C , 33-H ) :   0.9782 B( 18-C , 19-C ) :   1.2220
B( 18-C , 21-H ) :   0.9838 B( 19-C , 20-C ) :   1.6105 B( 19-C , 22-C ) :   1.0538
B( 22-C , 23-H ) :   0.9388 B( 22-C , 24-H ) :   0.9306 B( 22-C , 25-C ) :   1.0676
B( 25-C , 26-H ) :   0.9484 B( 25-C , 27-H ) :   0.9540 B( 25-C , 28-C ) :   1.0754
B( 28-C , 29-H ) :   0.9701 B( 28-C , 30-H ) :   0.9667 B( 28-C , 31-H ) :   0.9705

Dispersion correction           -0.015114957
FINAL SINGLE POINT ENERGY     -1339.847466425963

DIPOLE MOMENT
-------------
                                X             Y             Z
Electronic contribution:     15.50180     -13.79211     -14.35022
Nuclear contribution   :    -15.78920      14.01338      14.87420
                        -----------------------------------------
Total Dipole Moment    :     -0.28739       0.22127       0.52398
                        -----------------------------------------
Magnitude (a.u.)       :      0.63727
Magnitude (Debye)      :      1.61981

Rotational constants in cm-1:     0.020289     0.008906     0.007072
Rotational constants in MHz :   608.252840   266.983645   212.013316

                             ****ORCA TERMINATED NORMALLY****
TOTAL RUN TIME: 0 days 0 hours 0 minutes 22 seconds 511 msec
