                         Program Version 4.2.1 -  RELEASE  -
|  1> ! wB97X-D3 SP def2-SVP
|  2> %pal
|  3> nprocs 24
|  4> end
|  5>
|  6> * xyz 0 1
|  7> S 	 -68.228 	 15.6261 	 -75.3905
|  8> C 	 -66.7802 	 15.6737 	 -76.3775
|  9> C 	 -65.7101 	 15.1104 	 -75.7231
| 10> C 	 -66.0003 	 14.8131 	 -74.302
| 11> C 	 -67.3602 	 14.9734 	 -74.0273
| 12> H 	 -65.2626 	 14.5016 	 -73.5997
| 13> C 	 -64.3048 	 14.9798 	 -76.3154
| 14> H 	 -64.2687 	 14.2094 	 -77.1179
| 15> H 	 -63.7103 	 14.5728 	 -75.4546
| 16> C 	 -63.6778 	 16.329 	 -76.6317
| 17> H 	 -62.639 	 16.1032 	 -76.8508
| 18> H 	 -64.1716 	 16.6888 	 -77.5554
| 19> C 	 -63.7953 	 17.4292 	 -75.548
| 20> H 	 -64.7835 	 17.7505 	 -75.326
| 21> H 	 -63.2835 	 17.13 	 -74.5795
| 22> H 	 -63.3526 	 18.3811 	 -75.8665
| 23> S 	 -69.5006 	 13.5768 	 -72.8975
| 24> C 	 -69.6199 	 13.5607 	 -71.0945
| 25> C 	 -68.5511 	 14.2193 	 -70.5185
| 26> C 	 -67.6324 	 14.7703 	 -71.4943
| 27> C 	 -67.9949 	 14.5645 	 -72.7928
| 28> H 	 -68.3591 	 14.2596 	 -69.478
| 29> C 	 -66.4061 	 15.6099 	 -71.1272
| 30> H 	 -66.7024 	 16.3966 	 -70.3802
| 31> H 	 -66.0999 	 16.1574 	 -71.9513
| 32> C 	 -65.2866 	 14.6453 	 -70.7238
| 33> H 	 -65.112 	 13.7199 	 -71.3001
| 34> H 	 -65.4815 	 14.3791 	 -69.6931
| 35> C 	 -63.9089 	 15.2805 	 -70.6522
| 36> H 	 -64.0324 	 16.1538 	 -70.0231
| 37> H 	 -63.6816 	 15.6217 	 -71.6378
| 38> H 	 -63.1513 	 14.5873 	 -70.2772
| 39> H 	 -66.8034 	 15.8736 	 -77.4697
| 40> H 	 -70.4506 	 13.0601 	 -70.481
| 41> *
| 42>
| 43>                          ****END OF INPUT****

CARTESIAN COORDINATES (ANGSTROEM)
---------------------------------
  S    -68.228000   15.626100  -75.390500
  C    -66.780200   15.673700  -76.377500
  C    -65.710100   15.110400  -75.723100
  C    -66.000300   14.813100  -74.302000
  C    -67.360200   14.973400  -74.027300
  H    -65.262600   14.501600  -73.599700
  C    -64.304800   14.979800  -76.315400
  H    -64.268700   14.209400  -77.117900
  H    -63.710300   14.572800  -75.454600
  C    -63.677800   16.329000  -76.631700
  H    -62.639000   16.103200  -76.850800
  H    -64.171600   16.688800  -77.555400
  C    -63.795300   17.429200  -75.548000
  H    -64.783500   17.750500  -75.326000
  H    -63.283500   17.130000  -74.579500
  H    -63.352600   18.381100  -75.866500
  S    -69.500600   13.576800  -72.897500
  C    -69.619900   13.560700  -71.094500
  C    -68.551100   14.219300  -70.518500
  C    -67.632400   14.770300  -71.494300
  C    -67.994900   14.564500  -72.792800
  H    -68.359100   14.259600  -69.478000
  C    -66.406100   15.609900  -71.127200
  H    -66.702400   16.396600  -70.380200
  H    -66.099900   16.157400  -71.951300
  C    -65.286600   14.645300  -70.723800
  H    -65.112000   13.719900  -71.300100
  H    -65.481500   14.379100  -69.693100
  C    -63.908900   15.280500  -70.652200
  H    -64.032400   16.153800  -70.023100
  H    -63.681600   15.621700  -71.637800
  H    -63.151300   14.587300  -70.277200
  H    -66.803400   15.873600  -77.469700
  H    -70.450600   13.060100  -70.481000

 Total Charge           Charge          ....    0
 Multiplicity           Mult            ....    1
 Number of Electrons    NEL             ....  134
 Basis Dimension        Dim             ....  322

ORBITAL ENERGIES
----------------

  NO   OCC          E(Eh)            E(eV)
   0   2.0000     -88.967544     -2420.9300
   1   2.0000     -88.963793     -2420.8279
   2   2.0000     -10.331609      -281.1374
   3   2.0000     -10.329554      -281.0815
   4   2.0000     -10.325895      -280.9819
   5   2.0000     -10.315100      -280.6881
   6   2.0000     -10.304243      -280.3927
   7   2.0000     -10.301684      -280.3231
   8   2.0000     -10.299126      -280.2535
   9   2.0000     -10.298089      -280.2252
  10   2.0000     -10.295974      -280.1677
  11   2.0000     -10.291646      -280.0499
  12   2.0000     -10.291060      -280.0340
  13   2.0000     -10.285017      -279.8695
  14   2.0000     -10.280749      -279.7534
  15   2.0000     -10.273910      -279.5673
  16   2.0000      -8.082253      -219.9293
  17   2.0000      -8.077002      -219.7864
  18   2.0000      -6.040862      -164.3802
  19   2.0000      -6.036733      -164.2679
  20   2.0000      -6.035775      -164.2418
  21   2.0000      -6.032930      -164.1644
  22   2.0000      -6.031866      -164.1354
  23   2.0000      -6.027416      -164.0143
  24   2.0000      -1.001633       -27.2558
  25   2.0000      -0.975974       -26.5576
  26   2.0000      -0.912860       -24.8402
  27   2.0000      -0.911014       -24.7899
  28   2.0000      -0.867496       -23.6058
  29   2.0000      -0.849920       -23.1275
  30   2.0000      -0.840295       -22.8656
  31   2.0000      -0.811736       -22.0885
  32   2.0000      -0.783646       -21.3241
  33   2.0000      -0.771764       -21.0008
  34   2.0000      -0.701937       -19.1007
  35   2.0000      -0.699101       -19.0235
  36   2.0000      -0.694317       -18.8933
  37   2.0000      -0.664107       -18.0713
  38   2.0000      -0.638049       -17.3622
  39   2.0000      -0.608699       -16.5635
  40   2.0000      -0.590947       -16.0805
  41   2.0000      -0.572410       -15.5761
  42   2.0000      -0.571372       -15.5478
  43   2.0000      -0.551400       -15.0043
  44   2.0000      -0.541909       -14.7461
  45   2.0000      -0.536057       -14.5868
  46   2.0000      -0.514631       -14.0038
  47   2.0000      -0.508192       -13.8286
  48   2.0000      -0.506387       -13.7795
  49   2.0000      -0.495042       -13.4708
  50   2.0000      -0.491361       -13.3706
  51   2.0000      -0.473034       -12.8719
  52   2.0000      -0.468906       -12.7596
  53   2.0000      -0.465621       -12.6702
  54   2.0000      -0.456250       -12.4152
  55   2.0000      -0.454676       -12.3724
  56   2.0000      -0.444091       -12.0843
  57   2.0000      -0.441712       -12.0196
  58   2.0000      -0.434944       -11.8354
  59   2.0000      -0.420443       -11.4408
  60   2.0000      -0.416172       -11.3246
  61   2.0000      -0.412556       -11.2262
  62   2.0000      -0.408446       -11.1144
  63   2.0000      -0.349979        -9.5234
  64   2.0000      -0.330416        -8.9911
  65   2.0000      -0.328120        -8.9286
  66   2.0000      -0.292234        -7.9521
  67   0.0000       0.027650         0.7524
  68   0.0000       0.071207         1.9376
  69   0.0000       0.107081         2.9138
  70   0.0000       0.114477         3.1151
  71   0.0000       0.121722         3.3122

MULLIKEN ATOMIC CHARGES
-----------------------
   0 S :    0.115187
   1 C :   -0.137897
   2 C :   -0.116591
   3 C :    0.033005
   4 C :   -0.140819
   5 H :   -0.004847
   6 C :    0.050452
   7 H :    0.053344
   8 H :    0.015013
   9 C :   -0.066159
  10 H :    0.033938
  11 H :    0.028945
  12 C :   -0.052858
  13 H :    0.036406
  14 H :    0.035200
  15 H :    0.030931
  16 S :    0.086069
  17 C :   -0.118920
  18 C :    0.002755
  19 C :   -0.066937
  20 C :   -0.134161
  21 H :    0.007375
  22 C :    0.092632
  23 H :    0.044153
  24 H :    0.002970
  25 C :   -0.118206
  26 H :    0.048569
  27 H :    0.020487
  28 C :   -0.014746
  29 H :    0.020760
  30 H :    0.013539
  31 H :    0.043843
  32 H :    0.067881
  33 H :    0.088688
Sum of atomic charges:   -0.0000000

LOEWDIN ATOMIC CHARGES
----------------------
   0 S :    0.409344
   1 C :   -0.209684
   2 C :   -0.058947
   3 C :   -0.057799
   4 C :   -0.192596
   5 H :    0.024573
   6 C :   -0.039192
   7 H :    0.037861
   8 H :    0.029699
   9 C :   -0.040037
  10 H :    0.025263
  11 H :    0.023769
  12 C :   -0.068387
  13 H :    0.022571
  14 H :    0.029044
  15 H :    0.029565
  16 S :    0.351999
  17 C :   -0.175504
  18 C :   -0.066299
  19 C :   -0.050212
  20 C :   -0.180124
  21 H :    0.026247
  22 C :   -0.023852
  23 H :    0.040880
  24 H :    0.015414
  25 C :   -0.045290
  26 H :    0.028138
  27 H :    0.021368
  28 C :   -0.059497
  29 H :    0.022582
  30 H :    0.013848
  31 H :    0.028860
  32 H :    0.036976
  33 H :    0.049421

  Mayer bond orders larger than 0.100000
B(  0-S ,  1-C ) :   1.1211 B(  0-S ,  4-C ) :   1.1564 B(  1-C ,  2-C ) :   1.6316
B(  1-C , 32-H ) :   0.9633 B(  2-C ,  3-C ) :   1.2300 B(  2-C ,  6-C ) :   1.0166
B(  3-C ,  4-C ) :   1.5512 B(  3-C ,  5-H ) :   0.9941 B(  4-C , 20-C ) :   1.0583
B(  6-C ,  7-H ) :   0.9424 B(  6-C ,  8-H ) :   0.9399 B(  6-C ,  9-C ) :   1.0688
B(  9-C , 10-H ) :   0.9584 B(  9-C , 11-H ) :   0.9529 B(  9-C , 12-C ) :   1.0775
B( 12-C , 13-H ) :   0.9690 B( 12-C , 14-H ) :   0.9757 B( 12-C , 15-H ) :   0.9719
B( 16-S , 17-C ) :   1.1264 B( 16-S , 20-C ) :   1.0996 B( 17-C , 18-C ) :   1.6389
B( 17-C , 33-H ) :   0.9559 B( 18-C , 19-C ) :   1.2109 B( 18-C , 21-H ) :   0.9918
B( 19-C , 20-C ) :   1.6516 B( 19-C , 22-C ) :   1.0466 B( 22-C , 23-H ) :   0.9335
B( 22-C , 24-H ) :   0.9348 B( 22-C , 25-C ) :   1.0417 B( 25-C , 26-H ) :   0.9600
B( 25-C , 27-H ) :   0.9528 B( 25-C , 28-C ) :   1.0897 B( 28-C , 29-H ) :   0.9682
B( 28-C , 30-H ) :   0.9759 B( 28-C , 31-H ) :   0.9733

Dispersion correction           -0.015431044
FINAL SINGLE POINT ENERGY     -1339.879953705884

DIPOLE MOMENT
-------------
                                X             Y             Z
Electronic contribution:    -28.78977      -8.37341      -4.67006
Nuclear contribution   :     29.44947       8.46871       4.90827
                        -----------------------------------------
Total Dipole Moment    :      0.65970       0.09530       0.23820
                        -----------------------------------------
Magnitude (a.u.)       :      0.70784
Magnitude (Debye)      :      1.79918

Rotational constants in cm-1:     0.018886     0.009910     0.007031
Rotational constants in MHz :   566.188728   297.082548   210.778057

                             ****ORCA TERMINATED NORMALLY****
TOTAL RUN TIME: 0 days 0 hours 0 minutes 22 seconds 618 msec
