                         Program Version 4.2.1 -  RELEASE  -
|  1> ! wB97X-D3 SP def2-SVP
|  2> %pal
|  3> nprocs 24
|  4> end
|  5>
|  6> * xyz 0 1
|  7> S 	 -59.4834 	 -53.2734 	 -86.477
|  8> C 	 -60.5753 	 -52.3818 	 -85.404
|  9> C 	 -60.4476 	 -52.9209 	 -84.1274
| 10> C 	 -59.8056 	 -54.1771 	 -84.0502
| 11> C 	 -59.3383 	 -54.5377 	 -85.3328
| 12> H 	 -59.6219 	 -54.7922 	 -83.2272
| 13> C 	 -61.0037 	 -52.337 	 -82.8632
| 14> H 	 -61.2318 	 -53.1285 	 -82.1319
| 15> H 	 -62.0447 	 -51.9356 	 -82.9785
| 16> C 	 -60.0315 	 -51.2661 	 -82.2527
| 17> H 	 -59.025 	 -51.5744 	 -82.4314
| 18> H 	 -60.0917 	 -50.3372 	 -82.7921
| 19> C 	 -60.3906 	 -50.9148 	 -80.8267
| 20> H 	 -61.4655 	 -50.6491 	 -80.9105
| 21> H 	 -60.129 	 -51.7426 	 -80.1858
| 22> H 	 -59.9307 	 -50.0099 	 -80.4083
| 23> S 	 -56.8004 	 -55.5986 	 -85.5448
| 24> C 	 -56.5887 	 -57.2615 	 -85.6669
| 25> C 	 -57.7737 	 -57.9202 	 -85.3557
| 26> C 	 -58.9027 	 -57.0657 	 -85.3267
| 27> C 	 -58.5714 	 -55.7708 	 -85.5965
| 28> H 	 -57.7596 	 -58.9757 	 -85.1658
| 29> C 	 -60.376 	 -57.4466 	 -85.0591
| 30> H 	 -61.1199 	 -56.6848 	 -84.8705
| 31> H 	 -60.1969 	 -57.7831 	 -83.9757
| 32> C 	 -60.8325 	 -58.6393 	 -85.9006
| 33> H 	 -61.6676 	 -59.2056 	 -85.4849
| 34> H 	 -59.9908 	 -59.3596 	 -86.004
| 35> C 	 -61.2318 	 -58.2991 	 -87.293
| 36> H 	 -62.0462 	 -57.5677 	 -87.378
| 37> H 	 -61.3868 	 -59.2338 	 -87.8931
| 38> H 	 -60.3758 	 -57.7357 	 -87.6928
| 39> H 	 -61.0301 	 -51.4517 	 -85.6771
| 40> H 	 -55.5809 	 -57.7523 	 -85.8488
| 41> *
| 42>
| 43>                          ****END OF INPUT****

CARTESIAN COORDINATES (ANGSTROEM)
---------------------------------
  S    -59.483400  -53.273400  -86.477000
  C    -60.575300  -52.381800  -85.404000
  C    -60.447600  -52.920900  -84.127400
  C    -59.805600  -54.177100  -84.050200
  C    -59.338300  -54.537700  -85.332800
  H    -59.621900  -54.792200  -83.227200
  C    -61.003700  -52.337000  -82.863200
  H    -61.231800  -53.128500  -82.131900
  H    -62.044700  -51.935600  -82.978500
  C    -60.031500  -51.266100  -82.252700
  H    -59.025000  -51.574400  -82.431400
  H    -60.091700  -50.337200  -82.792100
  C    -60.390600  -50.914800  -80.826700
  H    -61.465500  -50.649100  -80.910500
  H    -60.129000  -51.742600  -80.185800
  H    -59.930700  -50.009900  -80.408300
  S    -56.800400  -55.598600  -85.544800
  C    -56.588700  -57.261500  -85.666900
  C    -57.773700  -57.920200  -85.355700
  C    -58.902700  -57.065700  -85.326700
  C    -58.571400  -55.770800  -85.596500
  H    -57.759600  -58.975700  -85.165800
  C    -60.376000  -57.446600  -85.059100
  H    -61.119900  -56.684800  -84.870500
  H    -60.196900  -57.783100  -83.975700
  C    -60.832500  -58.639300  -85.900600
  H    -61.667600  -59.205600  -85.484900
  H    -59.990800  -59.359600  -86.004000
  C    -61.231800  -58.299100  -87.293000
  H    -62.046200  -57.567700  -87.378000
  H    -61.386800  -59.233800  -87.893100
  H    -60.375800  -57.735700  -87.692800
  H    -61.030100  -51.451700  -85.677100
  H    -55.580900  -57.752300  -85.848800

 Total Charge           Charge          ....    0
 Multiplicity           Mult            ....    1
 Number of Electrons    NEL             ....  134
 Basis Dimension        Dim             ....  322

ORBITAL ENERGIES
----------------

  NO   OCC          E(Eh)            E(eV)
   0   2.0000     -88.967684     -2420.9337
   1   2.0000     -88.959158     -2420.7018
   2   2.0000     -10.327969      -281.0383
   3   2.0000     -10.319792      -280.8158
   4   2.0000     -10.318842      -280.7900
   5   2.0000     -10.314601      -280.6746
   6   2.0000     -10.305883      -280.4373
   7   2.0000     -10.301836      -280.3272
   8   2.0000     -10.299119      -280.2533
   9   2.0000     -10.294197      -280.1194
  10   2.0000     -10.293279      -280.0944
  11   2.0000     -10.291121      -280.0356
  12   2.0000     -10.282842      -279.8104
  13   2.0000     -10.281008      -279.7604
  14   2.0000     -10.278326      -279.6875
  15   2.0000     -10.271162      -279.4925
  16   2.0000      -8.082580      -219.9382
  17   2.0000      -8.075294      -219.7399
  18   2.0000      -6.040866      -164.3803
  19   2.0000      -6.037093      -164.2777
  20   2.0000      -6.033583      -164.1821
  21   2.0000      -6.033551      -164.1813
  22   2.0000      -6.029804      -164.0793
  23   2.0000      -6.025985      -163.9754
  24   2.0000      -1.011202       -27.5162
  25   2.0000      -0.989382       -26.9224
  26   2.0000      -0.911826       -24.8120
  27   2.0000      -0.910776       -24.7835
  28   2.0000      -0.868012       -23.6198
  29   2.0000      -0.855707       -23.2850
  30   2.0000      -0.848046       -23.0765
  31   2.0000      -0.808531       -22.0013
  32   2.0000      -0.782147       -21.2833
  33   2.0000      -0.769712       -20.9449
  34   2.0000      -0.702298       -19.1105
  35   2.0000      -0.695738       -18.9320
  36   2.0000      -0.690664       -18.7939
  37   2.0000      -0.653961       -17.7952
  38   2.0000      -0.648717       -17.6525
  39   2.0000      -0.618331       -16.8256
  40   2.0000      -0.603328       -16.4174
  41   2.0000      -0.567006       -15.4290
  42   2.0000      -0.563047       -15.3213
  43   2.0000      -0.555723       -15.1220
  44   2.0000      -0.534664       -14.5490
  45   2.0000      -0.524230       -14.2650
  46   2.0000      -0.523115       -14.2347
  47   2.0000      -0.515128       -14.0174
  48   2.0000      -0.509906       -13.8753
  49   2.0000      -0.499039       -13.5795
  50   2.0000      -0.481377       -13.0989
  51   2.0000      -0.479253       -13.0411
  52   2.0000      -0.475121       -12.9287
  53   2.0000      -0.467608       -12.7243
  54   2.0000      -0.456424       -12.4199
  55   2.0000      -0.450016       -12.2456
  56   2.0000      -0.439500       -11.9594
  57   2.0000      -0.436010       -11.8644
  58   2.0000      -0.432182       -11.7603
  59   2.0000      -0.422873       -11.5070
  60   2.0000      -0.419600       -11.4179
  61   2.0000      -0.412943       -11.2368
  62   2.0000      -0.398044       -10.8313
  63   2.0000      -0.334157        -9.0929
  64   2.0000      -0.328731        -8.9452
  65   2.0000      -0.325336        -8.8528
  66   2.0000      -0.300557        -8.1786
  67   0.0000       0.031432         0.8553
  68   0.0000       0.059344         1.6148
  69   0.0000       0.110752         3.0137
  70   0.0000       0.115454         3.1417
  71   0.0000       0.130681         3.5560

MULLIKEN ATOMIC CHARGES
-----------------------
   0 S :    0.119241
   1 C :   -0.105361
   2 C :   -0.072387
   3 C :    0.057713
   4 C :   -0.180803
   5 H :   -0.002886
   6 C :    0.020870
   7 H :    0.019081
   8 H :    0.028577
   9 C :   -0.052774
  10 H :    0.023969
  11 H :    0.019153
  12 C :   -0.047099
  13 H :    0.031965
  14 H :    0.039000
  15 H :    0.034574
  16 S :    0.100650
  17 C :   -0.104968
  18 C :   -0.052019
  19 C :   -0.039511
  20 C :   -0.146116
  21 H :    0.014979
  22 C :    0.054984
  23 H :    0.040174
  24 H :    0.037509
  25 C :   -0.066094
  26 H :    0.024730
  27 H :    0.025104
  28 C :   -0.052377
  29 H :    0.029640
  30 H :    0.045474
  31 H :    0.027154
  32 H :    0.043434
  33 H :    0.084419
Sum of atomic charges:   -0.0000000

LOEWDIN ATOMIC CHARGES
----------------------
   0 S :    0.425399
   1 C :   -0.193504
   2 C :   -0.059518
   3 C :   -0.053189
   4 C :   -0.205079
   5 H :    0.024740
   6 C :   -0.037790
   7 H :    0.027345
   8 H :    0.032401
   9 C :   -0.038385
  10 H :    0.018373
  11 H :    0.022350
  12 C :   -0.066979
  13 H :    0.031614
  14 H :    0.023223
  15 H :    0.026970
  16 S :    0.414113
  17 C :   -0.206034
  18 C :   -0.082469
  19 C :   -0.052507
  20 C :   -0.203623
  21 H :    0.027175
  22 C :   -0.032650
  23 H :    0.031632
  24 H :    0.046139
  25 C :   -0.048955
  26 H :    0.021073
  27 H :    0.027508
  28 C :   -0.071661
  29 H :    0.023225
  30 H :    0.032453
  31 H :    0.026824
  32 H :    0.024343
  33 H :    0.045443

  Mayer bond orders larger than 0.100000
B(  0-S ,  1-C ) :   1.1357 B(  0-S ,  4-C ) :   1.1959 B(  1-C ,  2-C ) :   1.5733
B(  1-C ,  4-C ) :   0.1052 B(  1-C , 32-H ) :   0.9797 B(  2-C ,  3-C ) :   1.2512
B(  2-C ,  6-C ) :   1.0335 B(  3-C ,  4-C ) :   1.5129 B(  3-C ,  5-H ) :   1.0139
B(  4-C , 20-C ) :   1.0087 B(  6-C ,  7-H ) :   0.9527 B(  6-C ,  8-H ) :   0.9380
B(  6-C ,  9-C ) :   1.0361 B(  9-C , 10-H ) :   0.9616 B(  9-C , 11-H ) :   0.9542
B(  9-C , 12-C ) :   1.0790 B( 12-C , 13-H ) :   0.9704 B( 12-C , 14-H ) :   0.9784
B( 12-C , 15-H ) :   0.9745 B( 16-S , 17-C ) :   1.1890 B( 16-S , 20-C ) :   1.1433
B( 17-C , 18-C ) :   1.5704 B( 17-C , 33-H ) :   0.9603 B( 18-C , 19-C ) :   1.2516
B( 18-C , 21-H ) :   0.9966 B( 19-C , 20-C ) :   1.5977 B( 19-C , 22-C ) :   1.0116
B( 22-C , 23-H ) :   0.9501 B( 22-C , 24-H ) :   0.9257 B( 22-C , 25-C ) :   1.0640
B( 25-C , 26-H ) :   0.9529 B( 25-C , 27-H ) :   0.9559 B( 25-C , 28-C ) :   1.0828
B( 28-C , 29-H ) :   0.9719 B( 28-C , 30-H ) :   0.9716 B( 28-C , 31-H ) :   0.9724

Dispersion correction           -0.014332461
FINAL SINGLE POINT ENERGY     -1339.856871169608

DIPOLE MOMENT
-------------
                                X             Y             Z
Electronic contribution:     15.34126       1.52090     -12.86777
Nuclear contribution   :    -15.53525      -1.63532      13.43090
                        -----------------------------------------
Total Dipole Moment    :     -0.19399      -0.11443       0.56314
                        -----------------------------------------
Magnitude (a.u.)       :      0.60651
Magnitude (Debye)      :      1.54161

Rotational constants in cm-1:     0.020587     0.007577     0.006991
Rotational constants in MHz :   617.183201   227.150455   209.579522

                             ****ORCA TERMINATED NORMALLY****
TOTAL RUN TIME: 0 days 0 hours 0 minutes 20 seconds 347 msec
