                         Program Version 4.2.1 -  RELEASE  -
|  1> ! wB97X-D3 SP def2-SVP
|  2> %pal
|  3> nprocs 24
|  4> end
|  5>
|  6> * xyz 0 1
|  7> S 	 -94.9898 	 13.1974 	 -113.677
|  8> C 	 -93.753 	 14.4464 	 -113.758
|  9> C 	 -92.5725 	 14.0534 	 -114.417
| 10> C 	 -92.8006 	 12.7394 	 -115.06
| 11> C 	 -94.1094 	 12.2913 	 -114.909
| 12> H 	 -92.1481 	 12.2586 	 -115.744
| 13> C 	 -91.4004 	 14.8228 	 -114.779
| 14> H 	 -90.8067 	 14.068 	 -115.372
| 15> H 	 -90.8832 	 15.154 	 -113.926
| 16> C 	 -91.4299 	 15.9795 	 -115.76
| 17> H 	 -90.4321 	 16.2864 	 -116.019
| 18> H 	 -91.767 	 15.6853 	 -116.769
| 19> C 	 -92.1908 	 17.1457 	 -115.199
| 20> H 	 -93.2677 	 17.0147 	 -115.25
| 21> H 	 -91.9317 	 17.3808 	 -114.141
| 22> H 	 -91.9091 	 18.0524 	 -115.721
| 23> S 	 -95.3429 	 9.88206 	 -114.255
| 24> C 	 -95.5511 	 8.7143 	 -115.523
| 25> C 	 -95.1278 	 9.1562 	 -116.752
| 26> C 	 -94.65 	 10.5024 	 -116.749
| 27> C 	 -94.6161 	 11.0131 	 -115.408
| 28> H 	 -95.0771 	 8.48389 	 -117.566
| 29> C 	 -94.1872 	 11.1957 	 -118.032
| 30> H 	 -93.9449 	 10.3986 	 -118.727
| 31> H 	 -93.3708 	 11.8339 	 -117.702
| 32> C 	 -95.2491 	 12.0194 	 -118.769
| 33> H 	 -95.5388 	 12.873 	 -118.051
| 34> H 	 -96.1648 	 11.3774 	 -118.852
| 35> C 	 -94.7257 	 12.4472 	 -120.134
| 36> H 	 -95.474 	 13.1519 	 -120.554
| 37> H 	 -94.6645 	 11.5484 	 -120.813
| 38> H 	 -93.8039 	 12.8876 	 -120.068
| 39> H 	 -93.8509 	 15.4115 	 -113.333
| 40> H 	 -95.9203 	 7.76104 	 -115.32
| 41> *
| 42>
| 43>                          ****END OF INPUT****

CARTESIAN COORDINATES (ANGSTROEM)
---------------------------------
  S    -94.989800   13.197400  -113.677000
  C    -93.753000   14.446400  -113.758000
  C    -92.572500   14.053400  -114.417000
  C    -92.800600   12.739400  -115.060000
  C    -94.109400   12.291300  -114.909000
  H    -92.148100   12.258600  -115.744000
  C    -91.400400   14.822800  -114.779000
  H    -90.806700   14.068000  -115.372000
  H    -90.883200   15.154000  -113.926000
  C    -91.429900   15.979500  -115.760000
  H    -90.432100   16.286400  -116.019000
  H    -91.767000   15.685300  -116.769000
  C    -92.190800   17.145700  -115.199000
  H    -93.267700   17.014700  -115.250000
  H    -91.931700   17.380800  -114.141000
  H    -91.909100   18.052400  -115.721000
  S    -95.342900    9.882060  -114.255000
  C    -95.551100    8.714300  -115.523000
  C    -95.127800    9.156200  -116.752000
  C    -94.650000   10.502400  -116.749000
  C    -94.616100   11.013100  -115.408000
  H    -95.077100    8.483890  -117.566000
  C    -94.187200   11.195700  -118.032000
  H    -93.944900   10.398600  -118.727000
  H    -93.370800   11.833900  -117.702000
  C    -95.249100   12.019400  -118.769000
  H    -95.538800   12.873000  -118.051000
  H    -96.164800   11.377400  -118.852000
  C    -94.725700   12.447200  -120.134000
  H    -95.474000   13.151900  -120.554000
  H    -94.664500   11.548400  -120.813000
  H    -93.803900   12.887600  -120.068000
  H    -93.850900   15.411500  -113.333000
  H    -95.920300    7.761040  -115.320000

 Total Charge           Charge          ....    0
 Multiplicity           Mult            ....    1
 Number of Electrons    NEL             ....  134
 Basis Dimension        Dim             ....  322

ORBITAL ENERGIES
----------------

  NO   OCC          E(Eh)            E(eV)
   0   2.0000     -88.968362     -2420.9522
   1   2.0000     -88.966507     -2420.9017
   2   2.0000     -10.330158      -281.0979
   3   2.0000     -10.329427      -281.0780
   4   2.0000     -10.314798      -280.6799
   5   2.0000     -10.310214      -280.5552
   6   2.0000     -10.306037      -280.4415
   7   2.0000     -10.304881      -280.4101
   8   2.0000     -10.296373      -280.1786
   9   2.0000     -10.290987      -280.0320
  10   2.0000     -10.290351      -280.0147
  11   2.0000     -10.289306      -279.9863
  12   2.0000     -10.286785      -279.9176
  13   2.0000     -10.286328      -279.9052
  14   2.0000     -10.278618      -279.6954
  15   2.0000     -10.276925      -279.6493
  16   2.0000      -8.082666      -219.9405
  17   2.0000      -8.081141      -219.8990
  18   2.0000      -6.041234      -164.3903
  19   2.0000      -6.039548      -164.3445
  20   2.0000      -6.037384      -164.2856
  21   2.0000      -6.035686      -164.2394
  22   2.0000      -6.033256      -164.1732
  23   2.0000      -6.032018      -164.1396
  24   2.0000      -1.000077       -27.2135
  25   2.0000      -0.978194       -26.6180
  26   2.0000      -0.922067       -25.0907
  27   2.0000      -0.909908       -24.7598
  28   2.0000      -0.866296       -23.5731
  29   2.0000      -0.854113       -23.2416
  30   2.0000      -0.849041       -23.1036
  31   2.0000      -0.810694       -22.0601
  32   2.0000      -0.784896       -21.3581
  33   2.0000      -0.772186       -21.0122
  34   2.0000      -0.709328       -19.3018
  35   2.0000      -0.701403       -19.0862
  36   2.0000      -0.687721       -18.7138
  37   2.0000      -0.661939       -18.0123
  38   2.0000      -0.641205       -17.4481
  39   2.0000      -0.620112       -16.8741
  40   2.0000      -0.595228       -16.1970
  41   2.0000      -0.572907       -15.5896
  42   2.0000      -0.567789       -15.4503
  43   2.0000      -0.548662       -14.9298
  44   2.0000      -0.546310       -14.8659
  45   2.0000      -0.526955       -14.3392
  46   2.0000      -0.520084       -14.1522
  47   2.0000      -0.509738       -13.8707
  48   2.0000      -0.504457       -13.7270
  49   2.0000      -0.493923       -13.4403
  50   2.0000      -0.492406       -13.3991
  51   2.0000      -0.483995       -13.1702
  52   2.0000      -0.472579       -12.8595
  53   2.0000      -0.466656       -12.6984
  54   2.0000      -0.462836       -12.5944
  55   2.0000      -0.450397       -12.2559
  56   2.0000      -0.447332       -12.1725
  57   2.0000      -0.440540       -11.9877
  58   2.0000      -0.432292       -11.7633
  59   2.0000      -0.424328       -11.5465
  60   2.0000      -0.420570       -11.4443
  61   2.0000      -0.414792       -11.2871
  62   2.0000      -0.404961       -11.0195
  63   2.0000      -0.345618        -9.4047
  64   2.0000      -0.331756        -9.0275
  65   2.0000      -0.326312        -8.8794
  66   2.0000      -0.284197        -7.7334
  67   0.0000       0.027841         0.7576
  68   0.0000       0.060995         1.6597
  69   0.0000       0.099647         2.7115
  70   0.0000       0.118179         3.2158
  71   0.0000       0.124986         3.4010

MULLIKEN ATOMIC CHARGES
-----------------------
   0 S :    0.110044
   1 C :   -0.101082
   2 C :   -0.073601
   3 C :    0.028737
   4 C :   -0.156369
   5 H :    0.014903
   6 C :    0.047088
   7 H :    0.026023
   8 H :    0.025946
   9 C :   -0.026317
  10 H :    0.017414
  11 H :    0.017905
  12 C :   -0.065794
  13 H :    0.046073
  14 H :    0.023968
  15 H :    0.026799
  16 S :    0.108070
  17 C :   -0.070859
  18 C :   -0.017287
  19 C :   -0.052206
  20 C :   -0.168347
  21 H :    0.004335
  22 C :    0.093206
  23 H :    0.011646
  24 H :    0.017581
  25 C :   -0.123476
  26 H :    0.046177
  27 H :    0.033926
  28 C :   -0.006845
  29 H :    0.043868
  30 H :    0.036204
  31 H :    0.016312
  32 H :    0.033188
  33 H :    0.032770
Sum of atomic charges:    0.0000000

LOEWDIN ATOMIC CHARGES
----------------------
   0 S :    0.391286
   1 C :   -0.186229
   2 C :   -0.056080
   3 C :   -0.052327
   4 C :   -0.189019
   5 H :    0.023744
   6 C :   -0.039356
   7 H :    0.041746
   8 H :    0.026922
   9 C :   -0.036692
  10 H :    0.023927
  11 H :    0.025644
  12 C :   -0.070843
  13 H :    0.025848
  14 H :    0.025874
  15 H :    0.025910
  16 S :    0.402732
  17 C :   -0.177615
  18 C :   -0.067852
  19 C :   -0.050879
  20 C :   -0.198088
  21 H :    0.025368
  22 C :   -0.032548
  23 H :    0.028038
  24 H :    0.027744
  25 C :   -0.047071
  26 H :    0.032678
  27 H :    0.026581
  28 C :   -0.059823
  29 H :    0.034163
  30 H :    0.032655
  31 H :    0.011531
  32 H :    0.017240
  33 H :    0.014791

  Mayer bond orders larger than 0.100000
B(  0-S ,  1-C ) :   1.1280 B(  0-S ,  4-C ) :   1.1329 B(  1-C ,  2-C ) :   1.6219
B(  1-C , 32-H ) :   0.9695 B(  2-C ,  3-C ) :   1.2058 B(  2-C ,  6-C ) :   1.0466
B(  3-C ,  4-C ) :   1.6047 B(  3-C ,  5-H ) :   0.9837 B(  4-C , 20-C ) :   1.0532
B(  6-C ,  7-H ) :   0.9363 B(  6-C ,  8-H ) :   0.9260 B(  6-C ,  9-C ) :   1.0857
B(  9-C , 10-H ) :   0.9491 B(  9-C , 11-H ) :   0.9484 B(  9-C , 12-C ) :   1.0825
B( 12-C , 13-H ) :   0.9724 B( 12-C , 14-H ) :   0.9732 B( 12-C , 15-H ) :   0.9699
B( 16-S , 17-C ) :   1.1558 B( 16-S , 20-C ) :   1.1495 B( 17-C , 18-C ) :   1.6040
B( 17-C , 33-H ) :   0.9738 B( 18-C , 19-C ) :   1.2533 B( 18-C , 21-H ) :   0.9933
B( 19-C , 20-C ) :   1.5672 B( 19-C , 22-C ) :   1.0405 B( 22-C , 23-H ) :   0.9329
B( 22-C , 24-H ) :   0.9222 B( 22-C , 25-C ) :   1.0726 B( 25-C , 26-H ) :   0.9531
B( 25-C , 27-H ) :   0.9560 B( 25-C , 28-C ) :   1.0763 B( 28-C , 29-H ) :   0.9729
B( 28-C , 30-H ) :   0.9712 B( 28-C , 31-H ) :   0.9734

Dispersion correction           -0.014072916
FINAL SINGLE POINT ENERGY     -1339.864729489203

DIPOLE MOMENT
-------------
                                X             Y             Z
Electronic contribution:    -11.34479     -17.21676      21.15458
Nuclear contribution   :     11.77166      17.43422     -21.73870
                        -----------------------------------------
Total Dipole Moment    :      0.42687       0.21746      -0.58412
                        -----------------------------------------
Magnitude (a.u.)       :      0.75545
Magnitude (Debye)      :      1.92020

Rotational constants in cm-1:     0.017979     0.009011     0.006681
Rotational constants in MHz :   538.998149   270.143166   200.282079

                             ****ORCA TERMINATED NORMALLY****
TOTAL RUN TIME: 0 days 0 hours 0 minutes 21 seconds 731 msec
