                         Program Version 4.2.1 -  RELEASE  -
|  1> ! wB97X-D3 SP def2-SVP
|  2> %pal
|  3> nprocs 24
|  4> end
|  5>
|  6> * xyz 0 1
|  7> S 	 -107.128 	 15.469 	 -121.527
|  8> C 	 -106.95 	 13.9218 	 -120.774
|  9> C 	 -107.293 	 12.8268 	 -121.644
| 10> C 	 -107.64 	 13.2886 	 -122.972
| 11> C 	 -107.806 	 14.6642 	 -123.011
| 12> H 	 -107.907 	 12.6101 	 -123.776
| 13> C 	 -107.16 	 11.3052 	 -121.336
| 14> H 	 -107.149 	 10.8082 	 -122.318
| 15> H 	 -108.109 	 10.9996 	 -120.936
| 16> C 	 -105.918 	 10.8118 	 -120.595
| 17> H 	 -105.987 	 11.0173 	 -119.544
| 18> H 	 -105.825 	 9.70779 	 -120.521
| 19> C 	 -104.588 	 11.1747 	 -121.23
| 20> H 	 -104.819 	 11.2895 	 -122.302
| 21> H 	 -104.355 	 12.1921 	 -120.797
| 22> H 	 -103.859 	 10.4065 	 -120.987
| 23> S 	 -107.676 	 17.1566 	 -124.25
| 24> C 	 -108.838 	 17.5679 	 -125.505
| 25> C 	 -109.481 	 16.4785 	 -125.966
| 26> C 	 -109.157 	 15.3316 	 -125.202
| 27> C 	 -108.282 	 15.5648 	 -124.09
| 28> H 	 -110.203 	 16.5892 	 -126.79
| 29> C 	 -109.836 	 14.0421 	 -125.53
| 30> H 	 -110.73 	 14.2985 	 -126.154
| 31> H 	 -110.227 	 13.5907 	 -124.61
| 32> C 	 -109.02 	 13.0452 	 -126.385
| 33> H 	 -107.978 	 12.8862 	 -125.926
| 34> H 	 -108.899 	 13.466 	 -127.375
| 35> C 	 -109.589 	 11.6443 	 -126.479
| 36> H 	 -110.518 	 11.6817 	 -126.971
| 37> H 	 -109.609 	 11.0166 	 -125.542
| 38> H 	 -108.969 	 11.0458 	 -127.204
| 39> H 	 -106.646 	 13.7136 	 -119.782
| 40> H 	 -108.831 	 18.5928 	 -125.92
| 41> *
| 42>
| 43>                          ****END OF INPUT****

CARTESIAN COORDINATES (ANGSTROEM)
---------------------------------
  S    -107.128000   15.469000  -121.527000
  C    -106.950000   13.921800  -120.774000
  C    -107.293000   12.826800  -121.644000
  C    -107.640000   13.288600  -122.972000
  C    -107.806000   14.664200  -123.011000
  H    -107.907000   12.610100  -123.776000
  C    -107.160000   11.305200  -121.336000
  H    -107.149000   10.808200  -122.318000
  H    -108.109000   10.999600  -120.936000
  C    -105.918000   10.811800  -120.595000
  H    -105.987000   11.017300  -119.544000
  H    -105.825000    9.707790  -120.521000
  C    -104.588000   11.174700  -121.230000
  H    -104.819000   11.289500  -122.302000
  H    -104.355000   12.192100  -120.797000
  H    -103.859000   10.406500  -120.987000
  S    -107.676000   17.156600  -124.250000
  C    -108.838000   17.567900  -125.505000
  C    -109.481000   16.478500  -125.966000
  C    -109.157000   15.331600  -125.202000
  C    -108.282000   15.564800  -124.090000
  H    -110.203000   16.589200  -126.790000
  C    -109.836000   14.042100  -125.530000
  H    -110.730000   14.298500  -126.154000
  H    -110.227000   13.590700  -124.610000
  C    -109.020000   13.045200  -126.385000
  H    -107.978000   12.886200  -125.926000
  H    -108.899000   13.466000  -127.375000
  C    -109.589000   11.644300  -126.479000
  H    -110.518000   11.681700  -126.971000
  H    -109.609000   11.016600  -125.542000
  H    -108.969000   11.045800  -127.204000
  H    -106.646000   13.713600  -119.782000
  H    -108.831000   18.592800  -125.920000

 Total Charge           Charge          ....    0
 Multiplicity           Mult            ....    1
 Number of Electrons    NEL             ....  134
 Basis Dimension        Dim             ....  322

ORBITAL ENERGIES
----------------

  NO   OCC          E(Eh)            E(eV)
   0   2.0000     -88.971977     -2421.0506
   1   2.0000     -88.964058     -2420.8351
   2   2.0000     -10.341496      -281.4064
   3   2.0000     -10.331204      -281.1264
   4   2.0000     -10.317441      -280.7518
   5   2.0000     -10.316555      -280.7277
   6   2.0000     -10.311259      -280.5836
   7   2.0000     -10.303606      -280.3754
   8   2.0000     -10.302060      -280.3333
   9   2.0000     -10.297370      -280.2057
  10   2.0000     -10.294199      -280.1194
  11   2.0000     -10.292163      -280.0640
  12   2.0000     -10.291254      -280.0392
  13   2.0000     -10.284120      -279.8451
  14   2.0000     -10.282292      -279.7954
  15   2.0000     -10.279325      -279.7147
  16   2.0000      -8.085648      -220.0217
  17   2.0000      -8.079609      -219.8573
  18   2.0000      -6.044229      -164.4718
  19   2.0000      -6.040423      -164.3683
  20   2.0000      -6.038047      -164.3036
  21   2.0000      -6.036269      -164.2552
  22   2.0000      -6.034024      -164.1942
  23   2.0000      -6.030374      -164.0948
  24   2.0000      -1.006123       -27.3780
  25   2.0000      -0.979966       -26.6662
  26   2.0000      -0.910719       -24.7819
  27   2.0000      -0.908409       -24.7191
  28   2.0000      -0.869180       -23.6516
  29   2.0000      -0.854985       -23.2653
  30   2.0000      -0.848334       -23.0843
  31   2.0000      -0.816017       -22.2049
  32   2.0000      -0.780585       -21.2408
  33   2.0000      -0.766621       -20.8608
  34   2.0000      -0.703909       -19.1543
  35   2.0000      -0.698436       -19.0054
  36   2.0000      -0.687772       -18.7152
  37   2.0000      -0.663260       -18.0482
  38   2.0000      -0.635416       -17.2905
  39   2.0000      -0.617547       -16.8043
  40   2.0000      -0.594259       -16.1706
  41   2.0000      -0.569575       -15.4989
  42   2.0000      -0.567425       -15.4404
  43   2.0000      -0.564394       -15.3579
  44   2.0000      -0.545779       -14.8514
  45   2.0000      -0.521176       -14.1819
  46   2.0000      -0.509967       -13.8769
  47   2.0000      -0.509163       -13.8550
  48   2.0000      -0.501314       -13.6414
  49   2.0000      -0.497900       -13.5486
  50   2.0000      -0.491197       -13.3661
  51   2.0000      -0.484580       -13.1861
  52   2.0000      -0.472787       -12.8652
  53   2.0000      -0.464409       -12.6372
  54   2.0000      -0.459000       -12.4900
  55   2.0000      -0.451502       -12.2860
  56   2.0000      -0.447644       -12.1810
  57   2.0000      -0.434713       -11.8291
  58   2.0000      -0.432923       -11.7804
  59   2.0000      -0.426555       -11.6072
  60   2.0000      -0.419999       -11.4287
  61   2.0000      -0.410224       -11.1628
  62   2.0000      -0.398949       -10.8560
  63   2.0000      -0.361268        -9.8306
  64   2.0000      -0.337782        -9.1915
  65   2.0000      -0.325153        -8.8479
  66   2.0000      -0.279031        -7.5928
  67   0.0000       0.015247         0.4149
  68   0.0000       0.075822         2.0632
  69   0.0000       0.096006         2.6124
  70   0.0000       0.123637         3.3643
  71   0.0000       0.126403         3.4396

MULLIKEN ATOMIC CHARGES
-----------------------
   0 S :    0.109776
   1 C :   -0.084190
   2 C :   -0.142792
   3 C :    0.017362
   4 C :   -0.118001
   5 H :    0.010217
   6 C :    0.084489
   7 H :    0.017946
   8 H :    0.037693
   9 C :   -0.101435
  10 H :    0.018724
  11 H :    0.021492
  12 C :   -0.044660
  13 H :    0.037540
  14 H :    0.043446
  15 H :    0.045289
  16 S :    0.091346
  17 C :   -0.112156
  18 C :   -0.019104
  19 C :   -0.054579
  20 C :   -0.106602
  21 H :    0.032523
  22 C :    0.034825
  23 H :    0.018830
  24 H :    0.032859
  25 C :   -0.093818
  26 H :    0.040854
  27 H :    0.026704
  28 C :   -0.046619
  29 H :    0.019374
  30 H :    0.045959
  31 H :    0.032629
  32 H :    0.035097
  33 H :    0.068983
Sum of atomic charges:   -0.0000000

LOEWDIN ATOMIC CHARGES
----------------------
   0 S :    0.393073
   1 C :   -0.203323
   2 C :   -0.055997
   3 C :   -0.063853
   4 C :   -0.159676
   5 H :    0.032296
   6 C :   -0.032987
   7 H :    0.030661
   8 H :    0.032802
   9 C :   -0.056592
  10 H :    0.015673
  11 H :    0.028500
  12 C :   -0.064063
  13 H :    0.030464
  14 H :    0.033160
  15 H :    0.027398
  16 S :    0.412340
  17 C :   -0.182052
  18 C :   -0.075823
  19 C :   -0.060251
  20 C :   -0.212363
  21 H :    0.041660
  22 C :   -0.041781
  23 H :    0.032387
  24 H :    0.030675
  25 C :   -0.046214
  26 H :    0.027410
  27 H :    0.025012
  28 C :   -0.071926
  29 H :    0.016015
  30 H :    0.030106
  31 H :    0.033071
  32 H :    0.020148
  33 H :    0.034051

  Mayer bond orders larger than 0.100000
B(  0-S ,  1-C ) :   1.1437 B(  0-S ,  4-C ) :   1.1352 B(  1-C ,  2-C ) :   1.6047
B(  1-C ,  4-C ) :   0.1007 B(  1-C , 32-H ) :   0.9684 B(  2-C ,  3-C ) :   1.2485
B(  2-C ,  6-C ) :   1.0045 B(  3-C ,  4-C ) :   1.5681 B(  3-C ,  5-H ) :   0.9779
B(  4-C , 20-C ) :   1.0694 B(  6-C ,  7-H ) :   0.9436 B(  6-C ,  8-H ) :   0.9343
B(  6-C ,  9-C ) :   1.0789 B(  9-C , 10-H ) :   0.9537 B(  9-C , 11-H ) :   0.9583
B(  9-C , 12-C ) :   1.0608 B( 12-C , 13-H ) :   0.9770 B( 12-C , 14-H ) :   0.9727
B( 12-C , 15-H ) :   0.9789 B( 16-S , 17-C ) :   1.1601 B( 16-S , 20-C ) :   1.1531
B( 17-C , 18-C ) :   1.5869 B( 17-C , 33-H ) :   0.9640 B( 18-C , 19-C ) :   1.2740
B( 18-C , 21-H ) :   0.9903 B( 19-C , 20-C ) :   1.5316 B( 19-C , 22-C ) :   1.0580
B( 22-C , 23-H ) :   0.9330 B( 22-C , 24-H ) :   0.9373 B( 22-C , 25-C ) :   1.0540
B( 25-C , 26-H ) :   0.9569 B( 25-C , 27-H ) :   0.9484 B( 25-C , 28-C ) :   1.0883
B( 28-C , 29-H ) :   0.9701 B( 28-C , 30-H ) :   0.9730 B( 28-C , 31-H ) :   0.9703

Dispersion correction           -0.014463712
FINAL SINGLE POINT ENERGY     -1339.866659746546

DIPOLE MOMENT
-------------
                                X             Y             Z
Electronic contribution:     -0.19190      28.73059       4.86634
Nuclear contribution   :     -0.02622     -29.31069      -5.16067
                        -----------------------------------------
Total Dipole Moment    :     -0.21812      -0.58010      -0.29434
                        -----------------------------------------
Magnitude (a.u.)       :      0.68610
Magnitude (Debye)      :      1.74392

Rotational constants in cm-1:     0.018819     0.008939     0.006474
Rotational constants in MHz :   564.192779   267.979300   194.076658

                             ****ORCA TERMINATED NORMALLY****
TOTAL RUN TIME: 0 days 0 hours 0 minutes 21 seconds 734 msec
