                         Program Version 4.2.1 -  RELEASE  -
|  1> ! wB97X-D3 SP def2-SVP
|  2> %pal
|  3> nprocs 24
|  4> end
|  5>
|  6> * xyz 0 1
|  7> S 	 -131.371 	 76.4629 	 -48.9828
|  8> C 	 -131.925 	 76.799 	 -50.6412
|  9> C 	 -130.882 	 76.8311 	 -51.5782
| 10> C 	 -129.633 	 76.5197 	 -50.9267
| 11> C 	 -129.694 	 76.301 	 -49.5697
| 12> H 	 -128.747 	 76.2914 	 -51.4786
| 13> C 	 -130.997 	 77.2133 	 -52.9876
| 14> H 	 -129.988 	 77.0765 	 -53.3678
| 15> H 	 -131.436 	 78.2174 	 -53.0567
| 16> C 	 -131.888 	 76.2744 	 -53.7887
| 17> H 	 -132.867 	 76.3685 	 -53.3699
| 18> H 	 -132.081 	 76.6277 	 -54.8265
| 19> C 	 -131.46 	 74.8352 	 -53.6994
| 20> H 	 -131.283 	 74.4406 	 -52.692
| 21> H 	 -132.072 	 74.1754 	 -54.3409
| 22> H 	 -130.455 	 74.7836 	 -54.1978
| 23> S 	 -128.344 	 77.5997 	 -47.6897
| 24> C 	 -126.764 	 77.0635 	 -47.2457
| 25> C 	 -126.413 	 75.8087 	 -47.8261
| 26> C 	 -127.535 	 75.2777 	 -48.5681
| 27> C 	 -128.556 	 76.2378 	 -48.7028
| 28> H 	 -125.549 	 75.3179 	 -47.5156
| 29> C 	 -127.534 	 73.8731 	 -49.1996
| 30> H 	 -126.545 	 73.4204 	 -49.1861
| 31> H 	 -127.755 	 74.0706 	 -50.2431
| 32> C 	 -128.433 	 72.7953 	 -48.6436
| 33> H 	 -129.48 	 73.1466 	 -48.6565
| 34> H 	 -128.139 	 72.3452 	 -47.6764
| 35> C 	 -128.549 	 71.5901 	 -49.5161
| 36> H 	 -129.283 	 70.9103 	 -49.0661
| 37> H 	 -127.653 	 71.0344 	 -49.6539
| 38> H 	 -128.846 	 71.7955 	 -50.4773
| 39> H 	 -132.932 	 77.0765 	 -50.9802
| 40> H 	 -126.181 	 77.5488 	 -46.5811
| 41> *
| 42>
| 43>                          ****END OF INPUT****

CARTESIAN COORDINATES (ANGSTROEM)
---------------------------------
  S    -131.371000   76.462900  -48.982800
  C    -131.925000   76.799000  -50.641200
  C    -130.882000   76.831100  -51.578200
  C    -129.633000   76.519700  -50.926700
  C    -129.694000   76.301000  -49.569700
  H    -128.747000   76.291400  -51.478600
  C    -130.997000   77.213300  -52.987600
  H    -129.988000   77.076500  -53.367800
  H    -131.436000   78.217400  -53.056700
  C    -131.888000   76.274400  -53.788700
  H    -132.867000   76.368500  -53.369900
  H    -132.081000   76.627700  -54.826500
  C    -131.460000   74.835200  -53.699400
  H    -131.283000   74.440600  -52.692000
  H    -132.072000   74.175400  -54.340900
  H    -130.455000   74.783600  -54.197800
  S    -128.344000   77.599700  -47.689700
  C    -126.764000   77.063500  -47.245700
  C    -126.413000   75.808700  -47.826100
  C    -127.535000   75.277700  -48.568100
  C    -128.556000   76.237800  -48.702800
  H    -125.549000   75.317900  -47.515600
  C    -127.534000   73.873100  -49.199600
  H    -126.545000   73.420400  -49.186100
  H    -127.755000   74.070600  -50.243100
  C    -128.433000   72.795300  -48.643600
  H    -129.480000   73.146600  -48.656500
  H    -128.139000   72.345200  -47.676400
  C    -128.549000   71.590100  -49.516100
  H    -129.283000   70.910300  -49.066100
  H    -127.653000   71.034400  -49.653900
  H    -128.846000   71.795500  -50.477300
  H    -132.932000   77.076500  -50.980200
  H    -126.181000   77.548800  -46.581100

 Total Charge           Charge          ....    0
 Multiplicity           Mult            ....    1
 Number of Electrons    NEL             ....  134
 Basis Dimension        Dim             ....  322

ORBITAL ENERGIES
----------------

  NO   OCC          E(Eh)            E(eV)
   0   2.0000     -88.970108     -2420.9997
   1   2.0000     -88.967667     -2420.9333
   2   2.0000     -10.328357      -281.0489
   3   2.0000     -10.320678      -280.8399
   4   2.0000     -10.317913      -280.7647
   5   2.0000     -10.311409      -280.5877
   6   2.0000     -10.308541      -280.5097
   7   2.0000     -10.299306      -280.2584
   8   2.0000     -10.295086      -280.1435
   9   2.0000     -10.292528      -280.0739
  10   2.0000     -10.290434      -280.0170
  11   2.0000     -10.290080      -280.0073
  12   2.0000     -10.284493      -279.8553
  13   2.0000     -10.281352      -279.7698
  14   2.0000     -10.279551      -279.7208
  15   2.0000     -10.261961      -279.2421
  16   2.0000      -8.083451      -219.9619
  17   2.0000      -8.083374      -219.9598
  18   2.0000      -6.042102      -164.4140
  19   2.0000      -6.041604      -164.4004
  20   2.0000      -6.038172      -164.3070
  21   2.0000      -6.037658      -164.2930
  22   2.0000      -6.034462      -164.2060
  23   2.0000      -6.034121      -164.1968
  24   2.0000      -1.006676       -27.3931
  25   2.0000      -0.979535       -26.6545
  26   2.0000      -0.922238       -25.0954
  27   2.0000      -0.913682       -24.8626
  28   2.0000      -0.867618       -23.6091
  29   2.0000      -0.857024       -23.3208
  30   2.0000      -0.846509       -23.0347
  31   2.0000      -0.812776       -22.1168
  32   2.0000      -0.785362       -21.3708
  33   2.0000      -0.771821       -21.0023
  34   2.0000      -0.709944       -19.3186
  35   2.0000      -0.702705       -19.1216
  36   2.0000      -0.690687       -18.7946
  37   2.0000      -0.670717       -18.2511
  38   2.0000      -0.634236       -17.2584
  39   2.0000      -0.613239       -16.6871
  40   2.0000      -0.594783       -16.1849
  41   2.0000      -0.576159       -15.6781
  42   2.0000      -0.573877       -15.6160
  43   2.0000      -0.562508       -15.3066
  44   2.0000      -0.541508       -14.7352
  45   2.0000      -0.529339       -14.4040
  46   2.0000      -0.517394       -14.0790
  47   2.0000      -0.511254       -13.9119
  48   2.0000      -0.505400       -13.7526
  49   2.0000      -0.498595       -13.5675
  50   2.0000      -0.493040       -13.4163
  51   2.0000      -0.482423       -13.1274
  52   2.0000      -0.469645       -12.7797
  53   2.0000      -0.464046       -12.6273
  54   2.0000      -0.454316       -12.3626
  55   2.0000      -0.446115       -12.1394
  56   2.0000      -0.443529       -12.0690
  57   2.0000      -0.437928       -11.9166
  58   2.0000      -0.435969       -11.8633
  59   2.0000      -0.432936       -11.7808
  60   2.0000      -0.420886       -11.4529
  61   2.0000      -0.411758       -11.2045
  62   2.0000      -0.408194       -11.1075
  63   2.0000      -0.340465        -9.2645
  64   2.0000      -0.329999        -8.9797
  65   2.0000      -0.324620        -8.8334
  66   2.0000      -0.293249        -7.9797
  67   0.0000       0.032779         0.8920
  68   0.0000       0.055839         1.5195
  69   0.0000       0.112341         3.0570
  70   0.0000       0.120371         3.2755
  71   0.0000       0.122612         3.3365

MULLIKEN ATOMIC CHARGES
-----------------------
   0 S :    0.112291
   1 C :   -0.120954
   2 C :   -0.141628
   3 C :    0.057660
   4 C :   -0.172677
   5 H :    0.011444
   6 C :    0.107389
   7 H :    0.014681
   8 H :    0.047792
   9 C :   -0.066330
  10 H :    0.007690
  11 H :    0.030225
  12 C :   -0.069944
  13 H :    0.058789
  14 H :    0.038922
  15 H :    0.017404
  16 S :    0.138610
  17 C :   -0.062810
  18 C :   -0.011848
  19 C :   -0.029068
  20 C :   -0.171935
  21 H :    0.001383
  22 C :    0.086716
  23 H :    0.009325
  24 H :    0.017031
  25 C :   -0.061549
  26 H :    0.032049
  27 H :    0.034520
  28 C :   -0.020688
  29 H :    0.032146
  30 H :    0.008842
  31 H :    0.001123
  32 H :    0.049284
  33 H :    0.014115
Sum of atomic charges:   -0.0000000

LOEWDIN ATOMIC CHARGES
----------------------
   0 S :    0.381579
   1 C :   -0.193770
   2 C :   -0.064223
   3 C :   -0.054742
   4 C :   -0.193628
   5 H :    0.027201
   6 C :   -0.030995
   7 H :    0.029827
   8 H :    0.042379
   9 C :   -0.045019
  10 H :    0.014159
  11 H :    0.028336
  12 C :   -0.071795
  13 H :    0.031071
  14 H :    0.029644
  15 H :    0.025861
  16 S :    0.449592
  17 C :   -0.175483
  18 C :   -0.058032
  19 C :   -0.046074
  20 C :   -0.221906
  21 H :    0.021001
  22 C :   -0.034068
  23 H :    0.029113
  24 H :    0.031921
  25 C :   -0.041628
  26 H :    0.029754
  27 H :    0.029645
  28 C :   -0.057633
  29 H :    0.031691
  30 H :    0.015244
  31 H :    0.009676
  32 H :    0.029595
  33 H :    0.001708

  Mayer bond orders larger than 0.100000
B(  0-S ,  1-C ) :   1.1300 B(  0-S ,  4-C ) :   1.1272 B(  1-C ,  2-C ) :   1.6119
B(  1-C , 32-H ) :   0.9607 B(  2-C ,  3-C ) :   1.2420 B(  2-C ,  6-C ) :   1.0211
B(  3-C ,  4-C ) :   1.5987 B(  3-C ,  5-H ) :   0.9840 B(  4-C , 20-C ) :   1.0343
B(  6-C ,  7-H ) :   0.9388 B(  6-C ,  8-H ) :   0.9309 B(  6-C ,  9-C ) :   1.0777
B(  9-C , 10-H ) :   0.9498 B(  9-C , 11-H ) :   0.9542 B(  9-C , 12-C ) :   1.0755
B( 12-C , 13-H ) :   0.9697 B( 12-C , 14-H ) :   0.9714 B( 12-C , 15-H ) :   0.9725
B( 16-S , 17-C ) :   1.1848 B( 16-S , 20-C ) :   1.1673 B( 17-C , 18-C ) :   1.5677
B( 17-C , 20-C ) :   0.1053 B( 17-C , 33-H ) :   0.9828 B( 18-C , 19-C ) :   1.2703
B( 18-C , 21-H ) :   0.9965 B( 19-C , 20-C ) :   1.5563 B( 19-C , 22-C ) :   1.0359
B( 22-C , 23-H ) :   0.9342 B( 22-C , 24-H ) :   0.9281 B( 22-C , 25-C ) :   1.0809
B( 25-C , 26-H ) :   0.9521 B( 25-C , 27-H ) :   0.9548 B( 25-C , 28-C ) :   1.0891
B( 28-C , 29-H ) :   0.9726 B( 28-C , 30-H ) :   0.9705 B( 28-C , 31-H ) :   0.9702

Dispersion correction           -0.014480341
FINAL SINGLE POINT ENERGY     -1339.861319421688

DIPOLE MOMENT
-------------
                                X             Y             Z
Electronic contribution:      1.06149      19.31038      19.59976
Nuclear contribution   :     -0.90224     -19.51931     -20.04648
                        -----------------------------------------
Total Dipole Moment    :      0.15925      -0.20893      -0.44672
                        -----------------------------------------
Magnitude (a.u.)       :      0.51824
Magnitude (Debye)      :      1.31725

Rotational constants in cm-1:     0.017983     0.009263     0.007244
Rotational constants in MHz :   539.117656   277.708265   217.157640

                             ****ORCA TERMINATED NORMALLY****
TOTAL RUN TIME: 0 days 0 hours 0 minutes 22 seconds 27 msec
