                         Program Version 4.2.1 -  RELEASE  -
|  1> ! wB97X-D3 SP def2-SVP
|  2> %pal
|  3> nprocs 24
|  4> end
|  5>
|  6> * xyz 0 1
|  7> S 	 -117.517 	 25.3603 	 -15.4547
|  8> C 	 -118.181 	 24.9618 	 -17.0389
|  9> C 	 -117.592 	 25.7449 	 -18.0688
| 10> C 	 -116.923 	 26.8609 	 -17.5041
| 11> C 	 -116.877 	 26.8446 	 -16.1353
| 12> H 	 -116.504 	 27.7299 	 -17.9823
| 13> C 	 -117.5 	 25.4286 	 -19.4923
| 14> H 	 -117.085 	 24.4637 	 -19.6977
| 15> H 	 -116.742 	 26.1305 	 -19.8197
| 16> C 	 -118.875 	 25.3724 	 -20.2825
| 17> H 	 -119.581 	 24.815 	 -19.6984
| 18> H 	 -119.364 	 26.2971 	 -20.1101
| 19> C 	 -118.719 	 24.9749 	 -21.7849
| 20> H 	 -119.712 	 24.9064 	 -22.1924
| 21> H 	 -118.15 	 25.7205 	 -22.421
| 22> H 	 -118.209 	 23.9974 	 -21.9111
| 23> S 	 -114.872 	 27.2393 	 -14.265
| 24> C 	 -114.446 	 28.791 	 -13.6435
| 25> C 	 -115.162 	 29.7682 	 -14.3613
| 26> C 	 -116.127 	 29.1827 	 -15.2213
| 27> C 	 -116.111 	 27.8261 	 -15.3002
| 28> H 	 -115.033 	 30.8294 	 -14.1912
| 29> C 	 -116.99 	 30.0916 	 -16.0594
| 30> H 	 -117.016 	 29.9219 	 -17.2103
| 31> H 	 -116.576 	 31.0791 	 -16.0889
| 32> C 	 -118.409 	 30.4301 	 -15.4614
| 33> H 	 -118.976 	 31.3688 	 -15.7327
| 34> H 	 -118.368 	 30.4486 	 -14.3651
| 35> C 	 -119.467 	 29.399 	 -15.6955
| 36> H 	 -119.813 	 29.5156 	 -16.7632
| 37> H 	 -120.335 	 29.5269 	 -15.0562
| 38> H 	 -119.048 	 28.3933 	 -15.6749
| 39> H 	 -118.68 	 24.0567 	 -17.2221
| 40> H 	 -113.672 	 29.026 	 -12.9778
| 41> *
| 42>
| 43>                          ****END OF INPUT****

CARTESIAN COORDINATES (ANGSTROEM)
---------------------------------
  S    -117.517000   25.360300  -15.454700
  C    -118.181000   24.961800  -17.038900
  C    -117.592000   25.744900  -18.068800
  C    -116.923000   26.860900  -17.504100
  C    -116.877000   26.844600  -16.135300
  H    -116.504000   27.729900  -17.982300
  C    -117.500000   25.428600  -19.492300
  H    -117.085000   24.463700  -19.697700
  H    -116.742000   26.130500  -19.819700
  C    -118.875000   25.372400  -20.282500
  H    -119.581000   24.815000  -19.698400
  H    -119.364000   26.297100  -20.110100
  C    -118.719000   24.974900  -21.784900
  H    -119.712000   24.906400  -22.192400
  H    -118.150000   25.720500  -22.421000
  H    -118.209000   23.997400  -21.911100
  S    -114.872000   27.239300  -14.265000
  C    -114.446000   28.791000  -13.643500
  C    -115.162000   29.768200  -14.361300
  C    -116.127000   29.182700  -15.221300
  C    -116.111000   27.826100  -15.300200
  H    -115.033000   30.829400  -14.191200
  C    -116.990000   30.091600  -16.059400
  H    -117.016000   29.921900  -17.210300
  H    -116.576000   31.079100  -16.088900
  C    -118.409000   30.430100  -15.461400
  H    -118.976000   31.368800  -15.732700
  H    -118.368000   30.448600  -14.365100
  C    -119.467000   29.399000  -15.695500
  H    -119.813000   29.515600  -16.763200
  H    -120.335000   29.526900  -15.056200
  H    -119.048000   28.393300  -15.674900
  H    -118.680000   24.056700  -17.222100
  H    -113.672000   29.026000  -12.977800

 Total Charge           Charge          ....    0
 Multiplicity           Mult            ....    1
 Number of Electrons    NEL             ....  134
 Basis Dimension        Dim             ....  322

ORBITAL ENERGIES
----------------

  NO   OCC          E(Eh)            E(eV)
   0   2.0000     -88.972205     -2421.0568
   1   2.0000     -88.966125     -2420.8913
   2   2.0000     -10.332693      -281.1669
   3   2.0000     -10.326110      -280.9877
   4   2.0000     -10.315722      -280.7051
   5   2.0000     -10.315156      -280.6897
   6   2.0000     -10.304159      -280.3904
   7   2.0000     -10.300030      -280.2781
   8   2.0000     -10.297283      -280.2033
   9   2.0000     -10.295678      -280.1596
  10   2.0000     -10.293321      -280.0955
  11   2.0000     -10.290206      -280.0108
  12   2.0000     -10.289575      -279.9936
  13   2.0000     -10.288666      -279.9688
  14   2.0000     -10.282867      -279.8110
  15   2.0000     -10.263175      -279.2752
  16   2.0000      -8.086219      -220.0372
  17   2.0000      -8.081753      -219.9157
  18   2.0000      -6.044619      -164.4824
  19   2.0000      -6.040998      -164.3839
  20   2.0000      -6.040166      -164.3613
  21   2.0000      -6.036968      -164.2743
  22   2.0000      -6.035932      -164.2461
  23   2.0000      -6.032762      -164.1598
  24   2.0000      -1.012454       -27.5503
  25   2.0000      -0.989306       -26.9204
  26   2.0000      -0.910997       -24.7895
  27   2.0000      -0.903557       -24.5870
  28   2.0000      -0.865190       -23.5430
  29   2.0000      -0.855321       -23.2745
  30   2.0000      -0.849591       -23.1186
  31   2.0000      -0.816817       -22.2267
  32   2.0000      -0.779687       -21.2164
  33   2.0000      -0.771511       -20.9939
  34   2.0000      -0.719331       -19.5740
  35   2.0000      -0.697777       -18.9875
  36   2.0000      -0.682412       -18.5694
  37   2.0000      -0.667002       -18.1501
  38   2.0000      -0.648717       -17.6525
  39   2.0000      -0.622480       -16.9385
  40   2.0000      -0.598592       -16.2885
  41   2.0000      -0.570650       -15.5282
  42   2.0000      -0.552630       -15.0378
  43   2.0000      -0.550896       -14.9906
  44   2.0000      -0.531933       -14.4746
  45   2.0000      -0.526011       -14.3135
  46   2.0000      -0.518286       -14.1033
  47   2.0000      -0.509135       -13.8543
  48   2.0000      -0.504567       -13.7300
  49   2.0000      -0.499058       -13.5801
  50   2.0000      -0.494002       -13.4425
  51   2.0000      -0.481790       -13.1102
  52   2.0000      -0.477247       -12.9865
  53   2.0000      -0.464579       -12.6418
  54   2.0000      -0.461888       -12.5686
  55   2.0000      -0.457189       -12.4408
  56   2.0000      -0.440272       -11.9804
  57   2.0000      -0.434554       -11.8248
  58   2.0000      -0.428213       -11.6523
  59   2.0000      -0.426727       -11.6118
  60   2.0000      -0.416501       -11.3336
  61   2.0000      -0.405644       -11.0381
  62   2.0000      -0.399976       -10.8839
  63   2.0000      -0.347972        -9.4688
  64   2.0000      -0.332021        -9.0347
  65   2.0000      -0.329752        -8.9730
  66   2.0000      -0.293024        -7.9736
  67   0.0000       0.028247         0.7686
  68   0.0000       0.061559         1.6751
  69   0.0000       0.101474         2.7612
  70   0.0000       0.122287         3.3276
  71   0.0000       0.129588         3.5263

MULLIKEN ATOMIC CHARGES
-----------------------
   0 S :    0.118992
   1 C :   -0.091815
   2 C :   -0.091476
   3 C :    0.034537
   4 C :   -0.156083
   5 H :    0.010774
   6 C :    0.086034
   7 H :    0.023270
   8 H :    0.017009
   9 C :   -0.062917
  10 H :    0.015148
  11 H :    0.011901
  12 C :   -0.052142
  13 H :    0.037404
  14 H :    0.047115
  15 H :    0.040122
  16 S :    0.108867
  17 C :   -0.075060
  18 C :   -0.036068
  19 C :   -0.031222
  20 C :   -0.139246
  21 H :    0.024374
  22 C :    0.035345
  23 H :    0.042385
  24 H :    0.008816
  25 C :   -0.086620
  26 H :    0.032830
  27 H :    0.024398
  28 C :   -0.054920
  29 H :    0.016351
  30 H :    0.033727
  31 H :    0.032602
  32 H :    0.032441
  33 H :    0.043129
Sum of atomic charges:    0.0000000

LOEWDIN ATOMIC CHARGES
----------------------
   0 S :    0.407617
   1 C :   -0.186572
   2 C :   -0.055313
   3 C :   -0.057110
   4 C :   -0.191291
   5 H :    0.032186
   6 C :   -0.033533
   7 H :    0.029260
   8 H :    0.031636
   9 C :   -0.037203
  10 H :    0.023063
  11 H :    0.020359
  12 C :   -0.068435
  13 H :    0.026566
  14 H :    0.034654
  15 H :    0.028684
  16 S :    0.434304
  17 C :   -0.188913
  18 C :   -0.063472
  19 C :   -0.072232
  20 C :   -0.204937
  21 H :    0.032468
  22 C :   -0.040722
  23 H :    0.037522
  24 H :    0.028967
  25 C :   -0.051123
  26 H :    0.029525
  27 H :    0.024443
  28 C :   -0.071981
  29 H :    0.021624
  30 H :    0.022721
  31 H :    0.022145
  32 H :    0.013218
  33 H :    0.021879

  Mayer bond orders larger than 0.100000
B(  0-S ,  1-C ) :   1.1446 B(  0-S ,  4-C ) :   1.1494 B(  1-C ,  2-C ) :   1.5740
B(  1-C ,  4-C ) :   0.1049 B(  1-C , 32-H ) :   0.9734 B(  2-C ,  3-C ) :   1.2436
B(  2-C ,  6-C ) :   1.0383 B(  3-C ,  4-C ) :   1.5814 B(  3-C ,  5-H ) :   0.9901
B(  4-C , 20-C ) :   1.0000 B(  6-C ,  7-H ) :   0.9332 B(  6-C ,  8-H ) :   0.9429
B(  6-C ,  9-C ) :   1.0378 B(  9-C , 10-H ) :   0.9575 B(  9-C , 11-H ) :   0.9529
B(  9-C , 12-C ) :   1.0681 B( 12-C , 13-H ) :   0.9747 B( 12-C , 14-H ) :   0.9765
B( 12-C , 15-H ) :   0.9754 B( 16-S , 17-C ) :   1.1766 B( 16-S , 20-C ) :   1.1567
B( 17-C , 18-C ) :   1.5626 B( 17-C , 33-H ) :   0.9765 B( 18-C , 19-C ) :   1.2864
B( 18-C , 21-H ) :   0.9880 B( 19-C , 20-C ) :   1.5975 B( 19-C , 22-C ) :   1.0387
B( 22-C , 23-H ) :   0.9463 B( 22-C , 24-H ) :   0.9270 B( 22-C , 25-C ) :   1.0433
B( 25-C , 26-H ) :   0.9623 B( 25-C , 27-H ) :   0.9548 B( 25-C , 28-C ) :   1.0827
B( 28-C , 29-H ) :   0.9746 B( 28-C , 30-H ) :   0.9740 B( 28-C , 31-H ) :   0.9736

Dispersion correction           -0.014745841
FINAL SINGLE POINT ENERGY     -1339.852333065498

DIPOLE MOMENT
-------------
                                X             Y             Z
Electronic contribution:     15.49163      -7.29675      21.79495
Nuclear contribution   :    -15.46916       7.50376     -22.33652
                        -----------------------------------------
Total Dipole Moment    :      0.02247       0.20701      -0.54157
                        -----------------------------------------
Magnitude (a.u.)       :      0.58022
Magnitude (Debye)      :      1.47481

Rotational constants in cm-1:     0.021562     0.007852     0.006810
Rotational constants in MHz :   646.422520   235.396256   204.144348

                             ****ORCA TERMINATED NORMALLY****
TOTAL RUN TIME: 0 days 0 hours 0 minutes 20 seconds 741 msec
