                         Program Version 4.2.1 -  RELEASE  -
|  1> ! wB97X-D3 SP def2-SVP
|  2> %pal
|  3> nprocs 24
|  4> end
|  5>
|  6> * xyz 0 1
|  7> S 	 -140.57 	 9.11163 	 2.68054
|  8> C 	 -139.274 	 8.93432 	 1.48716
|  9> C 	 -138.195 	 8.22357 	 2.0178
| 10> C 	 -138.374 	 7.86184 	 3.42057
| 11> C 	 -139.623 	 8.16913 	 3.90408
| 12> H 	 -137.55 	 7.41127 	 3.99291
| 13> C 	 -136.893 	 8.03794 	 1.40003
| 14> H 	 -136.125 	 8.01404 	 2.19452
| 15> H 	 -136.539 	 8.90158 	 0.82986
| 16> C 	 -136.858 	 6.72077 	 0.515231
| 17> H 	 -137.167 	 5.85624 	 1.11512
| 18> H 	 -137.63 	 6.78693 	 -0.277087
| 19> C 	 -135.518 	 6.61897 	 -0.124384
| 20> H 	 -135.543 	 6.98123 	 -1.15453
| 21> H 	 -134.798 	 7.22353 	 0.321677
| 22> H 	 -135.12 	 5.53895 	 -0.139032
| 23> S 	 -140.851 	 9.57128 	 5.83522
| 24> C 	 -140.897 	 8.87617 	 7.36819
| 25> C 	 -140.353 	 7.59962 	 7.60931
| 26> C 	 -139.851 	 7.14184 	 6.30316
| 27> C 	 -140.091 	 8.10237 	 5.30889
| 28> H 	 -140.392 	 7.14755 	 8.60714
| 29> C 	 -139.286 	 5.7762 	 6.09965
| 30> H 	 -138.189 	 5.84854 	 6.04579
| 31> H 	 -139.515 	 5.46277 	 5.07211
| 32> C 	 -139.721 	 4.76093 	 7.19452
| 33> H 	 -140.782 	 4.69894 	 7.44412
| 34> H 	 -139.249 	 5.16245 	 8.08907
| 35> C 	 -139.158 	 3.38541 	 6.96142
| 36> H 	 -138.107 	 3.36223 	 6.82933
| 37> H 	 -139.596 	 2.98884 	 6.02277
| 38> H 	 -139.571 	 2.69523 	 7.68841
| 39> H 	 -139.325 	 9.30721 	 0.448209
| 40> H 	 -141.434 	 9.41326 	 8.20972
| 41> *
| 42>
| 43>                          ****END OF INPUT****

CARTESIAN COORDINATES (ANGSTROEM)
---------------------------------
  S    -140.570000    9.111630    2.680540
  C    -139.274000    8.934320    1.487160
  C    -138.195000    8.223570    2.017800
  C    -138.374000    7.861840    3.420570
  C    -139.623000    8.169130    3.904080
  H    -137.550000    7.411270    3.992910
  C    -136.893000    8.037940    1.400030
  H    -136.125000    8.014040    2.194520
  H    -136.539000    8.901580    0.829860
  C    -136.858000    6.720770    0.515231
  H    -137.167000    5.856240    1.115120
  H    -137.630000    6.786930   -0.277087
  C    -135.518000    6.618970   -0.124384
  H    -135.543000    6.981230   -1.154530
  H    -134.798000    7.223530    0.321677
  H    -135.120000    5.538950   -0.139032
  S    -140.851000    9.571280    5.835220
  C    -140.897000    8.876170    7.368190
  C    -140.353000    7.599620    7.609310
  C    -139.851000    7.141840    6.303160
  C    -140.091000    8.102370    5.308890
  H    -140.392000    7.147550    8.607140
  C    -139.286000    5.776200    6.099650
  H    -138.189000    5.848540    6.045790
  H    -139.515000    5.462770    5.072110
  C    -139.721000    4.760930    7.194520
  H    -140.782000    4.698940    7.444120
  H    -139.249000    5.162450    8.089070
  C    -139.158000    3.385410    6.961420
  H    -138.107000    3.362230    6.829330
  H    -139.596000    2.988840    6.022770
  H    -139.571000    2.695230    7.688410
  H    -139.325000    9.307210    0.448209
  H    -141.434000    9.413260    8.209720

 Total Charge           Charge          ....    0
 Multiplicity           Mult            ....    1
 Number of Electrons    NEL             ....  134
 Basis Dimension        Dim             ....  322

ORBITAL ENERGIES
----------------

  NO   OCC          E(Eh)            E(eV)
   0   2.0000     -88.969378     -2420.9798
   1   2.0000     -88.964298     -2420.8416
   2   2.0000     -10.333304      -281.1835
   3   2.0000     -10.322670      -280.8941
   4   2.0000     -10.317543      -280.7546
   5   2.0000     -10.316323      -280.7214
   6   2.0000     -10.309075      -280.5242
   7   2.0000     -10.300984      -280.3040
   8   2.0000     -10.298168      -280.2274
   9   2.0000     -10.295964      -280.1674
  10   2.0000     -10.293757      -280.1074
  11   2.0000     -10.290620      -280.0220
  12   2.0000     -10.288270      -279.9581
  13   2.0000     -10.287228      -279.9297
  14   2.0000     -10.275080      -279.5991
  15   2.0000     -10.274788      -279.5912
  16   2.0000      -8.085627      -220.0211
  17   2.0000      -8.077816      -219.8085
  18   2.0000      -6.043753      -164.4589
  19   2.0000      -6.040218      -164.3627
  20   2.0000      -6.036612      -164.2646
  21   2.0000      -6.036380      -164.2582
  22   2.0000      -6.032525      -164.1533
  23   2.0000      -6.028338      -164.0394
  24   2.0000      -1.004956       -27.3462
  25   2.0000      -0.977054       -26.5870
  26   2.0000      -0.914967       -24.8975
  27   2.0000      -0.911221       -24.7956
  28   2.0000      -0.863370       -23.4935
  29   2.0000      -0.859507       -23.3884
  30   2.0000      -0.846070       -23.0227
  31   2.0000      -0.811529       -22.0828
  32   2.0000      -0.780778       -21.2461
  33   2.0000      -0.761498       -20.7214
  34   2.0000      -0.708760       -19.2863
  35   2.0000      -0.703624       -19.1466
  36   2.0000      -0.687583       -18.7101
  37   2.0000      -0.653694       -17.7879
  38   2.0000      -0.632943       -17.2233
  39   2.0000      -0.620923       -16.8962
  40   2.0000      -0.597311       -16.2537
  41   2.0000      -0.569248       -15.4900
  42   2.0000      -0.562182       -15.2978
  43   2.0000      -0.553067       -15.0497
  44   2.0000      -0.530330       -14.4310
  45   2.0000      -0.525986       -14.3128
  46   2.0000      -0.523482       -14.2447
  47   2.0000      -0.506875       -13.7928
  48   2.0000      -0.503524       -13.7016
  49   2.0000      -0.489660       -13.3243
  50   2.0000      -0.486028       -13.2255
  51   2.0000      -0.476921       -12.9777
  52   2.0000      -0.472003       -12.8439
  53   2.0000      -0.463995       -12.6259
  54   2.0000      -0.460506       -12.5310
  55   2.0000      -0.451888       -12.2965
  56   2.0000      -0.448583       -12.2066
  57   2.0000      -0.443558       -12.0698
  58   2.0000      -0.436845       -11.8872
  59   2.0000      -0.428534       -11.6610
  60   2.0000      -0.415554       -11.3078
  61   2.0000      -0.412082       -11.2133
  62   2.0000      -0.409577       -11.1451
  63   2.0000      -0.349499        -9.5104
  64   2.0000      -0.332270        -9.0415
  65   2.0000      -0.323265        -8.7965
  66   2.0000      -0.282157        -7.6779
  67   0.0000       0.028926         0.7871
  68   0.0000       0.071441         1.9440
  69   0.0000       0.100014         2.7215
  70   0.0000       0.120568         3.2808
  71   0.0000       0.132330         3.6009

MULLIKEN ATOMIC CHARGES
-----------------------
   0 S :    0.074926
   1 C :   -0.122963
   2 C :   -0.076646
   3 C :    0.007002
   4 C :   -0.120225
   5 H :    0.025477
   6 C :    0.005568
   7 H :    0.023501
   8 H :    0.029949
   9 C :   -0.078806
  10 H :    0.033638
  11 H :    0.031931
  12 C :   -0.022300
  13 H :    0.030582
  14 H :    0.014135
  15 H :    0.042794
  16 S :    0.137329
  17 C :   -0.106113
  18 C :   -0.059407
  19 C :   -0.050424
  20 C :   -0.137924
  21 H :    0.036208
  22 C :    0.054697
  23 H :    0.034140
  24 H :    0.028652
  25 C :   -0.101725
  26 H :    0.040538
  27 H :    0.027546
  28 C :   -0.003963
  29 H :    0.026386
  30 H :    0.019570
  31 H :    0.031301
  32 H :    0.060719
  33 H :    0.063907
Sum of atomic charges:   -0.0000000

LOEWDIN ATOMIC CHARGES
----------------------
   0 S :    0.357040
   1 C :   -0.195861
   2 C :   -0.065037
   3 C :   -0.065856
   4 C :   -0.171013
   5 H :    0.035628
   6 C :   -0.039330
   7 H :    0.030833
   8 H :    0.030618
   9 C :   -0.038413
  10 H :    0.025422
  11 H :    0.026755
  12 C :   -0.070489
  13 H :    0.029068
  14 H :    0.013182
  15 H :    0.036814
  16 S :    0.444386
  17 C :   -0.208169
  18 C :   -0.078955
  19 C :   -0.045149
  20 C :   -0.211302
  21 H :    0.039790
  22 C :   -0.036955
  23 H :    0.035042
  24 H :    0.031674
  25 C :   -0.041066
  26 H :    0.028219
  27 H :    0.022434
  28 C :   -0.061481
  29 H :    0.020009
  30 H :    0.027528
  31 H :    0.028466
  32 H :    0.035469
  33 H :    0.030700

  Mayer bond orders larger than 0.100000
B(  0-S ,  1-C ) :   1.1112 B(  0-S ,  4-C ) :   1.1274 B(  1-C ,  2-C ) :   1.6277
B(  1-C , 32-H ) :   0.9647 B(  2-C ,  3-C ) :   1.2257 B(  2-C ,  6-C ) :   1.0398
B(  3-C ,  4-C ) :   1.5913 B(  3-C ,  5-H ) :   0.9839 B(  4-C , 20-C ) :   1.0334
B(  6-C ,  7-H ) :   0.9416 B(  6-C ,  8-H ) :   0.9466 B(  6-C ,  9-C ) :   1.0432
B(  9-C , 10-H ) :   0.9629 B(  9-C , 11-H ) :   0.9643 B(  9-C , 12-C ) :   1.0664
B( 12-C , 13-H ) :   0.9732 B( 12-C , 14-H ) :   0.9732 B( 12-C , 15-H ) :   0.9736
B( 16-S , 17-C ) :   1.1875 B( 16-S , 20-C ) :   1.1394 B( 17-C , 18-C ) :   1.6129
B( 17-C , 33-H ) :   0.9517 B( 18-C , 19-C ) :   1.2100 B( 18-C , 21-H ) :   0.9883
B( 19-C , 20-C ) :   1.6147 B( 19-C , 22-C ) :   1.0451 B( 22-C , 23-H ) :   0.9180
B( 22-C , 24-H ) :   0.9372 B( 22-C , 25-C ) :   1.0648 B( 25-C , 26-H ) :   0.9608
B( 25-C , 27-H ) :   0.9396 B( 25-C , 28-C ) :   1.0981 B( 28-C , 29-H ) :   0.9724
B( 28-C , 30-H ) :   0.9702 B( 28-C , 31-H ) :   0.9697

Dispersion correction           -0.013305041
FINAL SINGLE POINT ENERGY     -1339.868075051584

DIPOLE MOMENT
-------------
                                X             Y             Z
Electronic contribution:    -18.79375      23.13034       4.61100
Nuclear contribution   :     19.30657     -23.49749      -4.49801
                        -----------------------------------------
Total Dipole Moment    :      0.51281      -0.36715       0.11299
                        -----------------------------------------
Magnitude (a.u.)       :      0.64074
Magnitude (Debye)      :      1.62863

Rotational constants in cm-1:     0.017152     0.008295     0.005954
Rotational constants in MHz :   514.205531   248.683286   178.496811

                             ****ORCA TERMINATED NORMALLY****
TOTAL RUN TIME: 0 days 0 hours 0 minutes 20 seconds 992 msec
