                         Program Version 4.2.1 -  RELEASE  -
|  1> ! wB97X-D3 SP def2-SVP
|  2> %pal
|  3> nprocs 24
|  4> end
|  5>
|  6> * xyz 0 1
|  7> S 	 -106.871 	 51.1313 	 -71.7465
|  8> C 	 -108.138 	 51.372 	 -72.8952
|  9> C 	 -109.243 	 52.0765 	 -72.3873
| 10> C 	 -109.129 	 52.3785 	 -70.9808
| 11> C 	 -107.967 	 51.8536 	 -70.4725
| 12> H 	 -109.836 	 52.7089 	 -70.2681
| 13> C 	 -110.621 	 52.1988 	 -73.0248
| 14> H 	 -111.372 	 52.1184 	 -72.2784
| 15> H 	 -110.647 	 51.3222 	 -73.705
| 16> C 	 -110.895 	 53.4816 	 -73.7726
| 17> H 	 -111.979 	 53.4921 	 -73.9555
| 18> H 	 -110.684 	 54.3714 	 -73.154
| 19> C 	 -110.084 	 53.569 	 -75.0622
| 20> H 	 -110.394 	 52.7147 	 -75.6187
| 21> H 	 -110.337 	 54.3826 	 -75.7456
| 22> H 	 -109.087 	 53.6164 	 -74.6883
| 23> S 	 -107.194 	 50.115 	 -68.452
| 24> C 	 -107.121 	 50.7284 	 -66.7988
| 25> C 	 -107.523 	 52.0531 	 -66.7689
| 26> C 	 -107.786 	 52.5974 	 -68.0235
| 27> C 	 -107.655 	 51.712 	 -69.0579
| 28> H 	 -107.55 	 52.6144 	 -65.8436
| 29> C 	 -108.315 	 53.9865 	 -68.134
| 30> H 	 -108.966 	 54.1352 	 -67.2629
| 31> H 	 -108.866 	 54.203 	 -68.9984
| 32> C 	 -107.257 	 55.0747 	 -68.0918
| 33> H 	 -106.636 	 55.0278 	 -68.9493
| 34> H 	 -106.55 	 54.8296 	 -67.3063
| 35> C 	 -107.801 	 56.5051 	 -67.8767
| 36> H 	 -108.281 	 56.7002 	 -66.895
| 37> H 	 -108.576 	 56.6009 	 -68.5829
| 38> H 	 -106.982 	 57.1918 	 -68.0778
| 39> H 	 -108.224 	 50.7945 	 -73.8328
| 40> H 	 -106.904 	 50.2311 	 -65.8417
| 41> *
| 42>
| 43>                          ****END OF INPUT****

CARTESIAN COORDINATES (ANGSTROEM)
---------------------------------
  S    -106.871000   51.131300  -71.746500
  C    -108.138000   51.372000  -72.895200
  C    -109.243000   52.076500  -72.387300
  C    -109.129000   52.378500  -70.980800
  C    -107.967000   51.853600  -70.472500
  H    -109.836000   52.708900  -70.268100
  C    -110.621000   52.198800  -73.024800
  H    -111.372000   52.118400  -72.278400
  H    -110.647000   51.322200  -73.705000
  C    -110.895000   53.481600  -73.772600
  H    -111.979000   53.492100  -73.955500
  H    -110.684000   54.371400  -73.154000
  C    -110.084000   53.569000  -75.062200
  H    -110.394000   52.714700  -75.618700
  H    -110.337000   54.382600  -75.745600
  H    -109.087000   53.616400  -74.688300
  S    -107.194000   50.115000  -68.452000
  C    -107.121000   50.728400  -66.798800
  C    -107.523000   52.053100  -66.768900
  C    -107.786000   52.597400  -68.023500
  C    -107.655000   51.712000  -69.057900
  H    -107.550000   52.614400  -65.843600
  C    -108.315000   53.986500  -68.134000
  H    -108.966000   54.135200  -67.262900
  H    -108.866000   54.203000  -68.998400
  C    -107.257000   55.074700  -68.091800
  H    -106.636000   55.027800  -68.949300
  H    -106.550000   54.829600  -67.306300
  C    -107.801000   56.505100  -67.876700
  H    -108.281000   56.700200  -66.895000
  H    -108.576000   56.600900  -68.582900
  H    -106.982000   57.191800  -68.077800
  H    -108.224000   50.794500  -73.832800
  H    -106.904000   50.231100  -65.841700

 Total Charge           Charge          ....    0
 Multiplicity           Mult            ....    1
 Number of Electrons    NEL             ....  134
 Basis Dimension        Dim             ....  322

ORBITAL ENERGIES
----------------

  NO   OCC          E(Eh)            E(eV)
   0   2.0000     -88.969127     -2420.9730
   1   2.0000     -88.968736     -2420.9624
   2   2.0000     -10.333836      -281.1980
   3   2.0000     -10.324831      -280.9529
   4   2.0000     -10.320971      -280.8479
   5   2.0000     -10.317134      -280.7435
   6   2.0000     -10.305796      -280.4350
   7   2.0000     -10.296163      -280.1728
   8   2.0000     -10.295203      -280.1467
   9   2.0000     -10.290401      -280.0160
  10   2.0000     -10.289541      -279.9926
  11   2.0000     -10.283634      -279.8319
  12   2.0000     -10.283120      -279.8179
  13   2.0000     -10.277114      -279.6545
  14   2.0000     -10.276601      -279.6405
  15   2.0000     -10.268572      -279.4220
  16   2.0000      -8.083092      -219.9521
  17   2.0000      -8.082616      -219.9392
  18   2.0000      -6.041648      -164.4016
  19   2.0000      -6.041267      -164.3912
  20   2.0000      -6.037860      -164.2985
  21   2.0000      -6.037201      -164.2806
  22   2.0000      -6.033695      -164.1852
  23   2.0000      -6.033303      -164.1745
  24   2.0000      -1.006530       -27.3891
  25   2.0000      -0.982231       -26.7279
  26   2.0000      -0.915720       -24.9180
  27   2.0000      -0.913953       -24.8699
  28   2.0000      -0.871012       -23.7014
  29   2.0000      -0.855795       -23.2874
  30   2.0000      -0.849075       -23.1045
  31   2.0000      -0.813549       -22.1378
  32   2.0000      -0.783437       -21.3184
  33   2.0000      -0.772111       -21.0102
  34   2.0000      -0.707932       -19.2638
  35   2.0000      -0.697209       -18.9720
  36   2.0000      -0.692179       -18.8352
  37   2.0000      -0.666626       -18.1398
  38   2.0000      -0.644317       -17.5328
  39   2.0000      -0.619218       -16.8498
  40   2.0000      -0.601172       -16.3587
  41   2.0000      -0.575474       -15.6594
  42   2.0000      -0.563790       -15.3415
  43   2.0000      -0.549792       -14.9606
  44   2.0000      -0.544625       -14.8200
  45   2.0000      -0.528489       -14.3809
  46   2.0000      -0.515547       -14.0288
  47   2.0000      -0.512821       -13.9546
  48   2.0000      -0.504830       -13.7371
  49   2.0000      -0.499275       -13.5860
  50   2.0000      -0.493948       -13.4410
  51   2.0000      -0.479443       -13.0463
  52   2.0000      -0.473632       -12.8882
  53   2.0000      -0.467157       -12.7120
  54   2.0000      -0.458036       -12.4638
  55   2.0000      -0.448734       -12.2107
  56   2.0000      -0.446543       -12.1511
  57   2.0000      -0.438040       -11.9197
  58   2.0000      -0.434876       -11.8336
  59   2.0000      -0.422140       -11.4870
  60   2.0000      -0.419212       -11.4073
  61   2.0000      -0.416409       -11.3311
  62   2.0000      -0.412946       -11.2368
  63   2.0000      -0.351943        -9.5768
  64   2.0000      -0.333929        -9.0867
  65   2.0000      -0.329006        -8.9527
  66   2.0000      -0.289147        -7.8681
  67   0.0000       0.022070         0.6005
  68   0.0000       0.069300         1.8858
  69   0.0000       0.104782         2.8513
  70   0.0000       0.110568         3.0087
  71   0.0000       0.125667         3.4196

MULLIKEN ATOMIC CHARGES
-----------------------
   0 S :    0.109439
   1 C :   -0.119168
   2 C :   -0.094899
   3 C :    0.034500
   4 C :   -0.164877
   5 H :    0.021733
   6 C :    0.057782
   7 H :    0.019939
   8 H :    0.024853
   9 C :   -0.078204
  10 H :    0.025189
  11 H :    0.026407
  12 C :   -0.029545
  13 H :    0.014907
  14 H :    0.033924
  15 H :    0.043815
  16 S :    0.111274
  17 C :   -0.090402
  18 C :   -0.049789
  19 C :   -0.011399
  20 C :   -0.158907
  21 H :    0.018563
  22 C :    0.085584
  23 H :    0.019794
  24 H :   -0.002955
  25 C :   -0.079705
  26 H :    0.020077
  27 H :    0.011361
  28 C :   -0.016736
  29 H :    0.035372
  30 H :    0.012085
  31 H :    0.042175
  32 H :    0.064664
  33 H :    0.063151
Sum of atomic charges:   -0.0000000

LOEWDIN ATOMIC CHARGES
----------------------
   0 S :    0.377787
   1 C :   -0.214392
   2 C :   -0.059213
   3 C :   -0.053088
   4 C :   -0.159576
   5 H :    0.030999
   6 C :   -0.027153
   7 H :    0.026610
   8 H :    0.032817
   9 C :   -0.042264
  10 H :    0.020971
  11 H :    0.022778
  12 C :   -0.062913
  13 H :    0.020169
  14 H :    0.026926
  15 H :    0.026356
  16 S :    0.397943
  17 C :   -0.185697
  18 C :   -0.070406
  19 C :   -0.059587
  20 C :   -0.195932
  21 H :    0.031785
  22 C :   -0.027877
  23 H :    0.033035
  24 H :    0.017537
  25 C :   -0.036000
  26 H :    0.020973
  27 H :    0.017698
  28 C :   -0.059292
  29 H :    0.028171
  30 H :    0.016199
  31 H :    0.030755
  32 H :    0.034520
  33 H :    0.039362

  Mayer bond orders larger than 0.100000
B(  0-S ,  1-C ) :   1.1284 B(  0-S ,  4-C ) :   1.1207 B(  1-C ,  2-C ) :   1.6344
B(  1-C , 32-H ) :   0.9561 B(  2-C ,  3-C ) :   1.1993 B(  2-C ,  6-C ) :   1.0160
B(  3-C ,  4-C ) :   1.6258 B(  3-C ,  5-H ) :   0.9844 B(  4-C , 20-C ) :   1.0532
B(  6-C ,  7-H ) :   0.9448 B(  6-C ,  8-H ) :   0.9448 B(  6-C ,  9-C ) :   1.0713
B(  9-C , 10-H ) :   0.9546 B(  9-C , 11-H ) :   0.9551 B(  9-C , 12-C ) :   1.0675
B( 12-C , 13-H ) :   0.9753 B( 12-C , 14-H ) :   0.9742 B( 12-C , 15-H ) :   0.9764
B( 16-S , 17-C ) :   1.1489 B( 16-S , 20-C ) :   1.1267 B( 17-C , 18-C ) :   1.6057
B( 17-C , 33-H ) :   0.9628 B( 18-C , 19-C ) :   1.2624 B( 18-C , 21-H ) :   0.9849
B( 19-C , 20-C ) :   1.5898 B( 19-C , 22-C ) :   1.0488 B( 22-C , 23-H ) :   0.9345
B( 22-C , 24-H ) :   0.9257 B( 22-C , 25-C ) :   1.0654 B( 25-C , 26-H ) :   0.9514
B( 25-C , 27-H ) :   0.9556 B( 25-C , 28-C ) :   1.0767 B( 28-C , 29-H ) :   0.9750
B( 28-C , 30-H ) :   0.9739 B( 28-C , 31-H ) :   0.9736

Dispersion correction           -0.013912434
FINAL SINGLE POINT ENERGY     -1339.869443669359

DIPOLE MOMENT
-------------
                                X             Y             Z
Electronic contribution:     13.14933     -23.37958       6.65782
Nuclear contribution   :    -13.69844      23.69116      -6.44340
                        -----------------------------------------
Total Dipole Moment    :     -0.54911       0.31158       0.21442
                        -----------------------------------------
Magnitude (a.u.)       :      0.66677
Magnitude (Debye)      :      1.69479

Rotational constants in cm-1:     0.018145     0.008613     0.006557
Rotational constants in MHz :   543.963233   258.210143   196.581108

                             ****ORCA TERMINATED NORMALLY****
TOTAL RUN TIME: 0 days 0 hours 0 minutes 20 seconds 362 msec
