                         Program Version 4.2.1 -  RELEASE  -
|  1> ! wB97X-D3 SP def2-SVP
|  2> %pal
|  3> nprocs 24
|  4> end
|  5>
|  6> * xyz 0 1
|  7> S 	 -65.8333 	 10.9406 	 -74.1886
|  8> C 	 -65.4675 	 11.4481 	 -72.5527
|  9> C 	 -66.3862 	 11.0456 	 -71.6351
| 10> C 	 -67.5224 	 10.4152 	 -72.2697
| 11> C 	 -67.1523 	 10.0185 	 -73.5764
| 12> H 	 -68.4698 	 10.1477 	 -71.8031
| 13> C 	 -66.4412 	 11.5336 	 -70.2196
| 14> H 	 -67.128 	 12.406 	 -70.1299
| 15> H 	 -65.4492 	 11.859 	 -69.9616
| 16> C 	 -66.7699 	 10.487 	 -69.1755
| 17> H 	 -66.4134 	 10.8349 	 -68.1758
| 18> H 	 -67.8402 	 10.3568 	 -69.2337
| 19> C 	 -65.9755 	 9.20545 	 -69.3536
| 20> H 	 -66.3008 	 8.48216 	 -68.5591
| 21> H 	 -66.3532 	 8.70573 	 -70.3391
| 22> H 	 -64.8807 	 9.14295 	 -69.212
| 23> S 	 -68.3005 	 9.47448 	 -76.0445
| 24> C 	 -68.8299 	 7.93528 	 -76.4196
| 25> C 	 -69.0406 	 7.19902 	 -75.2798
| 26> C 	 -68.3019 	 7.7299 	 -74.1268
| 27> C 	 -67.8177 	 8.99838 	 -74.4367
| 28> H 	 -69.3565 	 6.15423 	 -75.3987
| 29> C 	 -68.2102 	 7.07654 	 -72.8099
| 30> H 	 -68.8287 	 6.2083 	 -72.6845
| 31> H 	 -68.5203 	 7.88395 	 -72.0846
| 32> C 	 -66.8098 	 6.60919 	 -72.3624
| 33> H 	 -66.7229 	 6.36578 	 -71.3099
| 34> H 	 -66.1654 	 7.46778 	 -72.6038
| 35> C 	 -66.3883 	 5.38276 	 -73.2066
| 36> H 	 -67.2061 	 4.62612 	 -73.3399
| 37> H 	 -65.4474 	 4.89551 	 -72.7873
| 38> H 	 -66.0377 	 5.582 	 -74.1433
| 39> H 	 -64.6189 	 11.9933 	 -72.2821
| 40> H 	 -69.0045 	 7.57279 	 -77.4161
| 41> *
| 42>
| 43>                          ****END OF INPUT****

CARTESIAN COORDINATES (ANGSTROEM)
---------------------------------
  S    -65.833300   10.940600  -74.188600
  C    -65.467500   11.448100  -72.552700
  C    -66.386200   11.045600  -71.635100
  C    -67.522400   10.415200  -72.269700
  C    -67.152300   10.018500  -73.576400
  H    -68.469800   10.147700  -71.803100
  C    -66.441200   11.533600  -70.219600
  H    -67.128000   12.406000  -70.129900
  H    -65.449200   11.859000  -69.961600
  C    -66.769900   10.487000  -69.175500
  H    -66.413400   10.834900  -68.175800
  H    -67.840200   10.356800  -69.233700
  C    -65.975500    9.205450  -69.353600
  H    -66.300800    8.482160  -68.559100
  H    -66.353200    8.705730  -70.339100
  H    -64.880700    9.142950  -69.212000
  S    -68.300500    9.474480  -76.044500
  C    -68.829900    7.935280  -76.419600
  C    -69.040600    7.199020  -75.279800
  C    -68.301900    7.729900  -74.126800
  C    -67.817700    8.998380  -74.436700
  H    -69.356500    6.154230  -75.398700
  C    -68.210200    7.076540  -72.809900
  H    -68.828700    6.208300  -72.684500
  H    -68.520300    7.883950  -72.084600
  C    -66.809800    6.609190  -72.362400
  H    -66.722900    6.365780  -71.309900
  H    -66.165400    7.467780  -72.603800
  C    -66.388300    5.382760  -73.206600
  H    -67.206100    4.626120  -73.339900
  H    -65.447400    4.895510  -72.787300
  H    -66.037700    5.582000  -74.143300
  H    -64.618900   11.993300  -72.282100
  H    -69.004500    7.572790  -77.416100

 Total Charge           Charge          ....    0
 Multiplicity           Mult            ....    1
 Number of Electrons    NEL             ....  134
 Basis Dimension        Dim             ....  322

ORBITAL ENERGIES
----------------

  NO   OCC          E(Eh)            E(eV)
   0   2.0000     -88.967488     -2420.9284
   1   2.0000     -88.961289     -2420.7597
   2   2.0000     -10.333154      -281.1794
   3   2.0000     -10.324319      -280.9390
   4   2.0000     -10.311082      -280.5788
   5   2.0000     -10.307032      -280.4686
   6   2.0000     -10.306861      -280.4639
   7   2.0000     -10.300164      -280.2817
   8   2.0000     -10.298666      -280.2409
   9   2.0000     -10.294360      -280.1238
  10   2.0000     -10.288972      -279.9772
  11   2.0000     -10.288537      -279.9653
  12   2.0000     -10.288422      -279.9622
  13   2.0000     -10.286209      -279.9020
  14   2.0000     -10.285056      -279.8706
  15   2.0000     -10.273502      -279.5562
  16   2.0000      -8.082827      -219.9449
  17   2.0000      -8.078030      -219.8144
  18   2.0000      -6.041186      -164.3890
  19   2.0000      -6.037465      -164.2878
  20   2.0000      -6.036313      -164.2564
  21   2.0000      -6.033494      -164.1797
  22   2.0000      -6.032300      -164.1472
  23   2.0000      -6.028875      -164.0540
  24   2.0000      -1.011574       -27.5263
  25   2.0000      -0.991223       -26.9725
  26   2.0000      -0.918741       -25.0002
  27   2.0000      -0.913142       -24.8479
  28   2.0000      -0.866354       -23.5747
  29   2.0000      -0.849423       -23.1140
  30   2.0000      -0.841307       -22.8931
  31   2.0000      -0.813265       -22.1301
  32   2.0000      -0.784014       -21.3341
  33   2.0000      -0.773742       -21.0546
  34   2.0000      -0.710387       -19.3306
  35   2.0000      -0.692638       -18.8476
  36   2.0000      -0.687107       -18.6971
  37   2.0000      -0.659597       -17.9486
  38   2.0000      -0.639509       -17.4019
  39   2.0000      -0.622270       -16.9328
  40   2.0000      -0.593426       -16.1479
  41   2.0000      -0.566925       -15.4268
  42   2.0000      -0.560540       -15.2531
  43   2.0000      -0.557383       -15.1672
  44   2.0000      -0.547458       -14.8971
  45   2.0000      -0.542959       -14.7747
  46   2.0000      -0.511189       -13.9102
  47   2.0000      -0.508828       -13.8459
  48   2.0000      -0.502812       -13.6822
  49   2.0000      -0.497350       -13.5336
  50   2.0000      -0.488511       -13.2931
  51   2.0000      -0.480557       -13.0766
  52   2.0000      -0.470424       -12.8009
  53   2.0000      -0.468063       -12.7366
  54   2.0000      -0.459236       -12.4964
  55   2.0000      -0.450014       -12.2455
  56   2.0000      -0.439761       -11.9665
  57   2.0000      -0.435605       -11.8534
  58   2.0000      -0.426784       -11.6134
  59   2.0000      -0.425449       -11.5771
  60   2.0000      -0.416437       -11.3318
  61   2.0000      -0.413435       -11.2501
  62   2.0000      -0.409602       -11.1458
  63   2.0000      -0.339501        -9.2383
  64   2.0000      -0.329854        -8.9758
  65   2.0000      -0.325736        -8.8637
  66   2.0000      -0.291200        -7.9240
  67   0.0000       0.021188         0.5766
  68   0.0000       0.075588         2.0569
  69   0.0000       0.098473         2.6796
  70   0.0000       0.115642         3.1468
  71   0.0000       0.127451         3.4681

MULLIKEN ATOMIC CHARGES
-----------------------
   0 S :    0.123659
   1 C :   -0.080312
   2 C :   -0.116237
   3 C :    0.024426
   4 C :   -0.176338
   5 H :    0.035515
   6 C :    0.090552
   7 H :    0.052433
   8 H :   -0.001054
   9 C :   -0.071095
  10 H :    0.035378
  11 H :    0.030922
  12 C :   -0.116667
  13 H :    0.030066
  14 H :    0.053476
  15 H :    0.048720
  16 S :    0.112227
  17 C :   -0.091592
  18 C :   -0.030471
  19 C :   -0.056832
  20 C :   -0.144560
  21 H :    0.028756
  22 C :    0.052577
  23 H :    0.016344
  24 H :    0.025349
  25 C :   -0.080805
  26 H :    0.043531
  27 H :    0.051573
  28 C :   -0.040379
  29 H :    0.028622
  30 H :    0.031234
  31 H :    0.013051
  32 H :    0.020451
  33 H :    0.057480
Sum of atomic charges:    0.0000000

LOEWDIN ATOMIC CHARGES
----------------------
   0 S :    0.417018
   1 C :   -0.184304
   2 C :   -0.063405
   3 C :   -0.059222
   4 C :   -0.198839
   5 H :    0.031356
   6 C :   -0.034560
   7 H :    0.039589
   8 H :    0.024079
   9 C :   -0.045804
  10 H :    0.031471
  11 H :    0.021933
  12 C :   -0.085540
  13 H :    0.029100
  14 H :    0.036691
  15 H :    0.030702
  16 S :    0.429180
  17 C :   -0.199588
  18 C :   -0.078619
  19 C :   -0.050681
  20 C :   -0.209948
  21 H :    0.031597
  22 C :   -0.037939
  23 H :    0.025047
  24 H :    0.036652
  25 C :   -0.035747
  26 H :    0.024109
  27 H :    0.029617
  28 C :   -0.069446
  29 H :    0.025771
  30 H :    0.033896
  31 H :    0.011322
  32 H :    0.015202
  33 H :    0.029312

  Mayer bond orders larger than 0.100000
B(  0-S ,  1-C ) :   1.1223 B(  0-S ,  4-C ) :   1.1732 B(  1-C ,  2-C ) :   1.6456
B(  1-C , 32-H ) :   0.9704 B(  2-C ,  3-C ) :   1.2022 B(  2-C ,  6-C ) :   1.0339
B(  3-C ,  4-C ) :   1.5625 B(  3-C ,  5-H ) :   0.9863 B(  4-C , 20-C ) :   1.0194
B(  6-C ,  7-H ) :   0.9441 B(  6-C ,  8-H ) :   0.9304 B(  6-C ,  9-C ) :   1.0691
B(  9-C , 10-H ) :   0.9585 B(  9-C , 11-H ) :   0.9529 B(  9-C , 12-C ) :   1.0867
B( 12-C , 13-H ) :   0.9695 B( 12-C , 14-H ) :   0.9573 B( 12-C , 15-H ) :   0.9734
B( 16-S , 17-C ) :   1.1788 B( 16-S , 20-C ) :   1.1485 B( 17-C , 18-C ) :   1.6030
B( 17-C , 33-H ) :   0.9700 B( 18-C , 19-C ) :   1.2378 B( 18-C , 21-H ) :   0.9776
B( 19-C , 20-C ) :   1.5944 B( 19-C , 22-C ) :   1.0542 B( 22-C , 23-H ) :   0.9388
B( 22-C , 24-H ) :   0.9238 B( 22-C , 25-C ) :   1.0808 B( 25-C , 26-H ) :   0.9554
B( 25-C , 27-H ) :   0.9500 B( 25-C , 28-C ) :   1.0607 B( 28-C , 29-H ) :   0.9756
B( 28-C , 30-H ) :   0.9721 B( 28-C , 31-H ) :   0.9738

Dispersion correction           -0.016320229
FINAL SINGLE POINT ENERGY     -1339.851537836289

DIPOLE MOMENT
-------------
                                X             Y             Z
Electronic contribution:     -3.90136      14.15862     -24.65114
Nuclear contribution   :      3.89881     -14.38340      25.16537
                        -----------------------------------------
Total Dipole Moment    :     -0.00256      -0.22477       0.51424
                        -----------------------------------------
Magnitude (a.u.)       :      0.56122
Magnitude (Debye)      :      1.42651

Rotational constants in cm-1:     0.019389     0.010398     0.007795
Rotational constants in MHz :   581.256739   311.714031   233.692862

                             ****ORCA TERMINATED NORMALLY****
TOTAL RUN TIME: 0 days 0 hours 0 minutes 23 seconds 809 msec
