                         Program Version 4.2.1 -  RELEASE  -
|  1> ! wB97X-D3 SP def2-SVP
|  2> %pal
|  3> nprocs 24
|  4> end
|  5>
|  6> * xyz 0 1
|  7> S 	 37.9324 	 -5.00455 	 -117.849
|  8> C 	 37.4654 	 -6.52794 	 -118.602
|  9> C 	 36.2271 	 -6.3934 	 -119.284
| 10> C 	 35.6229 	 -5.09251 	 -119.17
| 11> C 	 36.433 	 -4.29777 	 -118.413
| 12> H 	 34.6895 	 -4.73002 	 -119.532
| 13> C 	 35.6879 	 -7.30643 	 -120.339
| 14> H 	 36.3984 	 -8.17251 	 -120.447
| 15> H 	 35.787 	 -6.84947 	 -121.287
| 16> C 	 34.3521 	 -7.99167 	 -120.109
| 17> H 	 34.3399 	 -8.30402 	 -119.058
| 18> H 	 33.6564 	 -7.17656 	 -120.075
| 19> C 	 33.9973 	 -9.13816 	 -121.058
| 20> H 	 34.7702 	 -9.24786 	 -121.821
| 21> H 	 33.7139 	 -10.0984 	 -120.611
| 22> H 	 33.1691 	 -8.8141 	 -121.587
| 23> S 	 35.8656 	 -1.81295 	 -119.32
| 24> C 	 35.684 	 -0.528078 	 -118.147
| 25> C 	 35.6889 	 -0.958855 	 -116.837
| 26> C 	 35.8775 	 -2.38964 	 -116.738
| 27> C 	 36.1366 	 -2.93665 	 -117.998
| 28> H 	 35.4839 	 -0.333587 	 -116.026
| 29> C 	 35.5826 	 -3.23215 	 -115.446
| 30> H 	 36.0878 	 -2.83154 	 -114.531
| 31> H 	 35.968 	 -4.21257 	 -115.611
| 32> C 	 34.0508 	 -3.39141 	 -115.275
| 33> H 	 33.6537 	 -3.72916 	 -116.266
| 34> H 	 33.6347 	 -2.46231 	 -114.969
| 35> C 	 33.7361 	 -4.49087 	 -114.258
| 36> H 	 32.6721 	 -4.87369 	 -114.295
| 37> H 	 33.805 	 -4.18811 	 -113.201
| 38> H 	 34.4749 	 -5.31492 	 -114.346
| 39> H 	 38.0535 	 -7.45763 	 -118.588
| 40> H 	 35.3116 	 0.452799 	 -118.433
| 41> *
| 42>
| 43>                          ****END OF INPUT****

CARTESIAN COORDINATES (ANGSTROEM)
---------------------------------
  S     37.932400   -5.004550  -117.849000
  C     37.465400   -6.527940  -118.602000
  C     36.227100   -6.393400  -119.284000
  C     35.622900   -5.092510  -119.170000
  C     36.433000   -4.297770  -118.413000
  H     34.689500   -4.730020  -119.532000
  C     35.687900   -7.306430  -120.339000
  H     36.398400   -8.172510  -120.447000
  H     35.787000   -6.849470  -121.287000
  C     34.352100   -7.991670  -120.109000
  H     34.339900   -8.304020  -119.058000
  H     33.656400   -7.176560  -120.075000
  C     33.997300   -9.138160  -121.058000
  H     34.770200   -9.247860  -121.821000
  H     33.713900  -10.098400  -120.611000
  H     33.169100   -8.814100  -121.587000
  S     35.865600   -1.812950  -119.320000
  C     35.684000   -0.528078  -118.147000
  C     35.688900   -0.958855  -116.837000
  C     35.877500   -2.389640  -116.738000
  C     36.136600   -2.936650  -117.998000
  H     35.483900   -0.333587  -116.026000
  C     35.582600   -3.232150  -115.446000
  H     36.087800   -2.831540  -114.531000
  H     35.968000   -4.212570  -115.611000
  C     34.050800   -3.391410  -115.275000
  H     33.653700   -3.729160  -116.266000
  H     33.634700   -2.462310  -114.969000
  C     33.736100   -4.490870  -114.258000
  H     32.672100   -4.873690  -114.295000
  H     33.805000   -4.188110  -113.201000
  H     34.474900   -5.314920  -114.346000
  H     38.053500   -7.457630  -118.588000
  H     35.311600    0.452799  -118.433000

 Total Charge           Charge          ....    0
 Multiplicity           Mult            ....    1
 Number of Electrons    NEL             ....  134
 Basis Dimension        Dim             ....  322

ORBITAL ENERGIES
----------------

  NO   OCC          E(Eh)            E(eV)
   0   2.0000     -88.970077     -2420.9989
   1   2.0000     -88.965415     -2420.8720
   2   2.0000     -10.325436      -280.9694
   3   2.0000     -10.322322      -280.8847
   4   2.0000     -10.320305      -280.8298
   5   2.0000     -10.315981      -280.7121
   6   2.0000     -10.307451      -280.4800
   7   2.0000     -10.304502      -280.3998
   8   2.0000     -10.295430      -280.1529
   9   2.0000     -10.292192      -280.0648
  10   2.0000     -10.291879      -280.0563
  11   2.0000     -10.286898      -279.9207
  12   2.0000     -10.285029      -279.8699
  13   2.0000     -10.281859      -279.7836
  14   2.0000     -10.281177      -279.7650
  15   2.0000     -10.274448      -279.5819
  16   2.0000      -8.084162      -219.9812
  17   2.0000      -8.080207      -219.8736
  18   2.0000      -6.042671      -164.4294
  19   2.0000      -6.038760      -164.3230
  20   2.0000      -6.038631      -164.3195
  21   2.0000      -6.034952      -164.2194
  22   2.0000      -6.034878      -164.2174
  23   2.0000      -6.030898      -164.1091
  24   2.0000      -1.005199       -27.3529
  25   2.0000      -0.979564       -26.6553
  26   2.0000      -0.913047       -24.8453
  27   2.0000      -0.904451       -24.6114
  28   2.0000      -0.867414       -23.6035
  29   2.0000      -0.854695       -23.2574
  30   2.0000      -0.844165       -22.9709
  31   2.0000      -0.812829       -22.1182
  32   2.0000      -0.781771       -21.2731
  33   2.0000      -0.765627       -20.8338
  34   2.0000      -0.706319       -19.2199
  35   2.0000      -0.697312       -18.9748
  36   2.0000      -0.689628       -18.7657
  37   2.0000      -0.664628       -18.0854
  38   2.0000      -0.643538       -17.5116
  39   2.0000      -0.619814       -16.8660
  40   2.0000      -0.595069       -16.1926
  41   2.0000      -0.569739       -15.5034
  42   2.0000      -0.565491       -15.3878
  43   2.0000      -0.552712       -15.0401
  44   2.0000      -0.528083       -14.3699
  45   2.0000      -0.515653       -14.0316
  46   2.0000      -0.514307       -13.9950
  47   2.0000      -0.511615       -13.9217
  48   2.0000      -0.509007       -13.8508
  49   2.0000      -0.498778       -13.5724
  50   2.0000      -0.488232       -13.2855
  51   2.0000      -0.475938       -12.9509
  52   2.0000      -0.467777       -12.7289
  53   2.0000      -0.466349       -12.6900
  54   2.0000      -0.458943       -12.4885
  55   2.0000      -0.450916       -12.2700
  56   2.0000      -0.448389       -12.2013
  57   2.0000      -0.435238       -11.8434
  58   2.0000      -0.432592       -11.7714
  59   2.0000      -0.427158       -11.6236
  60   2.0000      -0.420649       -11.4464
  61   2.0000      -0.420373       -11.4389
  62   2.0000      -0.401608       -10.9283
  63   2.0000      -0.342067        -9.3081
  64   2.0000      -0.333954        -9.0874
  65   2.0000      -0.323335        -8.7984
  66   2.0000      -0.295615        -8.0441
  67   0.0000       0.035442         0.9644
  68   0.0000       0.065668         1.7869
  69   0.0000       0.100439         2.7331
  70   0.0000       0.110773         3.0143
  71   0.0000       0.130301         3.5457

MULLIKEN ATOMIC CHARGES
-----------------------
   0 S :    0.128545
   1 C :   -0.127980
   2 C :   -0.068598
   3 C :    0.040453
   4 C :   -0.150785
   5 H :    0.011627
   6 C :    0.020641
   7 H :    0.006890
   8 H :    0.033848
   9 C :   -0.073363
  10 H :    0.024159
  11 H :    0.010100
  12 C :    0.001754
  13 H :    0.027285
  14 H :    0.044276
  15 H :    0.013591
  16 S :    0.107554
  17 C :   -0.086191
  18 C :   -0.006640
  19 C :   -0.034883
  20 C :   -0.196612
  21 H :   -0.001595
  22 C :    0.063432
  23 H :    0.039355
  24 H :    0.011367
  25 C :   -0.049181
  26 H :    0.041748
  27 H :    0.025058
  28 C :   -0.076718
  29 H :    0.044233
  30 H :    0.025938
  31 H :    0.034461
  32 H :    0.058577
  33 H :    0.057654
Sum of atomic charges:   -0.0000000

LOEWDIN ATOMIC CHARGES
----------------------
   0 S :    0.411528
   1 C :   -0.202934
   2 C :   -0.055128
   3 C :   -0.060300
   4 C :   -0.189298
   5 H :    0.030185
   6 C :   -0.039562
   7 H :    0.027830
   8 H :    0.025956
   9 C :   -0.044555
  10 H :    0.027351
  11 H :    0.014661
  12 C :   -0.060978
  13 H :    0.028306
  14 H :    0.033233
  15 H :    0.021585
  16 S :    0.403868
  17 C :   -0.185458
  18 C :   -0.060696
  19 C :   -0.050454
  20 C :   -0.205232
  21 H :    0.022274
  22 C :   -0.025766
  23 H :    0.033005
  24 H :    0.018528
  25 C :   -0.034872
  26 H :    0.033359
  27 H :    0.017569
  28 C :   -0.077919
  29 H :    0.032727
  30 H :    0.023615
  31 H :    0.027330
  32 H :    0.033044
  33 H :    0.027198

  Mayer bond orders larger than 0.100000
B(  0-S ,  1-C ) :   1.1243 B(  0-S ,  4-C ) :   1.1550 B(  1-C ,  2-C ) :   1.6208
B(  1-C , 32-H ) :   0.9643 B(  2-C ,  3-C ) :   1.2015 B(  2-C ,  6-C ) :   1.0373
B(  3-C ,  4-C ) :   1.5984 B(  3-C ,  5-H ) :   0.9969 B(  4-C , 20-C ) :   1.0095
B(  6-C ,  7-H ) :   0.9385 B(  6-C ,  8-H ) :   0.9433 B(  6-C ,  9-C ) :   1.0557
B(  9-C , 10-H ) :   0.9563 B(  9-C , 11-H ) :   0.9628 B(  9-C , 12-C ) :   1.0578
B( 12-C , 13-H ) :   0.9778 B( 12-C , 14-H ) :   0.9781 B( 12-C , 15-H ) :   0.9704
B( 16-S , 17-C ) :   1.1467 B( 16-S , 20-C ) :   1.1444 B( 17-C , 18-C ) :   1.6180
B( 17-C , 33-H ) :   0.9645 B( 18-C , 19-C ) :   1.2259 B( 18-C , 21-H ) :   0.9979
B( 19-C , 20-C ) :   1.6059 B( 19-C , 22-C ) :   1.0467 B( 22-C , 23-H ) :   0.9406
B( 22-C , 24-H ) :   0.9280 B( 22-C , 25-C ) :   1.0613 B( 25-C , 26-H ) :   0.9552
B( 25-C , 27-H ) :   0.9576 B( 25-C , 28-C ) :   1.0785 B( 28-C , 29-H ) :   0.9748
B( 28-C , 30-H ) :   0.9738 B( 28-C , 31-H ) :   0.9753

Dispersion correction           -0.014176229
FINAL SINGLE POINT ENERGY     -1339.869334235776

DIPOLE MOMENT
-------------
                                X             Y             Z
Electronic contribution:     16.83027      18.30146      -5.07142
Nuclear contribution   :    -17.34323     -18.50959       5.17576
                        -----------------------------------------
Total Dipole Moment    :     -0.51295      -0.20813       0.10435
                        -----------------------------------------
Magnitude (a.u.)       :      0.56332
Magnitude (Debye)      :      1.43184

Rotational constants in cm-1:     0.017972     0.008036     0.007141
Rotational constants in MHz :   538.784471   240.912634   214.090662

                             ****ORCA TERMINATED NORMALLY****
TOTAL RUN TIME: 0 days 0 hours 0 minutes 21 seconds 251 msec
