                         Program Version 4.2.1 -  RELEASE  -
|  1> ! wB97X-D3 SP def2-SVP
|  2> %pal
|  3> nprocs 24
|  4> end
|  5>
|  6> * xyz 0 1
|  7> S 	 -58.4394 	 9.7769 	 -83.9271
|  8> C 	 -59.0407 	 9.78616 	 -85.5137
|  9> C 	 -60.0334 	 10.7145 	 -85.7153
| 10> C 	 -60.2778 	 11.5285 	 -84.5284
| 11> C 	 -59.4006 	 11.2021 	 -83.4854
| 12> H 	 -61.0024 	 12.2827 	 -84.4279
| 13> C 	 -60.8535 	 10.8275 	 -86.9586
| 14> H 	 -61.694 	 10.1584 	 -86.9692
| 15> H 	 -60.3454 	 10.3531 	 -87.8239
| 16> C 	 -61.3407 	 12.2602 	 -87.3736
| 17> H 	 -60.4322 	 12.8126 	 -87.1797
| 18> H 	 -61.5165 	 12.2217 	 -88.4308
| 19> C 	 -62.5676 	 12.8303 	 -86.794
| 20> H 	 -62.7685 	 13.8393 	 -87.1678
| 21> H 	 -63.3852 	 12.3543 	 -87.2706
| 22> H 	 -62.7338 	 12.8291 	 -85.7499
| 23> S 	 -59.1588 	 13.677 	 -82.4827
| 24> C 	 -58.9193 	 13.984 	 -80.761
| 25> C 	 -58.7587 	 12.7552 	 -80.0935
| 26> C 	 -58.9599 	 11.5996 	 -80.9589
| 27> C 	 -59.1458 	 11.9844 	 -82.2671
| 28> H 	 -58.5769 	 12.7188 	 -79.0065
| 29> C 	 -58.9331 	 10.2259 	 -80.3157
| 30> H 	 -58.8994 	 10.4071 	 -79.2213
| 31> H 	 -57.9512 	 9.91644 	 -80.819
| 32> C 	 -60.0779 	 9.17763 	 -80.5696
| 33> H 	 -59.9534 	 8.24883 	 -79.9173
| 34> H 	 -59.9633 	 8.91295 	 -81.6235
| 35> C 	 -61.4519 	 9.81223 	 -80.2933
| 36> H 	 -62.1725 	 9.02804 	 -80.5387
| 37> H 	 -61.6452 	 10.7048 	 -80.8565
| 38> H 	 -61.4164 	 10.0667 	 -79.3005
| 39> H 	 -58.8327 	 9.07707 	 -86.3081
| 40> H 	 -58.6943 	 14.9666 	 -80.2543
| 41> *
| 42>
| 43>                          ****END OF INPUT****

CARTESIAN COORDINATES (ANGSTROEM)
---------------------------------
  S    -58.439400    9.776900  -83.927100
  C    -59.040700    9.786160  -85.513700
  C    -60.033400   10.714500  -85.715300
  C    -60.277800   11.528500  -84.528400
  C    -59.400600   11.202100  -83.485400
  H    -61.002400   12.282700  -84.427900
  C    -60.853500   10.827500  -86.958600
  H    -61.694000   10.158400  -86.969200
  H    -60.345400   10.353100  -87.823900
  C    -61.340700   12.260200  -87.373600
  H    -60.432200   12.812600  -87.179700
  H    -61.516500   12.221700  -88.430800
  C    -62.567600   12.830300  -86.794000
  H    -62.768500   13.839300  -87.167800
  H    -63.385200   12.354300  -87.270600
  H    -62.733800   12.829100  -85.749900
  S    -59.158800   13.677000  -82.482700
  C    -58.919300   13.984000  -80.761000
  C    -58.758700   12.755200  -80.093500
  C    -58.959900   11.599600  -80.958900
  C    -59.145800   11.984400  -82.267100
  H    -58.576900   12.718800  -79.006500
  C    -58.933100   10.225900  -80.315700
  H    -58.899400   10.407100  -79.221300
  H    -57.951200    9.916440  -80.819000
  C    -60.077900    9.177630  -80.569600
  H    -59.953400    8.248830  -79.917300
  H    -59.963300    8.912950  -81.623500
  C    -61.451900    9.812230  -80.293300
  H    -62.172500    9.028040  -80.538700
  H    -61.645200   10.704800  -80.856500
  H    -61.416400   10.066700  -79.300500
  H    -58.832700    9.077070  -86.308100
  H    -58.694300   14.966600  -80.254300

 Total Charge           Charge          ....    0
 Multiplicity           Mult            ....    1
 Number of Electrons    NEL             ....  134
 Basis Dimension        Dim             ....  322

ORBITAL ENERGIES
----------------

  NO   OCC          E(Eh)            E(eV)
   0   2.0000     -88.969546     -2420.9844
   1   2.0000     -88.967749     -2420.9355
   2   2.0000     -10.334793      -281.2240
   3   2.0000     -10.323889      -280.9273
   4   2.0000     -10.323780      -280.9243
   5   2.0000     -10.309341      -280.5314
   6   2.0000     -10.304303      -280.3943
   7   2.0000     -10.300986      -280.3041
   8   2.0000     -10.299759      -280.2707
   9   2.0000     -10.298803      -280.2447
  10   2.0000     -10.296380      -280.1787
  11   2.0000     -10.290381      -280.0155
  12   2.0000     -10.288686      -279.9694
  13   2.0000     -10.282133      -279.7911
  14   2.0000     -10.270079      -279.4631
  15   2.0000     -10.263735      -279.2904
  16   2.0000      -8.084215      -219.9827
  17   2.0000      -8.082567      -219.9378
  18   2.0000      -6.042772      -164.4322
  19   2.0000      -6.041163      -164.3884
  20   2.0000      -6.038717      -164.3218
  21   2.0000      -6.036971      -164.2743
  22   2.0000      -6.034957      -164.2195
  23   2.0000      -6.033296      -164.1743
  24   2.0000      -1.008166       -27.4336
  25   2.0000      -0.985332       -26.8122
  26   2.0000      -0.913616       -24.8607
  27   2.0000      -0.903366       -24.5819
  28   2.0000      -0.871988       -23.7280
  29   2.0000      -0.854682       -23.2571
  30   2.0000      -0.846135       -23.0245
  31   2.0000      -0.815783       -22.1986
  32   2.0000      -0.784638       -21.3511
  33   2.0000      -0.770967       -20.9791
  34   2.0000      -0.709866       -19.3164
  35   2.0000      -0.695910       -18.9367
  36   2.0000      -0.684355       -18.6222
  37   2.0000      -0.666458       -18.1352
  38   2.0000      -0.641504       -17.4562
  39   2.0000      -0.621431       -16.9100
  40   2.0000      -0.581577       -15.8255
  41   2.0000      -0.570949       -15.5363
  42   2.0000      -0.554092       -15.0776
  43   2.0000      -0.550576       -14.9819
  44   2.0000      -0.544447       -14.8152
  45   2.0000      -0.538576       -14.6554
  46   2.0000      -0.517026       -14.0690
  47   2.0000      -0.510227       -13.8840
  48   2.0000      -0.505920       -13.7668
  49   2.0000      -0.496776       -13.5180
  50   2.0000      -0.493459       -13.4277
  51   2.0000      -0.487810       -13.2740
  52   2.0000      -0.474823       -12.9206
  53   2.0000      -0.472715       -12.8632
  54   2.0000      -0.461568       -12.5599
  55   2.0000      -0.446739       -12.1564
  56   2.0000      -0.438608       -11.9351
  57   2.0000      -0.431227       -11.7343
  58   2.0000      -0.427798       -11.6410
  59   2.0000      -0.426257       -11.5990
  60   2.0000      -0.415512       -11.3067
  61   2.0000      -0.411923       -11.2090
  62   2.0000      -0.407752       -11.0955
  63   2.0000      -0.352616        -9.5952
  64   2.0000      -0.330351        -8.9893
  65   2.0000      -0.324835        -8.8392
  66   2.0000      -0.287663        -7.8277
  67   0.0000       0.028193         0.7672
  68   0.0000       0.073022         1.9870
  69   0.0000       0.104166         2.8345
  70   0.0000       0.122122         3.3231
  71   0.0000       0.126809         3.4506

MULLIKEN ATOMIC CHARGES
-----------------------
   0 S :    0.116711
   1 C :   -0.103087
   2 C :   -0.084584
   3 C :    0.035604
   4 C :   -0.147149
   5 H :   -0.008309
   6 C :    0.047136
   7 H :    0.022146
   8 H :    0.013490
   9 C :   -0.073598
  10 H :    0.032607
  11 H :    0.021665
  12 C :    0.001059
  13 H :    0.024840
  14 H :    0.006387
  15 H :    0.030012
  16 S :    0.118438
  17 C :   -0.119696
  18 C :   -0.057071
  19 C :   -0.061535
  20 C :   -0.140687
  21 H :    0.032852
  22 C :    0.008237
  23 H :    0.028648
  24 H :    0.061230
  25 C :   -0.079862
  26 H :    0.046516
  27 H :    0.027011
  28 C :   -0.011071
  29 H :    0.039710
  30 H :    0.040534
  31 H :    0.007325
  32 H :    0.043853
  33 H :    0.080637
Sum of atomic charges:    0.0000000

LOEWDIN ATOMIC CHARGES
----------------------
   0 S :    0.423310
   1 C :   -0.214739
   2 C :   -0.062895
   3 C :   -0.059908
   4 C :   -0.181337
   5 H :    0.019135
   6 C :   -0.040579
   7 H :    0.027357
   8 H :    0.035312
   9 C :   -0.040636
  10 H :    0.023593
  11 H :    0.028346
  12 C :   -0.064741
  13 H :    0.034516
  14 H :    0.024387
  15 H :    0.016992
  16 S :    0.431331
  17 C :   -0.202884
  18 C :   -0.072816
  19 C :   -0.064727
  20 C :   -0.220384
  21 H :    0.033942
  22 C :   -0.043867
  23 H :    0.030918
  24 H :    0.046466
  25 C :   -0.042806
  26 H :    0.033937
  27 H :    0.011716
  28 C :   -0.054641
  29 H :    0.030401
  30 H :    0.026293
  31 H :    0.011990
  32 H :    0.031934
  33 H :    0.045086

  Mayer bond orders larger than 0.100000
B(  0-S ,  1-C ) :   1.1399 B(  0-S ,  4-C ) :   1.1478 B(  1-C ,  2-C ) :   1.6271
B(  1-C , 32-H ) :   0.9613 B(  2-C ,  3-C ) :   1.2195 B(  2-C ,  6-C ) :   1.0405
B(  3-C ,  4-C ) :   1.5675 B(  3-C ,  5-H ) :   0.9993 B(  4-C , 20-C ) :   1.0388
B(  6-C ,  7-H ) :   0.9291 B(  6-C ,  8-H ) :   0.9345 B(  6-C ,  9-C ) :   1.0610
B(  9-C , 10-H ) :   0.9636 B(  9-C , 11-H ) :   0.9509 B(  9-C , 12-C ) :   1.0886
B( 12-C , 13-H ) :   0.9618 B( 12-C , 14-H ) :   0.9616 B( 12-C , 15-H ) :   0.9777
B( 16-S , 17-C ) :   1.1511 B( 16-S , 20-C ) :   1.1490 B( 17-C , 18-C ) :   1.6079
B( 17-C , 33-H ) :   0.9596 B( 18-C , 19-C ) :   1.2554 B( 18-C , 21-H ) :   0.9784
B( 19-C , 20-C ) :   1.5681 B( 19-C , 22-C ) :   1.0069 B( 22-C , 23-H ) :   0.9402
B( 22-C , 24-H ) :   0.9365 B( 22-C , 25-C ) :   1.0656 B( 25-C , 26-H ) :   0.9572
B( 25-C , 27-H ) :   0.9476 B( 25-C , 28-C ) :   1.0717 B( 28-C , 29-H ) :   0.9747
B( 28-C , 30-H ) :   0.9727 B( 28-C , 31-H ) :   0.9777

Dispersion correction           -0.015173759
FINAL SINGLE POINT ENERGY     -1339.863120302420

DIPOLE MOMENT
-------------
                                X             Y             Z
Electronic contribution:     15.52658       4.36030       3.77907
Nuclear contribution   :    -15.86808      -4.43597      -3.89343
                        -----------------------------------------
Total Dipole Moment    :     -0.34151      -0.07567      -0.11437
                        -----------------------------------------
Magnitude (a.u.)       :      0.36801
Magnitude (Debye)      :      0.93541

Rotational constants in cm-1:     0.019457     0.009142     0.007720
Rotational constants in MHz :   583.297150   274.073728   231.428615

                             ****ORCA TERMINATED NORMALLY****
TOTAL RUN TIME: 0 days 0 hours 0 minutes 20 seconds 997 msec
