                         Program Version 4.2.1 -  RELEASE  -
|  1> ! wB97X-D3 SP def2-SVP
|  2> %pal
|  3> nprocs 24
|  4> end
|  5>
|  6> * xyz 0 1
|  7> S 	 -94.4015 	 46.6421 	 -92.0539
|  8> C 	 -93.6704 	 45.1198 	 -91.6925
|  9> C 	 -94.6852 	 44.2024 	 -91.3465
| 10> C 	 -96.0467 	 44.8296 	 -91.3311
| 11> C 	 -96.0173 	 46.1835 	 -91.6475
| 12> H 	 -96.9632 	 44.3584 	 -91.0743
| 13> C 	 -94.5029 	 42.7586 	 -91.0043
| 14> H 	 -95.5453 	 42.4087 	 -90.8932
| 15> H 	 -94.0723 	 42.7938 	 -90.0565
| 16> C 	 -93.83 	 41.8067 	 -92.0102
| 17> H 	 -92.825 	 42.1795 	 -92.0306
| 18> H 	 -93.7054 	 40.8091 	 -91.6194
| 19> C 	 -94.4434 	 42.0242 	 -93.4141
| 20> H 	 -95.448 	 41.5576 	 -93.3411
| 21> H 	 -94.544 	 43.0411 	 -93.7034
| 22> H 	 -93.8653 	 41.4962 	 -94.1375
| 23> S 	 -97.0216 	 48.5264 	 -90.7621
| 24> C 	 -98.6495 	 49.0572 	 -91.132
| 25> C 	 -99.1999 	 48.2663 	 -92.1656
| 26> C 	 -98.3256 	 47.1612 	 -92.4802
| 27> C 	 -97.1405 	 47.1386 	 -91.7419
| 28> H 	 -100.21 	 48.4211 	 -92.4849
| 29> C 	 -98.7783 	 46.0875 	 -93.4118
| 30> H 	 -97.9718 	 45.4389 	 -93.8185
| 31> H 	 -99.237 	 46.631 	 -94.2918
| 32> C 	 -99.8535 	 45.2189 	 -92.7033
| 33> H 	 -100.734 	 45.7857 	 -92.4946
| 34> H 	 -99.4603 	 44.7373 	 -91.8063
| 35> C 	 -100.461 	 44.0332 	 -93.343
| 36> H 	 -100.875 	 44.1122 	 -94.3383
| 37> H 	 -101.289 	 43.729 	 -92.6981
| 38> H 	 -99.7159 	 43.2607 	 -93.1671
| 39> H 	 -92.6099 	 44.8566 	 -91.913
| 40> H 	 -99.0324 	 50.0495 	 -90.7961
| 41> *
| 42>
| 43>                          ****END OF INPUT****

CARTESIAN COORDINATES (ANGSTROEM)
---------------------------------
  S    -94.401500   46.642100  -92.053900
  C    -93.670400   45.119800  -91.692500
  C    -94.685200   44.202400  -91.346500
  C    -96.046700   44.829600  -91.331100
  C    -96.017300   46.183500  -91.647500
  H    -96.963200   44.358400  -91.074300
  C    -94.502900   42.758600  -91.004300
  H    -95.545300   42.408700  -90.893200
  H    -94.072300   42.793800  -90.056500
  C    -93.830000   41.806700  -92.010200
  H    -92.825000   42.179500  -92.030600
  H    -93.705400   40.809100  -91.619400
  C    -94.443400   42.024200  -93.414100
  H    -95.448000   41.557600  -93.341100
  H    -94.544000   43.041100  -93.703400
  H    -93.865300   41.496200  -94.137500
  S    -97.021600   48.526400  -90.762100
  C    -98.649500   49.057200  -91.132000
  C    -99.199900   48.266300  -92.165600
  C    -98.325600   47.161200  -92.480200
  C    -97.140500   47.138600  -91.741900
  H    -100.210000   48.421100  -92.484900
  C    -98.778300   46.087500  -93.411800
  H    -97.971800   45.438900  -93.818500
  H    -99.237000   46.631000  -94.291800
  C    -99.853500   45.218900  -92.703300
  H    -100.734000   45.785700  -92.494600
  H    -99.460300   44.737300  -91.806300
  C    -100.461000   44.033200  -93.343000
  H    -100.875000   44.112200  -94.338300
  H    -101.289000   43.729000  -92.698100
  H    -99.715900   43.260700  -93.167100
  H    -92.609900   44.856600  -91.913000
  H    -99.032400   50.049500  -90.796100

 Total Charge           Charge          ....    0
 Multiplicity           Mult            ....    1
 Number of Electrons    NEL             ....  134
 Basis Dimension        Dim             ....  322

ORBITAL ENERGIES
----------------

  NO   OCC          E(Eh)            E(eV)
   0   2.0000     -88.964446     -2420.8457
   1   2.0000     -88.964076     -2420.8356
   2   2.0000     -10.332487      -281.1613
   3   2.0000     -10.325884      -280.9816
   4   2.0000     -10.324479      -280.9434
   5   2.0000     -10.319193      -280.7995
   6   2.0000     -10.309386      -280.5327
   7   2.0000     -10.305899      -280.4378
   8   2.0000     -10.299956      -280.2760
   9   2.0000     -10.299298      -280.2582
  10   2.0000     -10.296230      -280.1747
  11   2.0000     -10.285759      -279.8897
  12   2.0000     -10.284017      -279.8423
  13   2.0000     -10.279561      -279.7211
  14   2.0000     -10.274235      -279.5762
  15   2.0000     -10.271730      -279.5080
  16   2.0000      -8.079812      -219.8629
  17   2.0000      -8.079726      -219.8605
  18   2.0000      -6.038393      -164.3130
  19   2.0000      -6.038116      -164.3055
  20   2.0000      -6.033948      -164.1921
  21   2.0000      -6.033905      -164.1909
  22   2.0000      -6.030748      -164.1050
  23   2.0000      -6.030735      -164.1046
  24   2.0000      -1.007856       -27.4252
  25   2.0000      -0.983800       -26.7706
  26   2.0000      -0.915754       -24.9189
  27   2.0000      -0.913489       -24.8573
  28   2.0000      -0.866888       -23.5892
  29   2.0000      -0.859774       -23.3956
  30   2.0000      -0.843450       -22.9514
  31   2.0000      -0.815567       -22.1927
  32   2.0000      -0.781165       -21.2566
  33   2.0000      -0.770178       -20.9576
  34   2.0000      -0.711020       -19.3478
  35   2.0000      -0.695043       -18.9131
  36   2.0000      -0.685814       -18.6619
  37   2.0000      -0.665433       -18.1074
  38   2.0000      -0.641642       -17.4600
  39   2.0000      -0.609102       -16.5745
  40   2.0000      -0.590812       -16.0768
  41   2.0000      -0.578161       -15.7325
  42   2.0000      -0.571642       -15.5552
  43   2.0000      -0.562708       -15.3121
  44   2.0000      -0.546170       -14.8620
  45   2.0000      -0.528050       -14.3690
  46   2.0000      -0.520020       -14.1505
  47   2.0000      -0.513715       -13.9789
  48   2.0000      -0.508454       -13.8357
  49   2.0000      -0.499127       -13.5819
  50   2.0000      -0.495049       -13.4710
  51   2.0000      -0.476295       -12.9606
  52   2.0000      -0.471643       -12.8341
  53   2.0000      -0.467530       -12.7221
  54   2.0000      -0.459744       -12.5103
  55   2.0000      -0.450206       -12.2507
  56   2.0000      -0.445285       -12.1168
  57   2.0000      -0.434519       -11.8239
  58   2.0000      -0.431799       -11.7498
  59   2.0000      -0.422560       -11.4985
  60   2.0000      -0.417608       -11.3637
  61   2.0000      -0.409024       -11.1301
  62   2.0000      -0.403355       -10.9759
  63   2.0000      -0.344944        -9.3864
  64   2.0000      -0.326945        -8.8966
  65   2.0000      -0.323231        -8.7956
  66   2.0000      -0.299716        -8.1557
  67   0.0000       0.037212         1.0126
  68   0.0000       0.063030         1.7151
  69   0.0000       0.115866         3.1529
  70   0.0000       0.116966         3.1828
  71   0.0000       0.124898         3.3986

MULLIKEN ATOMIC CHARGES
-----------------------
   0 S :    0.114329
   1 C :   -0.131334
   2 C :   -0.163847
   3 C :    0.048084
   4 C :   -0.135868
   5 H :   -0.001377
   6 C :    0.079644
   7 H :    0.010720
   8 H :    0.033020
   9 C :   -0.048096
  10 H :    0.008031
  11 H :    0.033020
  12 C :   -0.038899
  13 H :    0.029508
  14 H :    0.049782
  15 H :    0.029479
  16 S :    0.113309
  17 C :   -0.118477
  18 C :   -0.034709
  19 C :   -0.019451
  20 C :   -0.167687
  21 H :    0.024378
  22 C :    0.067011
  23 H :    0.034894
  24 H :    0.032360
  25 C :   -0.099729
  26 H :    0.018287
  27 H :    0.022405
  28 C :   -0.017217
  29 H :    0.033335
  30 H :    0.023256
  31 H :    0.018082
  32 H :    0.075483
  33 H :    0.078273
Sum of atomic charges:   -0.0000000

LOEWDIN ATOMIC CHARGES
----------------------
   0 S :    0.426263
   1 C :   -0.222631
   2 C :   -0.057052
   3 C :   -0.063557
   4 C :   -0.203216
   5 H :    0.023434
   6 C :   -0.036052
   7 H :    0.028400
   8 H :    0.027856
   9 C :   -0.036849
  10 H :    0.015417
  11 H :    0.026476
  12 C :   -0.055509
  13 H :    0.028894
  14 H :    0.025617
  15 H :    0.021594
  16 S :    0.432749
  17 C :   -0.192193
  18 C :   -0.065965
  19 C :   -0.053644
  20 C :   -0.221933
  21 H :    0.030217
  22 C :   -0.036611
  23 H :    0.032992
  24 H :    0.038253
  25 C :   -0.045713
  26 H :    0.018818
  27 H :    0.026909
  28 C :   -0.063879
  29 H :    0.020407
  30 H :    0.029897
  31 H :    0.022473
  32 H :    0.041158
  33 H :    0.036980

  Mayer bond orders larger than 0.100000
B(  0-S ,  1-C ) :   1.1426 B(  0-S ,  4-C ) :   1.1769 B(  1-C ,  2-C ) :   1.5827
B(  1-C , 32-H ) :   0.9681 B(  2-C ,  3-C ) :   1.2330 B(  2-C ,  6-C ) :   1.0119
B(  3-C ,  4-C ) :   1.5734 B(  3-C ,  5-H ) :   0.9990 B(  4-C , 20-C ) :   0.9972
B(  6-C ,  7-H ) :   0.9407 B(  6-C ,  8-H ) :   0.9346 B(  6-C ,  9-C ) :   1.0697
B(  9-C , 10-H ) :   0.9517 B(  9-C , 11-H ) :   0.9585 B(  9-C , 12-C ) :   1.0684
B( 12-C , 13-H ) :   0.9788 B( 12-C , 14-H ) :   0.9716 B( 12-C , 15-H ) :   0.9751
B( 16-S , 17-C ) :   1.1791 B( 16-S , 20-C ) :   1.1627 B( 17-C , 18-C ) :   1.5761
B( 17-C , 20-C ) :   0.1043 B( 17-C , 33-H ) :   0.9624 B( 18-C , 19-C ) :   1.2477
B( 18-C , 21-H ) :   0.9927 B( 19-C , 20-C ) :   1.5795 B( 19-C , 22-C ) :   1.0622
B( 22-C , 23-H ) :   0.9367 B( 22-C , 24-H ) :   0.9274 B( 22-C , 25-C ) :   1.0582
B( 25-C , 26-H ) :   0.9593 B( 25-C , 27-H ) :   0.9592 B( 25-C , 28-C ) :   1.0901
B( 28-C , 29-H ) :   0.9702 B( 28-C , 30-H ) :   0.9708 B( 28-C , 31-H ) :   0.9786

Dispersion correction           -0.014644111
FINAL SINGLE POINT ENERGY     -1339.863435975812

DIPOLE MOMENT
-------------
                                X             Y             Z
Electronic contribution:      9.06227      26.38773       8.82801
Nuclear contribution   :     -9.39185     -26.90018      -8.97791
                        -----------------------------------------
Total Dipole Moment    :     -0.32958      -0.51245      -0.14990
                        -----------------------------------------
Magnitude (a.u.)       :      0.62745
Magnitude (Debye)      :      1.59486

Rotational constants in cm-1:     0.018609     0.009219     0.006688
Rotational constants in MHz :   557.894291   276.379803   200.495700

                             ****ORCA TERMINATED NORMALLY****
TOTAL RUN TIME: 0 days 0 hours 0 minutes 22 seconds 26 msec
