                         Program Version 4.2.1 -  RELEASE  -
|  1> ! wB97X-D3 SP def2-SVP
|  2> %pal
|  3> nprocs 24
|  4> end
|  5>
|  6> * xyz 0 1
|  7> S 	 45.9475 	 -22.596 	 -110.981
|  8> C 	 47.3875 	 -22.916 	 -111.982
|  9> C 	 47.2507 	 -24.077 	 -112.763
| 10> C 	 46.0397 	 -24.7641 	 -112.458
| 11> C 	 45.1968 	 -24.1239 	 -111.574
| 12> H 	 45.856 	 -25.702 	 -112.915
| 13> C 	 48.2321 	 -24.4922 	 -113.906
| 14> H 	 47.5651 	 -24.5729 	 -114.778
| 15> H 	 48.5854 	 -25.5218 	 -113.729
| 16> C 	 49.4581 	 -23.5632 	 -114.28
| 17> H 	 48.992 	 -22.5778 	 -114.36
| 18> H 	 50.0824 	 -23.4373 	 -113.416
| 19> C 	 50.1759 	 -23.904 	 -115.585
| 20> H 	 50.4825 	 -24.9294 	 -115.628
| 21> H 	 49.6896 	 -23.6356 	 -116.529
| 22> H 	 51.1336 	 -23.4669 	 -115.633
| 23> S 	 43.6783 	 -24.4037 	 -109.354
| 24> C 	 42.226 	 -25.336 	 -109.333
| 25> C 	 41.8927 	 -25.7519 	 -110.608
| 26> C 	 42.851 	 -25.3273 	 -111.597
| 27> C 	 43.9372 	 -24.6376 	 -111.04
| 28> H 	 40.8722 	 -26.1277 	 -110.757
| 29> C 	 42.6482 	 -25.6461 	 -113.145
| 30> H 	 43.4055 	 -25.1423 	 -113.78
| 31> H 	 41.6926 	 -25.2872 	 -113.469
| 32> C 	 42.6319 	 -27.1928 	 -113.423
| 33> H 	 41.7343 	 -27.5177 	 -112.913
| 34> H 	 43.4063 	 -27.6573 	 -112.849
| 35> C 	 42.7483 	 -27.6377 	 -114.921
| 36> H 	 42.2681 	 -28.5909 	 -114.973
| 37> H 	 43.8069 	 -27.6928 	 -115.142
| 38> H 	 42.2877 	 -26.8897 	 -115.577
| 39> H 	 48.2088 	 -22.1722 	 -112.095
| 40> H 	 41.7185 	 -25.557 	 -108.388
| 41> *
| 42>
| 43>                          ****END OF INPUT****

CARTESIAN COORDINATES (ANGSTROEM)
---------------------------------
  S     45.947500  -22.596000  -110.981000
  C     47.387500  -22.916000  -111.982000
  C     47.250700  -24.077000  -112.763000
  C     46.039700  -24.764100  -112.458000
  C     45.196800  -24.123900  -111.574000
  H     45.856000  -25.702000  -112.915000
  C     48.232100  -24.492200  -113.906000
  H     47.565100  -24.572900  -114.778000
  H     48.585400  -25.521800  -113.729000
  C     49.458100  -23.563200  -114.280000
  H     48.992000  -22.577800  -114.360000
  H     50.082400  -23.437300  -113.416000
  C     50.175900  -23.904000  -115.585000
  H     50.482500  -24.929400  -115.628000
  H     49.689600  -23.635600  -116.529000
  H     51.133600  -23.466900  -115.633000
  S     43.678300  -24.403700  -109.354000
  C     42.226000  -25.336000  -109.333000
  C     41.892700  -25.751900  -110.608000
  C     42.851000  -25.327300  -111.597000
  C     43.937200  -24.637600  -111.040000
  H     40.872200  -26.127700  -110.757000
  C     42.648200  -25.646100  -113.145000
  H     43.405500  -25.142300  -113.780000
  H     41.692600  -25.287200  -113.469000
  C     42.631900  -27.192800  -113.423000
  H     41.734300  -27.517700  -112.913000
  H     43.406300  -27.657300  -112.849000
  C     42.748300  -27.637700  -114.921000
  H     42.268100  -28.590900  -114.973000
  H     43.806900  -27.692800  -115.142000
  H     42.287700  -26.889700  -115.577000
  H     48.208800  -22.172200  -112.095000
  H     41.718500  -25.557000  -108.388000

 Total Charge           Charge          ....    0
 Multiplicity           Mult            ....    1
 Number of Electrons    NEL             ....  134
 Basis Dimension        Dim             ....  322

ORBITAL ENERGIES
----------------

  NO   OCC          E(Eh)            E(eV)
   0   2.0000     -88.968216     -2420.9482
   1   2.0000     -88.962844     -2420.8021
   2   2.0000     -10.336658      -281.2748
   3   2.0000     -10.328105      -281.0420
   4   2.0000     -10.320556      -280.8366
   5   2.0000     -10.318309      -280.7755
   6   2.0000     -10.312110      -280.6068
   7   2.0000     -10.307859      -280.4911
   8   2.0000     -10.302549      -280.3466
   9   2.0000     -10.298213      -280.2286
  10   2.0000     -10.296690      -280.1872
  11   2.0000     -10.293671      -280.1050
  12   2.0000     -10.293484      -280.0999
  13   2.0000     -10.283032      -279.8155
  14   2.0000     -10.280520      -279.7472
  15   2.0000     -10.278502      -279.6923
  16   2.0000      -8.081474      -219.9081
  17   2.0000      -8.078884      -219.8376
  18   2.0000      -6.040212      -164.3625
  19   2.0000      -6.037243      -164.2817
  20   2.0000      -6.036270      -164.2553
  21   2.0000      -6.033080      -164.1685
  22   2.0000      -6.032002      -164.1391
  23   2.0000      -6.029833      -164.0801
  24   2.0000      -1.005599       -27.3637
  25   2.0000      -0.978152       -26.6169
  26   2.0000      -0.903164       -24.5763
  27   2.0000      -0.897988       -24.4355
  28   2.0000      -0.867938       -23.6178
  29   2.0000      -0.850773       -23.1507
  30   2.0000      -0.843329       -22.9481
  31   2.0000      -0.813545       -22.1377
  32   2.0000      -0.782656       -21.2971
  33   2.0000      -0.771320       -20.9887
  34   2.0000      -0.715959       -19.4822
  35   2.0000      -0.699924       -19.0459
  36   2.0000      -0.692393       -18.8410
  37   2.0000      -0.660362       -17.9694
  38   2.0000      -0.631990       -17.1973
  39   2.0000      -0.619325       -16.8527
  40   2.0000      -0.593665       -16.1545
  41   2.0000      -0.565623       -15.3914
  42   2.0000      -0.562620       -15.3097
  43   2.0000      -0.559705       -15.2303
  44   2.0000      -0.526303       -14.3214
  45   2.0000      -0.521251       -14.1840
  46   2.0000      -0.512432       -13.9440
  47   2.0000      -0.511119       -13.9083
  48   2.0000      -0.504202       -13.7200
  49   2.0000      -0.498671       -13.5695
  50   2.0000      -0.491331       -13.3698
  51   2.0000      -0.482456       -13.1283
  52   2.0000      -0.473953       -12.8969
  53   2.0000      -0.470783       -12.8107
  54   2.0000      -0.459596       -12.5062
  55   2.0000      -0.449834       -12.2406
  56   2.0000      -0.443996       -12.0817
  57   2.0000      -0.433910       -11.8073
  58   2.0000      -0.431229       -11.7343
  59   2.0000      -0.427259       -11.6263
  60   2.0000      -0.423464       -11.5231
  61   2.0000      -0.418245       -11.3810
  62   2.0000      -0.411800       -11.2057
  63   2.0000      -0.354308        -9.6412
  64   2.0000      -0.332260        -9.0413
  65   2.0000      -0.328253        -8.9322
  66   2.0000      -0.286614        -7.7992
  67   0.0000       0.027053         0.7361
  68   0.0000       0.073633         2.0037
  69   0.0000       0.103482         2.8159
  70   0.0000       0.121118         3.2958
  71   0.0000       0.127519         3.4700

MULLIKEN ATOMIC CHARGES
-----------------------
   0 S :    0.098330
   1 C :   -0.154803
   2 C :   -0.082087
   3 C :    0.030500
   4 C :   -0.112383
   5 H :   -0.003774
   6 C :    0.028687
   7 H :    0.036920
   8 H :    0.036662
   9 C :   -0.079578
  10 H :    0.027868
  11 H :    0.032782
  12 C :   -0.007912
  13 H :    0.018939
  14 H :    0.042144
  15 H :    0.015611
  16 S :    0.102730
  17 C :   -0.111367
  18 C :   -0.042488
  19 C :   -0.044935
  20 C :   -0.148349
  21 H :    0.038445
  22 C :    0.067707
  23 H :    0.028213
  24 H :    0.023026
  25 C :   -0.115841
  26 H :    0.020387
  27 H :    0.025506
  28 C :   -0.018936
  29 H :    0.039756
  30 H :    0.035910
  31 H :    0.035836
  32 H :    0.065599
  33 H :    0.070896
Sum of atomic charges:   -0.0000000

LOEWDIN ATOMIC CHARGES
----------------------
   0 S :    0.366960
   1 C :   -0.199658
   2 C :   -0.059562
   3 C :   -0.058269
   4 C :   -0.170792
   5 H :    0.026391
   6 C :   -0.032486
   7 H :    0.033980
   8 H :    0.029750
   9 C :   -0.041644
  10 H :    0.025669
  11 H :    0.022459
  12 C :   -0.064319
  13 H :    0.024802
  14 H :    0.031616
  15 H :    0.026254
  16 S :    0.428148
  17 C :   -0.192264
  18 C :   -0.081235
  19 C :   -0.052631
  20 C :   -0.208190
  21 H :    0.037993
  22 C :   -0.025825
  23 H :    0.026458
  24 H :    0.024428
  25 C :   -0.043078
  26 H :    0.017484
  27 H :    0.017846
  28 C :   -0.058067
  29 H :    0.027746
  30 H :    0.026727
  31 H :    0.026772
  32 H :    0.032866
  33 H :    0.033671

  Mayer bond orders larger than 0.100000
B(  0-S ,  1-C ) :   1.1195 B(  0-S ,  4-C ) :   1.1285 B(  1-C ,  2-C ) :   1.6290
B(  1-C , 32-H ) :   0.9546 B(  2-C ,  3-C ) :   1.2523 B(  2-C ,  6-C ) :   0.9974
B(  3-C ,  4-C ) :   1.5753 B(  3-C ,  5-H ) :   0.9993 B(  4-C , 20-C ) :   1.0512
B(  6-C ,  7-H ) :   0.9484 B(  6-C ,  8-H ) :   0.9391 B(  6-C ,  9-C ) :   1.0637
B(  9-C , 10-H ) :   0.9519 B(  9-C , 11-H ) :   0.9568 B(  9-C , 12-C ) :   1.0848
B( 12-C , 13-H ) :   0.9722 B( 12-C , 14-H ) :   0.9752 B( 12-C , 15-H ) :   0.9669
B( 16-S , 17-C ) :   1.1762 B( 16-S , 20-C ) :   1.1560 B( 17-C , 18-C ) :   1.5866
B( 17-C , 33-H ) :   0.9677 B( 18-C , 19-C ) :   1.2507 B( 18-C , 21-H ) :   0.9850
B( 19-C , 20-C ) :   1.5796 B( 19-C , 22-C ) :   1.0321 B( 22-C , 23-H ) :   0.9484
B( 22-C , 24-H ) :   0.9387 B( 22-C , 25-C ) :   1.0449 B( 25-C , 26-H ) :   0.9608
B( 25-C , 27-H ) :   0.9637 B( 25-C , 28-C ) :   1.0659 B( 28-C , 29-H ) :   0.9756
B( 28-C , 30-H ) :   0.9786 B( 28-C , 31-H ) :   0.9781

Dispersion correction           -0.013415220
FINAL SINGLE POINT ENERGY     -1339.879239644111

DIPOLE MOMENT
-------------
                                X             Y             Z
Electronic contribution:     -8.85299      12.32268      27.37007
Nuclear contribution   :      8.91718     -12.69906     -27.97205
                        -----------------------------------------
Total Dipole Moment    :      0.06419      -0.37638      -0.60198
                        -----------------------------------------
Magnitude (a.u.)       :      0.71285
Magnitude (Debye)      :      1.81193

Rotational constants in cm-1:     0.018010     0.007885     0.005681
Rotational constants in MHz :   539.912670   236.398089   170.317150

                             ****ORCA TERMINATED NORMALLY****
TOTAL RUN TIME: 0 days 0 hours 0 minutes 20 seconds 611 msec
