                         Program Version 4.2.1 -  RELEASE  -
|  1> ! wB97X-D3 SP def2-SVP
|  2> %pal
|  3> nprocs 24
|  4> end
|  5>
|  6> * xyz 0 1
|  7> S 	 -31.0056 	 15.3605 	 7.6366
|  8> C 	 -32.1402 	 14.4071 	 8.44258
|  9> C 	 -32.0974 	 14.5911 	 9.83149
| 10> C 	 -31.0907 	 15.481 	 10.2107
| 11> C 	 -30.2132 	 15.7544 	 9.18889
| 12> H 	 -30.8275 	 15.8082 	 11.2029
| 13> C 	 -33.0885 	 14.0355 	 10.7526
| 14> H 	 -33.9907 	 14.7237 	 10.814
| 15> H 	 -32.6277 	 13.9436 	 11.6491
| 16> C 	 -33.5828 	 12.6625 	 10.2649
| 17> H 	 -34.163 	 12.742 	 9.36293
| 18> H 	 -32.685 	 12.0617 	 10.0727
| 19> C 	 -34.3657 	 11.8831 	 11.3486
| 20> H 	 -33.9822 	 11.9893 	 12.3054
| 21> H 	 -35.341 	 12.3913 	 11.4334
| 22> H 	 -34.6751 	 10.8185 	 11.1868
| 23> S 	 -27.5154 	 15.95 	 8.58483
| 24> C 	 -26.6463 	 17.4067 	 9.13653
| 25> C 	 -27.4307 	 18.2407 	 9.91668
| 26> C 	 -28.8003 	 17.8122 	 9.92605
| 27> C 	 -29.0057 	 16.5859 	 9.27289
| 28> H 	 -27.1368 	 19.1567 	 10.2822
| 29> C 	 -29.8651 	 18.5138 	 10.7703
| 30> H 	 -30.8868 	 18.2457 	 10.3457
| 31> H 	 -29.6602 	 19.5529 	 10.5458
| 32> C 	 -29.872 	 18.255 	 12.2974
| 33> H 	 -28.9018 	 18.5857 	 12.7176
| 34> H 	 -29.8519 	 17.1847 	 12.5078
| 35> C 	 -31.0924 	 18.9027 	 13.0306
| 36> H 	 -30.9182 	 19.9323 	 13.3686
| 37> H 	 -31.3241 	 18.3059 	 13.8807
| 38> H 	 -31.9656 	 18.9352 	 12.5067
| 39> H 	 -33.1108 	 14.1585 	 8.06897
| 40> H 	 -25.7163 	 17.6445 	 8.86929
| 41> *
| 42>
| 43>                          ****END OF INPUT****

CARTESIAN COORDINATES (ANGSTROEM)
---------------------------------
  S    -31.005600   15.360500    7.636600
  C    -32.140200   14.407100    8.442580
  C    -32.097400   14.591100    9.831490
  C    -31.090700   15.481000   10.210700
  C    -30.213200   15.754400    9.188890
  H    -30.827500   15.808200   11.202900
  C    -33.088500   14.035500   10.752600
  H    -33.990700   14.723700   10.814000
  H    -32.627700   13.943600   11.649100
  C    -33.582800   12.662500   10.264900
  H    -34.163000   12.742000    9.362930
  H    -32.685000   12.061700   10.072700
  C    -34.365700   11.883100   11.348600
  H    -33.982200   11.989300   12.305400
  H    -35.341000   12.391300   11.433400
  H    -34.675100   10.818500   11.186800
  S    -27.515400   15.950000    8.584830
  C    -26.646300   17.406700    9.136530
  C    -27.430700   18.240700    9.916680
  C    -28.800300   17.812200    9.926050
  C    -29.005700   16.585900    9.272890
  H    -27.136800   19.156700   10.282200
  C    -29.865100   18.513800   10.770300
  H    -30.886800   18.245700   10.345700
  H    -29.660200   19.552900   10.545800
  C    -29.872000   18.255000   12.297400
  H    -28.901800   18.585700   12.717600
  H    -29.851900   17.184700   12.507800
  C    -31.092400   18.902700   13.030600
  H    -30.918200   19.932300   13.368600
  H    -31.324100   18.305900   13.880700
  H    -31.965600   18.935200   12.506700
  H    -33.110800   14.158500    8.068970
  H    -25.716300   17.644500    8.869290

 Total Charge           Charge          ....    0
 Multiplicity           Mult            ....    1
 Number of Electrons    NEL             ....  134
 Basis Dimension        Dim             ....  322

ORBITAL ENERGIES
----------------

  NO   OCC          E(Eh)            E(eV)
   0   2.0000     -88.966595     -2420.9041
   1   2.0000     -88.966430     -2420.8996
   2   2.0000     -10.328752      -281.0596
   3   2.0000     -10.327034      -281.0129
   4   2.0000     -10.313021      -280.6316
   5   2.0000     -10.304010      -280.3864
   6   2.0000     -10.303140      -280.3627
   7   2.0000     -10.295675      -280.1596
   8   2.0000     -10.295489      -280.1545
   9   2.0000     -10.293857      -280.1101
  10   2.0000     -10.291569      -280.0478
  11   2.0000     -10.290979      -280.0318
  12   2.0000     -10.287428      -279.9351
  13   2.0000     -10.286496      -279.9098
  14   2.0000     -10.275967      -279.6233
  15   2.0000     -10.273581      -279.5583
  16   2.0000      -8.081542      -219.9099
  17   2.0000      -8.080611      -219.8846
  18   2.0000      -6.039851      -164.3527
  19   2.0000      -6.039181      -164.3345
  20   2.0000      -6.036095      -164.2505
  21   2.0000      -6.035231      -164.2270
  22   2.0000      -6.032385      -164.1495
  23   2.0000      -6.031340      -164.1211
  24   2.0000      -1.008027       -27.4298
  25   2.0000      -0.983325       -26.7576
  26   2.0000      -0.918421       -24.9915
  27   2.0000      -0.903050       -24.5732
  28   2.0000      -0.868881       -23.6434
  29   2.0000      -0.856141       -23.2968
  30   2.0000      -0.849480       -23.1155
  31   2.0000      -0.818608       -22.2754
  32   2.0000      -0.783472       -21.3193
  33   2.0000      -0.768361       -20.9082
  34   2.0000      -0.717540       -19.5253
  35   2.0000      -0.707563       -19.2538
  36   2.0000      -0.695199       -18.9173
  37   2.0000      -0.670850       -18.2548
  38   2.0000      -0.642245       -17.4764
  39   2.0000      -0.614134       -16.7114
  40   2.0000      -0.593804       -16.1582
  41   2.0000      -0.581610       -15.8264
  42   2.0000      -0.568126       -15.4595
  43   2.0000      -0.560864       -15.2619
  44   2.0000      -0.526072       -14.3151
  45   2.0000      -0.523083       -14.2338
  46   2.0000      -0.520512       -14.1639
  47   2.0000      -0.515273       -14.0213
  48   2.0000      -0.506676       -13.7874
  49   2.0000      -0.497840       -13.5469
  50   2.0000      -0.490139       -13.3374
  51   2.0000      -0.482335       -13.1250
  52   2.0000      -0.475746       -12.9457
  53   2.0000      -0.466470       -12.6933
  54   2.0000      -0.456009       -12.4086
  55   2.0000      -0.451247       -12.2791
  56   2.0000      -0.447502       -12.1771
  57   2.0000      -0.440608       -11.9896
  58   2.0000      -0.436050       -11.8655
  59   2.0000      -0.430715       -11.7203
  60   2.0000      -0.424927       -11.5629
  61   2.0000      -0.415205       -11.2983
  62   2.0000      -0.413264       -11.2455
  63   2.0000      -0.347848        -9.4654
  64   2.0000      -0.331665        -9.0251
  65   2.0000      -0.326601        -8.8873
  66   2.0000      -0.288613        -7.8536
  67   0.0000       0.025818         0.7025
  68   0.0000       0.061942         1.6855
  69   0.0000       0.107623         2.9286
  70   0.0000       0.113801         3.0967
  71   0.0000       0.128323         3.4918

MULLIKEN ATOMIC CHARGES
-----------------------
   0 S :    0.126316
   1 C :   -0.071212
   2 C :   -0.158885
   3 C :    0.039364
   4 C :   -0.139782
   5 H :   -0.011520
   6 C :    0.125772
   7 H :    0.049695
   8 H :   -0.008261
   9 C :   -0.115005
  10 H :    0.031173
  11 H :    0.041014
  12 C :   -0.022596
  13 H :    0.011650
  14 H :    0.011086
  15 H :    0.045233
  16 S :    0.108445
  17 C :   -0.034742
  18 C :    0.007956
  19 C :   -0.047870
  20 C :   -0.174459
  21 H :   -0.009706
  22 C :    0.028923
  23 H :    0.043072
  24 H :    0.024493
  25 C :   -0.072036
  26 H :    0.025270
  27 H :    0.028962
  28 C :    0.003874
  29 H :    0.035627
  30 H :    0.021216
  31 H :    0.005993
  32 H :    0.045450
  33 H :    0.005494
Sum of atomic charges:    0.0000000

LOEWDIN ATOMIC CHARGES
----------------------
   0 S :    0.426882
   1 C :   -0.225138
   2 C :   -0.065954
   3 C :   -0.054684
   4 C :   -0.183154
   5 H :    0.028332
   6 C :   -0.024812
   7 H :    0.043504
   8 H :    0.015105
   9 C :   -0.035172
  10 H :    0.019952
  11 H :    0.028036
  12 C :   -0.070730
  13 H :    0.013103
  14 H :    0.024988
  15 H :    0.033444
  16 S :    0.393094
  17 C :   -0.147350
  18 C :   -0.054277
  19 C :   -0.056023
  20 C :   -0.201021
  21 H :    0.018563
  22 C :   -0.038900
  23 H :    0.036295
  24 H :    0.028191
  25 C :   -0.037537
  26 H :    0.027085
  27 H :    0.019783
  28 C :   -0.056260
  29 H :    0.030498
  30 H :    0.026088
  31 H :    0.012363
  32 H :    0.025800
  33 H :   -0.000094

  Mayer bond orders larger than 0.100000
B(  0-S ,  1-C ) :   1.1576 B(  0-S ,  4-C ) :   1.1661 B(  1-C ,  2-C ) :   1.5627
B(  1-C ,  4-C ) :   0.1027 B(  1-C , 32-H ) :   0.9586 B(  2-C ,  3-C ) :   1.2893
B(  2-C ,  6-C ) :   1.0386 B(  3-C ,  4-C ) :   1.5338 B(  3-C ,  5-H ) :   1.0001
B(  4-C , 20-C ) :   1.0359 B(  6-C ,  7-H ) :   0.9175 B(  6-C ,  8-H ) :   0.9296
B(  6-C ,  9-C ) :   1.0813 B(  9-C , 10-H ) :   0.9499 B(  9-C , 11-H ) :   0.9624
B(  9-C , 12-C ) :   1.0784 B( 12-C , 13-H ) :   0.9748 B( 12-C , 14-H ) :   0.9690
B( 12-C , 15-H ) :   0.9758 B( 16-S , 17-C ) :   1.1478 B( 16-S , 20-C ) :   1.1380
B( 17-C , 18-C ) :   1.6026 B( 17-C , 33-H ) :   0.9831 B( 18-C , 19-C ) :   1.2432
B( 18-C , 21-H ) :   0.9951 B( 19-C , 20-C ) :   1.5912 B( 19-C , 22-C ) :   1.0470
B( 22-C , 23-H ) :   0.9341 B( 22-C , 24-H ) :   0.9303 B( 22-C , 25-C ) :   1.0595
B( 25-C , 26-H ) :   0.9493 B( 25-C , 27-H ) :   0.9594 B( 25-C , 28-C ) :   1.0661
B( 28-C , 29-H ) :   0.9768 B( 28-C , 30-H ) :   0.9752 B( 28-C , 31-H ) :   0.9759

Dispersion correction           -0.014225597
FINAL SINGLE POINT ENERGY     -1339.848459118766

DIPOLE MOMENT
-------------
                                X             Y             Z
Electronic contribution:     19.48625       0.87303     -22.44923
Nuclear contribution   :    -19.89713      -0.50748      23.09095
                        -----------------------------------------
Total Dipole Moment    :     -0.41087       0.36555       0.64172
                        -----------------------------------------
Magnitude (a.u.)       :      0.84513
Magnitude (Debye)      :      2.14816

Rotational constants in cm-1:     0.018805     0.008334     0.006383
Rotational constants in MHz :   563.764104   249.833739   191.351908

                             ****ORCA TERMINATED NORMALLY****
TOTAL RUN TIME: 0 days 0 hours 0 minutes 21 seconds 627 msec
