                         Program Version 4.2.1 -  RELEASE  -
|  1> ! wB97X-D3 SP def2-SVP
|  2> %pal
|  3> nprocs 24
|  4> end
|  5>
|  6> * xyz 0 1
|  7> S 	 -50.2658 	 21.7378 	 -99.5512
|  8> C 	 -50.6577 	 20.3353 	 -98.5446
|  9> C 	 -51.3251 	 19.3511 	 -99.2992
| 10> C 	 -51.5639 	 19.7922 	 -100.655
| 11> C 	 -50.9775 	 20.9724 	 -100.966
| 12> H 	 -52.0155 	 19.2834 	 -101.443
| 13> C 	 -51.8285 	 18.0992 	 -98.7349
| 14> H 	 -51.5354 	 18.1579 	 -97.6517
| 15> H 	 -51.3765 	 17.2304 	 -99.2273
| 16> C 	 -53.3774 	 17.8501 	 -98.6775
| 17> H 	 -53.7455 	 17.9276 	 -99.7069
| 18> H 	 -53.6024 	 16.9272 	 -98.2247
| 19> C 	 -54.0583 	 18.9579 	 -97.8763
| 20> H 	 -53.5138 	 19.2696 	 -96.9538
| 21> H 	 -54.178 	 19.8603 	 -98.5195
| 22> H 	 -55.0266 	 18.5996 	 -97.4972
| 23> S 	 -51.3222 	 23.3467 	 -102.293
| 24> C 	 -51.5748 	 23.3249 	 -103.962
| 25> C 	 -51.4018 	 22.086 	 -104.546
| 26> C 	 -51.1218 	 21.0744 	 -103.561
| 27> C 	 -51.0752 	 21.5951 	 -102.257
| 28> H 	 -51.5626 	 22.0074 	 -105.564
| 29> C 	 -50.8828 	 19.6542 	 -103.916
| 30> H 	 -50.6956 	 19.1767 	 -102.982
| 31> H 	 -49.8453 	 19.5179 	 -104.382
| 32> C 	 -51.9493 	 18.7983 	 -104.618
| 33> H 	 -51.6967 	 17.733 	 -104.529
| 34> H 	 -51.8815 	 19.098 	 -105.692
| 35> C 	 -53.3459 	 19.0707 	 -104.012
| 36> H 	 -53.7466 	 20.081 	 -104.11
| 37> H 	 -53.432 	 18.8115 	 -102.936
| 38> H 	 -54.065 	 18.3511 	 -104.462
| 39> H 	 -50.4778 	 20.2827 	 -97.5031
| 40> H 	 -51.7959 	 24.1704 	 -104.627
| 41> *
| 42>
| 43>                          ****END OF INPUT****

CARTESIAN COORDINATES (ANGSTROEM)
---------------------------------
  S    -50.265800   21.737800  -99.551200
  C    -50.657700   20.335300  -98.544600
  C    -51.325100   19.351100  -99.299200
  C    -51.563900   19.792200  -100.655000
  C    -50.977500   20.972400  -100.966000
  H    -52.015500   19.283400  -101.443000
  C    -51.828500   18.099200  -98.734900
  H    -51.535400   18.157900  -97.651700
  H    -51.376500   17.230400  -99.227300
  C    -53.377400   17.850100  -98.677500
  H    -53.745500   17.927600  -99.706900
  H    -53.602400   16.927200  -98.224700
  C    -54.058300   18.957900  -97.876300
  H    -53.513800   19.269600  -96.953800
  H    -54.178000   19.860300  -98.519500
  H    -55.026600   18.599600  -97.497200
  S    -51.322200   23.346700  -102.293000
  C    -51.574800   23.324900  -103.962000
  C    -51.401800   22.086000  -104.546000
  C    -51.121800   21.074400  -103.561000
  C    -51.075200   21.595100  -102.257000
  H    -51.562600   22.007400  -105.564000
  C    -50.882800   19.654200  -103.916000
  H    -50.695600   19.176700  -102.982000
  H    -49.845300   19.517900  -104.382000
  C    -51.949300   18.798300  -104.618000
  H    -51.696700   17.733000  -104.529000
  H    -51.881500   19.098000  -105.692000
  C    -53.345900   19.070700  -104.012000
  H    -53.746600   20.081000  -104.110000
  H    -53.432000   18.811500  -102.936000
  H    -54.065000   18.351100  -104.462000
  H    -50.477800   20.282700  -97.503100
  H    -51.795900   24.170400  -104.627000

 Total Charge           Charge          ....    0
 Multiplicity           Mult            ....    1
 Number of Electrons    NEL             ....  134
 Basis Dimension        Dim             ....  322

ORBITAL ENERGIES
----------------

  NO   OCC          E(Eh)            E(eV)
   0   2.0000     -88.967656     -2420.9330
   1   2.0000     -88.966495     -2420.9014
   2   2.0000     -10.328098      -281.0418
   3   2.0000     -10.327032      -281.0128
   4   2.0000     -10.316160      -280.7170
   5   2.0000     -10.314244      -280.6648
   6   2.0000     -10.307146      -280.4717
   7   2.0000     -10.303940      -280.3845
   8   2.0000     -10.296724      -280.1881
   9   2.0000     -10.292087      -280.0619
  10   2.0000     -10.287892      -279.9478
  11   2.0000     -10.287579      -279.9393
  12   2.0000     -10.285826      -279.8916
  13   2.0000     -10.285789      -279.8905
  14   2.0000     -10.284332      -279.8509
  15   2.0000     -10.277937      -279.6769
  16   2.0000      -8.083218      -219.9555
  17   2.0000      -8.080795      -219.8896
  18   2.0000      -6.041636      -164.4013
  19   2.0000      -6.039419      -164.3410
  20   2.0000      -6.037611      -164.2918
  21   2.0000      -6.035467      -164.2334
  22   2.0000      -6.034033      -164.1944
  23   2.0000      -6.031367      -164.1218
  24   2.0000      -1.009907       -27.4810
  25   2.0000      -0.984528       -26.7904
  26   2.0000      -0.913622       -24.8609
  27   2.0000      -0.912774       -24.8378
  28   2.0000      -0.872513       -23.7423
  29   2.0000      -0.852287       -23.1919
  30   2.0000      -0.844586       -22.9824
  31   2.0000      -0.818601       -22.2753
  32   2.0000      -0.783645       -21.3241
  33   2.0000      -0.769192       -20.9308
  34   2.0000      -0.715610       -19.4727
  35   2.0000      -0.696962       -18.9653
  36   2.0000      -0.696393       -18.9498
  37   2.0000      -0.658528       -17.9195
  38   2.0000      -0.642975       -17.4962
  39   2.0000      -0.625420       -17.0185
  40   2.0000      -0.593237       -16.1428
  41   2.0000      -0.570085       -15.5128
  42   2.0000      -0.553660       -15.0659
  43   2.0000      -0.552229       -15.0269
  44   2.0000      -0.548853       -14.9350
  45   2.0000      -0.544772       -14.8240
  46   2.0000      -0.519807       -14.1447
  47   2.0000      -0.508889       -13.8476
  48   2.0000      -0.503937       -13.7128
  49   2.0000      -0.497523       -13.5383
  50   2.0000      -0.494616       -13.4592
  51   2.0000      -0.477889       -13.0040
  52   2.0000      -0.467603       -12.7241
  53   2.0000      -0.461752       -12.5649
  54   2.0000      -0.458615       -12.4796
  55   2.0000      -0.453649       -12.3444
  56   2.0000      -0.448924       -12.2159
  57   2.0000      -0.434752       -11.8302
  58   2.0000      -0.432610       -11.7719
  59   2.0000      -0.428935       -11.6719
  60   2.0000      -0.424105       -11.5405
  61   2.0000      -0.412483       -11.2242
  62   2.0000      -0.405124       -11.0240
  63   2.0000      -0.356997        -9.7144
  64   2.0000      -0.333234        -9.0678
  65   2.0000      -0.327046        -8.8994
  66   2.0000      -0.285394        -7.7660
  67   0.0000       0.025394         0.6910
  68   0.0000       0.077241         2.1018
  69   0.0000       0.106844         2.9074
  70   0.0000       0.114873         3.1258
  71   0.0000       0.130993         3.5645

MULLIKEN ATOMIC CHARGES
-----------------------
   0 S :    0.100706
   1 C :   -0.107613
   2 C :   -0.076081
   3 C :    0.058289
   4 C :   -0.124267
   5 H :   -0.055754
   6 C :    0.039242
   7 H :    0.017106
   8 H :    0.041677
   9 C :   -0.046073
  10 H :    0.033875
  11 H :    0.027390
  12 C :   -0.084496
  13 H :    0.025709
  14 H :    0.052062
  15 H :    0.032347
  16 S :    0.118476
  17 C :   -0.089474
  18 C :   -0.017613
  19 C :   -0.042385
  20 C :   -0.141167
  21 H :   -0.009925
  22 C :    0.028954
  23 H :   -0.000294
  24 H :    0.047970
  25 C :   -0.048865
  26 H :    0.041538
  27 H :    0.039233
  28 C :   -0.086940
  29 H :    0.054975
  30 H :    0.038412
  31 H :    0.034278
  32 H :    0.038609
  33 H :    0.060100
Sum of atomic charges:   -0.0000000

LOEWDIN ATOMIC CHARGES
----------------------
   0 S :    0.385540
   1 C :   -0.184816
   2 C :   -0.057701
   3 C :   -0.059947
   4 C :   -0.182287
   5 H :    0.014080
   6 C :   -0.037966
   7 H :    0.032539
   8 H :    0.032902
   9 C :   -0.033373
  10 H :    0.024518
  11 H :    0.018830
  12 C :   -0.072199
  13 H :    0.023469
  14 H :    0.033015
  15 H :    0.025210
  16 S :    0.424736
  17 C :   -0.202156
  18 C :   -0.067583
  19 C :   -0.050378
  20 C :   -0.190303
  21 H :    0.019884
  22 C :   -0.051531
  23 H :    0.022389
  24 H :    0.043855
  25 C :   -0.038043
  26 H :    0.031496
  27 H :    0.027053
  28 C :   -0.074715
  29 H :    0.030392
  30 H :    0.026076
  31 H :    0.030165
  32 H :    0.020798
  33 H :    0.036053

  Mayer bond orders larger than 0.100000
B(  0-S ,  1-C ) :   1.1225 B(  0-S ,  4-C ) :   1.1294 B(  1-C ,  2-C ) :   1.6054
B(  1-C , 32-H ) :   0.9708 B(  2-C ,  3-C ) :   1.2001 B(  2-C ,  6-C ) :   1.0506
B(  3-C ,  4-C ) :   1.5936 B(  3-C ,  5-H ) :   0.9929 B(  4-C , 20-C ) :   1.0720
B(  6-C ,  7-H ) :   0.9405 B(  6-C ,  8-H ) :   0.9321 B(  6-C ,  9-C ) :   1.0713
B(  9-C , 10-H ) :   0.9559 B(  9-C , 11-H ) :   0.9598 B(  9-C , 12-C ) :   1.0712
B( 12-C , 13-H ) :   0.9770 B( 12-C , 14-H ) :   0.9742 B( 12-C , 15-H ) :   0.9756
B( 16-S , 17-C ) :   1.1730 B( 16-S , 20-C ) :   1.1329 B( 17-C , 18-C ) :   1.6125
B( 17-C , 33-H ) :   0.9599 B( 18-C , 19-C ) :   1.2231 B( 18-C , 21-H ) :   1.0069
B( 19-C , 20-C ) :   1.5742 B( 19-C , 22-C ) :   1.0577 B( 22-C , 23-H ) :   0.9232
B( 22-C , 24-H ) :   0.9260 B( 22-C , 25-C ) :   1.0643 B( 25-C , 26-H ) :   0.9567
B( 25-C , 27-H ) :   0.9534 B( 25-C , 28-C ) :   1.0775 B( 28-C , 29-H ) :   0.9698
B( 28-C , 30-H ) :   0.9683 B( 28-C , 31-H ) :   0.9698

Dispersion correction           -0.015521988
FINAL SINGLE POINT ENERGY     -1339.881993927787

DIPOLE MOMENT
-------------
                                X             Y             Z
Electronic contribution:     14.37054      23.07743       0.89155
Nuclear contribution   :    -14.70647     -23.64184      -1.15814
                        -----------------------------------------
Total Dipole Moment    :     -0.33593      -0.56441      -0.26659
                        -----------------------------------------
Magnitude (a.u.)       :      0.70885
Magnitude (Debye)      :      1.80176

Rotational constants in cm-1:     0.018803     0.009858     0.007469
Rotational constants in MHz :   563.695832   295.526482   223.907978

                             ****ORCA TERMINATED NORMALLY****
TOTAL RUN TIME: 0 days 0 hours 0 minutes 21 seconds 692 msec
