                         Program Version 4.2.1 -  RELEASE  -
|  1> ! wB97X-D3 SP def2-SVP
|  2> %pal
|  3> nprocs 24
|  4> end
|  5>
|  6> * xyz 0 1
|  7> S 	 -55.8482 	 -0.890175 	 -30.5985
|  8> C 	 -56.5346 	 0.749767 	 -30.6706
|  9> C 	 -57.4599 	 0.996841 	 -29.6422
| 10> C 	 -57.6541 	 -0.0872146 	 -28.7616
| 11> C 	 -56.8342 	 -1.13579 	 -29.1142
| 12> H 	 -58.2815 	 -0.192171 	 -27.8919
| 13> C 	 -57.9943 	 2.37129 	 -29.2892
| 14> H 	 -57.151 	 3.05118 	 -29.0301
| 15> H 	 -58.5715 	 2.27744 	 -28.3991
| 16> C 	 -59.0142 	 2.9077 	 -30.3463
| 17> H 	 -59.6336 	 2.10371 	 -30.7267
| 18> H 	 -59.7081 	 3.59883 	 -29.918
| 19> C 	 -58.2462 	 3.71207 	 -31.4473
| 20> H 	 -58.9889 	 4.14186 	 -32.1952
| 21> H 	 -57.7737 	 4.62866 	 -31.0818
| 22> H 	 -57.4235 	 3.19297 	 -31.9798
| 23> S 	 -58.2739 	 -3.37948 	 -28.6473
| 24> C 	 -57.4907 	 -4.57232 	 -27.6735
| 25> C 	 -56.3172 	 -4.18225 	 -26.9932
| 26> C 	 -55.9945 	 -2.87278 	 -27.4083
| 27> C 	 -56.8255 	 -2.41405 	 -28.4321
| 28> H 	 -55.8495 	 -4.80368 	 -26.1979
| 29> C 	 -54.7914 	 -2.1593 	 -26.7512
| 30> H 	 -54.1477 	 -1.78874 	 -27.5564
| 31> H 	 -53.992 	 -2.82586 	 -26.3947
| 32> C 	 -55.2651 	 -1.03066 	 -25.817
| 33> H 	 -55.5589 	 -1.37499 	 -24.7425
| 34> H 	 -56.2477 	 -0.600851 	 -26.1475
| 35> C 	 -54.2256 	 0.0637697 	 -25.6308
| 36> H 	 -54.1253 	 0.736598 	 -26.4763
| 37> H 	 -53.129 	 -0.312338 	 -25.5128
| 38> H 	 -54.5132 	 0.755068 	 -24.819
| 39> H 	 -56.1585 	 1.42333 	 -31.4206
| 40> H 	 -57.8405 	 -5.57217 	 -27.4595
| 41> *
| 42>
| 43>                          ****END OF INPUT****

CARTESIAN COORDINATES (ANGSTROEM)
---------------------------------
  S    -55.848200   -0.890175  -30.598500
  C    -56.534600    0.749767  -30.670600
  C    -57.459900    0.996841  -29.642200
  C    -57.654100   -0.087215  -28.761600
  C    -56.834200   -1.135790  -29.114200
  H    -58.281500   -0.192171  -27.891900
  C    -57.994300    2.371290  -29.289200
  H    -57.151000    3.051180  -29.030100
  H    -58.571500    2.277440  -28.399100
  C    -59.014200    2.907700  -30.346300
  H    -59.633600    2.103710  -30.726700
  H    -59.708100    3.598830  -29.918000
  C    -58.246200    3.712070  -31.447300
  H    -58.988900    4.141860  -32.195200
  H    -57.773700    4.628660  -31.081800
  H    -57.423500    3.192970  -31.979800
  S    -58.273900   -3.379480  -28.647300
  C    -57.490700   -4.572320  -27.673500
  C    -56.317200   -4.182250  -26.993200
  C    -55.994500   -2.872780  -27.408300
  C    -56.825500   -2.414050  -28.432100
  H    -55.849500   -4.803680  -26.197900
  C    -54.791400   -2.159300  -26.751200
  H    -54.147700   -1.788740  -27.556400
  H    -53.992000   -2.825860  -26.394700
  C    -55.265100   -1.030660  -25.817000
  H    -55.558900   -1.374990  -24.742500
  H    -56.247700   -0.600851  -26.147500
  C    -54.225600    0.063770  -25.630800
  H    -54.125300    0.736598  -26.476300
  H    -53.129000   -0.312338  -25.512800
  H    -54.513200    0.755068  -24.819000
  H    -56.158500    1.423330  -31.420600
  H    -57.840500   -5.572170  -27.459500

 Total Charge           Charge          ....    0
 Multiplicity           Mult            ....    1
 Number of Electrons    NEL             ....  134
 Basis Dimension        Dim             ....  322

ORBITAL ENERGIES
----------------

  NO   OCC          E(Eh)            E(eV)
   0   2.0000     -88.971624     -2421.0410
   1   2.0000     -88.966947     -2420.9137
   2   2.0000     -10.325678      -280.9760
   3   2.0000     -10.318091      -280.7695
   4   2.0000     -10.315285      -280.6932
   5   2.0000     -10.313917      -280.6559
   6   2.0000     -10.303497      -280.3724
   7   2.0000     -10.301740      -280.3246
   8   2.0000     -10.296346      -280.1778
   9   2.0000     -10.294302      -280.1222
  10   2.0000     -10.294223      -280.1200
  11   2.0000     -10.292788      -280.0810
  12   2.0000     -10.290797      -280.0268
  13   2.0000     -10.288515      -279.9647
  14   2.0000     -10.284728      -279.8617
  15   2.0000     -10.281787      -279.7816
  16   2.0000      -8.086321      -220.0400
  17   2.0000      -8.080455      -219.8803
  18   2.0000      -6.044556      -164.4807
  19   2.0000      -6.041149      -164.3880
  20   2.0000      -6.038825      -164.3248
  21   2.0000      -6.037066      -164.2769
  22   2.0000      -6.035290      -164.2286
  23   2.0000      -6.031295      -164.1199
  24   2.0000      -1.003653       -27.3108
  25   2.0000      -0.978248       -26.6195
  26   2.0000      -0.904053       -24.6005
  27   2.0000      -0.902474       -24.5576
  28   2.0000      -0.862660       -23.4742
  29   2.0000      -0.849260       -23.1095
  30   2.0000      -0.848204       -23.0808
  31   2.0000      -0.803997       -21.8779
  32   2.0000      -0.780447       -21.2370
  33   2.0000      -0.764822       -20.8119
  34   2.0000      -0.703386       -19.1401
  35   2.0000      -0.699123       -19.0241
  36   2.0000      -0.689152       -18.7528
  37   2.0000      -0.658976       -17.9316
  38   2.0000      -0.646480       -17.5916
  39   2.0000      -0.612002       -16.6534
  40   2.0000      -0.595198       -16.1962
  41   2.0000      -0.566080       -15.4038
  42   2.0000      -0.545224       -14.8363
  43   2.0000      -0.536940       -14.6109
  44   2.0000      -0.532087       -14.4788
  45   2.0000      -0.524066       -14.2606
  46   2.0000      -0.516365       -14.0510
  47   2.0000      -0.510624       -13.8948
  48   2.0000      -0.499685       -13.5971
  49   2.0000      -0.493749       -13.4356
  50   2.0000      -0.481470       -13.1015
  51   2.0000      -0.475021       -12.9260
  52   2.0000      -0.467100       -12.7104
  53   2.0000      -0.466060       -12.6821
  54   2.0000      -0.460209       -12.5229
  55   2.0000      -0.453760       -12.3475
  56   2.0000      -0.445552       -12.1241
  57   2.0000      -0.439859       -11.9692
  58   2.0000      -0.437814       -11.9135
  59   2.0000      -0.418248       -11.3811
  60   2.0000      -0.415499       -11.3063
  61   2.0000      -0.408204       -11.1078
  62   2.0000      -0.398337       -10.8393
  63   2.0000      -0.340248        -9.2586
  64   2.0000      -0.333973        -9.0879
  65   2.0000      -0.316727        -8.6186
  66   2.0000      -0.296152        -8.0587
  67   0.0000       0.038820         1.0563
  68   0.0000       0.049104         1.3362
  69   0.0000       0.102226         2.7817
  70   0.0000       0.106444         2.8965
  71   0.0000       0.130660         3.5554

MULLIKEN ATOMIC CHARGES
-----------------------
   0 S :    0.107993
   1 C :   -0.136829
   2 C :   -0.051677
   3 C :    0.031272
   4 C :   -0.174631
   5 H :    0.023023
   6 C :    0.051299
   7 H :    0.051440
   8 H :    0.005625
   9 C :   -0.035924
  10 H :    0.037268
  11 H :    0.021811
  12 C :   -0.088555
  13 H :    0.037754
  14 H :    0.025823
  15 H :    0.032125
  16 S :    0.144338
  17 C :   -0.082945
  18 C :   -0.056457
  19 C :   -0.016322
  20 C :   -0.208342
  21 H :    0.038954
  22 C :    0.081413
  23 H :    0.019904
  24 H :    0.021421
  25 C :   -0.075309
  26 H :    0.037598
  27 H :    0.036656
  28 C :   -0.078108
  29 H :    0.030599
  30 H :    0.040745
  31 H :    0.034254
  32 H :    0.051320
  33 H :    0.042465
Sum of atomic charges:   -0.0000000

LOEWDIN ATOMIC CHARGES
----------------------
   0 S :    0.377893
   1 C :   -0.188426
   2 C :   -0.059272
   3 C :   -0.061764
   4 C :   -0.177918
   5 H :    0.034846
   6 C :   -0.029289
   7 H :    0.038710
   8 H :    0.022882
   9 C :   -0.031731
  10 H :    0.027542
  11 H :    0.020394
  12 C :   -0.077169
  13 H :    0.030637
  14 H :    0.022897
  15 H :    0.021984
  16 S :    0.428869
  17 C :   -0.191208
  18 C :   -0.075349
  19 C :   -0.045837
  20 C :   -0.216380
  21 H :    0.042096
  22 C :   -0.039803
  23 H :    0.033955
  24 H :    0.034175
  25 C :   -0.048876
  26 H :    0.031756
  27 H :    0.030354
  28 C :   -0.079972
  29 H :    0.021821
  30 H :    0.033691
  31 H :    0.027566
  32 H :    0.019153
  33 H :    0.021773

  Mayer bond orders larger than 0.100000
B(  0-S ,  1-C ) :   1.1303 B(  0-S ,  4-C ) :   1.1487 B(  1-C ,  2-C ) :   1.6013
B(  1-C ,  4-C ) :   0.1038 B(  1-C , 32-H ) :   0.9703 B(  2-C ,  3-C ) :   1.2252
B(  2-C ,  6-C ) :   1.0224 B(  3-C ,  4-C ) :   1.5970 B(  3-C ,  5-H ) :   0.9912
B(  4-C , 20-C ) :   1.0275 B(  6-C ,  7-H ) :   0.9490 B(  6-C ,  8-H ) :   0.9396
B(  6-C ,  9-C ) :   1.0569 B(  9-C , 10-H ) :   0.9593 B(  9-C , 11-H ) :   0.9582
B(  9-C , 12-C ) :   1.0692 B( 12-C , 13-H ) :   0.9737 B( 12-C , 14-H ) :   0.9757
B( 12-C , 15-H ) :   0.9771 B( 16-S , 17-C ) :   1.1719 B( 16-S , 20-C ) :   1.1437
B( 17-C , 18-C ) :   1.5995 B( 17-C , 20-C ) :   0.1035 B( 17-C , 33-H ) :   0.9631
B( 18-C , 19-C ) :   1.2638 B( 18-C , 21-H ) :   0.9846 B( 19-C , 20-C ) :   1.5852
B( 19-C , 22-C ) :   1.0327 B( 22-C , 23-H ) :   0.9385 B( 22-C , 24-H ) :   0.9360
B( 22-C , 25-C ) :   1.0284 B( 25-C , 26-H ) :   0.9553 B( 25-C , 27-H ) :   0.9590
B( 25-C , 28-C ) :   1.0767 B( 28-C , 29-H ) :   0.9746 B( 28-C , 30-H ) :   0.9734
B( 28-C , 31-H ) :   0.9726

Dispersion correction           -0.014991909
FINAL SINGLE POINT ENERGY     -1339.854320420964

DIPOLE MOMENT
-------------
                                X             Y             Z
Electronic contribution:     -3.58384     -22.48916      -8.02785
Nuclear contribution   :      3.57161      22.84581       8.47429
                        -----------------------------------------
Total Dipole Moment    :     -0.01222       0.35665       0.44643
                        -----------------------------------------
Magnitude (a.u.)       :      0.57153
Magnitude (Debye)      :      1.45272

Rotational constants in cm-1:     0.020250     0.008345     0.007067
Rotational constants in MHz :   607.078693   250.175165   211.875740

                             ****ORCA TERMINATED NORMALLY****
TOTAL RUN TIME: 0 days 0 hours 0 minutes 22 seconds 545 msec
