                         Program Version 4.2.1 -  RELEASE  -
|  1> ! wB97X-D3 SP def2-SVP
|  2> %pal
|  3> nprocs 24
|  4> end
|  5>
|  6> * xyz 0 1
|  7> S 	 44.1472 	 -15.8599 	 -103.141
|  8> C 	 42.6309 	 -16.3048 	 -103.876
|  9> C 	 42.6984 	 -16.3469 	 -105.226
| 10> C 	 43.9369 	 -15.8851 	 -105.727
| 11> C 	 44.7952 	 -15.5589 	 -104.684
| 12> H 	 44.2473 	 -15.7571 	 -106.734
| 13> C 	 41.8178 	 -17.0773 	 -106.173
| 14> H 	 41.8488 	 -16.6284 	 -107.108
| 15> H 	 40.8037 	 -17.0455 	 -105.838
| 16> C 	 42.2174 	 -18.568 	 -106.417
| 17> H 	 43.2289 	 -18.6256 	 -106.847
| 18> H 	 42.3495 	 -19.0678 	 -105.457
| 19> C 	 41.12 	 -19.3116 	 -107.252
| 20> H 	 41.3794 	 -20.3512 	 -107.481
| 21> H 	 40.1537 	 -19.3173 	 -106.676
| 22> H 	 41.0981 	 -18.8262 	 -108.207
| 23> S 	 46.639 	 -13.4817 	 -104.706
| 24> C 	 48.3358 	 -13.9475 	 -104.851
| 25> C 	 48.5266 	 -15.2803 	 -105.125
| 26> C 	 47.3114 	 -16.0182 	 -105.084
| 27> C 	 46.2137 	 -15.1832 	 -104.815
| 28> H 	 49.4907 	 -15.7298 	 -105.336
| 29> C 	 47.2209 	 -17.4677 	 -105.477
| 30> H 	 47.4548 	 -17.641 	 -106.523
| 31> H 	 46.1929 	 -17.7536 	 -105.38
| 32> C 	 48.145 	 -18.4257 	 -104.709
| 33> H 	 49.1293 	 -18.0259 	 -104.842
| 34> H 	 48.1761 	 -19.3761 	 -105.16
| 35> C 	 47.969 	 -18.6344 	 -103.234
| 36> H 	 47.163 	 -19.2388 	 -102.974
| 37> H 	 47.8817 	 -17.698 	 -102.64
| 38> H 	 48.7495 	 -19.1927 	 -102.71
| 39> H 	 41.8964 	 -16.8712 	 -103.328
| 40> H 	 49.0315 	 -13.1891 	 -104.656
| 41> *
| 42>
| 43>                          ****END OF INPUT****

CARTESIAN COORDINATES (ANGSTROEM)
---------------------------------
  S     44.147200  -15.859900  -103.141000
  C     42.630900  -16.304800  -103.876000
  C     42.698400  -16.346900  -105.226000
  C     43.936900  -15.885100  -105.727000
  C     44.795200  -15.558900  -104.684000
  H     44.247300  -15.757100  -106.734000
  C     41.817800  -17.077300  -106.173000
  H     41.848800  -16.628400  -107.108000
  H     40.803700  -17.045500  -105.838000
  C     42.217400  -18.568000  -106.417000
  H     43.228900  -18.625600  -106.847000
  H     42.349500  -19.067800  -105.457000
  C     41.120000  -19.311600  -107.252000
  H     41.379400  -20.351200  -107.481000
  H     40.153700  -19.317300  -106.676000
  H     41.098100  -18.826200  -108.207000
  S     46.639000  -13.481700  -104.706000
  C     48.335800  -13.947500  -104.851000
  C     48.526600  -15.280300  -105.125000
  C     47.311400  -16.018200  -105.084000
  C     46.213700  -15.183200  -104.815000
  H     49.490700  -15.729800  -105.336000
  C     47.220900  -17.467700  -105.477000
  H     47.454800  -17.641000  -106.523000
  H     46.192900  -17.753600  -105.380000
  C     48.145000  -18.425700  -104.709000
  H     49.129300  -18.025900  -104.842000
  H     48.176100  -19.376100  -105.160000
  C     47.969000  -18.634400  -103.234000
  H     47.163000  -19.238800  -102.974000
  H     47.881700  -17.698000  -102.640000
  H     48.749500  -19.192700  -102.710000
  H     41.896400  -16.871200  -103.328000
  H     49.031500  -13.189100  -104.656000

 Total Charge           Charge          ....    0
 Multiplicity           Mult            ....    1
 Number of Electrons    NEL             ....  134
 Basis Dimension        Dim             ....  322

ORBITAL ENERGIES
----------------

  NO   OCC          E(Eh)            E(eV)
   0   2.0000     -88.965789     -2420.8822
   1   2.0000     -88.964779     -2420.8547
   2   2.0000     -10.324237      -280.9368
   3   2.0000     -10.322025      -280.8766
   4   2.0000     -10.314671      -280.6765
   5   2.0000     -10.305059      -280.4149
   6   2.0000     -10.302136      -280.3354
   7   2.0000     -10.294274      -280.1214
   8   2.0000     -10.292634      -280.0768
   9   2.0000     -10.290412      -280.0163
  10   2.0000     -10.287626      -279.9405
  11   2.0000     -10.287101      -279.9262
  12   2.0000     -10.285096      -279.8717
  13   2.0000     -10.282479      -279.8005
  14   2.0000     -10.277349      -279.6609
  15   2.0000     -10.266316      -279.3607
  16   2.0000      -8.081552      -219.9102
  17   2.0000      -8.079483      -219.8539
  18   2.0000      -6.039831      -164.3521
  19   2.0000      -6.037815      -164.2973
  20   2.0000      -6.035981      -164.2474
  21   2.0000      -6.034158      -164.1978
  22   2.0000      -6.032433      -164.1508
  23   2.0000      -6.030285      -164.0924
  24   2.0000      -1.010362       -27.4934
  25   2.0000      -0.985655       -26.8210
  26   2.0000      -0.913056       -24.8455
  27   2.0000      -0.910419       -24.7738
  28   2.0000      -0.865697       -23.5568
  29   2.0000      -0.851384       -23.1673
  30   2.0000      -0.850112       -23.1327
  31   2.0000      -0.812247       -22.1024
  32   2.0000      -0.787514       -21.4293
  33   2.0000      -0.774275       -21.0691
  34   2.0000      -0.707177       -19.2433
  35   2.0000      -0.703151       -19.1337
  36   2.0000      -0.695775       -18.9330
  37   2.0000      -0.658102       -17.9079
  38   2.0000      -0.647421       -17.6172
  39   2.0000      -0.619162       -16.8483
  40   2.0000      -0.605714       -16.4823
  41   2.0000      -0.573095       -15.5947
  42   2.0000      -0.555814       -15.1245
  43   2.0000      -0.550802       -14.9881
  44   2.0000      -0.545782       -14.8515
  45   2.0000      -0.524487       -14.2720
  46   2.0000      -0.516627       -14.0581
  47   2.0000      -0.515210       -14.0196
  48   2.0000      -0.503766       -13.7082
  49   2.0000      -0.495718       -13.4892
  50   2.0000      -0.485072       -13.1995
  51   2.0000      -0.474797       -12.9199
  52   2.0000      -0.473416       -12.8823
  53   2.0000      -0.463094       -12.6014
  54   2.0000      -0.460074       -12.5193
  55   2.0000      -0.449892       -12.2422
  56   2.0000      -0.447005       -12.1636
  57   2.0000      -0.439845       -11.9688
  58   2.0000      -0.435107       -11.8399
  59   2.0000      -0.429796       -11.6953
  60   2.0000      -0.424187       -11.5427
  61   2.0000      -0.421997       -11.4831
  62   2.0000      -0.411415       -11.1952
  63   2.0000      -0.337745        -9.1905
  64   2.0000      -0.329434        -8.9644
  65   2.0000      -0.318372        -8.6633
  66   2.0000      -0.308801        -8.4029
  67   0.0000       0.045652         1.2423
  68   0.0000       0.054950         1.4953
  69   0.0000       0.109385         2.9765
  70   0.0000       0.117395         3.1945
  71   0.0000       0.131721         3.5843

MULLIKEN ATOMIC CHARGES
-----------------------
   0 S :    0.130634
   1 C :   -0.115298
   2 C :   -0.067027
   3 C :    0.041972
   4 C :   -0.184454
   5 H :    0.001876
   6 C :    0.103086
   7 H :    0.002803
   8 H :    0.008454
   9 C :   -0.090988
  10 H :    0.026929
  11 H :    0.022017
  12 C :   -0.047905
  13 H :    0.035992
  14 H :    0.048351
  15 H :    0.030319
  16 S :    0.109264
  17 C :   -0.085105
  18 C :   -0.014411
  19 C :   -0.010062
  20 C :   -0.207142
  21 H :    0.023580
  22 C :    0.103864
  23 H :    0.033512
  24 H :    0.014842
  25 C :   -0.045459
  26 H :    0.008052
  27 H :    0.012847
  28 C :   -0.039608
  29 H :    0.008844
  30 H :    0.035609
  31 H :    0.020027
  32 H :    0.042325
  33 H :    0.042261
Sum of atomic charges:    0.0000000

LOEWDIN ATOMIC CHARGES
----------------------
   0 S :    0.438180
   1 C :   -0.203519
   2 C :   -0.062646
   3 C :   -0.055412
   4 C :   -0.210370
   5 H :    0.028400
   6 C :   -0.023536
   7 H :    0.020495
   8 H :    0.024852
   9 C :   -0.036743
  10 H :    0.022430
  11 H :    0.019387
  12 C :   -0.066294
  13 H :    0.027178
  14 H :    0.033780
  15 H :    0.022322
  16 S :    0.398174
  17 C :   -0.164271
  18 C :   -0.066987
  19 C :   -0.052496
  20 C :   -0.205862
  21 H :    0.033272
  22 C :   -0.025443
  23 H :    0.037222
  24 H :    0.025463
  25 C :   -0.038054
  26 H :    0.018627
  27 H :    0.020643
  28 C :   -0.070200
  29 H :    0.014733
  30 H :    0.030206
  31 H :    0.028976
  32 H :    0.023739
  33 H :    0.013754

  Mayer bond orders larger than 0.100000
B(  0-S ,  1-C ) :   1.1344 B(  0-S ,  4-C ) :   1.1963 B(  1-C ,  2-C ) :   1.6303
B(  1-C , 32-H ) :   0.9638 B(  2-C ,  3-C ) :   1.2253 B(  2-C ,  6-C ) :   1.0505
B(  3-C ,  4-C ) :   1.5665 B(  3-C ,  5-H ) :   1.0090 B(  4-C , 20-C ) :   0.9919
B(  6-C ,  7-H ) :   0.9307 B(  6-C ,  8-H ) :   0.9357 B(  6-C ,  9-C ) :   1.0517
B(  9-C , 10-H ) :   0.9549 B(  9-C , 11-H ) :   0.9590 B(  9-C , 12-C ) :   1.0743
B( 12-C , 13-H ) :   0.9748 B( 12-C , 14-H ) :   0.9753 B( 12-C , 15-H ) :   0.9762
B( 16-S , 17-C ) :   1.1566 B( 16-S , 20-C ) :   1.1583 B( 17-C , 18-C ) :   1.5947
B( 17-C , 20-C ) :   0.1012 B( 17-C , 33-H ) :   0.9781 B( 18-C , 19-C ) :   1.2329
B( 18-C , 21-H ) :   0.9901 B( 19-C , 20-C ) :   1.5956 B( 19-C , 22-C ) :   1.0470
B( 22-C , 23-H ) :   0.9348 B( 22-C , 24-H ) :   0.9286 B( 22-C , 25-C ) :   1.0688
B( 25-C , 26-H ) :   0.9554 B( 25-C , 27-H ) :   0.9506 B( 25-C , 28-C ) :   1.0856
B( 28-C , 29-H ) :   0.9719 B( 28-C , 30-H ) :   0.9725 B( 28-C , 31-H ) :   0.9692

Dispersion correction           -0.014891327
FINAL SINGLE POINT ENERGY     -1339.880434814070

DIPOLE MOMENT
-------------
                                X             Y             Z
Electronic contribution:      3.95160      25.22049       9.04031
Nuclear contribution   :     -3.84941     -25.87074      -9.43589
                        -----------------------------------------
Total Dipole Moment    :      0.10219      -0.65025      -0.39559
                        -----------------------------------------
Magnitude (a.u.)       :      0.76796
Magnitude (Debye)      :      1.95200

Rotational constants in cm-1:     0.019177     0.008578     0.007260
Rotational constants in MHz :   574.898024   257.173815   217.647036

                             ****ORCA TERMINATED NORMALLY****
TOTAL RUN TIME: 0 days 0 hours 0 minutes 22 seconds 114 msec
