                         Program Version 4.2.1 -  RELEASE  -
|  1> ! wB97X-D3 SP def2-SVP
|  2> %pal
|  3> nprocs 24
|  4> end
|  5>
|  6> * xyz 0 1
|  7> S 	 -57.1784 	 18.8981 	 -100.244
|  8> C 	 -58.8419 	 19.2326 	 -100.764
|  9> C 	 -59.8326 	 18.5399 	 -100.096
| 10> C 	 -59.1281 	 17.6458 	 -99.2345
| 11> C 	 -57.7109 	 17.6089 	 -99.2774
| 12> H 	 -59.673 	 16.9691 	 -98.6723
| 13> C 	 -61.2611 	 18.9489 	 -100.011
| 14> H 	 -61.596 	 19.8708 	 -100.588
| 15> H 	 -61.5003 	 19.2232 	 -98.9766
| 16> C 	 -62.1948 	 17.8448 	 -100.448
| 17> H 	 -61.848 	 17.4784 	 -101.404
| 18> H 	 -62.0901 	 16.8993 	 -99.852
| 19> C 	 -63.6351 	 18.3292 	 -100.491
| 20> H 	 -63.6679 	 19.1898 	 -101.121
| 21> H 	 -64.2178 	 17.5608 	 -100.935
| 22> H 	 -63.9945 	 18.6826 	 -99.5218
| 23> S 	 -55.5828 	 17.7622 	 -97.5361
| 24> C 	 -55.592 	 16.5973 	 -96.2729
| 25> C 	 -56.1662 	 15.417 	 -96.6375
| 26> C 	 -56.8934 	 15.5077 	 -97.8828
| 27> C 	 -56.7915 	 16.7964 	 -98.4068
| 28> H 	 -56.0026 	 14.5858 	 -96.0225
| 29> C 	 -57.6261 	 14.3454 	 -98.5295
| 30> H 	 -58.1839 	 14.7921 	 -99.3135
| 31> H 	 -58.3791 	 13.9351 	 -97.8505
| 32> C 	 -56.8714 	 13.1476 	 -99.1896
| 33> H 	 -56.0843 	 12.77 	 -98.4942
| 34> H 	 -56.2571 	 13.5253 	 -100.053
| 35> C 	 -57.7639 	 12.1042 	 -99.7832
| 36> H 	 -58.5017 	 12.5338 	 -100.413
| 37> H 	 -58.2687 	 11.6218 	 -98.8641
| 38> H 	 -57.0977 	 11.3098 	 -100.22
| 39> H 	 -59.0698 	 19.8245 	 -101.601
| 40> H 	 -54.8909 	 16.6413 	 -95.4717
| 41> *
| 42>
| 43>                          ****END OF INPUT****

CARTESIAN COORDINATES (ANGSTROEM)
---------------------------------
  S    -57.178400   18.898100  -100.244000
  C    -58.841900   19.232600  -100.764000
  C    -59.832600   18.539900  -100.096000
  C    -59.128100   17.645800  -99.234500
  C    -57.710900   17.608900  -99.277400
  H    -59.673000   16.969100  -98.672300
  C    -61.261100   18.948900  -100.011000
  H    -61.596000   19.870800  -100.588000
  H    -61.500300   19.223200  -98.976600
  C    -62.194800   17.844800  -100.448000
  H    -61.848000   17.478400  -101.404000
  H    -62.090100   16.899300  -99.852000
  C    -63.635100   18.329200  -100.491000
  H    -63.667900   19.189800  -101.121000
  H    -64.217800   17.560800  -100.935000
  H    -63.994500   18.682600  -99.521800
  S    -55.582800   17.762200  -97.536100
  C    -55.592000   16.597300  -96.272900
  C    -56.166200   15.417000  -96.637500
  C    -56.893400   15.507700  -97.882800
  C    -56.791500   16.796400  -98.406800
  H    -56.002600   14.585800  -96.022500
  C    -57.626100   14.345400  -98.529500
  H    -58.183900   14.792100  -99.313500
  H    -58.379100   13.935100  -97.850500
  C    -56.871400   13.147600  -99.189600
  H    -56.084300   12.770000  -98.494200
  H    -56.257100   13.525300  -100.053000
  C    -57.763900   12.104200  -99.783200
  H    -58.501700   12.533800  -100.413000
  H    -58.268700   11.621800  -98.864100
  H    -57.097700   11.309800  -100.220000
  H    -59.069800   19.824500  -101.601000
  H    -54.890900   16.641300  -95.471700

 Total Charge           Charge          ....    0
 Multiplicity           Mult            ....    1
 Number of Electrons    NEL             ....  134
 Basis Dimension        Dim             ....  322

ORBITAL ENERGIES
----------------

  NO   OCC          E(Eh)            E(eV)
   0   2.0000     -88.966786     -2420.9093
   1   2.0000     -88.962415     -2420.7904
   2   2.0000     -10.333302      -281.1834
   3   2.0000     -10.332832      -281.1706
   4   2.0000     -10.311479      -280.5896
   5   2.0000     -10.309675      -280.5405
   6   2.0000     -10.309615      -280.5389
   7   2.0000     -10.299695      -280.2690
   8   2.0000     -10.299071      -280.2520
   9   2.0000     -10.290390      -280.0158
  10   2.0000     -10.290245      -280.0118
  11   2.0000     -10.289726      -279.9977
  12   2.0000     -10.289615      -279.9947
  13   2.0000     -10.285847      -279.8921
  14   2.0000     -10.284800      -279.8636
  15   2.0000     -10.274821      -279.5921
  16   2.0000      -8.082135      -219.9261
  17   2.0000      -8.078027      -219.8143
  18   2.0000      -6.040514      -164.3708
  19   2.0000      -6.036660      -164.2659
  20   2.0000      -6.036473      -164.2608
  21   2.0000      -6.032909      -164.1638
  22   2.0000      -6.032660      -164.1570
  23   2.0000      -6.028554      -164.0453
  24   2.0000      -1.007236       -27.4083
  25   2.0000      -0.986948       -26.8562
  26   2.0000      -0.921662       -25.0797
  27   2.0000      -0.908226       -24.7141
  28   2.0000      -0.870963       -23.7001
  29   2.0000      -0.856565       -23.3083
  30   2.0000      -0.845296       -23.0017
  31   2.0000      -0.812116       -22.0988
  32   2.0000      -0.787087       -21.4177
  33   2.0000      -0.774396       -21.0724
  34   2.0000      -0.705947       -19.2098
  35   2.0000      -0.695144       -18.9158
  36   2.0000      -0.691047       -18.8044
  37   2.0000      -0.660605       -17.9760
  38   2.0000      -0.641386       -17.4530
  39   2.0000      -0.625870       -17.0308
  40   2.0000      -0.599815       -16.3218
  41   2.0000      -0.578081       -15.7304
  42   2.0000      -0.565404       -15.3854
  43   2.0000      -0.559496       -15.2247
  44   2.0000      -0.535323       -14.5669
  45   2.0000      -0.530585       -14.4380
  46   2.0000      -0.519643       -14.1402
  47   2.0000      -0.513709       -13.9787
  48   2.0000      -0.501090       -13.6353
  49   2.0000      -0.494703       -13.4616
  50   2.0000      -0.493092       -13.4177
  51   2.0000      -0.482304       -13.1242
  52   2.0000      -0.467659       -12.7257
  53   2.0000      -0.465108       -12.6562
  54   2.0000      -0.456890       -12.4326
  55   2.0000      -0.455363       -12.3910
  56   2.0000      -0.447850       -12.1866
  57   2.0000      -0.441245       -12.0069
  58   2.0000      -0.430699       -11.7199
  59   2.0000      -0.429846       -11.6967
  60   2.0000      -0.424168       -11.5422
  61   2.0000      -0.411924       -11.2090
  62   2.0000      -0.405624       -11.0376
  63   2.0000      -0.349019        -9.4973
  64   2.0000      -0.332056        -9.0357
  65   2.0000      -0.326869        -8.8946
  66   2.0000      -0.283459        -7.7133
  67   0.0000       0.025005         0.6804
  68   0.0000       0.066698         1.8149
  69   0.0000       0.100427         2.7328
  70   0.0000       0.110551         3.0082
  71   0.0000       0.132572         3.6075

MULLIKEN ATOMIC CHARGES
-----------------------
   0 S :    0.106459
   1 C :   -0.114475
   2 C :   -0.048875
   3 C :    0.044266
   4 C :   -0.125503
   5 H :   -0.028322
   6 C :    0.038572
   7 H :    0.030464
   8 H :    0.040959
   9 C :   -0.126717
  10 H :    0.019262
  11 H :    0.031516
  12 C :    0.014688
  13 H :    0.012350
  14 H :    0.032649
  15 H :    0.029417
  16 S :    0.089786
  17 C :   -0.071841
  18 C :   -0.020944
  19 C :   -0.046856
  20 C :   -0.128347
  21 H :    0.000821
  22 C :    0.077775
  23 H :    0.006305
  24 H :    0.021781
  25 C :   -0.096496
  26 H :    0.029934
  27 H :    0.030835
  28 C :   -0.051932
  29 H :    0.039713
  30 H :    0.032159
  31 H :    0.054043
  32 H :    0.028960
  33 H :    0.047594
Sum of atomic charges:    0.0000000

LOEWDIN ATOMIC CHARGES
----------------------
   0 S :    0.415298
   1 C :   -0.175093
   2 C :   -0.061480
   3 C :   -0.055416
   4 C :   -0.212662
   5 H :    0.010071
   6 C :   -0.032565
   7 H :    0.038524
   8 H :    0.037244
   9 C :   -0.048844
  10 H :    0.020685
  11 H :    0.024947
  12 C :   -0.056239
  13 H :    0.019970
  14 H :    0.025255
  15 H :    0.026996
  16 S :    0.396114
  17 C :   -0.181595
  18 C :   -0.063053
  19 C :   -0.049603
  20 C :   -0.183039
  21 H :    0.023905
  22 C :   -0.036179
  23 H :    0.025279
  24 H :    0.028609
  25 C :   -0.048805
  26 H :    0.022828
  27 H :    0.026968
  28 C :   -0.065956
  29 H :    0.022052
  30 H :    0.031221
  31 H :    0.038878
  32 H :    0.013807
  33 H :    0.021875

  Mayer bond orders larger than 0.100000
B(  0-S ,  1-C ) :   1.1535 B(  0-S ,  4-C ) :   1.1610 B(  1-C ,  2-C ) :   1.5886
B(  1-C , 32-H ) :   0.9670 B(  2-C ,  3-C ) :   1.2696 B(  2-C ,  6-C ) :   1.0259
B(  3-C ,  4-C ) :   1.5382 B(  3-C ,  5-H ) :   0.9978 B(  4-C , 20-C ) :   1.0133
B(  6-C ,  7-H ) :   0.9511 B(  6-C ,  8-H ) :   0.9396 B(  6-C ,  9-C ) :   1.0417
B(  9-C , 10-H ) :   0.9558 B(  9-C , 11-H ) :   0.9539 B(  9-C , 12-C ) :   1.0862
B( 12-C , 13-H ) :   0.9699 B( 12-C , 14-H ) :   0.9711 B( 12-C , 15-H ) :   0.9719
B( 16-S , 17-C ) :   1.1590 B( 16-S , 20-C ) :   1.1278 B( 17-C , 18-C ) :   1.6277
B( 17-C , 33-H ) :   0.9643 B( 18-C , 19-C ) :   1.2103 B( 18-C , 21-H ) :   1.0043
B( 19-C , 20-C ) :   1.6157 B( 19-C , 22-C ) :   1.0457 B( 22-C , 23-H ) :   0.9277
B( 22-C , 24-H ) :   0.9344 B( 22-C , 25-C ) :   1.0568 B( 25-C , 26-H ) :   0.9570
B( 25-C , 27-H ) :   0.9509 B( 25-C , 28-C ) :   1.0806 B( 28-C , 29-H ) :   0.9744
B( 28-C , 30-H ) :   0.9731 B( 28-C , 31-H ) :   0.9702

Dispersion correction           -0.013109748
FINAL SINGLE POINT ENERGY     -1339.849532597675

DIPOLE MOMENT
-------------
                                X             Y             Z
Electronic contribution:     23.64700      16.80176       6.12937
Nuclear contribution   :    -24.14825     -17.19703      -6.07218
                        -----------------------------------------
Total Dipole Moment    :     -0.50125      -0.39527       0.05719
                        -----------------------------------------
Magnitude (a.u.)       :      0.64091
Magnitude (Debye)      :      1.62907

Rotational constants in cm-1:     0.016295     0.008165     0.006260
Rotational constants in MHz :   488.519909   244.779014   187.673434

                             ****ORCA TERMINATED NORMALLY****
TOTAL RUN TIME: 0 days 0 hours 0 minutes 20 seconds 831 msec
