                         Program Version 4.2.1 -  RELEASE  -
|  1> ! wB97X-D3 SP def2-SVP
|  2> %pal
|  3> nprocs 24
|  4> end
|  5>
|  6> * xyz 0 1
|  7> S 	 -2.45311 	 -24.6044 	 -114.867
|  8> C 	 -1.68734 	 -26.0385 	 -115.27
|  9> C 	 -0.413836 	 -25.7599 	 -115.87
| 10> C 	 -0.0893276 	 -24.3659 	 -115.823
| 11> C 	 -1.13183 	 -23.5683 	 -115.407
| 12> H 	 0.776086 	 -23.9733 	 -116.246
| 13> C 	 0.551705 	 -26.7525 	 -116.566
| 14> H 	 0.830296 	 -27.3143 	 -115.708
| 15> H 	 1.38303 	 -26.2976 	 -116.997
| 16> C 	 0.0414814 	 -27.6319 	 -117.63
| 17> H 	 -0.855513 	 -28.2328 	 -117.303
| 18> H 	 -0.243256 	 -26.9627 	 -118.461
| 19> C 	 1.05299 	 -28.57 	 -118.206
| 20> H 	 1.46786 	 -29.3393 	 -117.575
| 21> H 	 0.566711 	 -29.1022 	 -118.972
| 22> H 	 1.94507 	 -28.1028 	 -118.655
| 23> S 	 -2.49468 	 -21.3601 	 -116.291
| 24> C 	 -2.09947 	 -19.7469 	 -115.745
| 25> C 	 -0.995386 	 -19.8375 	 -114.954
| 26> C 	 -0.375153 	 -21.1084 	 -114.856
| 27> C 	 -1.19554 	 -22.0996 	 -115.389
| 28> H 	 -0.738718 	 -18.931 	 -114.459
| 29> C 	 0.868628 	 -21.2479 	 -114.035
| 30> H 	 1.02715 	 -20.2855 	 -113.631
| 31> H 	 1.66912 	 -21.4878 	 -114.705
| 32> C 	 0.935931 	 -22.2928 	 -112.859
| 33> H 	 1.915 	 -22.1976 	 -112.482
| 34> H 	 0.85246 	 -23.3106 	 -113.225
| 35> C 	 -0.180431 	 -21.9921 	 -111.805
| 36> H 	 -0.15392 	 -22.6208 	 -110.982
| 37> H 	 -1.16085 	 -22.2081 	 -112.244
| 38> H 	 -0.107224 	 -20.9325 	 -111.574
| 39> H 	 -2.06707 	 -27.0702 	 -115.107
| 40> H 	 -2.61148 	 -18.7649 	 -115.908
| 41> *
| 42>
| 43>                          ****END OF INPUT****

CARTESIAN COORDINATES (ANGSTROEM)
---------------------------------
  S     -2.453110  -24.604400  -114.867000
  C     -1.687340  -26.038500  -115.270000
  C     -0.413836  -25.759900  -115.870000
  C     -0.089328  -24.365900  -115.823000
  C     -1.131830  -23.568300  -115.407000
  H      0.776086  -23.973300  -116.246000
  C      0.551705  -26.752500  -116.566000
  H      0.830296  -27.314300  -115.708000
  H      1.383030  -26.297600  -116.997000
  C      0.041481  -27.631900  -117.630000
  H     -0.855513  -28.232800  -117.303000
  H     -0.243256  -26.962700  -118.461000
  C      1.052990  -28.570000  -118.206000
  H      1.467860  -29.339300  -117.575000
  H      0.566711  -29.102200  -118.972000
  H      1.945070  -28.102800  -118.655000
  S     -2.494680  -21.360100  -116.291000
  C     -2.099470  -19.746900  -115.745000
  C     -0.995386  -19.837500  -114.954000
  C     -0.375153  -21.108400  -114.856000
  C     -1.195540  -22.099600  -115.389000
  H     -0.738718  -18.931000  -114.459000
  C      0.868628  -21.247900  -114.035000
  H      1.027150  -20.285500  -113.631000
  H      1.669120  -21.487800  -114.705000
  C      0.935931  -22.292800  -112.859000
  H      1.915000  -22.197600  -112.482000
  H      0.852460  -23.310600  -113.225000
  C     -0.180431  -21.992100  -111.805000
  H     -0.153920  -22.620800  -110.982000
  H     -1.160850  -22.208100  -112.244000
  H     -0.107224  -20.932500  -111.574000
  H     -2.067070  -27.070200  -115.107000
  H     -2.611480  -18.764900  -115.908000

 Total Charge           Charge          ....    0
 Multiplicity           Mult            ....    1
 Number of Electrons    NEL             ....  134
 Basis Dimension        Dim             ....  322

ORBITAL ENERGIES
----------------

  NO   OCC          E(Eh)            E(eV)
   0   2.0000     -88.970101     -2420.9995
   1   2.0000     -88.962141     -2420.7829
   2   2.0000     -10.330968      -281.1199
   3   2.0000     -10.327888      -281.0361
   4   2.0000     -10.317989      -280.7668
   5   2.0000     -10.314287      -280.6660
   6   2.0000     -10.306442      -280.4526
   7   2.0000     -10.300303      -280.2855
   8   2.0000     -10.289852      -280.0011
   9   2.0000     -10.285618      -279.8859
  10   2.0000     -10.284438      -279.8538
  11   2.0000     -10.283761      -279.8354
  12   2.0000     -10.281043      -279.7614
  13   2.0000     -10.280296      -279.7411
  14   2.0000     -10.272026      -279.5160
  15   2.0000     -10.266779      -279.3733
  16   2.0000      -8.085324      -220.0128
  17   2.0000      -8.076901      -219.7836
  18   2.0000      -6.043720      -164.4580
  19   2.0000      -6.039501      -164.3432
  20   2.0000      -6.036421      -164.2594
  21   2.0000      -6.035497      -164.2342
  22   2.0000      -6.031240      -164.1184
  23   2.0000      -6.027718      -164.0225
  24   2.0000      -1.008538       -27.4437
  25   2.0000      -0.988205       -26.8904
  26   2.0000      -0.921379       -25.0720
  27   2.0000      -0.903845       -24.5949
  28   2.0000      -0.871069       -23.7030
  29   2.0000      -0.855958       -23.2918
  30   2.0000      -0.843364       -22.9491
  31   2.0000      -0.817088       -22.2341
  32   2.0000      -0.784220       -21.3397
  33   2.0000      -0.772805       -21.0291
  34   2.0000      -0.710649       -19.3377
  35   2.0000      -0.699232       -19.0271
  36   2.0000      -0.688590       -18.7375
  37   2.0000      -0.660434       -17.9713
  38   2.0000      -0.643969       -17.5233
  39   2.0000      -0.619164       -16.8483
  40   2.0000      -0.589071       -16.0294
  41   2.0000      -0.582350       -15.8465
  42   2.0000      -0.564829       -15.3698
  43   2.0000      -0.558127       -15.1874
  44   2.0000      -0.539226       -14.6731
  45   2.0000      -0.525866       -14.3095
  46   2.0000      -0.521060       -14.1788
  47   2.0000      -0.510145       -13.8818
  48   2.0000      -0.507493       -13.8096
  49   2.0000      -0.499558       -13.5937
  50   2.0000      -0.494426       -13.4540
  51   2.0000      -0.481533       -13.1032
  52   2.0000      -0.474131       -12.9018
  53   2.0000      -0.468210       -12.7406
  54   2.0000      -0.464659       -12.6440
  55   2.0000      -0.442399       -12.0383
  56   2.0000      -0.437809       -11.9134
  57   2.0000      -0.433679       -11.8010
  58   2.0000      -0.427317       -11.6279
  59   2.0000      -0.425379       -11.5751
  60   2.0000      -0.421824       -11.4784
  61   2.0000      -0.415762       -11.3135
  62   2.0000      -0.412440       -11.2230
  63   2.0000      -0.350441        -9.5360
  64   2.0000      -0.327819        -8.9204
  65   2.0000      -0.326115        -8.8740
  66   2.0000      -0.289494        -7.8775
  67   0.0000       0.031276         0.8511
  68   0.0000       0.068712         1.8697
  69   0.0000       0.124527         3.3886
  70   0.0000       0.127537         3.4705
  71   0.0000       0.130994         3.5645

MULLIKEN ATOMIC CHARGES
-----------------------
   0 S :    0.139577
   1 C :   -0.130427
   2 C :   -0.131076
   3 C :    0.066556
   4 C :   -0.159322
   5 H :   -0.012883
   6 C :    0.120689
   7 H :    0.023857
   8 H :   -0.002821
   9 C :   -0.086795
  10 H :    0.031166
  11 H :    0.033449
  12 C :   -0.031403
  13 H :    0.021197
  14 H :    0.020787
  15 H :    0.025841
  16 S :    0.104023
  17 C :   -0.104296
  18 C :   -0.056047
  19 C :   -0.014851
  20 C :   -0.171622
  21 H :    0.006801
  22 C :    0.084594
  23 H :    0.000359
  24 H :    0.028403
  25 C :   -0.054052
  26 H :    0.017082
  27 H :    0.035130
  28 C :   -0.020137
  29 H :    0.019308
  30 H :    0.033892
  31 H :    0.024869
  32 H :    0.067122
  33 H :    0.071029
Sum of atomic charges:    0.0000000

LOEWDIN ATOMIC CHARGES
----------------------
   0 S :    0.447249
   1 C :   -0.238282
   2 C :   -0.056093
   3 C :   -0.055955
   4 C :   -0.198743
   5 H :    0.021300
   6 C :   -0.030729
   7 H :    0.030619
   8 H :    0.021183
   9 C :   -0.044326
  10 H :    0.027344
  11 H :    0.031378
  12 C :   -0.064925
  13 H :    0.021879
  14 H :    0.023943
  15 H :    0.026474
  16 S :    0.409117
  17 C :   -0.200910
  18 C :   -0.075956
  19 C :   -0.058838
  20 C :   -0.198679
  21 H :    0.026151
  22 C :   -0.025402
  23 H :    0.022760
  24 H :    0.031858
  25 C :   -0.028221
  26 H :    0.016400
  27 H :    0.022607
  28 C :   -0.056581
  29 H :    0.014669
  30 H :    0.029527
  31 H :    0.023461
  32 H :    0.039634
  33 H :    0.046086

  Mayer bond orders larger than 0.100000
B(  0-S ,  1-C ) :   1.1760 B(  0-S ,  4-C ) :   1.1716 B(  1-C ,  2-C ) :   1.5412
B(  1-C ,  4-C ) :   0.1059 B(  1-C , 32-H ) :   0.9672 B(  2-C ,  3-C ) :   1.2981
B(  2-C ,  6-C ) :   1.0037 B(  3-C ,  4-C ) :   1.5300 B(  3-C ,  5-H ) :   1.0062
B(  4-C , 20-C ) :   1.0308 B(  6-C ,  7-H ) :   0.9277 B(  6-C ,  8-H ) :   0.9468
B(  6-C ,  9-C ) :   1.0824 B(  9-C , 10-H ) :   0.9483 B(  9-C , 11-H ) :   0.9509
B(  9-C , 12-C ) :   1.0970 B( 12-C , 13-H ) :   0.9722 B( 12-C , 14-H ) :   0.9707
B( 12-C , 15-H ) :   0.9696 B( 16-S , 17-C ) :   1.1409 B( 16-S , 20-C ) :   1.1600
B( 17-C , 18-C ) :   1.6302 B( 17-C , 20-C ) :   0.1018 B( 17-C , 33-H ) :   0.9599
B( 18-C , 19-C ) :   1.2367 B( 18-C , 21-H ) :   0.9886 B( 19-C , 20-C ) :   1.5626
B( 19-C , 22-C ) :   1.0452 B( 22-C , 23-H ) :   0.9348 B( 22-C , 24-H ) :   0.9193
B( 22-C , 25-C ) :   1.0798 B( 25-C , 26-H ) :   0.9545 B( 25-C , 27-H ) :   0.9530
B( 25-C , 28-C ) :   1.0713 B( 28-C , 29-H ) :   0.9758 B( 28-C , 30-H ) :   0.9724
B( 28-C , 31-H ) :   0.9795

Dispersion correction           -0.014807137
FINAL SINGLE POINT ENERGY     -1339.865749696171

DIPOLE MOMENT
-------------
                                X             Y             Z
Electronic contribution:    -17.97175      12.75049      -2.38235
Nuclear contribution   :     18.52406     -12.93952       2.40688
                        -----------------------------------------
Total Dipole Moment    :      0.55231      -0.18903       0.02454
                        -----------------------------------------
Magnitude (a.u.)       :      0.58428
Magnitude (Debye)      :      1.48512

Rotational constants in cm-1:     0.022256     0.007541     0.006840
Rotational constants in MHz :   667.231578   226.076192   205.055035

                             ****ORCA TERMINATED NORMALLY****
TOTAL RUN TIME: 0 days 0 hours 0 minutes 20 seconds 628 msec
