                         Program Version 4.2.1 -  RELEASE  -
|  1> ! wB97X-D3 SP def2-SVP
|  2> %pal
|  3> nprocs 24
|  4> end
|  5>
|  6> * xyz 0 1
|  7> S 	 -83.966 	 -17.9241 	 -52.0806
|  8> C 	 -85.1684 	 -16.6675 	 -51.869
|  9> C 	 -84.8627 	 -15.7357 	 -50.9851
| 10> C 	 -83.7089 	 -16.1487 	 -50.2201
| 11> C 	 -83.0751 	 -17.2899 	 -50.7962
| 12> H 	 -83.3652 	 -15.6087 	 -49.3414
| 13> C 	 -85.466 	 -14.3353 	 -50.8651
| 14> H 	 -86.1905 	 -14.378 	 -50.0108
| 15> H 	 -86.0639 	 -14.1318 	 -51.7574
| 16> C 	 -84.5829 	 -13.1482 	 -50.7921
| 17> H 	 -83.719 	 -13.3051 	 -50.1085
| 18> H 	 -84.2187 	 -12.9213 	 -51.7782
| 19> C 	 -85.2149 	 -11.855 	 -50.2875
| 20> H 	 -84.5656 	 -11.009 	 -50.22
| 21> H 	 -85.9819 	 -11.5272 	 -50.9681
| 22> H 	 -85.6259 	 -11.8885 	 -49.306
| 23> S 	 -82.1192 	 -19.7105 	 -49.8424
| 24> C 	 -80.5024 	 -19.7437 	 -49.2691
| 25> C 	 -79.906 	 -18.5321 	 -49.1779
| 26> C 	 -80.7186 	 -17.4885 	 -49.7996
| 27> C 	 -81.9564 	 -17.9772 	 -50.1974
| 28> H 	 -78.9065 	 -18.4868 	 -48.8932
| 29> C 	 -80.2736 	 -16.0115 	 -49.7093
| 30> H 	 -79.5235 	 -15.871 	 -48.8838
| 31> H 	 -81.0994 	 -15.4682 	 -49.2919
| 32> C 	 -79.8803 	 -15.4304 	 -51.0301
| 33> H 	 -80.4817 	 -15.7175 	 -51.9407
| 34> H 	 -78.8819 	 -15.8029 	 -51.3014
| 35> C 	 -79.6728 	 -13.9377 	 -50.9576
| 36> H 	 -79.2455 	 -13.7351 	 -50.0325
| 37> H 	 -80.5757 	 -13.4108 	 -50.9769
| 38> H 	 -78.9511 	 -13.5302 	 -51.7202
| 39> H 	 -85.9697 	 -16.476 	 -52.5261
| 40> H 	 -79.9844 	 -20.6946 	 -48.963
| 41> *
| 42>
| 43>                          ****END OF INPUT****

CARTESIAN COORDINATES (ANGSTROEM)
---------------------------------
  S    -83.966000  -17.924100  -52.080600
  C    -85.168400  -16.667500  -51.869000
  C    -84.862700  -15.735700  -50.985100
  C    -83.708900  -16.148700  -50.220100
  C    -83.075100  -17.289900  -50.796200
  H    -83.365200  -15.608700  -49.341400
  C    -85.466000  -14.335300  -50.865100
  H    -86.190500  -14.378000  -50.010800
  H    -86.063900  -14.131800  -51.757400
  C    -84.582900  -13.148200  -50.792100
  H    -83.719000  -13.305100  -50.108500
  H    -84.218700  -12.921300  -51.778200
  C    -85.214900  -11.855000  -50.287500
  H    -84.565600  -11.009000  -50.220000
  H    -85.981900  -11.527200  -50.968100
  H    -85.625900  -11.888500  -49.306000
  S    -82.119200  -19.710500  -49.842400
  C    -80.502400  -19.743700  -49.269100
  C    -79.906000  -18.532100  -49.177900
  C    -80.718600  -17.488500  -49.799600
  C    -81.956400  -17.977200  -50.197400
  H    -78.906500  -18.486800  -48.893200
  C    -80.273600  -16.011500  -49.709300
  H    -79.523500  -15.871000  -48.883800
  H    -81.099400  -15.468200  -49.291900
  C    -79.880300  -15.430400  -51.030100
  H    -80.481700  -15.717500  -51.940700
  H    -78.881900  -15.802900  -51.301400
  C    -79.672800  -13.937700  -50.957600
  H    -79.245500  -13.735100  -50.032500
  H    -80.575700  -13.410800  -50.976900
  H    -78.951100  -13.530200  -51.720200
  H    -85.969700  -16.476000  -52.526100
  H    -79.984400  -20.694600  -48.963000

 Total Charge           Charge          ....    0
 Multiplicity           Mult            ....    1
 Number of Electrons    NEL             ....  134
 Basis Dimension        Dim             ....  322

ORBITAL ENERGIES
----------------

  NO   OCC          E(Eh)            E(eV)
   0   2.0000     -88.969147     -2420.9736
   1   2.0000     -88.963122     -2420.8096
   2   2.0000     -10.326592      -281.0009
   3   2.0000     -10.323953      -280.9290
   4   2.0000     -10.313102      -280.6338
   5   2.0000     -10.305202      -280.4188
   6   2.0000     -10.302379      -280.3420
   7   2.0000     -10.296798      -280.1901
   8   2.0000     -10.296179      -280.1733
   9   2.0000     -10.295916      -280.1661
  10   2.0000     -10.293616      -280.1035
  11   2.0000     -10.287726      -279.9433
  12   2.0000     -10.285430      -279.8808
  13   2.0000     -10.281544      -279.7750
  14   2.0000     -10.273770      -279.5635
  15   2.0000     -10.265662      -279.3429
  16   2.0000      -8.084885      -220.0009
  17   2.0000      -8.078331      -219.8226
  18   2.0000      -6.043365      -164.4483
  19   2.0000      -6.039291      -164.3375
  20   2.0000      -6.036824      -164.2703
  21   2.0000      -6.035572      -164.2363
  22   2.0000      -6.032890      -164.1633
  23   2.0000      -6.028963      -164.0564
  24   2.0000      -1.011294       -27.5187
  25   2.0000      -0.986487       -26.8437
  26   2.0000      -0.921021       -25.0623
  27   2.0000      -0.912604       -24.8332
  28   2.0000      -0.876803       -23.8590
  29   2.0000      -0.852902       -23.2086
  30   2.0000      -0.846168       -23.0254
  31   2.0000      -0.810764       -22.0620
  32   2.0000      -0.792166       -21.5559
  33   2.0000      -0.775737       -21.1089
  34   2.0000      -0.711217       -19.3532
  35   2.0000      -0.698325       -19.0024
  36   2.0000      -0.690351       -18.7854
  37   2.0000      -0.659149       -17.9364
  38   2.0000      -0.635329       -17.2882
  39   2.0000      -0.623794       -16.9743
  40   2.0000      -0.596407       -16.2290
  41   2.0000      -0.573537       -15.6067
  42   2.0000      -0.571024       -15.5384
  43   2.0000      -0.559830       -15.2337
  44   2.0000      -0.531008       -14.4495
  45   2.0000      -0.526643       -14.3307
  46   2.0000      -0.520774       -14.1710
  47   2.0000      -0.508019       -13.8239
  48   2.0000      -0.502970       -13.6865
  49   2.0000      -0.499902       -13.6030
  50   2.0000      -0.494280       -13.4500
  51   2.0000      -0.486649       -13.2424
  52   2.0000      -0.471155       -12.8208
  53   2.0000      -0.461371       -12.5546
  54   2.0000      -0.460696       -12.5362
  55   2.0000      -0.455466       -12.3939
  56   2.0000      -0.444570       -12.0974
  57   2.0000      -0.440145       -11.9769
  58   2.0000      -0.437706       -11.9106
  59   2.0000      -0.428534       -11.6610
  60   2.0000      -0.419448       -11.4138
  61   2.0000      -0.414509       -11.2794
  62   2.0000      -0.405391       -11.0313
  63   2.0000      -0.343411        -9.3447
  64   2.0000      -0.334074        -9.0906
  65   2.0000      -0.328316        -8.9339
  66   2.0000      -0.292069        -7.9476
  67   0.0000       0.032277         0.8783
  68   0.0000       0.079070         2.1516
  69   0.0000       0.108087         2.9412
  70   0.0000       0.111156         3.0247
  71   0.0000       0.132411         3.6031

MULLIKEN ATOMIC CHARGES
-----------------------
   0 S :    0.128741
   1 C :   -0.108462
   2 C :   -0.061662
   3 C :    0.003679
   4 C :   -0.157234
   5 H :    0.021807
   6 C :    0.070544
   7 H :    0.042249
   8 H :    0.016004
   9 C :   -0.073987
  10 H :    0.031355
  11 H :    0.030144
  12 C :   -0.035101
  13 H :    0.022430
  14 H :    0.019695
  15 H :    0.021075
  16 S :    0.111755
  17 C :   -0.110457
  18 C :   -0.005823
  19 C :   -0.035357
  20 C :   -0.152086
  21 H :   -0.001445
  22 C :    0.062178
  23 H :    0.030694
  24 H :    0.005206
  25 C :   -0.081854
  26 H :    0.050306
  27 H :    0.016583
  28 C :   -0.006417
  29 H :   -0.001371
  30 H :    0.021175
  31 H :    0.037041
  32 H :    0.017886
  33 H :    0.070707
Sum of atomic charges:    0.0000000

LOEWDIN ATOMIC CHARGES
----------------------
   0 S :    0.433655
   1 C :   -0.190493
   2 C :   -0.062843
   3 C :   -0.056179
   4 C :   -0.216988
   5 H :    0.026601
   6 C :   -0.033530
   7 H :    0.037609
   8 H :    0.031721
   9 C :   -0.042029
  10 H :    0.023847
  11 H :    0.026399
  12 C :   -0.060232
  13 H :    0.025658
  14 H :    0.021627
  15 H :    0.020494
  16 S :    0.400747
  17 C :   -0.196281
  18 C :   -0.072233
  19 C :   -0.043056
  20 C :   -0.195777
  21 H :    0.022161
  22 C :   -0.032422
  23 H :    0.037250
  24 H :    0.022483
  25 C :   -0.047616
  26 H :    0.034422
  27 H :    0.024529
  28 C :   -0.059076
  29 H :    0.013906
  30 H :    0.015763
  31 H :    0.033389
  32 H :    0.017602
  33 H :    0.038894

  Mayer bond orders larger than 0.100000
B(  0-S ,  1-C ) :   1.1234 B(  0-S ,  4-C ) :   1.1679 B(  1-C ,  2-C ) :   1.6765
B(  1-C , 32-H ) :   0.9567 B(  2-C ,  3-C ) :   1.2275 B(  2-C ,  6-C ) :   1.0072
B(  3-C ,  4-C ) :   1.5506 B(  3-C ,  5-H ) :   0.9854 B(  4-C , 20-C ) :   1.0531
B(  6-C ,  7-H ) :   0.9360 B(  6-C ,  8-H ) :   0.9429 B(  6-C ,  9-C ) :   1.0664
B(  9-C , 10-H ) :   0.9528 B(  9-C , 11-H ) :   0.9556 B(  9-C , 12-C ) :   1.0906
B( 12-C , 13-H ) :   0.9719 B( 12-C , 14-H ) :   0.9738 B( 12-C , 15-H ) :   0.9731
B( 16-S , 17-C ) :   1.1523 B( 16-S , 20-C ) :   1.1249 B( 17-C , 18-C ) :   1.6457
B( 17-C , 33-H ) :   0.9552 B( 18-C , 19-C ) :   1.2144 B( 18-C , 21-H ) :   0.9948
B( 19-C , 20-C ) :   1.6306 B( 19-C , 22-C ) :   1.0240 B( 22-C , 23-H ) :   0.9344
B( 22-C , 24-H ) :   0.9420 B( 22-C , 25-C ) :   1.0546 B( 25-C , 26-H ) :   0.9615
B( 25-C , 27-H ) :   0.9493 B( 25-C , 28-C ) :   1.0830 B( 28-C , 29-H ) :   0.9641
B( 28-C , 30-H ) :   0.9741 B( 28-C , 31-H ) :   0.9742

Dispersion correction           -0.014380335
FINAL SINGLE POINT ENERGY     -1339.865510602025

DIPOLE MOMENT
-------------
                                X             Y             Z
Electronic contribution:     -3.64933     -32.76362      -1.88067
Nuclear contribution   :      3.79682      33.46951       2.02571
                        -----------------------------------------
Total Dipole Moment    :      0.14749       0.70589       0.14503
                        -----------------------------------------
Magnitude (a.u.)       :      0.73558
Magnitude (Debye)      :      1.86968

Rotational constants in cm-1:     0.018160     0.009399     0.006921
Rotational constants in MHz :   544.434778   281.771606   207.485737

                             ****ORCA TERMINATED NORMALLY****
TOTAL RUN TIME: 0 days 0 hours 0 minutes 22 seconds 85 msec
