                         Program Version 4.2.1 -  RELEASE  -
|  1> ! wB97X-D3 SP def2-SVP
|  2> %pal
|  3> nprocs 24
|  4> end
|  5>
|  6> * xyz 0 1
|  7> S 	 26.9246 	 -2.69001 	 -110.775
|  8> C 	 27.9604 	 -2.58212 	 -112.235
|  9> C 	 27.2664 	 -2.04435 	 -113.331
| 10> C 	 25.9204 	 -1.72232 	 -112.917
| 11> C 	 25.4765 	 -2.18174 	 -111.711
| 12> H 	 25.2608 	 -1.188 	 -113.527
| 13> C 	 27.8308 	 -1.68557 	 -114.723
| 14> H 	 27.0523 	 -1.95693 	 -115.492
| 15> H 	 28.74 	 -2.30961 	 -114.917
| 16> C 	 28.0414 	 -0.204386 	 -115.064
| 17> H 	 27.2656 	 0.403003 	 -114.603
| 18> H 	 28.9663 	 0.134178 	 -114.548
| 19> C 	 28.3165 	 0.0365575 	 -116.575
| 20> H 	 28.67 	 1.01224 	 -116.82
| 21> H 	 29.1342 	 -0.601221 	 -116.863
| 22> H 	 27.4748 	 -0.279653 	 -117.25
| 23> S 	 23.9356 	 -2.07575 	 -109.268
| 24> C 	 22.2227 	 -1.68749 	 -109.34
| 25> C 	 21.7645 	 -1.74694 	 -110.607
| 26> C 	 22.8354 	 -1.86858 	 -111.58
| 27> C 	 24.113 	 -2.01867 	 -111.068
| 28> H 	 20.7212 	 -1.78647 	 -110.73
| 29> C 	 22.474 	 -2.00564 	 -113.061
| 30> H 	 22.0008 	 -2.96213 	 -113.156
| 31> H 	 23.407 	 -2.1227 	 -113.531
| 32> C 	 21.7955 	 -0.753369 	 -113.764
| 33> H 	 22.4412 	 0.103608 	 -113.558
| 34> H 	 20.7839 	 -0.509155 	 -113.331
| 35> C 	 21.5504 	 -0.828822 	 -115.278
| 36> H 	 22.4976 	 -0.807312 	 -115.84
| 37> H 	 20.9665 	 0.106192 	 -115.623
| 38> H 	 20.8883 	 -1.68103 	 -115.458
| 39> H 	 28.9998 	 -2.80373 	 -112.324
| 40> H 	 21.518 	 -1.65067 	 -108.491
| 41> *
| 42>
| 43>                          ****END OF INPUT****

CARTESIAN COORDINATES (ANGSTROEM)
---------------------------------
  S     26.924600   -2.690010  -110.775000
  C     27.960400   -2.582120  -112.235000
  C     27.266400   -2.044350  -113.331000
  C     25.920400   -1.722320  -112.917000
  C     25.476500   -2.181740  -111.711000
  H     25.260800   -1.188000  -113.527000
  C     27.830800   -1.685570  -114.723000
  H     27.052300   -1.956930  -115.492000
  H     28.740000   -2.309610  -114.917000
  C     28.041400   -0.204386  -115.064000
  H     27.265600    0.403003  -114.603000
  H     28.966300    0.134178  -114.548000
  C     28.316500    0.036557  -116.575000
  H     28.670000    1.012240  -116.820000
  H     29.134200   -0.601221  -116.863000
  H     27.474800   -0.279653  -117.250000
  S     23.935600   -2.075750  -109.268000
  C     22.222700   -1.687490  -109.340000
  C     21.764500   -1.746940  -110.607000
  C     22.835400   -1.868580  -111.580000
  C     24.113000   -2.018670  -111.068000
  H     20.721200   -1.786470  -110.730000
  C     22.474000   -2.005640  -113.061000
  H     22.000800   -2.962130  -113.156000
  H     23.407000   -2.122700  -113.531000
  C     21.795500   -0.753369  -113.764000
  H     22.441200    0.103608  -113.558000
  H     20.783900   -0.509155  -113.331000
  C     21.550400   -0.828822  -115.278000
  H     22.497600   -0.807312  -115.840000
  H     20.966500    0.106192  -115.623000
  H     20.888300   -1.681030  -115.458000
  H     28.999800   -2.803730  -112.324000
  H     21.518000   -1.650670  -108.491000

 Total Charge           Charge          ....    0
 Multiplicity           Mult            ....    1
 Number of Electrons    NEL             ....  134
 Basis Dimension        Dim             ....  322

ORBITAL ENERGIES
----------------

  NO   OCC          E(Eh)            E(eV)
   0   2.0000     -88.969673     -2420.9879
   1   2.0000     -88.963965     -2420.8326
   2   2.0000     -10.342809      -281.4421
   3   2.0000     -10.341389      -281.4035
   4   2.0000     -10.322618      -280.8927
   5   2.0000     -10.319813      -280.8164
   6   2.0000     -10.311030      -280.5774
   7   2.0000     -10.309388      -280.5327
   8   2.0000     -10.306876      -280.4644
   9   2.0000     -10.295485      -280.1544
  10   2.0000     -10.294450      -280.1262
  11   2.0000     -10.293634      -280.1040
  12   2.0000     -10.290640      -280.0226
  13   2.0000     -10.288918      -279.9757
  14   2.0000     -10.288836      -279.9735
  15   2.0000     -10.284566      -279.8573
  16   2.0000      -8.082787      -219.9438
  17   2.0000      -8.077892      -219.8106
  18   2.0000      -6.041672      -164.4023
  19   2.0000      -6.037706      -164.2943
  20   2.0000      -6.036736      -164.2679
  21   2.0000      -6.033044      -164.1675
  22   2.0000      -6.032649      -164.1567
  23   2.0000      -6.028203      -164.0357
  24   2.0000      -0.998932       -27.1823
  25   2.0000      -0.979917       -26.6649
  26   2.0000      -0.909167       -24.7397
  27   2.0000      -0.901088       -24.5199
  28   2.0000      -0.868656       -23.6373
  29   2.0000      -0.850177       -23.1345
  30   2.0000      -0.841333       -22.8938
  31   2.0000      -0.822138       -22.3715
  32   2.0000      -0.782137       -21.2830
  33   2.0000      -0.772461       -21.0197
  34   2.0000      -0.706366       -19.2212
  35   2.0000      -0.699935       -19.0462
  36   2.0000      -0.694098       -18.8874
  37   2.0000      -0.658140       -17.9089
  38   2.0000      -0.642432       -17.4815
  39   2.0000      -0.626525       -17.0486
  40   2.0000      -0.589034       -16.0284
  41   2.0000      -0.574451       -15.6316
  42   2.0000      -0.568047       -15.4574
  43   2.0000      -0.561311       -15.2740
  44   2.0000      -0.530421       -14.4335
  45   2.0000      -0.521551       -14.1921
  46   2.0000      -0.513072       -13.9614
  47   2.0000      -0.508995       -13.8505
  48   2.0000      -0.502530       -13.6745
  49   2.0000      -0.499608       -13.5950
  50   2.0000      -0.499184       -13.5835
  51   2.0000      -0.475926       -12.9506
  52   2.0000      -0.471474       -12.8295
  53   2.0000      -0.464129       -12.6296
  54   2.0000      -0.460242       -12.5238
  55   2.0000      -0.452348       -12.3090
  56   2.0000      -0.447842       -12.1864
  57   2.0000      -0.440893       -11.9973
  58   2.0000      -0.430878       -11.7248
  59   2.0000      -0.426884       -11.6161
  60   2.0000      -0.417218       -11.3531
  61   2.0000      -0.414574       -11.2811
  62   2.0000      -0.411065       -11.1856
  63   2.0000      -0.362359        -9.8603
  64   2.0000      -0.332582        -9.0500
  65   2.0000      -0.325107        -8.8466
  66   2.0000      -0.290636        -7.9086
  67   0.0000       0.019763         0.5378
  68   0.0000       0.076730         2.0879
  69   0.0000       0.093556         2.5458
  70   0.0000       0.112092         3.0502
  71   0.0000       0.126031         3.4295

MULLIKEN ATOMIC CHARGES
-----------------------
   0 S :    0.090812
   1 C :   -0.099278
   2 C :   -0.076626
   3 C :    0.010586
   4 C :   -0.099160
   5 H :   -0.005829
   6 C :    0.023392
   7 H :    0.033347
   8 H :    0.036974
   9 C :   -0.067254
  10 H :    0.034437
  11 H :    0.027593
  12 C :   -0.044877
  13 H :    0.034233
  14 H :    0.020439
  15 H :    0.039706
  16 S :    0.072892
  17 C :   -0.085133
  18 C :   -0.005479
  19 C :   -0.102405
  20 C :   -0.101465
  21 H :    0.008331
  22 C :    0.115843
  23 H :    0.034082
  24 H :   -0.023131
  25 C :   -0.098787
  26 H :    0.032321
  27 H :    0.034025
  28 C :   -0.073394
  29 H :    0.040796
  30 H :    0.045159
  31 H :    0.041679
  32 H :    0.038464
  33 H :    0.067707
Sum of atomic charges:   -0.0000000

LOEWDIN ATOMIC CHARGES
----------------------
   0 S :    0.366931
   1 C :   -0.174808
   2 C :   -0.060056
   3 C :   -0.061379
   4 C :   -0.165865
   5 H :    0.017199
   6 C :   -0.037630
   7 H :    0.035994
   8 H :    0.034810
   9 C :   -0.043946
  10 H :    0.023441
  11 H :    0.027216
  12 C :   -0.065816
  13 H :    0.024660
  14 H :    0.024882
  15 H :    0.029165
  16 S :    0.364028
  17 C :   -0.173427
  18 C :   -0.070041
  19 C :   -0.053212
  20 C :   -0.174984
  21 H :    0.027762
  22 C :   -0.029505
  23 H :    0.032040
  24 H :    0.017848
  25 C :   -0.044715
  26 H :    0.024328
  27 H :    0.025378
  28 C :   -0.073346
  29 H :    0.024338
  30 H :    0.037470
  31 H :    0.026383
  32 H :    0.025396
  33 H :    0.039462

  Mayer bond orders larger than 0.100000
B(  0-S ,  1-C ) :   1.1278 B(  0-S ,  4-C ) :   1.1150 B(  1-C ,  2-C ) :   1.6323
B(  1-C , 32-H ) :   0.9675 B(  2-C ,  3-C ) :   1.2225 B(  2-C ,  6-C ) :   1.0284
B(  3-C ,  4-C ) :   1.6141 B(  3-C ,  5-H ) :   0.9847 B(  4-C , 20-C ) :   1.0494
B(  6-C ,  7-H ) :   0.9431 B(  6-C ,  8-H ) :   0.9419 B(  6-C ,  9-C ) :   1.0516
B(  9-C , 10-H ) :   0.9600 B(  9-C , 11-H ) :   0.9516 B(  9-C , 12-C ) :   1.0714
B( 12-C , 13-H ) :   0.9752 B( 12-C , 14-H ) :   0.9723 B( 12-C , 15-H ) :   0.9758
B( 16-S , 17-C ) :   1.1402 B( 16-S , 20-C ) :   1.1011 B( 17-C , 18-C ) :   1.6579
B( 17-C , 33-H ) :   0.9579 B( 18-C , 19-C ) :   1.1998 B( 18-C , 21-H ) :   0.9990
B( 19-C , 20-C ) :   1.6355 B( 19-C , 22-C ) :   1.0449 B( 22-C , 23-H ) :   0.9320
B( 22-C , 24-H ) :   0.9273 B( 22-C , 25-C ) :   1.0433 B( 25-C , 26-H ) :   0.9570
B( 25-C , 27-H ) :   0.9585 B( 25-C , 28-C ) :   1.0878 B( 28-C , 29-H ) :   0.9751
B( 28-C , 30-H ) :   0.9733 B( 28-C , 31-H ) :   0.9749

Dispersion correction           -0.013313814
FINAL SINGLE POINT ENERGY     -1339.862075990729

DIPOLE MOMENT
-------------
                                X             Y             Z
Electronic contribution:      2.48698     -10.91684      32.06230
Nuclear contribution   :     -2.71067      11.14351     -32.81299
                        -----------------------------------------
Total Dipole Moment    :     -0.22369       0.22666      -0.75069
                        -----------------------------------------
Magnitude (a.u.)       :      0.81545
Magnitude (Debye)      :      2.07270

Rotational constants in cm-1:     0.016023     0.008841     0.005959
Rotational constants in MHz :   480.357827   265.035525   178.653154

                             ****ORCA TERMINATED NORMALLY****
TOTAL RUN TIME: 0 days 0 hours 0 minutes 22 seconds 184 msec
