                         Program Version 4.2.1 -  RELEASE  -
|  1> ! wB97X-D3 SP def2-SVP
|  2> %pal
|  3> nprocs 24
|  4> end
|  5>
|  6> * xyz 0 1
|  7> S 	 -65.4496 	 16.1774 	 -107.31
|  8> C 	 -66.1616 	 15.7443 	 -105.737
|  9> C 	 -65.3122 	 14.8542 	 -105.163
| 10> C 	 -64.1448 	 14.5247 	 -105.96
| 11> C 	 -64.0891 	 15.095 	 -107.213
| 12> H 	 -63.3047 	 13.9063 	 -105.682
| 13> C 	 -65.5183 	 14.2027 	 -103.727
| 14> H 	 -66.5422 	 13.9491 	 -103.619
| 15> H 	 -65.3767 	 14.9201 	 -102.907
| 16> C 	 -64.6472 	 13.0454 	 -103.442
| 17> H 	 -64.7349 	 12.2294 	 -104.151
| 18> H 	 -63.5506 	 13.3396 	 -103.484
| 19> C 	 -64.8591 	 12.5331 	 -102.078
| 20> H 	 -64.1929 	 11.7679 	 -101.78
| 21> H 	 -64.7543 	 13.3026 	 -101.342
| 22> H 	 -65.8844 	 12.0574 	 -102.011
| 23> S 	 -62.6297 	 16.6913 	 -108.905
| 24> C 	 -61.3154 	 15.9572 	 -109.812
| 25> C 	 -61.0774 	 14.6404 	 -109.488
| 26> C 	 -62.1148 	 14.1905 	 -108.608
| 27> C 	 -62.9795 	 15.1684 	 -108.167
| 28> H 	 -60.2121 	 14.124 	 -109.932
| 29> C 	 -62.0461 	 12.798 	 -108.083
| 30> H 	 -62.1324 	 12.211 	 -108.982
| 31> H 	 -62.9256 	 12.6108 	 -107.379
| 32> C 	 -60.6834 	 12.4171 	 -107.448
| 33> H 	 -59.9188 	 12.4351 	 -108.215
| 34> H 	 -60.7245 	 11.3662 	 -107.194
| 35> C 	 -60.2778 	 13.1391 	 -106.119
| 36> H 	 -60.9458 	 12.8467 	 -105.252
| 37> H 	 -60.4187 	 14.22 	 -106.294
| 38> H 	 -59.2251 	 12.9415 	 -105.918
| 39> H 	 -67.1037 	 16.0776 	 -105.36
| 40> H 	 -60.8257 	 16.4475 	 -110.655
| 41> *
| 42>
| 43>                          ****END OF INPUT****

CARTESIAN COORDINATES (ANGSTROEM)
---------------------------------
  S    -65.449600   16.177400  -107.310000
  C    -66.161600   15.744300  -105.737000
  C    -65.312200   14.854200  -105.163000
  C    -64.144800   14.524700  -105.960000
  C    -64.089100   15.095000  -107.213000
  H    -63.304700   13.906300  -105.682000
  C    -65.518300   14.202700  -103.727000
  H    -66.542200   13.949100  -103.619000
  H    -65.376700   14.920100  -102.907000
  C    -64.647200   13.045400  -103.442000
  H    -64.734900   12.229400  -104.151000
  H    -63.550600   13.339600  -103.484000
  C    -64.859100   12.533100  -102.078000
  H    -64.192900   11.767900  -101.780000
  H    -64.754300   13.302600  -101.342000
  H    -65.884400   12.057400  -102.011000
  S    -62.629700   16.691300  -108.905000
  C    -61.315400   15.957200  -109.812000
  C    -61.077400   14.640400  -109.488000
  C    -62.114800   14.190500  -108.608000
  C    -62.979500   15.168400  -108.167000
  H    -60.212100   14.124000  -109.932000
  C    -62.046100   12.798000  -108.083000
  H    -62.132400   12.211000  -108.982000
  H    -62.925600   12.610800  -107.379000
  C    -60.683400   12.417100  -107.448000
  H    -59.918800   12.435100  -108.215000
  H    -60.724500   11.366200  -107.194000
  C    -60.277800   13.139100  -106.119000
  H    -60.945800   12.846700  -105.252000
  H    -60.418700   14.220000  -106.294000
  H    -59.225100   12.941500  -105.918000
  H    -67.103700   16.077600  -105.360000
  H    -60.825700   16.447500  -110.655000

 Total Charge           Charge          ....    0
 Multiplicity           Mult            ....    1
 Number of Electrons    NEL             ....  134
 Basis Dimension        Dim             ....  322

ORBITAL ENERGIES
----------------

  NO   OCC          E(Eh)            E(eV)
   0   2.0000     -88.966674     -2420.9063
   1   2.0000     -88.960593     -2420.7408
   2   2.0000     -10.331395      -281.1316
   3   2.0000     -10.326281      -280.9924
   4   2.0000     -10.318855      -280.7903
   5   2.0000     -10.316266      -280.7199
   6   2.0000     -10.307079      -280.4699
   7   2.0000     -10.300815      -280.2994
   8   2.0000     -10.297801      -280.2174
   9   2.0000     -10.293569      -280.1023
  10   2.0000     -10.291961      -280.0585
  11   2.0000     -10.291624      -280.0493
  12   2.0000     -10.289240      -279.9844
  13   2.0000     -10.285725      -279.8888
  14   2.0000     -10.282984      -279.8142
  15   2.0000     -10.273542      -279.5573
  16   2.0000      -8.081737      -219.9153
  17   2.0000      -8.075262      -219.7390
  18   2.0000      -6.040240      -164.3633
  19   2.0000      -6.036241      -164.2545
  20   2.0000      -6.033953      -164.1922
  21   2.0000      -6.032429      -164.1507
  22   2.0000      -6.029599      -164.0737
  23   2.0000      -6.025984      -163.9754
  24   2.0000      -1.010361       -27.4933
  25   2.0000      -0.986114       -26.8335
  26   2.0000      -0.922510       -25.1028
  27   2.0000      -0.908288       -24.7158
  28   2.0000      -0.876947       -23.8629
  29   2.0000      -0.847768       -23.0689
  30   2.0000      -0.838809       -22.8252
  31   2.0000      -0.819800       -22.3079
  32   2.0000      -0.782841       -21.3022
  33   2.0000      -0.775149       -21.0929
  34   2.0000      -0.712177       -19.3793
  35   2.0000      -0.697077       -18.9684
  36   2.0000      -0.690985       -18.8027
  37   2.0000      -0.660348       -17.9690
  38   2.0000      -0.645869       -17.5750
  39   2.0000      -0.618409       -16.8278
  40   2.0000      -0.590694       -16.0736
  41   2.0000      -0.579274       -15.7628
  42   2.0000      -0.570959       -15.5366
  43   2.0000      -0.554396       -15.0859
  44   2.0000      -0.540136       -14.6978
  45   2.0000      -0.528943       -14.3933
  46   2.0000      -0.520036       -14.1509
  47   2.0000      -0.513601       -13.9758
  48   2.0000      -0.504100       -13.7173
  49   2.0000      -0.501683       -13.6515
  50   2.0000      -0.488856       -13.3025
  51   2.0000      -0.485200       -13.2030
  52   2.0000      -0.476891       -12.9769
  53   2.0000      -0.462218       -12.5776
  54   2.0000      -0.459071       -12.4920
  55   2.0000      -0.451482       -12.2855
  56   2.0000      -0.443692       -12.0735
  57   2.0000      -0.440361       -11.9828
  58   2.0000      -0.437893       -11.9157
  59   2.0000      -0.427417       -11.6306
  60   2.0000      -0.415605       -11.3092
  61   2.0000      -0.409980       -11.1561
  62   2.0000      -0.402430       -10.9507
  63   2.0000      -0.356462        -9.6998
  64   2.0000      -0.331992        -9.0340
  65   2.0000      -0.326422        -8.8824
  66   2.0000      -0.291732        -7.9384
  67   0.0000       0.026677         0.7259
  68   0.0000       0.079212         2.1555
  69   0.0000       0.106364         2.8943
  70   0.0000       0.121712         3.3120
  71   0.0000       0.127695         3.4748

MULLIKEN ATOMIC CHARGES
-----------------------
   0 S :    0.071403
   1 C :   -0.113705
   2 C :   -0.058098
   3 C :    0.006028
   4 C :   -0.112792
   5 H :   -0.005815
   6 C :    0.089333
   7 H :    0.010564
   8 H :    0.030142
   9 C :   -0.113012
  10 H :    0.029656
  11 H :    0.038575
  12 C :   -0.015265
  13 H :    0.020038
  14 H :    0.020080
  15 H :    0.028818
  16 S :    0.112608
  17 C :   -0.100269
  18 C :   -0.046745
  19 C :   -0.063471
  20 C :   -0.127328
  21 H :    0.038414
  22 C :    0.054803
  23 H :    0.027302
  24 H :    0.040709
  25 C :   -0.083017
  26 H :    0.021142
  27 H :    0.025466
  28 C :   -0.069594
  29 H :    0.049369
  30 H :    0.048588
  31 H :    0.042862
  32 H :    0.042275
  33 H :    0.060934
Sum of atomic charges:    0.0000000

LOEWDIN ATOMIC CHARGES
----------------------
   0 S :    0.388076
   1 C :   -0.180250
   2 C :   -0.058747
   3 C :   -0.074041
   4 C :   -0.186906
   5 H :    0.024369
   6 C :   -0.026498
   7 H :    0.024243
   8 H :    0.034268
   9 C :   -0.054324
  10 H :    0.023203
  11 H :    0.029455
  12 C :   -0.059369
  13 H :    0.020846
  14 H :    0.020447
  15 H :    0.030253
  16 S :    0.410473
  17 C :   -0.176063
  18 C :   -0.073258
  19 C :   -0.060815
  20 C :   -0.209174
  21 H :    0.041321
  22 C :   -0.037106
  23 H :    0.034341
  24 H :    0.036600
  25 C :   -0.040823
  26 H :    0.018925
  27 H :    0.023638
  28 C :   -0.071123
  29 H :    0.030529
  30 H :    0.028696
  31 H :    0.028924
  32 H :    0.029722
  33 H :    0.030169

  Mayer bond orders larger than 0.100000
B(  0-S ,  1-C ) :   1.1215 B(  0-S ,  4-C ) :   1.1469 B(  1-C ,  2-C ) :   1.6227
B(  1-C , 32-H ) :   0.9832 B(  2-C ,  3-C ) :   1.2433 B(  2-C ,  6-C ) :   0.9856
B(  3-C ,  4-C ) :   1.5632 B(  3-C ,  5-H ) :   0.9849 B(  4-C , 20-C ) :   1.0411
B(  6-C ,  7-H ) :   0.9423 B(  6-C ,  8-H ) :   0.9369 B(  6-C ,  9-C ) :   1.0938
B(  9-C , 10-H ) :   0.9501 B(  9-C , 11-H ) :   0.9358 B(  9-C , 12-C ) :   1.1006
B( 12-C , 13-H ) :   0.9682 B( 12-C , 14-H ) :   0.9703 B( 12-C , 15-H ) :   0.9686
B( 16-S , 17-C ) :   1.1593 B( 16-S , 20-C ) :   1.1242 B( 17-C , 18-C ) :   1.6241
B( 17-C , 33-H ) :   0.9631 B( 18-C , 19-C ) :   1.2110 B( 18-C , 21-H ) :   0.9897
B( 19-C , 20-C ) :   1.6100 B( 19-C , 22-C ) :   1.0519 B( 22-C , 23-H ) :   0.9164
B( 22-C , 24-H ) :   0.9363 B( 22-C , 25-C ) :   1.0842 B( 25-C , 26-H ) :   0.9508
B( 25-C , 27-H ) :   0.9527 B( 25-C , 28-C ) :   1.0673 B( 28-C , 29-H ) :   0.9694
B( 28-C , 30-H ) :   0.9776 B( 28-C , 31-H ) :   0.9722

Dispersion correction           -0.014675639
FINAL SINGLE POINT ENERGY     -1339.878725332289

DIPOLE MOMENT
-------------
                                X             Y             Z
Electronic contribution:     -7.86422      21.72386     -21.37025
Nuclear contribution   :      8.21274     -22.28562      21.71710
                        -----------------------------------------
Total Dipole Moment    :      0.34852      -0.56176       0.34686
                        -----------------------------------------
Magnitude (a.u.)       :      0.74656
Magnitude (Debye)      :      1.89760

Rotational constants in cm-1:     0.018490     0.009669     0.006739
Rotational constants in MHz :   554.302210   289.878064   202.020060

                             ****ORCA TERMINATED NORMALLY****
TOTAL RUN TIME: 0 days 0 hours 0 minutes 22 seconds 265 msec
