                         Program Version 4.2.1 -  RELEASE  -
|  1> ! wB97X-D3 SP def2-SVP
|  2> %pal
|  3> nprocs 24
|  4> end
|  5>
|  6> * xyz 0 1
|  7> S 	 -130.38 	 64.7229 	 -58.3056
|  8> C 	 -129.22 	 65.541 	 -57.305
|  9> C 	 -128.501 	 66.5545 	 -57.8947
| 10> C 	 -129.029 	 66.8448 	 -59.1955
| 11> C 	 -130.033 	 65.9543 	 -59.5477
| 12> H 	 -128.831 	 67.6917 	 -59.8586
| 13> C 	 -127.33 	 67.2221 	 -57.4374
| 14> H 	 -127.51 	 68.3235 	 -57.6543
| 15> H 	 -126.565 	 66.8188 	 -58.0817
| 16> C 	 -127.016 	 67.1979 	 -55.9256
| 17> H 	 -127.834 	 67.7821 	 -55.4613
| 18> H 	 -127.073 	 66.1664 	 -55.5321
| 19> C 	 -125.673 	 67.8459 	 -55.6084
| 20> H 	 -125.794 	 68.871 	 -56.014
| 21> H 	 -125.495 	 67.8775 	 -54.5399
| 22> H 	 -124.869 	 67.2971 	 -56.0221
| 23> S 	 -132.562 	 66.0743 	 -60.6961
| 24> C 	 -132.657 	 66.219 	 -62.4356
| 25> C 	 -131.408 	 66.2164 	 -63.0256
| 26> C 	 -130.347 	 65.932 	 -62.1216
| 27> C 	 -130.817 	 65.9415 	 -60.7868
| 28> H 	 -131.381 	 66.3684 	 -64.073
| 29> C 	 -128.86 	 65.7967 	 -62.5072
| 30> H 	 -128.25 	 65.5303 	 -61.5751
| 31> H 	 -128.667 	 66.857 	 -62.726
| 32> C 	 -128.498 	 64.9549 	 -63.744
| 33> H 	 -127.5 	 65.0995 	 -63.892
| 34> H 	 -129.149 	 65.3159 	 -64.478
| 35> C 	 -128.846 	 63.4496 	 -63.6818
| 36> H 	 -128.39 	 62.9859 	 -62.8087
| 37> H 	 -128.496 	 62.8874 	 -64.5181
| 38> H 	 -129.961 	 63.5561 	 -63.5298
| 39> H 	 -128.957 	 65.2085 	 -56.3003
| 40> H 	 -133.624 	 66.4817 	 -62.8476
| 41> *
| 42>
| 43>                          ****END OF INPUT****

CARTESIAN COORDINATES (ANGSTROEM)
---------------------------------
  S    -130.380000   64.722900  -58.305600
  C    -129.220000   65.541000  -57.305000
  C    -128.501000   66.554500  -57.894700
  C    -129.029000   66.844800  -59.195500
  C    -130.033000   65.954300  -59.547700
  H    -128.831000   67.691700  -59.858600
  C    -127.330000   67.222100  -57.437400
  H    -127.510000   68.323500  -57.654300
  H    -126.565000   66.818800  -58.081700
  C    -127.016000   67.197900  -55.925600
  H    -127.834000   67.782100  -55.461300
  H    -127.073000   66.166400  -55.532100
  C    -125.673000   67.845900  -55.608400
  H    -125.794000   68.871000  -56.014000
  H    -125.495000   67.877500  -54.539900
  H    -124.869000   67.297100  -56.022100
  S    -132.562000   66.074300  -60.696100
  C    -132.657000   66.219000  -62.435600
  C    -131.408000   66.216400  -63.025600
  C    -130.347000   65.932000  -62.121600
  C    -130.817000   65.941500  -60.786800
  H    -131.381000   66.368400  -64.073000
  C    -128.860000   65.796700  -62.507200
  H    -128.250000   65.530300  -61.575100
  H    -128.667000   66.857000  -62.726000
  C    -128.498000   64.954900  -63.744000
  H    -127.500000   65.099500  -63.892000
  H    -129.149000   65.315900  -64.478000
  C    -128.846000   63.449600  -63.681800
  H    -128.390000   62.985900  -62.808700
  H    -128.496000   62.887400  -64.518100
  H    -129.961000   63.556100  -63.529800
  H    -128.957000   65.208500  -56.300300
  H    -133.624000   66.481700  -62.847600

 Total Charge           Charge          ....    0
 Multiplicity           Mult            ....    1
 Number of Electrons    NEL             ....  134
 Basis Dimension        Dim             ....  322

ORBITAL ENERGIES
----------------

  NO   OCC          E(Eh)            E(eV)
   0   2.0000     -88.964811     -2420.8556
   1   2.0000     -88.963248     -2420.8131
   2   2.0000     -10.328180      -281.0441
   3   2.0000     -10.323525      -280.9174
   4   2.0000     -10.317466      -280.7525
   5   2.0000     -10.307635      -280.4850
   6   2.0000     -10.307178      -280.4726
   7   2.0000     -10.297338      -280.2048
   8   2.0000     -10.294297      -280.1221
   9   2.0000     -10.294241      -280.1205
  10   2.0000     -10.293958      -280.1128
  11   2.0000     -10.290933      -280.0305
  12   2.0000     -10.290771      -280.0261
  13   2.0000     -10.278356      -279.6883
  14   2.0000     -10.275140      -279.6008
  15   2.0000     -10.274255      -279.5767
  16   2.0000      -8.079376      -219.8510
  17   2.0000      -8.078246      -219.8203
  18   2.0000      -6.037812      -164.2972
  19   2.0000      -6.036561      -164.2632
  20   2.0000      -6.034161      -164.1979
  21   2.0000      -6.032742      -164.1592
  22   2.0000      -6.029977      -164.0840
  23   2.0000      -6.029184      -164.0624
  24   2.0000      -1.002910       -27.2906
  25   2.0000      -0.982991       -26.7485
  26   2.0000      -0.919552       -25.0223
  27   2.0000      -0.908179       -24.7128
  28   2.0000      -0.866686       -23.5837
  29   2.0000      -0.856469       -23.3057
  30   2.0000      -0.847986       -23.0749
  31   2.0000      -0.812599       -22.1119
  32   2.0000      -0.782620       -21.2962
  33   2.0000      -0.767560       -20.8864
  34   2.0000      -0.712963       -19.4007
  35   2.0000      -0.701043       -19.0763
  36   2.0000      -0.687762       -18.7149
  37   2.0000      -0.654956       -17.8223
  38   2.0000      -0.635158       -17.2835
  39   2.0000      -0.610097       -16.6016
  40   2.0000      -0.598772       -16.2934
  41   2.0000      -0.584073       -15.8934
  42   2.0000      -0.563760       -15.3407
  43   2.0000      -0.558754       -15.2045
  44   2.0000      -0.545600       -14.8465
  45   2.0000      -0.527038       -14.3414
  46   2.0000      -0.520154       -14.1541
  47   2.0000      -0.517269       -14.0756
  48   2.0000      -0.504081       -13.7167
  49   2.0000      -0.485923       -13.2226
  50   2.0000      -0.482535       -13.1304
  51   2.0000      -0.478251       -13.0139
  52   2.0000      -0.470371       -12.7994
  53   2.0000      -0.463754       -12.6194
  54   2.0000      -0.455671       -12.3994
  55   2.0000      -0.450905       -12.2697
  56   2.0000      -0.448136       -12.1944
  57   2.0000      -0.436045       -11.8654
  58   2.0000      -0.434689       -11.8285
  59   2.0000      -0.431658       -11.7460
  60   2.0000      -0.423572       -11.5260
  61   2.0000      -0.417087       -11.3495
  62   2.0000      -0.407353       -11.0846
  63   2.0000      -0.342443        -9.3184
  64   2.0000      -0.328111        -8.9283
  65   2.0000      -0.324551        -8.8315
  66   2.0000      -0.289758        -7.8847
  67   0.0000       0.033666         0.9161
  68   0.0000       0.070078         1.9069
  69   0.0000       0.108633         2.9560
  70   0.0000       0.121405         3.3036
  71   0.0000       0.133021         3.6197

MULLIKEN ATOMIC CHARGES
-----------------------
   0 S :    0.114263
   1 C :   -0.116604
   2 C :   -0.075141
   3 C :    0.014497
   4 C :   -0.169928
   5 H :    0.025055
   6 C :    0.033869
   7 H :    0.037608
   8 H :    0.045149
   9 C :   -0.121842
  10 H :    0.037943
  11 H :    0.032683
  12 C :   -0.004171
  13 H :    0.032148
  14 H :    0.033363
  15 H :    0.027604
  16 S :    0.108008
  17 C :   -0.104734
  18 C :   -0.034053
  19 C :   -0.035744
  20 C :   -0.173145
  21 H :    0.013832
  22 C :    0.017014
  23 H :    0.049891
  24 H :    0.042026
  25 C :   -0.005471
  26 H :    0.012757
  27 H :    0.010468
  28 C :   -0.060845
  29 H :    0.026814
  30 H :    0.038475
  31 H :    0.049525
  32 H :    0.036501
  33 H :    0.062186
Sum of atomic charges:   -0.0000000

LOEWDIN ATOMIC CHARGES
----------------------
   0 S :    0.390326
   1 C :   -0.206921
   2 C :   -0.068703
   3 C :   -0.057573
   4 C :   -0.177413
   5 H :    0.037861
   6 C :   -0.040656
   7 H :    0.042005
   8 H :    0.038265
   9 C :   -0.043414
  10 H :    0.029623
  11 H :    0.019124
  12 C :   -0.057971
  13 H :    0.030913
  14 H :    0.026649
  15 H :    0.020079
  16 S :    0.405194
  17 C :   -0.180215
  18 C :   -0.074990
  19 C :   -0.054745
  20 C :   -0.211975
  21 H :    0.026597
  22 C :   -0.034968
  23 H :    0.037729
  24 H :    0.037790
  25 C :   -0.028366
  26 H :    0.011300
  27 H :    0.016894
  28 C :   -0.063352
  29 H :    0.022038
  30 H :    0.022253
  31 H :    0.038170
  32 H :    0.021980
  33 H :    0.026470

  Mayer bond orders larger than 0.100000
B(  0-S ,  1-C ) :   1.1152 B(  0-S ,  4-C ) :   1.1427 B(  1-C ,  2-C ) :   1.6527
B(  1-C , 32-H ) :   0.9569 B(  2-C ,  3-C ) :   1.1966 B(  2-C ,  6-C ) :   1.0241
B(  3-C ,  4-C ) :   1.6098 B(  3-C ,  5-H ) :   0.9927 B(  4-C , 20-C ) :   1.0321
B(  6-C ,  7-H ) :   0.9338 B(  6-C ,  8-H ) :   0.9280 B(  6-C ,  9-C ) :   1.0705
B(  9-C , 10-H ) :   0.9580 B(  9-C , 11-H ) :   0.9485 B(  9-C , 12-C ) :   1.0893
B( 12-C , 13-H ) :   0.9717 B( 12-C , 14-H ) :   0.9723 B( 12-C , 15-H ) :   0.9757
B( 16-S , 17-C ) :   1.1641 B( 16-S , 20-C ) :   1.1578 B( 17-C , 18-C ) :   1.5959
B( 17-C , 20-C ) :   0.1028 B( 17-C , 33-H ) :   0.9684 B( 18-C , 19-C ) :   1.2286
B( 18-C , 21-H ) :   0.9964 B( 19-C , 20-C ) :   1.5682 B( 19-C , 22-C ) :   1.0215
B( 22-C , 23-H ) :   0.9337 B( 22-C , 24-H ) :   0.9358 B( 22-C , 25-C ) :   1.0724
B( 25-C , 26-H ) :   0.9515 B( 25-C , 27-H ) :   0.9567 B( 25-C , 28-C ) :   1.0713
B( 28-C , 29-H ) :   0.9768 B( 28-C , 30-H ) :   0.9755 B( 28-C , 31-H ) :   0.9770

Dispersion correction           -0.013939162
FINAL SINGLE POINT ENERGY     -1339.867548905974

DIPOLE MOMENT
-------------
                                X             Y             Z
Electronic contribution:    -23.88015      -3.61548       0.92077
Nuclear contribution   :     24.48001       3.99256      -1.12147
                        -----------------------------------------
Total Dipole Moment    :      0.59986       0.37708      -0.20070
                        -----------------------------------------
Magnitude (a.u.)       :      0.73641
Magnitude (Debye)      :      1.87180

Rotational constants in cm-1:     0.021472     0.007267     0.006236
Rotational constants in MHz :   643.710893   217.867481   186.947784

                             ****ORCA TERMINATED NORMALLY****
TOTAL RUN TIME: 0 days 0 hours 0 minutes 21 seconds 256 msec
