                         Program Version 4.2.1 -  RELEASE  -
|  1> ! wB97X-D3 SP def2-SVP
|  2> %pal
|  3> nprocs 24
|  4> end
|  5>
|  6> * xyz 0 1
|  7> S 	 -111.152 	 36.7231 	 -115.869
|  8> C 	 -110.769 	 35.6101 	 -117.205
|  9> C 	 -111.138 	 34.3152 	 -116.857
| 10> C 	 -111.697 	 34.2841 	 -115.534
| 11> C 	 -111.883 	 35.4885 	 -114.899
| 12> H 	 -111.971 	 33.3954 	 -115.062
| 13> C 	 -111.034 	 33.0392 	 -117.651
| 14> H 	 -110.602 	 32.3412 	 -116.931
| 15> H 	 -110.391 	 33.2006 	 -118.497
| 16> C 	 -112.428 	 32.569 	 -118.136
| 17> H 	 -113.22 	 32.7077 	 -117.399
| 18> H 	 -112.859 	 33.1908 	 -118.891
| 19> C 	 -112.457 	 31.058 	 -118.347
| 20> H 	 -111.957 	 30.75 	 -119.256
| 21> H 	 -112.056 	 30.4205 	 -117.536
| 22> H 	 -113.468 	 30.7881 	 -118.615
| 23> S 	 -111.086 	 35.8178 	 -112.323
| 24> C 	 -112.336 	 36.1447 	 -111.091
| 25> C 	 -113.564 	 36.4046 	 -111.639
| 26> C 	 -113.581 	 36.0238 	 -112.996
| 27> C 	 -112.349 	 35.6889 	 -113.555
| 28> H 	 -114.402 	 36.7536 	 -110.935
| 29> C 	 -114.861 	 35.9187 	 -113.812
| 30> H 	 -114.757 	 36.5933 	 -114.754
| 31> H 	 -115.645 	 36.428 	 -113.22
| 32> C 	 -115.332 	 34.5168 	 -114.053
| 33> H 	 -115.247 	 33.9302 	 -113.159
| 34> H 	 -114.725 	 34.0858 	 -114.854
| 35> C 	 -116.762 	 34.5976 	 -114.461
| 36> H 	 -117.321 	 33.6867 	 -114.396
| 37> H 	 -116.97 	 35.0329 	 -115.464
| 38> H 	 -117.358 	 35.1512 	 -113.758
| 39> H 	 -110.301 	 35.8803 	 -118.041
| 40> H 	 -112.224 	 36.4482 	 -110.033
| 41> *
| 42>
| 43>                          ****END OF INPUT****

CARTESIAN COORDINATES (ANGSTROEM)
---------------------------------
  S    -111.152000   36.723100  -115.869000
  C    -110.769000   35.610100  -117.205000
  C    -111.138000   34.315200  -116.857000
  C    -111.697000   34.284100  -115.534000
  C    -111.883000   35.488500  -114.899000
  H    -111.971000   33.395400  -115.062000
  C    -111.034000   33.039200  -117.651000
  H    -110.602000   32.341200  -116.931000
  H    -110.391000   33.200600  -118.497000
  C    -112.428000   32.569000  -118.136000
  H    -113.220000   32.707700  -117.399000
  H    -112.859000   33.190800  -118.891000
  C    -112.457000   31.058000  -118.347000
  H    -111.957000   30.750000  -119.256000
  H    -112.056000   30.420500  -117.536000
  H    -113.468000   30.788100  -118.615000
  S    -111.086000   35.817800  -112.323000
  C    -112.336000   36.144700  -111.091000
  C    -113.564000   36.404600  -111.639000
  C    -113.581000   36.023800  -112.996000
  C    -112.349000   35.688900  -113.555000
  H    -114.402000   36.753600  -110.935000
  C    -114.861000   35.918700  -113.812000
  H    -114.757000   36.593300  -114.754000
  H    -115.645000   36.428000  -113.220000
  C    -115.332000   34.516800  -114.053000
  H    -115.247000   33.930200  -113.159000
  H    -114.725000   34.085800  -114.854000
  C    -116.762000   34.597600  -114.461000
  H    -117.321000   33.686700  -114.396000
  H    -116.970000   35.032900  -115.464000
  H    -117.358000   35.151200  -113.758000
  H    -110.301000   35.880300  -118.041000
  H    -112.224000   36.448200  -110.033000

 Total Charge           Charge          ....    0
 Multiplicity           Mult            ....    1
 Number of Electrons    NEL             ....  134
 Basis Dimension        Dim             ....  322

ORBITAL ENERGIES
----------------

  NO   OCC          E(Eh)            E(eV)
   0   2.0000     -88.965303     -2420.8690
   1   2.0000     -88.962752     -2420.7996
   2   2.0000     -10.325090      -280.9600
   3   2.0000     -10.323343      -280.9124
   4   2.0000     -10.319147      -280.7983
   5   2.0000     -10.309900      -280.5466
   6   2.0000     -10.302452      -280.3440
   7   2.0000     -10.300761      -280.2980
   8   2.0000     -10.298403      -280.2338
   9   2.0000     -10.294029      -280.1148
  10   2.0000     -10.290835      -280.0279
  11   2.0000     -10.286571      -279.9118
  12   2.0000     -10.286286      -279.9041
  13   2.0000     -10.279021      -279.7064
  14   2.0000     -10.278071      -279.6805
  15   2.0000     -10.269920      -279.4587
  16   2.0000      -8.079187      -219.8459
  17   2.0000      -8.077339      -219.7956
  18   2.0000      -6.037814      -164.2973
  19   2.0000      -6.035945      -164.2464
  20   2.0000      -6.033831      -164.1889
  21   2.0000      -6.031756      -164.1324
  22   2.0000      -6.029831      -164.0801
  23   2.0000      -6.028095      -164.0328
  24   2.0000      -1.005513       -27.3614
  25   2.0000      -0.981879       -26.7183
  26   2.0000      -0.915587       -24.9144
  27   2.0000      -0.914100       -24.8739
  28   2.0000      -0.873441       -23.7675
  29   2.0000      -0.848489       -23.0886
  30   2.0000      -0.846396       -23.0316
  31   2.0000      -0.817070       -22.2336
  32   2.0000      -0.781745       -21.2724
  33   2.0000      -0.766488       -20.8572
  34   2.0000      -0.712842       -19.3974
  35   2.0000      -0.709049       -19.2942
  36   2.0000      -0.693122       -18.8608
  37   2.0000      -0.656822       -17.8730
  38   2.0000      -0.650099       -17.6901
  39   2.0000      -0.621629       -16.9154
  40   2.0000      -0.588952       -16.0262
  41   2.0000      -0.570596       -15.5267
  42   2.0000      -0.568669       -15.4743
  43   2.0000      -0.561822       -15.2880
  44   2.0000      -0.527700       -14.3594
  45   2.0000      -0.520377       -14.1602
  46   2.0000      -0.516857       -14.0644
  47   2.0000      -0.514068       -13.9885
  48   2.0000      -0.508402       -13.8343
  49   2.0000      -0.501343       -13.6422
  50   2.0000      -0.500316       -13.6143
  51   2.0000      -0.471817       -12.8388
  52   2.0000      -0.469767       -12.7830
  53   2.0000      -0.462202       -12.5772
  54   2.0000      -0.457220       -12.4416
  55   2.0000      -0.451975       -12.2989
  56   2.0000      -0.449068       -12.2198
  57   2.0000      -0.440087       -11.9754
  58   2.0000      -0.432509       -11.7692
  59   2.0000      -0.416512       -11.3339
  60   2.0000      -0.415935       -11.3182
  61   2.0000      -0.413888       -11.2625
  62   2.0000      -0.410225       -11.1628
  63   2.0000      -0.338116        -9.2006
  64   2.0000      -0.324105        -8.8194
  65   2.0000      -0.319343        -8.6898
  66   2.0000      -0.310094        -8.4381
  67   0.0000       0.041928         1.1409
  68   0.0000       0.049845         1.3563
  69   0.0000       0.112250         3.0545
  70   0.0000       0.120971         3.2918
  71   0.0000       0.128886         3.5072

MULLIKEN ATOMIC CHARGES
-----------------------
   0 S :    0.108416
   1 C :   -0.078834
   2 C :   -0.089914
   3 C :    0.049033
   4 C :   -0.149770
   5 H :   -0.014511
   6 C :    0.110313
   7 H :    0.033787
   8 H :    0.021170
   9 C :   -0.071734
  10 H :    0.023945
  11 H :    0.021089
  12 C :   -0.040629
  13 H :    0.018253
  14 H :    0.045802
  15 H :    0.021053
  16 S :    0.110651
  17 C :   -0.090135
  18 C :   -0.080555
  19 C :   -0.024334
  20 C :   -0.174615
  21 H :    0.054496
  22 C :    0.019183
  23 H :    0.051269
  24 H :    0.004441
  25 C :   -0.008041
  26 H :    0.025282
  27 H :    0.036661
  28 C :   -0.041106
  29 H :    0.014970
  30 H :    0.034691
  31 H :    0.007958
  32 H :   -0.009638
  33 H :    0.061352
Sum of atomic charges:    0.0000000

LOEWDIN ATOMIC CHARGES
----------------------
   0 S :    0.401091
   1 C :   -0.167689
   2 C :   -0.056722
   3 C :   -0.051599
   4 C :   -0.210562
   5 H :    0.017934
   6 C :   -0.023223
   7 H :    0.036483
   8 H :    0.028648
   9 C :   -0.041696
  10 H :    0.025604
  11 H :    0.025865
  12 C :   -0.067988
  13 H :    0.020412
  14 H :    0.030823
  15 H :    0.025394
  16 S :    0.391773
  17 C :   -0.180712
  18 C :   -0.085502
  19 C :   -0.053155
  20 C :   -0.201363
  21 H :    0.051338
  22 C :   -0.038079
  23 H :    0.042694
  24 H :    0.024193
  25 C :   -0.038344
  26 H :    0.027151
  27 H :    0.028276
  28 C :   -0.069060
  29 H :    0.021326
  30 H :    0.030429
  31 H :    0.020272
  32 H :   -0.000719
  33 H :    0.036706

  Mayer bond orders larger than 0.100000
B(  0-S ,  1-C ) :   1.1365 B(  0-S ,  4-C ) :   1.1428 B(  1-C ,  2-C ) :   1.5950
B(  1-C , 32-H ) :   0.9901 B(  2-C ,  3-C ) :   1.2367 B(  2-C ,  6-C ) :   1.0265
B(  3-C ,  4-C ) :   1.5805 B(  3-C ,  5-H ) :   0.9978 B(  4-C , 20-C ) :   1.0462
B(  6-C ,  7-H ) :   0.9421 B(  6-C ,  8-H ) :   0.9364 B(  6-C ,  9-C ) :   1.0516
B(  9-C , 10-H ) :   0.9636 B(  9-C , 11-H ) :   0.9499 B(  9-C , 12-C ) :   1.0741
B( 12-C , 13-H ) :   0.9727 B( 12-C , 14-H ) :   0.9768 B( 12-C , 15-H ) :   0.9711
B( 16-S , 17-C ) :   1.1519 B( 16-S , 20-C ) :   1.1300 B( 17-C , 18-C ) :   1.6413
B( 17-C , 20-C ) :   0.1032 B( 17-C , 33-H ) :   0.9535 B( 18-C , 19-C ) :   1.2496
B( 18-C , 21-H ) :   0.9736 B( 19-C , 20-C ) :   1.5966 B( 19-C , 22-C ) :   1.0435
B( 22-C , 23-H ) :   0.9234 B( 22-C , 24-H ) :   0.9397 B( 22-C , 25-C ) :   1.0717
B( 25-C , 26-H ) :   0.9481 B( 25-C , 27-H ) :   0.9435 B( 25-C , 28-C ) :   1.1001
B( 28-C , 29-H ) :   0.9693 B( 28-C , 30-H ) :   0.9711 B( 28-C , 31-H ) :   0.9694

Dispersion correction           -0.014371719
FINAL SINGLE POINT ENERGY     -1339.858012987666

DIPOLE MOMENT
-------------
                                X             Y             Z
Electronic contribution:     19.20877      18.38934      12.99952
Nuclear contribution   :    -19.66203     -18.77009     -13.15889
                        -----------------------------------------
Total Dipole Moment    :     -0.45326      -0.38074      -0.15936
                        -----------------------------------------
Magnitude (a.u.)       :      0.61303
Magnitude (Debye)      :      1.55820

Rotational constants in cm-1:     0.017310     0.009180     0.007098
Rotational constants in MHz :   518.947599   275.206076   212.795314

                             ****ORCA TERMINATED NORMALLY****
TOTAL RUN TIME: 0 days 0 hours 0 minutes 21 seconds 743 msec
