                         Program Version 4.2.1 -  RELEASE  -
|  1> ! wB97X-D3 SP def2-SVP
|  2> %pal
|  3> nprocs 24
|  4> end
|  5>
|  6> * xyz 0 1
|  7> S 	 -107.836 	 18.1856 	 -115.507
|  8> C 	 -106.319 	 18.4965 	 -116.346
|  9> C 	 -105.758 	 19.7207 	 -116.029
| 10> C 	 -106.601 	 20.3724 	 -115.07
| 11> C 	 -107.732 	 19.7031 	 -114.659
| 12> H 	 -106.569 	 21.4281 	 -114.771
| 13> C 	 -104.659 	 20.3455 	 -116.827
| 14> H 	 -104.87 	 21.3377 	 -117.143
| 15> H 	 -104.577 	 19.847 	 -117.788
| 16> C 	 -103.302 	 20.4071 	 -116.155
| 17> H 	 -102.497 	 20.8298 	 -116.805
| 18> H 	 -103.327 	 21.2441 	 -115.462
| 19> C 	 -102.856 	 19.1024 	 -115.482
| 20> H 	 -102.492 	 18.3775 	 -116.22
| 21> H 	 -101.997 	 19.1957 	 -114.835
| 22> H 	 -103.662 	 18.6178 	 -114.941
| 23> S 	 -109.517 	 18.9183 	 -112.723
| 24> C 	 -110.643 	 20.1445 	 -112.139
| 25> C 	 -110.286 	 21.4017 	 -112.595
| 26> C 	 -109.291 	 21.4289 	 -113.581
| 27> C 	 -108.759 	 20.1915 	 -113.793
| 28> H 	 -110.748 	 22.3374 	 -112.286
| 29> C 	 -109.018 	 22.6215 	 -114.456
| 30> H 	 -107.99 	 22.7657 	 -114.101
| 31> H 	 -109.611 	 23.4259 	 -113.995
| 32> C 	 -109.292 	 22.4358 	 -115.969
| 33> H 	 -110.395 	 22.1898 	 -116.074
| 34> H 	 -108.867 	 21.4964 	 -116.314
| 35> C 	 -109.087 	 23.5917 	 -117.003
| 36> H 	 -109.499 	 23.309 	 -117.996
| 37> H 	 -108.021 	 23.8076 	 -117.147
| 38> H 	 -109.689 	 24.4917 	 -116.893
| 39> H 	 -105.92 	 17.8346 	 -117.124
| 40> H 	 -111.494 	 20.0111 	 -111.563
| 41> *
| 42>
| 43>                          ****END OF INPUT****

CARTESIAN COORDINATES (ANGSTROEM)
---------------------------------
  S    -107.836000   18.185600  -115.507000
  C    -106.319000   18.496500  -116.346000
  C    -105.758000   19.720700  -116.029000
  C    -106.601000   20.372400  -115.070000
  C    -107.732000   19.703100  -114.659000
  H    -106.569000   21.428100  -114.771000
  C    -104.659000   20.345500  -116.827000
  H    -104.870000   21.337700  -117.143000
  H    -104.577000   19.847000  -117.788000
  C    -103.302000   20.407100  -116.155000
  H    -102.497000   20.829800  -116.805000
  H    -103.327000   21.244100  -115.462000
  C    -102.856000   19.102400  -115.482000
  H    -102.492000   18.377500  -116.220000
  H    -101.997000   19.195700  -114.835000
  H    -103.662000   18.617800  -114.941000
  S    -109.517000   18.918300  -112.723000
  C    -110.643000   20.144500  -112.139000
  C    -110.286000   21.401700  -112.595000
  C    -109.291000   21.428900  -113.581000
  C    -108.759000   20.191500  -113.793000
  H    -110.748000   22.337400  -112.286000
  C    -109.018000   22.621500  -114.456000
  H    -107.990000   22.765700  -114.101000
  H    -109.611000   23.425900  -113.995000
  C    -109.292000   22.435800  -115.969000
  H    -110.395000   22.189800  -116.074000
  H    -108.867000   21.496400  -116.314000
  C    -109.087000   23.591700  -117.003000
  H    -109.499000   23.309000  -117.996000
  H    -108.021000   23.807600  -117.147000
  H    -109.689000   24.491700  -116.893000
  H    -105.920000   17.834600  -117.124000
  H    -111.494000   20.011100  -111.563000

 Total Charge           Charge          ....    0
 Multiplicity           Mult            ....    1
 Number of Electrons    NEL             ....  134
 Basis Dimension        Dim             ....  322

ORBITAL ENERGIES
----------------

  NO   OCC          E(Eh)            E(eV)
   0   2.0000     -88.967654     -2420.9330
   1   2.0000     -88.965896     -2420.8851
   2   2.0000     -10.325940      -280.9831
   3   2.0000     -10.325646      -280.9751
   4   2.0000     -10.317795      -280.7615
   5   2.0000     -10.315736      -280.7054
   6   2.0000     -10.304403      -280.3970
   7   2.0000     -10.298929      -280.2481
   8   2.0000     -10.298441      -280.2348
   9   2.0000     -10.296666      -280.1865
  10   2.0000     -10.294197      -280.1193
  11   2.0000     -10.292409      -280.0707
  12   2.0000     -10.289106      -279.9808
  13   2.0000     -10.286156      -279.9005
  14   2.0000     -10.285731      -279.8890
  15   2.0000     -10.271205      -279.4937
  16   2.0000      -8.082289      -219.9303
  17   2.0000      -8.079381      -219.8511
  18   2.0000      -6.040741      -164.3769
  19   2.0000      -6.037957      -164.3012
  20   2.0000      -6.036847      -164.2710
  21   2.0000      -6.034225      -164.1996
  22   2.0000      -6.033065      -164.1680
  23   2.0000      -6.029988      -164.0843
  24   2.0000      -1.008372       -27.4392
  25   2.0000      -0.983750       -26.7692
  26   2.0000      -0.916319       -24.9343
  27   2.0000      -0.905994       -24.6534
  28   2.0000      -0.869582       -23.6625
  29   2.0000      -0.852654       -23.2019
  30   2.0000      -0.842996       -22.9391
  31   2.0000      -0.812657       -22.1135
  32   2.0000      -0.789006       -21.4699
  33   2.0000      -0.778911       -21.1952
  34   2.0000      -0.716365       -19.4933
  35   2.0000      -0.703130       -19.1332
  36   2.0000      -0.695448       -18.9241
  37   2.0000      -0.669106       -18.2073
  38   2.0000      -0.644010       -17.5244
  39   2.0000      -0.616030       -16.7630
  40   2.0000      -0.588502       -16.0140
  41   2.0000      -0.570247       -15.5172
  42   2.0000      -0.561328       -15.2745
  43   2.0000      -0.548176       -14.9166
  44   2.0000      -0.542760       -14.7692
  45   2.0000      -0.525102       -14.2888
  46   2.0000      -0.522364       -14.2142
  47   2.0000      -0.514795       -14.0083
  48   2.0000      -0.500940       -13.6313
  49   2.0000      -0.492335       -13.3971
  50   2.0000      -0.489786       -13.3277
  51   2.0000      -0.486958       -13.2508
  52   2.0000      -0.469401       -12.7730
  53   2.0000      -0.464966       -12.6524
  54   2.0000      -0.459034       -12.4910
  55   2.0000      -0.454142       -12.3578
  56   2.0000      -0.443394       -12.0654
  57   2.0000      -0.440158       -11.9773
  58   2.0000      -0.433823       -11.8049
  59   2.0000      -0.428269       -11.6538
  60   2.0000      -0.418427       -11.3860
  61   2.0000      -0.409668       -11.1476
  62   2.0000      -0.405230       -11.0269
  63   2.0000      -0.350129        -9.5275
  64   2.0000      -0.334125        -9.0920
  65   2.0000      -0.332158        -9.0385
  66   2.0000      -0.285285        -7.7630
  67   0.0000       0.020477         0.5572
  68   0.0000       0.073369         1.9965
  69   0.0000       0.097022         2.6401
  70   0.0000       0.110989         3.0202
  71   0.0000       0.140055         3.8111

MULLIKEN ATOMIC CHARGES
-----------------------
   0 S :    0.112998
   1 C :   -0.131201
   2 C :   -0.077384
   3 C :    0.010184
   4 C :   -0.151004
   5 H :    0.004852
   6 C :    0.104462
   7 H :    0.015509
   8 H :    0.015133
   9 C :   -0.086476
  10 H :    0.026575
  11 H :    0.016127
  12 C :   -0.044653
  13 H :    0.021217
  14 H :    0.027940
  15 H :    0.049013
  16 S :    0.092080
  17 C :   -0.050003
  18 C :   -0.036690
  19 C :   -0.069822
  20 C :   -0.159326
  21 H :    0.012334
  22 C :    0.099281
  23 H :    0.039312
  24 H :    0.010388
  25 C :   -0.072493
  26 H :    0.033217
  27 H :    0.047425
  28 C :   -0.046955
  29 H :    0.027847
  30 H :    0.038841
  31 H :    0.031609
  32 H :    0.057173
  33 H :    0.032488
Sum of atomic charges:   -0.0000000

LOEWDIN ATOMIC CHARGES
----------------------
   0 S :    0.404013
   1 C :   -0.187127
   2 C :   -0.062734
   3 C :   -0.065283
   4 C :   -0.204577
   5 H :    0.030086
   6 C :   -0.028615
   7 H :    0.030507
   8 H :    0.030074
   9 C :   -0.047958
  10 H :    0.029152
  11 H :    0.019778
  12 C :   -0.069469
  13 H :    0.025373
  14 H :    0.025126
  15 H :    0.027523
  16 S :    0.364616
  17 C :   -0.165507
  18 C :   -0.067806
  19 C :   -0.060480
  20 C :   -0.169154
  21 H :    0.030052
  22 C :   -0.033143
  23 H :    0.034249
  24 H :    0.030677
  25 C :   -0.045586
  26 H :    0.036821
  27 H :    0.029435
  28 C :   -0.072706
  29 H :    0.033679
  30 H :    0.024451
  31 H :    0.025936
  32 H :    0.031006
  33 H :    0.017590

  Mayer bond orders larger than 0.100000
B(  0-S ,  1-C ) :   1.1448 B(  0-S ,  4-C ) :   1.1345 B(  1-C ,  2-C ) :   1.5960
B(  1-C , 32-H ) :   0.9628 B(  2-C ,  3-C ) :   1.2342 B(  2-C ,  6-C ) :   1.0286
B(  3-C ,  4-C ) :   1.5819 B(  3-C ,  5-H ) :   0.9879 B(  4-C , 20-C ) :   1.0774
B(  6-C ,  7-H ) :   0.9386 B(  6-C ,  8-H ) :   0.9415 B(  6-C ,  9-C ) :   1.0679
B(  9-C , 10-H ) :   0.9526 B(  9-C , 11-H ) :   0.9564 B(  9-C , 12-C ) :   1.0752
B( 12-C , 13-H ) :   0.9738 B( 12-C , 14-H ) :   0.9740 B( 12-C , 15-H ) :   0.9716
B( 16-S , 17-C ) :   1.1370 B( 16-S , 20-C ) :   1.1092 B( 17-C , 18-C ) :   1.6149
B( 17-C , 20-C ) :   0.1052 B( 17-C , 33-H ) :   0.9757 B( 18-C , 19-C ) :   1.2578
B( 18-C , 21-H ) :   0.9773 B( 19-C , 20-C ) :   1.6180 B( 19-C , 22-C ) :   1.0068
B( 22-C , 23-H ) :   0.9247 B( 22-C , 24-H ) :   0.9257 B( 22-C , 25-C ) :   1.0479
B( 25-C , 26-H ) :   0.9504 B( 25-C , 27-H ) :   0.9569 B( 25-C , 28-C ) :   1.0845
B( 28-C , 29-H ) :   0.9707 B( 28-C , 30-H ) :   0.9770 B( 28-C , 31-H ) :   0.9749

Dispersion correction           -0.014929421
FINAL SINGLE POINT ENERGY     -1339.868342900554

DIPOLE MOMENT
-------------
                                X             Y             Z
Electronic contribution:    -15.06066     -17.23668      13.33309
Nuclear contribution   :     15.13000      17.90698     -13.75434
                        -----------------------------------------
Total Dipole Moment    :      0.06934       0.67030      -0.42124
                        -----------------------------------------
Magnitude (a.u.)       :      0.79471
Magnitude (Debye)      :      2.01998

Rotational constants in cm-1:     0.018913     0.009133     0.007240
Rotational constants in MHz :   567.003141   273.810633   217.062719

                             ****ORCA TERMINATED NORMALLY****
TOTAL RUN TIME: 0 days 0 hours 0 minutes 21 seconds 174 msec
