                         Program Version 4.2.1 -  RELEASE  -
|  1> ! wB97X-D3 SP def2-SVP
|  2> %pal
|  3> nprocs 24
|  4> end
|  5>
|  6> * xyz 0 1
|  7> S 	 -56.1613 	 18.7233 	 25.1288
|  8> C 	 -57.1917 	 18.3917 	 26.4854
|  9> C 	 -57.9972 	 17.3228 	 26.2506
| 10> C 	 -57.9357 	 16.8855 	 24.9234
| 11> C 	 -57.017 	 17.5847 	 24.1082
| 12> H 	 -58.5129 	 16.1067 	 24.4913
| 13> C 	 -58.8619 	 16.5835 	 27.2788
| 14> H 	 -59.8797 	 16.9771 	 27.2582
| 15> H 	 -58.5039 	 16.6521 	 28.2495
| 16> C 	 -58.8618 	 15.0973 	 26.9722
| 17> H 	 -59.353 	 14.8249 	 26.0377
| 18> H 	 -57.8079 	 14.7488 	 26.7821
| 19> C 	 -59.3932 	 14.2556 	 28.1489
| 20> H 	 -59.4468 	 13.2313 	 27.7435
| 21> H 	 -58.6718 	 14.1404 	 28.9702
| 22> H 	 -60.3264 	 14.5596 	 28.6713
| 23> S 	 -57.0328 	 18.8402 	 21.6203
| 24> C 	 -56.6123 	 17.9812 	 20.2014
| 25> C 	 -56.302 	 16.6729 	 20.4816
| 26> C 	 -56.5627 	 16.3657 	 21.8544
| 27> C 	 -56.7594 	 17.4464 	 22.6514
| 28> H 	 -55.6383 	 16.173 	 19.7513
| 29> C 	 -56.2978 	 14.9932 	 22.4194
| 30> H 	 -56.3548 	 14.1968 	 21.6458
| 31> H 	 -56.9359 	 14.6945 	 23.2352
| 32> C 	 -54.8877 	 14.8967 	 23.0573
| 33> H 	 -54.3244 	 15.7545 	 22.765
| 34> H 	 -54.319 	 14.0501 	 22.7323
| 35> C 	 -55.0098 	 14.8706 	 24.6207
| 36> H 	 -54.0502 	 14.6844 	 25.1593
| 37> H 	 -55.8177 	 14.2921 	 25.0295
| 38> H 	 -55.183 	 15.8879 	 24.9912
| 39> H 	 -57.0647 	 18.8274 	 27.4628
| 40> H 	 -56.5073 	 18.5052 	 19.2449
| 41> *
| 42>
| 43>                          ****END OF INPUT****

CARTESIAN COORDINATES (ANGSTROEM)
---------------------------------
  S    -56.161300   18.723300   25.128800
  C    -57.191700   18.391700   26.485400
  C    -57.997200   17.322800   26.250600
  C    -57.935700   16.885500   24.923400
  C    -57.017000   17.584700   24.108200
  H    -58.512900   16.106700   24.491300
  C    -58.861900   16.583500   27.278800
  H    -59.879700   16.977100   27.258200
  H    -58.503900   16.652100   28.249500
  C    -58.861800   15.097300   26.972200
  H    -59.353000   14.824900   26.037700
  H    -57.807900   14.748800   26.782100
  C    -59.393200   14.255600   28.148900
  H    -59.446800   13.231300   27.743500
  H    -58.671800   14.140400   28.970200
  H    -60.326400   14.559600   28.671300
  S    -57.032800   18.840200   21.620300
  C    -56.612300   17.981200   20.201400
  C    -56.302000   16.672900   20.481600
  C    -56.562700   16.365700   21.854400
  C    -56.759400   17.446400   22.651400
  H    -55.638300   16.173000   19.751300
  C    -56.297800   14.993200   22.419400
  H    -56.354800   14.196800   21.645800
  H    -56.935900   14.694500   23.235200
  C    -54.887700   14.896700   23.057300
  H    -54.324400   15.754500   22.765000
  H    -54.319000   14.050100   22.732300
  C    -55.009800   14.870600   24.620700
  H    -54.050200   14.684400   25.159300
  H    -55.817700   14.292100   25.029500
  H    -55.183000   15.887900   24.991200
  H    -57.064700   18.827400   27.462800
  H    -56.507300   18.505200   19.244900

 Total Charge           Charge          ....    0
 Multiplicity           Mult            ....    1
 Number of Electrons    NEL             ....  134
 Basis Dimension        Dim             ....  322

ORBITAL ENERGIES
----------------

  NO   OCC          E(Eh)            E(eV)
   0   2.0000     -88.968972     -2420.9688
   1   2.0000     -88.961191     -2420.7571
   2   2.0000     -10.334819      -281.2247
   3   2.0000     -10.325959      -280.9836
   4   2.0000     -10.316389      -280.7232
   5   2.0000     -10.310717      -280.5689
   6   2.0000     -10.302778      -280.3529
   7   2.0000     -10.297016      -280.1960
   8   2.0000     -10.295400      -280.1521
   9   2.0000     -10.291977      -280.0589
  10   2.0000     -10.291519      -280.0465
  11   2.0000     -10.288670      -279.9690
  12   2.0000     -10.287871      -279.9472
  13   2.0000     -10.284344      -279.8512
  14   2.0000     -10.278841      -279.7015
  15   2.0000     -10.271334      -279.4972
  16   2.0000      -8.083296      -219.9577
  17   2.0000      -8.076963      -219.7853
  18   2.0000      -6.041776      -164.4051
  19   2.0000      -6.037698      -164.2941
  20   2.0000      -6.035381      -164.2311
  21   2.0000      -6.034266      -164.2007
  22   2.0000      -6.031268      -164.1191
  23   2.0000      -6.027789      -164.0245
  24   2.0000      -1.011422       -27.5222
  25   2.0000      -0.992713       -27.0131
  26   2.0000      -0.916166       -24.9301
  27   2.0000      -0.907280       -24.6884
  28   2.0000      -0.868883       -23.6435
  29   2.0000      -0.847895       -23.0724
  30   2.0000      -0.842654       -22.9298
  31   2.0000      -0.815497       -22.1908
  32   2.0000      -0.782979       -21.3060
  33   2.0000      -0.771168       -20.9846
  34   2.0000      -0.712638       -19.3919
  35   2.0000      -0.699196       -19.0261
  36   2.0000      -0.690128       -18.7793
  37   2.0000      -0.660292       -17.9675
  38   2.0000      -0.643619       -17.5138
  39   2.0000      -0.626422       -17.0458
  40   2.0000      -0.603761       -16.4292
  41   2.0000      -0.572874       -15.5887
  42   2.0000      -0.569036       -15.4843
  43   2.0000      -0.552069       -15.0226
  44   2.0000      -0.530667       -14.4402
  45   2.0000      -0.521906       -14.2018
  46   2.0000      -0.512204       -13.9378
  47   2.0000      -0.508724       -13.8431
  48   2.0000      -0.507077       -13.7983
  49   2.0000      -0.497268       -13.5313
  50   2.0000      -0.491013       -13.3611
  51   2.0000      -0.483241       -13.1497
  52   2.0000      -0.477917       -13.0048
  53   2.0000      -0.468371       -12.7450
  54   2.0000      -0.463328       -12.6078
  55   2.0000      -0.447722       -12.1831
  56   2.0000      -0.439705       -11.9650
  57   2.0000      -0.437692       -11.9102
  58   2.0000      -0.427437       -11.6312
  59   2.0000      -0.423122       -11.5137
  60   2.0000      -0.422255       -11.4901
  61   2.0000      -0.411353       -11.1935
  62   2.0000      -0.408812       -11.1243
  63   2.0000      -0.345236        -9.3943
  64   2.0000      -0.334475        -9.1015
  65   2.0000      -0.326403        -8.8819
  66   2.0000      -0.296589        -8.0706
  67   0.0000       0.030325         0.8252
  68   0.0000       0.070403         1.9158
  69   0.0000       0.111698         3.0395
  70   0.0000       0.118020         3.2115
  71   0.0000       0.135265         3.6808

MULLIKEN ATOMIC CHARGES
-----------------------
   0 S :    0.114504
   1 C :   -0.122003
   2 C :   -0.092670
   3 C :    0.045692
   4 C :   -0.182429
   5 H :   -0.000794
   6 C :    0.159772
   7 H :    0.043438
   8 H :   -0.000364
   9 C :   -0.158515
  10 H :    0.037453
  11 H :    0.041543
  12 C :   -0.053393
  13 H :    0.033253
  14 H :    0.029691
  15 H :    0.042492
  16 S :    0.106443
  17 C :   -0.110497
  18 C :   -0.039619
  19 C :   -0.045333
  20 C :   -0.133717
  21 H :    0.047663
  22 C :    0.068861
  23 H :    0.025306
  24 H :    0.009394
  25 C :   -0.045159
  26 H :    0.028369
  27 H :    0.024308
  28 C :   -0.076767
  29 H :    0.029349
  30 H :    0.033050
  31 H :    0.029801
  32 H :    0.041834
  33 H :    0.069040
Sum of atomic charges:    0.0000000

LOEWDIN ATOMIC CHARGES
----------------------
   0 S :    0.418096
   1 C :   -0.198703
   2 C :   -0.066462
   3 C :   -0.056456
   4 C :   -0.193103
   5 H :    0.023571
   6 C :   -0.019634
   7 H :    0.036549
   8 H :    0.019901
   9 C :   -0.046589
  10 H :    0.020102
  11 H :    0.032425
  12 C :   -0.074354
  13 H :    0.031477
  14 H :    0.025079
  15 H :    0.027987
  16 S :    0.417738
  17 C :   -0.189625
  18 C :   -0.085071
  19 C :   -0.055603
  20 C :   -0.202773
  21 H :    0.043600
  22 C :   -0.031227
  23 H :    0.033515
  24 H :    0.025313
  25 C :   -0.029434
  26 H :    0.021922
  27 H :    0.018038
  28 C :   -0.075547
  29 H :    0.028049
  30 H :    0.015992
  31 H :    0.024354
  32 H :    0.027804
  33 H :    0.033070

  Mayer bond orders larger than 0.100000
B(  0-S ,  1-C ) :   1.1443 B(  0-S ,  4-C ) :   1.1712 B(  1-C ,  2-C ) :   1.6059
B(  1-C ,  4-C ) :   0.1042 B(  1-C , 32-H ) :   0.9702 B(  2-C ,  3-C ) :   1.2713
B(  2-C ,  6-C ) :   1.0064 B(  3-C ,  4-C ) :   1.5420 B(  3-C ,  5-H ) :   0.9999
B(  4-C , 20-C ) :   1.0115 B(  6-C ,  7-H ) :   0.9270 B(  6-C ,  8-H ) :   0.9432
B(  6-C ,  9-C ) :   1.0729 B(  9-C , 10-H ) :   0.9491 B(  9-C , 11-H ) :   0.9544
B(  9-C , 12-C ) :   1.0821 B( 12-C , 13-H ) :   0.9722 B( 12-C , 14-H ) :   0.9729
B( 12-C , 15-H ) :   0.9752 B( 16-S , 17-C ) :   1.1815 B( 16-S , 20-C ) :   1.1330
B( 17-C , 18-C ) :   1.6113 B( 17-C , 33-H ) :   0.9633 B( 18-C , 19-C ) :   1.2185
B( 18-C , 21-H ) :   0.9826 B( 19-C , 20-C ) :   1.6164 B( 19-C , 22-C ) :   1.0811
B( 22-C , 23-H ) :   0.9345 B( 22-C , 24-H ) :   0.9423 B( 22-C , 25-C ) :   1.0381
B( 25-C , 26-H ) :   0.9624 B( 25-C , 27-H ) :   0.9617 B( 25-C , 28-C ) :   1.0763
B( 28-C , 29-H ) :   0.9697 B( 28-C , 30-H ) :   0.9759 B( 28-C , 31-H ) :   0.9710

Dispersion correction           -0.016254251
FINAL SINGLE POINT ENERGY     -1339.871800790033

DIPOLE MOMENT
-------------
                                X             Y             Z
Electronic contribution:      2.75016      24.38873     -15.59023
Nuclear contribution   :     -2.74356     -24.90210      15.80383
                        -----------------------------------------
Total Dipole Moment    :      0.00661      -0.51338       0.21360
                        -----------------------------------------
Magnitude (a.u.)       :      0.55608
Magnitude (Debye)      :      1.41344

Rotational constants in cm-1:     0.021329     0.009002     0.007656
Rotational constants in MHz :   639.419493   269.879409   229.532530

                             ****ORCA TERMINATED NORMALLY****
TOTAL RUN TIME: 0 days 0 hours 0 minutes 23 seconds 350 msec
