                         Program Version 4.2.1 -  RELEASE  -
|  1> ! wB97X-D3 SP def2-SVP
|  2> %pal
|  3> nprocs 24
|  4> end
|  5>
|  6> * xyz 0 1
|  7> S 	 -45.3328 	 13.2723 	 31.4965
|  8> C 	 -44.6931 	 14.8161 	 30.9007
|  9> C 	 -45.6704 	 15.6758 	 30.4644
| 10> C 	 -46.9724 	 15.1825 	 30.7884
| 11> C 	 -46.9283 	 13.9133 	 31.3779
| 12> H 	 -47.9635 	 15.661 	 30.7403
| 13> C 	 -45.3477 	 17.0077 	 29.8281
| 14> H 	 -46.0996 	 17.2169 	 28.9814
| 15> H 	 -44.3998 	 16.9451 	 29.2815
| 16> C 	 -45.2556 	 18.1904 	 30.7893
| 17> H 	 -44.4007 	 18.0904 	 31.4452
| 18> H 	 -44.8603 	 18.9634 	 30.0752
| 19> C 	 -46.6419 	 18.4282 	 31.3959
| 20> H 	 -46.5712 	 19.2071 	 32.1547
| 21> H 	 -47.3169 	 18.6194 	 30.5924
| 22> H 	 -46.9772 	 17.5943 	 31.9449
| 23> S 	 -48.2873 	 11.5784 	 31.1686
| 24> C 	 -49.7871 	 11.3122 	 32.0324
| 25> C 	 -50.192 	 12.5109 	 32.6043
| 26> C 	 -49.1828 	 13.5061 	 32.5568
| 27> C 	 -48.1153 	 13.1385 	 31.7443
| 28> H 	 -51.1787 	 12.6356 	 33.0697
| 29> C 	 -49.1847 	 14.7695 	 33.3952
| 30> H 	 -48.4332 	 15.519 	 33.0471
| 31> H 	 -48.986 	 14.4962 	 34.4346
| 32> C 	 -50.5675 	 15.5878 	 33.537
| 33> H 	 -50.4453 	 16.5542 	 33.9856
| 34> H 	 -51.3177 	 15.0274 	 34.1111
| 35> C 	 -51.3482 	 15.8065 	 32.2351
| 36> H 	 -50.8315 	 16.2916 	 31.3712
| 37> H 	 -52.1565 	 16.4484 	 32.3284
| 38> H 	 -51.7627 	 14.8164 	 31.916
| 39> H 	 -43.6839 	 15.2175 	 31.0518
| 40> H 	 -50.3641 	 10.4412 	 31.8886
| 41> *
| 42>
| 43>                          ****END OF INPUT****

CARTESIAN COORDINATES (ANGSTROEM)
---------------------------------
  S    -45.332800   13.272300   31.496500
  C    -44.693100   14.816100   30.900700
  C    -45.670400   15.675800   30.464400
  C    -46.972400   15.182500   30.788400
  C    -46.928300   13.913300   31.377900
  H    -47.963500   15.661000   30.740300
  C    -45.347700   17.007700   29.828100
  H    -46.099600   17.216900   28.981400
  H    -44.399800   16.945100   29.281500
  C    -45.255600   18.190400   30.789300
  H    -44.400700   18.090400   31.445200
  H    -44.860300   18.963400   30.075200
  C    -46.641900   18.428200   31.395900
  H    -46.571200   19.207100   32.154700
  H    -47.316900   18.619400   30.592400
  H    -46.977200   17.594300   31.944900
  S    -48.287300   11.578400   31.168600
  C    -49.787100   11.312200   32.032400
  C    -50.192000   12.510900   32.604300
  C    -49.182800   13.506100   32.556800
  C    -48.115300   13.138500   31.744300
  H    -51.178700   12.635600   33.069700
  C    -49.184700   14.769500   33.395200
  H    -48.433200   15.519000   33.047100
  H    -48.986000   14.496200   34.434600
  C    -50.567500   15.587800   33.537000
  H    -50.445300   16.554200   33.985600
  H    -51.317700   15.027400   34.111100
  C    -51.348200   15.806500   32.235100
  H    -50.831500   16.291600   31.371200
  H    -52.156500   16.448400   32.328400
  H    -51.762700   14.816400   31.916000
  H    -43.683900   15.217500   31.051800
  H    -50.364100   10.441200   31.888600

 Total Charge           Charge          ....    0
 Multiplicity           Mult            ....    1
 Number of Electrons    NEL             ....  134
 Basis Dimension        Dim             ....  322

ORBITAL ENERGIES
----------------

  NO   OCC          E(Eh)            E(eV)
   0   2.0000     -88.970002     -2420.9968
   1   2.0000     -88.964374     -2420.8437
   2   2.0000     -10.327948      -281.0378
   3   2.0000     -10.320169      -280.8261
   4   2.0000     -10.314569      -280.6737
   5   2.0000     -10.312991      -280.6308
   6   2.0000     -10.301012      -280.3048
   7   2.0000     -10.300426      -280.2888
   8   2.0000     -10.298073      -280.2248
   9   2.0000     -10.297759      -280.2163
  10   2.0000     -10.297200      -280.2010
  11   2.0000     -10.296616      -280.1852
  12   2.0000     -10.290497      -280.0187
  13   2.0000     -10.290275      -280.0126
  14   2.0000     -10.275559      -279.6122
  15   2.0000     -10.273590      -279.5586
  16   2.0000      -8.084579      -219.9926
  17   2.0000      -8.080692      -219.8868
  18   2.0000      -6.043062      -164.4401
  19   2.0000      -6.039172      -164.3342
  20   2.0000      -6.038968      -164.3287
  21   2.0000      -6.035313      -164.2292
  22   2.0000      -6.034896      -164.2179
  23   2.0000      -6.031671      -164.1301
  24   2.0000      -1.014187       -27.5974
  25   2.0000      -0.988008       -26.8851
  26   2.0000      -0.917259       -24.9599
  27   2.0000      -0.900191       -24.4954
  28   2.0000      -0.870746       -23.6942
  29   2.0000      -0.851069       -23.1588
  30   2.0000      -0.844881       -22.9904
  31   2.0000      -0.815785       -22.1986
  32   2.0000      -0.785945       -21.3866
  33   2.0000      -0.773176       -21.0392
  34   2.0000      -0.706236       -19.2177
  35   2.0000      -0.701418       -19.0865
  36   2.0000      -0.695942       -18.9375
  37   2.0000      -0.660886       -17.9836
  38   2.0000      -0.636550       -17.3214
  39   2.0000      -0.612412       -16.6646
  40   2.0000      -0.597041       -16.2463
  41   2.0000      -0.577639       -15.7183
  42   2.0000      -0.555607       -15.1188
  43   2.0000      -0.549386       -14.9496
  44   2.0000      -0.540619       -14.7110
  45   2.0000      -0.535019       -14.5586
  46   2.0000      -0.520718       -14.1694
  47   2.0000      -0.513311       -13.9679
  48   2.0000      -0.506837       -13.7917
  49   2.0000      -0.495596       -13.4859
  50   2.0000      -0.487391       -13.2626
  51   2.0000      -0.480628       -13.0786
  52   2.0000      -0.476541       -12.9673
  53   2.0000      -0.464911       -12.6509
  54   2.0000      -0.461215       -12.5503
  55   2.0000      -0.449627       -12.2350
  56   2.0000      -0.439069       -11.9477
  57   2.0000      -0.435781       -11.8582
  58   2.0000      -0.433903       -11.8071
  59   2.0000      -0.431501       -11.7418
  60   2.0000      -0.421475       -11.4689
  61   2.0000      -0.412634       -11.2283
  62   2.0000      -0.410458       -11.1691
  63   2.0000      -0.346589        -9.4312
  64   2.0000      -0.334579        -9.1044
  65   2.0000      -0.328562        -8.9406
  66   2.0000      -0.288287        -7.8447
  67   0.0000       0.033125         0.9014
  68   0.0000       0.068116         1.8535
  69   0.0000       0.106914         2.9093
  70   0.0000       0.121800         3.3143
  71   0.0000       0.122225         3.3259

MULLIKEN ATOMIC CHARGES
-----------------------
   0 S :    0.126826
   1 C :   -0.123219
   2 C :   -0.069769
   3 C :    0.019783
   4 C :   -0.176647
   5 H :    0.024696
   6 C :   -0.007218
   7 H :    0.044343
   8 H :    0.022917
   9 C :   -0.055686
  10 H :    0.020584
  11 H :    0.030813
  12 C :   -0.001941
  13 H :    0.031645
  14 H :    0.028788
  15 H :    0.027527
  16 S :    0.114332
  17 C :   -0.092210
  18 C :   -0.038502
  19 C :   -0.046598
  20 C :   -0.146585
  21 H :    0.030614
  22 C :    0.066980
  23 H :    0.041143
  24 H :    0.047251
  25 C :   -0.093287
  26 H :    0.032186
  27 H :    0.029469
  28 C :   -0.060680
  29 H :    0.028057
  30 H :    0.013398
  31 H :    0.028869
  32 H :    0.053557
  33 H :    0.048567
Sum of atomic charges:    0.0000000

LOEWDIN ATOMIC CHARGES
----------------------
   0 S :    0.410514
   1 C :   -0.196827
   2 C :   -0.063153
   3 C :   -0.066037
   4 C :   -0.200844
   5 H :    0.035823
   6 C :   -0.041128
   7 H :    0.038934
   8 H :    0.029358
   9 C :   -0.040409
  10 H :    0.019997
  11 H :    0.030340
  12 C :   -0.055349
  13 H :    0.028224
  14 H :    0.025787
  15 H :    0.021050
  16 S :    0.442206
  17 C :   -0.185033
  18 C :   -0.066657
  19 C :   -0.070333
  20 C :   -0.222838
  21 H :    0.034828
  22 C :   -0.029660
  23 H :    0.033658
  24 H :    0.037302
  25 C :   -0.041266
  26 H :    0.022452
  27 H :    0.023851
  28 C :   -0.074058
  29 H :    0.024090
  30 H :    0.014541
  31 H :    0.027269
  32 H :    0.033085
  33 H :    0.020285

  Mayer bond orders larger than 0.100000
B(  0-S ,  1-C ) :   1.1258 B(  0-S ,  4-C ) :   1.1645 B(  1-C ,  2-C ) :   1.6353
B(  1-C , 32-H ) :   0.9592 B(  2-C ,  3-C ) :   1.2232 B(  2-C ,  6-C ) :   1.0178
B(  3-C ,  4-C ) :   1.5636 B(  3-C ,  5-H ) :   0.9906 B(  4-C , 20-C ) :   1.0158
B(  6-C ,  7-H ) :   0.9457 B(  6-C ,  8-H ) :   0.9394 B(  6-C ,  9-C ) :   1.0740
B(  9-C , 10-H ) :   0.9553 B(  9-C , 11-H ) :   0.9546 B(  9-C , 12-C ) :   1.0647
B( 12-C , 13-H ) :   0.9687 B( 12-C , 14-H ) :   0.9716 B( 12-C , 15-H ) :   0.9744
B( 16-S , 17-C ) :   1.1638 B( 16-S , 20-C ) :   1.1823 B( 17-C , 18-C ) :   1.5750
B( 17-C , 20-C ) :   0.1007 B( 17-C , 33-H ) :   0.9760 B( 18-C , 19-C ) :   1.2697
B( 18-C , 21-H ) :   0.9839 B( 19-C , 20-C ) :   1.5636 B( 19-C , 22-C ) :   1.0427
B( 22-C , 23-H ) :   0.9366 B( 22-C , 24-H ) :   0.9364 B( 22-C , 25-C ) :   1.0570
B( 25-C , 26-H ) :   0.9628 B( 25-C , 27-H ) :   0.9543 B( 25-C , 28-C ) :   1.0806
B( 28-C , 29-H ) :   0.9737 B( 28-C , 30-H ) :   0.9722 B( 28-C , 31-H ) :   0.9715

Dispersion correction           -0.015367906
FINAL SINGLE POINT ENERGY     -1339.870647785433

DIPOLE MOMENT
-------------
                                X             Y             Z
Electronic contribution:      9.93941     -27.90068      -3.16771
Nuclear contribution   :    -10.16528      28.55519       3.30985
                        -----------------------------------------
Total Dipole Moment    :     -0.22587       0.65451       0.14213
                        -----------------------------------------
Magnitude (a.u.)       :      0.70682
Magnitude (Debye)      :      1.79660

Rotational constants in cm-1:     0.018197     0.010244     0.007101
Rotational constants in MHz :   545.546122   307.114521   212.895935

                             ****ORCA TERMINATED NORMALLY****
TOTAL RUN TIME: 0 days 0 hours 0 minutes 22 seconds 607 msec
