                         Program Version 4.2.1 -  RELEASE  -
|  1> ! wB97X-D3 SP def2-SVP
|  2> %pal
|  3> nprocs 24
|  4> end
|  5>
|  6> * xyz 0 1
|  7> S 	 -102.639 	 -0.407536 	 -107.173
|  8> C 	 -101.605 	 0.57266 	 -106.051
|  9> C 	 -102.334 	 1.31182 	 -105.153
| 10> C 	 -103.749 	 1.1819 	 -105.383
| 11> C 	 -104.053 	 0.359343 	 -106.451
| 12> H 	 -104.474 	 1.85961 	 -104.883
| 13> C 	 -101.83 	 2.29271 	 -104.19
| 14> H 	 -102.526 	 3.14614 	 -104.444
| 15> H 	 -100.784 	 2.44553 	 -104.535
| 16> C 	 -101.928 	 1.92165 	 -102.685
| 17> H 	 -101.648 	 2.85611 	 -102.09
| 18> H 	 -102.979 	 1.62884 	 -102.555
| 19> C 	 -101.035 	 0.740254 	 -102.403
| 20> H 	 -101.316 	 -0.23273 	 -102.826
| 21> H 	 -100.047 	 0.83135 	 -102.794
| 22> H 	 -100.821 	 0.765818 	 -101.331
| 23> S 	 -105.812 	 0.882542 	 -108.658
| 24> C 	 -107.504 	 0.283914 	 -108.398
| 25> C 	 -107.724 	 0.108483 	 -107.103
| 26> C 	 -106.59 	 0.146899 	 -106.271
| 27> C 	 -105.409 	 0.333958 	 -106.991
| 28> H 	 -108.712 	 -0.157005 	 -106.736
| 29> C 	 -106.671 	 -0.26464 	 -104.844
| 30> H 	 -105.664 	 -0.616367 	 -104.681
| 31> H 	 -107.386 	 -1.07501 	 -104.747
| 32> C 	 -107.061 	 0.834269 	 -103.748
| 33> H 	 -108.09 	 1.14828 	 -103.899
| 34> H 	 -106.459 	 1.70562 	 -103.903
| 35> C 	 -106.863 	 0.42737 	 -102.287
| 36> H 	 -107.374 	 -0.409912 	 -101.878
| 37> H 	 -107.092 	 1.33203 	 -101.703
| 38> H 	 -105.834 	 0.319778 	 -101.941
| 39> H 	 -100.529 	 0.366822 	 -106.026
| 40> H 	 -108.298 	 0.473513 	 -109.099
| 41> *
| 42>
| 43>                          ****END OF INPUT****

CARTESIAN COORDINATES (ANGSTROEM)
---------------------------------
  S    -102.639000   -0.407536  -107.173000
  C    -101.605000    0.572660  -106.051000
  C    -102.334000    1.311820  -105.153000
  C    -103.749000    1.181900  -105.383000
  C    -104.053000    0.359343  -106.451000
  H    -104.474000    1.859610  -104.883000
  C    -101.830000    2.292710  -104.190000
  H    -102.526000    3.146140  -104.444000
  H    -100.784000    2.445530  -104.535000
  C    -101.928000    1.921650  -102.685000
  H    -101.648000    2.856110  -102.090000
  H    -102.979000    1.628840  -102.555000
  C    -101.035000    0.740254  -102.403000
  H    -101.316000   -0.232730  -102.826000
  H    -100.047000    0.831350  -102.794000
  H    -100.821000    0.765818  -101.331000
  S    -105.812000    0.882542  -108.658000
  C    -107.504000    0.283914  -108.398000
  C    -107.724000    0.108483  -107.103000
  C    -106.590000    0.146899  -106.271000
  C    -105.409000    0.333958  -106.991000
  H    -108.712000   -0.157005  -106.736000
  C    -106.671000   -0.264640  -104.844000
  H    -105.664000   -0.616367  -104.681000
  H    -107.386000   -1.075010  -104.747000
  C    -107.061000    0.834269  -103.748000
  H    -108.090000    1.148280  -103.899000
  H    -106.459000    1.705620  -103.903000
  C    -106.863000    0.427370  -102.287000
  H    -107.374000   -0.409912  -101.878000
  H    -107.092000    1.332030  -101.703000
  H    -105.834000    0.319778  -101.941000
  H    -100.529000    0.366822  -106.026000
  H    -108.298000    0.473513  -109.099000

 Total Charge           Charge          ....    0
 Multiplicity           Mult            ....    1
 Number of Electrons    NEL             ....  134
 Basis Dimension        Dim             ....  322

ORBITAL ENERGIES
----------------

  NO   OCC          E(Eh)            E(eV)
   0   2.0000     -88.969205     -2420.9752
   1   2.0000     -88.960753     -2420.7452
   2   2.0000     -10.333000      -281.1752
   3   2.0000     -10.328977      -281.0658
   4   2.0000     -10.320223      -280.8275
   5   2.0000     -10.311971      -280.6030
   6   2.0000     -10.300530      -280.2917
   7   2.0000     -10.299318      -280.2587
   8   2.0000     -10.298742      -280.2430
   9   2.0000     -10.295963      -280.1674
  10   2.0000     -10.295679      -280.1597
  11   2.0000     -10.292387      -280.0701
  12   2.0000     -10.286928      -279.9215
  13   2.0000     -10.285551      -279.8841
  14   2.0000     -10.277948      -279.6772
  15   2.0000     -10.276353      -279.6338
  16   2.0000      -8.082862      -219.9459
  17   2.0000      -8.074081      -219.7069
  18   2.0000      -6.041495      -164.3974
  19   2.0000      -6.037700      -164.2942
  20   2.0000      -6.033360      -164.1761
  21   2.0000      -6.032793      -164.1607
  22   2.0000      -6.029150      -164.0615
  23   2.0000      -6.024340      -163.9306
  24   2.0000      -1.002115       -27.2689
  25   2.0000      -0.980981       -26.6939
  26   2.0000      -0.919087       -25.0096
  27   2.0000      -0.901619       -24.5343
  28   2.0000      -0.870728       -23.6937
  29   2.0000      -0.853848       -23.2344
  30   2.0000      -0.848567       -23.0907
  31   2.0000      -0.814654       -22.1679
  32   2.0000      -0.782526       -21.2936
  33   2.0000      -0.770777       -20.9739
  34   2.0000      -0.712698       -19.3935
  35   2.0000      -0.703947       -19.1554
  36   2.0000      -0.699957       -19.0468
  37   2.0000      -0.658309       -17.9135
  38   2.0000      -0.635290       -17.2871
  39   2.0000      -0.618416       -16.8280
  40   2.0000      -0.590727       -16.0745
  41   2.0000      -0.568542       -15.4708
  42   2.0000      -0.565978       -15.4010
  43   2.0000      -0.549094       -14.9416
  44   2.0000      -0.544351       -14.8125
  45   2.0000      -0.525932       -14.3113
  46   2.0000      -0.518899       -14.1199
  47   2.0000      -0.512068       -13.9341
  48   2.0000      -0.507813       -13.8183
  49   2.0000      -0.497292       -13.5320
  50   2.0000      -0.485258       -13.2045
  51   2.0000      -0.478491       -13.0204
  52   2.0000      -0.476984       -12.9794
  53   2.0000      -0.458376       -12.4730
  54   2.0000      -0.456594       -12.4246
  55   2.0000      -0.452664       -12.3176
  56   2.0000      -0.442780       -12.0487
  57   2.0000      -0.434281       -11.8174
  58   2.0000      -0.430053       -11.7023
  59   2.0000      -0.426595       -11.6082
  60   2.0000      -0.423717       -11.5299
  61   2.0000      -0.420617       -11.4456
  62   2.0000      -0.415092       -11.2952
  63   2.0000      -0.347046        -9.4436
  64   2.0000      -0.330361        -8.9896
  65   2.0000      -0.325437        -8.8556
  66   2.0000      -0.293431        -7.9847
  67   0.0000       0.022708         0.6179
  68   0.0000       0.068158         1.8547
  69   0.0000       0.104788         2.8514
  70   0.0000       0.109468         2.9788
  71   0.0000       0.116068         3.1584

MULLIKEN ATOMIC CHARGES
-----------------------
   0 S :    0.105715
   1 C :   -0.151184
   2 C :   -0.069101
   3 C :    0.007163
   4 C :   -0.164872
   5 H :    0.028478
   6 C :    0.012038
   7 H :    0.044299
   8 H :    0.029629
   9 C :   -0.055767
  10 H :    0.054074
  11 H :    0.033956
  12 C :   -0.041692
  13 H :    0.049991
  14 H :    0.005352
  15 H :    0.033325
  16 S :    0.075702
  17 C :   -0.076670
  18 C :   -0.020480
  19 C :   -0.026647
  20 C :   -0.136532
  21 H :    0.015696
  22 C :    0.054236
  23 H :    0.025996
  24 H :    0.024369
  25 C :   -0.041326
  26 H :    0.026755
  27 H :    0.011347
  28 C :   -0.048925
  29 H :    0.034306
  30 H :    0.026817
  31 H :    0.022131
  32 H :    0.056742
  33 H :    0.055080
Sum of atomic charges:   -0.0000000

LOEWDIN ATOMIC CHARGES
----------------------
   0 S :    0.374161
   1 C :   -0.180870
   2 C :   -0.067315
   3 C :   -0.058717
   4 C :   -0.187935
   5 H :    0.036316
   6 C :   -0.040724
   7 H :    0.041516
   8 H :    0.032931
   9 C :   -0.039850
  10 H :    0.037408
  11 H :    0.026825
  12 C :   -0.073345
  13 H :    0.033608
  14 H :    0.019107
  15 H :    0.031298
  16 S :    0.345200
  17 C :   -0.160478
  18 C :   -0.067870
  19 C :   -0.061287
  20 C :   -0.174342
  21 H :    0.032855
  22 C :   -0.031964
  23 H :    0.030187
  24 H :    0.028302
  25 C :   -0.030226
  26 H :    0.023664
  27 H :    0.017007
  28 C :   -0.071089
  29 H :    0.020397
  30 H :    0.033281
  31 H :    0.025340
  32 H :    0.027932
  33 H :    0.028676

  Mayer bond orders larger than 0.100000
B(  0-S ,  1-C ) :   1.1069 B(  0-S ,  4-C ) :   1.1384 B(  1-C ,  2-C ) :   1.6347
B(  1-C , 32-H ) :   0.9629 B(  2-C ,  3-C ) :   1.2219 B(  2-C ,  6-C ) :   1.0091
B(  3-C ,  4-C ) :   1.5836 B(  3-C ,  5-H ) :   0.9741 B(  4-C , 20-C ) :   1.0583
B(  6-C ,  7-H ) :   0.9381 B(  6-C ,  8-H ) :   0.9457 B(  6-C ,  9-C ) :   1.0638
B(  9-C , 10-H ) :   0.9559 B(  9-C , 11-H ) :   0.9524 B(  9-C , 12-C ) :   1.0723
B( 12-C , 13-H ) :   0.9715 B( 12-C , 14-H ) :   0.9718 B( 12-C , 15-H ) :   0.9706
B( 16-S , 17-C ) :   1.1072 B( 16-S , 20-C ) :   1.1228 B( 17-C , 18-C ) :   1.6604
B( 17-C , 33-H ) :   0.9623 B( 18-C , 19-C ) :   1.2277 B( 18-C , 21-H ) :   0.9853
B( 19-C , 20-C ) :   1.5919 B( 19-C , 22-C ) :   1.0529 B( 22-C , 23-H ) :   0.9281
B( 22-C , 24-H ) :   0.9406 B( 22-C , 25-C ) :   1.0519 B( 25-C , 26-H ) :   0.9536
B( 25-C , 27-H ) :   0.9538 B( 25-C , 28-C ) :   1.0875 B( 28-C , 29-H ) :   0.9775
B( 28-C , 30-H ) :   0.9695 B( 28-C , 31-H ) :   0.9720

Dispersion correction           -0.015067130
FINAL SINGLE POINT ENERGY     -1339.859462097424

DIPOLE MOMENT
-------------
                                X             Y             Z
Electronic contribution:     -0.81510      -4.66302     -30.84659
Nuclear contribution   :      0.73751       4.95361      31.65955
                        -----------------------------------------
Total Dipole Moment    :     -0.07759       0.29059       0.81296
                        -----------------------------------------
Magnitude (a.u.)       :      0.86681
Magnitude (Debye)      :      2.20326

Rotational constants in cm-1:     0.017847     0.009862     0.006963
Rotational constants in MHz :   535.047294   295.654148   208.743887

                             ****ORCA TERMINATED NORMALLY****
TOTAL RUN TIME: 0 days 0 hours 0 minutes 22 seconds 515 msec
