                         Program Version 4.2.1 -  RELEASE  -
|  1> ! wB97X-D3 SP def2-SVP
|  2> %pal
|  3> nprocs 24
|  4> end
|  5>
|  6> * xyz 0 1
|  7> S 	 -65.3652 	 7.53244 	 -69.6455
|  8> C 	 -66.3879 	 8.89158 	 -70.0848
|  9> C 	 -67.6855 	 8.59542 	 -70.1692
| 10> C 	 -67.9375 	 7.21221 	 -69.7906
| 11> C 	 -66.7433 	 6.43691 	 -69.5714
| 12> H 	 -68.8698 	 6.68078 	 -69.6277
| 13> C 	 -68.7618 	 9.4804 	 -70.6773
| 14> H 	 -69.6999 	 8.98198 	 -70.5354
| 15> H 	 -68.5279 	 9.64172 	 -71.6895
| 16> C 	 -68.8249 	 10.8056 	 -70.005
| 17> H 	 -67.8303 	 11.1662 	 -69.957
| 18> H 	 -69.4172 	 11.4956 	 -70.5602
| 19> C 	 -69.3509 	 10.6128 	 -68.52
| 20> H 	 -69.1709 	 11.4123 	 -67.78
| 21> H 	 -70.4242 	 10.4958 	 -68.5044
| 22> H 	 -68.8282 	 9.73797 	 -68.1113
| 23> S 	 -67.6207 	 4.50106 	 -67.9591
| 24> C 	 -67.0561 	 2.8355 	 -68.171
| 25> C 	 -66.1695 	 2.72234 	 -69.2047
| 26> C 	 -65.934 	 3.99697 	 -69.8345
| 27> C 	 -66.6605 	 5.04736 	 -69.2248
| 28> H 	 -65.7866 	 1.7252 	 -69.5211
| 29> C 	 -64.9447 	 4.0396 	 -70.9764
| 30> H 	 -64.1254 	 3.37877 	 -70.8338
| 31> H 	 -64.5015 	 5.0865 	 -71.0729
| 32> C 	 -65.5835 	 3.61605 	 -72.2941
| 33> H 	 -66.3113 	 4.40568 	 -72.5624
| 34> H 	 -65.9989 	 2.63519 	 -72.1859
| 35> C 	 -64.6095 	 3.5287 	 -73.437
| 36> H 	 -65.2189 	 3.35987 	 -74.4105
| 37> H 	 -63.7933 	 2.74921 	 -73.3599
| 38> H 	 -64.0638 	 4.47851 	 -73.5683
| 39> H 	 -66.1331 	 9.8313 	 -70.5243
| 40> H 	 -67.4179 	 2.06511 	 -67.5354
| 41> *
| 42>
| 43>                          ****END OF INPUT****

CARTESIAN COORDINATES (ANGSTROEM)
---------------------------------
  S    -65.365200    7.532440  -69.645500
  C    -66.387900    8.891580  -70.084800
  C    -67.685500    8.595420  -70.169200
  C    -67.937500    7.212210  -69.790600
  C    -66.743300    6.436910  -69.571400
  H    -68.869800    6.680780  -69.627700
  C    -68.761800    9.480400  -70.677300
  H    -69.699900    8.981980  -70.535400
  H    -68.527900    9.641720  -71.689500
  C    -68.824900   10.805600  -70.005000
  H    -67.830300   11.166200  -69.957000
  H    -69.417200   11.495600  -70.560200
  C    -69.350900   10.612800  -68.520000
  H    -69.170900   11.412300  -67.780000
  H    -70.424200   10.495800  -68.504400
  H    -68.828200    9.737970  -68.111300
  S    -67.620700    4.501060  -67.959100
  C    -67.056100    2.835500  -68.171000
  C    -66.169500    2.722340  -69.204700
  C    -65.934000    3.996970  -69.834500
  C    -66.660500    5.047360  -69.224800
  H    -65.786600    1.725200  -69.521100
  C    -64.944700    4.039600  -70.976400
  H    -64.125400    3.378770  -70.833800
  H    -64.501500    5.086500  -71.072900
  C    -65.583500    3.616050  -72.294100
  H    -66.311300    4.405680  -72.562400
  H    -65.998900    2.635190  -72.185900
  C    -64.609500    3.528700  -73.437000
  H    -65.218900    3.359870  -74.410500
  H    -63.793300    2.749210  -73.359900
  H    -64.063800    4.478510  -73.568300
  H    -66.133100    9.831300  -70.524300
  H    -67.417900    2.065110  -67.535400

 Total Charge           Charge          ....    0
 Multiplicity           Mult            ....    1
 Number of Electrons    NEL             ....  134
 Basis Dimension        Dim             ....  322

ORBITAL ENERGIES
----------------

  NO   OCC          E(Eh)            E(eV)
   0   2.0000     -88.968986     -2420.9692
   1   2.0000     -88.967626     -2420.9322
   2   2.0000     -10.334414      -281.2137
   3   2.0000     -10.325047      -280.9588
   4   2.0000     -10.316816      -280.7348
   5   2.0000     -10.306726      -280.4603
   6   2.0000     -10.305400      -280.4242
   7   2.0000     -10.299777      -280.2712
   8   2.0000     -10.299706      -280.2693
   9   2.0000     -10.296113      -280.1715
  10   2.0000     -10.288972      -279.9772
  11   2.0000     -10.284756      -279.8624
  12   2.0000     -10.281801      -279.7820
  13   2.0000     -10.281624      -279.7772
  14   2.0000     -10.280695      -279.7519
  15   2.0000     -10.277163      -279.6558
  16   2.0000      -8.083308      -219.9580
  17   2.0000      -8.082707      -219.9416
  18   2.0000      -6.041725      -164.4037
  19   2.0000      -6.041460      -164.3965
  20   2.0000      -6.037618      -164.2919
  21   2.0000      -6.037277      -164.2827
  22   2.0000      -6.034167      -164.1980
  23   2.0000      -6.033342      -164.1756
  24   2.0000      -1.009979       -27.4829
  25   2.0000      -0.986321       -26.8392
  26   2.0000      -0.923918       -25.1411
  27   2.0000      -0.913201       -24.8495
  28   2.0000      -0.874879       -23.8067
  29   2.0000      -0.850774       -23.1507
  30   2.0000      -0.839157       -22.8346
  31   2.0000      -0.811950       -22.0943
  32   2.0000      -0.784006       -21.3339
  33   2.0000      -0.769165       -20.9300
  34   2.0000      -0.714263       -19.4361
  35   2.0000      -0.704854       -19.1800
  36   2.0000      -0.687231       -18.7005
  37   2.0000      -0.665724       -18.1153
  38   2.0000      -0.634011       -17.2523
  39   2.0000      -0.609337       -16.5809
  40   2.0000      -0.596842       -16.2409
  41   2.0000      -0.585545       -15.9335
  42   2.0000      -0.571739       -15.5578
  43   2.0000      -0.563498       -15.3336
  44   2.0000      -0.543508       -14.7896
  45   2.0000      -0.520427       -14.1615
  46   2.0000      -0.515326       -14.0227
  47   2.0000      -0.511745       -13.9253
  48   2.0000      -0.508816       -13.8456
  49   2.0000      -0.495247       -13.4764
  50   2.0000      -0.492883       -13.4120
  51   2.0000      -0.472312       -12.8523
  52   2.0000      -0.468482       -12.7480
  53   2.0000      -0.464484       -12.6393
  54   2.0000      -0.458388       -12.4734
  55   2.0000      -0.447608       -12.1800
  56   2.0000      -0.441170       -12.0049
  57   2.0000      -0.438250       -11.9254
  58   2.0000      -0.428430       -11.6582
  59   2.0000      -0.425448       -11.5770
  60   2.0000      -0.423080       -11.5126
  61   2.0000      -0.419986       -11.4284
  62   2.0000      -0.417278       -11.3547
  63   2.0000      -0.349620        -9.5136
  64   2.0000      -0.330248        -8.9865
  65   2.0000      -0.328780        -8.9466
  66   2.0000      -0.292265        -7.9529
  67   0.0000       0.027164         0.7392
  68   0.0000       0.073624         2.0034
  69   0.0000       0.111247         3.0272
  70   0.0000       0.116189         3.1617
  71   0.0000       0.129209         3.5160

MULLIKEN ATOMIC CHARGES
-----------------------
   0 S :    0.120948
   1 C :   -0.102932
   2 C :   -0.134417
   3 C :    0.018346
   4 C :   -0.168067
   5 H :    0.014006
   6 C :    0.132475
   7 H :    0.012395
   8 H :    0.029408
   9 C :   -0.039110
  10 H :    0.011744
  11 H :    0.023369
  12 C :   -0.083319
  13 H :    0.035203
  14 H :    0.029251
  15 H :    0.044239
  16 S :    0.116958
  17 C :   -0.094511
  18 C :   -0.028192
  19 C :   -0.032448
  20 C :   -0.154219
  21 H :    0.039469
  22 C :    0.061103
  23 H :    0.011007
  24 H :    0.026865
  25 C :   -0.066739
  26 H :    0.042218
  27 H :    0.023629
  28 C :   -0.081153
  29 H :    0.047722
  30 H :    0.035834
  31 H :    0.028098
  32 H :    0.033107
  33 H :    0.047712
Sum of atomic charges:    0.0000000

LOEWDIN ATOMIC CHARGES
----------------------
   0 S :    0.405936
   1 C :   -0.202130
   2 C :   -0.063356
   3 C :   -0.065427
   4 C :   -0.191204
   5 H :    0.025566
   6 C :   -0.023418
   7 H :    0.028730
   8 H :    0.032542
   9 C :   -0.027896
  10 H :    0.016082
  11 H :    0.019106
  12 C :   -0.068887
  13 H :    0.026833
  14 H :    0.021544
  15 H :    0.029874
  16 S :    0.437479
  17 C :   -0.173771
  18 C :   -0.068383
  19 C :   -0.051246
  20 C :   -0.231344
  21 H :    0.041912
  22 C :   -0.036605
  23 H :    0.022889
  24 H :    0.029469
  25 C :   -0.042161
  26 H :    0.033455
  27 H :    0.020397
  28 C :   -0.078196
  29 H :    0.037067
  30 H :    0.025267
  31 H :    0.022942
  32 H :    0.025884
  33 H :    0.021048

  Mayer bond orders larger than 0.100000
B(  0-S ,  1-C ) :   1.1165 B(  0-S ,  4-C ) :   1.1475 B(  1-C ,  2-C ) :   1.6617
B(  1-C , 32-H ) :   0.9533 B(  2-C ,  3-C ) :   1.2110 B(  2-C ,  6-C ) :   1.0164
B(  3-C ,  4-C ) :   1.5669 B(  3-C ,  5-H ) :   0.9904 B(  4-C , 20-C ) :   1.0595
B(  6-C ,  7-H ) :   0.9389 B(  6-C ,  8-H ) :   0.9238 B(  6-C ,  9-C ) :   1.0857
B(  9-C , 10-H ) :   0.9555 B(  9-C , 11-H ) :   0.9567 B(  9-C , 12-C ) :   1.0584
B( 12-C , 13-H ) :   0.9777 B( 12-C , 14-H ) :   0.9771 B( 12-C , 15-H ) :   0.9784
B( 16-S , 17-C ) :   1.1576 B( 16-S , 20-C ) :   1.1629 B( 17-C , 18-C ) :   1.5974
B( 17-C , 33-H ) :   0.9742 B( 18-C , 19-C ) :   1.2516 B( 18-C , 21-H ) :   0.9837
B( 19-C , 20-C ) :   1.5497 B( 19-C , 22-C ) :   1.0552 B( 22-C , 23-H ) :   0.9358
B( 22-C , 24-H ) :   0.9269 B( 22-C , 25-C ) :   1.0717 B( 25-C , 26-H ) :   0.9512
B( 25-C , 27-H ) :   0.9546 B( 25-C , 28-C ) :   1.0915 B( 28-C , 29-H ) :   0.9727
B( 28-C , 30-H ) :   0.9718 B( 28-C , 31-H ) :   0.9706

Dispersion correction           -0.014043143
FINAL SINGLE POINT ENERGY     -1339.874736669575

DIPOLE MOMENT
-------------
                                X             Y             Z
Electronic contribution:      3.19358      -6.80475      14.02369
Nuclear contribution   :     -3.40803       6.70221     -14.38884
                        -----------------------------------------
Total Dipole Moment    :     -0.21445      -0.10254      -0.36516
                        -----------------------------------------
Magnitude (a.u.)       :      0.43571
Magnitude (Debye)      :      1.10748

Rotational constants in cm-1:     0.021257     0.007903     0.006492
Rotational constants in MHz :   637.260397   236.929299   194.624862

                             ****ORCA TERMINATED NORMALLY****
TOTAL RUN TIME: 0 days 0 hours 0 minutes 21 seconds 375 msec
