                         Program Version 4.2.1 -  RELEASE  -
|  1> ! wB97X-D3 SP def2-SVP
|  2> %pal
|  3> nprocs 24
|  4> end
|  5>
|  6> * xyz 0 1
|  7> S 	 -99.8053 	 3.51984 	 -107.866
|  8> C 	 -101.076 	 4.39204 	 -106.95
|  9> C 	 -100.524 	 4.85358 	 -105.719
| 10> C 	 -99.1479 	 4.51331 	 -105.587
| 11> C 	 -98.6244 	 3.69023 	 -106.54
| 12> H 	 -98.5276 	 4.7839 	 -104.765
| 13> C 	 -101.311 	 5.71883 	 -104.745
| 14> H 	 -100.745 	 5.78795 	 -103.845
| 15> H 	 -102.294 	 5.20021 	 -104.727
| 16> C 	 -101.677 	 7.22013 	 -105.253
| 17> H 	 -100.799 	 7.8306 	 -105.241
| 18> H 	 -102.204 	 7.0746 	 -106.231
| 19> C 	 -102.644 	 7.95543 	 -104.366
| 20> H 	 -103.601 	 7.51839 	 -104.293
| 21> H 	 -102.234 	 7.97947 	 -103.362
| 22> H 	 -102.666 	 9.00751 	 -104.709
| 23> S 	 -96.5146 	 3.38061 	 -108.197
| 24> C 	 -95.1009 	 2.45303 	 -107.637
| 25> C 	 -95.2043 	 2.18436 	 -106.278
| 26> C 	 -96.4352 	 2.64842 	 -105.675
| 27> C 	 -97.24 	 3.34502 	 -106.609
| 28> H 	 -94.3932 	 1.51236 	 -105.811
| 29> C 	 -96.9244 	 2.11461 	 -104.29
| 30> H 	 -96.8463 	 0.989038 	 -104.377
| 31> H 	 -97.9615 	 2.34076 	 -104.287
| 32> C 	 -96.1262 	 2.726 	 -103.128
| 33> H 	 -96.2988 	 3.84541 	 -103.294
| 34> H 	 -95.0801 	 2.45994 	 -103.162
| 35> C 	 -96.4685 	 2.21059 	 -101.694
| 36> H 	 -95.6618 	 2.38691 	 -101.006
| 37> H 	 -96.7078 	 1.12561 	 -101.565
| 38> H 	 -97.3111 	 2.70277 	 -101.257
| 39> H 	 -102.084 	 4.54246 	 -107.294
| 40> H 	 -94.2668 	 1.9708 	 -108.185
| 41> *
| 42>
| 43>                          ****END OF INPUT****

CARTESIAN COORDINATES (ANGSTROEM)
---------------------------------
  S    -99.805300    3.519840  -107.866000
  C    -101.076000    4.392040  -106.950000
  C    -100.524000    4.853580  -105.719000
  C    -99.147900    4.513310  -105.587000
  C    -98.624400    3.690230  -106.540000
  H    -98.527600    4.783900  -104.765000
  C    -101.311000    5.718830  -104.745000
  H    -100.745000    5.787950  -103.845000
  H    -102.294000    5.200210  -104.727000
  C    -101.677000    7.220130  -105.253000
  H    -100.799000    7.830600  -105.241000
  H    -102.204000    7.074600  -106.231000
  C    -102.644000    7.955430  -104.366000
  H    -103.601000    7.518390  -104.293000
  H    -102.234000    7.979470  -103.362000
  H    -102.666000    9.007510  -104.709000
  S    -96.514600    3.380610  -108.197000
  C    -95.100900    2.453030  -107.637000
  C    -95.204300    2.184360  -106.278000
  C    -96.435200    2.648420  -105.675000
  C    -97.240000    3.345020  -106.609000
  H    -94.393200    1.512360  -105.811000
  C    -96.924400    2.114610  -104.290000
  H    -96.846300    0.989038  -104.377000
  H    -97.961500    2.340760  -104.287000
  C    -96.126200    2.726000  -103.128000
  H    -96.298800    3.845410  -103.294000
  H    -95.080100    2.459940  -103.162000
  C    -96.468500    2.210590  -101.694000
  H    -95.661800    2.386910  -101.006000
  H    -96.707800    1.125610  -101.565000
  H    -97.311100    2.702770  -101.257000
  H    -102.084000    4.542460  -107.294000
  H    -94.266800    1.970800  -108.185000

 Total Charge           Charge          ....    0
 Multiplicity           Mult            ....    1
 Number of Electrons    NEL             ....  134
 Basis Dimension        Dim             ....  322

ORBITAL ENERGIES
----------------

  NO   OCC          E(Eh)            E(eV)
   0   2.0000     -88.968618     -2420.9592
   1   2.0000     -88.968231     -2420.9486
   2   2.0000     -10.328791      -281.0607
   3   2.0000     -10.328536      -281.0537
   4   2.0000     -10.322381      -280.8863
   5   2.0000     -10.322132      -280.8795
   6   2.0000     -10.310458      -280.5618
   7   2.0000     -10.307234      -280.4741
   8   2.0000     -10.302893      -280.3560
   9   2.0000     -10.298423      -280.2343
  10   2.0000     -10.296623      -280.1854
  11   2.0000     -10.296368      -280.1784
  12   2.0000     -10.291766      -280.0532
  13   2.0000     -10.290933      -280.0305
  14   2.0000     -10.278518      -279.6927
  15   2.0000     -10.274680      -279.5883
  16   2.0000      -8.082334      -219.9315
  17   2.0000      -8.081803      -219.9170
  18   2.0000      -6.040999      -164.3839
  19   2.0000      -6.040508      -164.3706
  20   2.0000      -6.036935      -164.2733
  21   2.0000      -6.036471      -164.2607
  22   2.0000      -6.032931      -164.1644
  23   2.0000      -6.032486      -164.1523
  24   2.0000      -1.003130       -27.2966
  25   2.0000      -0.975027       -26.5318
  26   2.0000      -0.906256       -24.6605
  27   2.0000      -0.901845       -24.5405
  28   2.0000      -0.871777       -23.7223
  29   2.0000      -0.851963       -23.1831
  30   2.0000      -0.843171       -22.9438
  31   2.0000      -0.816484       -22.2177
  32   2.0000      -0.780621       -21.2418
  33   2.0000      -0.766752       -20.8644
  34   2.0000      -0.706743       -19.2315
  35   2.0000      -0.697986       -18.9932
  36   2.0000      -0.694253       -18.8916
  37   2.0000      -0.654067       -17.7981
  38   2.0000      -0.639330       -17.3970
  39   2.0000      -0.618243       -16.8233
  40   2.0000      -0.582987       -15.8639
  41   2.0000      -0.579720       -15.7750
  42   2.0000      -0.564294       -15.3552
  43   2.0000      -0.556029       -15.1303
  44   2.0000      -0.527813       -14.3625
  45   2.0000      -0.523747       -14.2519
  46   2.0000      -0.517438       -14.0802
  47   2.0000      -0.508742       -13.8436
  48   2.0000      -0.505414       -13.7530
  49   2.0000      -0.501852       -13.6561
  50   2.0000      -0.497121       -13.5274
  51   2.0000      -0.473864       -12.8945
  52   2.0000      -0.470702       -12.8084
  53   2.0000      -0.464045       -12.6273
  54   2.0000      -0.457543       -12.4504
  55   2.0000      -0.447599       -12.1798
  56   2.0000      -0.442999       -12.0546
  57   2.0000      -0.437057       -11.8929
  58   2.0000      -0.432384       -11.7658
  59   2.0000      -0.424367       -11.5476
  60   2.0000      -0.419906       -11.4262
  61   2.0000      -0.414192       -11.2708
  62   2.0000      -0.412892       -11.2354
  63   2.0000      -0.351948        -9.5770
  64   2.0000      -0.331752        -9.0274
  65   2.0000      -0.326957        -8.8970
  66   2.0000      -0.285018        -7.7557
  67   0.0000       0.018785         0.5112
  68   0.0000       0.068997         1.8775
  69   0.0000       0.104843         2.8529
  70   0.0000       0.117132         3.1873
  71   0.0000       0.125167         3.4060

MULLIKEN ATOMIC CHARGES
-----------------------
   0 S :    0.102401
   1 C :   -0.135027
   2 C :   -0.066712
   3 C :    0.016913
   4 C :   -0.127216
   5 H :    0.002147
   6 C :    0.058012
   7 H :    0.017380
   8 H :    0.038198
   9 C :   -0.084215
  10 H :    0.033166
  11 H :    0.034178
  12 C :   -0.030450
  13 H :    0.024265
  14 H :    0.018500
  15 H :    0.042791
  16 S :    0.103533
  17 C :   -0.110849
  18 C :   -0.062623
  19 C :   -0.072888
  20 C :   -0.146043
  21 H :    0.051758
  22 C :    0.073654
  23 H :    0.043194
  24 H :    0.020195
  25 C :   -0.093857
  26 H :    0.050072
  27 H :    0.035156
  28 C :   -0.041890
  29 H :    0.027882
  30 H :    0.034652
  31 H :    0.021796
  32 H :    0.052241
  33 H :    0.069687
Sum of atomic charges:    0.0000000

LOEWDIN ATOMIC CHARGES
----------------------
   0 S :    0.378907
   1 C :   -0.185852
   2 C :   -0.058934
   3 C :   -0.062467
   4 C :   -0.187847
   5 H :    0.026249
   6 C :   -0.031427
   7 H :    0.022729
   8 H :    0.039535
   9 C :   -0.033130
  10 H :    0.022324
  11 H :    0.026884
  12 C :   -0.064984
  13 H :    0.016152
  14 H :    0.022563
  15 H :    0.034434
  16 S :    0.397672
  17 C :   -0.192932
  18 C :   -0.080477
  19 C :   -0.054929
  20 C :   -0.199195
  21 H :    0.045947
  22 C :   -0.028188
  23 H :    0.037367
  24 H :    0.022162
  25 C :   -0.044055
  26 H :    0.036484
  27 H :    0.024962
  28 C :   -0.073431
  29 H :    0.023926
  30 H :    0.032297
  31 H :    0.019282
  32 H :    0.025942
  33 H :    0.042034

  Mayer bond orders larger than 0.100000
B(  0-S ,  1-C ) :   1.1350 B(  0-S ,  4-C ) :   1.1308 B(  1-C ,  2-C ) :   1.5627
B(  1-C , 32-H ) :   0.9743 B(  2-C ,  3-C ) :   1.2609 B(  2-C ,  6-C ) :   1.0317
B(  3-C ,  4-C ) :   1.5482 B(  3-C ,  5-H ) :   0.9969 B(  4-C , 20-C ) :   1.0838
B(  6-C ,  7-H ) :   0.9417 B(  6-C ,  8-H ) :   0.9383 B(  6-C ,  9-C ) :   1.0618
B(  9-C , 10-H ) :   0.9593 B(  9-C , 11-H ) :   0.9566 B(  9-C , 12-C ) :   1.0893
B( 12-C , 13-H ) :   0.9751 B( 12-C , 14-H ) :   0.9707 B( 12-C , 15-H ) :   0.9719
B( 16-S , 17-C ) :   1.1325 B( 16-S , 20-C ) :   1.1296 B( 17-C , 18-C ) :   1.6494
B( 17-C , 33-H ) :   0.9604 B( 18-C , 19-C ) :   1.2400 B( 18-C , 21-H ) :   0.9707
B( 19-C , 20-C ) :   1.5718 B( 19-C , 22-C ) :   1.0329 B( 22-C , 23-H ) :   0.9398
B( 22-C , 24-H ) :   0.9348 B( 22-C , 25-C ) :   1.0499 B( 25-C , 26-H ) :   0.9558
B( 25-C , 27-H ) :   0.9639 B( 25-C , 28-C ) :   1.0660 B( 28-C , 29-H ) :   0.9792
B( 28-C , 30-H ) :   0.9736 B( 28-C , 31-H ) :   0.9759

Dispersion correction           -0.013417212
FINAL SINGLE POINT ENERGY     -1339.857395555516

DIPOLE MOMENT
-------------
                                X             Y             Z
Electronic contribution:      7.60890      -8.50675     -27.15335
Nuclear contribution   :     -7.70179       8.52438      27.80563
                        -----------------------------------------
Total Dipole Moment    :     -0.09290       0.01763       0.65229
                        -----------------------------------------
Magnitude (a.u.)       :      0.65910
Magnitude (Debye)      :      1.67531

Rotational constants in cm-1:     0.017330     0.008028     0.005972
Rotational constants in MHz :   519.534661   240.687240   179.044533

                             ****ORCA TERMINATED NORMALLY****
TOTAL RUN TIME: 0 days 0 hours 0 minutes 20 seconds 618 msec
