                         Program Version 4.2.1 -  RELEASE  -
|  1> ! wB97X-D3 SP def2-SVP
|  2> %pal
|  3> nprocs 24
|  4> end
|  5>
|  6> * xyz 0 1
|  7> S 	 -132.381 	 1.18828 	 3.44942
|  8> C 	 -131.68 	 -0.277495 	 4.19042
|  9> C 	 -130.688 	 0.0207034 	 5.10838
| 10> C 	 -130.434 	 1.42888 	 5.21076
| 11> C 	 -131.328 	 2.12261 	 4.43975
| 12> H 	 -129.728 	 1.96584 	 5.83317
| 13> C 	 -129.962 	 -0.895401 	 6.05756
| 14> H 	 -128.905 	 -0.778033 	 5.86396
| 15> H 	 -130.184 	 -1.90087 	 5.72263
| 16> C 	 -130.337 	 -0.806919 	 7.6008
| 17> H 	 -129.685 	 -1.48405 	 8.14223
| 18> H 	 -130.059 	 0.141298 	 8.00735
| 19> C 	 -131.817 	 -1.18093 	 7.91108
| 20> H 	 -132.535 	 -0.485248 	 7.44624
| 21> H 	 -131.978 	 -2.25215 	 7.71106
| 22> H 	 -131.874 	 -1.02406 	 8.96377
| 23> S 	 -132.134 	 4.30733 	 2.8194
| 24> C 	 -132.201 	 5.89879 	 3.65516
| 25> C 	 -132.02 	 5.83989 	 5.01084
| 26> C 	 -131.496 	 4.56021 	 5.39959
| 27> C 	 -131.58 	 3.59303 	 4.40229
| 28> H 	 -132.054 	 6.77773 	 5.64415
| 29> C 	 -131.302 	 4.30537 	 6.88267
| 30> H 	 -131.116 	 5.23534 	 7.40325
| 31> H 	 -130.437 	 3.79089 	 6.95525
| 32> C 	 -132.567 	 3.61176 	 7.53575
| 33> H 	 -132.978 	 2.87843 	 6.87331
| 34> H 	 -133.29 	 4.32306 	 7.65033
| 35> C 	 -132.279 	 3.01216 	 8.87817
| 36> H 	 -131.795 	 3.68767 	 9.56224
| 37> H 	 -131.549 	 2.2328 	 8.8155
| 38> H 	 -133.26 	 2.75936 	 9.32865
| 39> H 	 -132.03 	 -1.29812 	 4.2175
| 40> H 	 -132.673 	 6.85037 	 3.31718
| 41> *
| 42>
| 43>                          ****END OF INPUT****

CARTESIAN COORDINATES (ANGSTROEM)
---------------------------------
  S    -132.381000    1.188280    3.449420
  C    -131.680000   -0.277495    4.190420
  C    -130.688000    0.020703    5.108380
  C    -130.434000    1.428880    5.210760
  C    -131.328000    2.122610    4.439750
  H    -129.728000    1.965840    5.833170
  C    -129.962000   -0.895401    6.057560
  H    -128.905000   -0.778033    5.863960
  H    -130.184000   -1.900870    5.722630
  C    -130.337000   -0.806919    7.600800
  H    -129.685000   -1.484050    8.142230
  H    -130.059000    0.141298    8.007350
  C    -131.817000   -1.180930    7.911080
  H    -132.535000   -0.485248    7.446240
  H    -131.978000   -2.252150    7.711060
  H    -131.874000   -1.024060    8.963770
  S    -132.134000    4.307330    2.819400
  C    -132.201000    5.898790    3.655160
  C    -132.020000    5.839890    5.010840
  C    -131.496000    4.560210    5.399590
  C    -131.580000    3.593030    4.402290
  H    -132.054000    6.777730    5.644150
  C    -131.302000    4.305370    6.882670
  H    -131.116000    5.235340    7.403250
  H    -130.437000    3.790890    6.955250
  C    -132.567000    3.611760    7.535750
  H    -132.978000    2.878430    6.873310
  H    -133.290000    4.323060    7.650330
  C    -132.279000    3.012160    8.878170
  H    -131.795000    3.687670    9.562240
  H    -131.549000    2.232800    8.815500
  H    -133.260000    2.759360    9.328650
  H    -132.030000   -1.298120    4.217500
  H    -132.673000    6.850370    3.317180

 Total Charge           Charge          ....    0
 Multiplicity           Mult            ....    1
 Number of Electrons    NEL             ....  134
 Basis Dimension        Dim             ....  322

ORBITAL ENERGIES
----------------

  NO   OCC          E(Eh)            E(eV)
   0   2.0000     -88.970498     -2421.0103
   1   2.0000     -88.969485     -2420.9828
   2   2.0000     -10.333742      -281.1954
   3   2.0000     -10.330783      -281.1149
   4   2.0000     -10.320375      -280.8317
   5   2.0000     -10.312951      -280.6297
   6   2.0000     -10.303177      -280.3637
   7   2.0000     -10.301091      -280.3069
   8   2.0000     -10.297454      -280.2080
   9   2.0000     -10.292557      -280.0747
  10   2.0000     -10.292474      -280.0724
  11   2.0000     -10.291902      -280.0569
  12   2.0000     -10.284072      -279.8438
  13   2.0000     -10.280812      -279.7551
  14   2.0000     -10.275894      -279.6213
  15   2.0000     -10.273826      -279.5650
  16   2.0000      -8.085069      -220.0059
  17   2.0000      -8.082207      -219.9280
  18   2.0000      -6.043657      -164.4563
  19   2.0000      -6.041053      -164.3854
  20   2.0000      -6.039787      -164.3510
  21   2.0000      -6.037250      -164.2819
  22   2.0000      -6.035549      -164.2357
  23   2.0000      -6.032483      -164.1522
  24   2.0000      -1.004243       -27.3268
  25   2.0000      -0.976987       -26.5852
  26   2.0000      -0.909869       -24.7588
  27   2.0000      -0.906505       -24.6672
  28   2.0000      -0.864075       -23.5127
  29   2.0000      -0.854651       -23.2562
  30   2.0000      -0.845624       -23.0106
  31   2.0000      -0.815748       -22.1976
  32   2.0000      -0.784518       -21.3478
  33   2.0000      -0.771658       -20.9979
  34   2.0000      -0.713104       -19.4045
  35   2.0000      -0.705634       -19.2013
  36   2.0000      -0.693944       -18.8832
  37   2.0000      -0.656589       -17.8667
  38   2.0000      -0.636238       -17.3129
  39   2.0000      -0.619054       -16.8453
  40   2.0000      -0.586754       -15.9664
  41   2.0000      -0.566971       -15.4281
  42   2.0000      -0.561177       -15.2704
  43   2.0000      -0.549130       -14.9426
  44   2.0000      -0.542608       -14.7651
  45   2.0000      -0.535620       -14.5750
  46   2.0000      -0.514897       -14.0111
  47   2.0000      -0.502035       -13.6611
  48   2.0000      -0.498621       -13.5682
  49   2.0000      -0.490381       -13.3439
  50   2.0000      -0.490006       -13.3337
  51   2.0000      -0.486277       -13.2323
  52   2.0000      -0.465943       -12.6789
  53   2.0000      -0.464090       -12.6285
  54   2.0000      -0.459491       -12.5034
  55   2.0000      -0.456457       -12.4208
  56   2.0000      -0.442186       -12.0325
  57   2.0000      -0.441221       -12.0062
  58   2.0000      -0.433272       -11.7899
  59   2.0000      -0.431283       -11.7358
  60   2.0000      -0.424380       -11.5480
  61   2.0000      -0.421200       -11.4614
  62   2.0000      -0.413249       -11.2451
  63   2.0000      -0.350609        -9.5406
  64   2.0000      -0.335954        -9.1418
  65   2.0000      -0.331330        -9.0160
  66   2.0000      -0.285352        -7.7648
  67   0.0000       0.023193         0.6311
  68   0.0000       0.068297         1.8585
  69   0.0000       0.090139         2.4528
  70   0.0000       0.118183         3.2159
  71   0.0000       0.123491         3.3604

MULLIKEN ATOMIC CHARGES
-----------------------
   0 S :    0.105164
   1 C :   -0.092038
   2 C :   -0.123353
   3 C :    0.004295
   4 C :   -0.113891
   5 H :    0.014464
   6 C :    0.084020
   7 H :    0.033606
   8 H :    0.001079
   9 C :   -0.068126
  10 H :    0.025236
  11 H :    0.016170
  12 C :   -0.048352
  13 H :    0.055736
  14 H :    0.039973
  15 H :    0.027218
  16 S :    0.085905
  17 C :   -0.079763
  18 C :   -0.070436
  19 C :   -0.079386
  20 C :   -0.134789
  21 H :    0.050321
  22 C :    0.112970
  23 H :    0.009039
  24 H :   -0.022182
  25 C :   -0.015349
  26 H :    0.034438
  27 H :    0.000187
  28 C :   -0.023076
  29 H :    0.012053
  30 H :    0.017760
  31 H :    0.040097
  32 H :    0.036066
  33 H :    0.064942
Sum of atomic charges:    0.0000000

LOEWDIN ATOMIC CHARGES
----------------------
   0 S :    0.401500
   1 C :   -0.201205
   2 C :   -0.055200
   3 C :   -0.069218
   4 C :   -0.182304
   5 H :    0.032265
   6 C :   -0.032930
   7 H :    0.032998
   8 H :    0.023579
   9 C :   -0.032002
  10 H :    0.024922
  11 H :    0.013470
  12 C :   -0.061992
  13 H :    0.031768
  14 H :    0.028958
  15 H :    0.024489
  16 S :    0.347930
  17 C :   -0.179070
  18 C :   -0.076748
  19 C :   -0.055624
  20 C :   -0.175343
  21 H :    0.045755
  22 C :   -0.018111
  23 H :    0.028654
  24 H :    0.006589
  25 C :   -0.020528
  26 H :    0.025877
  27 H :    0.012609
  28 C :   -0.061448
  29 H :    0.020418
  30 H :    0.018894
  31 H :    0.033616
  32 H :    0.028505
  33 H :    0.038925

  Mayer bond orders larger than 0.100000
B(  0-S ,  1-C ) :   1.0994 B(  0-S ,  4-C ) :   1.1506 B(  1-C ,  2-C ) :   1.6692
B(  1-C , 32-H ) :   0.9580 B(  2-C ,  3-C ) :   1.1811 B(  2-C ,  6-C ) :   1.0304
B(  3-C ,  4-C ) :   1.6077 B(  3-C ,  5-H ) :   0.9984 B(  4-C , 20-C ) :   1.0281
B(  6-C ,  7-H ) :   0.9362 B(  6-C ,  8-H ) :   0.9363 B(  6-C ,  9-C ) :   1.0592
B(  9-C , 10-H ) :   0.9533 B(  9-C , 11-H ) :   0.9585 B(  9-C , 12-C ) :   1.0728
B( 12-C , 13-H ) :   0.9756 B( 12-C , 14-H ) :   0.9755 B( 12-C , 15-H ) :   0.9728
B( 16-S , 17-C ) :   1.1192 B( 16-S , 20-C ) :   1.1033 B( 17-C , 18-C ) :   1.6848
B( 17-C , 33-H ) :   0.9513 B( 18-C , 19-C ) :   1.2100 B( 18-C , 21-H ) :   0.9694
B( 19-C , 20-C ) :   1.6353 B( 19-C , 22-C ) :   1.0547 B( 22-C , 23-H ) :   0.9271
B( 22-C , 24-H ) :   0.9309 B( 22-C , 25-C ) :   1.0470 B( 25-C , 26-H ) :   0.9603
B( 25-C , 27-H ) :   0.9507 B( 25-C , 28-C ) :   1.0905 B( 28-C , 29-H ) :   0.9679
B( 28-C , 30-H ) :   0.9752 B( 28-C , 31-H ) :   0.9703

Dispersion correction           -0.016221522
FINAL SINGLE POINT ENERGY     -1339.857907564651

DIPOLE MOMENT
-------------
                                X             Y             Z
Electronic contribution:     -2.93686       9.85294     -29.88431
Nuclear contribution   :      3.00871      -9.86147      30.83671
                        -----------------------------------------
Total Dipole Moment    :      0.07185      -0.00853       0.95240
                        -----------------------------------------
Magnitude (a.u.)       :      0.95514
Magnitude (Debye)      :      2.42778

Rotational constants in cm-1:     0.019837     0.010304     0.007501
Rotational constants in MHz :   594.709623   308.910569   224.871119

                             ****ORCA TERMINATED NORMALLY****
TOTAL RUN TIME: 0 days 0 hours 0 minutes 23 seconds 297 msec
