                         Program Version 4.2.1 -  RELEASE  -
|  1> ! wB97X-D3 SP def2-SVP
|  2> %pal
|  3> nprocs 24
|  4> end
|  5>
|  6> * xyz 0 1
|  7> S 	 -102.084 	 45.6618 	 -83.6211
|  8> C 	 -101.483 	 44.1334 	 -84.2065
|  9> C 	 -101.818 	 43.9172 	 -85.5353
| 10> C 	 -102.677 	 44.9703 	 -86.0334
| 11> C 	 -103.035 	 45.9237 	 -85.0439
| 12> H 	 -103.111 	 44.9892 	 -87.0096
| 13> C 	 -101.442 	 42.6972 	 -86.3456
| 14> H 	 -100.683 	 42.2874 	 -85.6053
| 15> H 	 -101.047 	 42.9335 	 -87.3481
| 16> C 	 -102.58 	 41.6498 	 -86.3956
| 17> H 	 -101.992 	 40.7826 	 -86.6525
| 18> H 	 -102.975 	 41.437 	 -85.3874
| 19> C 	 -103.736 	 42.1058 	 -87.3198
| 20> H 	 -103.379 	 42.7507 	 -88.1172
| 21> H 	 -104.102 	 41.2031 	 -87.8492
| 22> H 	 -104.556 	 42.6773 	 -86.7905
| 23> S 	 -103.487 	 48.6678 	 -84.8296
| 24> C 	 -104.937 	 49.3251 	 -85.4253
| 25> C 	 -105.772 	 48.319 	 -85.9071
| 26> C 	 -105.185 	 47.0716 	 -85.8468
| 27> C 	 -103.952 	 47.0579 	 -85.2535
| 28> H 	 -106.725 	 48.6224 	 -86.3987
| 29> C 	 -105.894 	 45.9298 	 -86.418
| 30> H 	 -105.187 	 45.2023 	 -86.8016
| 31> H 	 -106.331 	 46.247 	 -87.385
| 32> C 	 -106.886 	 45.2791 	 -85.4592
| 33> H 	 -107.397 	 44.4826 	 -85.9763
| 34> H 	 -107.617 	 46.0686 	 -85.3118
| 35> C 	 -106.193 	 44.8099 	 -84.1737
| 36> H 	 -105.424 	 44.1293 	 -84.2701
| 37> H 	 -107.004 	 44.4072 	 -83.5159
| 38> H 	 -105.637 	 45.5804 	 -83.6497
| 39> H 	 -100.667 	 43.5245 	 -83.6311
| 40> H 	 -105.239 	 50.3229 	 -85.2769
| 41> *
| 42>
| 43>                          ****END OF INPUT****

CARTESIAN COORDINATES (ANGSTROEM)
---------------------------------
  S    -102.084000   45.661800  -83.621100
  C    -101.483000   44.133400  -84.206500
  C    -101.818000   43.917200  -85.535300
  C    -102.677000   44.970300  -86.033400
  C    -103.035000   45.923700  -85.043900
  H    -103.111000   44.989200  -87.009600
  C    -101.442000   42.697200  -86.345600
  H    -100.683000   42.287400  -85.605300
  H    -101.047000   42.933500  -87.348100
  C    -102.580000   41.649800  -86.395600
  H    -101.992000   40.782600  -86.652500
  H    -102.975000   41.437000  -85.387400
  C    -103.736000   42.105800  -87.319800
  H    -103.379000   42.750700  -88.117200
  H    -104.102000   41.203100  -87.849200
  H    -104.556000   42.677300  -86.790500
  S    -103.487000   48.667800  -84.829600
  C    -104.937000   49.325100  -85.425300
  C    -105.772000   48.319000  -85.907100
  C    -105.185000   47.071600  -85.846800
  C    -103.952000   47.057900  -85.253500
  H    -106.725000   48.622400  -86.398700
  C    -105.894000   45.929800  -86.418000
  H    -105.187000   45.202300  -86.801600
  H    -106.331000   46.247000  -87.385000
  C    -106.886000   45.279100  -85.459200
  H    -107.397000   44.482600  -85.976300
  H    -107.617000   46.068600  -85.311800
  C    -106.193000   44.809900  -84.173700
  H    -105.424000   44.129300  -84.270100
  H    -107.004000   44.407200  -83.515900
  H    -105.637000   45.580400  -83.649700
  H    -100.667000   43.524500  -83.631100
  H    -105.239000   50.322900  -85.276900

 Total Charge           Charge          ....    0
 Multiplicity           Mult            ....    1
 Number of Electrons    NEL             ....  134
 Basis Dimension        Dim             ....  322

ORBITAL ENERGIES
----------------

  NO   OCC          E(Eh)            E(eV)
   0   2.0000     -88.968907     -2420.9670
   1   2.0000     -88.965512     -2420.8747
   2   2.0000     -10.333274      -281.1827
   3   2.0000     -10.322523      -280.8901
   4   2.0000     -10.321345      -280.8581
   5   2.0000     -10.310893      -280.5737
   6   2.0000     -10.302567      -280.3471
   7   2.0000     -10.299100      -280.2528
   8   2.0000     -10.294941      -280.1396
   9   2.0000     -10.290722      -280.0248
  10   2.0000     -10.290520      -280.0193
  11   2.0000     -10.290254      -280.0121
  12   2.0000     -10.287540      -279.9382
  13   2.0000     -10.282302      -279.7957
  14   2.0000     -10.280464      -279.7456
  15   2.0000     -10.265762      -279.3456
  16   2.0000      -8.083699      -219.9686
  17   2.0000      -8.081561      -219.9105
  18   2.0000      -6.042183      -164.4162
  19   2.0000      -6.039854      -164.3528
  20   2.0000      -6.038130      -164.3059
  21   2.0000      -6.035718      -164.2402
  22   2.0000      -6.034558      -164.2087
  23   2.0000      -6.032662      -164.1571
  24   2.0000      -1.014744       -27.6126
  25   2.0000      -0.988914       -26.9097
  26   2.0000      -0.916836       -24.9484
  27   2.0000      -0.913087       -24.8464
  28   2.0000      -0.866692       -23.5839
  29   2.0000      -0.851407       -23.1680
  30   2.0000      -0.842139       -22.9158
  31   2.0000      -0.810933       -22.0666
  32   2.0000      -0.785393       -21.3716
  33   2.0000      -0.773226       -21.0405
  34   2.0000      -0.707663       -19.2565
  35   2.0000      -0.700925       -19.0731
  36   2.0000      -0.697131       -18.9699
  37   2.0000      -0.662730       -18.0338
  38   2.0000      -0.635375       -17.2894
  39   2.0000      -0.616909       -16.7869
  40   2.0000      -0.599678       -16.3181
  41   2.0000      -0.578360       -15.7380
  42   2.0000      -0.551686       -15.0121
  43   2.0000      -0.542834       -14.7713
  44   2.0000      -0.541004       -14.7215
  45   2.0000      -0.528285       -14.3754
  46   2.0000      -0.517367       -14.0783
  47   2.0000      -0.517085       -14.0706
  48   2.0000      -0.505477       -13.7547
  49   2.0000      -0.495059       -13.4713
  50   2.0000      -0.492996       -13.4151
  51   2.0000      -0.482314       -13.1244
  52   2.0000      -0.477410       -12.9910
  53   2.0000      -0.466336       -12.6897
  54   2.0000      -0.459914       -12.5149
  55   2.0000      -0.446551       -12.1513
  56   2.0000      -0.442132       -12.0310
  57   2.0000      -0.435059       -11.8386
  58   2.0000      -0.428062       -11.6482
  59   2.0000      -0.421952       -11.4819
  60   2.0000      -0.417620       -11.3640
  61   2.0000      -0.416335       -11.3290
  62   2.0000      -0.411361       -11.1937
  63   2.0000      -0.346358        -9.4249
  64   2.0000      -0.334563        -9.1039
  65   2.0000      -0.327921        -8.9232
  66   2.0000      -0.289914        -7.8890
  67   0.0000       0.028384         0.7724
  68   0.0000       0.074368         2.0236
  69   0.0000       0.110471         3.0061
  70   0.0000       0.120932         3.2907
  71   0.0000       0.128754         3.5036

MULLIKEN ATOMIC CHARGES
-----------------------
   0 S :    0.120266
   1 C :   -0.165490
   2 C :   -0.089206
   3 C :    0.036102
   4 C :   -0.169319
   5 H :    0.009333
   6 C :    0.008311
   7 H :    0.022978
   8 H :    0.050921
   9 C :   -0.045971
  10 H :    0.032768
  11 H :    0.031113
  12 C :   -0.076568
  13 H :    0.023547
  14 H :    0.042806
  15 H :    0.069231
  16 S :    0.120590
  17 C :   -0.081793
  18 C :   -0.063756
  19 C :   -0.047522
  20 C :   -0.144932
  21 H :    0.032870
  22 C :    0.068904
  23 H :   -0.019282
  24 H :    0.019159
  25 C :   -0.016311
  26 H :    0.024932
  27 H :    0.017997
  28 C :   -0.032758
  29 H :    0.015119
  30 H :    0.039700
  31 H :    0.036834
  32 H :    0.086128
  33 H :    0.043298
Sum of atomic charges:   -0.0000000

LOEWDIN ATOMIC CHARGES
----------------------
   0 S :    0.418010
   1 C :   -0.227769
   2 C :   -0.066566
   3 C :   -0.062030
   4 C :   -0.198874
   5 H :    0.022431
   6 C :   -0.036054
   7 H :    0.037358
   8 H :    0.033789
   9 C :   -0.039171
  10 H :    0.024302
  11 H :    0.029414
  12 C :   -0.074625
  13 H :    0.019149
  14 H :    0.033440
  15 H :    0.037068
  16 S :    0.440544
  17 C :   -0.193995
  18 C :   -0.074317
  19 C :   -0.065242
  20 C :   -0.211968
  21 H :    0.039886
  22 C :   -0.038883
  23 H :    0.019963
  24 H :    0.032483
  25 C :   -0.028296
  26 H :    0.022230
  27 H :    0.022794
  28 C :   -0.063125
  29 H :    0.015433
  30 H :    0.033330
  31 H :    0.029398
  32 H :    0.049162
  33 H :    0.020731

  Mayer bond orders larger than 0.100000
B(  0-S ,  1-C ) :   1.1399 B(  0-S ,  4-C ) :   1.1685 B(  1-C ,  2-C ) :   1.6096
B(  1-C ,  4-C ) :   0.1001 B(  1-C , 32-H ) :   0.9463 B(  2-C ,  3-C ) :   1.2585
B(  2-C ,  6-C ) :   1.0184 B(  3-C ,  4-C ) :   1.5364 B(  3-C ,  5-H ) :   0.9880
B(  4-C , 20-C ) :   1.0390 B(  6-C ,  7-H ) :   0.9377 B(  6-C ,  8-H ) :   0.9445
B(  6-C ,  9-C ) :   1.0726 B(  9-C , 10-H ) :   0.9623 B(  9-C , 11-H ) :   0.9529
B(  9-C , 12-C ) :   1.0598 B( 12-C , 13-H ) :   0.9764 B( 12-C , 14-H ) :   0.9707
B( 12-C , 15-H ) :   0.9686 B( 16-S , 17-C ) :   1.1920 B( 16-S , 20-C ) :   1.1539
B( 17-C , 18-C ) :   1.5571 B( 17-C , 20-C ) :   0.1044 B( 17-C , 33-H ) :   0.9718
B( 18-C , 19-C ) :   1.2886 B( 18-C , 21-H ) :   0.9880 B( 19-C , 20-C ) :   1.5608
B( 19-C , 22-C ) :   1.0485 B( 22-C , 23-H ) :   0.9192 B( 22-C , 24-H ) :   0.9262
B( 22-C , 25-C ) :   1.0729 B( 25-C , 26-H ) :   0.9542 B( 25-C , 27-H ) :   0.9535
B( 25-C , 28-C ) :   1.0741 B( 28-C , 29-H ) :   0.9723 B( 28-C , 30-H ) :   0.9722
B( 28-C , 31-H ) :   0.9670

Dispersion correction           -0.017019860
FINAL SINGLE POINT ENERGY     -1339.874072738828

DIPOLE MOMENT
-------------
                                X             Y             Z
Electronic contribution:     11.58203      22.36734      10.15243
Nuclear contribution   :    -11.79133     -22.78022     -10.60188
                        -----------------------------------------
Total Dipole Moment    :     -0.20930      -0.41288      -0.44944
                        -----------------------------------------
Magnitude (a.u.)       :      0.64520
Magnitude (Debye)      :      1.63996

Rotational constants in cm-1:     0.020676     0.010297     0.008103
Rotational constants in MHz :   619.855542   308.696918   242.914183

                             ****ORCA TERMINATED NORMALLY****
TOTAL RUN TIME: 0 days 0 hours 0 minutes 24 seconds 119 msec
