                         Program Version 4.2.1 -  RELEASE  -
|  1> ! wB97X-D3 SP def2-SVP
|  2> %pal
|  3> nprocs 24
|  4> end
|  5>
|  6> * xyz 0 1
|  7> S 	 -43.7011 	 -43.3336 	 -76.7412
|  8> C 	 -44.9612 	 -42.8117 	 -75.6115
|  9> C 	 -44.5558 	 -42.4651 	 -74.3574
| 10> C 	 -43.1335 	 -42.5323 	 -74.3393
| 11> C 	 -42.421 	 -42.8918 	 -75.5365
| 12> H 	 -42.4204 	 -42.2779 	 -73.5614
| 13> C 	 -45.2707 	 -41.8745 	 -73.247
| 14> H 	 -44.8095 	 -42.4576 	 -72.3496
| 15> H 	 -46.3051 	 -42.1469 	 -73.4263
| 16> C 	 -45.1437 	 -40.3374 	 -73.098
| 17> H 	 -44.0574 	 -40.1094 	 -73.0286
| 18> H 	 -45.5555 	 -39.8627 	 -74.0067
| 19> C 	 -45.7957 	 -39.7732 	 -71.769
| 20> H 	 -46.8263 	 -39.8564 	 -71.6752
| 21> H 	 -45.4429 	 -40.3979 	 -70.937
| 22> H 	 -45.4477 	 -38.7299 	 -71.5422
| 23> S 	 -39.8787 	 -43.3205 	 -74.261
| 24> C 	 -38.4283 	 -43.1539 	 -75.175
| 25> C 	 -38.7009 	 -43.1212 	 -76.5099
| 26> C 	 -40.1116 	 -43.0882 	 -76.7835
| 27> C 	 -40.9289 	 -43.1102 	 -75.6783
| 28> H 	 -37.9017 	 -43.0255 	 -77.2519
| 29> C 	 -40.7045 	 -42.8142 	 -78.1238
| 30> H 	 -41.4572 	 -42.092 	 -78.1102
| 31> H 	 -41.1841 	 -43.7932 	 -78.3316
| 32> C 	 -39.6572 	 -42.4755 	 -79.2212
| 33> H 	 -38.9142 	 -43.2161 	 -79.1793
| 34> H 	 -39.2209 	 -41.5937 	 -78.8727
| 35> C 	 -40.2024 	 -42.2228 	 -80.6225
| 36> H 	 -39.474 	 -41.9164 	 -81.3652
| 37> H 	 -40.8555 	 -41.3361 	 -80.5436
| 38> H 	 -40.7888 	 -43.0472 	 -81.0121
| 39> H 	 -46.0109 	 -42.5871 	 -75.7618
| 40> H 	 -37.4686 	 -43.0697 	 -74.7468
| 41> *
| 42>
| 43>                          ****END OF INPUT****

CARTESIAN COORDINATES (ANGSTROEM)
---------------------------------
  S    -43.701100  -43.333600  -76.741200
  C    -44.961200  -42.811700  -75.611500
  C    -44.555800  -42.465100  -74.357400
  C    -43.133500  -42.532300  -74.339300
  C    -42.421000  -42.891800  -75.536500
  H    -42.420400  -42.277900  -73.561400
  C    -45.270700  -41.874500  -73.247000
  H    -44.809500  -42.457600  -72.349600
  H    -46.305100  -42.146900  -73.426300
  C    -45.143700  -40.337400  -73.098000
  H    -44.057400  -40.109400  -73.028600
  H    -45.555500  -39.862700  -74.006700
  C    -45.795700  -39.773200  -71.769000
  H    -46.826300  -39.856400  -71.675200
  H    -45.442900  -40.397900  -70.937000
  H    -45.447700  -38.729900  -71.542200
  S    -39.878700  -43.320500  -74.261000
  C    -38.428300  -43.153900  -75.175000
  C    -38.700900  -43.121200  -76.509900
  C    -40.111600  -43.088200  -76.783500
  C    -40.928900  -43.110200  -75.678300
  H    -37.901700  -43.025500  -77.251900
  C    -40.704500  -42.814200  -78.123800
  H    -41.457200  -42.092000  -78.110200
  H    -41.184100  -43.793200  -78.331600
  C    -39.657200  -42.475500  -79.221200
  H    -38.914200  -43.216100  -79.179300
  H    -39.220900  -41.593700  -78.872700
  C    -40.202400  -42.222800  -80.622500
  H    -39.474000  -41.916400  -81.365200
  H    -40.855500  -41.336100  -80.543600
  H    -40.788800  -43.047200  -81.012100
  H    -46.010900  -42.587100  -75.761800
  H    -37.468600  -43.069700  -74.746800

 Total Charge           Charge          ....    0
 Multiplicity           Mult            ....    1
 Number of Electrons    NEL             ....  134
 Basis Dimension        Dim             ....  322

ORBITAL ENERGIES
----------------

  NO   OCC          E(Eh)            E(eV)
   0   2.0000     -88.973288     -2421.0862
   1   2.0000     -88.964511     -2420.8474
   2   2.0000     -10.344630      -281.4917
   3   2.0000     -10.332266      -281.1553
   4   2.0000     -10.315774      -280.7065
   5   2.0000     -10.314533      -280.6727
   6   2.0000     -10.301895      -280.3288
   7   2.0000     -10.299707      -280.2693
   8   2.0000     -10.299634      -280.2673
   9   2.0000     -10.297238      -280.2021
  10   2.0000     -10.296848      -280.1915
  11   2.0000     -10.296278      -280.1760
  12   2.0000     -10.285026      -279.8698
  13   2.0000     -10.282585      -279.8034
  14   2.0000     -10.277751      -279.6718
  15   2.0000     -10.277697      -279.6704
  16   2.0000      -8.085552      -220.0191
  17   2.0000      -8.079275      -219.8483
  18   2.0000      -6.044490      -164.4789
  19   2.0000      -6.040371      -164.3669
  20   2.0000      -6.037901      -164.2996
  21   2.0000      -6.036024      -164.2486
  22   2.0000      -6.033750      -164.1867
  23   2.0000      -6.029941      -164.0830
  24   2.0000      -1.004026       -27.3209
  25   2.0000      -0.984827       -26.7985
  26   2.0000      -0.915079       -24.9006
  27   2.0000      -0.911424       -24.8011
  28   2.0000      -0.868022       -23.6201
  29   2.0000      -0.850402       -23.1406
  30   2.0000      -0.846785       -23.0422
  31   2.0000      -0.812985       -22.1225
  32   2.0000      -0.782861       -21.3027
  33   2.0000      -0.775790       -21.1103
  34   2.0000      -0.714824       -19.4514
  35   2.0000      -0.708582       -19.2815
  36   2.0000      -0.702292       -19.1103
  37   2.0000      -0.657279       -17.8855
  38   2.0000      -0.625979       -17.0338
  39   2.0000      -0.616897       -16.7866
  40   2.0000      -0.603280       -16.4161
  41   2.0000      -0.574716       -15.6388
  42   2.0000      -0.570708       -15.5297
  43   2.0000      -0.562073       -15.2948
  44   2.0000      -0.528917       -14.3926
  45   2.0000      -0.524967       -14.2851
  46   2.0000      -0.516173       -14.0458
  47   2.0000      -0.512849       -13.9553
  48   2.0000      -0.506542       -13.7837
  49   2.0000      -0.500329       -13.6147
  50   2.0000      -0.487877       -13.2758
  51   2.0000      -0.477331       -12.9888
  52   2.0000      -0.471189       -12.8217
  53   2.0000      -0.468263       -12.7421
  54   2.0000      -0.459002       -12.4901
  55   2.0000      -0.455236       -12.3876
  56   2.0000      -0.445209       -12.1147
  57   2.0000      -0.437133       -11.8950
  58   2.0000      -0.430499       -11.7145
  59   2.0000      -0.427415       -11.6306
  60   2.0000      -0.427355       -11.6289
  61   2.0000      -0.418200       -11.3798
  62   2.0000      -0.409426       -11.1410
  63   2.0000      -0.356071        -9.6892
  64   2.0000      -0.331063        -9.0087
  65   2.0000      -0.329788        -8.9740
  66   2.0000      -0.285736        -7.7753
  67   0.0000       0.018489         0.5031
  68   0.0000       0.084362         2.2956
  69   0.0000       0.103393         2.8135
  70   0.0000       0.117203         3.1892
  71   0.0000       0.124605         3.3907

MULLIKEN ATOMIC CHARGES
-----------------------
   0 S :    0.099006
   1 C :   -0.088034
   2 C :   -0.075291
   3 C :   -0.028788
   4 C :   -0.140078
   5 H :    0.008950
   6 C :    0.039986
   7 H :    0.054243
   8 H :    0.018507
   9 C :   -0.072704
  10 H :    0.039801
  11 H :    0.038701
  12 C :   -0.035919
  13 H :    0.022499
  14 H :    0.020404
  15 H :    0.047535
  16 S :    0.087187
  17 C :   -0.066890
  18 C :   -0.035128
  19 C :   -0.081555
  20 C :   -0.117257
  21 H :    0.027162
  22 C :    0.044429
  23 H :    0.026057
  24 H :    0.040085
  25 C :   -0.059699
  26 H :    0.020943
  27 H :    0.015328
  28 C :   -0.017961
  29 H :    0.032951
  30 H :    0.024770
  31 H :    0.033768
  32 H :    0.031820
  33 H :    0.045173
Sum of atomic charges:    0.0000000

LOEWDIN ATOMIC CHARGES
----------------------
   0 S :    0.381838
   1 C :   -0.191184
   2 C :   -0.074246
   3 C :   -0.062811
   4 C :   -0.172293
   5 H :    0.019886
   6 C :   -0.040281
   7 H :    0.050427
   8 H :    0.027930
   9 C :   -0.033992
  10 H :    0.030316
  11 H :    0.027771
  12 C :   -0.066595
  13 H :    0.013638
  14 H :    0.027446
  15 H :    0.034760
  16 S :    0.401935
  17 C :   -0.176351
  18 C :   -0.078584
  19 C :   -0.058064
  20 C :   -0.191260
  21 H :    0.035765
  22 C :   -0.030744
  23 H :    0.016906
  24 H :    0.035659
  25 C :   -0.033191
  26 H :    0.013189
  27 H :    0.018148
  28 C :   -0.062181
  29 H :    0.027477
  30 H :    0.029094
  31 H :    0.024609
  32 H :    0.030121
  33 H :    0.024863

  Mayer bond orders larger than 0.100000
B(  0-S ,  1-C ) :   1.1277 B(  0-S ,  4-C ) :   1.1100 B(  1-C ,  2-C ) :   1.6373
B(  1-C , 32-H ) :   0.9470 B(  2-C ,  3-C ) :   1.2149 B(  2-C ,  6-C ) :   1.0376
B(  3-C ,  4-C ) :   1.5913 B(  3-C ,  5-H ) :   0.9840 B(  4-C , 20-C ) :   1.0687
B(  6-C ,  7-H ) :   0.9286 B(  6-C ,  8-H ) :   0.9294 B(  6-C ,  9-C ) :   1.0622
B(  9-C , 10-H ) :   0.9573 B(  9-C , 11-H ) :   0.9544 B(  9-C , 12-C ) :   1.0691
B( 12-C , 13-H ) :   0.9790 B( 12-C , 14-H ) :   0.9730 B( 12-C , 15-H ) :   0.9769
B( 16-S , 17-C ) :   1.1695 B( 16-S , 20-C ) :   1.1113 B( 17-C , 18-C ) :   1.5885
B( 17-C , 33-H ) :   0.9695 B( 18-C , 19-C ) :   1.2526 B( 18-C , 21-H ) :   0.9871
B( 19-C , 20-C ) :   1.5925 B( 19-C , 22-C ) :   1.0246 B( 22-C , 23-H ) :   0.9387
B( 22-C , 24-H ) :   0.9203 B( 22-C , 25-C ) :   1.0887 B( 25-C , 26-H ) :   0.9458
B( 25-C , 27-H ) :   0.9532 B( 25-C , 28-C ) :   1.0868 B( 28-C , 29-H ) :   0.9718
B( 28-C , 30-H ) :   0.9716 B( 28-C , 31-H ) :   0.9762

Dispersion correction           -0.013326413
FINAL SINGLE POINT ENERGY     -1339.857999128878

DIPOLE MOMENT
-------------
                                X             Y             Z
Electronic contribution:      6.43073     -13.01729       3.34952
Nuclear contribution   :     -6.37664      13.46982      -3.34859
                        -----------------------------------------
Total Dipole Moment    :      0.05409       0.45254       0.00094
                        -----------------------------------------
Magnitude (a.u.)       :      0.45576
Magnitude (Debye)      :      1.15845

Rotational constants in cm-1:     0.020530     0.007239     0.005964
Rotational constants in MHz :   615.472744   217.027757   178.805806

                             ****ORCA TERMINATED NORMALLY****
TOTAL RUN TIME: 0 days 0 hours 0 minutes 20 seconds 760 msec
