                         Program Version 4.2.1 -  RELEASE  -
|  1> ! wB97X-D3 SP def2-SVP
|  2> %pal
|  3> nprocs 24
|  4> end
|  5>
|  6> * xyz 0 1
|  7> S 	 -75.936 	 10.0172 	 -107.448
|  8> C 	 -76.9517 	 10.0824 	 -108.854
|  9> C 	 -76.9767 	 8.91339 	 -109.596
| 10> C 	 -75.8606 	 8.04713 	 -109.163
| 11> C 	 -75.1937 	 8.53849 	 -108.065
| 12> H 	 -75.5733 	 7.10392 	 -109.581
| 13> C 	 -77.8734 	 8.42994 	 -110.724
| 14> H 	 -77.306 	 7.64822 	 -111.281
| 15> H 	 -77.8788 	 9.27313 	 -111.408
| 16> C 	 -79.2806 	 7.91479 	 -110.297
| 17> H 	 -79.1542 	 7.11705 	 -109.559
| 18> H 	 -79.9075 	 8.66176 	 -109.901
| 19> C 	 -80.081 	 7.21623 	 -111.441
| 20> H 	 -79.6798 	 6.21018 	 -111.493
| 21> H 	 -81.0855 	 7.30086 	 -111.132
| 22> H 	 -80.0479 	 7.75822 	 -112.405
| 23> S 	 -74.1752 	 8.17233 	 -105.553
| 24> C 	 -72.8164 	 7.05282 	 -105.38
| 25> C 	 -72.3446 	 6.61488 	 -106.563
| 26> C 	 -73.1428 	 7.069 	 -107.677
| 27> C 	 -74.0958 	 7.94983 	 -107.279
| 28> H 	 -71.5196 	 5.97435 	 -106.55
| 29> C 	 -72.7943 	 6.55852 	 -109.13
| 30> H 	 -71.7214 	 6.45281 	 -109.149
| 31> H 	 -73.0776 	 7.31113 	 -109.826
| 32> C 	 -73.4316 	 5.19696 	 -109.444
| 33> H 	 -74.4383 	 5.34599 	 -109.627
| 34> H 	 -73.3154 	 4.48242 	 -108.571
| 35> C 	 -72.7514 	 4.50188 	 -110.649
| 36> H 	 -73.0192 	 4.99436 	 -111.576
| 37> H 	 -73.1371 	 3.52897 	 -110.741
| 38> H 	 -71.7656 	 4.54264 	 -110.457
| 39> H 	 -77.803 	 10.7599 	 -108.862
| 40> H 	 -72.4048 	 6.6673 	 -104.437
| 41> *
| 42>
| 43>                          ****END OF INPUT****

CARTESIAN COORDINATES (ANGSTROEM)
---------------------------------
  S    -75.936000   10.017200  -107.448000
  C    -76.951700   10.082400  -108.854000
  C    -76.976700    8.913390  -109.596000
  C    -75.860600    8.047130  -109.163000
  C    -75.193700    8.538490  -108.065000
  H    -75.573300    7.103920  -109.581000
  C    -77.873400    8.429940  -110.724000
  H    -77.306000    7.648220  -111.281000
  H    -77.878800    9.273130  -111.408000
  C    -79.280600    7.914790  -110.297000
  H    -79.154200    7.117050  -109.559000
  H    -79.907500    8.661760  -109.901000
  C    -80.081000    7.216230  -111.441000
  H    -79.679800    6.210180  -111.493000
  H    -81.085500    7.300860  -111.132000
  H    -80.047900    7.758220  -112.405000
  S    -74.175200    8.172330  -105.553000
  C    -72.816400    7.052820  -105.380000
  C    -72.344600    6.614880  -106.563000
  C    -73.142800    7.069000  -107.677000
  C    -74.095800    7.949830  -107.279000
  H    -71.519600    5.974350  -106.550000
  C    -72.794300    6.558520  -109.130000
  H    -71.721400    6.452810  -109.149000
  H    -73.077600    7.311130  -109.826000
  C    -73.431600    5.196960  -109.444000
  H    -74.438300    5.345990  -109.627000
  H    -73.315400    4.482420  -108.571000
  C    -72.751400    4.501880  -110.649000
  H    -73.019200    4.994360  -111.576000
  H    -73.137100    3.528970  -110.741000
  H    -71.765600    4.542640  -110.457000
  H    -77.803000   10.759900  -108.862000
  H    -72.404800    6.667300  -104.437000

 Total Charge           Charge          ....    0
 Multiplicity           Mult            ....    1
 Number of Electrons    NEL             ....  134
 Basis Dimension        Dim             ....  322

ORBITAL ENERGIES
----------------

  NO   OCC          E(Eh)            E(eV)
   0   2.0000     -88.965346     -2420.8701
   1   2.0000     -88.963117     -2420.8095
   2   2.0000     -10.328887      -281.0633
   3   2.0000     -10.323437      -280.9150
   4   2.0000     -10.315109      -280.6884
   5   2.0000     -10.310262      -280.5565
   6   2.0000     -10.305923      -280.4384
   7   2.0000     -10.302799      -280.3534
   8   2.0000     -10.298219      -280.2288
   9   2.0000     -10.293671      -280.1050
  10   2.0000     -10.293083      -280.0890
  11   2.0000     -10.287819      -279.9458
  12   2.0000     -10.287278      -279.9311
  13   2.0000     -10.286505      -279.9100
  14   2.0000     -10.277767      -279.6723
  15   2.0000     -10.267415      -279.3906
  16   2.0000      -8.080149      -219.8720
  17   2.0000      -8.078132      -219.8172
  18   2.0000      -6.038788      -164.3238
  19   2.0000      -6.036715      -164.2674
  20   2.0000      -6.034870      -164.2171
  21   2.0000      -6.032819      -164.1613
  22   2.0000      -6.030555      -164.0997
  23   2.0000      -6.028601      -164.0466
  24   2.0000      -1.007123       -27.4052
  25   2.0000      -0.981611       -26.7110
  26   2.0000      -0.910499       -24.7759
  27   2.0000      -0.906900       -24.6780
  28   2.0000      -0.870194       -23.6792
  29   2.0000      -0.854330       -23.2475
  30   2.0000      -0.845995       -23.0207
  31   2.0000      -0.816748       -22.2248
  32   2.0000      -0.785078       -21.3631
  33   2.0000      -0.773962       -21.0606
  34   2.0000      -0.705255       -19.1910
  35   2.0000      -0.703183       -19.1346
  36   2.0000      -0.692422       -18.8418
  37   2.0000      -0.667387       -18.1605
  38   2.0000      -0.636986       -17.3333
  39   2.0000      -0.616520       -16.7764
  40   2.0000      -0.592336       -16.1183
  41   2.0000      -0.578968       -15.7545
  42   2.0000      -0.574910       -15.6441
  43   2.0000      -0.557467       -15.1694
  44   2.0000      -0.528909       -14.3923
  45   2.0000      -0.524474       -14.2717
  46   2.0000      -0.517300       -14.0765
  47   2.0000      -0.512208       -13.9379
  48   2.0000      -0.509788       -13.8720
  49   2.0000      -0.503417       -13.6987
  50   2.0000      -0.490208       -13.3392
  51   2.0000      -0.477997       -13.0069
  52   2.0000      -0.469917       -12.7871
  53   2.0000      -0.466358       -12.6902
  54   2.0000      -0.461141       -12.5483
  55   2.0000      -0.452960       -12.3257
  56   2.0000      -0.442316       -12.0360
  57   2.0000      -0.439779       -11.9670
  58   2.0000      -0.436726       -11.8839
  59   2.0000      -0.430997       -11.7280
  60   2.0000      -0.425163       -11.5693
  61   2.0000      -0.416385       -11.3304
  62   2.0000      -0.413888       -11.2625
  63   2.0000      -0.359116        -9.7720
  64   2.0000      -0.334734        -9.1086
  65   2.0000      -0.324687        -8.8352
  66   2.0000      -0.287485        -7.8229
  67   0.0000       0.029901         0.8137
  68   0.0000       0.072940         1.9848
  69   0.0000       0.099992         2.7209
  70   0.0000       0.122301         3.3280
  71   0.0000       0.132469         3.6047

MULLIKEN ATOMIC CHARGES
-----------------------
   0 S :    0.086489
   1 C :   -0.100806
   2 C :   -0.103517
   3 C :    0.017487
   4 C :   -0.124014
   5 H :   -0.028262
   6 C :    0.059079
   7 H :    0.023075
   8 H :    0.032338
   9 C :   -0.067040
  10 H :    0.033711
  11 H :    0.022187
  12 C :   -0.042835
  13 H :    0.042715
  14 H :    0.027096
  15 H :    0.033666
  16 S :    0.093151
  17 C :   -0.088665
  18 C :   -0.006397
  19 C :   -0.079291
  20 C :   -0.097112
  21 H :   -0.006244
  22 C :    0.083399
  23 H :    0.014368
  24 H :    0.028140
  25 C :   -0.093558
  26 H :    0.015098
  27 H :    0.038281
  28 C :    0.026799
  29 H :    0.023531
  30 H :    0.023662
  31 H :    0.008557
  32 H :    0.048259
  33 H :    0.056652
Sum of atomic charges:   -0.0000000

LOEWDIN ATOMIC CHARGES
----------------------
   0 S :    0.390763
   1 C :   -0.208624
   2 C :   -0.052153
   3 C :   -0.067332
   4 C :   -0.172984
   5 H :    0.022397
   6 C :   -0.036241
   7 H :    0.033456
   8 H :    0.032874
   9 C :   -0.031593
  10 H :    0.028799
  11 H :    0.015803
  12 C :   -0.061043
  13 H :    0.026404
  14 H :    0.022736
  15 H :    0.026605
  16 S :    0.386734
  17 C :   -0.174746
  18 C :   -0.063841
  19 C :   -0.053341
  20 C :   -0.198050
  21 H :    0.023237
  22 C :   -0.019239
  23 H :    0.026663
  24 H :    0.025718
  25 C :   -0.031786
  26 H :    0.006517
  27 H :    0.031651
  28 C :   -0.044616
  29 H :    0.025745
  30 H :    0.022486
  31 H :    0.008271
  32 H :    0.024400
  33 H :    0.034330

  Mayer bond orders larger than 0.100000
B(  0-S ,  1-C ) :   1.1271 B(  0-S ,  4-C ) :   1.1364 B(  1-C ,  2-C ) :   1.6580
B(  1-C , 32-H ) :   0.9596 B(  2-C ,  3-C ) :   1.1997 B(  2-C ,  6-C ) :   1.0144
B(  3-C ,  4-C ) :   1.6125 B(  3-C ,  5-H ) :   0.9912 B(  4-C , 20-C ) :   1.0289
B(  6-C ,  7-H ) :   0.9463 B(  6-C ,  8-H ) :   0.9360 B(  6-C ,  9-C ) :   1.0561
B(  9-C , 10-H ) :   0.9609 B(  9-C , 11-H ) :   0.9632 B(  9-C , 12-C ) :   1.0755
B( 12-C , 13-H ) :   0.9815 B( 12-C , 14-H ) :   0.9767 B( 12-C , 15-H ) :   0.9765
B( 16-S , 17-C ) :   1.1258 B( 16-S , 20-C ) :   1.1152 B( 17-C , 18-C ) :   1.6726
B( 17-C , 33-H ) :   0.9611 B( 18-C , 19-C ) :   1.1894 B( 18-C , 21-H ) :   0.9990
B( 19-C , 20-C ) :   1.6785 B( 19-C , 22-C ) :   1.0289 B( 22-C , 23-H ) :   0.9383
B( 22-C , 24-H ) :   0.9346 B( 22-C , 25-C ) :   1.0651 B( 25-C , 26-H ) :   0.9526
B( 25-C , 27-H ) :   0.9564 B( 25-C , 28-C ) :   1.0820 B( 28-C , 29-H ) :   0.9736
B( 28-C , 30-H ) :   0.9728 B( 28-C , 31-H ) :   0.9776

Dispersion correction           -0.013723686
FINAL SINGLE POINT ENERGY     -1339.866493682157

DIPOLE MOMENT
-------------
                                X             Y             Z
Electronic contribution:      7.91817      17.62858      24.53926
Nuclear contribution   :     -8.02766     -18.29700     -24.98843
                        -----------------------------------------
Total Dipole Moment    :     -0.10949      -0.66842      -0.44917
                        -----------------------------------------
Magnitude (a.u.)       :      0.81273
Magnitude (Debye)      :      2.06580

Rotational constants in cm-1:     0.016871     0.008821     0.006307
Rotational constants in MHz :   505.792938   264.442113   189.065217

                             ****ORCA TERMINATED NORMALLY****
TOTAL RUN TIME: 0 days 0 hours 0 minutes 20 seconds 183 msec
