                         Program Version 4.2.1 -  RELEASE  -
|  1> ! wB97X-D3 SP def2-SVP
|  2> %pal
|  3> nprocs 24
|  4> end
|  5>
|  6> * xyz 0 1
|  7> S 	 -127.237 	 65.8075 	 -50.4115
|  8> C 	 -127.114 	 67.5049 	 -50.2948
|  9> C 	 -128.327 	 68.1424 	 -50.55
| 10> C 	 -129.357 	 67.1775 	 -50.9096
| 11> C 	 -128.921 	 65.8693 	 -50.8558
| 12> H 	 -130.334 	 67.4559 	 -51.2616
| 13> C 	 -128.602 	 69.5604 	 -50.4953
| 14> H 	 -129.448 	 69.8127 	 -51.1263
| 15> H 	 -127.827 	 70.1639 	 -50.9385
| 16> C 	 -128.761 	 70.1252 	 -49.0204
| 17> H 	 -129.369 	 69.4317 	 -48.4381
| 18> H 	 -127.872 	 70.1681 	 -48.482
| 19> C 	 -129.217 	 71.5517 	 -48.9412
| 20> H 	 -128.5 	 72.2818 	 -49.2588
| 21> H 	 -130.159 	 71.7208 	 -49.4449
| 22> H 	 -129.51 	 71.8163 	 -47.9179
| 23> S 	 -129.036 	 63.6911 	 -52.6204
| 24> C 	 -130.516 	 62.7618 	 -52.6088
| 25> C 	 -131.408 	 63.1621 	 -51.6659
| 26> C 	 -130.978 	 64.2588 	 -50.8775
| 27> C 	 -129.653 	 64.6464 	 -51.2417
| 28> H 	 -132.386 	 62.6535 	 -51.5562
| 29> C 	 -131.861 	 64.9121 	 -49.8602
| 30> H 	 -131.209 	 65.4476 	 -49.1721
| 31> H 	 -132.276 	 64.0689 	 -49.307
| 32> C 	 -132.96 	 65.8794 	 -50.3925
| 33> H 	 -133.459 	 65.3364 	 -51.1935
| 34> H 	 -132.526 	 66.7299 	 -50.8684
| 35> C 	 -133.892 	 66.5279 	 -49.2632
| 36> H 	 -134.625 	 65.8591 	 -48.8153
| 37> H 	 -134.575 	 67.2933 	 -49.544
| 38> H 	 -133.232 	 67.0491 	 -48.525
| 39> H 	 -126.253 	 67.978 	 -49.8047
| 40> H 	 -130.709 	 61.9776 	 -53.3236
| 41> *
| 42>
| 43>                          ****END OF INPUT****

CARTESIAN COORDINATES (ANGSTROEM)
---------------------------------
  S    -127.237000   65.807500  -50.411500
  C    -127.114000   67.504900  -50.294800
  C    -128.327000   68.142400  -50.550000
  C    -129.357000   67.177500  -50.909600
  C    -128.921000   65.869300  -50.855800
  H    -130.334000   67.455900  -51.261600
  C    -128.602000   69.560400  -50.495300
  H    -129.448000   69.812700  -51.126300
  H    -127.827000   70.163900  -50.938500
  C    -128.761000   70.125200  -49.020400
  H    -129.369000   69.431700  -48.438100
  H    -127.872000   70.168100  -48.482000
  C    -129.217000   71.551700  -48.941200
  H    -128.500000   72.281800  -49.258800
  H    -130.159000   71.720800  -49.444900
  H    -129.510000   71.816300  -47.917900
  S    -129.036000   63.691100  -52.620400
  C    -130.516000   62.761800  -52.608800
  C    -131.408000   63.162100  -51.665900
  C    -130.978000   64.258800  -50.877500
  C    -129.653000   64.646400  -51.241700
  H    -132.386000   62.653500  -51.556200
  C    -131.861000   64.912100  -49.860200
  H    -131.209000   65.447600  -49.172100
  H    -132.276000   64.068900  -49.307000
  C    -132.960000   65.879400  -50.392500
  H    -133.459000   65.336400  -51.193500
  H    -132.526000   66.729900  -50.868400
  C    -133.892000   66.527900  -49.263200
  H    -134.625000   65.859100  -48.815300
  H    -134.575000   67.293300  -49.544000
  H    -133.232000   67.049100  -48.525000
  H    -126.253000   67.978000  -49.804700
  H    -130.709000   61.977600  -53.323600

 Total Charge           Charge          ....    0
 Multiplicity           Mult            ....    1
 Number of Electrons    NEL             ....  134
 Basis Dimension        Dim             ....  322

ORBITAL ENERGIES
----------------

  NO   OCC          E(Eh)            E(eV)
   0   2.0000     -88.967499     -2420.9287
   1   2.0000     -88.963917     -2420.8312
   2   2.0000     -10.331215      -281.1266
   3   2.0000     -10.328282      -281.0468
   4   2.0000     -10.315173      -280.6901
   5   2.0000     -10.311407      -280.5877
   6   2.0000     -10.305509      -280.4271
   7   2.0000     -10.299251      -280.2569
   8   2.0000     -10.294486      -280.1272
   9   2.0000     -10.294461      -280.1265
  10   2.0000     -10.292623      -280.0765
  11   2.0000     -10.291805      -280.0543
  12   2.0000     -10.287525      -279.9378
  13   2.0000     -10.285256      -279.8760
  14   2.0000     -10.282234      -279.7938
  15   2.0000     -10.273842      -279.5655
  16   2.0000      -8.081698      -219.9142
  17   2.0000      -8.079663      -219.8588
  18   2.0000      -6.040155      -164.3610
  19   2.0000      -6.038076      -164.3044
  20   2.0000      -6.036365      -164.2578
  21   2.0000      -6.033923      -164.1914
  22   2.0000      -6.032457      -164.1515
  23   2.0000      -6.030590      -164.1007
  24   2.0000      -1.004473       -27.3331
  25   2.0000      -0.983695       -26.7677
  26   2.0000      -0.913945       -24.8697
  27   2.0000      -0.903890       -24.5961
  28   2.0000      -0.867830       -23.6149
  29   2.0000      -0.854664       -23.2566
  30   2.0000      -0.847569       -23.0635
  31   2.0000      -0.814759       -22.1707
  32   2.0000      -0.784064       -21.3355
  33   2.0000      -0.768577       -20.9140
  34   2.0000      -0.712030       -19.3753
  35   2.0000      -0.708993       -19.2927
  36   2.0000      -0.693634       -18.8747
  37   2.0000      -0.658948       -17.9309
  38   2.0000      -0.642017       -17.4702
  39   2.0000      -0.620415       -16.8823
  40   2.0000      -0.596469       -16.2307
  41   2.0000      -0.566998       -15.4288
  42   2.0000      -0.564075       -15.3493
  43   2.0000      -0.559479       -15.2242
  44   2.0000      -0.522879       -14.2283
  45   2.0000      -0.522200       -14.2098
  46   2.0000      -0.518545       -14.1103
  47   2.0000      -0.513981       -13.9861
  48   2.0000      -0.508312       -13.8319
  49   2.0000      -0.499367       -13.5885
  50   2.0000      -0.491147       -13.3648
  51   2.0000      -0.476848       -12.9757
  52   2.0000      -0.470151       -12.7934
  53   2.0000      -0.463245       -12.6055
  54   2.0000      -0.456807       -12.4304
  55   2.0000      -0.454610       -12.3706
  56   2.0000      -0.450065       -12.2469
  57   2.0000      -0.436843       -11.8871
  58   2.0000      -0.431126       -11.7315
  59   2.0000      -0.427751       -11.6397
  60   2.0000      -0.426767       -11.6129
  61   2.0000      -0.419267       -11.4088
  62   2.0000      -0.416550       -11.3349
  63   2.0000      -0.348321        -9.4783
  64   2.0000      -0.331473        -9.0198
  65   2.0000      -0.324733        -8.8364
  66   2.0000      -0.291204        -7.9241
  67   0.0000       0.032560         0.8860
  68   0.0000       0.066141         1.7998
  69   0.0000       0.115611         3.1459
  70   0.0000       0.124961         3.4004
  71   0.0000       0.128160         3.4874

MULLIKEN ATOMIC CHARGES
-----------------------
   0 S :    0.113463
   1 C :   -0.119187
   2 C :   -0.095717
   3 C :    0.043108
   4 C :   -0.168080
   5 H :   -0.000292
   6 C :    0.073847
   7 H :    0.015443
   8 H :    0.018676
   9 C :   -0.055759
  10 H :    0.024970
  11 H :    0.012299
  12 C :   -0.037172
  13 H :    0.032758
  14 H :    0.017223
  15 H :    0.024863
  16 S :    0.109284
  17 C :   -0.087990
  18 C :   -0.039060
  19 C :   -0.050494
  20 C :   -0.142403
  21 H :    0.028829
  22 C :    0.077372
  23 H :    0.023179
  24 H :    0.029363
  25 C :   -0.042462
  26 H :    0.024794
  27 H :    0.019901
  28 C :   -0.061394
  29 H :    0.033402
  30 H :    0.022408
  31 H :    0.040731
  32 H :    0.060725
  33 H :    0.053369
Sum of atomic charges:   -0.0000000

LOEWDIN ATOMIC CHARGES
----------------------
   0 S :    0.427289
   1 C :   -0.214036
   2 C :   -0.064401
   3 C :   -0.056874
   4 C :   -0.201078
   5 H :    0.026161
   6 C :   -0.035893
   7 H :    0.030358
   8 H :    0.031475
   9 C :   -0.033204
  10 H :    0.023923
  11 H :    0.017428
  12 C :   -0.065963
  13 H :    0.023073
  14 H :    0.020271
  15 H :    0.030340
  16 S :    0.395462
  17 C :   -0.180356
  18 C :   -0.078670
  19 C :   -0.051043
  20 C :   -0.193641
  21 H :    0.038244
  22 C :   -0.032631
  23 H :    0.030033
  24 H :    0.034297
  25 C :   -0.030710
  26 H :    0.022522
  27 H :    0.018968
  28 C :   -0.073061
  29 H :    0.025357
  30 H :    0.022915
  31 H :    0.033470
  32 H :    0.032494
  33 H :    0.027480

  Mayer bond orders larger than 0.100000
B(  0-S ,  1-C ) :   1.1527 B(  0-S ,  4-C ) :   1.1685 B(  1-C ,  2-C ) :   1.5870
B(  1-C , 32-H ) :   0.9644 B(  2-C ,  3-C ) :   1.2484 B(  2-C ,  6-C ) :   1.0600
B(  3-C ,  4-C ) :   1.5588 B(  3-C ,  5-H ) :   0.9964 B(  4-C , 20-C ) :   1.0123
B(  6-C ,  7-H ) :   0.9405 B(  6-C ,  8-H ) :   0.9306 B(  6-C ,  9-C ) :   1.0432
B(  9-C , 10-H ) :   0.9589 B(  9-C , 11-H ) :   0.9533 B(  9-C , 12-C ) :   1.0926
B( 12-C , 13-H ) :   0.9741 B( 12-C , 14-H ) :   0.9729 B( 12-C , 15-H ) :   0.9689
B( 16-S , 17-C ) :   1.1521 B( 16-S , 20-C ) :   1.1443 B( 17-C , 18-C ) :   1.6169
B( 17-C , 33-H ) :   0.9657 B( 18-C , 19-C ) :   1.2441 B( 18-C , 21-H ) :   0.9834
B( 19-C , 20-C ) :   1.5816 B( 19-C , 22-C ) :   1.0536 B( 22-C , 23-H ) :   0.9257
B( 22-C , 24-H ) :   0.9331 B( 22-C , 25-C ) :   1.0542 B( 25-C , 26-H ) :   0.9594
B( 25-C , 27-H ) :   0.9544 B( 25-C , 28-C ) :   1.0649 B( 28-C , 29-H ) :   0.9784
B( 28-C , 30-H ) :   0.9764 B( 28-C , 31-H ) :   0.9753

Dispersion correction           -0.014073738
FINAL SINGLE POINT ENERGY     -1339.883000026633

DIPOLE MOMENT
-------------
                                X             Y             Z
Electronic contribution:     18.73217     -23.91709     -12.97115
Nuclear contribution   :    -19.29338      24.39532      13.14165
                        -----------------------------------------
Total Dipole Moment    :     -0.56121       0.47823       0.17050
                        -----------------------------------------
Magnitude (a.u.)       :      0.75679
Magnitude (Debye)      :      1.92360

Rotational constants in cm-1:     0.017454     0.008947     0.006319
Rotational constants in MHz :   523.268062   268.231497   189.445115

                             ****ORCA TERMINATED NORMALLY****
TOTAL RUN TIME: 0 days 0 hours 0 minutes 21 seconds 340 msec
