                         Program Version 4.2.1 -  RELEASE  -
|  1> ! wB97X-D3 SP def2-SVP
|  2> %pal
|  3> nprocs 24
|  4> end
|  5>
|  6> * xyz 0 1
|  7> S 	 -115.431 	 37.3148 	 -119.583
|  8> C 	 -114.658 	 36.7408 	 -121.023
|  9> C 	 -114.271 	 35.4099 	 -120.903
| 10> C 	 -114.575 	 34.9399 	 -119.611
| 11> C 	 -115.127 	 35.8367 	 -118.751
| 12> H 	 -114.373 	 33.9306 	 -119.255
| 13> C 	 -113.589 	 34.4981 	 -121.885
| 14> H 	 -114.182 	 34.4121 	 -122.781
| 15> H 	 -113.445 	 33.546 	 -121.441
| 16> C 	 -112.275 	 35.0646 	 -122.362
| 17> H 	 -112.435 	 36.0838 	 -122.715
| 18> H 	 -111.478 	 35.0532 	 -121.599
| 19> C 	 -111.865 	 34.1168 	 -123.538
| 20> H 	 -110.992 	 34.4141 	 -124.083
| 21> H 	 -111.445 	 33.1396 	 -123.203
| 22> H 	 -112.731 	 33.9699 	 -124.23
| 23> S 	 -114.52 	 36.5061 	 -116.071
| 24> C 	 -115.589 	 35.8208 	 -114.838
| 25> C 	 -116.506 	 34.9269 	 -115.309
| 26> C 	 -116.438 	 34.8767 	 -116.75
| 27> C 	 -115.428 	 35.7034 	 -117.295
| 28> H 	 -117.132 	 34.4033 	 -114.578
| 29> C 	 -117.584 	 34.1458 	 -117.484
| 30> H 	 -117.382 	 33.0843 	 -117.424
| 31> H 	 -117.552 	 34.5043 	 -118.518
| 32> C 	 -119.009 	 34.5287 	 -116.916
| 33> H 	 -119.172 	 35.5464 	 -116.787
| 34> H 	 -118.982 	 34.008 	 -115.929
| 35> C 	 -120.147 	 33.9416 	 -117.744
| 36> H 	 -119.901 	 32.9719 	 -118.021
| 37> H 	 -120.286 	 34.4611 	 -118.661
| 38> H 	 -121.005 	 34.0431 	 -117.029
| 39> H 	 -114.4 	 37.2625 	 -121.909
| 40> H 	 -115.377 	 35.8849 	 -113.781
| 41> *
| 42>
| 43>                          ****END OF INPUT****

CARTESIAN COORDINATES (ANGSTROEM)
---------------------------------
  S    -115.431000   37.314800  -119.583000
  C    -114.658000   36.740800  -121.023000
  C    -114.271000   35.409900  -120.903000
  C    -114.575000   34.939900  -119.611000
  C    -115.127000   35.836700  -118.751000
  H    -114.373000   33.930600  -119.255000
  C    -113.589000   34.498100  -121.885000
  H    -114.182000   34.412100  -122.781000
  H    -113.445000   33.546000  -121.441000
  C    -112.275000   35.064600  -122.362000
  H    -112.435000   36.083800  -122.715000
  H    -111.478000   35.053200  -121.599000
  C    -111.865000   34.116800  -123.538000
  H    -110.992000   34.414100  -124.083000
  H    -111.445000   33.139600  -123.203000
  H    -112.731000   33.969900  -124.230000
  S    -114.520000   36.506100  -116.071000
  C    -115.589000   35.820800  -114.838000
  C    -116.506000   34.926900  -115.309000
  C    -116.438000   34.876700  -116.750000
  C    -115.428000   35.703400  -117.295000
  H    -117.132000   34.403300  -114.578000
  C    -117.584000   34.145800  -117.484000
  H    -117.382000   33.084300  -117.424000
  H    -117.552000   34.504300  -118.518000
  C    -119.009000   34.528700  -116.916000
  H    -119.172000   35.546400  -116.787000
  H    -118.982000   34.008000  -115.929000
  C    -120.147000   33.941600  -117.744000
  H    -119.901000   32.971900  -118.021000
  H    -120.286000   34.461100  -118.661000
  H    -121.005000   34.043100  -117.029000
  H    -114.400000   37.262500  -121.909000
  H    -115.377000   35.884900  -113.781000

 Total Charge           Charge          ....    0
 Multiplicity           Mult            ....    1
 Number of Electrons    NEL             ....  134
 Basis Dimension        Dim             ....  322

ORBITAL ENERGIES
----------------

  NO   OCC          E(Eh)            E(eV)
   0   2.0000     -88.967602     -2420.9315
   1   2.0000     -88.964827     -2420.8560
   2   2.0000     -10.327214      -281.0178
   3   2.0000     -10.322317      -280.8845
   4   2.0000     -10.314181      -280.6631
   5   2.0000     -10.308474      -280.5079
   6   2.0000     -10.305305      -280.4216
   7   2.0000     -10.293832      -280.1094
   8   2.0000     -10.293398      -280.0976
   9   2.0000     -10.289929      -280.0032
  10   2.0000     -10.289865      -280.0015
  11   2.0000     -10.285160      -279.8734
  12   2.0000     -10.284901      -279.8664
  13   2.0000     -10.282281      -279.7951
  14   2.0000     -10.282058      -279.7890
  15   2.0000     -10.270731      -279.4808
  16   2.0000      -8.082321      -219.9311
  17   2.0000      -8.080086      -219.8703
  18   2.0000      -6.040858      -164.3801
  19   2.0000      -6.038547      -164.3172
  20   2.0000      -6.036877      -164.2718
  21   2.0000      -6.034397      -164.2043
  22   2.0000      -6.033026      -164.1670
  23   2.0000      -6.031003      -164.1119
  24   2.0000      -1.007095       -27.4045
  25   2.0000      -0.985500       -26.8168
  26   2.0000      -0.919499       -25.0208
  27   2.0000      -0.903684       -24.5905
  28   2.0000      -0.865432       -23.5496
  29   2.0000      -0.849478       -23.1155
  30   2.0000      -0.847656       -23.0659
  31   2.0000      -0.814534       -22.1646
  32   2.0000      -0.779267       -21.2049
  33   2.0000      -0.765903       -20.8413
  34   2.0000      -0.707622       -19.2554
  35   2.0000      -0.699534       -19.0353
  36   2.0000      -0.692234       -18.8366
  37   2.0000      -0.651601       -17.7310
  38   2.0000      -0.642419       -17.4811
  39   2.0000      -0.620820       -16.8934
  40   2.0000      -0.590321       -16.0634
  41   2.0000      -0.576837       -15.6965
  42   2.0000      -0.570816       -15.5327
  43   2.0000      -0.568046       -15.4573
  44   2.0000      -0.530491       -14.4354
  45   2.0000      -0.523974       -14.2581
  46   2.0000      -0.517944       -14.0940
  47   2.0000      -0.506133       -13.7726
  48   2.0000      -0.502126       -13.6635
  49   2.0000      -0.493675       -13.4336
  50   2.0000      -0.490227       -13.3398
  51   2.0000      -0.476379       -12.9629
  52   2.0000      -0.465061       -12.6549
  53   2.0000      -0.461694       -12.5633
  54   2.0000      -0.460566       -12.5326
  55   2.0000      -0.449047       -12.2192
  56   2.0000      -0.444514       -12.0958
  57   2.0000      -0.443643       -12.0721
  58   2.0000      -0.440914       -11.9979
  59   2.0000      -0.426367       -11.6020
  60   2.0000      -0.417633       -11.3644
  61   2.0000      -0.416440       -11.3319
  62   2.0000      -0.405797       -11.0423
  63   2.0000      -0.341054        -9.2806
  64   2.0000      -0.329557        -8.9677
  65   2.0000      -0.322985        -8.7889
  66   2.0000      -0.301355        -8.2003
  67   0.0000       0.041629         1.1328
  68   0.0000       0.065558         1.7839
  69   0.0000       0.120050         3.2667
  70   0.0000       0.124165         3.3787
  71   0.0000       0.133247         3.6258

MULLIKEN ATOMIC CHARGES
-----------------------
   0 S :    0.125551
   1 C :   -0.108890
   2 C :   -0.090094
   3 C :    0.032545
   4 C :   -0.185999
   5 H :    0.002772
   6 C :    0.111266
   7 H :    0.024816
   8 H :    0.012182
   9 C :   -0.086252
  10 H :    0.031033
  11 H :    0.039533
  12 C :   -0.062982
  13 H :    0.021188
  14 H :    0.029690
  15 H :    0.038252
  16 S :    0.121788
  17 C :   -0.098349
  18 C :   -0.042091
  19 C :   -0.039141
  20 C :   -0.156451
  21 H :    0.036243
  22 C :    0.063871
  23 H :    0.036925
  24 H :    0.030767
  25 C :   -0.111936
  26 H :    0.030696
  27 H :    0.028956
  28 C :    0.005379
  29 H :    0.009808
  30 H :    0.028149
  31 H :    0.044039
  32 H :    0.025164
  33 H :    0.051572
Sum of atomic charges:    0.0000000

LOEWDIN ATOMIC CHARGES
----------------------
   0 S :    0.429490
   1 C :   -0.204354
   2 C :   -0.063274
   3 C :   -0.065206
   4 C :   -0.207385
   5 H :    0.030481
   6 C :   -0.024474
   7 H :    0.031483
   8 H :    0.026368
   9 C :   -0.031221
  10 H :    0.021764
  11 H :    0.028262
  12 C :   -0.074540
  13 H :    0.019155
  14 H :    0.029684
  15 H :    0.027985
  16 S :    0.410959
  17 C :   -0.176900
  18 C :   -0.073048
  19 C :   -0.049808
  20 C :   -0.222923
  21 H :    0.039090
  22 C :   -0.031501
  23 H :    0.030240
  24 H :    0.027445
  25 C :   -0.032137
  26 H :    0.016742
  27 H :    0.023068
  28 C :   -0.054369
  29 H :    0.014374
  30 H :    0.021615
  31 H :    0.037543
  32 H :    0.019904
  33 H :    0.025489

  Mayer bond orders larger than 0.100000
B(  0-S ,  1-C ) :   1.1524 B(  0-S ,  4-C ) :   1.1665 B(  1-C ,  2-C ) :   1.5872
B(  1-C , 32-H ) :   0.9701 B(  2-C ,  3-C ) :   1.2706 B(  2-C ,  6-C ) :   1.0147
B(  3-C ,  4-C ) :   1.5879 B(  3-C ,  5-H ) :   0.9965 B(  4-C , 20-C ) :   0.9906
B(  6-C ,  7-H ) :   0.9333 B(  6-C ,  8-H ) :   0.9422 B(  6-C ,  9-C ) :   1.0667
B(  9-C , 10-H ) :   0.9590 B(  9-C , 11-H ) :   0.9553 B(  9-C , 12-C ) :   1.0758
B( 12-C , 13-H ) :   0.9722 B( 12-C , 14-H ) :   0.9723 B( 12-C , 15-H ) :   0.9749
B( 16-S , 17-C ) :   1.1499 B( 16-S , 20-C ) :   1.1467 B( 17-C , 18-C ) :   1.6475
B( 17-C , 33-H ) :   0.9605 B( 18-C , 19-C ) :   1.2191 B( 18-C , 21-H ) :   0.9831
B( 19-C , 20-C ) :   1.6059 B( 19-C , 22-C ) :   1.0375 B( 22-C , 23-H ) :   0.9312
B( 22-C , 24-H ) :   0.9407 B( 22-C , 25-C ) :   1.0647 B( 25-C , 26-H ) :   0.9637
B( 25-C , 27-H ) :   0.9508 B( 25-C , 28-C ) :   1.0843 B( 28-C , 29-H ) :   0.9710
B( 28-C , 30-H ) :   0.9746 B( 28-C , 31-H ) :   0.9746

Dispersion correction           -0.013451093
FINAL SINGLE POINT ENERGY     -1339.869884384873

DIPOLE MOMENT
-------------
                                X             Y             Z
Electronic contribution:      5.03986      16.30785      14.93988
Nuclear contribution   :     -5.08761     -16.86600     -15.06241
                        -----------------------------------------
Total Dipole Moment    :     -0.04774      -0.55815      -0.12253
                        -----------------------------------------
Magnitude (a.u.)       :      0.57343
Magnitude (Debye)      :      1.45755

Rotational constants in cm-1:     0.020458     0.007096     0.006143
Rotational constants in MHz :   613.310222   212.728732   184.169404

                             ****ORCA TERMINATED NORMALLY****
TOTAL RUN TIME: 0 days 0 hours 0 minutes 20 seconds 740 msec
