                         Program Version 4.2.1 -  RELEASE  -
|  1> ! wB97X-D3 SP def2-SVP
|  2> %pal
|  3> nprocs 24
|  4> end
|  5>
|  6> * xyz 0 1
|  7> S 	 -132.326 	 61.2592 	 -59.6875
|  8> C 	 -131.692 	 62.9087 	 -59.7815
|  9> C 	 -132.398 	 63.7733 	 -58.9897
| 10> C 	 -133.395 	 63.1744 	 -58.2398
| 11> C 	 -133.397 	 61.7673 	 -58.3785
| 12> H 	 -134 	 63.6272 	 -57.4655
| 13> C 	 -131.976 	 65.2295 	 -58.8321
| 14> H 	 -131.791 	 65.683 	 -59.8229
| 15> H 	 -131.09 	 65.2159 	 -58.115
| 16> C 	 -133.02 	 66.138 	 -58.1149
| 17> H 	 -133.155 	 65.8076 	 -57.0829
| 18> H 	 -132.566 	 67.0762 	 -58.0954
| 19> C 	 -134.304 	 66.2738 	 -58.9085
| 20> H 	 -134.317 	 66.0376 	 -59.9779
| 21> H 	 -135.156 	 65.7558 	 -58.5204
| 22> H 	 -134.641 	 67.33 	 -58.7918
| 23> S 	 -135.866 	 60.8986 	 -58.9989
| 24> C 	 -136.754 	 59.9942 	 -57.7877
| 25> C 	 -136.09 	 59.7847 	 -56.6049
| 26> C 	 -134.808 	 60.3031 	 -56.6571
| 27> C 	 -134.526 	 60.9506 	 -57.9123
| 28> H 	 -136.559 	 59.3611 	 -55.7517
| 29> C 	 -133.753 	 60.2791 	 -55.5319
| 30> H 	 -133.819 	 61.31 	 -55.1177
| 31> H 	 -132.739 	 60.2036 	 -55.9457
| 32> C 	 -133.878 	 59.2384 	 -54.5029
| 33> H 	 -134.845 	 59.2252 	 -53.9256
| 34> H 	 -133.073 	 59.4296 	 -53.8397
| 35> C 	 -133.629 	 57.7569 	 -54.8911
| 36> H 	 -133.205 	 57.1062 	 -54.0874
| 37> H 	 -132.967 	 57.8075 	 -55.8049
| 38> H 	 -134.598 	 57.333 	 -55.1205
| 39> H 	 -130.852 	 63.1887 	 -60.2936
| 40> H 	 -137.766 	 59.7125 	 -57.8869
| 41> *
| 42>
| 43>                          ****END OF INPUT****

CARTESIAN COORDINATES (ANGSTROEM)
---------------------------------
  S    -132.326000   61.259200  -59.687500
  C    -131.692000   62.908700  -59.781500
  C    -132.398000   63.773300  -58.989700
  C    -133.395000   63.174400  -58.239800
  C    -133.397000   61.767300  -58.378500
  H    -134.000000   63.627200  -57.465500
  C    -131.976000   65.229500  -58.832100
  H    -131.791000   65.683000  -59.822900
  H    -131.090000   65.215900  -58.115000
  C    -133.020000   66.138000  -58.114900
  H    -133.155000   65.807600  -57.082900
  H    -132.566000   67.076200  -58.095400
  C    -134.304000   66.273800  -58.908500
  H    -134.317000   66.037600  -59.977900
  H    -135.156000   65.755800  -58.520400
  H    -134.641000   67.330000  -58.791800
  S    -135.866000   60.898600  -58.998900
  C    -136.754000   59.994200  -57.787700
  C    -136.090000   59.784700  -56.604900
  C    -134.808000   60.303100  -56.657100
  C    -134.526000   60.950600  -57.912300
  H    -136.559000   59.361100  -55.751700
  C    -133.753000   60.279100  -55.531900
  H    -133.819000   61.310000  -55.117700
  H    -132.739000   60.203600  -55.945700
  C    -133.878000   59.238400  -54.502900
  H    -134.845000   59.225200  -53.925600
  H    -133.073000   59.429600  -53.839700
  C    -133.629000   57.756900  -54.891100
  H    -133.205000   57.106200  -54.087400
  H    -132.967000   57.807500  -55.804900
  H    -134.598000   57.333000  -55.120500
  H    -130.852000   63.188700  -60.293600
  H    -137.766000   59.712500  -57.886900

 Total Charge           Charge          ....    0
 Multiplicity           Mult            ....    1
 Number of Electrons    NEL             ....  134
 Basis Dimension        Dim             ....  322

ORBITAL ENERGIES
----------------

  NO   OCC          E(Eh)            E(eV)
   0   2.0000     -88.968006     -2420.9425
   1   2.0000     -88.967023     -2420.9158
   2   2.0000     -10.328014      -281.0396
   3   2.0000     -10.320045      -280.8227
   4   2.0000     -10.309309      -280.5306
   5   2.0000     -10.305159      -280.4176
   6   2.0000     -10.301432      -280.3162
   7   2.0000     -10.298130      -280.2264
   8   2.0000     -10.293158      -280.0911
   9   2.0000     -10.291688      -280.0511
  10   2.0000     -10.291358      -280.0421
  11   2.0000     -10.286577      -279.9120
  12   2.0000     -10.283629      -279.8318
  13   2.0000     -10.281113      -279.7633
  14   2.0000     -10.280346      -279.7424
  15   2.0000     -10.274678      -279.5882
  16   2.0000      -8.081887      -219.9193
  17   2.0000      -8.081816      -219.9174
  18   2.0000      -6.040212      -164.3625
  19   2.0000      -6.040030      -164.3576
  20   2.0000      -6.036552      -164.2629
  21   2.0000      -6.036303      -164.2562
  22   2.0000      -6.032922      -164.1641
  23   2.0000      -6.032858      -164.1624
  24   2.0000      -1.004186       -27.3253
  25   2.0000      -0.983250       -26.7556
  26   2.0000      -0.913369       -24.8540
  27   2.0000      -0.910080       -24.7645
  28   2.0000      -0.869802       -23.6685
  29   2.0000      -0.847377       -23.0583
  30   2.0000      -0.844872       -22.9901
  31   2.0000      -0.813234       -22.1292
  32   2.0000      -0.783151       -21.3106
  33   2.0000      -0.770051       -20.9541
  34   2.0000      -0.708638       -19.2830
  35   2.0000      -0.695385       -18.9224
  36   2.0000      -0.689733       -18.7686
  37   2.0000      -0.654236       -17.8027
  38   2.0000      -0.639512       -17.4020
  39   2.0000      -0.618293       -16.8246
  40   2.0000      -0.599405       -16.3106
  41   2.0000      -0.570616       -15.5273
  42   2.0000      -0.557617       -15.1735
  43   2.0000      -0.551577       -15.0092
  44   2.0000      -0.540577       -14.7098
  45   2.0000      -0.532847       -14.4995
  46   2.0000      -0.519874       -14.1465
  47   2.0000      -0.513645       -13.9770
  48   2.0000      -0.495581       -13.4855
  49   2.0000      -0.492722       -13.4076
  50   2.0000      -0.482418       -13.1273
  51   2.0000      -0.476192       -12.9579
  52   2.0000      -0.474251       -12.9050
  53   2.0000      -0.470228       -12.7956
  54   2.0000      -0.456483       -12.4215
  55   2.0000      -0.453012       -12.3271
  56   2.0000      -0.447203       -12.1690
  57   2.0000      -0.439606       -11.9623
  58   2.0000      -0.437735       -11.9114
  59   2.0000      -0.420550       -11.4437
  60   2.0000      -0.419127       -11.4050
  61   2.0000      -0.410108       -11.1596
  62   2.0000      -0.399959       -10.8834
  63   2.0000      -0.344551        -9.3757
  64   2.0000      -0.331256        -9.0139
  65   2.0000      -0.312365        -8.4999
  66   2.0000      -0.297661        -8.0998
  67   0.0000       0.038955         1.0600
  68   0.0000       0.047563         1.2943
  69   0.0000       0.120883         3.2894
  70   0.0000       0.123068         3.3488
  71   0.0000       0.131263         3.5719

MULLIKEN ATOMIC CHARGES
-----------------------
   0 S :    0.114274
   1 C :   -0.089430
   2 C :   -0.055634
   3 C :    0.020073
   4 C :   -0.168182
   5 H :    0.019132
   6 C :    0.015157
   7 H :    0.041236
   8 H :    0.055581
   9 C :   -0.047515
  10 H :    0.033054
  11 H :    0.019538
  12 C :   -0.064686
  13 H :    0.043565
  14 H :    0.023896
  15 H :    0.027362
  16 S :    0.139702
  17 C :   -0.069496
  18 C :   -0.042057
  19 C :   -0.031802
  20 C :   -0.204399
  21 H :    0.005713
  22 C :    0.082266
  23 H :    0.041926
  24 H :    0.034435
  25 C :   -0.079815
  26 H :    0.031303
  27 H :    0.021527
  28 C :   -0.073750
  29 H :    0.047346
  30 H :    0.042150
  31 H :    0.028422
  32 H :    0.006353
  33 H :    0.032754
Sum of atomic charges:   -0.0000000

LOEWDIN ATOMIC CHARGES
----------------------
   0 S :    0.399696
   1 C :   -0.174848
   2 C :   -0.071765
   3 C :   -0.056179
   4 C :   -0.202458
   5 H :    0.033511
   6 C :   -0.030172
   7 H :    0.031966
   8 H :    0.043006
   9 C :   -0.042141
  10 H :    0.025001
  11 H :    0.020052
  12 C :   -0.075868
  13 H :    0.030562
  14 H :    0.022379
  15 H :    0.031928
  16 S :    0.433111
  17 C :   -0.177238
  18 C :   -0.073382
  19 C :   -0.052822
  20 C :   -0.223039
  21 H :    0.029835
  22 C :   -0.035450
  23 H :    0.042475
  24 H :    0.035786
  25 C :   -0.054111
  26 H :    0.024999
  27 H :    0.024955
  28 C :   -0.069336
  29 H :    0.031631
  30 H :    0.032440
  31 H :    0.020018
  32 H :    0.008880
  33 H :    0.016576

  Mayer bond orders larger than 0.100000
B(  0-S ,  1-C ) :   1.1452 B(  0-S ,  4-C ) :   1.1672 B(  1-C ,  2-C ) :   1.5947
B(  1-C ,  4-C ) :   0.1113 B(  1-C , 32-H ) :   0.9827 B(  2-C ,  3-C ) :   1.2759
B(  2-C ,  6-C ) :   1.0026 B(  3-C ,  4-C ) :   1.5376 B(  3-C ,  5-H ) :   0.9929
B(  4-C , 20-C ) :   1.0075 B(  6-C ,  7-H ) :   0.9454 B(  6-C ,  8-H ) :   0.9393
B(  6-C ,  9-C ) :   1.1044 B(  9-C , 10-H ) :   0.9465 B(  9-C , 11-H ) :   0.9583
B(  9-C , 12-C ) :   1.0610 B( 12-C , 13-H ) :   0.9793 B( 12-C , 14-H ) :   0.9740
B( 12-C , 15-H ) :   0.9771 B( 16-S , 17-C ) :   1.1751 B( 16-S , 20-C ) :   1.1778
B( 17-C , 18-C ) :   1.5789 B( 17-C , 20-C ) :   0.1103 B( 17-C , 33-H ) :   0.9655
B( 18-C , 19-C ) :   1.2970 B( 18-C , 21-H ) :   0.9942 B( 19-C , 20-C ) :   1.5533
B( 19-C , 22-C ) :   1.0126 B( 22-C , 23-H ) :   0.9259 B( 22-C , 24-H ) :   0.9317
B( 22-C , 25-C ) :   1.1059 B( 25-C , 26-H ) :   0.9500 B( 25-C , 27-H ) :   0.9478
B( 25-C , 28-C ) :   1.0614 B( 28-C , 29-H ) :   0.9783 B( 28-C , 30-H ) :   0.9747
B( 28-C , 31-H ) :   0.9781

Dispersion correction           -0.014407119
FINAL SINGLE POINT ENERGY     -1339.858060574760

DIPOLE MOMENT
-------------
                                X             Y             Z
Electronic contribution:     -2.70347      -8.43537     -15.80861
Nuclear contribution   :      2.72929       8.90356      16.29913
                        -----------------------------------------
Total Dipole Moment    :      0.02582       0.46819       0.49052
                        -----------------------------------------
Magnitude (a.u.)       :      0.67858
Magnitude (Debye)      :      1.72481

Rotational constants in cm-1:     0.020373     0.007785     0.007473
Rotational constants in MHz :   610.756344   233.400990   224.035354

                             ****ORCA TERMINATED NORMALLY****
TOTAL RUN TIME: 0 days 0 hours 0 minutes 21 seconds 666 msec
