                         Program Version 4.2.1 -  RELEASE  -
|  1> ! wB97X-D3 SP def2-SVP
|  2> %pal
|  3> nprocs 24
|  4> end
|  5>
|  6> * xyz 0 1
|  7> S 	 -59.2657 	 -54.0906 	 -80.795
|  8> C 	 -58.5463 	 -53.2687 	 -79.3299
|  9> C 	 -57.8108 	 -52.1423 	 -79.6967
| 10> C 	 -57.5678 	 -52.0915 	 -81.0717
| 11> C 	 -58.154 	 -53.1474 	 -81.7625
| 12> H 	 -56.8781 	 -51.4245 	 -81.6152
| 13> C 	 -56.9345 	 -51.3634 	 -78.7406
| 14> H 	 -57.1493 	 -51.6669 	 -77.76
| 15> H 	 -57.1357 	 -50.3197 	 -78.8861
| 16> C 	 -55.4299 	 -51.8147 	 -78.8731
| 17> H 	 -55.3959 	 -52.8753 	 -78.8677
| 18> H 	 -55.1571 	 -51.4993 	 -79.8809
| 19> C 	 -54.5045 	 -51.0805 	 -77.8471
| 20> H 	 -53.4794 	 -51.2183 	 -78.1485
| 21> H 	 -54.7092 	 -50.0106 	 -77.9026
| 22> H 	 -54.682 	 -51.4404 	 -76.826
| 23> S 	 -57.6122 	 -55.0747 	 -83.8127
| 24> C 	 -57.9557 	 -54.6636 	 -85.5133
| 25> C 	 -58.5374 	 -53.3826 	 -85.5476
| 26> C 	 -58.4942 	 -52.6777 	 -84.3032
| 27> C 	 -58.0766 	 -53.4181 	 -83.2038
| 28> H 	 -59.1337 	 -53.0648 	 -86.4202
| 29> C 	 -59.1161 	 -51.2282 	 -84.2658
| 30> H 	 -59.1734 	 -50.8295 	 -85.2907
| 31> H 	 -58.39 	 -50.6061 	 -83.7328
| 32> C 	 -60.4304 	 -51.04 	 -83.4952
| 33> H 	 -60.8597 	 -50.0458 	 -83.6529
| 34> H 	 -60.3602 	 -51.0992 	 -82.38
| 35> C 	 -61.5807 	 -52.0216 	 -83.7981
| 36> H 	 -61.3153 	 -53.0135 	 -83.6571
| 37> H 	 -61.7967 	 -51.944 	 -84.8751
| 38> H 	 -62.4786 	 -51.6388 	 -83.283
| 39> H 	 -58.8433 	 -53.5372 	 -78.2788
| 40> H 	 -57.8298 	 -55.3832 	 -86.3281
| 41> *
| 42>
| 43>                          ****END OF INPUT****

CARTESIAN COORDINATES (ANGSTROEM)
---------------------------------
  S    -59.265700  -54.090600  -80.795000
  C    -58.546300  -53.268700  -79.329900
  C    -57.810800  -52.142300  -79.696700
  C    -57.567800  -52.091500  -81.071700
  C    -58.154000  -53.147400  -81.762500
  H    -56.878100  -51.424500  -81.615200
  C    -56.934500  -51.363400  -78.740600
  H    -57.149300  -51.666900  -77.760000
  H    -57.135700  -50.319700  -78.886100
  C    -55.429900  -51.814700  -78.873100
  H    -55.395900  -52.875300  -78.867700
  H    -55.157100  -51.499300  -79.880900
  C    -54.504500  -51.080500  -77.847100
  H    -53.479400  -51.218300  -78.148500
  H    -54.709200  -50.010600  -77.902600
  H    -54.682000  -51.440400  -76.826000
  S    -57.612200  -55.074700  -83.812700
  C    -57.955700  -54.663600  -85.513300
  C    -58.537400  -53.382600  -85.547600
  C    -58.494200  -52.677700  -84.303200
  C    -58.076600  -53.418100  -83.203800
  H    -59.133700  -53.064800  -86.420200
  C    -59.116100  -51.228200  -84.265800
  H    -59.173400  -50.829500  -85.290700
  H    -58.390000  -50.606100  -83.732800
  C    -60.430400  -51.040000  -83.495200
  H    -60.859700  -50.045800  -83.652900
  H    -60.360200  -51.099200  -82.380000
  C    -61.580700  -52.021600  -83.798100
  H    -61.315300  -53.013500  -83.657100
  H    -61.796700  -51.944000  -84.875100
  H    -62.478600  -51.638800  -83.283000
  H    -58.843300  -53.537200  -78.278800
  H    -57.829800  -55.383200  -86.328100

 Total Charge           Charge          ....    0
 Multiplicity           Mult            ....    1
 Number of Electrons    NEL             ....  134
 Basis Dimension        Dim             ....  322

ORBITAL ENERGIES
----------------

  NO   OCC          E(Eh)            E(eV)
   0   2.0000     -88.969907     -2420.9942
   1   2.0000     -88.965079     -2420.8629
   2   2.0000     -10.334135      -281.2061
   3   2.0000     -10.333767      -281.1961
   4   2.0000     -10.328317      -281.0478
   5   2.0000     -10.323406      -280.9142
   6   2.0000     -10.310619      -280.5662
   7   2.0000     -10.301914      -280.3293
   8   2.0000     -10.300840      -280.3001
   9   2.0000     -10.297556      -280.2107
  10   2.0000     -10.296588      -280.1844
  11   2.0000     -10.287634      -279.9407
  12   2.0000     -10.287350      -279.9330
  13   2.0000     -10.283775      -279.8358
  14   2.0000     -10.281961      -279.7864
  15   2.0000     -10.266356      -279.3618
  16   2.0000      -8.083346      -219.9590
  17   2.0000      -8.078187      -219.8187
  18   2.0000      -6.041805      -164.4059
  19   2.0000      -6.038274      -164.3098
  20   2.0000      -6.036859      -164.2713
  21   2.0000      -6.033977      -164.1929
  22   2.0000      -6.032845      -164.1621
  23   2.0000      -6.028930      -164.0555
  24   2.0000      -0.999327       -27.1931
  25   2.0000      -0.975190       -26.5363
  26   2.0000      -0.910590       -24.7784
  27   2.0000      -0.898107       -24.4387
  28   2.0000      -0.862555       -23.4713
  29   2.0000      -0.846520       -23.0350
  30   2.0000      -0.839262       -22.8375
  31   2.0000      -0.809777       -22.0351
  32   2.0000      -0.783068       -21.3084
  33   2.0000      -0.771273       -20.9874
  34   2.0000      -0.708510       -19.2795
  35   2.0000      -0.698842       -19.0164
  36   2.0000      -0.683076       -18.5875
  37   2.0000      -0.659319       -17.9410
  38   2.0000      -0.639381       -17.3984
  39   2.0000      -0.618932       -16.8420
  40   2.0000      -0.584115       -15.8946
  41   2.0000      -0.569574       -15.4989
  42   2.0000      -0.557388       -15.1673
  43   2.0000      -0.553991       -15.0748
  44   2.0000      -0.543299       -14.7839
  45   2.0000      -0.521864       -14.2006
  46   2.0000      -0.513276       -13.9669
  47   2.0000      -0.508951       -13.8493
  48   2.0000      -0.502078       -13.6622
  49   2.0000      -0.495657       -13.4875
  50   2.0000      -0.482850       -13.1390
  51   2.0000      -0.481232       -13.0950
  52   2.0000      -0.471753       -12.8371
  53   2.0000      -0.469190       -12.7673
  54   2.0000      -0.455184       -12.3862
  55   2.0000      -0.450274       -12.2526
  56   2.0000      -0.441285       -12.0080
  57   2.0000      -0.438108       -11.9215
  58   2.0000      -0.429168       -11.6783
  59   2.0000      -0.425633       -11.5821
  60   2.0000      -0.416920       -11.3450
  61   2.0000      -0.409342       -11.1388
  62   2.0000      -0.403844       -10.9892
  63   2.0000      -0.336958        -9.1691
  64   2.0000      -0.336763        -9.1638
  65   2.0000      -0.328078        -8.9275
  66   2.0000      -0.294140        -8.0040
  67   0.0000       0.021304         0.5797
  68   0.0000       0.056790         1.5453
  69   0.0000       0.099117         2.6971
  70   0.0000       0.120102         3.2682
  71   0.0000       0.125099         3.4041

MULLIKEN ATOMIC CHARGES
-----------------------
   0 S :    0.110205
   1 C :   -0.149802
   2 C :   -0.056532
   3 C :    0.010206
   4 C :   -0.156929
   5 H :    0.031845
   6 C :    0.078212
   7 H :   -0.001889
   8 H :    0.032759
   9 C :   -0.091433
  10 H :    0.034085
  11 H :    0.020424
  12 C :   -0.028999
  13 H :    0.037768
  14 H :    0.029964
  15 H :    0.039883
  16 S :    0.084816
  17 C :   -0.109790
  18 C :   -0.045360
  19 C :   -0.040702
  20 C :   -0.171190
  21 H :    0.041699
  22 C :    0.096014
  23 H :    0.026840
  24 H :    0.026868
  25 C :   -0.104143
  26 H :    0.025014
  27 H :    0.041599
  28 C :   -0.033361
  29 H :    0.029735
  30 H :    0.009772
  31 H :    0.038054
  32 H :    0.067904
  33 H :    0.076465
Sum of atomic charges:    0.0000000

LOEWDIN ATOMIC CHARGES
----------------------
   0 S :    0.379946
   1 C :   -0.183169
   2 C :   -0.063019
   3 C :   -0.063674
   4 C :   -0.182987
   5 H :    0.037960
   6 C :   -0.022411
   7 H :    0.018539
   8 H :    0.028285
   9 C :   -0.027839
  10 H :    0.021757
  11 H :    0.018693
  12 C :   -0.061857
  13 H :    0.026758
  14 H :    0.027136
  15 H :    0.026161
  16 S :    0.365137
  17 C :   -0.173513
  18 C :   -0.081073
  19 C :   -0.053029
  20 C :   -0.189083
  21 H :    0.037647
  22 C :   -0.029088
  23 H :    0.031592
  24 H :    0.033981
  25 C :   -0.049395
  26 H :    0.024596
  27 H :    0.028859
  28 C :   -0.061480
  29 H :    0.012311
  30 H :    0.019581
  31 H :    0.031705
  32 H :    0.035667
  33 H :    0.035304

  Mayer bond orders larger than 0.100000
B(  0-S ,  1-C ) :   1.1153 B(  0-S ,  4-C ) :   1.1564 B(  1-C ,  2-C ) :   1.6114
B(  1-C ,  4-C ) :   0.1038 B(  1-C , 32-H ) :   0.9611 B(  2-C ,  3-C ) :   1.2118
B(  2-C ,  6-C ) :   1.0472 B(  3-C ,  4-C ) :   1.5935 B(  3-C ,  5-H ) :   0.9902
B(  4-C , 20-C ) :   1.0528 B(  6-C ,  7-H ) :   0.9453 B(  6-C ,  8-H ) :   0.9354
B(  6-C ,  9-C ) :   1.0501 B(  9-C , 10-H ) :   0.9608 B(  9-C , 11-H ) :   0.9560
B(  9-C , 12-C ) :   1.0750 B( 12-C , 13-H ) :   0.9754 B( 12-C , 14-H ) :   0.9742
B( 12-C , 15-H ) :   0.9775 B( 16-S , 17-C ) :   1.1616 B( 16-S , 20-C ) :   1.1177
B( 17-C , 18-C ) :   1.5830 B( 17-C , 20-C ) :   0.1061 B( 17-C , 33-H ) :   0.9678
B( 18-C , 19-C ) :   1.2579 B( 18-C , 21-H ) :   0.9814 B( 19-C , 20-C ) :   1.5872
B( 19-C , 22-C ) :   1.0258 B( 22-C , 23-H ) :   0.9415 B( 22-C , 24-H ) :   0.9335
B( 22-C , 25-C ) :   1.0670 B( 25-C , 26-H ) :   0.9559 B( 25-C , 27-H ) :   0.9554
B( 25-C , 28-C ) :   1.0815 B( 28-C , 29-H ) :   0.9740 B( 28-C , 30-H ) :   0.9754
B( 28-C , 31-H ) :   0.9742

Dispersion correction           -0.015393095
FINAL SINGLE POINT ENERGY     -1339.863890546507

DIPOLE MOMENT
-------------
                                X             Y             Z
Electronic contribution:     -2.12539     -18.87264      -7.98444
Nuclear contribution   :      2.16827      19.40430       8.03185
                        -----------------------------------------
Total Dipole Moment    :      0.04288       0.53166       0.04742
                        -----------------------------------------
Magnitude (a.u.)       :      0.53549
Magnitude (Debye)      :      1.36110

Rotational constants in cm-1:     0.020755     0.008014     0.007368
Rotational constants in MHz :   622.224023   240.258759   220.873424

                             ****ORCA TERMINATED NORMALLY****
TOTAL RUN TIME: 0 days 0 hours 0 minutes 20 seconds 889 msec
