                         Program Version 4.2.1 -  RELEASE  -
|  1> ! wB97X-D3 SP def2-SVP
|  2> %pal
|  3> nprocs 24
|  4> end
|  5>
|  6> * xyz 0 1
|  7> S 	 -105.682 	 43.8356 	 -93.9859
|  8> C 	 -105.396 	 43.1626 	 -92.4067
|  9> C 	 -104.202 	 42.4548 	 -92.4149
| 10> C 	 -103.451 	 42.5764 	 -93.6351
| 11> C 	 -104.145 	 43.245 	 -94.6319
| 12> H 	 -102.489 	 42.1649 	 -93.8655
| 13> C 	 -103.648 	 41.7302 	 -91.1568
| 14> H 	 -104.169 	 40.7625 	 -91.103
| 15> H 	 -103.847 	 42.4152 	 -90.3782
| 16> C 	 -102.058 	 41.4424 	 -91.1267
| 17> H 	 -101.649 	 40.887 	 -92.0569
| 18> H 	 -101.657 	 42.4544 	 -91.1459
| 19> C 	 -101.518 	 40.6509 	 -89.9172
| 20> H 	 -100.421 	 40.7729 	 -89.9636
| 21> H 	 -101.933 	 40.991 	 -88.9476
| 22> H 	 -101.752 	 39.5387 	 -90.0289
| 23> S 	 -105 	 43.4296 	 -97.2382
| 24> C 	 -103.873 	 43.9735 	 -98.5562
| 25> C 	 -102.561 	 43.9571 	 -98.0082
| 26> C 	 -102.512 	 43.744 	 -96.5872
| 27> C 	 -103.732 	 43.5383 	 -96.0037
| 28> H 	 -101.719 	 44.1495 	 -98.7352
| 29> C 	 -101.205 	 43.984 	 -95.8253
| 30> H 	 -100.742 	 42.9992 	 -95.7247
| 31> H 	 -101.527 	 44.331 	 -94.8559
| 32> C 	 -100.203 	 44.9429 	 -96.5046
| 33> H 	 -100.811 	 45.7972 	 -96.7675
| 34> H 	 -99.8275 	 44.4508 	 -97.4242
| 35> C 	 -98.9766 	 45.3585 	 -95.6065
| 36> H 	 -98.4368 	 46.2142 	 -95.9581
| 37> H 	 -98.2837 	 44.5334 	 -95.5274
| 38> H 	 -99.3308 	 45.62 	 -94.632
| 39> H 	 -105.952 	 43.2352 	 -91.4245
| 40> H 	 -104.156 	 44.1997 	 -99.5332
| 41> *
| 42>
| 43>                          ****END OF INPUT****

CARTESIAN COORDINATES (ANGSTROEM)
---------------------------------
  S    -105.682000   43.835600  -93.985900
  C    -105.396000   43.162600  -92.406700
  C    -104.202000   42.454800  -92.414900
  C    -103.451000   42.576400  -93.635100
  C    -104.145000   43.245000  -94.631900
  H    -102.489000   42.164900  -93.865500
  C    -103.648000   41.730200  -91.156800
  H    -104.169000   40.762500  -91.103000
  H    -103.847000   42.415200  -90.378200
  C    -102.058000   41.442400  -91.126700
  H    -101.649000   40.887000  -92.056900
  H    -101.657000   42.454400  -91.145900
  C    -101.518000   40.650900  -89.917200
  H    -100.421000   40.772900  -89.963600
  H    -101.933000   40.991000  -88.947600
  H    -101.752000   39.538700  -90.028900
  S    -105.000000   43.429600  -97.238200
  C    -103.873000   43.973500  -98.556200
  C    -102.561000   43.957100  -98.008200
  C    -102.512000   43.744000  -96.587200
  C    -103.732000   43.538300  -96.003700
  H    -101.719000   44.149500  -98.735200
  C    -101.205000   43.984000  -95.825300
  H    -100.742000   42.999200  -95.724700
  H    -101.527000   44.331000  -94.855900
  C    -100.203000   44.942900  -96.504600
  H    -100.811000   45.797200  -96.767500
  H    -99.827500   44.450800  -97.424200
  C    -98.976600   45.358500  -95.606500
  H    -98.436800   46.214200  -95.958100
  H    -98.283700   44.533400  -95.527400
  H    -99.330800   45.620000  -94.632000
  H    -105.952000   43.235200  -91.424500
  H    -104.156000   44.199700  -99.533200

 Total Charge           Charge          ....    0
 Multiplicity           Mult            ....    1
 Number of Electrons    NEL             ....  134
 Basis Dimension        Dim             ....  322

ORBITAL ENERGIES
----------------

  NO   OCC          E(Eh)            E(eV)
   0   2.0000     -88.969411     -2420.9808
   1   2.0000     -88.962757     -2420.7997
   2   2.0000     -10.334032      -281.2033
   3   2.0000     -10.330160      -281.0979
   4   2.0000     -10.323595      -280.9193
   5   2.0000     -10.318802      -280.7889
   6   2.0000     -10.305332      -280.4223
   7   2.0000     -10.304953      -280.4120
   8   2.0000     -10.304274      -280.3936
   9   2.0000     -10.300986      -280.3041
  10   2.0000     -10.297851      -280.2188
  11   2.0000     -10.295840      -280.1641
  12   2.0000     -10.292036      -280.0605
  13   2.0000     -10.291883      -280.0564
  14   2.0000     -10.291618      -280.0492
  15   2.0000     -10.277936      -279.6769
  16   2.0000      -8.083459      -219.9621
  17   2.0000      -8.076233      -219.7655
  18   2.0000      -6.042150      -164.4153
  19   2.0000      -6.037895      -164.2995
  20   2.0000      -6.034976      -164.2200
  21   2.0000      -6.034203      -164.1990
  22   2.0000      -6.030890      -164.1088
  23   2.0000      -6.026839      -163.9986
  24   2.0000      -1.002901       -27.2903
  25   2.0000      -0.977629       -26.6026
  26   2.0000      -0.904332       -24.6081
  27   2.0000      -0.898783       -24.4571
  28   2.0000      -0.867869       -23.6159
  29   2.0000      -0.848560       -23.0905
  30   2.0000      -0.839840       -22.8532
  31   2.0000      -0.815960       -22.2034
  32   2.0000      -0.779290       -21.2056
  33   2.0000      -0.770716       -20.9722
  34   2.0000      -0.710008       -19.3203
  35   2.0000      -0.705664       -19.2021
  36   2.0000      -0.685665       -18.6579
  37   2.0000      -0.654053       -17.7977
  38   2.0000      -0.636619       -17.3233
  39   2.0000      -0.615907       -16.7597
  40   2.0000      -0.590092       -16.0572
  41   2.0000      -0.573895       -15.6165
  42   2.0000      -0.569359       -15.4931
  43   2.0000      -0.560204       -15.2439
  44   2.0000      -0.529637       -14.4122
  45   2.0000      -0.521138       -14.1809
  46   2.0000      -0.515596       -14.0301
  47   2.0000      -0.506501       -13.7826
  48   2.0000      -0.504220       -13.7205
  49   2.0000      -0.498932       -13.5766
  50   2.0000      -0.495790       -13.4911
  51   2.0000      -0.482132       -13.1195
  52   2.0000      -0.472559       -12.8590
  53   2.0000      -0.469552       -12.7771
  54   2.0000      -0.454293       -12.3619
  55   2.0000      -0.451626       -12.2894
  56   2.0000      -0.441929       -12.0255
  57   2.0000      -0.431778       -11.7493
  58   2.0000      -0.429770       -11.6946
  59   2.0000      -0.426872       -11.6158
  60   2.0000      -0.417330       -11.3561
  61   2.0000      -0.415129       -11.2962
  62   2.0000      -0.409883       -11.1535
  63   2.0000      -0.353242        -9.6122
  64   2.0000      -0.331352        -9.0165
  65   2.0000      -0.327935        -8.9236
  66   2.0000      -0.287733        -7.8296
  67   0.0000       0.020930         0.5695
  68   0.0000       0.073318         1.9951
  69   0.0000       0.104885         2.8541
  70   0.0000       0.124934         3.3996
  71   0.0000       0.134682         3.6649

MULLIKEN ATOMIC CHARGES
-----------------------
   0 S :    0.120583
   1 C :   -0.131637
   2 C :   -0.119835
   3 C :    0.020363
   4 C :   -0.133169
   5 H :    0.003197
   6 C :    0.078294
   7 H :    0.051559
   8 H :    0.027313
   9 C :   -0.153803
  10 H :    0.051132
  11 H :    0.035404
  12 C :   -0.059355
  13 H :    0.046409
  14 H :    0.038784
  15 H :    0.047493
  16 S :    0.078231
  17 C :   -0.081776
  18 C :   -0.064343
  19 C :   -0.053638
  20 C :   -0.128880
  21 H :    0.048175
  22 C :    0.057087
  23 H :    0.037448
  24 H :    0.029923
  25 C :   -0.106290
  26 H :    0.037581
  27 H :    0.038447
  28 C :   -0.007594
  29 H :    0.032422
  30 H :    0.028840
  31 H :    0.021404
  32 H :    0.068636
  33 H :    0.041596
Sum of atomic charges:   -0.0000000

LOEWDIN ATOMIC CHARGES
----------------------
   0 S :    0.410781
   1 C :   -0.219725
   2 C :   -0.065820
   3 C :   -0.064054
   4 C :   -0.186439
   5 H :    0.028057
   6 C :   -0.028747
   7 H :    0.035214
   8 H :    0.025509
   9 C :   -0.052446
  10 H :    0.031668
  11 H :    0.021712
  12 C :   -0.073282
  13 H :    0.032754
  14 H :    0.025412
  15 H :    0.033218
  16 S :    0.365216
  17 C :   -0.156763
  18 C :   -0.072450
  19 C :   -0.064777
  20 C :   -0.186515
  21 H :    0.042708
  22 C :   -0.030821
  23 H :    0.030673
  24 H :    0.028114
  25 C :   -0.038918
  26 H :    0.024131
  27 H :    0.024529
  28 C :   -0.056939
  29 H :    0.025775
  30 H :    0.024330
  31 H :    0.021714
  32 H :    0.049142
  33 H :    0.017041

  Mayer bond orders larger than 0.100000
B(  0-S ,  1-C ) :   1.1334 B(  0-S ,  4-C ) :   1.1496 B(  1-C ,  2-C ) :   1.6213
B(  1-C , 32-H ) :   0.9612 B(  2-C ,  3-C ) :   1.2493 B(  2-C ,  6-C ) :   0.9954
B(  3-C ,  4-C ) :   1.5537 B(  3-C ,  5-H ) :   0.9957 B(  4-C , 20-C ) :   1.0471
B(  6-C ,  7-H ) :   0.9406 B(  6-C ,  8-H ) :   0.9464 B(  6-C ,  9-C ) :   1.0721
B(  9-C , 10-H ) :   0.9513 B(  9-C , 11-H ) :   0.9595 B(  9-C , 12-C ) :   1.0772
B( 12-C , 13-H ) :   0.9725 B( 12-C , 14-H ) :   0.9747 B( 12-C , 15-H ) :   0.9754
B( 16-S , 17-C ) :   1.1349 B( 16-S , 20-C ) :   1.1248 B( 17-C , 18-C ) :   1.6058
B( 17-C , 20-C ) :   0.1068 B( 17-C , 33-H ) :   0.9798 B( 18-C , 19-C ) :   1.2262
B( 18-C , 21-H ) :   0.9756 B( 19-C , 20-C ) :   1.6267 B( 19-C , 22-C ) :   1.0239
B( 22-C , 23-H ) :   0.9206 B( 22-C , 24-H ) :   0.9419 B( 22-C , 25-C ) :   1.0807
B( 25-C , 26-H ) :   0.9601 B( 25-C , 27-H ) :   0.9461 B( 25-C , 28-C ) :   1.0775
B( 28-C , 29-H ) :   0.9758 B( 28-C , 30-H ) :   0.9763 B( 28-C , 31-H ) :   0.9761

Dispersion correction           -0.013373742
FINAL SINGLE POINT ENERGY     -1339.870597607995

DIPOLE MOMENT
-------------
                                X             Y             Z
Electronic contribution:    -27.82562       3.61542     -15.29131
Nuclear contribution   :     28.59480      -3.67068      15.60945
                        -----------------------------------------
Total Dipole Moment    :      0.76918      -0.05526       0.31815
                        -----------------------------------------
Magnitude (a.u.)       :      0.83422
Magnitude (Debye)      :      2.12041

Rotational constants in cm-1:     0.015762     0.008782     0.006150
Rotational constants in MHz :   472.540514   263.266770   184.385729

                             ****ORCA TERMINATED NORMALLY****
TOTAL RUN TIME: 0 days 0 hours 0 minutes 19 seconds 656 msec
