                         Program Version 4.2.1 -  RELEASE  -
|  1> ! wB97X-D3 SP def2-SVP
|  2> %pal
|  3> nprocs 24
|  4> end
|  5>
|  6> * xyz 0 1
|  7> S 	 -119.242 	 18.363 	 -111.871
|  8> C 	 -120.171 	 19.4544 	 -110.89
|  9> C 	 -120.601 	 18.8048 	 -109.757
| 10> C 	 -120.06 	 17.4593 	 -109.651
| 11> C 	 -119.254 	 17.0915 	 -110.719
| 12> H 	 -120.206 	 16.8529 	 -108.736
| 13> C 	 -121.362 	 19.3436 	 -108.537
| 14> H 	 -120.72 	 19.0699 	 -107.735
| 15> H 	 -122.255 	 18.6454 	 -108.46
| 16> C 	 -121.715 	 20.8158 	 -108.572
| 17> H 	 -120.815 	 21.4417 	 -108.475
| 18> H 	 -122.243 	 21.0957 	 -109.497
| 19> C 	 -122.579 	 21.2427 	 -107.436
| 20> H 	 -123.611 	 20.9383 	 -107.489
| 21> H 	 -122.213 	 20.9247 	 -106.458
| 22> H 	 -122.661 	 22.3701 	 -107.354
| 23> S 	 -117.746 	 15.3927 	 -109.166
| 24> C 	 -117.03 	 13.9561 	 -109.955
| 25> C 	 -117.074 	 14.0528 	 -111.325
| 26> C 	 -117.818 	 15.1544 	 -111.795
| 27> C 	 -118.398 	 15.8844 	 -110.743
| 28> H 	 -116.638 	 13.3233 	 -111.95
| 29> C 	 -118.141 	 15.3363 	 -113.294
| 30> H 	 -117.3 	 15.6589 	 -113.911
| 31> H 	 -118.681 	 16.2299 	 -113.269
| 32> C 	 -118.84 	 14.0936 	 -114.044
| 33> H 	 -119.832 	 13.9642 	 -113.708
| 34> H 	 -118.472 	 13.1169 	 -113.815
| 35> C 	 -119.059 	 14.2976 	 -115.586
| 36> H 	 -119.782 	 15.1318 	 -115.706
| 37> H 	 -119.422 	 13.3969 	 -116.05
| 38> H 	 -118.067 	 14.6599 	 -116.064
| 39> H 	 -120.491 	 20.4478 	 -111.164
| 40> H 	 -116.52 	 13.1764 	 -109.329
| 41> *
| 42>
| 43>                          ****END OF INPUT****

CARTESIAN COORDINATES (ANGSTROEM)
---------------------------------
  S    -119.242000   18.363000  -111.871000
  C    -120.171000   19.454400  -110.890000
  C    -120.601000   18.804800  -109.757000
  C    -120.060000   17.459300  -109.651000
  C    -119.254000   17.091500  -110.719000
  H    -120.206000   16.852900  -108.736000
  C    -121.362000   19.343600  -108.537000
  H    -120.720000   19.069900  -107.735000
  H    -122.255000   18.645400  -108.460000
  C    -121.715000   20.815800  -108.572000
  H    -120.815000   21.441700  -108.475000
  H    -122.243000   21.095700  -109.497000
  C    -122.579000   21.242700  -107.436000
  H    -123.611000   20.938300  -107.489000
  H    -122.213000   20.924700  -106.458000
  H    -122.661000   22.370100  -107.354000
  S    -117.746000   15.392700  -109.166000
  C    -117.030000   13.956100  -109.955000
  C    -117.074000   14.052800  -111.325000
  C    -117.818000   15.154400  -111.795000
  C    -118.398000   15.884400  -110.743000
  H    -116.638000   13.323300  -111.950000
  C    -118.141000   15.336300  -113.294000
  H    -117.300000   15.658900  -113.911000
  H    -118.681000   16.229900  -113.269000
  C    -118.840000   14.093600  -114.044000
  H    -119.832000   13.964200  -113.708000
  H    -118.472000   13.116900  -113.815000
  C    -119.059000   14.297600  -115.586000
  H    -119.782000   15.131800  -115.706000
  H    -119.422000   13.396900  -116.050000
  H    -118.067000   14.659900  -116.064000
  H    -120.491000   20.447800  -111.164000
  H    -116.520000   13.176400  -109.329000

 Total Charge           Charge          ....    0
 Multiplicity           Mult            ....    1
 Number of Electrons    NEL             ....  134
 Basis Dimension        Dim             ....  322

ORBITAL ENERGIES
----------------

  NO   OCC          E(Eh)            E(eV)
   0   2.0000     -88.967100     -2420.9179
   1   2.0000     -88.965452     -2420.8730
   2   2.0000     -10.334158      -281.2067
   3   2.0000     -10.331243      -281.1274
   4   2.0000     -10.323325      -280.9120
   5   2.0000     -10.312565      -280.6192
   6   2.0000     -10.305902      -280.4378
   7   2.0000     -10.301567      -280.3199
   8   2.0000     -10.296583      -280.1843
   9   2.0000     -10.295191      -280.1464
  10   2.0000     -10.294284      -280.1217
  11   2.0000     -10.291098      -280.0350
  12   2.0000     -10.289635      -279.9952
  13   2.0000     -10.287761      -279.9442
  14   2.0000     -10.287035      -279.9245
  15   2.0000     -10.278766      -279.6995
  16   2.0000      -8.080826      -219.8904
  17   2.0000      -8.080478      -219.8810
  18   2.0000      -6.039316      -164.3381
  19   2.0000      -6.039198      -164.3349
  20   2.0000      -6.035702      -164.2398
  21   2.0000      -6.034779      -164.2147
  22   2.0000      -6.031433      -164.1236
  23   2.0000      -6.031188      -164.1170
  24   2.0000      -1.006509       -27.3885
  25   2.0000      -0.982795       -26.7432
  26   2.0000      -0.916765       -24.9464
  27   2.0000      -0.895723       -24.3739
  28   2.0000      -0.869942       -23.6723
  29   2.0000      -0.854659       -23.2564
  30   2.0000      -0.844672       -22.9847
  31   2.0000      -0.811339       -22.0776
  32   2.0000      -0.780978       -21.2515
  33   2.0000      -0.770058       -20.9544
  34   2.0000      -0.712475       -19.3874
  35   2.0000      -0.704782       -19.1781
  36   2.0000      -0.691126       -18.8065
  37   2.0000      -0.663349       -18.0506
  38   2.0000      -0.635315       -17.2878
  39   2.0000      -0.607725       -16.5370
  40   2.0000      -0.596547       -16.2329
  41   2.0000      -0.577953       -15.7269
  42   2.0000      -0.566188       -15.4068
  43   2.0000      -0.550741       -14.9864
  44   2.0000      -0.531774       -14.4703
  45   2.0000      -0.522575       -14.2200
  46   2.0000      -0.516948       -14.0669
  47   2.0000      -0.512675       -13.9506
  48   2.0000      -0.507003       -13.7962
  49   2.0000      -0.500636       -13.6230
  50   2.0000      -0.483315       -13.1517
  51   2.0000      -0.478991       -13.0340
  52   2.0000      -0.473559       -12.8862
  53   2.0000      -0.460807       -12.5392
  54   2.0000      -0.458170       -12.4674
  55   2.0000      -0.450358       -12.2549
  56   2.0000      -0.445197       -12.1144
  57   2.0000      -0.440536       -11.9876
  58   2.0000      -0.430048       -11.7022
  59   2.0000      -0.425877       -11.5887
  60   2.0000      -0.423444       -11.5225
  61   2.0000      -0.417642       -11.3646
  62   2.0000      -0.409751       -11.1499
  63   2.0000      -0.354786        -9.6542
  64   2.0000      -0.333606        -9.0779
  65   2.0000      -0.325251        -8.8505
  66   2.0000      -0.287775        -7.8308
  67   0.0000       0.022486         0.6119
  68   0.0000       0.084407         2.2968
  69   0.0000       0.101031         2.7492
  70   0.0000       0.117456         3.1962
  71   0.0000       0.131979         3.5913

MULLIKEN ATOMIC CHARGES
-----------------------
   0 S :    0.095417
   1 C :   -0.122154
   2 C :   -0.089862
   3 C :   -0.046547
   4 C :   -0.092885
   5 H :    0.027801
   6 C :    0.053835
   7 H :    0.030461
   8 H :    0.046271
   9 C :   -0.064850
  10 H :    0.038047
  11 H :    0.036143
  12 C :   -0.055732
  13 H :    0.026721
  14 H :    0.022997
  15 H :    0.032329
  16 S :    0.088959
  17 C :   -0.114705
  18 C :   -0.001145
  19 C :   -0.059644
  20 C :   -0.135632
  21 H :    0.006181
  22 C :    0.122612
  23 H :    0.028620
  24 H :   -0.017737
  25 C :   -0.051865
  26 H :    0.018550
  27 H :    0.020394
  28 C :   -0.090446
  29 H :    0.043905
  30 H :    0.043425
  31 H :    0.039785
  32 H :    0.044667
  33 H :    0.076085
Sum of atomic charges:    0.0000000

LOEWDIN ATOMIC CHARGES
----------------------
   0 S :    0.424932
   1 C :   -0.209267
   2 C :   -0.060826
   3 C :   -0.080177
   4 C :   -0.203209
   5 H :    0.030786
   6 C :   -0.032043
   7 H :    0.030753
   8 H :    0.042814
   9 C :   -0.049564
  10 H :    0.032424
  11 H :    0.028637
  12 C :   -0.068219
  13 H :    0.020355
  14 H :    0.022397
  15 H :    0.031895
  16 S :    0.384484
  17 C :   -0.175706
  18 C :   -0.062288
  19 C :   -0.057934
  20 C :   -0.176692
  21 H :    0.027342
  22 C :   -0.027071
  23 H :    0.033727
  24 H :    0.008591
  25 C :   -0.037541
  26 H :    0.022062
  27 H :    0.018536
  28 C :   -0.067891
  29 H :    0.028968
  30 H :    0.024776
  31 H :    0.029121
  32 H :    0.028642
  33 H :    0.037185

  Mayer bond orders larger than 0.100000
B(  0-S ,  1-C ) :   1.1233 B(  0-S ,  4-C ) :   1.1495 B(  1-C ,  2-C ) :   1.6275
B(  1-C , 32-H ) :   0.9669 B(  2-C ,  3-C ) :   1.2456 B(  2-C ,  6-C ) :   0.9952
B(  3-C ,  4-C ) :   1.5424 B(  3-C ,  5-H ) :   0.9894 B(  4-C , 20-C ) :   1.0626
B(  6-C ,  7-H ) :   0.9414 B(  6-C ,  8-H ) :   0.9383 B(  6-C ,  9-C ) :   1.0824
B(  9-C , 10-H ) :   0.9471 B(  9-C , 11-H ) :   0.9501 B(  9-C , 12-C ) :   1.0981
B( 12-C , 13-H ) :   0.9741 B( 12-C , 14-H ) :   0.9714 B( 12-C , 15-H ) :   0.9720
B( 16-S , 17-C ) :   1.1341 B( 16-S , 20-C ) :   1.1413 B( 17-C , 18-C ) :   1.6060
B( 17-C , 33-H ) :   0.9637 B( 18-C , 19-C ) :   1.2404 B( 18-C , 21-H ) :   0.9995
B( 19-C , 20-C ) :   1.5761 B( 19-C , 22-C ) :   1.0461 B( 22-C , 23-H ) :   0.9333
B( 22-C , 24-H ) :   0.9240 B( 22-C , 25-C ) :   1.0321 B( 25-C , 26-H ) :   0.9536
B( 25-C , 27-H ) :   0.9648 B( 25-C , 28-C ) :   1.0735 B( 28-C , 29-H ) :   0.9799
B( 28-C , 30-H ) :   0.9748 B( 28-C , 31-H ) :   0.9778

Dispersion correction           -0.013164879
FINAL SINGLE POINT ENERGY     -1339.871851511201

DIPOLE MOMENT
-------------
                                X             Y             Z
Electronic contribution:     12.66325      -5.23713       4.59642
Nuclear contribution   :    -12.89024       5.21970      -4.49016
                        -----------------------------------------
Total Dipole Moment    :     -0.22699      -0.01743       0.10626
                        -----------------------------------------
Magnitude (a.u.)       :      0.25124
Magnitude (Debye)      :      0.63859

Rotational constants in cm-1:     0.023169     0.006801     0.005560
Rotational constants in MHz :   694.579945   203.895809   166.671977

                             ****ORCA TERMINATED NORMALLY****
TOTAL RUN TIME: 0 days 0 hours 0 minutes 21 seconds 212 msec
