                         Program Version 4.2.1 -  RELEASE  -
|  1> ! wB97X-D3 SP def2-SVP
|  2> %pal
|  3> nprocs 24
|  4> end
|  5>
|  6> * xyz 0 1
|  7> S 	 -81.7495 	 -16.1155 	 -54.7098
|  8> C 	 -83.3787 	 -15.3733 	 -54.4629
|  9> C 	 -84.1577 	 -15.665 	 -55.6005
| 10> C 	 -83.5441 	 -16.598 	 -56.4688
| 11> C 	 -82.2584 	 -17.0093 	 -56.1288
| 12> H 	 -84.0062 	 -16.8254 	 -57.4139
| 13> C 	 -85.5306 	 -15.0435 	 -55.8445
| 14> H 	 -85.8097 	 -15.5024 	 -56.8361
| 15> H 	 -85.6033 	 -14.0225 	 -56.1165
| 16> C 	 -86.5513 	 -15.2772 	 -54.7031
| 17> H 	 -86.3304 	 -16.3443 	 -54.4102
| 18> H 	 -86.257 	 -14.7071 	 -53.8193
| 19> C 	 -87.9347 	 -14.9196 	 -55.2421
| 20> H 	 -88.3404 	 -15.5388 	 -56.0924
| 21> H 	 -88.64 	 -14.9898 	 -54.43
| 22> H 	 -87.9347 	 -13.8363 	 -55.532
| 23> S 	 -79.7147 	 -17.6822 	 -56.9609
| 24> C 	 -79.468 	 -18.8229 	 -58.2756
| 25> C 	 -80.6286 	 -19.5682 	 -58.4027
| 26> C 	 -81.7711 	 -19.1106 	 -57.6101
| 27> C 	 -81.4344 	 -18.0039 	 -56.8679
| 28> H 	 -80.7292 	 -20.4168 	 -59.1203
| 29> C 	 -83.1495 	 -19.7006 	 -57.8375
| 30> H 	 -83.6576 	 -19.2128 	 -58.6274
| 31> H 	 -83.7537 	 -19.4211 	 -57.0058
| 32> C 	 -83.2547 	 -21.2271 	 -58.0019
| 33> H 	 -82.8743 	 -21.4872 	 -58.998
| 34> H 	 -84.2969 	 -21.5037 	 -58.0206
| 35> C 	 -82.6368 	 -21.9838 	 -56.876
| 36> H 	 -81.5033 	 -22.1215 	 -56.949
| 37> H 	 -83.0711 	 -23.0138 	 -56.9257
| 38> H 	 -83.0385 	 -21.5813 	 -55.9778
| 39> H 	 -83.6505 	 -14.7371 	 -53.6587
| 40> H 	 -78.4539 	 -19.1827 	 -58.6074
| 41> *
| 42>
| 43>                          ****END OF INPUT****

CARTESIAN COORDINATES (ANGSTROEM)
---------------------------------
  S    -81.749500  -16.115500  -54.709800
  C    -83.378700  -15.373300  -54.462900
  C    -84.157700  -15.665000  -55.600500
  C    -83.544100  -16.598000  -56.468800
  C    -82.258400  -17.009300  -56.128800
  H    -84.006200  -16.825400  -57.413900
  C    -85.530600  -15.043500  -55.844500
  H    -85.809700  -15.502400  -56.836100
  H    -85.603300  -14.022500  -56.116500
  C    -86.551300  -15.277200  -54.703100
  H    -86.330400  -16.344300  -54.410200
  H    -86.257000  -14.707100  -53.819300
  C    -87.934700  -14.919600  -55.242100
  H    -88.340400  -15.538800  -56.092400
  H    -88.640000  -14.989800  -54.430000
  H    -87.934700  -13.836300  -55.532000
  S    -79.714700  -17.682200  -56.960900
  C    -79.468000  -18.822900  -58.275600
  C    -80.628600  -19.568200  -58.402700
  C    -81.771100  -19.110600  -57.610100
  C    -81.434400  -18.003900  -56.867900
  H    -80.729200  -20.416800  -59.120300
  C    -83.149500  -19.700600  -57.837500
  H    -83.657600  -19.212800  -58.627400
  H    -83.753700  -19.421100  -57.005800
  C    -83.254700  -21.227100  -58.001900
  H    -82.874300  -21.487200  -58.998000
  H    -84.296900  -21.503700  -58.020600
  C    -82.636800  -21.983800  -56.876000
  H    -81.503300  -22.121500  -56.949000
  H    -83.071100  -23.013800  -56.925700
  H    -83.038500  -21.581300  -55.977800
  H    -83.650500  -14.737100  -53.658700
  H    -78.453900  -19.182700  -58.607400

 Total Charge           Charge          ....    0
 Multiplicity           Mult            ....    1
 Number of Electrons    NEL             ....  134
 Basis Dimension        Dim             ....  322

ORBITAL ENERGIES
----------------

  NO   OCC          E(Eh)            E(eV)
   0   2.0000     -88.969011     -2420.9699
   1   2.0000     -88.962052     -2420.7805
   2   2.0000     -10.337584      -281.3000
   3   2.0000     -10.333049      -281.1766
   4   2.0000     -10.324238      -280.9368
   5   2.0000     -10.320244      -280.8281
   6   2.0000     -10.306901      -280.4650
   7   2.0000     -10.304298      -280.3942
   8   2.0000     -10.301573      -280.3201
   9   2.0000     -10.294323      -280.1228
  10   2.0000     -10.294226      -280.1201
  11   2.0000     -10.291919      -280.0574
  12   2.0000     -10.288385      -279.9612
  13   2.0000     -10.285230      -279.8753
  14   2.0000     -10.284465      -279.8545
  15   2.0000     -10.278339      -279.6878
  16   2.0000      -8.082540      -219.9371
  17   2.0000      -8.077050      -219.7877
  18   2.0000      -6.041195      -164.3893
  19   2.0000      -6.037147      -164.2791
  20   2.0000      -6.035718      -164.2402
  21   2.0000      -6.033278      -164.1738
  22   2.0000      -6.031563      -164.1272
  23   2.0000      -6.027576      -164.0187
  24   2.0000      -1.003329       -27.3020
  25   2.0000      -0.980496       -26.6807
  26   2.0000      -0.915075       -24.9004
  27   2.0000      -0.911187       -24.7947
  28   2.0000      -0.866052       -23.5665
  29   2.0000      -0.852054       -23.1856
  30   2.0000      -0.841119       -22.8880
  31   2.0000      -0.812902       -22.1202
  32   2.0000      -0.783445       -21.3186
  33   2.0000      -0.772384       -21.0176
  34   2.0000      -0.709684       -19.3115
  35   2.0000      -0.700563       -19.0633
  36   2.0000      -0.691908       -18.8278
  37   2.0000      -0.656020       -17.8512
  38   2.0000      -0.640348       -17.4248
  39   2.0000      -0.621845       -16.9213
  40   2.0000      -0.599027       -16.3004
  41   2.0000      -0.567098       -15.4315
  42   2.0000      -0.560246       -15.2451
  43   2.0000      -0.558660       -15.2019
  44   2.0000      -0.542327       -14.7575
  45   2.0000      -0.520630       -14.1671
  46   2.0000      -0.517055       -14.0698
  47   2.0000      -0.515321       -14.0226
  48   2.0000      -0.507417       -13.8075
  49   2.0000      -0.497416       -13.5354
  50   2.0000      -0.488342       -13.2885
  51   2.0000      -0.477493       -12.9932
  52   2.0000      -0.472327       -12.8527
  53   2.0000      -0.467451       -12.7200
  54   2.0000      -0.460760       -12.5379
  55   2.0000      -0.451295       -12.2804
  56   2.0000      -0.442534       -12.0420
  57   2.0000      -0.435987       -11.8638
  58   2.0000      -0.429731       -11.6936
  59   2.0000      -0.423922       -11.5355
  60   2.0000      -0.418730       -11.3942
  61   2.0000      -0.412385       -11.2216
  62   2.0000      -0.408320       -11.1110
  63   2.0000      -0.353836        -9.6284
  64   2.0000      -0.331909        -9.0317
  65   2.0000      -0.325894        -8.8680
  66   2.0000      -0.289710        -7.8834
  67   0.0000       0.019462         0.5296
  68   0.0000       0.070955         1.9308
  69   0.0000       0.099315         2.7025
  70   0.0000       0.118281         3.2186
  71   0.0000       0.135778         3.6947

MULLIKEN ATOMIC CHARGES
-----------------------
   0 S :    0.101027
   1 C :   -0.121914
   2 C :   -0.081185
   3 C :    0.001909
   4 C :   -0.101049
   5 H :    0.010490
   6 C :    0.056192
   7 H :    0.010317
   8 H :    0.023318
   9 C :   -0.100573
  10 H :    0.044283
  11 H :    0.036910
  12 C :   -0.050333
  13 H :    0.051508
  14 H :    0.029620
  15 H :    0.036123
  16 S :    0.084318
  17 C :   -0.098340
  18 C :   -0.062454
  19 C :   -0.056301
  20 C :   -0.137395
  21 H :    0.035342
  22 C :    0.075979
  23 H :    0.031189
  24 H :    0.011058
  25 C :   -0.074486
  26 H :    0.022860
  27 H :    0.022560
  28 C :   -0.043787
  29 H :    0.056817
  30 H :    0.028325
  31 H :    0.027616
  32 H :    0.044244
  33 H :    0.085810
Sum of atomic charges:    0.0000000

LOEWDIN ATOMIC CHARGES
----------------------
   0 S :    0.388776
   1 C :   -0.176089
   2 C :   -0.061315
   3 C :   -0.072193
   4 C :   -0.186743
   5 H :    0.028693
   6 C :   -0.036507
   7 H :    0.030954
   8 H :    0.022644
   9 C :   -0.044002
  10 H :    0.030969
  11 H :    0.024666
  12 C :   -0.069619
  13 H :    0.035015
  14 H :    0.022714
  15 H :    0.032320
  16 S :    0.391438
  17 C :   -0.196256
  18 C :   -0.071999
  19 C :   -0.057917
  20 C :   -0.185222
  21 H :    0.034428
  22 C :   -0.032890
  23 H :    0.027971
  24 H :    0.025848
  25 C :   -0.042737
  26 H :    0.018936
  27 H :    0.026900
  28 C :   -0.068200
  29 H :    0.036835
  30 H :    0.030825
  31 H :    0.023852
  32 H :    0.022566
  33 H :    0.045336

  Mayer bond orders larger than 0.100000
B(  0-S ,  1-C ) :   1.1344 B(  0-S ,  4-C ) :   1.1565 B(  1-C ,  2-C ) :   1.5616
B(  1-C ,  4-C ) :   0.1091 B(  1-C , 32-H ) :   0.9812 B(  2-C ,  3-C ) :   1.2936
B(  2-C ,  6-C ) :   1.0099 B(  3-C ,  4-C ) :   1.5323 B(  3-C ,  5-H ) :   0.9889
B(  4-C , 20-C ) :   1.0392 B(  6-C ,  7-H ) :   0.9477 B(  6-C ,  8-H ) :   0.9390
B(  6-C ,  9-C ) :   1.0441 B(  9-C , 10-H ) :   0.9619 B(  9-C , 11-H ) :   0.9522
B(  9-C , 12-C ) :   1.0770 B( 12-C , 13-H ) :   0.9764 B( 12-C , 14-H ) :   0.9732
B( 12-C , 15-H ) :   0.9691 B( 16-S , 17-C ) :   1.1392 B( 16-S , 20-C ) :   1.1341
B( 17-C , 18-C ) :   1.6238 B( 17-C , 33-H ) :   0.9576 B( 18-C , 19-C ) :   1.2252
B( 18-C , 21-H ) :   0.9773 B( 19-C , 20-C ) :   1.6146 B( 19-C , 22-C ) :   1.0368
B( 22-C , 23-H ) :   0.9311 B( 22-C , 24-H ) :   0.9248 B( 22-C , 25-C ) :   1.0837
B( 25-C , 26-H ) :   0.9477 B( 25-C , 27-H ) :   0.9519 B( 25-C , 28-C ) :   1.0883
B( 28-C , 29-H ) :   0.9689 B( 28-C , 30-H ) :   0.9725 B( 28-C , 31-H ) :   0.9715

Dispersion correction           -0.013757931
FINAL SINGLE POINT ENERGY     -1339.868282880057

DIPOLE MOMENT
-------------
                                X             Y             Z
Electronic contribution:     26.99731       7.99310       2.89424
Nuclear contribution   :    -27.76608      -8.17999      -3.17656
                        -----------------------------------------
Total Dipole Moment    :     -0.76876      -0.18689      -0.28232
                        -----------------------------------------
Magnitude (a.u.)       :      0.84002
Magnitude (Debye)      :      2.13516

Rotational constants in cm-1:     0.019879     0.007716     0.006068
Rotational constants in MHz :   595.968222   231.309793   181.904330

                             ****ORCA TERMINATED NORMALLY****
TOTAL RUN TIME: 0 days 0 hours 0 minutes 21 seconds 182 msec
