                         Program Version 4.2.1 -  RELEASE  -
|  1> ! wB97X-D3 SP def2-SVP
|  2> %pal
|  3> nprocs 24
|  4> end
|  5>
|  6> * xyz 0 1
|  7> S 	 -115.906 	 19.8995 	 -112.724
|  8> C 	 -117.64 	 19.9273 	 -112.731
|  9> C 	 -118.203 	 18.734 	 -112.347
| 10> C 	 -117.213 	 17.7683 	 -111.92
| 11> C 	 -115.872 	 18.3011 	 -111.942
| 12> H 	 -117.316 	 16.7782 	 -111.467
| 13> C 	 -119.671 	 18.4614 	 -112.33
| 14> H 	 -120.214 	 19.3812 	 -112.214
| 15> H 	 -119.987 	 17.8987 	 -111.465
| 16> C 	 -120.19 	 17.7859 	 -113.623
| 17> H 	 -119.865 	 18.3576 	 -114.441
| 18> H 	 -119.593 	 16.8052 	 -113.777
| 19> C 	 -121.69 	 17.5327 	 -113.685
| 20> H 	 -122.039 	 16.9261 	 -112.885
| 21> H 	 -122.214 	 18.4548 	 -113.757
| 22> H 	 -121.967 	 16.9831 	 -114.529
| 23> S 	 -113.468 	 18.852 	 -110.79
| 24> C 	 -112.495 	 17.4847 	 -110.182
| 25> C 	 -112.84 	 16.3082 	 -110.825
| 26> C 	 -114.072 	 16.4082 	 -111.513
| 27> C 	 -114.602 	 17.7183 	 -111.466
| 28> H 	 -112.242 	 15.3898 	 -110.707
| 29> C 	 -114.707 	 15.1544 	 -112.121
| 30> H 	 -115.611 	 15.4908 	 -112.515
| 31> H 	 -115.022 	 14.5635 	 -111.237
| 32> C 	 -113.945 	 14.4307 	 -113.202
| 33> H 	 -114.215 	 13.4276 	 -113.04
| 34> H 	 -112.905 	 14.1126 	 -112.862
| 35> C 	 -113.96 	 15.0628 	 -114.579
| 36> H 	 -113.332 	 14.4203 	 -115.281
| 37> H 	 -113.615 	 16.1312 	 -114.648
| 38> H 	 -114.862 	 15.0342 	 -115.171
| 39> H 	 -118.254 	 20.7007 	 -112.993
| 40> H 	 -111.543 	 17.6733 	 -109.701
| 41> *
| 42>
| 43>                          ****END OF INPUT****

CARTESIAN COORDINATES (ANGSTROEM)
---------------------------------
  S    -115.906000   19.899500  -112.724000
  C    -117.640000   19.927300  -112.731000
  C    -118.203000   18.734000  -112.347000
  C    -117.213000   17.768300  -111.920000
  C    -115.872000   18.301100  -111.942000
  H    -117.316000   16.778200  -111.467000
  C    -119.671000   18.461400  -112.330000
  H    -120.214000   19.381200  -112.214000
  H    -119.987000   17.898700  -111.465000
  C    -120.190000   17.785900  -113.623000
  H    -119.865000   18.357600  -114.441000
  H    -119.593000   16.805200  -113.777000
  C    -121.690000   17.532700  -113.685000
  H    -122.039000   16.926100  -112.885000
  H    -122.214000   18.454800  -113.757000
  H    -121.967000   16.983100  -114.529000
  S    -113.468000   18.852000  -110.790000
  C    -112.495000   17.484700  -110.182000
  C    -112.840000   16.308200  -110.825000
  C    -114.072000   16.408200  -111.513000
  C    -114.602000   17.718300  -111.466000
  H    -112.242000   15.389800  -110.707000
  C    -114.707000   15.154400  -112.121000
  H    -115.611000   15.490800  -112.515000
  H    -115.022000   14.563500  -111.237000
  C    -113.945000   14.430700  -113.202000
  H    -114.215000   13.427600  -113.040000
  H    -112.905000   14.112600  -112.862000
  C    -113.960000   15.062800  -114.579000
  H    -113.332000   14.420300  -115.281000
  H    -113.615000   16.131200  -114.648000
  H    -114.862000   15.034200  -115.171000
  H    -118.254000   20.700700  -112.993000
  H    -111.543000   17.673300  -109.701000

 Total Charge           Charge          ....    0
 Multiplicity           Mult            ....    1
 Number of Electrons    NEL             ....  134
 Basis Dimension        Dim             ....  322

ORBITAL ENERGIES
----------------

  NO   OCC          E(Eh)            E(eV)
   0   2.0000     -88.966979     -2420.9146
   1   2.0000     -88.964732     -2420.8534
   2   2.0000     -10.338065      -281.3131
   3   2.0000     -10.330769      -281.1145
   4   2.0000     -10.318515      -280.7811
   5   2.0000     -10.305167      -280.4178
   6   2.0000     -10.304344      -280.3955
   7   2.0000     -10.301640      -280.3219
   8   2.0000     -10.301349      -280.3140
   9   2.0000     -10.296586      -280.1844
  10   2.0000     -10.290611      -280.0218
  11   2.0000     -10.288220      -279.9567
  12   2.0000     -10.287068      -279.9254
  13   2.0000     -10.286608      -279.9128
  14   2.0000     -10.286415      -279.9076
  15   2.0000     -10.268556      -279.4216
  16   2.0000      -8.081299      -219.9033
  17   2.0000      -8.079324      -219.8496
  18   2.0000      -6.039879      -164.3535
  19   2.0000      -6.037780      -164.2963
  20   2.0000      -6.035885      -164.2448
  21   2.0000      -6.034088      -164.1959
  22   2.0000      -6.032005      -164.1392
  23   2.0000      -6.029901      -164.0820
  24   2.0000      -1.001002       -27.2386
  25   2.0000      -0.979832       -26.6626
  26   2.0000      -0.913474       -24.8569
  27   2.0000      -0.909826       -24.7576
  28   2.0000      -0.868087       -23.6219
  29   2.0000      -0.848610       -23.0918
  30   2.0000      -0.845501       -23.0073
  31   2.0000      -0.812911       -22.1204
  32   2.0000      -0.785329       -21.3699
  33   2.0000      -0.775168       -21.0934
  34   2.0000      -0.716525       -19.4976
  35   2.0000      -0.702611       -19.1190
  36   2.0000      -0.699030       -19.0216
  37   2.0000      -0.659351       -17.9418
  38   2.0000      -0.642547       -17.4846
  39   2.0000      -0.613288       -16.6884
  40   2.0000      -0.593957       -16.1624
  41   2.0000      -0.571059       -15.5393
  42   2.0000      -0.565323       -15.3832
  43   2.0000      -0.557530       -15.1712
  44   2.0000      -0.528172       -14.3723
  45   2.0000      -0.519283       -14.1304
  46   2.0000      -0.516561       -14.0563
  47   2.0000      -0.509687       -13.8693
  48   2.0000      -0.507158       -13.8005
  49   2.0000      -0.503481       -13.7004
  50   2.0000      -0.491297       -13.3689
  51   2.0000      -0.480011       -13.0618
  52   2.0000      -0.470882       -12.8133
  53   2.0000      -0.465874       -12.6771
  54   2.0000      -0.457620       -12.4525
  55   2.0000      -0.449667       -12.2361
  56   2.0000      -0.447256       -12.1705
  57   2.0000      -0.441887       -12.0244
  58   2.0000      -0.433391       -11.7932
  59   2.0000      -0.429906       -11.6983
  60   2.0000      -0.421885       -11.4801
  61   2.0000      -0.413603       -11.2547
  62   2.0000      -0.395042       -10.7496
  63   2.0000      -0.351445        -9.5633
  64   2.0000      -0.330908        -9.0045
  65   2.0000      -0.326936        -8.8964
  66   2.0000      -0.282439        -7.6856
  67   0.0000       0.019797         0.5387
  68   0.0000       0.069573         1.8932
  69   0.0000       0.105313         2.8657
  70   0.0000       0.121821         3.3149
  71   0.0000       0.130097         3.5401

MULLIKEN ATOMIC CHARGES
-----------------------
   0 S :    0.104186
   1 C :   -0.062156
   2 C :   -0.090951
   3 C :    0.026575
   4 C :   -0.163465
   5 H :    0.022772
   6 C :    0.086493
   7 H :    0.004592
   8 H :    0.018674
   9 C :   -0.097568
  10 H :    0.011126
  11 H :    0.027969
  12 C :    0.023088
  13 H :    0.020835
  14 H :    0.023264
  15 H :    0.016134
  16 S :    0.096805
  17 C :   -0.092648
  18 C :   -0.042543
  19 C :   -0.059298
  20 C :   -0.155425
  21 H :    0.032654
  22 C :    0.091659
  23 H :   -0.012556
  24 H :    0.040270
  25 C :   -0.023625
  26 H :    0.000341
  27 H :    0.011539
  28 C :   -0.047166
  29 H :    0.032874
  30 H :    0.060199
  31 H :    0.030707
  32 H :    0.004822
  33 H :    0.059820
Sum of atomic charges:    0.0000000

LOEWDIN ATOMIC CHARGES
----------------------
   0 S :    0.396440
   1 C :   -0.190069
   2 C :   -0.057398
   3 C :   -0.068390
   4 C :   -0.180136
   5 H :    0.032160
   6 C :   -0.031499
   7 H :    0.025770
   8 H :    0.027777
   9 C :   -0.037680
  10 H :    0.014604
  11 H :    0.028937
  12 C :   -0.056899
  13 H :    0.023064
  14 H :    0.023247
  15 H :    0.022919
  16 S :    0.395199
  17 C :   -0.174165
  18 C :   -0.066371
  19 C :   -0.055808
  20 C :   -0.205794
  21 H :    0.036879
  22 C :   -0.029796
  23 H :    0.019116
  24 H :    0.039387
  25 C :   -0.055387
  26 H :    0.026345
  27 H :    0.032560
  28 C :   -0.073106
  29 H :    0.036832
  30 H :    0.039780
  31 H :    0.025020
  32 H :    0.011198
  33 H :    0.025262

  Mayer bond orders larger than 0.100000
B(  0-S ,  1-C ) :   1.1261 B(  0-S ,  4-C ) :   1.1512 B(  1-C ,  2-C ) :   1.6231
B(  1-C , 32-H ) :   0.9727 B(  2-C ,  3-C ) :   1.2277 B(  2-C ,  6-C ) :   1.0414
B(  3-C ,  4-C ) :   1.5601 B(  3-C ,  5-H ) :   0.9866 B(  4-C , 20-C ) :   1.0627
B(  6-C ,  7-H ) :   0.9344 B(  6-C ,  8-H ) :   0.9392 B(  6-C ,  9-C ) :   1.0538
B(  9-C , 10-H ) :   0.9551 B(  9-C , 11-H ) :   0.9559 B(  9-C , 12-C ) :   1.0868
B( 12-C , 13-H ) :   0.9722 B( 12-C , 14-H ) :   0.9716 B( 12-C , 15-H ) :   0.9686
B( 16-S , 17-C ) :   1.1457 B( 16-S , 20-C ) :   1.1479 B( 17-C , 18-C ) :   1.6037
B( 17-C , 20-C ) :   0.1059 B( 17-C , 33-H ) :   0.9670 B( 18-C , 19-C ) :   1.2512
B( 18-C , 21-H ) :   0.9844 B( 19-C , 20-C ) :   1.5503 B( 19-C , 22-C ) :   1.0270
B( 22-C , 23-H ) :   0.9211 B( 22-C , 24-H ) :   0.9339 B( 22-C , 25-C ) :   1.0790
B( 25-C , 26-H ) :   0.9374 B( 25-C , 27-H ) :   0.9447 B( 25-C , 28-C ) :   1.0592
B( 28-C , 29-H ) :   0.9694 B( 28-C , 30-H ) :   0.9748 B( 28-C , 31-H ) :   0.9736

Dispersion correction           -0.013804276
FINAL SINGLE POINT ENERGY     -1339.852907440114

DIPOLE MOMENT
-------------
                                X             Y             Z
Electronic contribution:     17.55737      18.69985      11.82175
Nuclear contribution   :    -17.85146     -19.36271     -11.98380
                        -----------------------------------------
Total Dipole Moment    :     -0.29409      -0.66286      -0.16206
                        -----------------------------------------
Magnitude (a.u.)       :      0.74306
Magnitude (Debye)      :      1.88870

Rotational constants in cm-1:     0.019539     0.007947     0.006345
Rotational constants in MHz :   585.761527   238.259573   190.221271

                             ****ORCA TERMINATED NORMALLY****
TOTAL RUN TIME: 0 days 0 hours 0 minutes 21 seconds 154 msec
