                         Program Version 4.2.1 -  RELEASE  -
|  1> ! wB97X-D3 SP def2-SVP
|  2> %pal
|  3> nprocs 24
|  4> end
|  5>
|  6> * xyz 0 1
|  7> S 	 -101.523 	 46.9007 	 -101.632
|  8> C 	 -101.531 	 48.7035 	 -101.584
|  9> C 	 -100.418 	 49.1642 	 -100.91
| 10> C 	 -99.6401 	 48.1152 	 -100.273
| 11> C 	 -100.209 	 46.8472 	 -100.529
| 12> H 	 -98.7619 	 48.1512 	 -99.5992
| 13> C 	 -100.021 	 50.6509 	 -100.787
| 14> H 	 -99.5858 	 50.9092 	 -99.8463
| 15> H 	 -100.932 	 51.2919 	 -100.811
| 16> C 	 -99.1066 	 51.2357 	 -101.833
| 17> H 	 -99.5036 	 51.0582 	 -102.854
| 18> H 	 -99.0789 	 52.3005 	 -101.62
| 19> C 	 -97.7079 	 50.7228 	 -101.799
| 20> H 	 -97.1747 	 51.0655 	 -100.924
| 21> H 	 -97.7155 	 49.6089 	 -101.804
| 22> H 	 -97.1862 	 51.0227 	 -102.714
| 23> S 	 -100.653 	 44.6998 	 -99.045
| 24> C 	 -99.3719 	 43.471 	 -98.8793
| 25> C 	 -98.2862 	 43.7374 	 -99.6082
| 26> C 	 -98.4171 	 45.0195 	 -100.331
| 27> C 	 -99.6282 	 45.6112 	 -100.093
| 28> H 	 -97.4917 	 43.0417 	 -99.6236
| 29> C 	 -97.2885 	 45.629 	 -101.138
| 30> H 	 -96.3365 	 45.1606 	 -100.939
| 31> H 	 -97.1091 	 46.669 	 -100.762
| 32> C 	 -97.6223 	 45.7292 	 -102.638
| 33> H 	 -97.0857 	 46.5623 	 -103.153
| 34> H 	 -98.6478 	 45.8956 	 -102.764
| 35> C 	 -97.2884 	 44.4621 	 -103.435
| 36> H 	 -97.3928 	 44.7208 	 -104.475
| 37> H 	 -97.9279 	 43.652 	 -103.289
| 38> H 	 -96.2712 	 44.1346 	 -103.409
| 39> H 	 -102.112 	 49.3638 	 -102.251
| 40> H 	 -99.3822 	 42.7463 	 -98.0669
| 41> *
| 42>
| 43>                          ****END OF INPUT****

CARTESIAN COORDINATES (ANGSTROEM)
---------------------------------
  S    -101.523000   46.900700  -101.632000
  C    -101.531000   48.703500  -101.584000
  C    -100.418000   49.164200  -100.910000
  C    -99.640100   48.115200  -100.273000
  C    -100.209000   46.847200  -100.529000
  H    -98.761900   48.151200  -99.599200
  C    -100.021000   50.650900  -100.787000
  H    -99.585800   50.909200  -99.846300
  H    -100.932000   51.291900  -100.811000
  C    -99.106600   51.235700  -101.833000
  H    -99.503600   51.058200  -102.854000
  H    -99.078900   52.300500  -101.620000
  C    -97.707900   50.722800  -101.799000
  H    -97.174700   51.065500  -100.924000
  H    -97.715500   49.608900  -101.804000
  H    -97.186200   51.022700  -102.714000
  S    -100.653000   44.699800  -99.045000
  C    -99.371900   43.471000  -98.879300
  C    -98.286200   43.737400  -99.608200
  C    -98.417100   45.019500  -100.331000
  C    -99.628200   45.611200  -100.093000
  H    -97.491700   43.041700  -99.623600
  C    -97.288500   45.629000  -101.138000
  H    -96.336500   45.160600  -100.939000
  H    -97.109100   46.669000  -100.762000
  C    -97.622300   45.729200  -102.638000
  H    -97.085700   46.562300  -103.153000
  H    -98.647800   45.895600  -102.764000
  C    -97.288400   44.462100  -103.435000
  H    -97.392800   44.720800  -104.475000
  H    -97.927900   43.652000  -103.289000
  H    -96.271200   44.134600  -103.409000
  H    -102.112000   49.363800  -102.251000
  H    -99.382200   42.746300  -98.066900

 Total Charge           Charge          ....    0
 Multiplicity           Mult            ....    1
 Number of Electrons    NEL             ....  134
 Basis Dimension        Dim             ....  322

ORBITAL ENERGIES
----------------

  NO   OCC          E(Eh)            E(eV)
   0   2.0000     -88.971154     -2421.0282
   1   2.0000     -88.960036     -2420.7256
   2   2.0000     -10.328749      -281.0596
   3   2.0000     -10.320218      -280.8274
   4   2.0000     -10.319905      -280.8189
   5   2.0000     -10.313768      -280.6519
   6   2.0000     -10.309624      -280.5391
   7   2.0000     -10.306265      -280.4477
   8   2.0000     -10.301441      -280.3165
   9   2.0000     -10.292552      -280.0746
  10   2.0000     -10.291479      -280.0454
  11   2.0000     -10.291246      -280.0390
  12   2.0000     -10.282733      -279.8074
  13   2.0000     -10.280316      -279.7416
  14   2.0000     -10.274506      -279.5835
  15   2.0000     -10.262365      -279.2532
  16   2.0000      -8.085199      -220.0094
  17   2.0000      -8.075436      -219.7438
  18   2.0000      -6.043714      -164.4578
  19   2.0000      -6.039809      -164.3516
  20   2.0000      -6.035974      -164.2472
  21   2.0000      -6.033961      -164.1924
  22   2.0000      -6.029945      -164.0832
  23   2.0000      -6.026031      -163.9766
  24   2.0000      -1.009045       -27.4575
  25   2.0000      -0.980381       -26.6775
  26   2.0000      -0.917809       -24.9748
  27   2.0000      -0.905586       -24.6422
  28   2.0000      -0.876192       -23.8424
  29   2.0000      -0.847021       -23.0486
  30   2.0000      -0.844209       -22.9721
  31   2.0000      -0.815607       -22.1938
  32   2.0000      -0.787088       -21.4178
  33   2.0000      -0.773733       -21.0543
  34   2.0000      -0.709400       -19.3038
  35   2.0000      -0.694014       -18.8851
  36   2.0000      -0.690377       -18.7861
  37   2.0000      -0.664206       -18.0740
  38   2.0000      -0.638661       -17.3788
  39   2.0000      -0.609414       -16.5830
  40   2.0000      -0.596803       -16.2398
  41   2.0000      -0.579606       -15.7719
  42   2.0000      -0.552127       -15.0241
  43   2.0000      -0.546885       -14.8815
  44   2.0000      -0.544835       -14.8257
  45   2.0000      -0.535893       -14.5824
  46   2.0000      -0.522674       -14.2227
  47   2.0000      -0.512845       -13.9552
  48   2.0000      -0.499794       -13.6001
  49   2.0000      -0.493226       -13.4214
  50   2.0000      -0.491781       -13.3820
  51   2.0000      -0.485669       -13.2157
  52   2.0000      -0.474611       -12.9148
  53   2.0000      -0.464623       -12.6430
  54   2.0000      -0.457560       -12.4509
  55   2.0000      -0.443147       -12.0586
  56   2.0000      -0.442734       -12.0474
  57   2.0000      -0.434114       -11.8128
  58   2.0000      -0.428975       -11.6730
  59   2.0000      -0.422926       -11.5084
  60   2.0000      -0.420608       -11.4453
  61   2.0000      -0.416381       -11.3303
  62   2.0000      -0.414438       -11.2774
  63   2.0000      -0.345130        -9.3915
  64   2.0000      -0.334872        -9.1123
  65   2.0000      -0.323836        -8.8120
  66   2.0000      -0.300020        -8.1639
  67   0.0000       0.035126         0.9558
  68   0.0000       0.062109         1.6901
  69   0.0000       0.107299         2.9198
  70   0.0000       0.113517         3.0890
  71   0.0000       0.125269         3.4087

MULLIKEN ATOMIC CHARGES
-----------------------
   0 S :    0.121816
   1 C :   -0.121622
   2 C :   -0.076132
   3 C :    0.028115
   4 C :   -0.162788
   5 H :    0.034683
   6 C :    0.056478
   7 H :    0.011492
   8 H :    0.025110
   9 C :   -0.063944
  10 H :    0.025853
  11 H :    0.029238
  12 C :   -0.056264
  13 H :    0.025401
  14 H :    0.034033
  15 H :    0.035444
  16 S :    0.097055
  17 C :   -0.085115
  18 C :   -0.014981
  19 C :   -0.028663
  20 C :   -0.193221
  21 H :    0.007430
  22 C :    0.087441
  23 H :    0.010670
  24 H :    0.026758
  25 C :   -0.056096
  26 H :    0.030225
  27 H :    0.021294
  28 C :   -0.025038
  29 H :    0.015846
  30 H :    0.023901
  31 H :    0.015928
  32 H :    0.060112
  33 H :    0.059543
Sum of atomic charges:   -0.0000000

LOEWDIN ATOMIC CHARGES
----------------------
   0 S :    0.407398
   1 C :   -0.194308
   2 C :   -0.054833
   3 C :   -0.067985
   4 C :   -0.207191
   5 H :    0.039003
   6 C :   -0.033875
   7 H :    0.024795
   8 H :    0.035326
   9 C :   -0.043930
  10 H :    0.024704
  11 H :    0.025722
  12 C :   -0.068964
  13 H :    0.020672
  14 H :    0.027352
  15 H :    0.028685
  16 S :    0.393992
  17 C :   -0.170346
  18 C :   -0.062467
  19 C :   -0.049545
  20 C :   -0.209667
  21 H :    0.028331
  22 C :   -0.033977
  23 H :    0.025561
  24 H :    0.035341
  25 C :   -0.031008
  26 H :    0.028270
  27 H :    0.016738
  28 C :   -0.062093
  29 H :    0.026757
  30 H :    0.016579
  31 H :    0.018978
  32 H :    0.035762
  33 H :    0.030226

  Mayer bond orders larger than 0.100000
B(  0-S ,  1-C ) :   1.1096 B(  0-S ,  4-C ) :   1.1724 B(  1-C ,  2-C ) :   1.6456
B(  1-C , 32-H ) :   0.9614 B(  2-C ,  3-C ) :   1.2080 B(  2-C ,  6-C ) :   1.0182
B(  3-C ,  4-C ) :   1.5694 B(  3-C ,  5-H ) :   0.9890 B(  4-C , 20-C ) :   1.0154
B(  6-C ,  7-H ) :   0.9434 B(  6-C ,  8-H ) :   0.9408 B(  6-C ,  9-C ) :   1.0815
B(  9-C , 10-H ) :   0.9529 B(  9-C , 11-H ) :   0.9505 B(  9-C , 12-C ) :   1.0910
B( 12-C , 13-H ) :   0.9728 B( 12-C , 14-H ) :   0.9720 B( 12-C , 15-H ) :   0.9712
B( 16-S , 17-C ) :   1.1253 B( 16-S , 20-C ) :   1.1386 B( 17-C , 18-C ) :   1.6762
B( 17-C , 33-H ) :   0.9616 B( 18-C , 19-C ) :   1.1775 B( 18-C , 21-H ) :   0.9978
B( 19-C , 20-C ) :   1.6506 B( 19-C , 22-C ) :   1.0449 B( 22-C , 23-H ) :   0.9383
B( 22-C , 24-H ) :   0.9351 B( 22-C , 25-C ) :   1.0568 B( 25-C , 26-H ) :   0.9569
B( 25-C , 27-H ) :   0.9583 B( 25-C , 28-C ) :   1.0847 B( 28-C , 29-H ) :   0.9703
B( 28-C , 30-H ) :   0.9769 B( 28-C , 31-H ) :   0.9745

Dispersion correction           -0.015512918
FINAL SINGLE POINT ENERGY     -1339.879417704738

DIPOLE MOMENT
-------------
                                X             Y             Z
Electronic contribution:    -19.63788     -13.89316      12.40649
Nuclear contribution   :     20.26151      14.23596     -12.51207
                        -----------------------------------------
Total Dipole Moment    :      0.62363       0.34280      -0.10558
                        -----------------------------------------
Magnitude (a.u.)       :      0.71943
Magnitude (Debye)      :      1.82864

Rotational constants in cm-1:     0.019316     0.009443     0.007739
Rotational constants in MHz :   579.075499   283.083450   232.007367

                             ****ORCA TERMINATED NORMALLY****
TOTAL RUN TIME: 0 days 0 hours 0 minutes 22 seconds 701 msec
