                         Program Version 4.2.1 -  RELEASE  -
|  1> ! wB97X-D3 SP def2-SVP
|  2> %pal
|  3> nprocs 24
|  4> end
|  5>
|  6> * xyz 0 1
|  7> S 	 -148.38 	 28.9883 	 -15.8141
|  8> C 	 -146.784 	 28.9648 	 -16.455
|  9> C 	 -145.873 	 29.7831 	 -15.7628
| 10> C 	 -146.499 	 30.4443 	 -14.6773
| 11> C 	 -147.86 	 30.2367 	 -14.5943
| 12> H 	 -146.071 	 30.9876 	 -13.7883
| 13> C 	 -144.386 	 29.6633 	 -15.8476
| 14> H 	 -144.312 	 29.8991 	 -16.9265
| 15> H 	 -144.055 	 28.7014 	 -15.5201
| 16> C 	 -143.486 	 30.6652 	 -15.0828
| 17> H 	 -143.706 	 31.6497 	 -15.3835
| 18> H 	 -143.622 	 30.5692 	 -14.004
| 19> C 	 -141.98 	 30.5149 	 -15.3909
| 20> H 	 -141.427 	 31.4403 	 -15.1442
| 21> H 	 -141.669 	 29.6281 	 -14.8803
| 22> H 	 -141.692 	 30.3297 	 -16.3681
| 23> S 	 -149.799 	 29.5445 	 -12.7976
| 24> C 	 -150.757 	 30.7927 	 -12.0242
| 25> C 	 -150.036 	 31.992 	 -12.0649
| 26> C 	 -148.887 	 31.9247 	 -12.9323
| 27> C 	 -148.738 	 30.7059 	 -13.5415
| 28> H 	 -150.339 	 32.8455 	 -11.4921
| 29> C 	 -147.983 	 33.0758 	 -13.154
| 30> H 	 -148.607 	 33.9508 	 -13.1824
| 31> H 	 -147.467 	 33.1088 	 -14.1082
| 32> C 	 -146.947 	 33.4018 	 -11.9856
| 33> H 	 -146.256 	 34.1243 	 -12.1909
| 34> H 	 -146.462 	 32.4589 	 -11.8773
| 35> C 	 -147.668 	 33.8565 	 -10.6958
| 36> H 	 -146.954 	 34.0888 	 -9.90025
| 37> H 	 -148.277 	 33.0691 	 -10.2275
| 38> H 	 -148.334 	 34.6884 	 -10.9197
| 39> H 	 -146.485 	 28.3322 	 -17.2531
| 40> H 	 -151.666 	 30.5813 	 -11.5216
| 41> *
| 42>
| 43>                          ****END OF INPUT****

CARTESIAN COORDINATES (ANGSTROEM)
---------------------------------
  S    -148.380000   28.988300  -15.814100
  C    -146.784000   28.964800  -16.455000
  C    -145.873000   29.783100  -15.762800
  C    -146.499000   30.444300  -14.677300
  C    -147.860000   30.236700  -14.594300
  H    -146.071000   30.987600  -13.788300
  C    -144.386000   29.663300  -15.847600
  H    -144.312000   29.899100  -16.926500
  H    -144.055000   28.701400  -15.520100
  C    -143.486000   30.665200  -15.082800
  H    -143.706000   31.649700  -15.383500
  H    -143.622000   30.569200  -14.004000
  C    -141.980000   30.514900  -15.390900
  H    -141.427000   31.440300  -15.144200
  H    -141.669000   29.628100  -14.880300
  H    -141.692000   30.329700  -16.368100
  S    -149.799000   29.544500  -12.797600
  C    -150.757000   30.792700  -12.024200
  C    -150.036000   31.992000  -12.064900
  C    -148.887000   31.924700  -12.932300
  C    -148.738000   30.705900  -13.541500
  H    -150.339000   32.845500  -11.492100
  C    -147.983000   33.075800  -13.154000
  H    -148.607000   33.950800  -13.182400
  H    -147.467000   33.108800  -14.108200
  C    -146.947000   33.401800  -11.985600
  H    -146.256000   34.124300  -12.190900
  H    -146.462000   32.458900  -11.877300
  C    -147.668000   33.856500  -10.695800
  H    -146.954000   34.088800   -9.900250
  H    -148.277000   33.069100  -10.227500
  H    -148.334000   34.688400  -10.919700
  H    -146.485000   28.332200  -17.253100
  H    -151.666000   30.581300  -11.521600

 Total Charge           Charge          ....    0
 Multiplicity           Mult            ....    1
 Number of Electrons    NEL             ....  134
 Basis Dimension        Dim             ....  322

ORBITAL ENERGIES
----------------

  NO   OCC          E(Eh)            E(eV)
   0   2.0000     -88.970599     -2421.0131
   1   2.0000     -88.959996     -2420.7245
   2   2.0000     -10.330611      -281.1102
   3   2.0000     -10.322004      -280.8760
   4   2.0000     -10.317323      -280.7486
   5   2.0000     -10.314035      -280.6592
   6   2.0000     -10.301795      -280.3261
   7   2.0000     -10.299820      -280.2723
   8   2.0000     -10.297271      -280.2030
   9   2.0000     -10.296760      -280.1891
  10   2.0000     -10.291457      -280.0448
  11   2.0000     -10.285782      -279.8904
  12   2.0000     -10.285703      -279.8882
  13   2.0000     -10.281838      -279.7830
  14   2.0000     -10.278441      -279.6906
  15   2.0000     -10.273292      -279.5505
  16   2.0000      -8.084426      -219.9884
  17   2.0000      -8.075254      -219.7388
  18   2.0000      -6.042829      -164.4337
  19   2.0000      -6.039167      -164.3341
  20   2.0000      -6.035230      -164.2270
  21   2.0000      -6.033717      -164.1858
  22   2.0000      -6.029810      -164.0795
  23   2.0000      -6.025908      -163.9733
  24   2.0000      -1.006046       -27.3759
  25   2.0000      -0.983154       -26.7530
  26   2.0000      -0.912365       -24.8267
  27   2.0000      -0.906945       -24.6792
  28   2.0000      -0.871869       -23.7248
  29   2.0000      -0.854456       -23.2509
  30   2.0000      -0.845200       -22.9991
  31   2.0000      -0.817088       -22.2341
  32   2.0000      -0.781175       -21.2569
  33   2.0000      -0.770329       -20.9617
  34   2.0000      -0.714543       -19.4437
  35   2.0000      -0.705114       -19.1871
  36   2.0000      -0.693508       -18.8713
  37   2.0000      -0.666487       -18.1360
  38   2.0000      -0.641924       -17.4676
  39   2.0000      -0.614668       -16.7260
  40   2.0000      -0.596981       -16.2447
  41   2.0000      -0.587922       -15.9982
  42   2.0000      -0.562845       -15.3158
  43   2.0000      -0.557320       -15.1655
  44   2.0000      -0.543791       -14.7973
  45   2.0000      -0.528522       -14.3818
  46   2.0000      -0.520709       -14.1692
  47   2.0000      -0.508326       -13.8323
  48   2.0000      -0.501868       -13.6565
  49   2.0000      -0.495084       -13.4719
  50   2.0000      -0.493658       -13.4331
  51   2.0000      -0.484625       -13.1873
  52   2.0000      -0.474533       -12.9127
  53   2.0000      -0.470429       -12.8010
  54   2.0000      -0.462848       -12.5947
  55   2.0000      -0.442856       -12.0507
  56   2.0000      -0.438843       -11.9415
  57   2.0000      -0.434113       -11.8128
  58   2.0000      -0.432345       -11.7647
  59   2.0000      -0.424242       -11.5442
  60   2.0000      -0.423061       -11.5121
  61   2.0000      -0.418485       -11.3876
  62   2.0000      -0.415307       -11.3011
  63   2.0000      -0.352042        -9.5796
  64   2.0000      -0.329717        -8.9721
  65   2.0000      -0.324199        -8.8219
  66   2.0000      -0.284524        -7.7423
  67   0.0000       0.019826         0.5395
  68   0.0000       0.070598         1.9211
  69   0.0000       0.099577         2.7096
  70   0.0000       0.128370         3.4931
  71   0.0000       0.128915         3.5079

MULLIKEN ATOMIC CHARGES
-----------------------
   0 S :    0.123973
   1 C :   -0.114818
   2 C :   -0.054706
   3 C :   -0.023970
   4 C :   -0.138887
   5 H :    0.044818
   6 C :    0.037248
   7 H :    0.040157
   8 H :    0.042528
   9 C :   -0.080105
  10 H :    0.013617
  11 H :    0.038522
  12 C :   -0.015927
  13 H :    0.040666
  14 H :    0.021417
  15 H :    0.005910
  16 S :    0.091534
  17 C :   -0.090349
  18 C :   -0.018301
  19 C :   -0.027467
  20 C :   -0.156218
  21 H :    0.015601
  22 C :    0.029481
  23 H :    0.006592
  24 H :    0.032185
  25 C :   -0.012556
  26 H :    0.017821
  27 H :    0.018660
  28 C :   -0.082127
  29 H :    0.035357
  30 H :    0.039386
  31 H :    0.031496
  32 H :    0.037538
  33 H :    0.050925
Sum of atomic charges:   -0.0000000

LOEWDIN ATOMIC CHARGES
----------------------
   0 S :    0.400807
   1 C :   -0.196527
   2 C :   -0.070572
   3 C :   -0.064665
   4 C :   -0.176949
   5 H :    0.044930
   6 C :   -0.034522
   7 H :    0.043348
   8 H :    0.030334
   9 C :   -0.036393
  10 H :    0.015290
  11 H :    0.024233
  12 C :   -0.058881
  13 H :    0.034192
  14 H :    0.022707
  15 H :    0.014045
  16 S :    0.397612
  17 C :   -0.175835
  18 C :   -0.062849
  19 C :   -0.062334
  20 C :   -0.196378
  21 H :    0.028084
  22 C :   -0.034294
  23 H :    0.023403
  24 H :    0.031294
  25 C :   -0.021444
  26 H :    0.012811
  27 H :    0.016562
  28 C :   -0.069574
  29 H :    0.027943
  30 H :    0.027040
  31 H :    0.022792
  32 H :    0.021424
  33 H :    0.022366

  Mayer bond orders larger than 0.100000
B(  0-S ,  1-C ) :   1.1589 B(  0-S ,  4-C ) :   1.1299 B(  1-C ,  2-C ) :   1.5852
B(  1-C ,  4-C ) :   0.1024 B(  1-C , 32-H ) :   0.9743 B(  2-C ,  3-C ) :   1.2502
B(  2-C ,  6-C ) :   1.0004 B(  3-C ,  4-C ) :   1.5666 B(  3-C ,  5-H ) :   0.9757
B(  4-C , 20-C ) :   1.0713 B(  6-C ,  7-H ) :   0.9327 B(  6-C ,  8-H ) :   0.9496
B(  6-C ,  9-C ) :   1.0955 B(  9-C , 10-H ) :   0.9576 B(  9-C , 11-H ) :   0.9479
B(  9-C , 12-C ) :   1.0804 B( 12-C , 13-H ) :   0.9750 B( 12-C , 14-H ) :   0.9755
B( 12-C , 15-H ) :   0.9745 B( 16-S , 17-C ) :   1.1505 B( 16-S , 20-C ) :   1.1376
B( 17-C , 18-C ) :   1.5793 B( 17-C , 33-H ) :   0.9786 B( 18-C , 19-C ) :   1.2365
B( 18-C , 21-H ) :   0.9925 B( 19-C , 20-C ) :   1.5880 B( 19-C , 22-C ) :   1.0627
B( 22-C , 23-H ) :   0.9313 B( 22-C , 24-H ) :   0.9359 B( 22-C , 25-C ) :   1.0556
B( 25-C , 26-H ) :   0.9594 B( 25-C , 27-H ) :   0.9519 B( 25-C , 28-C ) :   1.0847
B( 28-C , 29-H ) :   0.9709 B( 28-C , 30-H ) :   0.9702 B( 28-C , 31-H ) :   0.9755

Dispersion correction           -0.014362582
FINAL SINGLE POINT ENERGY     -1339.855633172316

DIPOLE MOMENT
-------------
                                X             Y             Z
Electronic contribution:    -24.65074     -16.46538      -6.07280
Nuclear contribution   :     25.22055      16.77853       6.25455
                        -----------------------------------------
Total Dipole Moment    :      0.56982       0.31315       0.18175
                        -----------------------------------------
Magnitude (a.u.)       :      0.67512
Magnitude (Debye)      :      1.71601

Rotational constants in cm-1:     0.017705     0.009210     0.006438
Rotational constants in MHz :   530.789110   276.107573   193.006883

                             ****ORCA TERMINATED NORMALLY****
TOTAL RUN TIME: 0 days 0 hours 0 minutes 20 seconds 814 msec
