                         Program Version 4.2.1 -  RELEASE  -
|  1> ! wB97X-D3 SP def2-SVP
|  2> %pal
|  3> nprocs 24
|  4> end
|  5>
|  6> * xyz 0 1
|  7> S 	 -117.3 	 31.6882 	 -21.3099
|  8> C 	 -117.037 	 30.8885 	 -22.9085
|  9> C 	 -116.034 	 29.9282 	 -22.8369
| 10> C 	 -115.41 	 30.0248 	 -21.5753
| 11> C 	 -115.819 	 31.0263 	 -20.7384
| 12> H 	 -114.51 	 29.4605 	 -21.3307
| 13> C 	 -115.584 	 28.9641 	 -23.8729
| 14> H 	 -114.73 	 28.5124 	 -23.4885
| 15> H 	 -115.229 	 29.5345 	 -24.7553
| 16> C 	 -116.574 	 27.8522 	 -24.1705
| 17> H 	 -116.739 	 27.2444 	 -23.2362
| 18> H 	 -117.547 	 28.3312 	 -24.2834
| 19> C 	 -116.209 	 26.9941 	 -25.3882
| 20> H 	 -116.038 	 27.5701 	 -26.2776
| 21> H 	 -115.346 	 26.4201 	 -25.077
| 22> H 	 -117.003 	 26.3182 	 -25.5438
| 23> S 	 -116.492 	 32.1469 	 -18.2698
| 24> C 	 -115.411 	 32.0011 	 -16.9481
| 25> C 	 -114.222 	 31.4446 	 -17.3058
| 26> C 	 -114.167 	 31.0773 	 -18.7076
| 27> C 	 -115.336 	 31.2904 	 -19.3999
| 28> H 	 -113.478 	 31.3015 	 -16.5733
| 29> C 	 -112.869 	 30.4098 	 -19.1187
| 30> H 	 -111.94 	 30.7077 	 -18.6063
| 31> H 	 -112.56 	 30.6497 	 -20.1091
| 32> C 	 -112.974 	 28.8889 	 -18.8788
| 33> H 	 -113.772 	 28.5505 	 -19.6243
| 34> H 	 -113.201 	 28.7337 	 -17.838
| 35> C 	 -111.788 	 28.1501 	 -19.3276
| 36> H 	 -111.489 	 28.3496 	 -20.3811
| 37> H 	 -112.079 	 27.1239 	 -19.1256
| 38> H 	 -110.899 	 28.3953 	 -18.7113
| 39> H 	 -117.727 	 30.9622 	 -23.7225
| 40> H 	 -115.629 	 32.3968 	 -15.9867
| 41> *
| 42>
| 43>                          ****END OF INPUT****

CARTESIAN COORDINATES (ANGSTROEM)
---------------------------------
  S    -117.300000   31.688200  -21.309900
  C    -117.037000   30.888500  -22.908500
  C    -116.034000   29.928200  -22.836900
  C    -115.410000   30.024800  -21.575300
  C    -115.819000   31.026300  -20.738400
  H    -114.510000   29.460500  -21.330700
  C    -115.584000   28.964100  -23.872900
  H    -114.730000   28.512400  -23.488500
  H    -115.229000   29.534500  -24.755300
  C    -116.574000   27.852200  -24.170500
  H    -116.739000   27.244400  -23.236200
  H    -117.547000   28.331200  -24.283400
  C    -116.209000   26.994100  -25.388200
  H    -116.038000   27.570100  -26.277600
  H    -115.346000   26.420100  -25.077000
  H    -117.003000   26.318200  -25.543800
  S    -116.492000   32.146900  -18.269800
  C    -115.411000   32.001100  -16.948100
  C    -114.222000   31.444600  -17.305800
  C    -114.167000   31.077300  -18.707600
  C    -115.336000   31.290400  -19.399900
  H    -113.478000   31.301500  -16.573300
  C    -112.869000   30.409800  -19.118700
  H    -111.940000   30.707700  -18.606300
  H    -112.560000   30.649700  -20.109100
  C    -112.974000   28.888900  -18.878800
  H    -113.772000   28.550500  -19.624300
  H    -113.201000   28.733700  -17.838000
  C    -111.788000   28.150100  -19.327600
  H    -111.489000   28.349600  -20.381100
  H    -112.079000   27.123900  -19.125600
  H    -110.899000   28.395300  -18.711300
  H    -117.727000   30.962200  -23.722500
  H    -115.629000   32.396800  -15.986700

 Total Charge           Charge          ....    0
 Multiplicity           Mult            ....    1
 Number of Electrons    NEL             ....  134
 Basis Dimension        Dim             ....  322

ORBITAL ENERGIES
----------------

  NO   OCC          E(Eh)            E(eV)
   0   2.0000     -88.966413     -2420.8992
   1   2.0000     -88.960663     -2420.7427
   2   2.0000     -10.333583      -281.1911
   3   2.0000     -10.327664      -281.0300
   4   2.0000     -10.315820      -280.7077
   5   2.0000     -10.312782      -280.6251
   6   2.0000     -10.306950      -280.4664
   7   2.0000     -10.299502      -280.2637
   8   2.0000     -10.288888      -279.9749
   9   2.0000     -10.288728      -279.9705
  10   2.0000     -10.288611      -279.9673
  11   2.0000     -10.288380      -279.9611
  12   2.0000     -10.286908      -279.9210
  13   2.0000     -10.286469      -279.9090
  14   2.0000     -10.279331      -279.7148
  15   2.0000     -10.275713      -279.6164
  16   2.0000      -8.080901      -219.8925
  17   2.0000      -8.075516      -219.7460
  18   2.0000      -6.039489      -164.3429
  19   2.0000      -6.035692      -164.2395
  20   2.0000      -6.034228      -164.1997
  21   2.0000      -6.031350      -164.1214
  22   2.0000      -6.030052      -164.0861
  23   2.0000      -6.026032      -163.9767
  24   2.0000      -1.008047       -27.4303
  25   2.0000      -0.984436       -26.7879
  26   2.0000      -0.920712       -25.0538
  27   2.0000      -0.918298       -24.9881
  28   2.0000      -0.872471       -23.7411
  29   2.0000      -0.858380       -23.3577
  30   2.0000      -0.845566       -23.0090
  31   2.0000      -0.814590       -22.1661
  32   2.0000      -0.787777       -21.4365
  33   2.0000      -0.777902       -21.1678
  34   2.0000      -0.709041       -19.2940
  35   2.0000      -0.701490       -19.0885
  36   2.0000      -0.689432       -18.7604
  37   2.0000      -0.667585       -18.1659
  38   2.0000      -0.638986       -17.3877
  39   2.0000      -0.622840       -16.9483
  40   2.0000      -0.604814       -16.4578
  41   2.0000      -0.577149       -15.7050
  42   2.0000      -0.572949       -15.5907
  43   2.0000      -0.560656       -15.2562
  44   2.0000      -0.537143       -14.6164
  45   2.0000      -0.530991       -14.4490
  46   2.0000      -0.521399       -14.1880
  47   2.0000      -0.514610       -14.0033
  48   2.0000      -0.511760       -13.9257
  49   2.0000      -0.502742       -13.6803
  50   2.0000      -0.498828       -13.5738
  51   2.0000      -0.476198       -12.9580
  52   2.0000      -0.473611       -12.8876
  53   2.0000      -0.465998       -12.6805
  54   2.0000      -0.459032       -12.4909
  55   2.0000      -0.452907       -12.3242
  56   2.0000      -0.445503       -12.1227
  57   2.0000      -0.439101       -11.9485
  58   2.0000      -0.435334       -11.8460
  59   2.0000      -0.424967       -11.5639
  60   2.0000      -0.418269       -11.3817
  61   2.0000      -0.410029       -11.1575
  62   2.0000      -0.407369       -11.0851
  63   2.0000      -0.361952        -9.8492
  64   2.0000      -0.335527        -9.1302
  65   2.0000      -0.324993        -8.8435
  66   2.0000      -0.282132        -7.6772
  67   0.0000       0.018533         0.5043
  68   0.0000       0.077522         2.1095
  69   0.0000       0.092157         2.5077
  70   0.0000       0.122616         3.3365
  71   0.0000       0.126294         3.4366

MULLIKEN ATOMIC CHARGES
-----------------------
   0 S :    0.088137
   1 C :   -0.113036
   2 C :   -0.087386
   3 C :   -0.025267
   4 C :   -0.073838
   5 H :   -0.001991
   6 C :    0.118558
   7 H :   -0.011433
   8 H :    0.040576
   9 C :   -0.123511
  10 H :    0.034738
  11 H :    0.019299
  12 C :    0.010767
  13 H :    0.033912
  14 H :    0.028949
  15 H :    0.027300
  16 S :    0.068232
  17 C :   -0.054580
  18 C :   -0.023061
  19 C :   -0.031953
  20 C :   -0.117936
  21 H :    0.003286
  22 C :    0.043326
  23 H :    0.011243
  24 H :    0.007200
  25 C :   -0.095697
  26 H :    0.033406
  27 H :    0.031109
  28 C :   -0.025318
  29 H :    0.036194
  30 H :    0.039985
  31 H :    0.024653
  32 H :    0.037433
  33 H :    0.046705
Sum of atomic charges:    0.0000000

LOEWDIN ATOMIC CHARGES
----------------------
   0 S :    0.392874
   1 C :   -0.173955
   2 C :   -0.055545
   3 C :   -0.070885
   4 C :   -0.193010
   5 H :    0.025241
   6 C :   -0.031641
   7 H :    0.018988
   8 H :    0.039709
   9 C :   -0.041876
  10 H :    0.032209
  11 H :    0.017265
  12 C :   -0.054837
  13 H :    0.024893
  14 H :    0.027164
  15 H :    0.023706
  16 S :    0.371249
  17 C :   -0.176349
  18 C :   -0.069515
  19 C :   -0.048625
  20 C :   -0.164815
  21 H :    0.024847
  22 C :   -0.038048
  23 H :    0.029490
  24 H :    0.019697
  25 C :   -0.041131
  26 H :    0.030231
  27 H :    0.024819
  28 C :   -0.068655
  29 H :    0.028458
  30 H :    0.031049
  31 H :    0.022525
  32 H :    0.019513
  33 H :    0.024960

  Mayer bond orders larger than 0.100000
B(  0-S ,  1-C ) :   1.1265 B(  0-S ,  4-C ) :   1.1394 B(  1-C ,  2-C ) :   1.5966
B(  1-C , 32-H ) :   0.9724 B(  2-C ,  3-C ) :   1.2708 B(  2-C ,  6-C ) :   1.0205
B(  3-C ,  4-C ) :   1.5623 B(  3-C ,  5-H ) :   0.9787 B(  4-C , 20-C ) :   1.0901
B(  6-C ,  7-H ) :   0.9267 B(  6-C ,  8-H ) :   0.9339 B(  6-C ,  9-C ) :   1.0569
B(  9-C , 10-H ) :   0.9504 B(  9-C , 11-H ) :   0.9639 B(  9-C , 12-C ) :   1.0787
B( 12-C , 13-H ) :   0.9753 B( 12-C , 14-H ) :   0.9732 B( 12-C , 15-H ) :   0.9718
B( 16-S , 17-C ) :   1.1545 B( 16-S , 20-C ) :   1.0961 B( 17-C , 18-C ) :   1.6279
B( 17-C , 33-H ) :   0.9688 B( 18-C , 19-C ) :   1.2036 B( 18-C , 21-H ) :   1.0007
B( 19-C , 20-C ) :   1.6368 B( 19-C , 22-C ) :   1.0498 B( 22-C , 23-H ) :   0.9364
B( 22-C , 24-H ) :   0.9303 B( 22-C , 25-C ) :   1.0644 B( 25-C , 26-H ) :   0.9506
B( 25-C , 27-H ) :   0.9518 B( 25-C , 28-C ) :   1.0893 B( 28-C , 29-H ) :   0.9709
B( 28-C , 30-H ) :   0.9706 B( 28-C , 31-H ) :   0.9674

Dispersion correction           -0.013786539
FINAL SINGLE POINT ENERGY     -1339.867933665137

DIPOLE MOMENT
-------------
                                X             Y             Z
Electronic contribution:    -16.06540      23.84540      13.24670
Nuclear contribution   :     16.60054     -24.43800     -13.36976
                        -----------------------------------------
Total Dipole Moment    :      0.53514      -0.59260      -0.12307
                        -----------------------------------------
Magnitude (a.u.)       :      0.80790
Magnitude (Debye)      :      2.05351

Rotational constants in cm-1:     0.018556     0.008640     0.006148
Rotational constants in MHz :   556.284725   259.030795   184.310680

                             ****ORCA TERMINATED NORMALLY****
TOTAL RUN TIME: 0 days 0 hours 0 minutes 21 seconds 529 msec
