                         Program Version 4.2.1 -  RELEASE  -
|  1> ! wB97X-D3 SP def2-SVP
|  2> %pal
|  3> nprocs 24
|  4> end
|  5>
|  6> * xyz 0 1
|  7> S 	 -99.4072 	 -3.77491 	 -109.411
|  8> C 	 -100.764 	 -4.9346 	 -109.176
|  9> C 	 -101.682 	 -4.58561 	 -108.207
| 10> C 	 -101.447 	 -3.27526 	 -107.738
| 11> C 	 -100.29 	 -2.70659 	 -108.205
| 12> H 	 -102.127 	 -2.73706 	 -107.124
| 13> C 	 -102.966 	 -5.22961 	 -107.791
| 14> H 	 -103.15 	 -4.96682 	 -106.79
| 15> H 	 -102.768 	 -6.25036 	 -107.808
| 16> C 	 -104.2 	 -5.03074 	 -108.731
| 17> H 	 -103.979 	 -5.2704 	 -109.718
| 18> H 	 -105.021 	 -5.7931 	 -108.431
| 19> C 	 -104.748 	 -3.54284 	 -108.673
| 20> H 	 -104.754 	 -3.23784 	 -107.582
| 21> H 	 -104.063 	 -2.9183 	 -109.251
| 22> H 	 -105.649 	 -3.50693 	 -109.159
| 23> S 	 -100.201 	 -0.136615 	 -109.105
| 24> C 	 -100.033 	 1.14318 	 -107.979
| 25> C 	 -99.6123 	 0.659046 	 -106.755
| 26> C 	 -99.575 	 -0.756576 	 -106.705
| 27> C 	 -99.8507 	 -1.34828 	 -107.922
| 28> H 	 -99.4938 	 1.39846 	 -105.932
| 29> C 	 -99.408 	 -1.39179 	 -105.349
| 30> H 	 -98.6884 	 -0.791754 	 -104.821
| 31> H 	 -98.8578 	 -2.27186 	 -105.476
| 32> C 	 -100.661 	 -1.67986 	 -104.553
| 33> H 	 -101.439 	 -2.2983 	 -105.006
| 34> H 	 -101.109 	 -0.706766 	 -104.431
| 35> C 	 -100.287 	 -2.18467 	 -103.218
| 36> H 	 -99.5109 	 -2.9395 	 -103.24
| 37> H 	 -101.102 	 -2.58414 	 -102.628
| 38> H 	 -99.9157 	 -1.32325 	 -102.677
| 39> H 	 -100.899 	 -5.8805 	 -109.716
| 40> H 	 -100.163 	 2.2435 	 -108.147
| 41> *
| 42>
| 43>                          ****END OF INPUT****

CARTESIAN COORDINATES (ANGSTROEM)
---------------------------------
  S    -99.407200   -3.774910  -109.411000
  C    -100.764000   -4.934600  -109.176000
  C    -101.682000   -4.585610  -108.207000
  C    -101.447000   -3.275260  -107.738000
  C    -100.290000   -2.706590  -108.205000
  H    -102.127000   -2.737060  -107.124000
  C    -102.966000   -5.229610  -107.791000
  H    -103.150000   -4.966820  -106.790000
  H    -102.768000   -6.250360  -107.808000
  C    -104.200000   -5.030740  -108.731000
  H    -103.979000   -5.270400  -109.718000
  H    -105.021000   -5.793100  -108.431000
  C    -104.748000   -3.542840  -108.673000
  H    -104.754000   -3.237840  -107.582000
  H    -104.063000   -2.918300  -109.251000
  H    -105.649000   -3.506930  -109.159000
  S    -100.201000   -0.136615  -109.105000
  C    -100.033000    1.143180  -107.979000
  C    -99.612300    0.659046  -106.755000
  C    -99.575000   -0.756576  -106.705000
  C    -99.850700   -1.348280  -107.922000
  H    -99.493800    1.398460  -105.932000
  C    -99.408000   -1.391790  -105.349000
  H    -98.688400   -0.791754  -104.821000
  H    -98.857800   -2.271860  -105.476000
  C    -100.661000   -1.679860  -104.553000
  H    -101.439000   -2.298300  -105.006000
  H    -101.109000   -0.706766  -104.431000
  C    -100.287000   -2.184670  -103.218000
  H    -99.510900   -2.939500  -103.240000
  H    -101.102000   -2.584140  -102.628000
  H    -99.915700   -1.323250  -102.677000
  H    -100.899000   -5.880500  -109.716000
  H    -100.163000    2.243500  -108.147000

 Total Charge           Charge          ....    0
 Multiplicity           Mult            ....    1
 Number of Electrons    NEL             ....  134
 Basis Dimension        Dim             ....  322

ORBITAL ENERGIES
----------------

  NO   OCC          E(Eh)            E(eV)
   0   2.0000     -88.969125     -2420.9730
   1   2.0000     -88.963136     -2420.8100
   2   2.0000     -10.330882      -281.1176
   3   2.0000     -10.318766      -280.7879
   4   2.0000     -10.318314      -280.7756
   5   2.0000     -10.317099      -280.7425
   6   2.0000     -10.298664      -280.2409
   7   2.0000     -10.295295      -280.1492
   8   2.0000     -10.293845      -280.1098
   9   2.0000     -10.290802      -280.0269
  10   2.0000     -10.288924      -279.9759
  11   2.0000     -10.284454      -279.8542
  12   2.0000     -10.280237      -279.7395
  13   2.0000     -10.279256      -279.7128
  14   2.0000     -10.278119      -279.6818
  15   2.0000     -10.270350      -279.4704
  16   2.0000      -8.081669      -219.9134
  17   2.0000      -8.078990      -219.8405
  18   2.0000      -6.040277      -164.3643
  19   2.0000      -6.037458      -164.2876
  20   2.0000      -6.036757      -164.2685
  21   2.0000      -6.033147      -164.1703
  22   2.0000      -6.032184      -164.1441
  23   2.0000      -6.029900      -164.0819
  24   2.0000      -1.007795       -27.4235
  25   2.0000      -0.980056       -26.6687
  26   2.0000      -0.920950       -25.0603
  27   2.0000      -0.907759       -24.7014
  28   2.0000      -0.865165       -23.5423
  29   2.0000      -0.857195       -23.3255
  30   2.0000      -0.845098       -22.9963
  31   2.0000      -0.812928       -22.1209
  32   2.0000      -0.785025       -21.3616
  33   2.0000      -0.771467       -20.9927
  34   2.0000      -0.709248       -19.2996
  35   2.0000      -0.704938       -19.1823
  36   2.0000      -0.695542       -18.9266
  37   2.0000      -0.658022       -17.9057
  38   2.0000      -0.636593       -17.3226
  39   2.0000      -0.620118       -16.8743
  40   2.0000      -0.597755       -16.2657
  41   2.0000      -0.571548       -15.5526
  42   2.0000      -0.570260       -15.5176
  43   2.0000      -0.550313       -14.9748
  44   2.0000      -0.536821       -14.6076
  45   2.0000      -0.527717       -14.3599
  46   2.0000      -0.517303       -14.0765
  47   2.0000      -0.514792       -14.0082
  48   2.0000      -0.510844       -13.9008
  49   2.0000      -0.490323       -13.3424
  50   2.0000      -0.488661       -13.2971
  51   2.0000      -0.475757       -12.9460
  52   2.0000      -0.470405       -12.8004
  53   2.0000      -0.465956       -12.6793
  54   2.0000      -0.459572       -12.5056
  55   2.0000      -0.446874       -12.1601
  56   2.0000      -0.442423       -12.0389
  57   2.0000      -0.441087       -12.0026
  58   2.0000      -0.436384       -11.8746
  59   2.0000      -0.426750       -11.6125
  60   2.0000      -0.423965       -11.5367
  61   2.0000      -0.415953       -11.3186
  62   2.0000      -0.410881       -11.1806
  63   2.0000      -0.341263        -9.2862
  64   2.0000      -0.329908        -8.9773
  65   2.0000      -0.323976        -8.8158
  66   2.0000      -0.300246        -8.1701
  67   0.0000       0.036629         0.9967
  68   0.0000       0.057566         1.5664
  69   0.0000       0.099713         2.7133
  70   0.0000       0.125962         3.4276
  71   0.0000       0.130523         3.5517

MULLIKEN ATOMIC CHARGES
-----------------------
   0 S :    0.101112
   1 C :   -0.128725
   2 C :   -0.092818
   3 C :    0.040947
   4 C :   -0.164436
   5 H :    0.009520
   6 C :    0.116927
   7 H :    0.012927
   8 H :    0.003740
   9 C :   -0.077957
  10 H :    0.012888
  11 H :    0.040831
  12 C :   -0.043066
  13 H :    0.040122
  14 H :    0.046794
  15 H :    0.022663
  16 S :    0.119411
  17 C :   -0.113840
  18 C :   -0.059119
  19 C :   -0.039381
  20 C :   -0.149632
  21 H :    0.031071
  22 C :    0.088207
  23 H :    0.009476
  24 H :    0.002487
  25 C :   -0.031827
  26 H :    0.022781
  27 H :    0.009988
  28 C :   -0.020295
  29 H :    0.024955
  30 H :    0.027443
  31 H :    0.020612
  32 H :    0.044839
  33 H :    0.071358
Sum of atomic charges:    0.0000000

LOEWDIN ATOMIC CHARGES
----------------------
   0 S :    0.348096
   1 C :   -0.179699
   2 C :   -0.065425
   3 C :   -0.045115
   4 C :   -0.166486
   5 H :    0.026104
   6 C :   -0.024659
   7 H :    0.024336
   8 H :    0.024591
   9 C :   -0.027816
  10 H :    0.011767
  11 H :    0.031212
  12 C :   -0.059983
  13 H :    0.030219
  14 H :    0.030041
  15 H :    0.013124
  16 S :    0.435324
  17 C :   -0.203631
  18 C :   -0.085747
  19 C :   -0.050245
  20 C :   -0.220548
  21 H :    0.036856
  22 C :   -0.026096
  23 H :    0.031264
  24 H :    0.022469
  25 C :   -0.038093
  26 H :    0.022049
  27 H :    0.022281
  28 C :   -0.060387
  29 H :    0.022527
  30 H :    0.024903
  31 H :    0.026077
  32 H :    0.028551
  33 H :    0.042137

  Mayer bond orders larger than 0.100000
B(  0-S ,  1-C ) :   1.1211 B(  0-S ,  4-C ) :   1.1075 B(  1-C ,  2-C ) :   1.6558
B(  1-C , 32-H ) :   0.9581 B(  2-C ,  3-C ) :   1.2070 B(  2-C ,  6-C ) :   1.0268
B(  3-C ,  4-C ) :   1.6333 B(  3-C ,  5-H ) :   0.9866 B(  4-C , 20-C ) :   1.0145
B(  6-C ,  7-H ) :   0.9407 B(  6-C ,  8-H ) :   0.9212 B(  6-C ,  9-C ) :   1.0717
B(  9-C , 10-H ) :   0.9552 B(  9-C , 11-H ) :   0.9586 B(  9-C , 12-C ) :   1.0703
B( 12-C , 13-H ) :   0.9776 B( 12-C , 14-H ) :   0.9737 B( 12-C , 15-H ) :   0.9739
B( 16-S , 17-C ) :   1.1843 B( 16-S , 20-C ) :   1.1484 B( 17-C , 18-C ) :   1.5919
B( 17-C , 33-H ) :   0.9590 B( 18-C , 19-C ) :   1.2577 B( 18-C , 21-H ) :   0.9857
B( 19-C , 20-C ) :   1.5919 B( 19-C , 22-C ) :   1.0409 B( 22-C , 23-H ) :   0.9347
B( 22-C , 24-H ) :   0.9170 B( 22-C , 25-C ) :   1.0626 B( 25-C , 26-H ) :   0.9485
B( 25-C , 27-H ) :   0.9514 B( 25-C , 28-C ) :   1.0901 B( 28-C , 29-H ) :   0.9727
B( 28-C , 30-H ) :   0.9705 B( 28-C , 31-H ) :   0.9734

Dispersion correction           -0.015126007
FINAL SINGLE POINT ENERGY     -1339.860100984078

DIPOLE MOMENT
-------------
                                X             Y             Z
Electronic contribution:     16.22151       6.69565     -18.80574
Nuclear contribution   :    -16.77874      -6.69482      19.30235
                        -----------------------------------------
Total Dipole Moment    :     -0.55723       0.00083       0.49661
                        -----------------------------------------
Magnitude (a.u.)       :      0.74641
Magnitude (Debye)      :      1.89722

Rotational constants in cm-1:     0.016258     0.009629     0.008111
Rotational constants in MHz :   487.411813   288.674699   243.160681

                             ****ORCA TERMINATED NORMALLY****
TOTAL RUN TIME: 0 days 0 hours 0 minutes 22 seconds 199 msec
