                         Program Version 4.2.1 -  RELEASE  -
|  1> ! wB97X-D3 SP def2-SVP
|  2> %pal
|  3> nprocs 24
|  4> end
|  5>
|  6> * xyz 0 1
|  7> S 	 -107.746 	 59.9281 	 -6.19917
|  8> C 	 -107.475 	 60.9276 	 -4.72591
|  9> C 	 -108.224 	 62.1305 	 -4.79717
| 10> C 	 -109.098 	 62.0863 	 -6.00623
| 11> C 	 -108.916 	 61.006 	 -6.82744
| 12> H 	 -109.811 	 62.9101 	 -6.34676
| 13> C 	 -108.228 	 63.2512 	 -3.67271
| 14> H 	 -108.819 	 62.9062 	 -2.8253
| 15> H 	 -108.753 	 64.0489 	 -4.27441
| 16> C 	 -106.925 	 63.8748 	 -3.18693
| 17> H 	 -106.371 	 63.0265 	 -2.78714
| 18> H 	 -106.322 	 64.2834 	 -3.99943
| 19> C 	 -107.026 	 64.864 	 -1.98693
| 20> H 	 -107.384 	 65.8058 	 -2.34929
| 21> H 	 -107.818 	 64.5491 	 -1.35495
| 22> H 	 -106.129 	 65.0916 	 -1.42588
| 23> S 	 -109.096 	 61.3029 	 -9.57668
| 24> C 	 -110.403 	 60.4939 	 -10.5359
| 25> C 	 -111.33 	 59.9555 	 -9.66204
| 26> C 	 -110.981 	 60.1068 	 -8.25538
| 27> C 	 -109.75 	 60.7134 	 -8.03997
| 28> H 	 -112.235 	 59.5543 	 -9.98516
| 29> C 	 -111.855 	 59.5622 	 -7.11296
| 30> H 	 -111.3 	 59.8088 	 -6.23272
| 31> H 	 -111.792 	 58.4189 	 -7.26217
| 32> C 	 -113.254 	 60.0303 	 -7.17782
| 33> H 	 -113.712 	 59.8199 	 -8.06308
| 34> H 	 -113.197 	 61.1742 	 -7.26657
| 35> C 	 -114.095 	 59.6308 	 -5.97504
| 36> H 	 -113.896 	 60.2645 	 -5.1314
| 37> H 	 -113.946 	 58.5485 	 -5.74126
| 38> H 	 -115.045 	 59.9449 	 -6.30307
| 39> H 	 -106.8 	 60.7789 	 -3.90341
| 40> H 	 -110.551 	 60.3409 	 -11.6546
| 41> *
| 42>
| 43>                          ****END OF INPUT****

CARTESIAN COORDINATES (ANGSTROEM)
---------------------------------
  S    -107.746000   59.928100   -6.199170
  C    -107.475000   60.927600   -4.725910
  C    -108.224000   62.130500   -4.797170
  C    -109.098000   62.086300   -6.006230
  C    -108.916000   61.006000   -6.827440
  H    -109.811000   62.910100   -6.346760
  C    -108.228000   63.251200   -3.672710
  H    -108.819000   62.906200   -2.825300
  H    -108.753000   64.048900   -4.274410
  C    -106.925000   63.874800   -3.186930
  H    -106.371000   63.026500   -2.787140
  H    -106.322000   64.283400   -3.999430
  C    -107.026000   64.864000   -1.986930
  H    -107.384000   65.805800   -2.349290
  H    -107.818000   64.549100   -1.354950
  H    -106.129000   65.091600   -1.425880
  S    -109.096000   61.302900   -9.576680
  C    -110.403000   60.493900  -10.535900
  C    -111.330000   59.955500   -9.662040
  C    -110.981000   60.106800   -8.255380
  C    -109.750000   60.713400   -8.039970
  H    -112.235000   59.554300   -9.985160
  C    -111.855000   59.562200   -7.112960
  H    -111.300000   59.808800   -6.232720
  H    -111.792000   58.418900   -7.262170
  C    -113.254000   60.030300   -7.177820
  H    -113.712000   59.819900   -8.063080
  H    -113.197000   61.174200   -7.266570
  C    -114.095000   59.630800   -5.975040
  H    -113.896000   60.264500   -5.131400
  H    -113.946000   58.548500   -5.741260
  H    -115.045000   59.944900   -6.303070
  H    -106.800000   60.778900   -3.903410
  H    -110.551000   60.340900  -11.654600

 Total Charge           Charge          ....    0
 Multiplicity           Mult            ....    1
 Number of Electrons    NEL             ....  134
 Basis Dimension        Dim             ....  322

ORBITAL ENERGIES
----------------

  NO   OCC          E(Eh)            E(eV)
   0   2.0000     -88.970375     -2421.0070
   1   2.0000     -88.962901     -2420.8036
   2   2.0000     -10.331350      -281.1303
   3   2.0000     -10.330717      -281.1131
   4   2.0000     -10.328608      -281.0557
   5   2.0000     -10.323046      -280.9044
   6   2.0000     -10.317938      -280.7654
   7   2.0000     -10.306178      -280.4454
   8   2.0000     -10.306140      -280.4443
   9   2.0000     -10.305721      -280.4329
  10   2.0000     -10.293052      -280.0882
  11   2.0000     -10.291034      -280.0333
  12   2.0000     -10.289223      -279.9840
  13   2.0000     -10.279208      -279.7115
  14   2.0000     -10.277914      -279.6763
  15   2.0000     -10.274460      -279.5823
  16   2.0000      -8.084541      -219.9915
  17   2.0000      -8.076335      -219.7682
  18   2.0000      -6.043208      -164.4440
  19   2.0000      -6.039017      -164.3300
  20   2.0000      -6.035240      -164.2272
  21   2.0000      -6.035204      -164.2262
  22   2.0000      -6.030937      -164.1101
  23   2.0000      -6.026847      -163.9988
  24   2.0000      -0.998161       -27.1613
  25   2.0000      -0.974027       -26.5046
  26   2.0000      -0.914253       -24.8781
  27   2.0000      -0.907846       -24.7037
  28   2.0000      -0.864732       -23.5306
  29   2.0000      -0.845211       -22.9994
  30   2.0000      -0.842654       -22.9298
  31   2.0000      -0.814412       -22.1613
  32   2.0000      -0.784553       -21.3488
  33   2.0000      -0.770561       -20.9680
  34   2.0000      -0.706697       -19.2302
  35   2.0000      -0.701707       -19.0944
  36   2.0000      -0.692485       -18.8435
  37   2.0000      -0.655890       -17.8477
  38   2.0000      -0.636505       -17.3202
  39   2.0000      -0.608813       -16.5666
  40   2.0000      -0.588357       -16.0100
  41   2.0000      -0.571359       -15.5475
  42   2.0000      -0.566518       -15.4157
  43   2.0000      -0.563621       -15.3369
  44   2.0000      -0.535015       -14.5585
  45   2.0000      -0.527621       -14.3573
  46   2.0000      -0.517887       -14.0924
  47   2.0000      -0.509327       -13.8595
  48   2.0000      -0.507093       -13.7987
  49   2.0000      -0.495883       -13.4937
  50   2.0000      -0.488942       -13.3048
  51   2.0000      -0.477204       -12.9854
  52   2.0000      -0.470839       -12.8122
  53   2.0000      -0.462298       -12.5798
  54   2.0000      -0.456592       -12.4245
  55   2.0000      -0.453224       -12.3328
  56   2.0000      -0.442911       -12.0522
  57   2.0000      -0.441769       -12.0211
  58   2.0000      -0.439785       -11.9672
  59   2.0000      -0.429438       -11.6856
  60   2.0000      -0.414989       -11.2924
  61   2.0000      -0.402398       -10.9498
  62   2.0000      -0.400329       -10.8935
  63   2.0000      -0.332970        -9.0606
  64   2.0000      -0.329518        -8.9667
  65   2.0000      -0.322388        -8.7726
  66   2.0000      -0.313790        -8.5387
  67   0.0000       0.045921         1.2496
  68   0.0000       0.050596         1.3768
  69   0.0000       0.111078         3.0226
  70   0.0000       0.116806         3.1785
  71   0.0000       0.118705         3.2301

MULLIKEN ATOMIC CHARGES
-----------------------
   0 S :    0.128518
   1 C :   -0.116498
   2 C :   -0.109235
   3 C :    0.019835
   4 C :   -0.168872
   5 H :    0.043218
   6 C :    0.034917
   7 H :    0.052128
   8 H :    0.034068
   9 C :   -0.085074
  10 H :    0.020060
  11 H :    0.039297
  12 C :   -0.019008
  13 H :    0.017178
  14 H :    0.015056
  15 H :    0.044017
  16 S :    0.091580
  17 C :   -0.106004
  18 C :   -0.015585
  19 C :   -0.047429
  20 C :   -0.188851
  21 H :   -0.001177
  22 C :    0.094477
  23 H :    0.022972
  24 H :    0.043271
  25 C :   -0.112624
  26 H :    0.002257
  27 H :    0.028451
  28 C :    0.015265
  29 H :    0.028768
  30 H :    0.045783
  31 H :    0.017453
  32 H :    0.048225
  33 H :    0.083562
Sum of atomic charges:    0.0000000

LOEWDIN ATOMIC CHARGES
----------------------
   0 S :    0.412770
   1 C :   -0.185640
   2 C :   -0.059752
   3 C :   -0.072113
   4 C :   -0.223593
   5 H :    0.044134
   6 C :   -0.033601
   7 H :    0.034435
   8 H :    0.035651
   9 C :   -0.043777
  10 H :    0.019407
  11 H :    0.027478
  12 C :   -0.059917
  13 H :    0.021732
  14 H :    0.021170
  15 H :    0.030270
  16 S :    0.371789
  17 C :   -0.178054
  18 C :   -0.069527
  19 C :   -0.049555
  20 C :   -0.197915
  21 H :    0.018924
  22 C :   -0.031613
  23 H :    0.027149
  24 H :    0.039761
  25 C :   -0.045518
  26 H :    0.006776
  27 H :    0.033937
  28 C :   -0.055388
  29 H :    0.025385
  30 H :    0.033267
  31 H :    0.023474
  32 H :    0.027022
  33 H :    0.051430

  Mayer bond orders larger than 0.100000
B(  0-S ,  1-C ) :   1.1362 B(  0-S ,  4-C ) :   1.1463 B(  1-C ,  2-C ) :   1.6225
B(  1-C , 32-H ) :   0.9713 B(  2-C ,  3-C ) :   1.2257 B(  2-C ,  6-C ) :   0.9961
B(  3-C ,  4-C ) :   1.6189 B(  3-C ,  5-H ) :   0.9759 B(  4-C , 20-C ) :   0.9804
B(  6-C ,  7-H ) :   0.9425 B(  6-C ,  8-H ) :   0.9472 B(  6-C ,  9-C ) :   1.0685
B(  9-C , 10-H ) :   0.9550 B(  9-C , 11-H ) :   0.9601 B(  9-C , 12-C ) :   1.0741
B( 12-C , 13-H ) :   0.9751 B( 12-C , 14-H ) :   0.9717 B( 12-C , 15-H ) :   0.9766
B( 16-S , 17-C ) :   1.1330 B( 16-S , 20-C ) :   1.1244 B( 17-C , 18-C ) :   1.6436
B( 17-C , 33-H ) :   0.9562 B( 18-C , 19-C ) :   1.2104 B( 18-C , 21-H ) :   0.9932
B( 19-C , 20-C ) :   1.6402 B( 19-C , 22-C ) :   1.0341 B( 22-C , 23-H ) :   0.9369
B( 22-C , 24-H ) :   0.9275 B( 22-C , 25-C ) :   1.0650 B( 25-C , 26-H ) :   0.9558
B( 25-C , 27-H ) :   0.9480 B( 25-C , 28-C ) :   1.0822 B( 28-C , 29-H ) :   0.9739
B( 28-C , 30-H ) :   0.9720 B( 28-C , 31-H ) :   0.9708

Dispersion correction           -0.013442227
FINAL SINGLE POINT ENERGY     -1339.846578184728

DIPOLE MOMENT
-------------
                                X             Y             Z
Electronic contribution:     11.76889      -9.28967     -20.68177
Nuclear contribution   :    -12.24331       9.49452      21.09923
                        -----------------------------------------
Total Dipole Moment    :     -0.47442       0.20485       0.41745
                        -----------------------------------------
Magnitude (a.u.)       :      0.66431
Magnitude (Debye)      :      1.68854

Rotational constants in cm-1:     0.019295     0.006933     0.005896
Rotational constants in MHz :   578.459392   207.835420   176.746125

                             ****ORCA TERMINATED NORMALLY****
TOTAL RUN TIME: 0 days 0 hours 0 minutes 20 seconds 311 msec
