                         Program Version 4.2.1 -  RELEASE  -
|  1> ! wB97X-D3 SP def2-SVP
|  2> %pal
|  3> nprocs 24
|  4> end
|  5>
|  6> * xyz 0 1
|  7> S 	 -123.679 	 63.721 	 -50.8198
|  8> C 	 -122.617 	 64.48 	 -51.9449
|  9> C 	 -121.872 	 65.4826 	 -51.3503
| 10> C 	 -122.249 	 65.7107 	 -50.0126
| 11> C 	 -123.437 	 65.0553 	 -49.7141
| 12> H 	 -121.885 	 66.5265 	 -49.3696
| 13> C 	 -120.72 	 66.108 	 -52.142
| 14> H 	 -120.244 	 65.214 	 -52.5988
| 15> H 	 -119.884 	 66.6262 	 -51.5902
| 16> C 	 -121.202 	 67.0399 	 -53.3129
| 17> H 	 -120.243 	 67.4027 	 -53.6859
| 18> H 	 -121.694 	 66.4588 	 -54.0913
| 19> C 	 -122.055 	 68.2569 	 -52.9405
| 20> H 	 -122.258 	 68.8326 	 -53.8222
| 21> H 	 -122.848 	 68.0421 	 -52.1875
| 22> H 	 -121.387 	 68.9462 	 -52.3869
| 23> S 	 -125.286 	 66.6209 	 -48.358
| 24> C 	 -125.931 	 66.0521 	 -46.8042
| 25> C 	 -125.536 	 64.7417 	 -46.5562
| 26> C 	 -124.559 	 64.2636 	 -47.4929
| 27> C 	 -124.256 	 65.1767 	 -48.4925
| 28> H 	 -125.988 	 64.1392 	 -45.832
| 29> C 	 -123.869 	 62.9551 	 -47.2194
| 30> H 	 -123.294 	 62.673 	 -48.1653
| 31> H 	 -124.611 	 62.1121 	 -47.079
| 32> C 	 -122.888 	 63.075 	 -46.0257
| 33> H 	 -123.451 	 63.3903 	 -45.1221
| 34> H 	 -122.094 	 63.8335 	 -46.3407
| 35> C 	 -122.158 	 61.7168 	 -45.8213
| 36> H 	 -121.58 	 61.7601 	 -44.8641
| 37> H 	 -121.423 	 61.5464 	 -46.6741
| 38> H 	 -122.81 	 60.8297 	 -45.674
| 39> H 	 -122.419 	 64.0283 	 -52.8887
| 40> H 	 -126.746 	 66.586 	 -46.3349
| 41> *
| 42>
| 43>                          ****END OF INPUT****

CARTESIAN COORDINATES (ANGSTROEM)
---------------------------------
  S    -123.679000   63.721000  -50.819800
  C    -122.617000   64.480000  -51.944900
  C    -121.872000   65.482600  -51.350300
  C    -122.249000   65.710700  -50.012600
  C    -123.437000   65.055300  -49.714100
  H    -121.885000   66.526500  -49.369600
  C    -120.720000   66.108000  -52.142000
  H    -120.244000   65.214000  -52.598800
  H    -119.884000   66.626200  -51.590200
  C    -121.202000   67.039900  -53.312900
  H    -120.243000   67.402700  -53.685900
  H    -121.694000   66.458800  -54.091300
  C    -122.055000   68.256900  -52.940500
  H    -122.258000   68.832600  -53.822200
  H    -122.848000   68.042100  -52.187500
  H    -121.387000   68.946200  -52.386900
  S    -125.286000   66.620900  -48.358000
  C    -125.931000   66.052100  -46.804200
  C    -125.536000   64.741700  -46.556200
  C    -124.559000   64.263600  -47.492900
  C    -124.256000   65.176700  -48.492500
  H    -125.988000   64.139200  -45.832000
  C    -123.869000   62.955100  -47.219400
  H    -123.294000   62.673000  -48.165300
  H    -124.611000   62.112100  -47.079000
  C    -122.888000   63.075000  -46.025700
  H    -123.451000   63.390300  -45.122100
  H    -122.094000   63.833500  -46.340700
  C    -122.158000   61.716800  -45.821300
  H    -121.580000   61.760100  -44.864100
  H    -121.423000   61.546400  -46.674100
  H    -122.810000   60.829700  -45.674000
  H    -122.419000   64.028300  -52.888700
  H    -126.746000   66.586000  -46.334900

 Total Charge           Charge          ....    0
 Multiplicity           Mult            ....    1
 Number of Electrons    NEL             ....  134
 Basis Dimension        Dim             ....  322

ORBITAL ENERGIES
----------------

  NO   OCC          E(Eh)            E(eV)
   0   2.0000     -88.966772     -2420.9089
   1   2.0000     -88.963309     -2420.8147
   2   2.0000     -10.329963      -281.0926
   3   2.0000     -10.327283      -281.0197
   4   2.0000     -10.320513      -280.8354
   5   2.0000     -10.308201      -280.5004
   6   2.0000     -10.301082      -280.3067
   7   2.0000     -10.300828      -280.2998
   8   2.0000     -10.299815      -280.2722
   9   2.0000     -10.297330      -280.2046
  10   2.0000     -10.296681      -280.1869
  11   2.0000     -10.295887      -280.1653
  12   2.0000     -10.292382      -280.0700
  13   2.0000     -10.287171      -279.9282
  14   2.0000     -10.286984      -279.9231
  15   2.0000     -10.276687      -279.6429
  16   2.0000      -8.081805      -219.9171
  17   2.0000      -8.077342      -219.7957
  18   2.0000      -6.040080      -164.3589
  19   2.0000      -6.036457      -164.2604
  20   2.0000      -6.035899      -164.2452
  21   2.0000      -6.032610      -164.1557
  22   2.0000      -6.031977      -164.1384
  23   2.0000      -6.028059      -164.0318
  24   2.0000      -1.007024       -27.4025
  25   2.0000      -0.982198       -26.7270
  26   2.0000      -0.904941       -24.6247
  27   2.0000      -0.902020       -24.5452
  28   2.0000      -0.864447       -23.5228
  29   2.0000      -0.849710       -23.1218
  30   2.0000      -0.842225       -22.9181
  31   2.0000      -0.814397       -22.1609
  32   2.0000      -0.778368       -21.1805
  33   2.0000      -0.763063       -20.7640
  34   2.0000      -0.697669       -18.9845
  35   2.0000      -0.694151       -18.8888
  36   2.0000      -0.686729       -18.6869
  37   2.0000      -0.664626       -18.0854
  38   2.0000      -0.642960       -17.4958
  39   2.0000      -0.610280       -16.6066
  40   2.0000      -0.592864       -16.1327
  41   2.0000      -0.574822       -15.6417
  42   2.0000      -0.561468       -15.2783
  43   2.0000      -0.548442       -14.9239
  44   2.0000      -0.535534       -14.5726
  45   2.0000      -0.519228       -14.1289
  46   2.0000      -0.514361       -13.9965
  47   2.0000      -0.508972       -13.8498
  48   2.0000      -0.507039       -13.7972
  49   2.0000      -0.490343       -13.3429
  50   2.0000      -0.484216       -13.1762
  51   2.0000      -0.480812       -13.0836
  52   2.0000      -0.464602       -12.6425
  53   2.0000      -0.459163       -12.4945
  54   2.0000      -0.456808       -12.4304
  55   2.0000      -0.445260       -12.1161
  56   2.0000      -0.441797       -12.0219
  57   2.0000      -0.435219       -11.8429
  58   2.0000      -0.427983       -11.6460
  59   2.0000      -0.420284       -11.4365
  60   2.0000      -0.418695       -11.3933
  61   2.0000      -0.416524       -11.3342
  62   2.0000      -0.414280       -11.2731
  63   2.0000      -0.338182        -9.2024
  64   2.0000      -0.330858        -9.0031
  65   2.0000      -0.324825        -8.8389
  66   2.0000      -0.296344        -8.0639
  67   0.0000       0.030543         0.8311
  68   0.0000       0.056174         1.5286
  69   0.0000       0.098817         2.6890
  70   0.0000       0.110805         3.0152
  71   0.0000       0.135782         3.6948

MULLIKEN ATOMIC CHARGES
-----------------------
   0 S :    0.127460
   1 C :   -0.110700
   2 C :   -0.074485
   3 C :    0.045297
   4 C :   -0.190767
   5 H :    0.030245
   6 C :    0.013300
   7 H :    0.036110
   8 H :    0.038950
   9 C :   -0.078208
  10 H :    0.025076
  11 H :    0.030583
  12 C :   -0.039591
  13 H :    0.037211
  14 H :    0.056806
  15 H :    0.009992
  16 S :    0.092083
  17 C :   -0.092104
  18 C :   -0.009027
  19 C :   -0.026324
  20 C :   -0.158967
  21 H :    0.004583
  22 C :    0.016361
  23 H :    0.024915
  24 H :    0.038140
  25 C :   -0.092337
  26 H :    0.042336
  27 H :    0.051619
  28 C :   -0.076387
  29 H :    0.038085
  30 H :    0.049347
  31 H :    0.036693
  32 H :    0.039961
  33 H :    0.063743
Sum of atomic charges:   -0.0000000

LOEWDIN ATOMIC CHARGES
----------------------
   0 S :    0.426421
   1 C :   -0.198416
   2 C :   -0.068567
   3 C :   -0.061247
   4 C :   -0.193601
   5 H :    0.038783
   6 C :   -0.038197
   7 H :    0.036547
   8 H :    0.033903
   9 C :   -0.039619
  10 H :    0.024113
  11 H :    0.018570
  12 C :   -0.072126
  13 H :    0.027573
  14 H :    0.034187
  15 H :    0.024780
  16 S :    0.383765
  17 C :   -0.172664
  18 C :   -0.060039
  19 C :   -0.061446
  20 C :   -0.195660
  21 H :    0.022707
  22 C :   -0.046108
  23 H :    0.026212
  24 H :    0.033678
  25 C :   -0.042162
  26 H :    0.025539
  27 H :    0.038694
  28 C :   -0.079627
  29 H :    0.028531
  30 H :    0.033959
  31 H :    0.024853
  32 H :    0.019257
  33 H :    0.027407

  Mayer bond orders larger than 0.100000
B(  0-S ,  1-C ) :   1.1573 B(  0-S ,  4-C ) :   1.1655 B(  1-C ,  2-C ) :   1.5768
B(  1-C ,  4-C ) :   0.1050 B(  1-C , 32-H ) :   0.9732 B(  2-C ,  3-C ) :   1.2656
B(  2-C ,  6-C ) :   1.0051 B(  3-C ,  4-C ) :   1.5513 B(  3-C ,  5-H ) :   0.9896
B(  4-C , 20-C ) :   1.0249 B(  6-C ,  7-H ) :   0.9418 B(  6-C ,  8-H ) :   0.9562
B(  6-C ,  9-C ) :   1.0704 B(  9-C , 10-H ) :   0.9571 B(  9-C , 11-H ) :   0.9597
B(  9-C , 12-C ) :   1.0752 B( 12-C , 13-H ) :   0.9719 B( 12-C , 14-H ) :   0.9737
B( 12-C , 15-H ) :   0.9711 B( 16-S , 17-C ) :   1.1511 B( 16-S , 20-C ) :   1.1363
B( 17-C , 18-C ) :   1.6016 B( 17-C , 33-H ) :   0.9682 B( 18-C , 19-C ) :   1.2281
B( 18-C , 21-H ) :   0.9963 B( 19-C , 20-C ) :   1.6112 B( 19-C , 22-C ) :   1.0530
B( 22-C , 23-H ) :   0.9300 B( 22-C , 24-H ) :   0.9351 B( 22-C , 25-C ) :   1.0569
B( 25-C , 26-H ) :   0.9578 B( 25-C , 27-H ) :   0.9524 B( 25-C , 28-C ) :   1.0759
B( 28-C , 29-H ) :   0.9746 B( 28-C , 30-H ) :   0.9747 B( 28-C , 31-H ) :   0.9747

Dispersion correction           -0.014371208
FINAL SINGLE POINT ENERGY     -1339.873432707556

DIPOLE MOMENT
-------------
                                X             Y             Z
Electronic contribution:    -15.18893       1.61560       0.23536
Nuclear contribution   :     15.51972      -1.75485      -0.17534
                        -----------------------------------------
Total Dipole Moment    :      0.33080      -0.13925       0.06002
                        -----------------------------------------
Magnitude (a.u.)       :      0.36389
Magnitude (Debye)      :      0.92495

Rotational constants in cm-1:     0.020716     0.008052     0.006628
Rotational constants in MHz :   621.043751   241.399785   198.709953

                             ****ORCA TERMINATED NORMALLY****
TOTAL RUN TIME: 0 days 0 hours 0 minutes 21 seconds 290 msec
