                         Program Version 4.2.1 -  RELEASE  -
|  1> ! wB97X-D3 SP def2-SVP
|  2> %pal
|  3> nprocs 24
|  4> end
|  5>
|  6> * xyz 0 1
|  7> S 	 43.3128 	 -19.9954 	 -111.933
|  8> C 	 43.0179 	 -19.5068 	 -110.252
|  9> C 	 42.4553 	 -20.5409 	 -109.493
| 10> C 	 42.4109 	 -21.7112 	 -110.258
| 11> C 	 42.6423 	 -21.6107 	 -111.594
| 12> H 	 42.1885 	 -22.7541 	 -109.961
| 13> C 	 42.2684 	 -20.5687 	 -107.977
| 14> H 	 41.9153 	 -19.6536 	 -107.557
| 15> H 	 43.2875 	 -20.6579 	 -107.547
| 16> C 	 41.5504 	 -21.855 	 -107.473
| 17> H 	 40.5205 	 -21.8379 	 -107.875
| 18> H 	 42.0052 	 -22.8334 	 -107.608
| 19> C 	 41.421 	 -21.7805 	 -105.915
| 20> H 	 41.0944 	 -22.7353 	 -105.568
| 21> H 	 42.3261 	 -21.5901 	 -105.376
| 22> H 	 40.6841 	 -21.166 	 -105.439
| 23> S 	 43.7424 	 -22.9681 	 -113.7
| 24> C 	 42.9287 	 -24.4926 	 -114.193
| 25> C 	 41.593 	 -24.515 	 -113.783
| 26> C 	 41.3189 	 -23.5159 	 -112.762
| 27> C 	 42.3862 	 -22.6526 	 -112.57
| 28> H 	 40.9102 	 -25.3208 	 -114.087
| 29> C 	 40.0011 	 -23.568 	 -111.925
| 30> H 	 40.12 	 -22.6976 	 -111.291
| 31> H 	 39.778 	 -24.4791 	 -111.282
| 32> C 	 38.5908 	 -23.3606 	 -112.648
| 33> H 	 38.4153 	 -24.3419 	 -113.101
| 34> H 	 38.7018 	 -22.7448 	 -113.513
| 35> C 	 37.4746 	 -22.869 	 -111.685
| 36> H 	 36.4526 	 -22.735 	 -112.086
| 37> H 	 37.7097 	 -21.9516 	 -111.146
| 38> H 	 37.4308 	 -23.5455 	 -110.877
| 39> H 	 43.3098 	 -18.5496 	 -109.727
| 40> H 	 43.3539 	 -25.2686 	 -114.816
| 41> *
| 42>
| 43>                          ****END OF INPUT****

CARTESIAN COORDINATES (ANGSTROEM)
---------------------------------
  S     43.312800  -19.995400  -111.933000
  C     43.017900  -19.506800  -110.252000
  C     42.455300  -20.540900  -109.493000
  C     42.410900  -21.711200  -110.258000
  C     42.642300  -21.610700  -111.594000
  H     42.188500  -22.754100  -109.961000
  C     42.268400  -20.568700  -107.977000
  H     41.915300  -19.653600  -107.557000
  H     43.287500  -20.657900  -107.547000
  C     41.550400  -21.855000  -107.473000
  H     40.520500  -21.837900  -107.875000
  H     42.005200  -22.833400  -107.608000
  C     41.421000  -21.780500  -105.915000
  H     41.094400  -22.735300  -105.568000
  H     42.326100  -21.590100  -105.376000
  H     40.684100  -21.166000  -105.439000
  S     43.742400  -22.968100  -113.700000
  C     42.928700  -24.492600  -114.193000
  C     41.593000  -24.515000  -113.783000
  C     41.318900  -23.515900  -112.762000
  C     42.386200  -22.652600  -112.570000
  H     40.910200  -25.320800  -114.087000
  C     40.001100  -23.568000  -111.925000
  H     40.120000  -22.697600  -111.291000
  H     39.778000  -24.479100  -111.282000
  C     38.590800  -23.360600  -112.648000
  H     38.415300  -24.341900  -113.101000
  H     38.701800  -22.744800  -113.513000
  C     37.474600  -22.869000  -111.685000
  H     36.452600  -22.735000  -112.086000
  H     37.709700  -21.951600  -111.146000
  H     37.430800  -23.545500  -110.877000
  H     43.309800  -18.549600  -109.727000
  H     43.353900  -25.268600  -114.816000

 Total Charge           Charge          ....    0
 Multiplicity           Mult            ....    1
 Number of Electrons    NEL             ....  134
 Basis Dimension        Dim             ....  322

ORBITAL ENERGIES
----------------

  NO   OCC          E(Eh)            E(eV)
   0   2.0000     -88.968284     -2420.9501
   1   2.0000     -88.967230     -2420.9214
   2   2.0000     -10.333856      -281.1985
   3   2.0000     -10.325948      -280.9833
   4   2.0000     -10.325916      -280.9825
   5   2.0000     -10.320462      -280.8340
   6   2.0000     -10.316026      -280.7133
   7   2.0000     -10.302602      -280.3480
   8   2.0000     -10.301341      -280.3137
   9   2.0000     -10.301308      -280.3128
  10   2.0000     -10.297870      -280.2193
  11   2.0000     -10.296621      -280.1853
  12   2.0000     -10.289602      -279.9943
  13   2.0000     -10.287802      -279.9453
  14   2.0000     -10.279939      -279.7314
  15   2.0000     -10.272114      -279.5184
  16   2.0000      -8.081767      -219.9161
  17   2.0000      -8.080854      -219.8912
  18   2.0000      -6.040470      -164.3695
  19   2.0000      -6.039497      -164.3431
  20   2.0000      -6.036494      -164.2614
  21   2.0000      -6.035787      -164.2421
  22   2.0000      -6.032363      -164.1489
  23   2.0000      -6.031252      -164.1187
  24   2.0000      -1.001860       -27.2620
  25   2.0000      -0.976684       -26.5769
  26   2.0000      -0.908522       -24.7221
  27   2.0000      -0.895946       -24.3799
  28   2.0000      -0.868530       -23.6339
  29   2.0000      -0.849474       -23.1154
  30   2.0000      -0.842356       -22.9217
  31   2.0000      -0.812496       -22.1091
  32   2.0000      -0.781521       -21.2663
  33   2.0000      -0.771527       -20.9943
  34   2.0000      -0.714866       -19.4525
  35   2.0000      -0.702683       -19.1210
  36   2.0000      -0.692555       -18.8454
  37   2.0000      -0.658986       -17.9319
  38   2.0000      -0.641251       -17.4493
  39   2.0000      -0.614395       -16.7185
  40   2.0000      -0.592614       -16.1259
  41   2.0000      -0.569388       -15.4938
  42   2.0000      -0.562785       -15.3142
  43   2.0000      -0.556631       -15.1467
  44   2.0000      -0.526622       -14.3301
  45   2.0000      -0.518387       -14.1060
  46   2.0000      -0.513323       -13.9682
  47   2.0000      -0.502480       -13.6732
  48   2.0000      -0.498295       -13.5593
  49   2.0000      -0.494177       -13.4472
  50   2.0000      -0.488659       -13.2971
  51   2.0000      -0.479638       -13.0516
  52   2.0000      -0.476157       -12.9569
  53   2.0000      -0.468075       -12.7370
  54   2.0000      -0.455358       -12.3909
  55   2.0000      -0.449557       -12.2331
  56   2.0000      -0.447458       -12.1759
  57   2.0000      -0.436255       -11.8711
  58   2.0000      -0.428585       -11.6624
  59   2.0000      -0.425234       -11.5712
  60   2.0000      -0.422976       -11.5098
  61   2.0000      -0.417109       -11.3501
  62   2.0000      -0.413170       -11.2429
  63   2.0000      -0.346823        -9.4375
  64   2.0000      -0.332204        -9.0397
  65   2.0000      -0.329563        -8.9679
  66   2.0000      -0.286773        -7.8035
  67   0.0000       0.023978         0.6525
  68   0.0000       0.061523         1.6741
  69   0.0000       0.098130         2.6702
  70   0.0000       0.113489         3.0882
  71   0.0000       0.126918         3.4536

MULLIKEN ATOMIC CHARGES
-----------------------
   0 S :    0.109284
   1 C :   -0.137319
   2 C :   -0.061277
   3 C :   -0.020191
   4 C :   -0.128706
   5 H :    0.030043
   6 C :    0.060339
   7 H :    0.025581
   8 H :    0.042580
   9 C :   -0.105529
  10 H :    0.043149
  11 H :    0.052570
  12 C :   -0.028666
  13 H :    0.008273
  14 H :    0.019691
  15 H :    0.022098
  16 S :    0.090648
  17 C :   -0.095900
  18 C :   -0.028976
  19 C :   -0.019012
  20 C :   -0.157084
  21 H :    0.034836
  22 C :   -0.007288
  23 H :    0.029956
  24 H :    0.054261
  25 C :   -0.058619
  26 H :    0.024077
  27 H :    0.025818
  28 C :   -0.037821
  29 H :    0.046816
  30 H :    0.030383
  31 H :    0.009929
  32 H :    0.064857
  33 H :    0.061201
Sum of atomic charges:   -0.0000000

LOEWDIN ATOMIC CHARGES
----------------------
   0 S :    0.381228
   1 C :   -0.200992
   2 C :   -0.069579
   3 C :   -0.070681
   4 C :   -0.190462
   5 H :    0.038155
   6 C :   -0.029989
   7 H :    0.028482
   8 H :    0.041109
   9 C :   -0.036731
  10 H :    0.029490
  11 H :    0.030649
  12 C :   -0.068573
  13 H :    0.021694
  14 H :    0.020202
  15 H :    0.021371
  16 S :    0.364494
  17 C :   -0.162643
  18 C :   -0.068340
  19 C :   -0.049330
  20 C :   -0.177103
  21 H :    0.036262
  22 C :   -0.038402
  23 H :    0.025528
  24 H :    0.038553
  25 C :   -0.037619
  26 H :    0.020300
  27 H :    0.017989
  28 C :   -0.066706
  29 H :    0.033362
  30 H :    0.028830
  31 H :    0.018053
  32 H :    0.042237
  33 H :    0.029162

  Mayer bond orders larger than 0.100000
B(  0-S ,  1-C ) :   1.1361 B(  0-S ,  4-C ) :   1.1167 B(  1-C ,  2-C ) :   1.6109
B(  1-C ,  4-C ) :   0.1055 B(  1-C , 32-H ) :   0.9609 B(  2-C ,  3-C ) :   1.2430
B(  2-C ,  6-C ) :   1.0162 B(  3-C ,  4-C ) :   1.5927 B(  3-C ,  5-H ) :   0.9803
B(  4-C , 20-C ) :   1.0482 B(  6-C ,  7-H ) :   0.9466 B(  6-C ,  8-H ) :   0.9346
B(  6-C ,  9-C ) :   1.0748 B(  9-C , 10-H ) :   0.9600 B(  9-C , 11-H ) :   0.9492
B(  9-C , 12-C ) :   1.0754 B( 12-C , 13-H ) :   0.9726 B( 12-C , 14-H ) :   0.9746
B( 12-C , 15-H ) :   0.9755 B( 16-S , 17-C ) :   1.1320 B( 16-S , 20-C ) :   1.1075
B( 17-C , 18-C ) :   1.6508 B( 17-C , 33-H ) :   0.9685 B( 18-C , 19-C ) :   1.1868
B( 18-C , 21-H ) :   0.9842 B( 19-C , 20-C ) :   1.6446 B( 19-C , 22-C ) :   1.0313
B( 22-C , 23-H ) :   0.9396 B( 22-C , 24-H ) :   0.9475 B( 22-C , 25-C ) :   1.0403
B( 25-C , 26-H ) :   0.9586 B( 25-C , 27-H ) :   0.9621 B( 25-C , 28-C ) :   1.0729
B( 28-C , 29-H ) :   0.9761 B( 28-C , 30-H ) :   0.9742 B( 28-C , 31-H ) :   0.9732

Dispersion correction           -0.013687440
FINAL SINGLE POINT ENERGY     -1339.846617803082

DIPOLE MOMENT
-------------
                                X             Y             Z
Electronic contribution:     22.28946       5.88821     -22.78482
Nuclear contribution   :    -22.71557      -6.30699      23.40730
                        -----------------------------------------
Total Dipole Moment    :     -0.42610      -0.41878       0.62248
                        -----------------------------------------
Magnitude (a.u.)       :      0.86280
Magnitude (Debye)      :      2.19306

Rotational constants in cm-1:     0.015030     0.009299     0.006869
Rotational constants in MHz :   450.592242   278.779894   205.939903

                             ****ORCA TERMINATED NORMALLY****
TOTAL RUN TIME: 0 days 0 hours 0 minutes 20 seconds 240 msec
