                         Program Version 4.2.1 -  RELEASE  -
|  1> ! wB97X-D3 SP def2-SVP
|  2> %pal
|  3> nprocs 24
|  4> end
|  5>
|  6> * xyz 0 1
|  7> S 	 -90.4226 	 -34.7839 	 -67.5482
|  8> C 	 -91.8635 	 -35.6019 	 -68.1221
|  9> C 	 -92.9677 	 -34.9261 	 -67.4555
| 10> C 	 -92.6265 	 -33.8622 	 -66.5201
| 11> C 	 -91.2539 	 -33.6133 	 -66.4663
| 12> H 	 -93.3662 	 -33.2352 	 -65.9429
| 13> C 	 -94.447 	 -35.0985 	 -67.7568
| 14> H 	 -94.8239 	 -34.3835 	 -68.4848
| 15> H 	 -95.0803 	 -34.9435 	 -66.8897
| 16> C 	 -94.8674 	 -36.4656 	 -68.1454
| 17> H 	 -94.1768 	 -36.9457 	 -68.8593
| 18> H 	 -94.9316 	 -37.1313 	 -67.2291
| 19> C 	 -96.3439 	 -36.4296 	 -68.6371
| 20> H 	 -96.4152 	 -35.7361 	 -69.4698
| 21> H 	 -96.6477 	 -37.4175 	 -68.9581
| 22> H 	 -96.983 	 -36.0524 	 -67.8426
| 23> S 	 -89.5653 	 -33.1305 	 -64.313
| 24> C 	 -88.9745 	 -31.5553 	 -64.0624
| 25> C 	 -89.6369 	 -30.7215 	 -64.9114
| 26> C 	 -90.4082 	 -31.2809 	 -65.9574
| 27> C 	 -90.4943 	 -32.6103 	 -65.7055
| 28> H 	 -89.5471 	 -29.656 	 -64.8833
| 29> C 	 -91.1165 	 -30.5072 	 -67.0163
| 30> H 	 -91.6006 	 -29.6515 	 -66.5045
| 31> H 	 -91.8752 	 -31.1665 	 -67.3721
| 32> C 	 -90.1512 	 -30.0791 	 -68.0913
| 33> H 	 -89.554 	 -30.9201 	 -68.501
| 34> H 	 -89.4084 	 -29.336 	 -67.7384
| 35> C 	 -91.028 	 -29.4385 	 -69.1563
| 36> H 	 -90.5041 	 -28.9181 	 -69.9331
| 37> H 	 -91.5829 	 -28.6104 	 -68.7614
| 38> H 	 -91.7771 	 -30.1718 	 -69.6115
| 39> H 	 -91.7838 	 -36.4339 	 -68.8059
| 40> H 	 -88.4554 	 -31.2006 	 -63.2135
| 41> *
| 42>
| 43>                          ****END OF INPUT****

CARTESIAN COORDINATES (ANGSTROEM)
---------------------------------
  S    -90.422600  -34.783900  -67.548200
  C    -91.863500  -35.601900  -68.122100
  C    -92.967700  -34.926100  -67.455500
  C    -92.626500  -33.862200  -66.520100
  C    -91.253900  -33.613300  -66.466300
  H    -93.366200  -33.235200  -65.942900
  C    -94.447000  -35.098500  -67.756800
  H    -94.823900  -34.383500  -68.484800
  H    -95.080300  -34.943500  -66.889700
  C    -94.867400  -36.465600  -68.145400
  H    -94.176800  -36.945700  -68.859300
  H    -94.931600  -37.131300  -67.229100
  C    -96.343900  -36.429600  -68.637100
  H    -96.415200  -35.736100  -69.469800
  H    -96.647700  -37.417500  -68.958100
  H    -96.983000  -36.052400  -67.842600
  S    -89.565300  -33.130500  -64.313000
  C    -88.974500  -31.555300  -64.062400
  C    -89.636900  -30.721500  -64.911400
  C    -90.408200  -31.280900  -65.957400
  C    -90.494300  -32.610300  -65.705500
  H    -89.547100  -29.656000  -64.883300
  C    -91.116500  -30.507200  -67.016300
  H    -91.600600  -29.651500  -66.504500
  H    -91.875200  -31.166500  -67.372100
  C    -90.151200  -30.079100  -68.091300
  H    -89.554000  -30.920100  -68.501000
  H    -89.408400  -29.336000  -67.738400
  C    -91.028000  -29.438500  -69.156300
  H    -90.504100  -28.918100  -69.933100
  H    -91.582900  -28.610400  -68.761400
  H    -91.777100  -30.171800  -69.611500
  H    -91.783800  -36.433900  -68.805900
  H    -88.455400  -31.200600  -63.213500

 Total Charge           Charge          ....    0
 Multiplicity           Mult            ....    1
 Number of Electrons    NEL             ....  134
 Basis Dimension        Dim             ....  322

ORBITAL ENERGIES
----------------

  NO   OCC          E(Eh)            E(eV)
   0   2.0000     -88.963139     -2420.8101
   1   2.0000     -88.962864     -2420.8026
   2   2.0000     -10.334589      -281.2185
   3   2.0000     -10.327873      -281.0357
   4   2.0000     -10.320999      -280.8487
   5   2.0000     -10.313750      -280.6514
   6   2.0000     -10.309211      -280.5279
   7   2.0000     -10.305160      -280.4177
   8   2.0000     -10.293563      -280.1021
   9   2.0000     -10.289472      -279.9908
  10   2.0000     -10.288849      -279.9738
  11   2.0000     -10.285709      -279.8884
  12   2.0000     -10.284623      -279.8588
  13   2.0000     -10.284437      -279.8538
  14   2.0000     -10.277356      -279.6611
  15   2.0000     -10.275586      -279.6129
  16   2.0000      -8.078896      -219.8379
  17   2.0000      -8.076752      -219.7796
  18   2.0000      -6.037319      -164.2838
  19   2.0000      -6.035323      -164.2295
  20   2.0000      -6.033281      -164.1739
  21   2.0000      -6.031022      -164.1125
  22   2.0000      -6.029643      -164.0749
  23   2.0000      -6.027836      -164.0257
  24   2.0000      -1.010928       -27.5088
  25   2.0000      -0.977730       -26.6054
  26   2.0000      -0.921459       -25.0742
  27   2.0000      -0.914927       -24.8964
  28   2.0000      -0.868172       -23.6242
  29   2.0000      -0.853678       -23.2298
  30   2.0000      -0.843005       -22.9393
  31   2.0000      -0.810281       -22.0489
  32   2.0000      -0.781779       -21.2733
  33   2.0000      -0.765848       -20.8398
  34   2.0000      -0.703808       -19.1516
  35   2.0000      -0.703509       -19.1434
  36   2.0000      -0.690242       -18.7824
  37   2.0000      -0.661009       -17.9870
  38   2.0000      -0.647598       -17.6220
  39   2.0000      -0.611359       -16.6359
  40   2.0000      -0.602230       -16.3875
  41   2.0000      -0.576109       -15.6767
  42   2.0000      -0.569016       -15.4837
  43   2.0000      -0.559934       -15.2366
  44   2.0000      -0.531769       -14.4702
  45   2.0000      -0.526016       -14.3136
  46   2.0000      -0.520443       -14.1620
  47   2.0000      -0.513439       -13.9714
  48   2.0000      -0.506963       -13.7952
  49   2.0000      -0.500760       -13.6264
  50   2.0000      -0.491879       -13.3847
  51   2.0000      -0.482032       -13.1168
  52   2.0000      -0.469048       -12.7634
  53   2.0000      -0.460078       -12.5194
  54   2.0000      -0.453000       -12.3267
  55   2.0000      -0.447149       -12.1675
  56   2.0000      -0.442686       -12.0461
  57   2.0000      -0.439710       -11.9651
  58   2.0000      -0.431939       -11.7536
  59   2.0000      -0.424163       -11.5421
  60   2.0000      -0.420127       -11.4322
  61   2.0000      -0.412426       -11.2227
  62   2.0000      -0.406755       -11.0684
  63   2.0000      -0.336479        -9.1561
  64   2.0000      -0.331579        -9.0227
  65   2.0000      -0.321033        -8.7358
  66   2.0000      -0.304581        -8.2881
  67   0.0000       0.038961         1.0602
  68   0.0000       0.057672         1.5693
  69   0.0000       0.117146         3.1877
  70   0.0000       0.120729         3.2852
  71   0.0000       0.128351         3.4926

MULLIKEN ATOMIC CHARGES
-----------------------
   0 S :    0.096048
   1 C :   -0.130396
   2 C :   -0.077235
   3 C :    0.040713
   4 C :   -0.180575
   5 H :    0.043507
   6 C :    0.049514
   7 H :    0.036537
   8 H :    0.014680
   9 C :   -0.127922
  10 H :    0.029383
  11 H :    0.039780
  12 C :   -0.034528
  13 H :    0.023515
  14 H :    0.033613
  15 H :    0.029030
  16 S :    0.124325
  17 C :   -0.054268
  18 C :   -0.034348
  19 C :   -0.030113
  20 C :   -0.203021
  21 H :   -0.005584
  22 C :    0.109969
  23 H :    0.033763
  24 H :    0.014811
  25 C :   -0.090846
  26 H :    0.046243
  27 H :    0.035893
  28 C :   -0.023499
  29 H :    0.019666
  30 H :    0.009988
  31 H :    0.044195
  32 H :    0.069696
  33 H :    0.047468
Sum of atomic charges:   -0.0000000

LOEWDIN ATOMIC CHARGES
----------------------
   0 S :    0.392023
   1 C :   -0.203436
   2 C :   -0.058202
   3 C :   -0.068383
   4 C :   -0.184113
   5 H :    0.045582
   6 C :   -0.044598
   7 H :    0.030772
   8 H :    0.030640
   9 C :   -0.046322
  10 H :    0.017434
  11 H :    0.030677
  12 C :   -0.058894
  13 H :    0.019871
  14 H :    0.024329
  15 H :    0.024272
  16 S :    0.426148
  17 C :   -0.195774
  18 C :   -0.068923
  19 C :   -0.052144
  20 C :   -0.209072
  21 H :    0.019837
  22 C :   -0.024295
  23 H :    0.038732
  24 H :    0.028788
  25 C :   -0.038662
  26 H :    0.032599
  27 H :    0.028610
  28 C :   -0.069951
  29 H :    0.019103
  30 H :    0.020406
  31 H :    0.034680
  32 H :    0.031415
  33 H :    0.026851

  Mayer bond orders larger than 0.100000
B(  0-S ,  1-C ) :   1.1496 B(  0-S ,  4-C ) :   1.1596 B(  1-C ,  2-C ) :   1.5409
B(  1-C ,  4-C ) :   0.1096 B(  1-C , 32-H ) :   0.9791 B(  2-C ,  3-C ) :   1.2590
B(  2-C ,  6-C ) :   1.0183 B(  3-C ,  4-C ) :   1.5676 B(  3-C ,  5-H ) :   0.9829
B(  4-C , 20-C ) :   1.0024 B(  6-C ,  7-H ) :   0.9441 B(  6-C ,  8-H ) :   0.9439
B(  6-C ,  9-C ) :   1.0597 B(  9-C , 10-H ) :   0.9549 B(  9-C , 11-H ) :   0.9602
B(  9-C , 12-C ) :   1.0800 B( 12-C , 13-H ) :   0.9768 B( 12-C , 14-H ) :   0.9735
B( 12-C , 15-H ) :   0.9738 B( 16-S , 17-C ) :   1.1527 B( 16-S , 20-C ) :   1.1613
B( 17-C , 18-C ) :   1.6021 B( 17-C , 33-H ) :   0.9697 B( 18-C , 19-C ) :   1.2559
B( 18-C , 21-H ) :   0.9817 B( 19-C , 20-C ) :   1.6007 B( 19-C , 22-C ) :   1.0307
B( 22-C , 23-H ) :   0.9275 B( 22-C , 24-H ) :   0.9248 B( 22-C , 25-C ) :   1.0640
B( 25-C , 26-H ) :   0.9542 B( 25-C , 27-H ) :   0.9529 B( 25-C , 28-C ) :   1.0888
B( 28-C , 29-H ) :   0.9711 B( 28-C , 30-H ) :   0.9656 B( 28-C , 31-H ) :   0.9734

Dispersion correction           -0.013627234
FINAL SINGLE POINT ENERGY     -1339.870754780335

DIPOLE MOMENT
-------------
                                X             Y             Z
Electronic contribution:     20.62729      -5.67536      15.83757
Nuclear contribution   :    -21.12206       6.15264     -15.98351
                        -----------------------------------------
Total Dipole Moment    :     -0.49477       0.47728      -0.14594
                        -----------------------------------------
Magnitude (a.u.)       :      0.70277
Magnitude (Debye)      :      1.78630

Rotational constants in cm-1:     0.020062     0.007526     0.006334
Rotational constants in MHz :   601.454382   225.637956   189.888241

                             ****ORCA TERMINATED NORMALLY****
TOTAL RUN TIME: 0 days 0 hours 0 minutes 21 seconds 40 msec
