                         Program Version 4.2.1 -  RELEASE  -
|  1> ! wB97X-D3 SP def2-SVP
|  2> %pal
|  3> nprocs 24
|  4> end
|  5>
|  6> * xyz 0 1
|  7> S 	 -99.1364 	 2.10365 	 -106.376
|  8> C 	 -100.468 	 2.73117 	 -105.472
|  9> C 	 -100.053 	 3.78328 	 -104.734
| 10> C 	 -98.664 	 4.09707 	 -104.924
| 11> C 	 -97.9773 	 3.21836 	 -105.737
| 12> H 	 -98.1575 	 4.8632 	 -104.439
| 13> C 	 -100.931 	 4.62938 	 -103.731
| 14> H 	 -101.817 	 4.99378 	 -104.21
| 15> H 	 -100.484 	 5.63014 	 -103.649
| 16> C 	 -101.276 	 4.06496 	 -102.388
| 17> H 	 -101.469 	 2.9369 	 -102.427
| 18> H 	 -100.359 	 4.2623 	 -101.895
| 19> C 	 -102.462 	 4.72227 	 -101.739
| 20> H 	 -103.406 	 4.41077 	 -102.201
| 21> H 	 -102.524 	 4.74233 	 -100.652
| 22> H 	 -102.421 	 5.8034 	 -101.951
| 23> S 	 -96.1312 	 2.74948 	 -107.739
| 24> C 	 -94.4987 	 2.66658 	 -107.345
| 25> C 	 -94.2168 	 3.09047 	 -106.071
| 26> C 	 -95.3841 	 3.50602 	 -105.379
| 27> C 	 -96.5371 	 3.09226 	 -106.054
| 28> H 	 -93.1423 	 2.95991 	 -105.76
| 29> C 	 -95.3615 	 3.92622 	 -103.907
| 30> H 	 -94.5158 	 3.4962 	 -103.428
| 31> H 	 -96.2085 	 3.48398 	 -103.388
| 32> C 	 -95.3432 	 5.46528 	 -103.577
| 33> H 	 -96.0536 	 5.99247 	 -104.213
| 34> H 	 -94.3571 	 5.92754 	 -103.758
| 35> C 	 -95.5293 	 5.73009 	 -102.081
| 36> H 	 -94.7906 	 5.27526 	 -101.442
| 37> H 	 -96.4756 	 5.31528 	 -101.669
| 38> H 	 -95.6478 	 6.82998 	 -101.897
| 39> H 	 -101.484 	 2.35702 	 -105.43
| 40> H 	 -93.6898 	 2.49578 	 -108.155
| 41> *
| 42>
| 43>                          ****END OF INPUT****

CARTESIAN COORDINATES (ANGSTROEM)
---------------------------------
  S    -99.136400    2.103650  -106.376000
  C    -100.468000    2.731170  -105.472000
  C    -100.053000    3.783280  -104.734000
  C    -98.664000    4.097070  -104.924000
  C    -97.977300    3.218360  -105.737000
  H    -98.157500    4.863200  -104.439000
  C    -100.931000    4.629380  -103.731000
  H    -101.817000    4.993780  -104.210000
  H    -100.484000    5.630140  -103.649000
  C    -101.276000    4.064960  -102.388000
  H    -101.469000    2.936900  -102.427000
  H    -100.359000    4.262300  -101.895000
  C    -102.462000    4.722270  -101.739000
  H    -103.406000    4.410770  -102.201000
  H    -102.524000    4.742330  -100.652000
  H    -102.421000    5.803400  -101.951000
  S    -96.131200    2.749480  -107.739000
  C    -94.498700    2.666580  -107.345000
  C    -94.216800    3.090470  -106.071000
  C    -95.384100    3.506020  -105.379000
  C    -96.537100    3.092260  -106.054000
  H    -93.142300    2.959910  -105.760000
  C    -95.361500    3.926220  -103.907000
  H    -94.515800    3.496200  -103.428000
  H    -96.208500    3.483980  -103.388000
  C    -95.343200    5.465280  -103.577000
  H    -96.053600    5.992470  -104.213000
  H    -94.357100    5.927540  -103.758000
  C    -95.529300    5.730090  -102.081000
  H    -94.790600    5.275260  -101.442000
  H    -96.475600    5.315280  -101.669000
  H    -95.647800    6.829980  -101.897000
  H    -101.484000    2.357020  -105.430000
  H    -93.689800    2.495780  -108.155000

 Total Charge           Charge          ....    0
 Multiplicity           Mult            ....    1
 Number of Electrons    NEL             ....  134
 Basis Dimension        Dim             ....  322

ORBITAL ENERGIES
----------------

  NO   OCC          E(Eh)            E(eV)
   0   2.0000     -88.965985     -2420.8875
   1   2.0000     -88.963738     -2420.8264
   2   2.0000     -10.332805      -281.1699
   3   2.0000     -10.330789      -281.1151
   4   2.0000     -10.317223      -280.7459
   5   2.0000     -10.310676      -280.5678
   6   2.0000     -10.310342      -280.5587
   7   2.0000     -10.301221      -280.3105
   8   2.0000     -10.296900      -280.1929
   9   2.0000     -10.292677      -280.0780
  10   2.0000     -10.292218      -280.0655
  11   2.0000     -10.290275      -280.0126
  12   2.0000     -10.288274      -279.9582
  13   2.0000     -10.285562      -279.8844
  14   2.0000     -10.283829      -279.8372
  15   2.0000     -10.280348      -279.7425
  16   2.0000      -8.082016      -219.9228
  17   2.0000      -8.079262      -219.8479
  18   2.0000      -6.040276      -164.3643
  19   2.0000      -6.037848      -164.2982
  20   2.0000      -6.036446      -164.2600
  21   2.0000      -6.033498      -164.1798
  22   2.0000      -6.032836      -164.1618
  23   2.0000      -6.030032      -164.0855
  24   2.0000      -1.013617       -27.5819
  25   2.0000      -0.993649       -27.0386
  26   2.0000      -0.915634       -24.9157
  27   2.0000      -0.906676       -24.6719
  28   2.0000      -0.872001       -23.7284
  29   2.0000      -0.856727       -23.3127
  30   2.0000      -0.844628       -22.9835
  31   2.0000      -0.815123       -22.1806
  32   2.0000      -0.784896       -21.3581
  33   2.0000      -0.775451       -21.1011
  34   2.0000      -0.705893       -19.2083
  35   2.0000      -0.701309       -19.0836
  36   2.0000      -0.693946       -18.8832
  37   2.0000      -0.660594       -17.9757
  38   2.0000      -0.638586       -17.3768
  39   2.0000      -0.623332       -16.9617
  40   2.0000      -0.596840       -16.2408
  41   2.0000      -0.574158       -15.6236
  42   2.0000      -0.567359       -15.4386
  43   2.0000      -0.559079       -15.2133
  44   2.0000      -0.526557       -14.3284
  45   2.0000      -0.522424       -14.2159
  46   2.0000      -0.518377       -14.1058
  47   2.0000      -0.507969       -13.8225
  48   2.0000      -0.506510       -13.7828
  49   2.0000      -0.502305       -13.6684
  50   2.0000      -0.498180       -13.5562
  51   2.0000      -0.482956       -13.1419
  52   2.0000      -0.474928       -12.9234
  53   2.0000      -0.469569       -12.7776
  54   2.0000      -0.461306       -12.5528
  55   2.0000      -0.448337       -12.1999
  56   2.0000      -0.444710       -12.1012
  57   2.0000      -0.435495       -11.8504
  58   2.0000      -0.427741       -11.6394
  59   2.0000      -0.424642       -11.5551
  60   2.0000      -0.419429       -11.4132
  61   2.0000      -0.417672       -11.3654
  62   2.0000      -0.407079       -11.0772
  63   2.0000      -0.356887        -9.7114
  64   2.0000      -0.333970        -9.0878
  65   2.0000      -0.330866        -9.0033
  66   2.0000      -0.290420        -7.9027
  67   0.0000       0.024707         0.6723
  68   0.0000       0.079583         2.1656
  69   0.0000       0.112230         3.0539
  70   0.0000       0.122374         3.3300
  71   0.0000       0.125930         3.4267

MULLIKEN ATOMIC CHARGES
-----------------------
   0 S :    0.102455
   1 C :   -0.110253
   2 C :   -0.082106
   3 C :    0.046271
   4 C :   -0.121337
   5 H :   -0.042858
   6 C :    0.035356
   7 H :    0.006643
   8 H :    0.013184
   9 C :   -0.033398
  10 H :    0.044724
  11 H :    0.020466
  12 C :   -0.052136
  13 H :    0.036744
  14 H :    0.038731
  15 H :    0.014760
  16 S :    0.112386
  17 C :   -0.120256
  18 C :   -0.060170
  19 C :   -0.003224
  20 C :   -0.127551
  21 H :    0.043529
  22 C :    0.031058
  23 H :    0.012744
  24 H :    0.030623
  25 C :   -0.071273
  26 H :    0.038010
  27 H :    0.032707
  28 C :   -0.067390
  29 H :    0.034018
  30 H :    0.019270
  31 H :    0.044328
  32 H :    0.047831
  33 H :    0.086112
Sum of atomic charges:   -0.0000000

LOEWDIN ATOMIC CHARGES
----------------------
   0 S :    0.421548
   1 C :   -0.200633
   2 C :   -0.062464
   3 C :   -0.065319
   4 C :   -0.196469
   5 H :    0.015308
   6 C :   -0.037222
   7 H :    0.021183
   8 H :    0.030735
   9 C :   -0.047742
  10 H :    0.033179
  11 H :    0.022501
  12 C :   -0.069460
  13 H :    0.028375
  14 H :    0.028803
  15 H :    0.025127
  16 S :    0.427578
  17 C :   -0.219260
  18 C :   -0.086188
  19 C :   -0.051222
  20 C :   -0.189091
  21 H :    0.045605
  22 C :   -0.029213
  23 H :    0.025451
  24 H :    0.031295
  25 C :   -0.040640
  26 H :    0.020829
  27 H :    0.028378
  28 C :   -0.072163
  29 H :    0.023579
  30 H :    0.021415
  31 H :    0.033776
  32 H :    0.035196
  33 H :    0.047224

  Mayer bond orders larger than 0.100000
B(  0-S ,  1-C ) :   1.1375 B(  0-S ,  4-C ) :   1.1630 B(  1-C ,  2-C ) :   1.6226
B(  1-C , 32-H ) :   0.9713 B(  2-C ,  3-C ) :   1.2580 B(  2-C ,  6-C ) :   0.9998
B(  3-C ,  4-C ) :   1.5529 B(  3-C ,  5-H ) :   1.0101 B(  4-C , 20-C ) :   1.0305
B(  6-C ,  7-H ) :   0.9459 B(  6-C ,  8-H ) :   0.9362 B(  6-C ,  9-C ) :   1.0488
B(  9-C , 10-H ) :   0.9609 B(  9-C , 11-H ) :   0.9525 B(  9-C , 12-C ) :   1.0794
B( 12-C , 13-H ) :   0.9733 B( 12-C , 14-H ) :   0.9733 B( 12-C , 15-H ) :   0.9702
B( 16-S , 17-C ) :   1.1786 B( 16-S , 20-C ) :   1.1516 B( 17-C , 18-C ) :   1.6105
B( 17-C , 20-C ) :   0.1013 B( 17-C , 33-H ) :   0.9511 B( 18-C , 19-C ) :   1.2360
B( 18-C , 21-H ) :   0.9850 B( 19-C , 20-C ) :   1.5751 B( 19-C , 22-C ) :   1.0412
B( 22-C , 23-H ) :   0.9422 B( 22-C , 24-H ) :   0.9496 B( 22-C , 25-C ) :   1.0466
B( 25-C , 26-H ) :   0.9579 B( 25-C , 27-H ) :   0.9524 B( 25-C , 28-C ) :   1.0784
B( 28-C , 29-H ) :   0.9743 B( 28-C , 30-H ) :   0.9736 B( 28-C , 31-H ) :   0.9740

Dispersion correction           -0.013765151
FINAL SINGLE POINT ENERGY     -1339.866790841843

DIPOLE MOMENT
-------------
                                X             Y             Z
Electronic contribution:      6.99570     -16.02293     -28.51194
Nuclear contribution   :     -6.87492      16.41133      29.06916
                        -----------------------------------------
Total Dipole Moment    :      0.12079       0.38839       0.55722
                        -----------------------------------------
Magnitude (a.u.)       :      0.68988
Magnitude (Debye)      :      1.75354

Rotational constants in cm-1:     0.018545     0.008667     0.006121
Rotational constants in MHz :   555.973812   259.820264   183.488950

                             ****ORCA TERMINATED NORMALLY****
TOTAL RUN TIME: 0 days 0 hours 0 minutes 21 seconds 399 msec
