                         Program Version 4.2.1 -  RELEASE  -
|  1> ! wB97X-D3 SP def2-SVP
|  2> %pal
|  3> nprocs 24
|  4> end
|  5>
|  6> * xyz 0 1
|  7> S 	 42.959 	 -14.4899 	 -107.768
|  8> C 	 42.3315 	 -15.6866 	 -108.848
|  9> C 	 43.1748 	 -15.9368 	 -109.893
| 10> C 	 44.3357 	 -15.0856 	 -109.849
| 11> C 	 44.3852 	 -14.1907 	 -108.78
| 12> H 	 45.1283 	 -15.1462 	 -110.548
| 13> C 	 42.957 	 -17.0078 	 -110.913
| 14> H 	 42.9928 	 -16.5565 	 -111.883
| 15> H 	 41.9249 	 -17.4186 	 -110.646
| 16> C 	 43.9977 	 -18.1708 	 -110.852
| 17> H 	 43.7685 	 -18.8373 	 -111.775
| 18> H 	 45.0596 	 -17.8664 	 -110.954
| 19> C 	 43.8896 	 -18.8909 	 -109.577
| 20> H 	 42.91 	 -19.2968 	 -109.561
| 21> H 	 44.6146 	 -19.651 	 -109.538
| 22> H 	 43.8955 	 -18.1979 	 -108.797
| 23> S 	 45.3674 	 -11.7411 	 -108.02
| 24> C 	 47.0453 	 -11.6193 	 -107.554
| 25> C 	 47.7775 	 -12.7717 	 -107.87
| 26> C 	 46.9323 	 -13.8761 	 -108.293
| 27> C 	 45.5689 	 -13.4443 	 -108.322
| 28> H 	 48.8628 	 -12.8471 	 -107.664
| 29> C 	 47.5623 	 -15.2064 	 -108.553
| 30> H 	 48.5623 	 -15.0841 	 -108.888
| 31> H 	 47.2981 	 -15.7179 	 -109.493
| 32> C 	 47.6156 	 -16.2081 	 -107.35
| 33> H 	 48.2252 	 -15.7827 	 -106.608
| 34> H 	 48.1437 	 -17.0842 	 -107.816
| 35> C 	 46.2228 	 -16.4597 	 -106.694
| 36> H 	 46.3075 	 -16.8773 	 -105.65
| 37> H 	 45.5308 	 -17.0992 	 -107.291
| 38> H 	 45.8052 	 -15.4558 	 -106.45
| 39> H 	 41.3896 	 -16.0864 	 -108.635
| 40> H 	 47.4396 	 -10.7493 	 -107.004
| 41> *
| 42>
| 43>                          ****END OF INPUT****

CARTESIAN COORDINATES (ANGSTROEM)
---------------------------------
  S     42.959000  -14.489900  -107.768000
  C     42.331500  -15.686600  -108.848000
  C     43.174800  -15.936800  -109.893000
  C     44.335700  -15.085600  -109.849000
  C     44.385200  -14.190700  -108.780000
  H     45.128300  -15.146200  -110.548000
  C     42.957000  -17.007800  -110.913000
  H     42.992800  -16.556500  -111.883000
  H     41.924900  -17.418600  -110.646000
  C     43.997700  -18.170800  -110.852000
  H     43.768500  -18.837300  -111.775000
  H     45.059600  -17.866400  -110.954000
  C     43.889600  -18.890900  -109.577000
  H     42.910000  -19.296800  -109.561000
  H     44.614600  -19.651000  -109.538000
  H     43.895500  -18.197900  -108.797000
  S     45.367400  -11.741100  -108.020000
  C     47.045300  -11.619300  -107.554000
  C     47.777500  -12.771700  -107.870000
  C     46.932300  -13.876100  -108.293000
  C     45.568900  -13.444300  -108.322000
  H     48.862800  -12.847100  -107.664000
  C     47.562300  -15.206400  -108.553000
  H     48.562300  -15.084100  -108.888000
  H     47.298100  -15.717900  -109.493000
  C     47.615600  -16.208100  -107.350000
  H     48.225200  -15.782700  -106.608000
  H     48.143700  -17.084200  -107.816000
  C     46.222800  -16.459700  -106.694000
  H     46.307500  -16.877300  -105.650000
  H     45.530800  -17.099200  -107.291000
  H     45.805200  -15.455800  -106.450000
  H     41.389600  -16.086400  -108.635000
  H     47.439600  -10.749300  -107.004000

 Total Charge           Charge          ....    0
 Multiplicity           Mult            ....    1
 Number of Electrons    NEL             ....  134
 Basis Dimension        Dim             ....  322

ORBITAL ENERGIES
----------------

  NO   OCC          E(Eh)            E(eV)
   0   2.0000     -88.969592     -2420.9857
   1   2.0000     -88.962141     -2420.7829
   2   2.0000     -10.332442      -281.1600
   3   2.0000     -10.330031      -281.0944
   4   2.0000     -10.321356      -280.8584
   5   2.0000     -10.312441      -280.6158
   6   2.0000     -10.309712      -280.5415
   7   2.0000     -10.301909      -280.3292
   8   2.0000     -10.298550      -280.2378
   9   2.0000     -10.295979      -280.1678
  10   2.0000     -10.293022      -280.0874
  11   2.0000     -10.291936      -280.0578
  12   2.0000     -10.290790      -280.0266
  13   2.0000     -10.289782      -279.9992
  14   2.0000     -10.280195      -279.7383
  15   2.0000     -10.259250      -279.1684
  16   2.0000      -8.084453      -219.9892
  17   2.0000      -8.077004      -219.7865
  18   2.0000      -6.042834      -164.4339
  19   2.0000      -6.038989      -164.3292
  20   2.0000      -6.035497      -164.2342
  21   2.0000      -6.035306      -164.2290
  22   2.0000      -6.031406      -164.1229
  23   2.0000      -6.027863      -164.0265
  24   2.0000      -1.002715       -27.2853
  25   2.0000      -0.982711       -26.7409
  26   2.0000      -0.918158       -24.9844
  27   2.0000      -0.906160       -24.6579
  28   2.0000      -0.868760       -23.6402
  29   2.0000      -0.849612       -23.1191
  30   2.0000      -0.843304       -22.9475
  31   2.0000      -0.810745       -22.0615
  32   2.0000      -0.784188       -21.3388
  33   2.0000      -0.772725       -21.0269
  34   2.0000      -0.706265       -19.2184
  35   2.0000      -0.692996       -18.8574
  36   2.0000      -0.686447       -18.6792
  37   2.0000      -0.658049       -17.9064
  38   2.0000      -0.645523       -17.5656
  39   2.0000      -0.622398       -16.9363
  40   2.0000      -0.601807       -16.3760
  41   2.0000      -0.569041       -15.4844
  42   2.0000      -0.562969       -15.3192
  43   2.0000      -0.546476       -14.8704
  44   2.0000      -0.540429       -14.7058
  45   2.0000      -0.536421       -14.5968
  46   2.0000      -0.522237       -14.2108
  47   2.0000      -0.503616       -13.7041
  48   2.0000      -0.502471       -13.6729
  49   2.0000      -0.499771       -13.5994
  50   2.0000      -0.487479       -13.2650
  51   2.0000      -0.474902       -12.9227
  52   2.0000      -0.466005       -12.6806
  53   2.0000      -0.464291       -12.6340
  54   2.0000      -0.455642       -12.3986
  55   2.0000      -0.451199       -12.2777
  56   2.0000      -0.441292       -12.0082
  57   2.0000      -0.439007       -11.9460
  58   2.0000      -0.433135       -11.7862
  59   2.0000      -0.426496       -11.6056
  60   2.0000      -0.415908       -11.3174
  61   2.0000      -0.412353       -11.2207
  62   2.0000      -0.408116       -11.1054
  63   2.0000      -0.340982        -9.2786
  64   2.0000      -0.331563        -9.0223
  65   2.0000      -0.327320        -8.9068
  66   2.0000      -0.295064        -8.0291
  67   0.0000       0.025159         0.6846
  68   0.0000       0.070478         1.9178
  69   0.0000       0.104049         2.8313
  70   0.0000       0.119984         3.2649
  71   0.0000       0.124900         3.3987

MULLIKEN ATOMIC CHARGES
-----------------------
   0 S :    0.094784
   1 C :   -0.113233
   2 C :   -0.099022
   3 C :    0.040543
   4 C :   -0.120345
   5 H :   -0.005834
   6 C :    0.069438
   7 H :    0.033870
   8 H :    0.028384
   9 C :   -0.127772
  10 H :    0.040623
  11 H :    0.030958
  12 C :    0.039081
  13 H :   -0.000438
  14 H :    0.026369
  15 H :    0.027461
  16 S :    0.124294
  17 C :   -0.112834
  18 C :   -0.043080
  19 C :   -0.028181
  20 C :   -0.175897
  21 H :    0.037136
  22 C :    0.058221
  23 H :   -0.000751
  24 H :    0.014490
  25 C :   -0.039427
  26 H :    0.015653
  27 H :    0.036733
  28 C :   -0.082123
  29 H :    0.034788
  30 H :    0.051505
  31 H :    0.043298
  32 H :    0.030181
  33 H :    0.071127
Sum of atomic charges:    0.0000000

LOEWDIN ATOMIC CHARGES
----------------------
   0 S :    0.401824
   1 C :   -0.188411
   2 C :   -0.071678
   3 C :   -0.049491
   4 C :   -0.194610
   5 H :    0.021351
   6 C :   -0.029303
   7 H :    0.029282
   8 H :    0.037441
   9 C :   -0.043818
  10 H :    0.030765
  11 H :    0.021587
  12 C :   -0.053114
  13 H :    0.021300
  14 H :    0.021875
  15 H :    0.018725
  16 S :    0.421153
  17 C :   -0.195197
  18 C :   -0.070247
  19 C :   -0.049944
  20 C :   -0.207098
  21 H :    0.037558
  22 C :   -0.046245
  23 H :    0.029402
  24 H :    0.030369
  25 C :   -0.029074
  26 H :    0.015979
  27 H :    0.029854
  28 C :   -0.077872
  29 H :    0.030161
  30 H :    0.027995
  31 H :    0.030721
  32 H :    0.015256
  33 H :    0.033505

  Mayer bond orders larger than 0.100000
B(  0-S ,  1-C ) :   1.1520 B(  0-S ,  4-C ) :   1.1492 B(  1-C ,  2-C ) :   1.5812
B(  1-C , 32-H ) :   0.9785 B(  2-C ,  3-C ) :   1.2407 B(  2-C ,  6-C ) :   1.0272
B(  3-C ,  4-C ) :   1.5645 B(  3-C ,  5-H ) :   1.0078 B(  4-C , 20-C ) :   1.0293
B(  6-C ,  7-H ) :   0.9341 B(  6-C ,  8-H ) :   0.9452 B(  6-C ,  9-C ) :   1.0654
B(  9-C , 10-H ) :   0.9556 B(  9-C , 11-H ) :   0.9570 B(  9-C , 12-C ) :   1.0699
B( 12-C , 13-H ) :   0.9611 B( 12-C , 14-H ) :   0.9696 B( 12-C , 15-H ) :   0.9701
B( 16-S , 17-C ) :   1.1602 B( 16-S , 20-C ) :   1.1640 B( 17-C , 18-C ) :   1.5942
B( 17-C , 33-H ) :   0.9656 B( 18-C , 19-C ) :   1.2540 B( 18-C , 21-H ) :   0.9801
B( 19-C , 20-C ) :   1.5538 B( 19-C , 22-C ) :   1.0489 B( 22-C , 23-H ) :   0.9190
B( 22-C , 24-H ) :   0.9314 B( 22-C , 25-C ) :   1.0668 B( 25-C , 26-H ) :   0.9542
B( 25-C , 27-H ) :   0.9549 B( 25-C , 28-C ) :   1.0779 B( 28-C , 29-H ) :   0.9724
B( 28-C , 30-H ) :   0.9743 B( 28-C , 31-H ) :   0.9646

Dispersion correction           -0.016976114
FINAL SINGLE POINT ENERGY     -1339.871906993582

DIPOLE MOMENT
-------------
                                X             Y             Z
Electronic contribution:     -7.01075      26.48463       4.34569
Nuclear contribution   :      7.43082     -26.97089      -4.53431
                        -----------------------------------------
Total Dipole Moment    :      0.42008      -0.48626      -0.18862
                        -----------------------------------------
Magnitude (a.u.)       :      0.66969
Magnitude (Debye)      :      1.70223

Rotational constants in cm-1:     0.021357     0.009916     0.008035
Rotational constants in MHz :   640.258799   297.280981   240.883280

                             ****ORCA TERMINATED NORMALLY****
TOTAL RUN TIME: 0 days 0 hours 0 minutes 23 seconds 894 msec
