                         Program Version 4.2.1 -  RELEASE  -
|  1> ! wB97X-D3 SP def2-SVP
|  2> %pal
|  3> nprocs 24
|  4> end
|  5>
|  6> * xyz 0 1
|  7> S 	 -67.4427 	 -45.7053 	 -88.7655
|  8> C 	 -66.6859 	 -44.2589 	 -89.425
|  9> C 	 -66.0082 	 -44.6663 	 -90.5924
| 10> C 	 -65.9228 	 -46.0343 	 -90.7419
| 11> C 	 -66.7168 	 -46.7449 	 -89.849
| 12> H 	 -65.4223 	 -46.6355 	 -91.5153
| 13> C 	 -65.2845 	 -43.7075 	 -91.5042
| 14> H 	 -65.1561 	 -42.8248 	 -90.8779
| 15> H 	 -66.0031 	 -43.4127 	 -92.2485
| 16> C 	 -63.9422 	 -44.1569 	 -92.1097
| 17> H 	 -63.2532 	 -44.4974 	 -91.3833
| 18> H 	 -64.1694 	 -45.0028 	 -92.7516
| 19> C 	 -63.3936 	 -43.0325 	 -93.0072
| 20> H 	 -62.9409 	 -42.2173 	 -92.4242
| 21> H 	 -62.6843 	 -43.4328 	 -93.7785
| 22> H 	 -64.1891 	 -42.6419 	 -93.649
| 23> S 	 -68.2646 	 -48.9942 	 -90.2853
| 24> C 	 -67.5361 	 -50.4897 	 -90.2121
| 25> C 	 -66.1793 	 -50.3799 	 -89.9664
| 26> C 	 -65.766 	 -49.0541 	 -89.7015
| 27> C 	 -66.7804 	 -48.1525 	 -89.8298
| 28> H 	 -65.6748 	 -51.3303 	 -89.9656
| 29> C 	 -64.337 	 -48.786 	 -89.2982
| 30> H 	 -64.1883 	 -49.2885 	 -88.3337
| 31> H 	 -64.217 	 -47.662 	 -89.0799
| 32> C 	 -63.3683 	 -49.1777 	 -90.3772
| 33> H 	 -63.5545 	 -48.6905 	 -91.3749
| 34> H 	 -63.4171 	 -50.2598 	 -90.5207
| 35> C 	 -61.9529 	 -48.9074 	 -89.9441
| 36> H 	 -61.2575 	 -49.053 	 -90.7353
| 37> H 	 -61.773 	 -49.5458 	 -89.0224
| 38> H 	 -61.862 	 -47.8421 	 -89.6739
| 39> H 	 -66.7609 	 -43.226 	 -89.0321
| 40> H 	 -67.9862 	 -51.4989 	 -90.5082
| 41> *
| 42>
| 43>                          ****END OF INPUT****

CARTESIAN COORDINATES (ANGSTROEM)
---------------------------------
  S    -67.442700  -45.705300  -88.765500
  C    -66.685900  -44.258900  -89.425000
  C    -66.008200  -44.666300  -90.592400
  C    -65.922800  -46.034300  -90.741900
  C    -66.716800  -46.744900  -89.849000
  H    -65.422300  -46.635500  -91.515300
  C    -65.284500  -43.707500  -91.504200
  H    -65.156100  -42.824800  -90.877900
  H    -66.003100  -43.412700  -92.248500
  C    -63.942200  -44.156900  -92.109700
  H    -63.253200  -44.497400  -91.383300
  H    -64.169400  -45.002800  -92.751600
  C    -63.393600  -43.032500  -93.007200
  H    -62.940900  -42.217300  -92.424200
  H    -62.684300  -43.432800  -93.778500
  H    -64.189100  -42.641900  -93.649000
  S    -68.264600  -48.994200  -90.285300
  C    -67.536100  -50.489700  -90.212100
  C    -66.179300  -50.379900  -89.966400
  C    -65.766000  -49.054100  -89.701500
  C    -66.780400  -48.152500  -89.829800
  H    -65.674800  -51.330300  -89.965600
  C    -64.337000  -48.786000  -89.298200
  H    -64.188300  -49.288500  -88.333700
  H    -64.217000  -47.662000  -89.079900
  C    -63.368300  -49.177700  -90.377200
  H    -63.554500  -48.690500  -91.374900
  H    -63.417100  -50.259800  -90.520700
  C    -61.952900  -48.907400  -89.944100
  H    -61.257500  -49.053000  -90.735300
  H    -61.773000  -49.545800  -89.022400
  H    -61.862000  -47.842100  -89.673900
  H    -66.760900  -43.226000  -89.032100
  H    -67.986200  -51.498900  -90.508200

 Total Charge           Charge          ....    0
 Multiplicity           Mult            ....    1
 Number of Electrons    NEL             ....  134
 Basis Dimension        Dim             ....  322

ORBITAL ENERGIES
----------------

  NO   OCC          E(Eh)            E(eV)
   0   2.0000     -88.966316     -2420.8965
   1   2.0000     -88.961451     -2420.7641
   2   2.0000     -10.317243      -280.7465
   3   2.0000     -10.317069      -280.7417
   4   2.0000     -10.316263      -280.7198
   5   2.0000     -10.314126      -280.6616
   6   2.0000     -10.297431      -280.2073
   7   2.0000     -10.297261      -280.2027
   8   2.0000     -10.292727      -280.0793
   9   2.0000     -10.286998      -279.9235
  10   2.0000     -10.286079      -279.8984
  11   2.0000     -10.285827      -279.8916
  12   2.0000     -10.285509      -279.8829
  13   2.0000     -10.285491      -279.8824
  14   2.0000     -10.283935      -279.8401
  15   2.0000     -10.277258      -279.6584
  16   2.0000      -8.082023      -219.9230
  17   2.0000      -8.077844      -219.8093
  18   2.0000      -6.040290      -164.3646
  19   2.0000      -6.036192      -164.2531
  20   2.0000      -6.036077      -164.2500
  21   2.0000      -6.033283      -164.1740
  22   2.0000      -6.032049      -164.1404
  23   2.0000      -6.028738      -164.0503
  24   2.0000      -1.018487       -27.7144
  25   2.0000      -0.994341       -27.0574
  26   2.0000      -0.917847       -24.9759
  27   2.0000      -0.915342       -24.9077
  28   2.0000      -0.875388       -23.8205
  29   2.0000      -0.856228       -23.2991
  30   2.0000      -0.848141       -23.0791
  31   2.0000      -0.810898       -22.0656
  32   2.0000      -0.781866       -21.2757
  33   2.0000      -0.769506       -20.9393
  34   2.0000      -0.714281       -19.4366
  35   2.0000      -0.696157       -18.9434
  36   2.0000      -0.691285       -18.8108
  37   2.0000      -0.653902       -17.7936
  38   2.0000      -0.640231       -17.4216
  39   2.0000      -0.618917       -16.8416
  40   2.0000      -0.596450       -16.2302
  41   2.0000      -0.574804       -15.6412
  42   2.0000      -0.571492       -15.5511
  43   2.0000      -0.564339       -15.3564
  44   2.0000      -0.533291       -14.5116
  45   2.0000      -0.525523       -14.3002
  46   2.0000      -0.522900       -14.2288
  47   2.0000      -0.510766       -13.8987
  48   2.0000      -0.501959       -13.6590
  49   2.0000      -0.498670       -13.5695
  50   2.0000      -0.492827       -13.4105
  51   2.0000      -0.479953       -13.0602
  52   2.0000      -0.471683       -12.8351
  53   2.0000      -0.465964       -12.6795
  54   2.0000      -0.461233       -12.5508
  55   2.0000      -0.446445       -12.1484
  56   2.0000      -0.444136       -12.0856
  57   2.0000      -0.440965       -11.9993
  58   2.0000      -0.434642       -11.8272
  59   2.0000      -0.424591       -11.5537
  60   2.0000      -0.417987       -11.3740
  61   2.0000      -0.413374       -11.2485
  62   2.0000      -0.412346       -11.2205
  63   2.0000      -0.337193        -9.1755
  64   2.0000      -0.333763        -9.0822
  65   2.0000      -0.328803        -8.9472
  66   2.0000      -0.295358        -8.0371
  67   0.0000       0.039454         1.0736
  68   0.0000       0.067381         1.8335
  69   0.0000       0.123682         3.3656
  70   0.0000       0.129569         3.5257
  71   0.0000       0.135265         3.6807

MULLIKEN ATOMIC CHARGES
-----------------------
   0 S :    0.131310
   1 C :   -0.153442
   2 C :   -0.073865
   3 C :   -0.003471
   4 C :   -0.171482
   5 H :    0.017937
   6 C :    0.070953
   7 H :    0.008066
   8 H :    0.035492
   9 C :   -0.059113
  10 H :    0.029494
  11 H :    0.029562
  12 C :   -0.056867
  13 H :    0.044951
  14 H :    0.036046
  15 H :    0.025426
  16 S :    0.122587
  17 C :   -0.115469
  18 C :   -0.064431
  19 C :    0.009446
  20 C :   -0.174806
  21 H :    0.012205
  22 C :    0.049525
  23 H :    0.039285
  24 H :    0.040164
  25 C :   -0.108548
  26 H :    0.037916
  27 H :    0.028873
  28 C :   -0.020696
  29 H :    0.029434
  30 H :    0.036143
  31 H :    0.022475
  32 H :    0.064506
  33 H :    0.080393
Sum of atomic charges:   -0.0000000

LOEWDIN ATOMIC CHARGES
----------------------
   0 S :    0.453909
   1 C :   -0.215555
   2 C :   -0.064297
   3 C :   -0.072493
   4 C :   -0.229160
   5 H :    0.034858
   6 C :   -0.031669
   7 H :    0.027197
   8 H :    0.033167
   9 C :   -0.036073
  10 H :    0.020853
  11 H :    0.023910
  12 C :   -0.067524
  13 H :    0.027315
  14 H :    0.030680
  15 H :    0.025760
  16 S :    0.432136
  17 C :   -0.221471
  18 C :   -0.083697
  19 C :   -0.052594
  20 C :   -0.205574
  21 H :    0.029176
  22 C :   -0.034425
  23 H :    0.036020
  24 H :    0.037364
  25 C :   -0.047506
  26 H :    0.028967
  27 H :    0.022504
  28 C :   -0.064046
  29 H :    0.019777
  30 H :    0.032780
  31 H :    0.023469
  32 H :    0.037869
  33 H :    0.048372

  Mayer bond orders larger than 0.100000
B(  0-S ,  1-C ) :   1.1568 B(  0-S ,  4-C ) :   1.2040 B(  1-C ,  2-C ) :   1.5323
B(  1-C ,  4-C ) :   0.1147 B(  1-C , 32-H ) :   0.9717 B(  2-C ,  3-C ) :   1.2989
B(  2-C ,  6-C ) :   1.0118 B(  3-C ,  4-C ) :   1.5042 B(  3-C ,  5-H ) :   0.9972
B(  4-C , 20-C ) :   1.0357 B(  6-C ,  7-H ) :   0.9417 B(  6-C ,  8-H ) :   0.9244
B(  6-C ,  9-C ) :   1.0784 B(  9-C , 10-H ) :   0.9617 B(  9-C , 11-H ) :   0.9429
B(  9-C , 12-C ) :   1.0839 B( 12-C , 13-H ) :   0.9770 B( 12-C , 14-H ) :   0.9744
B( 12-C , 15-H ) :   0.9720 B( 16-S , 17-C ) :   1.1859 B( 16-S , 20-C ) :   1.1383
B( 17-C , 18-C ) :   1.6043 B( 17-C , 33-H ) :   0.9538 B( 18-C , 19-C ) :   1.2234
B( 18-C , 21-H ) :   0.9978 B( 19-C , 20-C ) :   1.6038 B( 19-C , 22-C ) :   1.0369
B( 22-C , 23-H ) :   0.9324 B( 22-C , 24-H ) :   0.9311 B( 22-C , 25-C ) :   1.0674
B( 25-C , 26-H ) :   0.9507 B( 25-C , 27-H ) :   0.9506 B( 25-C , 28-C ) :   1.0955
B( 28-C , 29-H ) :   0.9725 B( 28-C , 30-H ) :   0.9709 B( 28-C , 31-H ) :   0.9711

Dispersion correction           -0.014319079
FINAL SINGLE POINT ENERGY     -1339.880740079409

DIPOLE MOMENT
-------------
                                X             Y             Z
Electronic contribution:    -28.47468      -7.20712      11.12454
Nuclear contribution   :     29.07244       7.20200     -11.46703
                        -----------------------------------------
Total Dipole Moment    :      0.59776      -0.00513      -0.34248
                        -----------------------------------------
Magnitude (a.u.)       :      0.68894
Magnitude (Debye)      :      1.75115

Rotational constants in cm-1:     0.016587     0.009559     0.007042
Rotational constants in MHz :   497.263257   286.560238   211.127345

                             ****ORCA TERMINATED NORMALLY****
TOTAL RUN TIME: 0 days 0 hours 0 minutes 21 seconds 932 msec
