                         Program Version 4.2.1 -  RELEASE  -
|  1> ! wB97X-D3 SP def2-SVP
|  2> %pal
|  3> nprocs 24
|  4> end
|  5>
|  6> * xyz 0 1
|  7> S 	 -82.8911 	 -20.3398 	 -46.5324
|  8> C 	 -83.8304 	 -18.878 	 -46.3589
|  9> C 	 -83.6876 	 -18.1359 	 -47.4616
| 10> C 	 -82.6364 	 -18.5466 	 -48.3637
| 11> C 	 -82.1181 	 -19.7726 	 -48.029
| 12> H 	 -82.1424 	 -18.0266 	 -49.2378
| 13> C 	 -84.3742 	 -16.7827 	 -47.4842
| 14> H 	 -84.416 	 -16.3399 	 -46.4298
| 15> H 	 -85.4157 	 -16.9658 	 -47.7731
| 16> C 	 -83.759 	 -15.7528 	 -48.4403
| 17> H 	 -83.5465 	 -16.1549 	 -49.4628
| 18> H 	 -84.4853 	 -15.0068 	 -48.6822
| 19> C 	 -82.5357 	 -14.9759 	 -47.9297
| 20> H 	 -82.7042 	 -14.5495 	 -47.0021
| 21> H 	 -81.6401 	 -15.6273 	 -47.8341
| 22> H 	 -82.3917 	 -14.1292 	 -48.5554
| 23> S 	 -79.4435 	 -20.6107 	 -47.7653
| 24> C 	 -78.6625 	 -21.1787 	 -49.2618
| 25> C 	 -79.6323 	 -21.5209 	 -50.1774
| 26> C 	 -80.9319 	 -21.2428 	 -49.8335
| 27> C 	 -81.0203 	 -20.5885 	 -48.6365
| 28> H 	 -79.306 	 -21.9853 	 -51.1094
| 29> C 	 -82.0468 	 -21.4376 	 -50.807
| 30> H 	 -81.8074 	 -21.2155 	 -51.8438
| 31> H 	 -82.9091 	 -20.7625 	 -50.5607
| 32> C 	 -82.5689 	 -22.8763 	 -50.8519
| 33> H 	 -82.8491 	 -23.1905 	 -49.8644
| 34> H 	 -81.703 	 -23.5655 	 -51.1149
| 35> C 	 -83.6385 	 -23.0975 	 -51.9201
| 36> H 	 -83.219 	 -23.1491 	 -52.9668
| 37> H 	 -84.4379 	 -22.3901 	 -51.8768
| 38> H 	 -84.0351 	 -24.0583 	 -51.7108
| 39> H 	 -84.4813 	 -18.6763 	 -45.534
| 40> H 	 -77.6162 	 -21.3999 	 -49.3905
| 41> *
| 42>
| 43>                          ****END OF INPUT****

CARTESIAN COORDINATES (ANGSTROEM)
---------------------------------
  S    -82.891100  -20.339800  -46.532400
  C    -83.830400  -18.878000  -46.358900
  C    -83.687600  -18.135900  -47.461600
  C    -82.636400  -18.546600  -48.363700
  C    -82.118100  -19.772600  -48.029000
  H    -82.142400  -18.026600  -49.237800
  C    -84.374200  -16.782700  -47.484200
  H    -84.416000  -16.339900  -46.429800
  H    -85.415700  -16.965800  -47.773100
  C    -83.759000  -15.752800  -48.440300
  H    -83.546500  -16.154900  -49.462800
  H    -84.485300  -15.006800  -48.682200
  C    -82.535700  -14.975900  -47.929700
  H    -82.704200  -14.549500  -47.002100
  H    -81.640100  -15.627300  -47.834100
  H    -82.391700  -14.129200  -48.555400
  S    -79.443500  -20.610700  -47.765300
  C    -78.662500  -21.178700  -49.261800
  C    -79.632300  -21.520900  -50.177400
  C    -80.931900  -21.242800  -49.833500
  C    -81.020300  -20.588500  -48.636500
  H    -79.306000  -21.985300  -51.109400
  C    -82.046800  -21.437600  -50.807000
  H    -81.807400  -21.215500  -51.843800
  H    -82.909100  -20.762500  -50.560700
  C    -82.568900  -22.876300  -50.851900
  H    -82.849100  -23.190500  -49.864400
  H    -81.703000  -23.565500  -51.114900
  C    -83.638500  -23.097500  -51.920100
  H    -83.219000  -23.149100  -52.966800
  H    -84.437900  -22.390100  -51.876800
  H    -84.035100  -24.058300  -51.710800
  H    -84.481300  -18.676300  -45.534000
  H    -77.616200  -21.399900  -49.390500

 Total Charge           Charge          ....    0
 Multiplicity           Mult            ....    1
 Number of Electrons    NEL             ....  134
 Basis Dimension        Dim             ....  322

ORBITAL ENERGIES
----------------

  NO   OCC          E(Eh)            E(eV)
   0   2.0000     -88.965155     -2420.8649
   1   2.0000     -88.957280     -2420.6506
   2   2.0000     -10.332432      -281.1598
   3   2.0000     -10.331022      -281.1214
   4   2.0000     -10.319882      -280.8183
   5   2.0000     -10.307030      -280.4685
   6   2.0000     -10.302094      -280.3342
   7   2.0000     -10.298664      -280.2409
   8   2.0000     -10.297186      -280.2007
   9   2.0000     -10.295626      -280.1582
  10   2.0000     -10.289508      -279.9917
  11   2.0000     -10.289237      -279.9844
  12   2.0000     -10.285746      -279.8894
  13   2.0000     -10.284803      -279.8637
  14   2.0000     -10.276005      -279.6243
  15   2.0000     -10.268664      -279.4246
  16   2.0000      -8.078818      -219.8358
  17   2.0000      -8.072208      -219.6560
  18   2.0000      -6.037423      -164.2866
  19   2.0000      -6.033594      -164.1825
  20   2.0000      -6.030757      -164.1052
  21   2.0000      -6.029398      -164.0683
  22   2.0000      -6.026603      -163.9922
  23   2.0000      -6.022985      -163.8938
  24   2.0000      -1.005050       -27.3488
  25   2.0000      -0.987388       -26.8682
  26   2.0000      -0.909853       -24.7584
  27   2.0000      -0.907029       -24.6815
  28   2.0000      -0.869059       -23.6483
  29   2.0000      -0.853169       -23.2159
  30   2.0000      -0.839305       -22.8386
  31   2.0000      -0.819843       -22.3091
  32   2.0000      -0.782464       -21.2919
  33   2.0000      -0.772736       -21.0272
  34   2.0000      -0.710230       -19.3263
  35   2.0000      -0.693158       -18.8618
  36   2.0000      -0.688765       -18.7422
  37   2.0000      -0.661557       -18.0019
  38   2.0000      -0.643147       -17.5009
  39   2.0000      -0.616106       -16.7651
  40   2.0000      -0.602240       -16.3878
  41   2.0000      -0.566357       -15.4114
  42   2.0000      -0.560285       -15.2461
  43   2.0000      -0.553290       -15.0558
  44   2.0000      -0.529115       -14.3979
  45   2.0000      -0.526140       -14.3170
  46   2.0000      -0.520493       -14.1633
  47   2.0000      -0.514540       -14.0014
  48   2.0000      -0.506674       -13.7873
  49   2.0000      -0.503750       -13.7077
  50   2.0000      -0.488921       -13.3042
  51   2.0000      -0.474777       -12.9193
  52   2.0000      -0.470057       -12.7909
  53   2.0000      -0.464355       -12.6357
  54   2.0000      -0.462592       -12.5878
  55   2.0000      -0.447572       -12.1791
  56   2.0000      -0.440990       -12.0000
  57   2.0000      -0.434962       -11.8359
  58   2.0000      -0.431946       -11.7539
  59   2.0000      -0.425736       -11.5849
  60   2.0000      -0.421609       -11.4726
  61   2.0000      -0.412286       -11.2189
  62   2.0000      -0.402766       -10.9598
  63   2.0000      -0.339225        -9.2308
  64   2.0000      -0.330943        -9.0054
  65   2.0000      -0.324029        -8.8173
  66   2.0000      -0.305341        -8.3088
  67   0.0000       0.035569         0.9679
  68   0.0000       0.057118         1.5543
  69   0.0000       0.113991         3.1019
  70   0.0000       0.127903         3.4804
  71   0.0000       0.133443         3.6312

MULLIKEN ATOMIC CHARGES
-----------------------
   0 S :    0.086523
   1 C :   -0.121143
   2 C :   -0.064736
   3 C :    0.033050
   4 C :   -0.176769
   5 H :    0.043770
   6 C :    0.038188
   7 H :    0.042437
   8 H :    0.037991
   9 C :   -0.099496
  10 H :    0.028074
  11 H :    0.012983
  12 C :   -0.004423
  13 H :    0.004358
  14 H :    0.041290
  15 H :    0.023560
  16 S :    0.102133
  17 C :   -0.086027
  18 C :   -0.053839
  19 C :    0.056797
  20 C :   -0.190445
  21 H :    0.019204
  22 C :    0.055756
  23 H :    0.016808
  24 H :    0.033451
  25 C :   -0.113449
  26 H :    0.025641
  27 H :    0.027564
  28 C :   -0.010412
  29 H :    0.039091
  30 H :    0.026562
  31 H :    0.024586
  32 H :    0.046136
  33 H :    0.054785
Sum of atomic charges:    0.0000000

LOEWDIN ATOMIC CHARGES
----------------------
   0 S :    0.381338
   1 C :   -0.185335
   2 C :   -0.073535
   3 C :   -0.071172
   4 C :   -0.182666
   5 H :    0.048423
   6 C :   -0.035200
   7 H :    0.038783
   8 H :    0.033938
   9 C :   -0.049443
  10 H :    0.026101
  11 H :    0.021178
  12 C :   -0.057261
  13 H :    0.013472
  14 H :    0.029608
  15 H :    0.024412
  16 S :    0.374962
  17 C :   -0.167326
  18 C :   -0.071617
  19 C :   -0.057538
  20 C :   -0.182755
  21 H :    0.033076
  22 C :   -0.033785
  23 H :    0.027404
  24 H :    0.034760
  25 C :   -0.039518
  26 H :    0.019243
  27 H :    0.027495
  28 C :   -0.062256
  29 H :    0.032612
  30 H :    0.019817
  31 H :    0.024804
  32 H :    0.028527
  33 H :    0.029454

  Mayer bond orders larger than 0.100000
B(  0-S ,  1-C ) :   1.1216 B(  0-S ,  4-C ) :   1.1507 B(  1-C ,  2-C ) :   1.6437
B(  1-C , 32-H ) :   0.9793 B(  2-C ,  3-C ) :   1.1958 B(  2-C ,  6-C ) :   1.0028
B(  3-C ,  4-C ) :   1.6248 B(  3-C ,  5-H ) :   0.9824 B(  4-C , 20-C ) :   0.9893
B(  6-C ,  7-H ) :   0.9551 B(  6-C ,  8-H ) :   0.9291 B(  6-C ,  9-C ) :   1.0883
B(  9-C , 10-H ) :   0.9470 B(  9-C , 11-H ) :   0.9503 B(  9-C , 12-C ) :   1.0844
B( 12-C , 13-H ) :   0.9698 B( 12-C , 14-H ) :   0.9758 B( 12-C , 15-H ) :   0.9726
B( 16-S , 17-C ) :   1.1434 B( 16-S , 20-C ) :   1.1331 B( 17-C , 18-C ) :   1.6161
B( 17-C , 20-C ) :   0.1076 B( 17-C , 33-H ) :   0.9683 B( 18-C , 19-C ) :   1.2377
B( 18-C , 21-H ) :   0.9871 B( 19-C , 20-C ) :   1.6006 B( 19-C , 22-C ) :   1.0477
B( 22-C , 23-H ) :   0.9407 B( 22-C , 24-H ) :   0.9282 B( 22-C , 25-C ) :   1.0585
B( 25-C , 26-H ) :   0.9558 B( 25-C , 27-H ) :   0.9556 B( 25-C , 28-C ) :   1.0828
B( 28-C , 29-H ) :   0.9725 B( 28-C , 30-H ) :   0.9739 B( 28-C , 31-H ) :   0.9711

Dispersion correction           -0.013933913
FINAL SINGLE POINT ENERGY     -1339.873936295992

DIPOLE MOMENT
-------------
                                X             Y             Z
Electronic contribution:     12.05269      -8.75202      15.71303
Nuclear contribution   :    -12.26551       9.01502     -16.23268
                        -----------------------------------------
Total Dipole Moment    :     -0.21282       0.26300      -0.51965
                        -----------------------------------------
Magnitude (a.u.)       :      0.62008
Magnitude (Debye)      :      1.57611

Rotational constants in cm-1:     0.017448     0.008217     0.007265
Rotational constants in MHz :   523.090528   246.336424   217.788098

                             ****ORCA TERMINATED NORMALLY****
TOTAL RUN TIME: 0 days 0 hours 0 minutes 21 seconds 922 msec
