                         Program Version 4.2.1 -  RELEASE  -
|  1> ! wB97X-D3 SP def2-SVP
|  2> %pal
|  3> nprocs 24
|  4> end
|  5>
|  6> * xyz 0 1
|  7> S 	 -104.265 	 20.3024 	 -111.684
|  8> C 	 -104.406 	 20.5289 	 -109.914
|  9> C 	 -105.246 	 21.5912 	 -109.623
| 10> C 	 -105.767 	 22.2581 	 -110.776
| 11> C 	 -105.372 	 21.6715 	 -112.024
| 12> H 	 -106.385 	 23.0944 	 -110.735
| 13> C 	 -105.561 	 21.9492 	 -108.209
| 14> H 	 -105.833 	 21.0537 	 -107.624
| 15> H 	 -106.515 	 22.5398 	 -108.121
| 16> C 	 -104.434 	 22.6134 	 -107.488
| 17> H 	 -104.875 	 23.1529 	 -106.612
| 18> H 	 -103.712 	 21.8177 	 -107.334
| 19> C 	 -103.597 	 23.6918 	 -108.17
| 20> H 	 -104.252 	 24.2758 	 -108.706
| 21> H 	 -103.024 	 24.2325 	 -107.459
| 22> H 	 -102.852 	 23.3522 	 -108.906
| 23> S 	 -106.413 	 20.6413 	 -114.253
| 24> C 	 -106.999 	 21.6779 	 -115.516
| 25> C 	 -106.725 	 22.9961 	 -115.373
| 26> C 	 -106.182 	 23.2046 	 -114.045
| 27> C 	 -105.903 	 21.9884 	 -113.342
| 28> H 	 -106.989 	 23.7121 	 -116.147
| 29> C 	 -105.785 	 24.5452 	 -113.493
| 30> H 	 -105.349 	 24.3069 	 -112.451
| 31> H 	 -106.775 	 24.985 	 -113.298
| 32> C 	 -104.875 	 25.4228 	 -114.371
| 33> H 	 -105.169 	 25.4897 	 -115.407
| 34> H 	 -103.944 	 24.9457 	 -114.411
| 35> C 	 -104.735 	 26.8245 	 -113.803
| 36> H 	 -103.851 	 27.3104 	 -114.175
| 37> H 	 -104.462 	 26.6296 	 -112.751
| 38> H 	 -105.662 	 27.462 	 -113.961
| 39> H 	 -103.834 	 19.8759 	 -109.164
| 40> H 	 -107.565 	 21.2356 	 -116.262
| 41> *
| 42>
| 43>                          ****END OF INPUT****

CARTESIAN COORDINATES (ANGSTROEM)
---------------------------------
  S    -104.265000   20.302400  -111.684000
  C    -104.406000   20.528900  -109.914000
  C    -105.246000   21.591200  -109.623000
  C    -105.767000   22.258100  -110.776000
  C    -105.372000   21.671500  -112.024000
  H    -106.385000   23.094400  -110.735000
  C    -105.561000   21.949200  -108.209000
  H    -105.833000   21.053700  -107.624000
  H    -106.515000   22.539800  -108.121000
  C    -104.434000   22.613400  -107.488000
  H    -104.875000   23.152900  -106.612000
  H    -103.712000   21.817700  -107.334000
  C    -103.597000   23.691800  -108.170000
  H    -104.252000   24.275800  -108.706000
  H    -103.024000   24.232500  -107.459000
  H    -102.852000   23.352200  -108.906000
  S    -106.413000   20.641300  -114.253000
  C    -106.999000   21.677900  -115.516000
  C    -106.725000   22.996100  -115.373000
  C    -106.182000   23.204600  -114.045000
  C    -105.903000   21.988400  -113.342000
  H    -106.989000   23.712100  -116.147000
  C    -105.785000   24.545200  -113.493000
  H    -105.349000   24.306900  -112.451000
  H    -106.775000   24.985000  -113.298000
  C    -104.875000   25.422800  -114.371000
  H    -105.169000   25.489700  -115.407000
  H    -103.944000   24.945700  -114.411000
  C    -104.735000   26.824500  -113.803000
  H    -103.851000   27.310400  -114.175000
  H    -104.462000   26.629600  -112.751000
  H    -105.662000   27.462000  -113.961000
  H    -103.834000   19.875900  -109.164000
  H    -107.565000   21.235600  -116.262000

 Total Charge           Charge          ....    0
 Multiplicity           Mult            ....    1
 Number of Electrons    NEL             ....  134
 Basis Dimension        Dim             ....  322

ORBITAL ENERGIES
----------------

  NO   OCC          E(Eh)            E(eV)
   0   2.0000     -88.969635     -2420.9869
   1   2.0000     -88.963023     -2420.8069
   2   2.0000     -10.341158      -281.3972
   3   2.0000     -10.326027      -280.9855
   4   2.0000     -10.323364      -280.9130
   5   2.0000     -10.309453      -280.5345
   6   2.0000     -10.309227      -280.5283
   7   2.0000     -10.302391      -280.3423
   8   2.0000     -10.297700      -280.2147
   9   2.0000     -10.296899      -280.1929
  10   2.0000     -10.294461      -280.1265
  11   2.0000     -10.291239      -280.0388
  12   2.0000     -10.283865      -279.8382
  13   2.0000     -10.280381      -279.7434
  14   2.0000     -10.280297      -279.7411
  15   2.0000     -10.263413      -279.2817
  16   2.0000      -8.082710      -219.9417
  17   2.0000      -8.079278      -219.8483
  18   2.0000      -6.041385      -164.3944
  19   2.0000      -6.037602      -164.2915
  20   2.0000      -6.037367      -164.2851
  21   2.0000      -6.033578      -164.1820
  22   2.0000      -6.033476      -164.1792
  23   2.0000      -6.030128      -164.0881
  24   2.0000      -1.006383       -27.3851
  25   2.0000      -0.979078       -26.6421
  26   2.0000      -0.917499       -24.9664
  27   2.0000      -0.910382       -24.7728
  28   2.0000      -0.871844       -23.7241
  29   2.0000      -0.853291       -23.2192
  30   2.0000      -0.844106       -22.9693
  31   2.0000      -0.816253       -22.2114
  32   2.0000      -0.786183       -21.3931
  33   2.0000      -0.765810       -20.8387
  34   2.0000      -0.707749       -19.2588
  35   2.0000      -0.699513       -19.0347
  36   2.0000      -0.692383       -18.8407
  37   2.0000      -0.660698       -17.9785
  38   2.0000      -0.635306       -17.2875
  39   2.0000      -0.614926       -16.7330
  40   2.0000      -0.596068       -16.2198
  41   2.0000      -0.583656       -15.8821
  42   2.0000      -0.567385       -15.4393
  43   2.0000      -0.555761       -15.1230
  44   2.0000      -0.544809       -14.8250
  45   2.0000      -0.526641       -14.3306
  46   2.0000      -0.520339       -14.1592
  47   2.0000      -0.511941       -13.9306
  48   2.0000      -0.508486       -13.8366
  49   2.0000      -0.495796       -13.4913
  50   2.0000      -0.489540       -13.3211
  51   2.0000      -0.472466       -12.8564
  52   2.0000      -0.469588       -12.7781
  53   2.0000      -0.466719       -12.7001
  54   2.0000      -0.457535       -12.4501
  55   2.0000      -0.451774       -12.2934
  56   2.0000      -0.447042       -12.1646
  57   2.0000      -0.437469       -11.9041
  58   2.0000      -0.432564       -11.7707
  59   2.0000      -0.422529       -11.4976
  60   2.0000      -0.418350       -11.3839
  61   2.0000      -0.412673       -11.2294
  62   2.0000      -0.400964       -10.9108
  63   2.0000      -0.354564        -9.6482
  64   2.0000      -0.331893        -9.0313
  65   2.0000      -0.326837        -8.8937
  66   2.0000      -0.282787        -7.6950
  67   0.0000       0.024539         0.6677
  68   0.0000       0.069237         1.8840
  69   0.0000       0.111788         3.0419
  70   0.0000       0.119524         3.2524
  71   0.0000       0.126349         3.4381

MULLIKEN ATOMIC CHARGES
-----------------------
   0 S :    0.101163
   1 C :   -0.168937
   2 C :   -0.078476
   3 C :    0.061600
   4 C :   -0.150969
   5 H :   -0.009969
   6 C :    0.061310
   7 H :    0.037929
   8 H :    0.021449
   9 C :   -0.100551
  10 H :    0.040888
  11 H :    0.025153
  12 C :    0.001848
  13 H :   -0.003683
  14 H :    0.027969
  15 H :    0.029307
  16 S :    0.107334
  17 C :   -0.071936
  18 C :   -0.015419
  19 C :   -0.064727
  20 C :   -0.151092
  21 H :    0.029690
  22 C :    0.026154
  23 H :    0.036963
  24 H :    0.032716
  25 C :   -0.042079
  26 H :    0.022558
  27 H :    0.021067
  28 C :   -0.051759
  29 H :    0.027627
  30 H :    0.027465
  31 H :    0.053273
  32 H :    0.085243
  33 H :    0.030893
Sum of atomic charges:    0.0000000

LOEWDIN ATOMIC CHARGES
----------------------
   0 S :    0.375755
   1 C :   -0.201465
   2 C :   -0.063756
   3 C :   -0.057547
   4 C :   -0.179407
   5 H :    0.017943
   6 C :   -0.043351
   7 H :    0.038595
   8 H :    0.031154
   9 C :   -0.043852
  10 H :    0.034200
  11 H :    0.022956
  12 C :   -0.060329
  13 H :    0.010115
  14 H :    0.023712
  15 H :    0.028778
  16 S :    0.431338
  17 C :   -0.169234
  18 C :   -0.069574
  19 C :   -0.050484
  20 C :   -0.224030
  21 H :    0.039144
  22 C :   -0.043487
  23 H :    0.039734
  24 H :    0.032344
  25 C :   -0.038487
  26 H :    0.020317
  27 H :    0.022655
  28 C :   -0.067512
  29 H :    0.023166
  30 H :    0.029048
  31 H :    0.034308
  32 H :    0.046634
  33 H :    0.010616

  Mayer bond orders larger than 0.100000
B(  0-S ,  1-C ) :   1.1229 B(  0-S ,  4-C ) :   1.1552 B(  1-C ,  2-C ) :   1.5906
B(  1-C ,  4-C ) :   0.1046 B(  1-C , 32-H ) :   0.9586 B(  2-C ,  3-C ) :   1.2668
B(  2-C ,  6-C ) :   1.0240 B(  3-C ,  4-C ) :   1.5166 B(  3-C ,  5-H ) :   0.9973
B(  4-C , 20-C ) :   1.0644 B(  6-C ,  7-H ) :   0.9434 B(  6-C ,  8-H ) :   0.9373
B(  6-C ,  9-C ) :   1.0735 B(  9-C , 10-H ) :   0.9558 B(  9-C , 11-H ) :   0.9565
B(  9-C , 12-C ) :   1.0905 B( 12-C , 13-H ) :   0.9726 B( 12-C , 14-H ) :   0.9735
B( 12-C , 15-H ) :   0.9669 B( 16-S , 17-C ) :   1.1736 B( 16-S , 20-C ) :   1.1513
B( 17-C , 18-C ) :   1.5969 B( 17-C , 33-H ) :   0.9755 B( 18-C , 19-C ) :   1.2322
B( 18-C , 21-H ) :   0.9952 B( 19-C , 20-C ) :   1.5588 B( 19-C , 22-C ) :   1.0414
B( 22-C , 23-H ) :   0.9290 B( 22-C , 24-H ) :   0.9285 B( 22-C , 25-C ) :   1.0579
B( 25-C , 26-H ) :   0.9550 B( 25-C , 27-H ) :   0.9502 B( 25-C , 28-C ) :   1.0894
B( 28-C , 29-H ) :   0.9723 B( 28-C , 30-H ) :   0.9717 B( 28-C , 31-H ) :   0.9753

Dispersion correction           -0.014117786
FINAL SINGLE POINT ENERGY     -1339.859852972569

DIPOLE MOMENT
-------------
                                X             Y             Z
Electronic contribution:     -5.22301     -24.83766     -13.44899
Nuclear contribution   :      5.07803      25.34445      13.59330
                        -----------------------------------------
Total Dipole Moment    :     -0.14498       0.50678       0.14431
                        -----------------------------------------
Magnitude (a.u.)       :      0.54651
Magnitude (Debye)      :      1.38912

Rotational constants in cm-1:     0.017567     0.009110     0.006569
Rotational constants in MHz :   526.655459   273.108261   196.924754

                             ****ORCA TERMINATED NORMALLY****
TOTAL RUN TIME: 0 days 0 hours 0 minutes 21 seconds 535 msec
