                         Program Version 4.2.1 -  RELEASE  -
|  1> ! wB97X-D3 SP def2-SVP
|  2> %pal
|  3> nprocs 24
|  4> end
|  5>
|  6> * xyz 0 1
|  7> S 	 -56.5596 	 -4.14928 	 -17.7762
|  8> C 	 -57.1393 	 -2.7649 	 -16.9059
|  9> C 	 -58.3601 	 -3.03418 	 -16.2907
| 10> C 	 -58.8585 	 -4.34479 	 -16.4066
| 11> C 	 -58.0501 	 -5.12656 	 -17.265
| 12> H 	 -59.8093 	 -4.76369 	 -15.9839
| 13> C 	 -59.1356 	 -2.12534 	 -15.4178
| 14> H 	 -58.4885 	 -1.36613 	 -14.9507
| 15> H 	 -59.6702 	 -2.74435 	 -14.6294
| 16> C 	 -59.9988 	 -1.28817 	 -16.3281
| 17> H 	 -59.365 	 -0.92375 	 -17.1652
| 18> H 	 -60.7548 	 -1.90473 	 -16.7962
| 19> C 	 -60.6051 	 -0.119051 	 -15.5487
| 20> H 	 -61.3632 	 0.431176 	 -16.0734
| 21> H 	 -60.9633 	 -0.378071 	 -14.5558
| 22> H 	 -59.8379 	 0.595013 	 -15.4078
| 23> S 	 -56.8556 	 -7.52493 	 -17.5896
| 24> C 	 -57.5239 	 -8.76647 	 -18.5644
| 25> C 	 -58.7906 	 -8.45306 	 -18.9322
| 26> C 	 -59.2386 	 -7.18535 	 -18.4429
| 27> C 	 -58.2631 	 -6.51941 	 -17.7159
| 28> H 	 -59.2915 	 -9.16845 	 -19.5939
| 29> C 	 -60.5672 	 -6.52532 	 -18.7326
| 30> H 	 -60.768 	 -5.59289 	 -18.1652
| 31> H 	 -61.2833 	 -7.21309 	 -18.4156
| 32> C 	 -60.649 	 -6.06547 	 -20.1586
| 33> H 	 -61.619 	 -5.55742 	 -20.3179
| 34> H 	 -60.783 	 -6.92638 	 -20.8077
| 35> C 	 -59.5427 	 -5.11879 	 -20.6132
| 36> H 	 -59.9229 	 -4.1395 	 -20.5059
| 37> H 	 -59.3411 	 -5.33055 	 -21.6998
| 38> H 	 -58.6709 	 -5.32737 	 -20.0181
| 39> H 	 -56.6532 	 -1.76159 	 -17.0355
| 40> H 	 -57.0285 	 -9.65541 	 -18.7832
| 41> *
| 42>
| 43>                          ****END OF INPUT****

CARTESIAN COORDINATES (ANGSTROEM)
---------------------------------
  S    -56.559600   -4.149280  -17.776200
  C    -57.139300   -2.764900  -16.905900
  C    -58.360100   -3.034180  -16.290700
  C    -58.858500   -4.344790  -16.406600
  C    -58.050100   -5.126560  -17.265000
  H    -59.809300   -4.763690  -15.983900
  C    -59.135600   -2.125340  -15.417800
  H    -58.488500   -1.366130  -14.950700
  H    -59.670200   -2.744350  -14.629400
  C    -59.998800   -1.288170  -16.328100
  H    -59.365000   -0.923750  -17.165200
  H    -60.754800   -1.904730  -16.796200
  C    -60.605100   -0.119051  -15.548700
  H    -61.363200    0.431176  -16.073400
  H    -60.963300   -0.378071  -14.555800
  H    -59.837900    0.595013  -15.407800
  S    -56.855600   -7.524930  -17.589600
  C    -57.523900   -8.766470  -18.564400
  C    -58.790600   -8.453060  -18.932200
  C    -59.238600   -7.185350  -18.442900
  C    -58.263100   -6.519410  -17.715900
  H    -59.291500   -9.168450  -19.593900
  C    -60.567200   -6.525320  -18.732600
  H    -60.768000   -5.592890  -18.165200
  H    -61.283300   -7.213090  -18.415600
  C    -60.649000   -6.065470  -20.158600
  H    -61.619000   -5.557420  -20.317900
  H    -60.783000   -6.926380  -20.807700
  C    -59.542700   -5.118790  -20.613200
  H    -59.922900   -4.139500  -20.505900
  H    -59.341100   -5.330550  -21.699800
  H    -58.670900   -5.327370  -20.018100
  H    -56.653200   -1.761590  -17.035500
  H    -57.028500   -9.655410  -18.783200

 Total Charge           Charge          ....    0
 Multiplicity           Mult            ....    1
 Number of Electrons    NEL             ....  134
 Basis Dimension        Dim             ....  322

ORBITAL ENERGIES
----------------

  NO   OCC          E(Eh)            E(eV)
   0   2.0000     -88.969870     -2420.9933
   1   2.0000     -88.959218     -2420.7034
   2   2.0000     -10.342850      -281.4432
   3   2.0000     -10.325117      -280.9607
   4   2.0000     -10.319451      -280.8065
   5   2.0000     -10.309025      -280.5228
   6   2.0000     -10.305006      -280.4135
   7   2.0000     -10.302462      -280.3443
   8   2.0000     -10.298462      -280.2354
   9   2.0000     -10.294366      -280.1239
  10   2.0000     -10.290414      -280.0164
  11   2.0000     -10.284834      -279.8646
  12   2.0000     -10.283278      -279.8222
  13   2.0000     -10.276110      -279.6272
  14   2.0000     -10.271473      -279.5010
  15   2.0000     -10.265687      -279.3435
  16   2.0000      -8.082855      -219.9457
  17   2.0000      -8.075319      -219.7406
  18   2.0000      -6.041449      -164.3962
  19   2.0000      -6.037548      -164.2900
  20   2.0000      -6.033667      -164.1844
  21   2.0000      -6.033654      -164.1841
  22   2.0000      -6.029488      -164.0707
  23   2.0000      -6.026305      -163.9841
  24   2.0000      -1.008116       -27.4322
  25   2.0000      -0.984069       -26.7779
  26   2.0000      -0.918391       -24.9907
  27   2.0000      -0.914887       -24.8953
  28   2.0000      -0.869257       -23.6537
  29   2.0000      -0.852849       -23.2072
  30   2.0000      -0.843411       -22.9504
  31   2.0000      -0.815502       -22.1909
  32   2.0000      -0.783689       -21.3253
  33   2.0000      -0.767657       -20.8890
  34   2.0000      -0.703973       -19.1561
  35   2.0000      -0.700314       -19.0565
  36   2.0000      -0.692383       -18.8407
  37   2.0000      -0.657058       -17.8795
  38   2.0000      -0.639147       -17.3921
  39   2.0000      -0.623664       -16.9708
  40   2.0000      -0.601019       -16.3546
  41   2.0000      -0.571362       -15.5476
  42   2.0000      -0.564432       -15.3590
  43   2.0000      -0.561114       -15.2687
  44   2.0000      -0.543785       -14.7971
  45   2.0000      -0.522140       -14.2081
  46   2.0000      -0.518002       -14.0955
  47   2.0000      -0.512822       -13.9546
  48   2.0000      -0.501877       -13.6568
  49   2.0000      -0.495993       -13.4967
  50   2.0000      -0.491414       -13.3721
  51   2.0000      -0.476720       -12.9722
  52   2.0000      -0.472942       -12.8694
  53   2.0000      -0.467615       -12.7245
  54   2.0000      -0.462826       -12.5941
  55   2.0000      -0.445983       -12.1358
  56   2.0000      -0.442263       -12.0346
  57   2.0000      -0.437774       -11.9124
  58   2.0000      -0.434532       -11.8242
  59   2.0000      -0.422484       -11.4964
  60   2.0000      -0.416240       -11.3265
  61   2.0000      -0.405898       -11.0450
  62   2.0000      -0.405002       -11.0207
  63   2.0000      -0.350387        -9.5345
  64   2.0000      -0.330607        -8.9963
  65   2.0000      -0.330366        -8.9897
  66   2.0000      -0.289149        -7.8682
  67   0.0000       0.025735         0.7003
  68   0.0000       0.063213         1.7201
  69   0.0000       0.110467         3.0060
  70   0.0000       0.123184         3.3520
  71   0.0000       0.129291         3.5182

MULLIKEN ATOMIC CHARGES
-----------------------
   0 S :    0.110641
   1 C :   -0.137875
   2 C :   -0.092795
   3 C :    0.023541
   4 C :   -0.140889
   5 H :    0.045085
   6 C :    0.046688
   7 H :    0.017454
   8 H :    0.045382
   9 C :   -0.085275
  10 H :    0.033665
  11 H :    0.016466
  12 C :   -0.000093
  13 H :    0.026362
  14 H :    0.027189
  15 H :    0.013538
  16 S :    0.096847
  17 C :   -0.067860
  18 C :   -0.040747
  19 C :   -0.058954
  20 C :   -0.180130
  21 H :    0.024493
  22 C :    0.112456
  23 H :    0.016926
  24 H :    0.015642
  25 C :   -0.106389
  26 H :    0.019164
  27 H :    0.015758
  28 C :   -0.014849
  29 H :    0.028440
  30 H :    0.037905
  31 H :    0.042993
  32 H :    0.073726
  33 H :    0.035494
Sum of atomic charges:   -0.0000000

LOEWDIN ATOMIC CHARGES
----------------------
   0 S :    0.381603
   1 C :   -0.215310
   2 C :   -0.068477
   3 C :   -0.062578
   4 C :   -0.163490
   5 H :    0.045040
   6 C :   -0.036044
   7 H :    0.029597
   8 H :    0.037941
   9 C :   -0.038152
  10 H :    0.029465
  11 H :    0.017151
  12 C :   -0.063346
  13 H :    0.023263
  14 H :    0.025072
  15 H :    0.019966
  16 S :    0.422477
  17 C :   -0.180383
  18 C :   -0.076541
  19 C :   -0.054937
  20 C :   -0.210632
  21 H :    0.036308
  22 C :   -0.029775
  23 H :    0.032964
  24 H :    0.024407
  25 C :   -0.046839
  26 H :    0.022896
  27 H :    0.014479
  28 C :   -0.057410
  29 H :    0.021633
  30 H :    0.035997
  31 H :    0.023740
  32 H :    0.041046
  33 H :    0.018869

  Mayer bond orders larger than 0.100000
B(  0-S ,  1-C ) :   1.1374 B(  0-S ,  4-C ) :   1.1435 B(  1-C ,  2-C ) :   1.5896
B(  1-C ,  4-C ) :   0.1064 B(  1-C , 32-H ) :   0.9594 B(  2-C ,  3-C ) :   1.2541
B(  2-C ,  6-C ) :   1.0284 B(  3-C ,  4-C ) :   1.5551 B(  3-C ,  5-H ) :   0.9800
B(  4-C , 20-C ) :   1.0421 B(  6-C ,  7-H ) :   0.9419 B(  6-C ,  8-H ) :   0.9422
B(  6-C ,  9-C ) :   1.0482 B(  9-C , 10-H ) :   0.9593 B(  9-C , 11-H ) :   0.9542
B(  9-C , 12-C ) :   1.0766 B( 12-C , 13-H ) :   0.9730 B( 12-C , 14-H ) :   0.9719
B( 12-C , 15-H ) :   0.9716 B( 16-S , 17-C ) :   1.1675 B( 16-S , 20-C ) :   1.1521
B( 17-C , 18-C ) :   1.6003 B( 17-C , 33-H ) :   0.9766 B( 18-C , 19-C ) :   1.2309
B( 18-C , 21-H ) :   0.9960 B( 19-C , 20-C ) :   1.5756 B( 19-C , 22-C ) :   1.0376
B( 22-C , 23-H ) :   0.9388 B( 22-C , 24-H ) :   0.9250 B( 22-C , 25-C ) :   1.0794
B( 25-C , 26-H ) :   0.9579 B( 25-C , 27-H ) :   0.9604 B( 25-C , 28-C ) :   1.0535
B( 28-C , 29-H ) :   0.9774 B( 28-C , 30-H ) :   0.9734 B( 28-C , 31-H ) :   0.9789

Dispersion correction           -0.015243029
FINAL SINGLE POINT ENERGY     -1339.871143747309

DIPOLE MOMENT
-------------
                                X             Y             Z
Electronic contribution:     20.70406     -17.28544       2.38865
Nuclear contribution   :    -21.27752      17.49202      -2.46656
                        -----------------------------------------
Total Dipole Moment    :     -0.57346       0.20658      -0.07791
                        -----------------------------------------
Magnitude (a.u.)       :      0.61450
Magnitude (Debye)      :      1.56193

Rotational constants in cm-1:     0.022694     0.008458     0.007151
Rotational constants in MHz :   680.351184   253.557960   214.368723

                             ****ORCA TERMINATED NORMALLY****
TOTAL RUN TIME: 0 days 0 hours 0 minutes 22 seconds 497 msec
