                         Program Version 4.2.1 -  RELEASE  -
|  1> ! wB97X-D3 SP def2-SVP
|  2> %pal
|  3> nprocs 24
|  4> end
|  5>
|  6> * xyz 0 1
|  7> S 	 -50.5476 	 3.84233 	 -18.1972
|  8> C 	 -50.5909 	 2.1125 	 -18.3653
|  9> C 	 -50.3968 	 1.50073 	 -17.1358
| 10> C 	 -49.9938 	 2.41341 	 -16.1192
| 11> C 	 -49.9668 	 3.73915 	 -16.5455
| 12> H 	 -49.6689 	 2.07832 	 -15.0904
| 13> C 	 -50.6324 	 -0.0440395 	 -16.9537
| 14> H 	 -51.4749 	 -0.459815 	 -17.5215
| 15> H 	 -50.7496 	 -0.243393 	 -15.8243
| 16> C 	 -49.3808 	 -0.92829 	 -17.3977
| 17> H 	 -49.6282 	 -1.98888 	 -17.1989
| 18> H 	 -49.1774 	 -0.876241 	 -18.4676
| 19> C 	 -48.0911 	 -0.438801 	 -16.7645
| 20> H 	 -47.3091 	 -1.2005 	 -16.9319
| 21> H 	 -47.7624 	 0.587205 	 -17.0557
| 22> H 	 -48.2501 	 -0.413939 	 -15.6662
| 23> S 	 -50.806 	 6.19637 	 -15.4789
| 24> C 	 -49.6361 	 7.04638 	 -14.5073
| 25> C 	 -48.557 	 6.30583 	 -14.2513
| 26> C 	 -48.3983 	 5.09014 	 -15.0341
| 27> C 	 -49.5807 	 4.93738 	 -15.7758
| 28> H 	 -47.819 	 6.80347 	 -13.5882
| 29> C 	 -47.1724 	 4.23133 	 -14.9918
| 30> H 	 -47.4814 	 3.20804 	 -14.952
| 31> H 	 -46.7003 	 4.57473 	 -14.0996
| 32> C 	 -46.1539 	 4.41192 	 -16.1441
| 33> H 	 -46.7188 	 4.04698 	 -17.0091
| 34> H 	 -45.2557 	 3.80987 	 -15.9972
| 35> C 	 -45.7232 	 5.79441 	 -16.4988
| 36> H 	 -44.9833 	 6.27773 	 -15.8203
| 37> H 	 -46.537 	 6.47828 	 -16.6585
| 38> H 	 -45.1723 	 5.76006 	 -17.4388
| 39> H 	 -50.9142 	 1.69234 	 -19.3273
| 40> H 	 -49.7688 	 7.99951 	 -14.0428
| 41> *
| 42>
| 43>                          ****END OF INPUT****

CARTESIAN COORDINATES (ANGSTROEM)
---------------------------------
  S    -50.547600    3.842330  -18.197200
  C    -50.590900    2.112500  -18.365300
  C    -50.396800    1.500730  -17.135800
  C    -49.993800    2.413410  -16.119200
  C    -49.966800    3.739150  -16.545500
  H    -49.668900    2.078320  -15.090400
  C    -50.632400   -0.044039  -16.953700
  H    -51.474900   -0.459815  -17.521500
  H    -50.749600   -0.243393  -15.824300
  C    -49.380800   -0.928290  -17.397700
  H    -49.628200   -1.988880  -17.198900
  H    -49.177400   -0.876241  -18.467600
  C    -48.091100   -0.438801  -16.764500
  H    -47.309100   -1.200500  -16.931900
  H    -47.762400    0.587205  -17.055700
  H    -48.250100   -0.413939  -15.666200
  S    -50.806000    6.196370  -15.478900
  C    -49.636100    7.046380  -14.507300
  C    -48.557000    6.305830  -14.251300
  C    -48.398300    5.090140  -15.034100
  C    -49.580700    4.937380  -15.775800
  H    -47.819000    6.803470  -13.588200
  C    -47.172400    4.231330  -14.991800
  H    -47.481400    3.208040  -14.952000
  H    -46.700300    4.574730  -14.099600
  C    -46.153900    4.411920  -16.144100
  H    -46.718800    4.046980  -17.009100
  H    -45.255700    3.809870  -15.997200
  C    -45.723200    5.794410  -16.498800
  H    -44.983300    6.277730  -15.820300
  H    -46.537000    6.478280  -16.658500
  H    -45.172300    5.760060  -17.438800
  H    -50.914200    1.692340  -19.327300
  H    -49.768800    7.999510  -14.042800

 Total Charge           Charge          ....    0
 Multiplicity           Mult            ....    1
 Number of Electrons    NEL             ....  134
 Basis Dimension        Dim             ....  322

ORBITAL ENERGIES
----------------

  NO   OCC          E(Eh)            E(eV)
   0   2.0000     -88.965613     -2420.8774
   1   2.0000     -88.965253     -2420.8676
   2   2.0000     -10.331532      -281.1353
   3   2.0000     -10.330257      -281.1006
   4   2.0000     -10.316819      -280.7349
   5   2.0000     -10.309138      -280.5259
   6   2.0000     -10.307535      -280.4823
   7   2.0000     -10.307385      -280.4782
   8   2.0000     -10.306979      -280.4672
   9   2.0000     -10.303217      -280.3648
  10   2.0000     -10.291139      -280.0361
  11   2.0000     -10.289783      -279.9992
  12   2.0000     -10.288136      -279.9544
  13   2.0000     -10.283603      -279.8311
  14   2.0000     -10.280461      -279.7456
  15   2.0000     -10.270727      -279.4807
  16   2.0000      -8.080311      -219.8764
  17   2.0000      -8.080174      -219.8727
  18   2.0000      -6.038698      -164.3213
  19   2.0000      -6.038675      -164.3207
  20   2.0000      -6.034939      -164.2190
  21   2.0000      -6.034717      -164.2130
  22   2.0000      -6.031256      -164.1188
  23   2.0000      -6.030705      -164.1038
  24   2.0000      -1.004488       -27.3335
  25   2.0000      -0.984395       -26.7867
  26   2.0000      -0.912746       -24.8371
  27   2.0000      -0.901647       -24.5351
  28   2.0000      -0.866875       -23.5889
  29   2.0000      -0.851164       -23.1613
  30   2.0000      -0.842784       -22.9333
  31   2.0000      -0.814112       -22.1531
  32   2.0000      -0.786088       -21.3905
  33   2.0000      -0.769616       -20.9423
  34   2.0000      -0.707056       -19.2400
  35   2.0000      -0.692974       -18.8568
  36   2.0000      -0.686092       -18.6695
  37   2.0000      -0.654517       -17.8103
  38   2.0000      -0.638687       -17.3795
  39   2.0000      -0.613676       -16.6990
  40   2.0000      -0.587682       -15.9916
  41   2.0000      -0.567458       -15.4413
  42   2.0000      -0.563603       -15.3364
  43   2.0000      -0.551223       -14.9995
  44   2.0000      -0.543026       -14.7765
  45   2.0000      -0.535282       -14.5658
  46   2.0000      -0.510932       -13.9032
  47   2.0000      -0.507834       -13.8189
  48   2.0000      -0.502390       -13.6707
  49   2.0000      -0.496929       -13.5221
  50   2.0000      -0.485600       -13.2139
  51   2.0000      -0.476393       -12.9633
  52   2.0000      -0.474290       -12.9061
  53   2.0000      -0.462797       -12.5933
  54   2.0000      -0.456883       -12.4324
  55   2.0000      -0.446901       -12.1608
  56   2.0000      -0.442536       -12.0420
  57   2.0000      -0.440408       -11.9841
  58   2.0000      -0.429420       -11.6851
  59   2.0000      -0.427207       -11.6249
  60   2.0000      -0.422277       -11.4908
  61   2.0000      -0.410406       -11.1677
  62   2.0000      -0.407141       -11.0789
  63   2.0000      -0.344086        -9.3631
  64   2.0000      -0.331753        -9.0275
  65   2.0000      -0.330181        -8.9847
  66   2.0000      -0.294929        -8.0254
  67   0.0000       0.030330         0.8253
  68   0.0000       0.067035         1.8241
  69   0.0000       0.106982         2.9111
  70   0.0000       0.116141         3.1603
  71   0.0000       0.126340         3.4379

MULLIKEN ATOMIC CHARGES
-----------------------
   0 S :    0.108950
   1 C :   -0.138721
   2 C :   -0.082900
   3 C :    0.028307
   4 C :   -0.186815
   5 H :    0.038458
   6 C :    0.028611
   7 H :    0.042105
   8 H :    0.042129
   9 C :   -0.086811
  10 H :    0.037572
  11 H :    0.029493
  12 C :   -0.079034
  13 H :    0.039351
  14 H :    0.060730
  15 H :    0.017706
  16 S :    0.108512
  17 C :   -0.075012
  18 C :   -0.053384
  19 C :   -0.077321
  20 C :   -0.152455
  21 H :    0.027057
  22 C :    0.160305
  23 H :    0.017799
  24 H :    0.006891
  25 C :   -0.070713
  26 H :    0.033914
  27 H :    0.034940
  28 C :   -0.059047
  29 H :    0.025804
  30 H :    0.040024
  31 H :    0.027435
  32 H :    0.062701
  33 H :    0.043420
Sum of atomic charges:    0.0000000

LOEWDIN ATOMIC CHARGES
----------------------
   0 S :    0.411445
   1 C :   -0.199152
   2 C :   -0.069273
   3 C :   -0.069320
   4 C :   -0.199593
   5 H :    0.041342
   6 C :   -0.030664
   7 H :    0.031701
   8 H :    0.036637
   9 C :   -0.046901
  10 H :    0.025954
  11 H :    0.020860
  12 C :   -0.074791
  13 H :    0.028888
  14 H :    0.032398
  15 H :    0.019829
  16 S :    0.388352
  17 C :   -0.183874
  18 C :   -0.077614
  19 C :   -0.048421
  20 C :   -0.191212
  21 H :    0.036103
  22 C :   -0.025225
  23 H :    0.029661
  24 H :    0.027259
  25 C :   -0.037757
  26 H :    0.029296
  27 H :    0.027379
  28 C :   -0.071159
  29 H :    0.024124
  30 H :    0.024772
  31 H :    0.029879
  32 H :    0.031118
  33 H :    0.027962

  Mayer bond orders larger than 0.100000
B(  0-S ,  1-C ) :   1.1559 B(  0-S ,  4-C ) :   1.1666 B(  1-C ,  2-C ) :   1.5786
B(  1-C ,  4-C ) :   0.1046 B(  1-C , 32-H ) :   0.9725 B(  2-C ,  3-C ) :   1.2671
B(  2-C ,  6-C ) :   1.0052 B(  3-C ,  4-C ) :   1.5559 B(  3-C ,  5-H ) :   0.9808
B(  4-C , 20-C ) :   1.0252 B(  6-C ,  7-H ) :   0.9517 B(  6-C ,  8-H ) :   0.9485
B(  6-C ,  9-C ) :   1.0617 B(  9-C , 10-H ) :   0.9589 B(  9-C , 11-H ) :   0.9573
B(  9-C , 12-C ) :   1.0757 B( 12-C , 13-H ) :   0.9720 B( 12-C , 14-H ) :   0.9681
B( 12-C , 15-H ) :   0.9766 B( 16-S , 17-C ) :   1.1195 B( 16-S , 20-C ) :   1.1445
B( 17-C , 18-C ) :   1.6919 B( 17-C , 33-H ) :   0.9629 B( 18-C , 19-C ) :   1.1980
B( 18-C , 21-H ) :   0.9739 B( 19-C , 20-C ) :   1.6008 B( 19-C , 22-C ) :   1.0366
B( 22-C , 23-H ) :   0.9238 B( 22-C , 24-H ) :   0.9214 B( 22-C , 25-C ) :   1.0744
B( 25-C , 26-H ) :   0.9535 B( 25-C , 27-H ) :   0.9559 B( 25-C , 28-C ) :   1.0951
B( 28-C , 29-H ) :   0.9727 B( 28-C , 30-H ) :   0.9686 B( 28-C , 31-H ) :   0.9689

Dispersion correction           -0.015449941
FINAL SINGLE POINT ENERGY     -1339.883802242173

DIPOLE MOMENT
-------------
                                X             Y             Z
Electronic contribution:    -20.01026      16.89720      -1.41547
Nuclear contribution   :     20.40374     -17.29247       1.58303
                        -----------------------------------------
Total Dipole Moment    :      0.39348      -0.39527       0.16755
                        -----------------------------------------
Magnitude (a.u.)       :      0.58236
Magnitude (Debye)      :      1.48023

Rotational constants in cm-1:     0.019761     0.009100     0.007378
Rotational constants in MHz :   592.411266   272.824219   221.185322

                             ****ORCA TERMINATED NORMALLY****
TOTAL RUN TIME: 0 days 0 hours 0 minutes 22 seconds 342 msec
