                         Program Version 4.2.1 -  RELEASE  -
|  1> ! wB97X-D3 SP def2-SVP
|  2> %pal
|  3> nprocs 24
|  4> end
|  5>
|  6> * xyz 0 1
|  7> S 	 47.7543 	 -23.7173 	 -114.792
|  8> C 	 46.1932 	 -23.73 	 -114.065
|  9> C 	 45.9111 	 -22.4703 	 -113.537
| 10> C 	 46.9772 	 -21.5149 	 -113.688
| 11> C 	 48.1208 	 -22.0876 	 -114.301
| 12> H 	 46.9956 	 -20.4721 	 -113.356
| 13> C 	 44.5794 	 -22.2392 	 -112.815
| 14> H 	 43.8909 	 -22.9836 	 -113.255
| 15> H 	 44.1501 	 -21.3092 	 -113.037
| 16> C 	 44.5458 	 -22.5163 	 -111.29
| 17> H 	 45.1247 	 -21.7607 	 -110.825
| 18> H 	 43.4392 	 -22.3417 	 -111.005
| 19> C 	 45.1062 	 -23.937 	 -110.871
| 20> H 	 46.1595 	 -24.0578 	 -111.038
| 21> H 	 44.9774 	 -24.1479 	 -109.785
| 22> H 	 44.5107 	 -24.6841 	 -111.406
| 23> S 	 50.2618 	 -21.8672 	 -115.968
| 24> C 	 51.4153 	 -20.5909 	 -115.728
| 25> C 	 51.22 	 -19.9426 	 -114.524
| 26> C 	 50.1433 	 -20.5329 	 -113.772
| 27> C 	 49.4214 	 -21.4986 	 -114.499
| 28> H 	 51.8743 	 -19.1752 	 -114.18
| 29> C 	 49.7802 	 -19.9296 	 -112.395
| 30> H 	 48.6776 	 -19.8517 	 -112.215
| 31> H 	 50.0577 	 -18.8186 	 -112.244
| 32> C 	 50.3657 	 -20.726 	 -111.23
| 33> H 	 51.4594 	 -21.0081 	 -111.524
| 34> H 	 49.8183 	 -21.619 	 -110.995
| 35> C 	 50.3504 	 -19.9827 	 -109.845
| 36> H 	 49.4398 	 -19.4207 	 -109.609
| 37> H 	 51.1501 	 -19.25 	 -109.86
| 38> H 	 50.6034 	 -20.6506 	 -108.976
| 39> H 	 45.5421 	 -24.6551 	 -113.901
| 40> H 	 52.1388 	 -20.3198 	 -116.463
| 41> *
| 42>
| 43>                          ****END OF INPUT****

CARTESIAN COORDINATES (ANGSTROEM)
---------------------------------
  S     47.754300  -23.717300  -114.792000
  C     46.193200  -23.730000  -114.065000
  C     45.911100  -22.470300  -113.537000
  C     46.977200  -21.514900  -113.688000
  C     48.120800  -22.087600  -114.301000
  H     46.995600  -20.472100  -113.356000
  C     44.579400  -22.239200  -112.815000
  H     43.890900  -22.983600  -113.255000
  H     44.150100  -21.309200  -113.037000
  C     44.545800  -22.516300  -111.290000
  H     45.124700  -21.760700  -110.825000
  H     43.439200  -22.341700  -111.005000
  C     45.106200  -23.937000  -110.871000
  H     46.159500  -24.057800  -111.038000
  H     44.977400  -24.147900  -109.785000
  H     44.510700  -24.684100  -111.406000
  S     50.261800  -21.867200  -115.968000
  C     51.415300  -20.590900  -115.728000
  C     51.220000  -19.942600  -114.524000
  C     50.143300  -20.532900  -113.772000
  C     49.421400  -21.498600  -114.499000
  H     51.874300  -19.175200  -114.180000
  C     49.780200  -19.929600  -112.395000
  H     48.677600  -19.851700  -112.215000
  H     50.057700  -18.818600  -112.244000
  C     50.365700  -20.726000  -111.230000
  H     51.459400  -21.008100  -111.524000
  H     49.818300  -21.619000  -110.995000
  C     50.350400  -19.982700  -109.845000
  H     49.439800  -19.420700  -109.609000
  H     51.150100  -19.250000  -109.860000
  H     50.603400  -20.650600  -108.976000
  H     45.542100  -24.655100  -113.901000
  H     52.138800  -20.319800  -116.463000

 Total Charge           Charge          ....    0
 Multiplicity           Mult            ....    1
 Number of Electrons    NEL             ....  134
 Basis Dimension        Dim             ....  322

ORBITAL ENERGIES
----------------

  NO   OCC          E(Eh)            E(eV)
   0   2.0000     -88.967391     -2420.9258
   1   2.0000     -88.967142     -2420.9190
   2   2.0000     -10.334110      -281.2054
   3   2.0000     -10.330872      -281.1173
   4   2.0000     -10.318530      -280.7815
   5   2.0000     -10.317880      -280.7638
   6   2.0000     -10.311396      -280.5873
   7   2.0000     -10.304255      -280.3930
   8   2.0000     -10.303479      -280.3719
   9   2.0000     -10.301243      -280.3111
  10   2.0000     -10.296534      -280.1829
  11   2.0000     -10.294497      -280.1275
  12   2.0000     -10.291584      -280.0482
  13   2.0000     -10.289225      -279.9840
  14   2.0000     -10.282669      -279.8056
  15   2.0000     -10.282219      -279.7934
  16   2.0000      -8.082672      -219.9407
  17   2.0000      -8.082629      -219.9395
  18   2.0000      -6.041119      -164.3872
  19   2.0000      -6.041072      -164.3859
  20   2.0000      -6.036994      -164.2750
  21   2.0000      -6.036923      -164.2730
  22   2.0000      -6.033576      -164.1820
  23   2.0000      -6.033523      -164.1805
  24   2.0000      -1.009808       -27.4783
  25   2.0000      -0.985868       -26.8268
  26   2.0000      -0.906506       -24.6673
  27   2.0000      -0.901754       -24.5380
  28   2.0000      -0.869797       -23.6684
  29   2.0000      -0.848678       -23.0937
  30   2.0000      -0.839859       -22.8537
  31   2.0000      -0.811919       -22.0934
  32   2.0000      -0.783045       -21.3077
  33   2.0000      -0.771790       -21.0015
  34   2.0000      -0.709393       -19.3036
  35   2.0000      -0.692141       -18.8341
  36   2.0000      -0.686952       -18.6929
  37   2.0000      -0.665994       -18.1226
  38   2.0000      -0.636753       -17.3269
  39   2.0000      -0.619108       -16.8468
  40   2.0000      -0.599140       -16.3034
  41   2.0000      -0.568617       -15.4728
  42   2.0000      -0.557419       -15.1682
  43   2.0000      -0.552305       -15.0290
  44   2.0000      -0.534074       -14.5329
  45   2.0000      -0.521524       -14.1914
  46   2.0000      -0.513737       -13.9795
  47   2.0000      -0.511972       -13.9315
  48   2.0000      -0.506603       -13.7854
  49   2.0000      -0.500681       -13.6242
  50   2.0000      -0.491675       -13.3791
  51   2.0000      -0.477785       -13.0012
  52   2.0000      -0.468859       -12.7583
  53   2.0000      -0.463873       -12.6226
  54   2.0000      -0.457640       -12.4530
  55   2.0000      -0.451559       -12.2875
  56   2.0000      -0.444757       -12.1025
  57   2.0000      -0.435403       -11.8479
  58   2.0000      -0.430765       -11.7217
  59   2.0000      -0.423382       -11.5208
  60   2.0000      -0.419800       -11.4233
  61   2.0000      -0.414083       -11.2678
  62   2.0000      -0.405882       -11.0446
  63   2.0000      -0.357490        -9.7278
  64   2.0000      -0.335616        -9.1326
  65   2.0000      -0.328902        -8.9499
  66   2.0000      -0.283333        -7.7099
  67   0.0000       0.020067         0.5461
  68   0.0000       0.074591         2.0297
  69   0.0000       0.106070         2.8863
  70   0.0000       0.115861         3.1527
  71   0.0000       0.127499         3.4694

MULLIKEN ATOMIC CHARGES
-----------------------
   0 S :    0.113077
   1 C :   -0.143476
   2 C :   -0.109384
   3 C :    0.021498
   4 C :   -0.142858
   5 H :    0.025515
   6 C :    0.069148
   7 H :    0.018530
   8 H :    0.015635
   9 C :   -0.076003
  10 H :    0.021607
  11 H :    0.044719
  12 C :   -0.068292
  13 H :    0.052179
  14 H :    0.039507
  15 H :    0.025204
  16 S :    0.106547
  17 C :   -0.083557
  18 C :   -0.016127
  19 C :   -0.030658
  20 C :   -0.125285
  21 H :    0.016988
  22 C :    0.005891
  23 H :    0.020635
  24 H :    0.037191
  25 C :   -0.087459
  26 H :    0.045574
  27 H :    0.038550
  28 C :   -0.075192
  29 H :    0.034192
  30 H :    0.022610
  31 H :    0.044397
  32 H :    0.084579
  33 H :    0.054518
Sum of atomic charges:   -0.0000000

LOEWDIN ATOMIC CHARGES
----------------------
   0 S :    0.422437
   1 C :   -0.222775
   2 C :   -0.065645
   3 C :   -0.067207
   4 C :   -0.195384
   5 H :    0.033447
   6 C :   -0.031855
   7 H :    0.030323
   8 H :    0.021892
   9 C :   -0.036776
  10 H :    0.013230
  11 H :    0.034471
  12 C :   -0.068771
  13 H :    0.026438
  14 H :    0.031458
  15 H :    0.021723
  16 S :    0.420930
  17 C :   -0.181710
  18 C :   -0.063727
  19 C :   -0.054663
  20 C :   -0.204348
  21 H :    0.030287
  22 C :   -0.045516
  23 H :    0.028453
  24 H :    0.037293
  25 C :   -0.045127
  26 H :    0.033665
  27 H :    0.022057
  28 C :   -0.075462
  29 H :    0.023945
  30 H :    0.019344
  31 H :    0.033090
  32 H :    0.048900
  33 H :    0.025583

  Mayer bond orders larger than 0.100000
B(  0-S ,  1-C ) :   1.1480 B(  0-S ,  4-C ) :   1.1720 B(  1-C ,  2-C ) :   1.5835
B(  1-C ,  4-C ) :   0.1034 B(  1-C , 32-H ) :   0.9572 B(  2-C ,  3-C ) :   1.2647
B(  2-C ,  6-C ) :   1.0214 B(  3-C ,  4-C ) :   1.5275 B(  3-C ,  5-H ) :   0.9904
B(  4-C , 20-C ) :   1.0675 B(  6-C ,  7-H ) :   0.9442 B(  6-C ,  8-H ) :   0.9430
B(  6-C ,  9-C ) :   1.0641 B(  9-C , 10-H ) :   0.9591 B(  9-C , 11-H ) :   0.9579
B(  9-C , 12-C ) :   1.0683 B( 12-C , 13-H ) :   0.9727 B( 12-C , 14-H ) :   0.9750
B( 12-C , 15-H ) :   0.9770 B( 16-S , 17-C ) :   1.1641 B( 16-S , 20-C ) :   1.1466
B( 17-C , 18-C ) :   1.5862 B( 17-C , 33-H ) :   0.9730 B( 18-C , 19-C ) :   1.2568
B( 18-C , 21-H ) :   0.9973 B( 19-C , 20-C ) :   1.5657 B( 19-C , 22-C ) :   1.0310
B( 22-C , 23-H ) :   0.9365 B( 22-C , 24-H ) :   0.9515 B( 22-C , 25-C ) :   1.0481
B( 25-C , 26-H ) :   0.9601 B( 25-C , 27-H ) :   0.9593 B( 25-C , 28-C ) :   1.0663
B( 28-C , 29-H ) :   0.9750 B( 28-C , 30-H ) :   0.9772 B( 28-C , 31-H ) :   0.9769

Dispersion correction           -0.014303538
FINAL SINGLE POINT ENERGY     -1339.878246925581

DIPOLE MOMENT
-------------
                                X             Y             Z
Electronic contribution:      9.45286      -6.24624     -28.03314
Nuclear contribution   :     -9.59493       6.61992      28.53809
                        -----------------------------------------
Total Dipole Moment    :     -0.14207       0.37368       0.50495
                        -----------------------------------------
Magnitude (a.u.)       :      0.64405
Magnitude (Debye)      :      1.63704

Rotational constants in cm-1:     0.017691     0.009409     0.006755
Rotational constants in MHz :   530.370674   282.069180   202.521516

                             ****ORCA TERMINATED NORMALLY****
TOTAL RUN TIME: 0 days 0 hours 0 minutes 21 seconds 618 msec
