                         Program Version 4.2.1 -  RELEASE  -
|  1> ! wB97X-D3 SP def2-SVP
|  2> %pal
|  3> nprocs 24
|  4> end
|  5>
|  6> * xyz 0 1
|  7> S 	 -140.826 	 21.3532 	 -19.5711
|  8> C 	 -142.336 	 21.1857 	 -20.2959
|  9> C 	 -142.985 	 22.3766 	 -20.3381
| 10> C 	 -142.151 	 23.5077 	 -20.0193
| 11> C 	 -141.014 	 23.0007 	 -19.436
| 12> H 	 -142.36 	 24.596 	 -20.0382
| 13> C 	 -144.437 	 22.5818 	 -20.8579
| 14> H 	 -144.851 	 21.6522 	 -21.3331
| 15> H 	 -144.248 	 23.3244 	 -21.6011
| 16> C 	 -145.377 	 23.211 	 -19.8065
| 17> H 	 -145.628 	 22.4913 	 -19.0101
| 18> H 	 -144.933 	 24.1604 	 -19.4152
| 19> C 	 -146.676 	 23.6185 	 -20.6251
| 20> H 	 -147.099 	 22.7653 	 -21.1116
| 21> H 	 -147.455 	 24.0651 	 -20.0559
| 22> H 	 -146.44 	 24.3348 	 -21.4256
| 23> S 	 -139.578 	 25.3773 	 -19.3733
| 24> C 	 -138.735 	 25.779 	 -17.9131
| 25> C 	 -138.841 	 24.8289 	 -16.9663
| 26> C 	 -139.665 	 23.7075 	 -17.3483
| 27> C 	 -140.145 	 23.8217 	 -18.6742
| 28> H 	 -138.285 	 24.9735 	 -16.0373
| 29> C 	 -139.846 	 22.5869 	 -16.4235
| 30> H 	 -139.011 	 22.3907 	 -15.7399
| 31> H 	 -139.866 	 21.722 	 -17.1074
| 32> C 	 -141.056 	 22.7075 	 -15.4744
| 33> H 	 -141.868 	 23.1243 	 -16.0354
| 34> H 	 -140.923 	 23.4251 	 -14.6919
| 35> C 	 -141.429 	 21.3651 	 -14.8449
| 36> H 	 -140.618 	 21.0311 	 -14.2119
| 37> H 	 -141.552 	 20.5996 	 -15.6057
| 38> H 	 -142.264 	 21.4108 	 -14.2367
| 39> H 	 -142.732 	 20.2639 	 -20.6515
| 40> H 	 -138.299 	 26.7172 	 -17.586
| 41> *
| 42>
| 43>                          ****END OF INPUT****

CARTESIAN COORDINATES (ANGSTROEM)
---------------------------------
  S    -140.826000   21.353200  -19.571100
  C    -142.336000   21.185700  -20.295900
  C    -142.985000   22.376600  -20.338100
  C    -142.151000   23.507700  -20.019300
  C    -141.014000   23.000700  -19.436000
  H    -142.360000   24.596000  -20.038200
  C    -144.437000   22.581800  -20.857900
  H    -144.851000   21.652200  -21.333100
  H    -144.248000   23.324400  -21.601100
  C    -145.377000   23.211000  -19.806500
  H    -145.628000   22.491300  -19.010100
  H    -144.933000   24.160400  -19.415200
  C    -146.676000   23.618500  -20.625100
  H    -147.099000   22.765300  -21.111600
  H    -147.455000   24.065100  -20.055900
  H    -146.440000   24.334800  -21.425600
  S    -139.578000   25.377300  -19.373300
  C    -138.735000   25.779000  -17.913100
  C    -138.841000   24.828900  -16.966300
  C    -139.665000   23.707500  -17.348300
  C    -140.145000   23.821700  -18.674200
  H    -138.285000   24.973500  -16.037300
  C    -139.846000   22.586900  -16.423500
  H    -139.011000   22.390700  -15.739900
  H    -139.866000   21.722000  -17.107400
  C    -141.056000   22.707500  -15.474400
  H    -141.868000   23.124300  -16.035400
  H    -140.923000   23.425100  -14.691900
  C    -141.429000   21.365100  -14.844900
  H    -140.618000   21.031100  -14.211900
  H    -141.552000   20.599600  -15.605700
  H    -142.264000   21.410800  -14.236700
  H    -142.732000   20.263900  -20.651500
  H    -138.299000   26.717200  -17.586000

 Total Charge           Charge          ....    0
 Multiplicity           Mult            ....    1
 Number of Electrons    NEL             ....  134
 Basis Dimension        Dim             ....  322

ORBITAL ENERGIES
----------------

  NO   OCC          E(Eh)            E(eV)
   0   2.0000     -88.967238     -2420.9216
   1   2.0000     -88.964289     -2420.8414
   2   2.0000     -10.326840      -281.0076
   3   2.0000     -10.319365      -280.8042
   4   2.0000     -10.307447      -280.4799
   5   2.0000     -10.302796      -280.3533
   6   2.0000     -10.300305      -280.2856
   7   2.0000     -10.300205      -280.2828
   8   2.0000     -10.296648      -280.1860
   9   2.0000     -10.295803      -280.1630
  10   2.0000     -10.294261      -280.1211
  11   2.0000     -10.285730      -279.8890
  12   2.0000     -10.284442      -279.8539
  13   2.0000     -10.276937      -279.6497
  14   2.0000     -10.275388      -279.6075
  15   2.0000     -10.266276      -279.3596
  16   2.0000      -8.084684      -219.9954
  17   2.0000      -8.078297      -219.8216
  18   2.0000      -6.042887      -164.4353
  19   2.0000      -6.038823      -164.3247
  20   2.0000      -6.036957      -164.2740
  21   2.0000      -6.035576      -164.2364
  22   2.0000      -6.032950      -164.1649
  23   2.0000      -6.028919      -164.0552
  24   2.0000      -1.023972       -27.8637
  25   2.0000      -0.986228       -26.8366
  26   2.0000      -0.910450       -24.7746
  27   2.0000      -0.907923       -24.7058
  28   2.0000      -0.878119       -23.8948
  29   2.0000      -0.854340       -23.2478
  30   2.0000      -0.847041       -23.0492
  31   2.0000      -0.814200       -22.1555
  32   2.0000      -0.781653       -21.2699
  33   2.0000      -0.768165       -20.9028
  34   2.0000      -0.712210       -19.3802
  35   2.0000      -0.701935       -19.1006
  36   2.0000      -0.692813       -18.8524
  37   2.0000      -0.663495       -18.0546
  38   2.0000      -0.642971       -17.4961
  39   2.0000      -0.613167       -16.6851
  40   2.0000      -0.594244       -16.1702
  41   2.0000      -0.570687       -15.5292
  42   2.0000      -0.565947       -15.4002
  43   2.0000      -0.557643       -15.1743
  44   2.0000      -0.528564       -14.3829
  45   2.0000      -0.521804       -14.1990
  46   2.0000      -0.519473       -14.1356
  47   2.0000      -0.512922       -13.9573
  48   2.0000      -0.511054       -13.9065
  49   2.0000      -0.496445       -13.5090
  50   2.0000      -0.493817       -13.4374
  51   2.0000      -0.479721       -13.0539
  52   2.0000      -0.471993       -12.8436
  53   2.0000      -0.467038       -12.7088
  54   2.0000      -0.460952       -12.5432
  55   2.0000      -0.452560       -12.3148
  56   2.0000      -0.443222       -12.0607
  57   2.0000      -0.440405       -11.9840
  58   2.0000      -0.435701       -11.8560
  59   2.0000      -0.433071       -11.7845
  60   2.0000      -0.421669       -11.4742
  61   2.0000      -0.412209       -11.2168
  62   2.0000      -0.405136       -11.0243
  63   2.0000      -0.351078        -9.5533
  64   2.0000      -0.330413        -8.9910
  65   2.0000      -0.327773        -8.9192
  66   2.0000      -0.286861        -7.8059
  67   0.0000       0.031452         0.8559
  68   0.0000       0.083736         2.2786
  69   0.0000       0.107448         2.9238
  70   0.0000       0.127013         3.4562
  71   0.0000       0.131824         3.5871

MULLIKEN ATOMIC CHARGES
-----------------------
   0 S :    0.134622
   1 C :   -0.114415
   2 C :   -0.075589
   3 C :   -0.006652
   4 C :   -0.134992
   5 H :    0.039189
   6 C :    0.047365
   7 H :    0.031040
   8 H :    0.024955
   9 C :   -0.088481
  10 H :    0.046802
  11 H :    0.043695
  12 C :   -0.038733
  13 H :    0.019662
  14 H :    0.027109
  15 H :    0.026895
  16 S :    0.096813
  17 C :   -0.069549
  18 C :   -0.054957
  19 C :   -0.032529
  20 C :   -0.154790
  21 H :    0.021391
  22 C :    0.047337
  23 H :    0.020921
  24 H :    0.016586
  25 C :   -0.049231
  26 H :    0.020441
  27 H :    0.016960
  28 C :   -0.004718
  29 H :    0.016162
  30 H :    0.027449
  31 H :    0.018268
  32 H :    0.030734
  33 H :    0.050239
Sum of atomic charges:    0.0000000

LOEWDIN ATOMIC CHARGES
----------------------
   0 S :    0.479148
   1 C :   -0.223108
   2 C :   -0.056945
   3 C :   -0.065659
   4 C :   -0.222638
   5 H :    0.037999
   6 C :   -0.030601
   7 H :    0.031703
   8 H :    0.028237
   9 C :   -0.034416
  10 H :    0.027847
  11 H :    0.029544
  12 C :   -0.065287
  13 H :    0.019564
  14 H :    0.018378
  15 H :    0.026297
  16 S :    0.388893
  17 C :   -0.197070
  18 C :   -0.074694
  19 C :   -0.057217
  20 C :   -0.180975
  21 H :    0.034541
  22 C :   -0.041566
  23 H :    0.032055
  24 H :    0.020328
  25 C :   -0.031999
  26 H :    0.020042
  27 H :    0.020384
  28 C :   -0.055024
  29 H :    0.023306
  30 H :    0.025531
  31 H :    0.015656
  32 H :    0.023041
  33 H :    0.034707

  Mayer bond orders larger than 0.100000
B(  0-S ,  1-C ) :   1.1320 B(  0-S ,  4-C ) :   1.1972 B(  1-C ,  2-C ) :   1.6193
B(  1-C , 32-H ) :   0.9784 B(  2-C ,  3-C ) :   1.2402 B(  2-C ,  6-C ) :   1.0033
B(  3-C ,  4-C ) :   1.5298 B(  3-C ,  5-H ) :   0.9856 B(  4-C , 20-C ) :   1.0568
B(  6-C ,  7-H ) :   0.9508 B(  6-C ,  8-H ) :   0.9426 B(  6-C ,  9-C ) :   1.0593
B(  9-C , 10-H ) :   0.9588 B(  9-C , 11-H ) :   0.9569 B(  9-C , 12-C ) :   1.0702
B( 12-C , 13-H ) :   0.9745 B( 12-C , 14-H ) :   0.9762 B( 12-C , 15-H ) :   0.9774
B( 16-S , 17-C ) :   1.1313 B( 16-S , 20-C ) :   1.1181 B( 17-C , 18-C ) :   1.6627
B( 17-C , 33-H ) :   0.9557 B( 18-C , 19-C ) :   1.2202 B( 18-C , 21-H ) :   0.9860
B( 19-C , 20-C ) :   1.5815 B( 19-C , 22-C ) :   1.0562 B( 22-C , 23-H ) :   0.9313
B( 22-C , 24-H ) :   0.9340 B( 22-C , 25-C ) :   1.0485 B( 25-C , 26-H ) :   0.9577
B( 25-C , 27-H ) :   0.9518 B( 25-C , 28-C ) :   1.0870 B( 28-C , 29-H ) :   0.9711
B( 28-C , 30-H ) :   0.9766 B( 28-C , 31-H ) :   0.9731

Dispersion correction           -0.014145634
FINAL SINGLE POINT ENERGY     -1339.870649263614

DIPOLE MOMENT
-------------
                                X             Y             Z
Electronic contribution:     20.88822       4.21702     -10.14744
Nuclear contribution   :    -21.34262      -4.26326      10.44950
                        -----------------------------------------
Total Dipole Moment    :     -0.45440      -0.04625       0.30206
                        -----------------------------------------
Magnitude (a.u.)       :      0.54759
Magnitude (Debye)      :      1.39187

Rotational constants in cm-1:     0.017373     0.008703     0.007495
Rotational constants in MHz :   520.822062   260.904194   224.702145

                             ****ORCA TERMINATED NORMALLY****
TOTAL RUN TIME: 0 days 0 hours 0 minutes 20 seconds 715 msec
