                         Program Version 4.2.1 -  RELEASE  -
|  1> ! wB97X-D3 SP def2-SVP
|  2> %pal
|  3> nprocs 24
|  4> end
|  5>
|  6> * xyz 0 1
|  7> S 	 -147.35 	 31.4744 	 -14.705
|  8> C 	 -146.339 	 31.0877 	 -16.0521
|  9> C 	 -145.338 	 30.1989 	 -15.779
| 10> C 	 -145.434 	 29.7607 	 -14.3862
| 11> C 	 -146.493 	 30.3543 	 -13.7067
| 12> H 	 -144.986 	 28.9765 	 -13.809
| 13> C 	 -144.405 	 29.6069 	 -16.8306
| 14> H 	 -143.313 	 29.9063 	 -16.633
| 15> H 	 -144.681 	 30.284 	 -17.6297
| 16> C 	 -144.563 	 28.0632 	 -17.0312
| 17> H 	 -144.42 	 27.6018 	 -16.0762
| 18> H 	 -145.542 	 27.7111 	 -17.2994
| 19> C 	 -143.541 	 27.453 	 -18.0376
| 20> H 	 -143.47 	 26.4018 	 -18.0489
| 21> H 	 -143.712 	 27.5705 	 -19.1031
| 22> H 	 -142.515 	 27.9095 	 -18.0394
| 23> S 	 -148.696 	 29.6633 	 -12.1999
| 24> C 	 -148.491 	 29.6346 	 -10.4776
| 25> C 	 -147.195 	 29.6718 	 -10.0899
| 26> C 	 -146.321 	 29.8867 	 -11.1917
| 27> C 	 -147.005 	 30.009 	 -12.4139
| 28> H 	 -146.823 	 29.5803 	 -9.06911
| 29> C 	 -144.873 	 30.2283 	 -10.9745
| 30> H 	 -144.358 	 30.1869 	 -11.9695
| 31> H 	 -144.481 	 29.4331 	 -10.3795
| 32> C 	 -144.735 	 31.6131 	 -10.4117
| 33> H 	 -143.714 	 31.7021 	 -10.029
| 34> H 	 -145.354 	 31.7079 	 -9.54634
| 35> C 	 -145.111 	 32.6654 	 -11.5082
| 36> H 	 -144.313 	 32.555 	 -12.3063
| 37> H 	 -144.954 	 33.6228 	 -11.0276
| 38> H 	 -146.113 	 32.7487 	 -11.9392
| 39> H 	 -146.459 	 31.4338 	 -17.0666
| 40> H 	 -149.303 	 29.42 	 -9.84188
| 41> *
| 42>
| 43>                          ****END OF INPUT****

CARTESIAN COORDINATES (ANGSTROEM)
---------------------------------
  S    -147.350000   31.474400  -14.705000
  C    -146.339000   31.087700  -16.052100
  C    -145.338000   30.198900  -15.779000
  C    -145.434000   29.760700  -14.386200
  C    -146.493000   30.354300  -13.706700
  H    -144.986000   28.976500  -13.809000
  C    -144.405000   29.606900  -16.830600
  H    -143.313000   29.906300  -16.633000
  H    -144.681000   30.284000  -17.629700
  C    -144.563000   28.063200  -17.031200
  H    -144.420000   27.601800  -16.076200
  H    -145.542000   27.711100  -17.299400
  C    -143.541000   27.453000  -18.037600
  H    -143.470000   26.401800  -18.048900
  H    -143.712000   27.570500  -19.103100
  H    -142.515000   27.909500  -18.039400
  S    -148.696000   29.663300  -12.199900
  C    -148.491000   29.634600  -10.477600
  C    -147.195000   29.671800  -10.089900
  C    -146.321000   29.886700  -11.191700
  C    -147.005000   30.009000  -12.413900
  H    -146.823000   29.580300   -9.069110
  C    -144.873000   30.228300  -10.974500
  H    -144.358000   30.186900  -11.969500
  H    -144.481000   29.433100  -10.379500
  C    -144.735000   31.613100  -10.411700
  H    -143.714000   31.702100  -10.029000
  H    -145.354000   31.707900   -9.546340
  C    -145.111000   32.665400  -11.508200
  H    -144.313000   32.555000  -12.306300
  H    -144.954000   33.622800  -11.027600
  H    -146.113000   32.748700  -11.939200
  H    -146.459000   31.433800  -17.066600
  H    -149.303000   29.420000   -9.841880

 Total Charge           Charge          ....    0
 Multiplicity           Mult            ....    1
 Number of Electrons    NEL             ....  134
 Basis Dimension        Dim             ....  322

ORBITAL ENERGIES
----------------

  NO   OCC          E(Eh)            E(eV)
   0   2.0000     -88.966284     -2420.8957
   1   2.0000     -88.964291     -2420.8414
   2   2.0000     -10.323510      -280.9170
   3   2.0000     -10.320716      -280.8410
   4   2.0000     -10.310654      -280.5671
   5   2.0000     -10.309375      -280.5324
   6   2.0000     -10.303833      -280.3815
   7   2.0000     -10.302802      -280.3535
   8   2.0000     -10.296620      -280.1853
   9   2.0000     -10.294046      -280.1152
  10   2.0000     -10.293134      -280.0904
  11   2.0000     -10.290886      -280.0292
  12   2.0000     -10.282744      -279.8077
  13   2.0000     -10.282580      -279.8032
  14   2.0000     -10.278106      -279.6815
  15   2.0000     -10.276353      -279.6338
  16   2.0000      -8.081638      -219.9126
  17   2.0000      -8.079666      -219.8589
  18   2.0000      -6.040126      -164.3602
  19   2.0000      -6.038048      -164.3036
  20   2.0000      -6.036024      -164.2486
  21   2.0000      -6.034194      -164.1988
  22   2.0000      -6.032417      -164.1504
  23   2.0000      -6.030409      -164.0958
  24   2.0000      -1.011214       -27.5165
  25   2.0000      -0.987376       -26.8679
  26   2.0000      -0.913215       -24.8499
  27   2.0000      -0.907304       -24.6890
  28   2.0000      -0.872583       -23.7442
  29   2.0000      -0.847715       -23.0675
  30   2.0000      -0.842296       -22.9200
  31   2.0000      -0.814759       -22.1707
  32   2.0000      -0.782840       -21.3022
  33   2.0000      -0.770408       -20.9639
  34   2.0000      -0.719131       -19.5686
  35   2.0000      -0.701131       -19.0787
  36   2.0000      -0.696179       -18.9440
  37   2.0000      -0.659867       -17.9559
  38   2.0000      -0.644951       -17.5500
  39   2.0000      -0.612168       -16.6579
  40   2.0000      -0.598495       -16.2859
  41   2.0000      -0.570955       -15.5365
  42   2.0000      -0.556198       -15.1349
  43   2.0000      -0.549563       -14.9544
  44   2.0000      -0.538006       -14.6399
  45   2.0000      -0.525035       -14.2869
  46   2.0000      -0.511368       -13.9150
  47   2.0000      -0.507169       -13.8008
  48   2.0000      -0.503398       -13.6982
  49   2.0000      -0.496244       -13.5035
  50   2.0000      -0.493353       -13.4248
  51   2.0000      -0.475586       -12.9413
  52   2.0000      -0.466632       -12.6977
  53   2.0000      -0.461812       -12.5666
  54   2.0000      -0.454982       -12.3807
  55   2.0000      -0.450296       -12.2532
  56   2.0000      -0.447483       -12.1766
  57   2.0000      -0.441437       -12.0121
  58   2.0000      -0.431570       -11.7436
  59   2.0000      -0.428943       -11.6721
  60   2.0000      -0.419336       -11.4107
  61   2.0000      -0.414076       -11.2676
  62   2.0000      -0.411640       -11.2013
  63   2.0000      -0.350218        -9.5299
  64   2.0000      -0.332852        -9.0574
  65   2.0000      -0.328291        -8.9332
  66   2.0000      -0.288715        -7.8563
  67   0.0000       0.030806         0.8383
  68   0.0000       0.079403         2.1607
  69   0.0000       0.114787         3.1235
  70   0.0000       0.116836         3.1793
  71   0.0000       0.133389         3.6297

MULLIKEN ATOMIC CHARGES
-----------------------
   0 S :    0.120068
   1 C :   -0.110760
   2 C :   -0.104080
   3 C :    0.042505
   4 C :   -0.192551
   5 H :    0.015674
   6 C :    0.070281
   7 H :    0.048211
   8 H :    0.006677
   9 C :   -0.019604
  10 H :    0.028421
  11 H :    0.029786
  12 C :   -0.058105
  13 H :    0.022561
  14 H :    0.015887
  15 H :    0.027416
  16 S :    0.115019
  17 C :   -0.074764
  18 C :   -0.020704
  19 C :   -0.070720
  20 C :   -0.165674
  21 H :    0.021624
  22 C :    0.080217
  23 H :    0.013544
  24 H :    0.017503
  25 C :   -0.039802
  26 H :    0.028932
  27 H :    0.014781
  28 C :   -0.060145
  29 H :    0.039998
  30 H :    0.023583
  31 H :    0.053427
  32 H :    0.039694
  33 H :    0.041100
Sum of atomic charges:    0.0000000

LOEWDIN ATOMIC CHARGES
----------------------
   0 S :    0.419677
   1 C :   -0.205640
   2 C :   -0.062150
   3 C :   -0.064507
   4 C :   -0.197278
   5 H :    0.028392
   6 C :   -0.033606
   7 H :    0.041984
   8 H :    0.026800
   9 C :   -0.029740
  10 H :    0.025352
  11 H :    0.027872
  12 C :   -0.079383
  13 H :    0.020952
  14 H :    0.025177
  15 H :    0.030322
  16 S :    0.413101
  17 C :   -0.177901
  18 C :   -0.069616
  19 C :   -0.052168
  20 C :   -0.214101
  21 H :    0.034766
  22 C :   -0.038074
  23 H :    0.031066
  24 H :    0.024634
  25 C :   -0.033103
  26 H :    0.026712
  27 H :    0.016019
  28 C :   -0.065277
  29 H :    0.033367
  30 H :    0.023056
  31 H :    0.028093
  32 H :    0.026379
  33 H :    0.018823

  Mayer bond orders larger than 0.100000
B(  0-S ,  1-C ) :   1.1305 B(  0-S ,  4-C ) :   1.1433 B(  1-C ,  2-C ) :   1.6576
B(  1-C , 32-H ) :   0.9578 B(  2-C ,  3-C ) :   1.1869 B(  2-C ,  6-C ) :   1.0213
B(  3-C ,  4-C ) :   1.6073 B(  3-C ,  5-H ) :   0.9838 B(  4-C , 20-C ) :   1.0603
B(  6-C ,  7-H ) :   0.9369 B(  6-C ,  8-H ) :   0.9383 B(  6-C ,  9-C ) :   1.0444
B(  9-C , 10-H ) :   0.9581 B(  9-C , 11-H ) :   0.9575 B(  9-C , 12-C ) :   1.0698
B( 12-C , 13-H ) :   0.9754 B( 12-C , 14-H ) :   0.9735 B( 12-C , 15-H ) :   0.9753
B( 16-S , 17-C ) :   1.1561 B( 16-S , 20-C ) :   1.1441 B( 17-C , 18-C ) :   1.5933
B( 17-C , 33-H ) :   0.9725 B( 18-C , 19-C ) :   1.2582 B( 18-C , 21-H ) :   0.9889
B( 19-C , 20-C ) :   1.5692 B( 19-C , 22-C ) :   1.0504 B( 22-C , 23-H ) :   0.9281
B( 22-C , 24-H ) :   0.9210 B( 22-C , 25-C ) :   1.0810 B( 25-C , 26-H ) :   0.9527
B( 25-C , 27-H ) :   0.9547 B( 25-C , 28-C ) :   1.0639 B( 28-C , 29-H ) :   0.9747
B( 28-C , 30-H ) :   0.9730 B( 28-C , 31-H ) :   0.9740

Dispersion correction           -0.015245615
FINAL SINGLE POINT ENERGY     -1339.873659293266

DIPOLE MOMENT
-------------
                                X             Y             Z
Electronic contribution:    -22.01960       3.51372       6.30294
Nuclear contribution   :     22.44376      -3.75898      -6.22662
                        -----------------------------------------
Total Dipole Moment    :      0.42415      -0.24526       0.07632
                        -----------------------------------------
Magnitude (a.u.)       :      0.49587
Magnitude (Debye)      :      1.26040

Rotational constants in cm-1:     0.021470     0.007883     0.007418
Rotational constants in MHz :   643.660845   236.339762   222.376326

                             ****ORCA TERMINATED NORMALLY****
TOTAL RUN TIME: 0 days 0 hours 0 minutes 22 seconds 342 msec
