                         Program Version 4.2.1 -  RELEASE  -
|  1> ! wB97X-D3 SP def2-SVP
|  2> %pal
|  3> nprocs 24
|  4> end
|  5>
|  6> * xyz 0 1
|  7> S 	 -18.6545 	 -31.292 	 -105.289
|  8> C 	 -19.295 	 -30.1096 	 -104.18
|  9> C 	 -18.556 	 -29.964 	 -103.043
| 10> C 	 -17.4337 	 -30.9153 	 -103.062
| 11> C 	 -17.3255 	 -31.6431 	 -104.245
| 12> H 	 -16.9073 	 -31.1014 	 -102.16
| 13> C 	 -18.9133 	 -29.0116 	 -101.918
| 14> H 	 -19.702 	 -29.3758 	 -101.317
| 15> H 	 -19.4216 	 -28.1718 	 -102.308
| 16> C 	 -17.7227 	 -28.4926 	 -101.153
| 17> H 	 -18.0315 	 -27.8764 	 -100.348
| 18> H 	 -17.1448 	 -29.3069 	 -100.695
| 19> C 	 -16.7356 	 -27.6376 	 -101.968
| 20> H 	 -16.7927 	 -28.2261 	 -102.925
| 21> H 	 -17.0143 	 -26.5925 	 -102.068
| 22> H 	 -15.7026 	 -27.5882 	 -101.592
| 23> S 	 -17.1835 	 -34.2849 	 -104.959
| 24> C 	 -15.6767 	 -35.0006 	 -105.267
| 25> C 	 -14.6509 	 -34.2075 	 -104.936
| 26> C 	 -15.0892 	 -32.9114 	 -104.453
| 27> C 	 -16.4635 	 -32.7714 	 -104.508
| 28> H 	 -13.6427 	 -34.6358 	 -105.095
| 29> C 	 -14.1072 	 -31.7844 	 -103.882
| 30> H 	 -14.1627 	 -31.8925 	 -102.785
| 31> H 	 -14.6833 	 -30.8969 	 -104.156
| 32> C 	 -12.7131 	 -31.8543 	 -104.354
| 33> H 	 -12.2893 	 -32.7879 	 -104.053
| 34> H 	 -12.1037 	 -31.0608 	 -103.852
| 35> C 	 -12.4543 	 -31.5448 	 -105.79
| 36> H 	 -12.7847 	 -30.5695 	 -106.139
| 37> H 	 -12.9867 	 -32.2845 	 -106.391
| 38> H 	 -11.3815 	 -31.5882 	 -105.939
| 39> H 	 -20.1448 	 -29.5285 	 -104.386
| 40> H 	 -15.5218 	 -35.9404 	 -105.739
| 41> *
| 42>
| 43>                          ****END OF INPUT****

CARTESIAN COORDINATES (ANGSTROEM)
---------------------------------
  S    -18.654500  -31.292000  -105.289000
  C    -19.295000  -30.109600  -104.180000
  C    -18.556000  -29.964000  -103.043000
  C    -17.433700  -30.915300  -103.062000
  C    -17.325500  -31.643100  -104.245000
  H    -16.907300  -31.101400  -102.160000
  C    -18.913300  -29.011600  -101.918000
  H    -19.702000  -29.375800  -101.317000
  H    -19.421600  -28.171800  -102.308000
  C    -17.722700  -28.492600  -101.153000
  H    -18.031500  -27.876400  -100.348000
  H    -17.144800  -29.306900  -100.695000
  C    -16.735600  -27.637600  -101.968000
  H    -16.792700  -28.226100  -102.925000
  H    -17.014300  -26.592500  -102.068000
  H    -15.702600  -27.588200  -101.592000
  S    -17.183500  -34.284900  -104.959000
  C    -15.676700  -35.000600  -105.267000
  C    -14.650900  -34.207500  -104.936000
  C    -15.089200  -32.911400  -104.453000
  C    -16.463500  -32.771400  -104.508000
  H    -13.642700  -34.635800  -105.095000
  C    -14.107200  -31.784400  -103.882000
  H    -14.162700  -31.892500  -102.785000
  H    -14.683300  -30.896900  -104.156000
  C    -12.713100  -31.854300  -104.354000
  H    -12.289300  -32.787900  -104.053000
  H    -12.103700  -31.060800  -103.852000
  C    -12.454300  -31.544800  -105.790000
  H    -12.784700  -30.569500  -106.139000
  H    -12.986700  -32.284500  -106.391000
  H    -11.381500  -31.588200  -105.939000
  H    -20.144800  -29.528500  -104.386000
  H    -15.521800  -35.940400  -105.739000

 Total Charge           Charge          ....    0
 Multiplicity           Mult            ....    1
 Number of Electrons    NEL             ....  134
 Basis Dimension        Dim             ....  322

ORBITAL ENERGIES
----------------

  NO   OCC          E(Eh)            E(eV)
   0   2.0000     -88.966779     -2420.9091
   1   2.0000     -88.960433     -2420.7365
   2   2.0000     -10.330188      -281.0987
   3   2.0000     -10.321108      -280.8516
   4   2.0000     -10.308730      -280.5148
   5   2.0000     -10.306002      -280.4406
   6   2.0000     -10.304690      -280.4049
   7   2.0000     -10.303279      -280.3665
   8   2.0000     -10.298101      -280.2256
   9   2.0000     -10.291845      -280.0553
  10   2.0000     -10.290703      -280.0243
  11   2.0000     -10.287920      -279.9485
  12   2.0000     -10.282756      -279.8080
  13   2.0000     -10.279459      -279.7183
  14   2.0000     -10.276885      -279.6483
  15   2.0000     -10.270097      -279.4636
  16   2.0000      -8.082141      -219.9262
  17   2.0000      -8.076700      -219.7782
  18   2.0000      -6.040659      -164.3747
  19   2.0000      -6.036515      -164.2619
  20   2.0000      -6.035135      -164.2244
  21   2.0000      -6.032888      -164.1632
  22   2.0000      -6.030993      -164.1117
  23   2.0000      -6.027442      -164.0150
  24   2.0000      -1.012827       -27.5604
  25   2.0000      -0.989427       -26.9237
  26   2.0000      -0.920273       -25.0419
  27   2.0000      -0.914167       -24.8758
  28   2.0000      -0.875800       -23.8317
  29   2.0000      -0.848237       -23.0817
  30   2.0000      -0.839842       -22.8533
  31   2.0000      -0.819890       -22.3103
  32   2.0000      -0.789108       -21.4727
  33   2.0000      -0.778341       -21.1797
  34   2.0000      -0.712551       -19.3895
  35   2.0000      -0.694434       -18.8965
  36   2.0000      -0.692430       -18.8420
  37   2.0000      -0.650633       -17.7046
  38   2.0000      -0.641867       -17.4661
  39   2.0000      -0.631298       -17.1785
  40   2.0000      -0.595868       -16.2144
  41   2.0000      -0.575535       -15.6611
  42   2.0000      -0.563560       -15.3353
  43   2.0000      -0.555181       -15.1072
  44   2.0000      -0.544667       -14.8211
  45   2.0000      -0.540758       -14.7148
  46   2.0000      -0.521627       -14.1942
  47   2.0000      -0.508813       -13.8455
  48   2.0000      -0.506770       -13.7899
  49   2.0000      -0.499527       -13.5928
  50   2.0000      -0.498432       -13.5630
  51   2.0000      -0.474342       -12.9075
  52   2.0000      -0.472396       -12.8546
  53   2.0000      -0.464196       -12.6314
  54   2.0000      -0.457026       -12.4363
  55   2.0000      -0.453701       -12.3458
  56   2.0000      -0.444894       -12.1062
  57   2.0000      -0.439723       -11.9655
  58   2.0000      -0.434777       -11.8309
  59   2.0000      -0.429550       -11.6886
  60   2.0000      -0.420017       -11.4292
  61   2.0000      -0.410122       -11.1600
  62   2.0000      -0.396441       -10.7877
  63   2.0000      -0.349706        -9.5160
  64   2.0000      -0.331158        -9.0113
  65   2.0000      -0.325335        -8.8528
  66   2.0000      -0.296865        -8.0781
  67   0.0000       0.032440         0.8827
  68   0.0000       0.077991         2.1222
  69   0.0000       0.122360         3.3296
  70   0.0000       0.124654         3.3920
  71   0.0000       0.129224         3.5164

MULLIKEN ATOMIC CHARGES
-----------------------
   0 S :    0.118621
   1 C :   -0.101136
   2 C :   -0.126487
   3 C :    0.035044
   4 C :   -0.152154
   5 H :    0.005933
   6 C :    0.132192
   7 H :    0.030885
   8 H :    0.000309
   9 C :   -0.075777
  10 H :    0.015589
  11 H :    0.029142
  12 C :   -0.081319
  13 H :    0.050339
  14 H :    0.033129
  15 H :    0.037787
  16 S :    0.113368
  17 C :   -0.075859
  18 C :   -0.060653
  19 C :   -0.068285
  20 C :   -0.157767
  21 H :    0.029372
  22 C :    0.091101
  23 H :    0.045579
  24 H :    0.031272
  25 C :   -0.071287
  26 H :    0.022497
  27 H :    0.027933
  28 C :   -0.031372
  29 H :    0.027408
  30 H :    0.027409
  31 H :    0.030424
  32 H :    0.024968
  33 H :    0.041796
Sum of atomic charges:    0.0000000

LOEWDIN ATOMIC CHARGES
----------------------
   0 S :    0.421663
   1 C :   -0.186463
   2 C :   -0.061993
   3 C :   -0.054262
   4 C :   -0.203397
   5 H :    0.024093
   6 C :   -0.030145
   7 H :    0.034012
   8 H :    0.029473
   9 C :   -0.042814
  10 H :    0.019036
  11 H :    0.023410
  12 C :   -0.073319
  13 H :    0.035503
  14 H :    0.022328
  15 H :    0.027986
  16 S :    0.424358
  17 C :   -0.195558
  18 C :   -0.087893
  19 C :   -0.050728
  20 C :   -0.213686
  21 H :    0.038496
  22 C :   -0.028142
  23 H :    0.036543
  24 H :    0.031793
  25 C :   -0.053068
  26 H :    0.021207
  27 H :    0.033129
  28 C :   -0.059422
  29 H :    0.025125
  30 H :    0.022282
  31 H :    0.026859
  32 H :    0.017191
  33 H :    0.026405

  Mayer bond orders larger than 0.100000
B(  0-S ,  1-C ) :   1.1390 B(  0-S ,  4-C ) :   1.1586 B(  1-C ,  2-C ) :   1.6327
B(  1-C , 32-H ) :   0.9718 B(  2-C ,  3-C ) :   1.2325 B(  2-C ,  6-C ) :   1.0108
B(  3-C ,  4-C ) :   1.5533 B(  3-C ,  5-H ) :   0.9980 B(  4-C , 20-C ) :   1.0456
B(  6-C ,  7-H ) :   0.9284 B(  6-C ,  8-H ) :   0.9294 B(  6-C ,  9-C ) :   1.0835
B(  9-C , 10-H ) :   0.9517 B(  9-C , 11-H ) :   0.9550 B(  9-C , 12-C ) :   1.0637
B( 12-C , 13-H ) :   0.9775 B( 12-C , 14-H ) :   0.9757 B( 12-C , 15-H ) :   0.9756
B( 16-S , 17-C ) :   1.1582 B( 16-S , 20-C ) :   1.1432 B( 17-C , 18-C ) :   1.6422
B( 17-C , 33-H ) :   0.9633 B( 18-C , 19-C ) :   1.2146 B( 18-C , 21-H ) :   0.9864
B( 19-C , 20-C ) :   1.6220 B( 19-C , 22-C ) :   0.9983 B( 22-C , 23-H ) :   0.9363
B( 22-C , 24-H ) :   0.9324 B( 22-C , 25-C ) :   1.0949 B( 25-C , 26-H ) :   0.9413
B( 25-C , 27-H ) :   0.9470 B( 25-C , 28-C ) :   1.0909 B( 28-C , 29-H ) :   0.9715
B( 28-C , 30-H ) :   0.9733 B( 28-C , 31-H ) :   0.9729

Dispersion correction           -0.014455705
FINAL SINGLE POINT ENERGY     -1339.875596961715

DIPOLE MOMENT
-------------
                                X             Y             Z
Electronic contribution:    -17.27816     -18.08969     -10.60397
Nuclear contribution   :     17.51196      18.38129      11.04206
                        -----------------------------------------
Total Dipole Moment    :      0.23381       0.29160       0.43809
                        -----------------------------------------
Magnitude (a.u.)       :      0.57586
Magnitude (Debye)      :      1.46373

Rotational constants in cm-1:     0.018414     0.009278     0.006929
Rotational constants in MHz :   552.022964   278.133838   207.717853

                             ****ORCA TERMINATED NORMALLY****
TOTAL RUN TIME: 0 days 0 hours 0 minutes 22 seconds 56 msec
