                         Program Version 4.2.1 -  RELEASE  -
|  1> ! wB97X-D3 SP def2-SVP
|  2> %pal
|  3> nprocs 24
|  4> end
|  5>
|  6> * xyz 0 1
|  7> S 	 -37.2927 	 -40.3179 	 -74.9532
|  8> C 	 -38.8319 	 -39.5391 	 -75.1312
|  9> C 	 -39.6818 	 -40.2279 	 -76.0052
| 10> C 	 -39.089 	 -41.4388 	 -76.5097
| 11> C 	 -37.7894 	 -41.5817 	 -76.0679
| 12> H 	 -39.4386 	 -42.1231 	 -77.2506
| 13> C 	 -41.011 	 -39.8732 	 -76.5441
| 14> H 	 -41.4087 	 -39.0629 	 -76.0205
| 15> H 	 -41.6556 	 -40.8386 	 -76.4978
| 16> C 	 -41.0962 	 -39.4793 	 -77.9552
| 17> H 	 -40.6152 	 -38.52 	 -78.1871
| 18> H 	 -40.6048 	 -40.2737 	 -78.553
| 19> C 	 -42.5709 	 -39.3908 	 -78.4423
| 20> H 	 -42.6263 	 -38.9275 	 -79.4392
| 21> H 	 -43.0564 	 -40.3446 	 -78.2966
| 22> H 	 -42.9734 	 -38.7004 	 -77.7228
| 23> S 	 -35.6485 	 -43.1721 	 -75.1463
| 24> C 	 -35.1007 	 -44.571 	 -76.0482
| 25> C 	 -35.8606 	 -44.678 	 -77.1855
| 26> C 	 -36.8145 	 -43.6241 	 -77.4485
| 27> C 	 -36.8658 	 -42.6872 	 -76.3864
| 28> H 	 -35.9052 	 -45.6203 	 -77.8057
| 29> C 	 -37.6219 	 -43.6401 	 -78.7239
| 30> H 	 -38.7247 	 -43.7699 	 -78.4281
| 31> H 	 -37.239 	 -44.4215 	 -79.3396
| 32> C 	 -37.453 	 -42.3744 	 -79.6231
| 33> H 	 -36.3565 	 -42.2265 	 -79.5132
| 34> H 	 -38.1031 	 -41.5614 	 -79.1582
| 35> C 	 -38.0053 	 -42.5086 	 -81.0517
| 36> H 	 -37.8281 	 -41.5536 	 -81.5564
| 37> H 	 -39.0662 	 -42.7054 	 -81.1037
| 38> H 	 -37.4897 	 -43.2983 	 -81.7059
| 39> H 	 -39.1845 	 -38.6717 	 -74.5968
| 40> H 	 -34.6847 	 -45.4414 	 -75.5548
| 41> *
| 42>
| 43>                          ****END OF INPUT****

CARTESIAN COORDINATES (ANGSTROEM)
---------------------------------
  S    -37.292700  -40.317900  -74.953200
  C    -38.831900  -39.539100  -75.131200
  C    -39.681800  -40.227900  -76.005200
  C    -39.089000  -41.438800  -76.509700
  C    -37.789400  -41.581700  -76.067900
  H    -39.438600  -42.123100  -77.250600
  C    -41.011000  -39.873200  -76.544100
  H    -41.408700  -39.062900  -76.020500
  H    -41.655600  -40.838600  -76.497800
  C    -41.096200  -39.479300  -77.955200
  H    -40.615200  -38.520000  -78.187100
  H    -40.604800  -40.273700  -78.553000
  C    -42.570900  -39.390800  -78.442300
  H    -42.626300  -38.927500  -79.439200
  H    -43.056400  -40.344600  -78.296600
  H    -42.973400  -38.700400  -77.722800
  S    -35.648500  -43.172100  -75.146300
  C    -35.100700  -44.571000  -76.048200
  C    -35.860600  -44.678000  -77.185500
  C    -36.814500  -43.624100  -77.448500
  C    -36.865800  -42.687200  -76.386400
  H    -35.905200  -45.620300  -77.805700
  C    -37.621900  -43.640100  -78.723900
  H    -38.724700  -43.769900  -78.428100
  H    -37.239000  -44.421500  -79.339600
  C    -37.453000  -42.374400  -79.623100
  H    -36.356500  -42.226500  -79.513200
  H    -38.103100  -41.561400  -79.158200
  C    -38.005300  -42.508600  -81.051700
  H    -37.828100  -41.553600  -81.556400
  H    -39.066200  -42.705400  -81.103700
  H    -37.489700  -43.298300  -81.705900
  H    -39.184500  -38.671700  -74.596800
  H    -34.684700  -45.441400  -75.554800

 Total Charge           Charge          ....    0
 Multiplicity           Mult            ....    1
 Number of Electrons    NEL             ....  134
 Basis Dimension        Dim             ....  322

ORBITAL ENERGIES
----------------

  NO   OCC          E(Eh)            E(eV)
   0   2.0000     -88.971653     -2421.0418
   1   2.0000     -88.964932     -2420.8589
   2   2.0000     -10.339335      -281.3476
   3   2.0000     -10.335016      -281.2301
   4   2.0000     -10.317041      -280.7410
   5   2.0000     -10.316538      -280.7273
   6   2.0000     -10.309187      -280.5272
   7   2.0000     -10.304100      -280.3888
   8   2.0000     -10.300762      -280.2980
   9   2.0000     -10.298064      -280.2246
  10   2.0000     -10.295468      -280.1539
  11   2.0000     -10.294631      -280.1312
  12   2.0000     -10.290079      -280.0073
  13   2.0000     -10.286232      -279.9026
  14   2.0000     -10.285764      -279.8899
  15   2.0000     -10.280408      -279.7441
  16   2.0000      -8.086270      -220.0386
  17   2.0000      -8.078930      -219.8389
  18   2.0000      -6.044824      -164.4880
  19   2.0000      -6.040889      -164.3809
  20   2.0000      -6.037599      -164.2914
  21   2.0000      -6.036897      -164.2723
  22   2.0000      -6.033477      -164.1793
  23   2.0000      -6.029605      -164.0739
  24   2.0000      -1.005161       -27.3518
  25   2.0000      -0.981909       -26.7191
  26   2.0000      -0.926857       -25.2211
  27   2.0000      -0.907459       -24.6932
  28   2.0000      -0.869317       -23.6553
  29   2.0000      -0.856304       -23.3012
  30   2.0000      -0.845755       -23.0142
  31   2.0000      -0.814691       -22.1689
  32   2.0000      -0.781963       -21.2783
  33   2.0000      -0.772863       -21.0307
  34   2.0000      -0.707274       -19.2459
  35   2.0000      -0.696900       -18.9636
  36   2.0000      -0.684969       -18.6389
  37   2.0000      -0.662636       -18.0312
  38   2.0000      -0.642581       -17.4855
  39   2.0000      -0.627684       -17.0802
  40   2.0000      -0.590557       -16.0699
  41   2.0000      -0.583533       -15.8787
  42   2.0000      -0.571209       -15.5434
  43   2.0000      -0.561317       -15.2742
  44   2.0000      -0.527695       -14.3593
  45   2.0000      -0.520374       -14.1601
  46   2.0000      -0.517686       -14.0870
  47   2.0000      -0.514087       -13.9890
  48   2.0000      -0.508516       -13.8374
  49   2.0000      -0.501519       -13.6470
  50   2.0000      -0.493670       -13.4334
  51   2.0000      -0.485975       -13.2240
  52   2.0000      -0.476957       -12.9786
  53   2.0000      -0.463904       -12.6235
  54   2.0000      -0.455844       -12.4041
  55   2.0000      -0.452373       -12.3097
  56   2.0000      -0.447429       -12.1752
  57   2.0000      -0.440636       -11.9903
  58   2.0000      -0.426578       -11.6078
  59   2.0000      -0.425364       -11.5747
  60   2.0000      -0.418826       -11.3968
  61   2.0000      -0.415381       -11.3031
  62   2.0000      -0.409205       -11.1350
  63   2.0000      -0.360299        -9.8042
  64   2.0000      -0.333121        -9.0647
  65   2.0000      -0.327435        -8.9099
  66   2.0000      -0.285041        -7.7564
  67   0.0000       0.015773         0.4292
  68   0.0000       0.075350         2.0504
  69   0.0000       0.096734         2.6323
  70   0.0000       0.110039         2.9943
  71   0.0000       0.119699         3.2572

MULLIKEN ATOMIC CHARGES
-----------------------
   0 S :    0.119304
   1 C :   -0.102420
   2 C :   -0.063442
   3 C :    0.007598
   4 C :   -0.125839
   5 H :   -0.010460
   6 C :    0.067394
   7 H :   -0.004428
   8 H :    0.038449
   9 C :   -0.099979
  10 H :    0.031279
  11 H :    0.021432
  12 C :   -0.027139
  13 H :    0.048546
  14 H :    0.031799
  15 H :    0.016833
  16 S :    0.074571
  17 C :   -0.076374
  18 C :   -0.066823
  19 C :   -0.080689
  20 C :   -0.109288
  21 H :    0.043031
  22 C :    0.044198
  23 H :    0.053512
  24 H :    0.006531
  25 C :   -0.110337
  26 H :    0.051902
  27 H :    0.048526
  28 C :   -0.056746
  29 H :    0.041938
  30 H :    0.031820
  31 H :    0.037574
  32 H :    0.041418
  33 H :    0.076307
Sum of atomic charges:    0.0000000

LOEWDIN ATOMIC CHARGES
----------------------
   0 S :    0.412237
   1 C :   -0.205957
   2 C :   -0.055444
   3 C :   -0.060169
   4 C :   -0.179536
   5 H :    0.025506
   6 C :   -0.039013
   7 H :    0.018992
   8 H :    0.045534
   9 C :   -0.041913
  10 H :    0.024316
  11 H :    0.017164
  12 C :   -0.058966
  13 H :    0.032211
  14 H :    0.022801
  15 H :    0.021278
  16 S :    0.379354
  17 C :   -0.198251
  18 C :   -0.074812
  19 C :   -0.065844
  20 C :   -0.173530
  21 H :    0.039427
  22 C :   -0.039560
  23 H :    0.034805
  24 H :    0.024335
  25 C :   -0.046480
  26 H :    0.033928
  27 H :    0.031679
  28 C :   -0.074378
  29 H :    0.031199
  30 H :    0.023456
  31 H :    0.029490
  32 H :    0.028525
  33 H :    0.037616

  Mayer bond orders larger than 0.100000
B(  0-S ,  1-C ) :   1.1251 B(  0-S ,  4-C ) :   1.1498 B(  1-C ,  2-C ) :   1.6233
B(  1-C , 32-H ) :   0.9654 B(  2-C ,  3-C ) :   1.2096 B(  2-C ,  6-C ) :   1.0443
B(  3-C ,  4-C ) :   1.5837 B(  3-C ,  5-H ) :   0.9891 B(  4-C , 20-C ) :   1.0652
B(  6-C ,  7-H ) :   0.9275 B(  6-C ,  8-H ) :   0.9313 B(  6-C ,  9-C ) :   1.0782
B(  9-C , 10-H ) :   0.9509 B(  9-C , 11-H ) :   0.9504 B(  9-C , 12-C ) :   1.0761
B( 12-C , 13-H ) :   0.9730 B( 12-C , 14-H ) :   0.9739 B( 12-C , 15-H ) :   0.9743
B( 16-S , 17-C ) :   1.1413 B( 16-S , 20-C ) :   1.1385 B( 17-C , 18-C ) :   1.6144
B( 17-C , 33-H ) :   0.9578 B( 18-C , 19-C ) :   1.2749 B( 18-C , 21-H ) :   0.9685
B( 19-C , 20-C ) :   1.5573 B( 19-C , 22-C ) :   1.0527 B( 22-C , 23-H ) :   0.9226
B( 22-C , 24-H ) :   0.9306 B( 22-C , 25-C ) :   1.0566 B( 25-C , 26-H ) :   0.9567
B( 25-C , 27-H ) :   0.9455 B( 25-C , 28-C ) :   1.0868 B( 28-C , 29-H ) :   0.9736
B( 28-C , 30-H ) :   0.9719 B( 28-C , 31-H ) :   0.9723

Dispersion correction           -0.014288343
FINAL SINGLE POINT ENERGY     -1339.866419070094

DIPOLE MOMENT
-------------
                                X             Y             Z
Electronic contribution:     21.36113      -3.98110      25.40014
Nuclear contribution   :    -21.98949       3.87114     -25.90752
                        -----------------------------------------
Total Dipole Moment    :     -0.62836      -0.10996      -0.50738
                        -----------------------------------------
Magnitude (a.u.)       :      0.81508
Magnitude (Debye)      :      2.07178

Rotational constants in cm-1:     0.017870     0.009537     0.006656
Rotational constants in MHz :   535.738753   285.911900   199.541116

                             ****ORCA TERMINATED NORMALLY****
TOTAL RUN TIME: 0 days 0 hours 0 minutes 21 seconds 620 msec
