                         Program Version 4.2.1 -  RELEASE  -
|  1> ! wB97X-D3 SP def2-SVP
|  2> %pal
|  3> nprocs 24
|  4> end
|  5>
|  6> * xyz 0 1
|  7> S 	 -97.1217 	 -24.5987 	 -65.5827
|  8> C 	 -96.8813 	 -22.8859 	 -65.5569
|  9> C 	 -95.7924 	 -22.4768 	 -64.8241
| 10> C 	 -95.1576 	 -23.5922 	 -64.1881
| 11> C 	 -95.7009 	 -24.786 	 -64.6212
| 12> H 	 -94.4277 	 -23.6632 	 -63.4069
| 13> C 	 -95.4117 	 -21.0339 	 -64.4129
| 14> H 	 -95.3818 	 -20.5176 	 -65.3483
| 15> H 	 -94.3741 	 -20.8686 	 -64.0066
| 16> C 	 -96.3713 	 -20.2811 	 -63.4506
| 17> H 	 -96.0005 	 -19.3025 	 -63.2561
| 18> H 	 -97.3856 	 -20.0787 	 -63.7294
| 19> C 	 -96.3822 	 -21.0298 	 -62.0774
| 20> H 	 -95.413 	 -21.0546 	 -61.6439
| 21> H 	 -97.0207 	 -20.5967 	 -61.3629
| 22> H 	 -96.8639 	 -22.0429 	 -62.1855
| 23> S 	 -94.2734 	 -27.142 	 -64.948
| 24> C 	 -93.9449 	 -28.085 	 -63.4904
| 25> C 	 -94.7111 	 -27.6718 	 -62.4454
| 26> C 	 -95.519 	 -26.5135 	 -62.6726
| 27> C 	 -95.3367 	 -26.0726 	 -63.9914
| 28> H 	 -94.6054 	 -28.3004 	 -61.5122
| 29> C 	 -96.5606 	 -26.0294 	 -61.7649
| 30> H 	 -97.4467 	 -26.4024 	 -62.2112
| 31> H 	 -96.739 	 -24.9681 	 -62.0023
| 32> C 	 -96.508 	 -26.3643 	 -60.2574
| 33> H 	 -95.5599 	 -26.3094 	 -59.8297
| 34> H 	 -96.7663 	 -27.4638 	 -60.1508
| 35> C 	 -97.4662 	 -25.5474 	 -59.3414
| 36> H 	 -97.0518 	 -24.6363 	 -59.1275
| 37> H 	 -97.7456 	 -26.055 	 -58.4069
| 38> H 	 -98.3569 	 -25.3256 	 -59.9318
| 39> H 	 -97.5892 	 -22.214 	 -65.8563
| 40> H 	 -93.2564 	 -28.9445 	 -63.4025
| 41> *
| 42>
| 43>                          ****END OF INPUT****

CARTESIAN COORDINATES (ANGSTROEM)
---------------------------------
  S    -97.121700  -24.598700  -65.582700
  C    -96.881300  -22.885900  -65.556900
  C    -95.792400  -22.476800  -64.824100
  C    -95.157600  -23.592200  -64.188100
  C    -95.700900  -24.786000  -64.621200
  H    -94.427700  -23.663200  -63.406900
  C    -95.411700  -21.033900  -64.412900
  H    -95.381800  -20.517600  -65.348300
  H    -94.374100  -20.868600  -64.006600
  C    -96.371300  -20.281100  -63.450600
  H    -96.000500  -19.302500  -63.256100
  H    -97.385600  -20.078700  -63.729400
  C    -96.382200  -21.029800  -62.077400
  H    -95.413000  -21.054600  -61.643900
  H    -97.020700  -20.596700  -61.362900
  H    -96.863900  -22.042900  -62.185500
  S    -94.273400  -27.142000  -64.948000
  C    -93.944900  -28.085000  -63.490400
  C    -94.711100  -27.671800  -62.445400
  C    -95.519000  -26.513500  -62.672600
  C    -95.336700  -26.072600  -63.991400
  H    -94.605400  -28.300400  -61.512200
  C    -96.560600  -26.029400  -61.764900
  H    -97.446700  -26.402400  -62.211200
  H    -96.739000  -24.968100  -62.002300
  C    -96.508000  -26.364300  -60.257400
  H    -95.559900  -26.309400  -59.829700
  H    -96.766300  -27.463800  -60.150800
  C    -97.466200  -25.547400  -59.341400
  H    -97.051800  -24.636300  -59.127500
  H    -97.745600  -26.055000  -58.406900
  H    -98.356900  -25.325600  -59.931800
  H    -97.589200  -22.214000  -65.856300
  H    -93.256400  -28.944500  -63.402500

 Total Charge           Charge          ....    0
 Multiplicity           Mult            ....    1
 Number of Electrons    NEL             ....  134
 Basis Dimension        Dim             ....  322

ORBITAL ENERGIES
----------------

  NO   OCC          E(Eh)            E(eV)
   0   2.0000     -88.969180     -2420.9745
   1   2.0000     -88.960895     -2420.7490
   2   2.0000     -10.323160      -280.9075
   3   2.0000     -10.321576      -280.8644
   4   2.0000     -10.314603      -280.6746
   5   2.0000     -10.306253      -280.4474
   6   2.0000     -10.304409      -280.3972
   7   2.0000     -10.303828      -280.3814
   8   2.0000     -10.298449      -280.2351
   9   2.0000     -10.292236      -280.0660
  10   2.0000     -10.290573      -280.0207
  11   2.0000     -10.289774      -279.9990
  12   2.0000     -10.288275      -279.9582
  13   2.0000     -10.287096      -279.9261
  14   2.0000     -10.275038      -279.5980
  15   2.0000     -10.273073      -279.5445
  16   2.0000      -8.084517      -219.9909
  17   2.0000      -8.074972      -219.7311
  18   2.0000      -6.042818      -164.4334
  19   2.0000      -6.039062      -164.3312
  20   2.0000      -6.035347      -164.2301
  21   2.0000      -6.033493      -164.1797
  22   2.0000      -6.029636      -164.0747
  23   2.0000      -6.025700      -163.9676
  24   2.0000      -1.006187       -27.3798
  25   2.0000      -0.981784       -26.7157
  26   2.0000      -0.909109       -24.7381
  27   2.0000      -0.906592       -24.6696
  28   2.0000      -0.865952       -23.5637
  29   2.0000      -0.851696       -23.1758
  30   2.0000      -0.849019       -23.1030
  31   2.0000      -0.813070       -22.1248
  32   2.0000      -0.784826       -21.3562
  33   2.0000      -0.772446       -21.0193
  34   2.0000      -0.712618       -19.3913
  35   2.0000      -0.708309       -19.2741
  36   2.0000      -0.696076       -18.9412
  37   2.0000      -0.650888       -17.7116
  38   2.0000      -0.641269       -17.4498
  39   2.0000      -0.610384       -16.6094
  40   2.0000      -0.596041       -16.2191
  41   2.0000      -0.573242       -15.5987
  42   2.0000      -0.561383       -15.2760
  43   2.0000      -0.552508       -15.0345
  44   2.0000      -0.539979       -14.6936
  45   2.0000      -0.532452       -14.4888
  46   2.0000      -0.515207       -14.0195
  47   2.0000      -0.509916       -13.8755
  48   2.0000      -0.503925       -13.7125
  49   2.0000      -0.489425       -13.3179
  50   2.0000      -0.482766       -13.1367
  51   2.0000      -0.479214       -13.0401
  52   2.0000      -0.472506       -12.8576
  53   2.0000      -0.462301       -12.5798
  54   2.0000      -0.455236       -12.3876
  55   2.0000      -0.451684       -12.2909
  56   2.0000      -0.446704       -12.1554
  57   2.0000      -0.438500       -11.9322
  58   2.0000      -0.437039       -11.8924
  59   2.0000      -0.427650       -11.6370
  60   2.0000      -0.424692       -11.5565
  61   2.0000      -0.418456       -11.3868
  62   2.0000      -0.415819       -11.3150
  63   2.0000      -0.335858        -9.1392
  64   2.0000      -0.330796        -9.0014
  65   2.0000      -0.319570        -8.6960
  66   2.0000      -0.300677        -8.1818
  67   0.0000       0.047229         1.2852
  68   0.0000       0.051847         1.4108
  69   0.0000       0.116475         3.1694
  70   0.0000       0.117980         3.2104
  71   0.0000       0.126655         3.4465

MULLIKEN ATOMIC CHARGES
-----------------------
   0 S :    0.127046
   1 C :   -0.083841
   2 C :   -0.067477
   3 C :    0.042651
   4 C :   -0.176357
   5 H :    0.013566
   6 C :    0.056586
   7 H :    0.024433
   8 H :    0.038387
   9 C :   -0.039810
  10 H :    0.018564
  11 H :    0.020293
  12 C :   -0.068030
  13 H :    0.024768
  14 H :    0.014506
  15 H :    0.049081
  16 S :    0.100534
  17 C :   -0.099031
  18 C :   -0.075015
  19 C :   -0.008563
  20 C :   -0.200284
  21 H :    0.038078
  22 C :    0.092379
  23 H :    0.028027
  24 H :    0.016967
  25 C :   -0.080640
  26 H :    0.020332
  27 H :    0.034204
  28 C :   -0.008879
  29 H :    0.015202
  30 H :    0.039457
  31 H :    0.023333
  32 H :    0.009308
  33 H :    0.060228
Sum of atomic charges:    0.0000000

LOEWDIN ATOMIC CHARGES
----------------------
   0 S :    0.427427
   1 C :   -0.189310
   2 C :   -0.057027
   3 C :   -0.047970
   4 C :   -0.214196
   5 H :    0.032718
   6 C :   -0.032241
   7 H :    0.028239
   8 H :    0.039938
   9 C :   -0.033695
  10 H :    0.020961
  11 H :    0.019263
  12 C :   -0.066206
  13 H :    0.018385
  14 H :    0.016307
  15 H :    0.032093
  16 S :    0.380249
  17 C :   -0.185546
  18 C :   -0.087297
  19 C :   -0.049428
  20 C :   -0.196812
  21 H :    0.041483
  22 C :   -0.040599
  23 H :    0.039699
  24 H :    0.036174
  25 C :   -0.037498
  26 H :    0.013495
  27 H :    0.030718
  28 C :   -0.053216
  29 H :    0.012577
  30 H :    0.031470
  31 H :    0.025995
  32 H :    0.008121
  33 H :    0.035730

  Mayer bond orders larger than 0.100000
B(  0-S ,  1-C ) :   1.1499 B(  0-S ,  4-C ) :   1.1598 B(  1-C ,  2-C ) :   1.6181
B(  1-C , 32-H ) :   0.9771 B(  2-C ,  3-C ) :   1.2168 B(  2-C ,  6-C ) :   1.0106
B(  3-C ,  4-C ) :   1.5942 B(  3-C ,  5-H ) :   1.0047 B(  4-C , 20-C ) :   0.9904
B(  6-C ,  7-H ) :   0.9340 B(  6-C ,  8-H ) :   0.9522 B(  6-C ,  9-C ) :   1.0726
B(  9-C , 10-H ) :   0.9536 B(  9-C , 11-H ) :   0.9597 B(  9-C , 12-C ) :   1.0770
B( 12-C , 13-H ) :   0.9768 B( 12-C , 14-H ) :   0.9721 B( 12-C , 15-H ) :   0.9738
B( 16-S , 17-C ) :   1.1421 B( 16-S , 20-C ) :   1.1369 B( 17-C , 18-C ) :   1.6502
B( 17-C , 33-H ) :   0.9592 B( 18-C , 19-C ) :   1.2093 B( 18-C , 21-H ) :   0.9764
B( 19-C , 20-C ) :   1.6033 B( 19-C , 22-C ) :   1.0529 B( 22-C , 23-H ) :   0.9110
B( 22-C , 24-H ) :   0.9167 B( 22-C , 25-C ) :   1.0533 B( 25-C , 26-H ) :   0.9681
B( 25-C , 27-H ) :   0.9474 B( 25-C , 28-C ) :   1.0797 B( 28-C , 29-H ) :   0.9758
B( 28-C , 30-H ) :   0.9751 B( 28-C , 31-H ) :   0.9760

Dispersion correction           -0.015121804
FINAL SINGLE POINT ENERGY     -1339.856581111880

DIPOLE MOMENT
-------------
                                X             Y             Z
Electronic contribution:      6.41303     -15.73027     -24.50866
Nuclear contribution   :     -6.61018      16.14341      25.25119
                        -----------------------------------------
Total Dipole Moment    :     -0.19714       0.41314       0.74253
                        -----------------------------------------
Magnitude (a.u.)       :      0.87230
Magnitude (Debye)      :      2.21721

Rotational constants in cm-1:     0.016166     0.009921     0.007180
Rotational constants in MHz :   484.650262   297.432107   215.256357

                             ****ORCA TERMINATED NORMALLY****
TOTAL RUN TIME: 0 days 0 hours 0 minutes 22 seconds 46 msec
