                         Program Version 4.2.1 -  RELEASE  -
|  1> ! wB97X-D3 SP def2-SVP
|  2> %pal
|  3> nprocs 24
|  4> end
|  5>
|  6> * xyz 0 1
|  7> S 	 -129.045 	 67.4366 	 -55.4648
|  8> C 	 -127.882 	 68.6309 	 -55.1676
|  9> C 	 -127.187 	 68.8828 	 -56.3195
| 10> C 	 -127.643 	 68.1618 	 -57.4907
| 11> C 	 -128.666 	 67.2949 	 -57.1866
| 12> H 	 -127.249 	 68.1854 	 -58.5281
| 13> C 	 -126.028 	 69.8542 	 -56.2959
| 14> H 	 -125.275 	 69.6507 	 -57.1004
| 15> H 	 -125.574 	 69.8667 	 -55.3469
| 16> C 	 -126.389 	 71.3241 	 -56.5827
| 17> H 	 -127.41 	 71.5055 	 -56.2081
| 18> H 	 -125.853 	 71.9265 	 -55.8737
| 19> C 	 -126.303 	 71.8947 	 -58.0432
| 20> H 	 -125.285 	 72.2211 	 -58.2004
| 21> H 	 -126.747 	 71.2624 	 -58.8411
| 22> H 	 -126.962 	 72.7822 	 -57.9745
| 23> S 	 -130.884 	 65.741 	 -57.5531
| 24> C 	 -131.13 	 64.725 	 -58.9032
| 25> C 	 -130.076 	 64.8917 	 -59.7603
| 26> C 	 -129.1 	 65.8597 	 -59.3423
| 27> C 	 -129.367 	 66.4095 	 -58.103
| 28> H 	 -130.093 	 64.2949 	 -60.7126
| 29> C 	 -127.957 	 65.9963 	 -60.2988
| 30> H 	 -127.935 	 65.1221 	 -60.9737
| 31> H 	 -127.001 	 66.1357 	 -59.768
| 32> C 	 -128.169 	 67.1849 	 -61.3467
| 33> H 	 -128.78 	 67.9061 	 -60.9306
| 34> H 	 -128.644 	 66.8484 	 -62.261
| 35> C 	 -126.898 	 67.9555 	 -61.7239
| 36> H 	 -126.601 	 68.5138 	 -60.8542
| 37> H 	 -127.085 	 68.8766 	 -62.3887
| 38> H 	 -126.085 	 67.3197 	 -62.0926
| 39> H 	 -127.609 	 69.1204 	 -54.2547
| 40> H 	 -131.934 	 64.0559 	 -59.0639
| 41> *
| 42>
| 43>                          ****END OF INPUT****

CARTESIAN COORDINATES (ANGSTROEM)
---------------------------------
  S    -129.045000   67.436600  -55.464800
  C    -127.882000   68.630900  -55.167600
  C    -127.187000   68.882800  -56.319500
  C    -127.643000   68.161800  -57.490700
  C    -128.666000   67.294900  -57.186600
  H    -127.249000   68.185400  -58.528100
  C    -126.028000   69.854200  -56.295900
  H    -125.275000   69.650700  -57.100400
  H    -125.574000   69.866700  -55.346900
  C    -126.389000   71.324100  -56.582700
  H    -127.410000   71.505500  -56.208100
  H    -125.853000   71.926500  -55.873700
  C    -126.303000   71.894700  -58.043200
  H    -125.285000   72.221100  -58.200400
  H    -126.747000   71.262400  -58.841100
  H    -126.962000   72.782200  -57.974500
  S    -130.884000   65.741000  -57.553100
  C    -131.130000   64.725000  -58.903200
  C    -130.076000   64.891700  -59.760300
  C    -129.100000   65.859700  -59.342300
  C    -129.367000   66.409500  -58.103000
  H    -130.093000   64.294900  -60.712600
  C    -127.957000   65.996300  -60.298800
  H    -127.935000   65.122100  -60.973700
  H    -127.001000   66.135700  -59.768000
  C    -128.169000   67.184900  -61.346700
  H    -128.780000   67.906100  -60.930600
  H    -128.644000   66.848400  -62.261000
  C    -126.898000   67.955500  -61.723900
  H    -126.601000   68.513800  -60.854200
  H    -127.085000   68.876600  -62.388700
  H    -126.085000   67.319700  -62.092600
  H    -127.609000   69.120400  -54.254700
  H    -131.934000   64.055900  -59.063900

 Total Charge           Charge          ....    0
 Multiplicity           Mult            ....    1
 Number of Electrons    NEL             ....  134
 Basis Dimension        Dim             ....  322

ORBITAL ENERGIES
----------------

  NO   OCC          E(Eh)            E(eV)
   0   2.0000     -88.966832     -2420.9106
   1   2.0000     -88.962475     -2420.7920
   2   2.0000     -10.334760      -281.2231
   3   2.0000     -10.332471      -281.1608
   4   2.0000     -10.312787      -280.6252
   5   2.0000     -10.309302      -280.5304
   6   2.0000     -10.305395      -280.4240
   7   2.0000     -10.300101      -280.2800
   8   2.0000     -10.299473      -280.2629
   9   2.0000     -10.298821      -280.2452
  10   2.0000     -10.294728      -280.1338
  11   2.0000     -10.287555      -279.9386
  12   2.0000     -10.284648      -279.8595
  13   2.0000     -10.284110      -279.8449
  14   2.0000     -10.283131      -279.8182
  15   2.0000     -10.282905      -279.8121
  16   2.0000      -8.082060      -219.9240
  17   2.0000      -8.078316      -219.8221
  18   2.0000      -6.040694      -164.3756
  19   2.0000      -6.036881      -164.2719
  20   2.0000      -6.036418      -164.2593
  21   2.0000      -6.032709      -164.1584
  22   2.0000      -6.032468      -164.1518
  23   2.0000      -6.029134      -164.0611
  24   2.0000      -1.014635       -27.6096
  25   2.0000      -0.993550       -27.0359
  26   2.0000      -0.909019       -24.7357
  27   2.0000      -0.907852       -24.7039
  28   2.0000      -0.876543       -23.8519
  29   2.0000      -0.854426       -23.2501
  30   2.0000      -0.843750       -22.9596
  31   2.0000      -0.821933       -22.3659
  32   2.0000      -0.779883       -21.2217
  33   2.0000      -0.774042       -21.0628
  34   2.0000      -0.710602       -19.3365
  35   2.0000      -0.697920       -18.9914
  36   2.0000      -0.696230       -18.9454
  37   2.0000      -0.668150       -18.1813
  38   2.0000      -0.640716       -17.4348
  39   2.0000      -0.619010       -16.8441
  40   2.0000      -0.598034       -16.2733
  41   2.0000      -0.573678       -15.6106
  42   2.0000      -0.568783       -15.4774
  43   2.0000      -0.549968       -14.9654
  44   2.0000      -0.537942       -14.6382
  45   2.0000      -0.522793       -14.2259
  46   2.0000      -0.521440       -14.1891
  47   2.0000      -0.518806       -14.1174
  48   2.0000      -0.508488       -13.8367
  49   2.0000      -0.502350       -13.6696
  50   2.0000      -0.494355       -13.4521
  51   2.0000      -0.487118       -13.2551
  52   2.0000      -0.483132       -13.1467
  53   2.0000      -0.469808       -12.7841
  54   2.0000      -0.463877       -12.6227
  55   2.0000      -0.443196       -12.0600
  56   2.0000      -0.436630       -11.8813
  57   2.0000      -0.430990       -11.7278
  58   2.0000      -0.426966       -11.6183
  59   2.0000      -0.426342       -11.6014
  60   2.0000      -0.423391       -11.5211
  61   2.0000      -0.412080       -11.2133
  62   2.0000      -0.404467       -11.0061
  63   2.0000      -0.370297       -10.0763
  64   2.0000      -0.331021        -9.0075
  65   2.0000      -0.324850        -8.8396
  66   2.0000      -0.287002        -7.8097
  67   0.0000       0.022164         0.6031
  68   0.0000       0.090900         2.4735
  69   0.0000       0.107076         2.9137
  70   0.0000       0.118511         3.2249
  71   0.0000       0.123594         3.3632

MULLIKEN ATOMIC CHARGES
-----------------------
   0 S :    0.117079
   1 C :   -0.089616
   2 C :   -0.092433
   3 C :   -0.000637
   4 C :   -0.103019
   5 H :    0.000777
   6 C :    0.080463
   7 H :    0.028394
   8 H :    0.008296
   9 C :   -0.093668
  10 H :    0.013919
  11 H :    0.013636
  12 C :   -0.052088
  13 H :    0.041811
  14 H :    0.045660
  15 H :    0.036482
  16 S :    0.089494
  17 C :   -0.062523
  18 C :   -0.072101
  19 C :   -0.055557
  20 C :   -0.117517
  21 H :    0.037540
  22 C :    0.039535
  23 H :    0.032612
  24 H :    0.038782
  25 C :   -0.035130
  26 H :    0.017207
  27 H :    0.030323
  28 C :   -0.089089
  29 H :    0.016453
  30 H :    0.040852
  31 H :    0.047408
  32 H :    0.040728
  33 H :    0.045926
Sum of atomic charges:    0.0000000

LOEWDIN ATOMIC CHARGES
----------------------
   0 S :    0.418833
   1 C :   -0.212106
   2 C :   -0.062274
   3 C :   -0.072233
   4 C :   -0.181607
   5 H :    0.035429
   6 C :   -0.034176
   7 H :    0.035014
   8 H :    0.024058
   9 C :   -0.047763
  10 H :    0.020596
  11 H :    0.020194
  12 C :   -0.069030
  13 H :    0.023914
  14 H :    0.029209
  15 H :    0.034172
  16 S :    0.420812
  17 C :   -0.191050
  18 C :   -0.080188
  19 C :   -0.062916
  20 C :   -0.193973
  21 H :    0.039662
  22 C :   -0.029503
  23 H :    0.037070
  24 H :    0.029794
  25 C :   -0.033769
  26 H :    0.014240
  27 H :    0.022527
  28 C :   -0.074715
  29 H :    0.016516
  30 H :    0.038271
  31 H :    0.024886
  32 H :    0.032374
  33 H :    0.027732

  Mayer bond orders larger than 0.100000
B(  0-S ,  1-C ) :   1.1317 B(  0-S ,  4-C ) :   1.1449 B(  1-C ,  2-C ) :   1.6095
B(  1-C , 32-H ) :   0.9698 B(  2-C ,  3-C ) :   1.2287 B(  2-C ,  6-C ) :   1.0509
B(  3-C ,  4-C ) :   1.5716 B(  3-C ,  5-H ) :   0.9910 B(  4-C , 20-C ) :   1.0887
B(  6-C ,  7-H ) :   0.9472 B(  6-C ,  8-H ) :   0.9367 B(  6-C ,  9-C ) :   1.0546
B(  9-C , 10-H ) :   0.9607 B(  9-C , 11-H ) :   0.9567 B(  9-C , 12-C ) :   1.0710
B( 12-C , 13-H ) :   0.9772 B( 12-C , 14-H ) :   0.9763 B( 12-C , 15-H ) :   0.9751
B( 16-S , 17-C ) :   1.1642 B( 16-S , 20-C ) :   1.1340 B( 17-C , 18-C ) :   1.6028
B( 17-C , 33-H ) :   0.9735 B( 18-C , 19-C ) :   1.2568 B( 18-C , 21-H ) :   0.9804
B( 19-C , 20-C ) :   1.5617 B( 19-C , 22-C ) :   1.0631 B( 22-C , 23-H ) :   0.9330
B( 22-C , 24-H ) :   0.9448 B( 22-C , 25-C ) :   1.0317 B( 25-C , 26-H ) :   0.9630
B( 25-C , 27-H ) :   0.9586 B( 25-C , 28-C ) :   1.0853 B( 28-C , 29-H ) :   0.9767
B( 28-C , 30-H ) :   0.9668 B( 28-C , 31-H ) :   0.9740

Dispersion correction           -0.014181742
FINAL SINGLE POINT ENERGY     -1339.867551809331

DIPOLE MOMENT
-------------
                                X             Y             Z
Electronic contribution:    -19.18752     -18.40628      17.53153
Nuclear contribution   :     19.55984      18.62302     -17.94937
                        -----------------------------------------
Total Dipole Moment    :      0.37232       0.21674      -0.41784
                        -----------------------------------------
Magnitude (a.u.)       :      0.60016
Magnitude (Debye)      :      1.52548

Rotational constants in cm-1:     0.017552     0.009654     0.006598
Rotational constants in MHz :   526.197093   289.415617   197.812660

                             ****ORCA TERMINATED NORMALLY****
TOTAL RUN TIME: 0 days 0 hours 0 minutes 21 seconds 797 msec
