                         Program Version 4.2.1 -  RELEASE  -
|  1> ! wB97X-D3 SP def2-SVP
|  2> %pal
|  3> nprocs 24
|  4> end
|  5>
|  6> * xyz 0 1
|  7> S 	 -109.82 	 63.0752 	 -74.3409
|  8> C 	 -108.551 	 62.0207 	 -74.6472
|  9> C 	 -109.011 	 60.7742 	 -75.1239
| 10> C 	 -110.438 	 60.6837 	 -75.2242
| 11> C 	 -111.052 	 61.7962 	 -74.7443
| 12> H 	 -111.084 	 59.8271 	 -75.4558
| 13> C 	 -108.03 	 59.6465 	 -75.4033
| 14> H 	 -107.193 	 60.0424 	 -75.9442
| 15> H 	 -108.513 	 58.9772 	 -76.1253
| 16> C 	 -107.596 	 58.8788 	 -74.1698
| 17> H 	 -106.693 	 58.2463 	 -74.3913
| 18> H 	 -107.392 	 59.502 	 -73.322
| 19> C 	 -108.741 	 57.9183 	 -73.7661
| 20> H 	 -109.379 	 58.3591 	 -73.0763
| 21> H 	 -109.387 	 57.4804 	 -74.4613
| 22> H 	 -108.299 	 57.0958 	 -73.2835
| 23> S 	 -112.699 	 62.3616 	 -72.5941
| 24> C 	 -114.428 	 62.3437 	 -72.7911
| 25> C 	 -114.756 	 61.7976 	 -73.9761
| 26> C 	 -113.646 	 61.595 	 -74.8437
| 27> C 	 -112.449 	 61.8834 	 -74.2777
| 28> H 	 -115.812 	 61.6101 	 -74.3279
| 29> C 	 -113.84 	 60.8663 	 -76.1737
| 30> H 	 -113.958 	 59.8168 	 -75.7825
| 31> H 	 -112.903 	 60.9384 	 -76.7308
| 32> C 	 -115.049 	 61.2828 	 -77.0842
| 33> H 	 -115.964 	 61.3467 	 -76.5016
| 34> H 	 -115.198 	 60.3408 	 -77.7565
| 35> C 	 -114.671 	 62.5373 	 -77.8899
| 36> H 	 -114.103 	 63.1687 	 -77.2542
| 37> H 	 -115.531 	 63.2142 	 -78.2155
| 38> H 	 -114.028 	 62.2712 	 -78.7555
| 39> H 	 -107.544 	 62.2761 	 -74.6358
| 40> H 	 -115.154 	 62.4903 	 -72.0562
| 41> *
| 42>
| 43>                          ****END OF INPUT****

CARTESIAN COORDINATES (ANGSTROEM)
---------------------------------
  S    -109.820000   63.075200  -74.340900
  C    -108.551000   62.020700  -74.647200
  C    -109.011000   60.774200  -75.123900
  C    -110.438000   60.683700  -75.224200
  C    -111.052000   61.796200  -74.744300
  H    -111.084000   59.827100  -75.455800
  C    -108.030000   59.646500  -75.403300
  H    -107.193000   60.042400  -75.944200
  H    -108.513000   58.977200  -76.125300
  C    -107.596000   58.878800  -74.169800
  H    -106.693000   58.246300  -74.391300
  H    -107.392000   59.502000  -73.322000
  C    -108.741000   57.918300  -73.766100
  H    -109.379000   58.359100  -73.076300
  H    -109.387000   57.480400  -74.461300
  H    -108.299000   57.095800  -73.283500
  S    -112.699000   62.361600  -72.594100
  C    -114.428000   62.343700  -72.791100
  C    -114.756000   61.797600  -73.976100
  C    -113.646000   61.595000  -74.843700
  C    -112.449000   61.883400  -74.277700
  H    -115.812000   61.610100  -74.327900
  C    -113.840000   60.866300  -76.173700
  H    -113.958000   59.816800  -75.782500
  H    -112.903000   60.938400  -76.730800
  C    -115.049000   61.282800  -77.084200
  H    -115.964000   61.346700  -76.501600
  H    -115.198000   60.340800  -77.756500
  C    -114.671000   62.537300  -77.889900
  H    -114.103000   63.168700  -77.254200
  H    -115.531000   63.214200  -78.215500
  H    -114.028000   62.271200  -78.755500
  H    -107.544000   62.276100  -74.635800
  H    -115.154000   62.490300  -72.056200

 Total Charge           Charge          ....    0
 Multiplicity           Mult            ....    1
 Number of Electrons    NEL             ....  134
 Basis Dimension        Dim             ....  322

ORBITAL ENERGIES
----------------

  NO   OCC          E(Eh)            E(eV)
   0   2.0000     -88.966721     -2420.9076
   1   2.0000     -88.960768     -2420.7456
   2   2.0000     -10.332129      -281.1515
   3   2.0000     -10.324289      -280.9382
   4   2.0000     -10.309169      -280.5267
   5   2.0000     -10.309043      -280.5233
   6   2.0000     -10.303045      -280.3601
   7   2.0000     -10.299371      -280.2601
   8   2.0000     -10.298772      -280.2438
   9   2.0000     -10.297947      -280.2214
  10   2.0000     -10.296559      -280.1836
  11   2.0000     -10.290822      -280.0275
  12   2.0000     -10.287092      -279.9260
  13   2.0000     -10.286009      -279.8965
  14   2.0000     -10.282098      -279.7901
  15   2.0000     -10.258336      -279.1435
  16   2.0000      -8.081699      -219.9142
  17   2.0000      -8.075671      -219.7502
  18   2.0000      -6.040167      -164.3613
  19   2.0000      -6.036072      -164.2499
  20   2.0000      -6.034292      -164.2014
  21   2.0000      -6.032560      -164.1543
  22   2.0000      -6.030268      -164.0919
  23   2.0000      -6.026158      -163.9801
  24   2.0000      -1.008500       -27.4427
  25   2.0000      -0.988383       -26.8953
  26   2.0000      -0.911139       -24.7933
  27   2.0000      -0.904393       -24.6098
  28   2.0000      -0.875288       -23.8178
  29   2.0000      -0.849855       -23.1257
  30   2.0000      -0.843856       -22.9625
  31   2.0000      -0.820717       -22.3328
  32   2.0000      -0.778885       -21.1945
  33   2.0000      -0.769486       -20.9388
  34   2.0000      -0.705950       -19.2099
  35   2.0000      -0.704135       -19.1605
  36   2.0000      -0.699674       -19.0391
  37   2.0000      -0.657031       -17.8787
  38   2.0000      -0.649393       -17.6709
  39   2.0000      -0.613039       -16.6816
  40   2.0000      -0.596847       -16.2410
  41   2.0000      -0.572992       -15.5919
  42   2.0000      -0.552353       -15.0303
  43   2.0000      -0.548837       -14.9346
  44   2.0000      -0.541272       -14.7288
  45   2.0000      -0.532788       -14.4979
  46   2.0000      -0.517061       -14.0700
  47   2.0000      -0.515552       -14.0289
  48   2.0000      -0.507132       -13.7998
  49   2.0000      -0.493593       -13.4313
  50   2.0000      -0.487974       -13.2784
  51   2.0000      -0.480492       -13.0749
  52   2.0000      -0.475068       -12.9273
  53   2.0000      -0.462425       -12.5832
  54   2.0000      -0.459310       -12.4985
  55   2.0000      -0.446620       -12.1531
  56   2.0000      -0.442987       -12.0543
  57   2.0000      -0.440405       -11.9840
  58   2.0000      -0.436454       -11.8765
  59   2.0000      -0.425943       -11.5905
  60   2.0000      -0.419035       -11.4025
  61   2.0000      -0.412811       -11.2332
  62   2.0000      -0.405896       -11.0450
  63   2.0000      -0.359321        -9.7776
  64   2.0000      -0.327899        -8.9226
  65   2.0000      -0.326660        -8.8889
  66   2.0000      -0.290859        -7.9147
  67   0.0000       0.031015         0.8439
  68   0.0000       0.071288         1.9398
  69   0.0000       0.111600         3.0368
  70   0.0000       0.117707         3.2030
  71   0.0000       0.133393         3.6298

MULLIKEN ATOMIC CHARGES
-----------------------
   0 S :    0.120153
   1 C :   -0.075701
   2 C :   -0.129642
   3 C :    0.047659
   4 C :   -0.169475
   5 H :    0.029777
   6 C :    0.069497
   7 H :    0.017546
   8 H :    0.020004
   9 C :   -0.051188
  10 H :    0.037664
  11 H :    0.030869
  12 C :   -0.017861
  13 H :    0.021343
  14 H :    0.008904
  15 H :    0.011957
  16 S :    0.095729
  17 C :   -0.049959
  18 C :   -0.055211
  19 C :   -0.047576
  20 C :   -0.156545
  21 H :    0.035449
  22 C :   -0.011551
  23 H :    0.055137
  24 H :    0.032293
  25 C :   -0.069450
  26 H :    0.028659
  27 H :    0.042860
  28 C :   -0.054735
  29 H :    0.030443
  30 H :    0.045989
  31 H :    0.044855
  32 H :    0.028409
  33 H :    0.033696
Sum of atomic charges:   -0.0000000

LOEWDIN ATOMIC CHARGES
----------------------
   0 S :    0.411376
   1 C :   -0.204745
   2 C :   -0.062212
   3 C :   -0.058854
   4 C :   -0.176704
   5 H :    0.040161
   6 C :   -0.035272
   7 H :    0.024306
   8 H :    0.029185
   9 C :   -0.030782
  10 H :    0.028648
  11 H :    0.024224
  12 C :   -0.059800
  13 H :    0.019945
  14 H :    0.016063
  15 H :    0.022158
  16 S :    0.394706
  17 C :   -0.175838
  18 C :   -0.079200
  19 C :   -0.070536
  20 C :   -0.193050
  21 H :    0.038072
  22 C :   -0.036048
  23 H :    0.040997
  24 H :    0.027916
  25 C :   -0.044986
  26 H :    0.018186
  27 H :    0.035038
  28 C :   -0.071819
  29 H :    0.021662
  30 H :    0.035343
  31 H :    0.033140
  32 H :    0.017536
  33 H :    0.021184

  Mayer bond orders larger than 0.100000
B(  0-S ,  1-C ) :   1.1589 B(  0-S ,  4-C ) :   1.1446 B(  1-C ,  2-C ) :   1.5835
B(  1-C , 32-H ) :   0.9765 B(  2-C ,  3-C ) :   1.2484 B(  2-C ,  6-C ) :   1.0252
B(  3-C ,  4-C ) :   1.5746 B(  3-C ,  5-H ) :   0.9837 B(  4-C , 20-C ) :   1.0261
B(  6-C ,  7-H ) :   0.9380 B(  6-C ,  8-H ) :   0.9483 B(  6-C ,  9-C ) :   1.0699
B(  9-C , 10-H ) :   0.9621 B(  9-C , 11-H ) :   0.9574 B(  9-C , 12-C ) :   1.0652
B( 12-C , 13-H ) :   0.9755 B( 12-C , 14-H ) :   0.9781 B( 12-C , 15-H ) :   0.9726
B( 16-S , 17-C ) :   1.1412 B( 16-S , 20-C ) :   1.1243 B( 17-C , 18-C ) :   1.6357
B( 17-C , 33-H ) :   0.9698 B( 18-C , 19-C ) :   1.2334 B( 18-C , 21-H ) :   0.9750
B( 19-C , 20-C ) :   1.6375 B( 19-C , 22-C ) :   1.0305 B( 22-C , 23-H ) :   0.9380
B( 22-C , 24-H ) :   0.9366 B( 22-C , 25-C ) :   1.0592 B( 25-C , 26-H ) :   0.9597
B( 25-C , 27-H ) :   0.9572 B( 25-C , 28-C ) :   1.0549 B( 28-C , 29-H ) :   0.9792
B( 28-C , 30-H ) :   0.9751 B( 28-C , 31-H ) :   0.9734

Dispersion correction           -0.014413228
FINAL SINGLE POINT ENERGY     -1339.865203787750

DIPOLE MOMENT
-------------
                                X             Y             Z
Electronic contribution:      0.96136      16.52683      13.38887
Nuclear contribution   :     -1.02277     -17.09578     -13.62934
                        -----------------------------------------
Total Dipole Moment    :     -0.06141      -0.56895      -0.24047
                        -----------------------------------------
Magnitude (a.u.)       :      0.62073
Magnitude (Debye)      :      1.57776

Rotational constants in cm-1:     0.019462     0.008114     0.007374
Rotational constants in MHz :   583.457888   243.248025   221.070115

                             ****ORCA TERMINATED NORMALLY****
TOTAL RUN TIME: 0 days 0 hours 0 minutes 21 seconds 790 msec
