                         Program Version 4.2.1 -  RELEASE  -
|  1> ! wB97X-D3 SP def2-SVP
|  2> %pal
|  3> nprocs 24
|  4> end
|  5>
|  6> * xyz 0 1
|  7> S 	 -101.834 	 1.21831 	 -121.528
|  8> C 	 -102.805 	 1.34484 	 -120.005
|  9> C 	 -102.803 	 0.142611 	 -119.314
| 10> C 	 -102.169 	 -0.88877 	 -120.073
| 11> C 	 -101.62 	 -0.535501 	 -121.304
| 12> H 	 -102.102 	 -1.93455 	 -119.745
| 13> C 	 -103.466 	 -0.219348 	 -118
| 14> H 	 -104.238 	 -0.867783 	 -118.399
| 15> H 	 -103.98 	 0.637532 	 -117.539
| 16> C 	 -102.607 	 -1.11077 	 -117.116
| 17> H 	 -102.196 	 -1.95107 	 -117.7
| 18> H 	 -101.705 	 -0.541761 	 -116.805
| 19> C 	 -103.428 	 -1.538 	 -115.886
| 20> H 	 -104.266 	 -2.18602 	 -116.113
| 21> H 	 -102.831 	 -2.19845 	 -115.234
| 22> H 	 -103.714 	 -0.627336 	 -115.29
| 23> S 	 -100.777 	 -0.612833 	 -123.906
| 24> C 	 -100.087 	 -1.96821 	 -124.578
| 25> C 	 -99.6558 	 -2.76691 	 -123.56
| 26> C 	 -100.223 	 -2.50665 	 -122.236
| 27> C 	 -100.927 	 -1.36354 	 -122.322
| 28> H 	 -99.0472 	 -3.57877 	 -123.842
| 29> C 	 -100.096 	 -3.46413 	 -121.057
| 30> H 	 -99.6115 	 -4.37471 	 -121.427
| 31> H 	 -101.146 	 -3.77369 	 -120.924
| 32> C 	 -99.4831 	 -2.98291 	 -119.728
| 33> H 	 -99.6776 	 -3.53577 	 -118.897
| 34> H 	 -99.8257 	 -1.99292 	 -119.558
| 35> C 	 -97.9641 	 -3.17885 	 -119.903
| 36> H 	 -97.6542 	 -2.83911 	 -120.91
| 37> H 	 -97.6135 	 -4.20223 	 -119.844
| 38> H 	 -97.4173 	 -2.59111 	 -119.209
| 39> H 	 -103.312 	 2.26223 	 -119.764
| 40> H 	 -99.5899 	 -1.9521 	 -125.559
| 41> *
| 42>
| 43>                          ****END OF INPUT****

CARTESIAN COORDINATES (ANGSTROEM)
---------------------------------
  S    -101.834000    1.218310  -121.528000
  C    -102.805000    1.344840  -120.005000
  C    -102.803000    0.142611  -119.314000
  C    -102.169000   -0.888770  -120.073000
  C    -101.620000   -0.535501  -121.304000
  H    -102.102000   -1.934550  -119.745000
  C    -103.466000   -0.219348  -118.000000
  H    -104.238000   -0.867783  -118.399000
  H    -103.980000    0.637532  -117.539000
  C    -102.607000   -1.110770  -117.116000
  H    -102.196000   -1.951070  -117.700000
  H    -101.705000   -0.541761  -116.805000
  C    -103.428000   -1.538000  -115.886000
  H    -104.266000   -2.186020  -116.113000
  H    -102.831000   -2.198450  -115.234000
  H    -103.714000   -0.627336  -115.290000
  S    -100.777000   -0.612833  -123.906000
  C    -100.087000   -1.968210  -124.578000
  C    -99.655800   -2.766910  -123.560000
  C    -100.223000   -2.506650  -122.236000
  C    -100.927000   -1.363540  -122.322000
  H    -99.047200   -3.578770  -123.842000
  C    -100.096000   -3.464130  -121.057000
  H    -99.611500   -4.374710  -121.427000
  H    -101.146000   -3.773690  -120.924000
  C    -99.483100   -2.982910  -119.728000
  H    -99.677600   -3.535770  -118.897000
  H    -99.825700   -1.992920  -119.558000
  C    -97.964100   -3.178850  -119.903000
  H    -97.654200   -2.839110  -120.910000
  H    -97.613500   -4.202230  -119.844000
  H    -97.417300   -2.591110  -119.209000
  H    -103.312000    2.262230  -119.764000
  H    -99.589900   -1.952100  -125.559000

 Total Charge           Charge          ....    0
 Multiplicity           Mult            ....    1
 Number of Electrons    NEL             ....  134
 Basis Dimension        Dim             ....  322

ORBITAL ENERGIES
----------------

  NO   OCC          E(Eh)            E(eV)
   0   2.0000     -88.962736     -2420.7991
   1   2.0000     -88.959509     -2420.7113
   2   2.0000     -10.336737      -281.2769
   3   2.0000     -10.327540      -281.0267
   4   2.0000     -10.317115      -280.7430
   5   2.0000     -10.310209      -280.5551
   6   2.0000     -10.307761      -280.4885
   7   2.0000     -10.304800      -280.4079
   8   2.0000     -10.299079      -280.2522
   9   2.0000     -10.294899      -280.1384
  10   2.0000     -10.294529      -280.1284
  11   2.0000     -10.294267      -280.1213
  12   2.0000     -10.290808      -280.0271
  13   2.0000     -10.286502      -279.9099
  14   2.0000     -10.279374      -279.7160
  15   2.0000     -10.272986      -279.5422
  16   2.0000      -8.076515      -219.7732
  17   2.0000      -8.076183      -219.7641
  18   2.0000      -6.035014      -164.2211
  19   2.0000      -6.034949      -164.2193
  20   2.0000      -6.030952      -164.1105
  21   2.0000      -6.030823      -164.1070
  22   2.0000      -6.027000      -164.0030
  23   2.0000      -6.026665      -163.9939
  24   2.0000      -1.014557       -27.6075
  25   2.0000      -0.981644       -26.7119
  26   2.0000      -0.917057       -24.9544
  27   2.0000      -0.915821       -24.9208
  28   2.0000      -0.870498       -23.6874
  29   2.0000      -0.856011       -23.2933
  30   2.0000      -0.838786       -22.8245
  31   2.0000      -0.813313       -22.1314
  32   2.0000      -0.783886       -21.3306
  33   2.0000      -0.775060       -21.0905
  34   2.0000      -0.717533       -19.5251
  35   2.0000      -0.708031       -19.2665
  36   2.0000      -0.691475       -18.8160
  37   2.0000      -0.665999       -18.1227
  38   2.0000      -0.637267       -17.3409
  39   2.0000      -0.623273       -16.9601
  40   2.0000      -0.595394       -16.2015
  41   2.0000      -0.566894       -15.4260
  42   2.0000      -0.563361       -15.3298
  43   2.0000      -0.561497       -15.2791
  44   2.0000      -0.553981       -15.0746
  45   2.0000      -0.525748       -14.3063
  46   2.0000      -0.513970       -13.9858
  47   2.0000      -0.508426       -13.8350
  48   2.0000      -0.505535       -13.7563
  49   2.0000      -0.501249       -13.6397
  50   2.0000      -0.492290       -13.3959
  51   2.0000      -0.478697       -13.0260
  52   2.0000      -0.476527       -12.9670
  53   2.0000      -0.466670       -12.6987
  54   2.0000      -0.460809       -12.5393
  55   2.0000      -0.451017       -12.2728
  56   2.0000      -0.444892       -12.1061
  57   2.0000      -0.442975       -12.0540
  58   2.0000      -0.433166       -11.7870
  59   2.0000      -0.425365       -11.5748
  60   2.0000      -0.424574       -11.5533
  61   2.0000      -0.417139       -11.3509
  62   2.0000      -0.409235       -11.1358
  63   2.0000      -0.360255        -9.8030
  64   2.0000      -0.329894        -8.9769
  65   2.0000      -0.322604        -8.7785
  66   2.0000      -0.287162        -7.8141
  67   0.0000       0.021051         0.5728
  68   0.0000       0.079480         2.1628
  69   0.0000       0.099503         2.7076
  70   0.0000       0.124248         3.3810
  71   0.0000       0.127694         3.4747

MULLIKEN ATOMIC CHARGES
-----------------------
   0 S :    0.075005
   1 C :   -0.147410
   2 C :   -0.037236
   3 C :   -0.041109
   4 C :   -0.106065
   5 H :    0.013995
   6 C :    0.076825
   7 H :    0.035230
   8 H :    0.026662
   9 C :   -0.102562
  10 H :    0.032508
  11 H :    0.039918
  12 C :   -0.048225
  13 H :    0.032948
  14 H :    0.029352
  15 H :    0.046475
  16 S :    0.094191
  17 C :   -0.074777
  18 C :   -0.047965
  19 C :   -0.056754
  20 C :   -0.122857
  21 H :   -0.000876
  22 C :    0.017372
  23 H :    0.017040
  24 H :    0.043041
  25 C :    0.017793
  26 H :    0.008324
  27 H :    0.035646
  28 C :   -0.054777
  29 H :    0.025705
  30 H :    0.030504
  31 H :    0.021698
  32 H :    0.045832
  33 H :    0.074550
Sum of atomic charges:    0.0000000

LOEWDIN ATOMIC CHARGES
----------------------
   0 S :    0.357085
   1 C :   -0.180849
   2 C :   -0.057386
   3 C :   -0.081420
   4 C :   -0.169835
   5 H :    0.027840
   6 C :   -0.032865
   7 H :    0.038536
   8 H :    0.031956
   9 C :   -0.043227
  10 H :    0.024811
  11 H :    0.029101
  12 C :   -0.068639
  13 H :    0.024340
  14 H :    0.026814
  15 H :    0.034315
  16 S :    0.426164
  17 C :   -0.216508
  18 C :   -0.068398
  19 C :   -0.055414
  20 C :   -0.185779
  21 H :    0.018838
  22 C :   -0.030184
  23 H :    0.031399
  24 H :    0.035214
  25 C :   -0.028870
  26 H :    0.013795
  27 H :    0.023793
  28 C :   -0.057174
  29 H :    0.025512
  30 H :    0.023848
  31 H :    0.018171
  32 H :    0.024670
  33 H :    0.040346

  Mayer bond orders larger than 0.100000
B(  0-S ,  1-C ) :   1.1103 B(  0-S ,  4-C ) :   1.1367 B(  1-C ,  2-C ) :   1.6167
B(  1-C , 32-H ) :   0.9760 B(  2-C ,  3-C ) :   1.2228 B(  2-C ,  6-C ) :   1.0071
B(  3-C ,  4-C ) :   1.5970 B(  3-C ,  5-H ) :   0.9799 B(  4-C , 20-C ) :   1.0579
B(  6-C ,  7-H ) :   0.9347 B(  6-C ,  8-H ) :   0.9484 B(  6-C ,  9-C ) :   1.0551
B(  9-C , 10-H ) :   0.9478 B(  9-C , 11-H ) :   0.9562 B(  9-C , 12-C ) :   1.0865
B( 12-C , 13-H ) :   0.9751 B( 12-C , 14-H ) :   0.9730 B( 12-C , 15-H ) :   0.9726
B( 16-S , 17-C ) :   1.1638 B( 16-S , 20-C ) :   1.1441 B( 17-C , 18-C ) :   1.6267
B( 17-C , 33-H ) :   0.9585 B( 18-C , 19-C ) :   1.2194 B( 18-C , 21-H ) :   0.9902
B( 19-C , 20-C ) :   1.6094 B( 19-C , 22-C ) :   1.0266 B( 22-C , 23-H ) :   0.9348
B( 22-C , 24-H ) :   0.9318 B( 22-C , 25-C ) :   1.0593 B( 25-C , 26-H ) :   0.9508
B( 25-C , 27-H ) :   0.9543 B( 25-C , 28-C ) :   1.0701 B( 28-C , 29-H ) :   0.9802
B( 28-C , 30-H ) :   0.9767 B( 28-C , 31-H ) :   0.9727

Dispersion correction           -0.014623731
FINAL SINGLE POINT ENERGY     -1339.862375165040

DIPOLE MOMENT
-------------
                                X             Y             Z
Electronic contribution:     -2.27451      15.33191     -26.91882
Nuclear contribution   :      2.34809     -15.89295      27.49291
                        -----------------------------------------
Total Dipole Moment    :      0.07358      -0.56104       0.57408
                        -----------------------------------------
Magnitude (a.u.)       :      0.80607
Magnitude (Debye)      :      2.04887

Rotational constants in cm-1:     0.018827     0.009501     0.006816
Rotational constants in MHz :   564.431047   284.831370   204.348268

                             ****ORCA TERMINATED NORMALLY****
TOTAL RUN TIME: 0 days 0 hours 0 minutes 21 seconds 335 msec
