                         Program Version 4.2.1 -  RELEASE  -
|  1> ! wB97X-D3 SP def2-SVP
|  2> %pal
|  3> nprocs 24
|  4> end
|  5>
|  6> * xyz 0 1
|  7> S 	 -128.219 	 63.219 	 -60.2493
|  8> C 	 -127.186 	 62.1319 	 -61.1842
|  9> C 	 -127.512 	 60.8347 	 -61.0404
| 10> C 	 -128.677 	 60.7037 	 -60.2152
| 11> C 	 -129.125 	 61.8901 	 -59.5743
| 12> H 	 -129.146 	 59.6974 	 -60.0432
| 13> C 	 -126.886 	 59.6138 	 -61.6892
| 14> H 	 -126.896 	 58.6965 	 -61.095
| 15> H 	 -125.786 	 59.7847 	 -61.7361
| 16> C 	 -127.492 	 59.1442 	 -63.038
| 17> H 	 -127.545 	 59.8747 	 -63.7884
| 18> H 	 -126.747 	 58.6121 	 -63.5712
| 19> C 	 -128.678 	 58.1113 	 -62.7551
| 20> H 	 -128.514 	 57.4386 	 -61.9864
| 21> H 	 -129.614 	 58.7212 	 -62.4803
| 22> H 	 -128.97 	 57.5144 	 -63.6088
| 23> S 	 -131.254 	 63.5868 	 -58.9385
| 24> C 	 -132.571 	 62.9073 	 -58.0483
| 25> C 	 -132.257 	 61.6902 	 -57.4894
| 26> C 	 -130.925 	 61.2341 	 -57.7772
| 27> C 	 -130.388 	 62.0212 	 -58.784
| 28> H 	 -132.965 	 61.228 	 -56.823
| 29> C 	 -130.303 	 59.9872 	 -57.1355
| 30> H 	 -130.12 	 59.2688 	 -57.9391
| 31> H 	 -131.106 	 59.6037 	 -56.5271
| 32> C 	 -129.09 	 60.0435 	 -56.1895
| 33> H 	 -128.721 	 59.0203 	 -55.8982
| 34> H 	 -129.449 	 60.6323 	 -55.3798
| 35> C 	 -127.766 	 60.6838 	 -56.7471
| 36> H 	 -127.786 	 61.7578 	 -56.69
| 37> H 	 -127.508 	 60.5132 	 -57.7871
| 38> H 	 -126.987 	 60.3576 	 -56.0287
| 39> H 	 -126.292 	 62.4676 	 -61.6849
| 40> H 	 -133.527 	 63.4287 	 -57.8654
| 41> *
| 42>
| 43>                          ****END OF INPUT****

CARTESIAN COORDINATES (ANGSTROEM)
---------------------------------
  S    -128.219000   63.219000  -60.249300
  C    -127.186000   62.131900  -61.184200
  C    -127.512000   60.834700  -61.040400
  C    -128.677000   60.703700  -60.215200
  C    -129.125000   61.890100  -59.574300
  H    -129.146000   59.697400  -60.043200
  C    -126.886000   59.613800  -61.689200
  H    -126.896000   58.696500  -61.095000
  H    -125.786000   59.784700  -61.736100
  C    -127.492000   59.144200  -63.038000
  H    -127.545000   59.874700  -63.788400
  H    -126.747000   58.612100  -63.571200
  C    -128.678000   58.111300  -62.755100
  H    -128.514000   57.438600  -61.986400
  H    -129.614000   58.721200  -62.480300
  H    -128.970000   57.514400  -63.608800
  S    -131.254000   63.586800  -58.938500
  C    -132.571000   62.907300  -58.048300
  C    -132.257000   61.690200  -57.489400
  C    -130.925000   61.234100  -57.777200
  C    -130.388000   62.021200  -58.784000
  H    -132.965000   61.228000  -56.823000
  C    -130.303000   59.987200  -57.135500
  H    -130.120000   59.268800  -57.939100
  H    -131.106000   59.603700  -56.527100
  C    -129.090000   60.043500  -56.189500
  H    -128.721000   59.020300  -55.898200
  H    -129.449000   60.632300  -55.379800
  C    -127.766000   60.683800  -56.747100
  H    -127.786000   61.757800  -56.690000
  H    -127.508000   60.513200  -57.787100
  H    -126.987000   60.357600  -56.028700
  H    -126.292000   62.467600  -61.684900
  H    -133.527000   63.428700  -57.865400

 Total Charge           Charge          ....    0
 Multiplicity           Mult            ....    1
 Number of Electrons    NEL             ....  134
 Basis Dimension        Dim             ....  322

ORBITAL ENERGIES
----------------

  NO   OCC          E(Eh)            E(eV)
   0   2.0000     -88.968213     -2420.9481
   1   2.0000     -88.965635     -2420.8780
   2   2.0000     -10.335963      -281.2559
   3   2.0000     -10.333649      -281.1929
   4   2.0000     -10.317125      -280.7432
   5   2.0000     -10.312828      -280.6263
   6   2.0000     -10.308434      -280.5068
   7   2.0000     -10.299480      -280.2631
   8   2.0000     -10.298572      -280.2384
   9   2.0000     -10.297999      -280.2228
  10   2.0000     -10.293647      -280.1044
  11   2.0000     -10.292705      -280.0787
  12   2.0000     -10.289361      -279.9877
  13   2.0000     -10.287139      -279.9273
  14   2.0000     -10.284069      -279.8437
  15   2.0000     -10.267675      -279.3977
  16   2.0000      -8.082585      -219.9383
  17   2.0000      -8.080354      -219.8776
  18   2.0000      -6.041209      -164.3896
  19   2.0000      -6.038840      -164.3252
  20   2.0000      -6.037148      -164.2792
  21   2.0000      -6.035173      -164.2254
  22   2.0000      -6.033247      -164.1730
  23   2.0000      -6.030833      -164.1073
  24   2.0000      -1.003467       -27.3057
  25   2.0000      -0.984383       -26.7864
  26   2.0000      -0.908093       -24.7105
  27   2.0000      -0.902501       -24.5583
  28   2.0000      -0.864791       -23.5322
  29   2.0000      -0.847470       -23.0608
  30   2.0000      -0.839677       -22.8488
  31   2.0000      -0.808765       -22.0076
  32   2.0000      -0.784390       -21.3443
  33   2.0000      -0.777310       -21.1517
  34   2.0000      -0.719771       -19.5860
  35   2.0000      -0.703640       -19.1470
  36   2.0000      -0.687246       -18.7009
  37   2.0000      -0.660414       -17.9708
  38   2.0000      -0.634310       -17.2604
  39   2.0000      -0.616005       -16.7623
  40   2.0000      -0.589786       -16.0489
  41   2.0000      -0.572484       -15.5781
  42   2.0000      -0.558303       -15.1922
  43   2.0000      -0.549779       -14.9602
  44   2.0000      -0.537510       -14.6264
  45   2.0000      -0.525916       -14.3109
  46   2.0000      -0.512865       -13.9558
  47   2.0000      -0.503816       -13.7095
  48   2.0000      -0.495509       -13.4835
  49   2.0000      -0.491434       -13.3726
  50   2.0000      -0.489595       -13.3226
  51   2.0000      -0.485855       -13.2208
  52   2.0000      -0.475768       -12.9463
  53   2.0000      -0.463086       -12.6012
  54   2.0000      -0.455145       -12.3851
  55   2.0000      -0.448127       -12.1942
  56   2.0000      -0.445824       -12.1315
  57   2.0000      -0.439238       -11.9523
  58   2.0000      -0.429360       -11.6835
  59   2.0000      -0.424635       -11.5549
  60   2.0000      -0.420645       -11.4463
  61   2.0000      -0.409443       -11.1415
  62   2.0000      -0.404575       -11.0090
  63   2.0000      -0.354901        -9.6573
  64   2.0000      -0.334619        -9.1055
  65   2.0000      -0.327912        -8.9229
  66   2.0000      -0.283179        -7.7057
  67   0.0000       0.020166         0.5488
  68   0.0000       0.075843         2.0638
  69   0.0000       0.093853         2.5539
  70   0.0000       0.120323         3.2742
  71   0.0000       0.138261         3.7623

MULLIKEN ATOMIC CHARGES
-----------------------
   0 S :    0.096381
   1 C :   -0.128393
   2 C :   -0.036701
   3 C :   -0.028365
   4 C :   -0.118625
   5 H :    0.026817
   6 C :    0.028347
   7 H :    0.020990
   8 H :    0.026505
   9 C :   -0.009314
  10 H :    0.010479
  11 H :    0.006079
  12 C :   -0.061353
  13 H :    0.018797
  14 H :    0.051649
  15 H :    0.034408
  16 S :    0.097629
  17 C :   -0.093496
  18 C :   -0.032188
  19 C :   -0.058997
  20 C :   -0.145381
  21 H :    0.014393
  22 C :    0.081500
  23 H :    0.030990
  24 H :    0.009687
  25 C :   -0.061735
  26 H :    0.042391
  27 H :    0.027046
  28 C :   -0.057573
  29 H :    0.025612
  30 H :    0.042385
  31 H :    0.030978
  32 H :    0.042898
  33 H :    0.066160
Sum of atomic charges:   -0.0000000

LOEWDIN ATOMIC CHARGES
----------------------
   0 S :    0.397230
   1 C :   -0.184785
   2 C :   -0.069253
   3 C :   -0.069218
   4 C :   -0.195093
   5 H :    0.032119
   6 C :   -0.033332
   7 H :    0.031773
   8 H :    0.034091
   9 C :   -0.036024
  10 H :    0.021172
  11 H :    0.022837
  12 C :   -0.063597
  13 H :    0.012747
  14 H :    0.037495
  15 H :    0.025571
  16 S :    0.387411
  17 C :   -0.192558
  18 C :   -0.072849
  19 C :   -0.054762
  20 C :   -0.172256
  21 H :    0.029408
  22 C :   -0.033785
  23 H :    0.029593
  24 H :    0.029538
  25 C :   -0.033621
  26 H :    0.034193
  27 H :    0.022187
  28 C :   -0.073846
  29 H :    0.021638
  30 H :    0.024856
  31 H :    0.028008
  32 H :    0.027044
  33 H :    0.036067

  Mayer bond orders larger than 0.100000
B(  0-S ,  1-C ) :   1.1307 B(  0-S ,  4-C ) :   1.1481 B(  1-C ,  2-C ) :   1.6261
B(  1-C , 32-H ) :   0.9641 B(  2-C ,  3-C ) :   1.2556 B(  2-C ,  6-C ) :   1.0278
B(  3-C ,  4-C ) :   1.5512 B(  3-C ,  5-H ) :   0.9773 B(  4-C , 20-C ) :   1.0624
B(  6-C ,  7-H ) :   0.9465 B(  6-C ,  8-H ) :   0.9389 B(  6-C ,  9-C ) :   1.0681
B(  9-C , 10-H ) :   0.9571 B(  9-C , 11-H ) :   0.9475 B(  9-C , 12-C ) :   1.0588
B( 12-C , 13-H ) :   0.9776 B( 12-C , 14-H ) :   0.9770 B( 12-C , 15-H ) :   0.9763
B( 16-S , 17-C ) :   1.1471 B( 16-S , 20-C ) :   1.1271 B( 17-C , 18-C ) :   1.6329
B( 17-C , 33-H ) :   0.9623 B( 18-C , 19-C ) :   1.2265 B( 18-C , 21-H ) :   0.9883
B( 19-C , 20-C ) :   1.6002 B( 19-C , 22-C ) :   1.0193 B( 22-C , 23-H ) :   0.9346
B( 22-C , 24-H ) :   0.9302 B( 22-C , 25-C ) :   1.0791 B( 25-C , 26-H ) :   0.9604
B( 25-C , 27-H ) :   0.9536 B( 25-C , 28-C ) :   1.0723 B( 28-C , 29-H ) :   0.9719
B( 28-C , 30-H ) :   0.9741 B( 28-C , 31-H ) :   0.9764

Dispersion correction           -0.015474182
FINAL SINGLE POINT ENERGY     -1339.851803456902

DIPOLE MOMENT
-------------
                                X             Y             Z
Electronic contribution:     -9.16615      24.26171       0.62520
Nuclear contribution   :      9.28284     -24.94071      -0.60702
                        -----------------------------------------
Total Dipole Moment    :      0.11669      -0.67901       0.01818
                        -----------------------------------------
Magnitude (a.u.)       :      0.68920
Magnitude (Debye)      :      1.75181

Rotational constants in cm-1:     0.018694     0.008974     0.007999
Rotational constants in MHz :   560.445372   269.022344   239.816367

                             ****ORCA TERMINATED NORMALLY****
TOTAL RUN TIME: 0 days 0 hours 0 minutes 22 seconds 459 msec
