                         Program Version 4.2.1 -  RELEASE  -
|  1> ! wB97X-D3 SP def2-SVP
|  2> %pal
|  3> nprocs 24
|  4> end
|  5>
|  6> * xyz 0 1
|  7> S 	 -64.1216 	 6.95382 	 -86.2271
|  8> C 	 -65.6951 	 6.51065 	 -85.6836
|  9> C 	 -65.9658 	 6.9389 	 -84.4479
| 10> C 	 -64.8364 	 7.62526 	 -83.8341
| 11> C 	 -63.8625 	 7.92913 	 -84.7602
| 12> H 	 -64.863 	 7.87226 	 -82.7865
| 13> C 	 -67.2303 	 6.62264 	 -83.6834
| 14> H 	 -67.0696 	 6.49834 	 -82.6219
| 15> H 	 -67.55 	 5.59399 	 -84.0098
| 16> C 	 -68.2272 	 7.82076 	 -83.9353
| 17> H 	 -69.0388 	 7.86168 	 -83.1997
| 18> H 	 -67.7712 	 8.81021 	 -83.9061
| 19> C 	 -68.8099 	 7.71477 	 -85.3846
| 20> H 	 -69.5654 	 8.38537 	 -85.676
| 21> H 	 -68.0965 	 7.93198 	 -86.1501
| 22> H 	 -69.2657 	 6.75495 	 -85.5725
| 23> S 	 -62.2351 	 9.77958 	 -86.0831
| 24> C 	 -60.7254 	 10.3569 	 -85.2769
| 25> C 	 -60.7207 	 9.97396 	 -83.9991
| 26> C 	 -61.7548 	 9.04394 	 -83.6257
| 27> C 	 -62.684 	 8.79524 	 -84.6684
| 28> H 	 -59.9391 	 10.3736 	 -83.372
| 29> C 	 -61.8952 	 8.4485 	 -82.2417
| 30> H 	 -60.8707 	 8.02813 	 -82.0009
| 31> H 	 -62.4699 	 7.51413 	 -82.2362
| 32> C 	 -62.2247 	 9.43649 	 -81.1487
| 33> H 	 -63.2725 	 9.65229 	 -81.2224
| 34> H 	 -61.7337 	 10.3808 	 -81.296
| 35> C 	 -61.9525 	 8.90807 	 -79.7054
| 36> H 	 -62.4718 	 7.92871 	 -79.4578
| 37> H 	 -62.1719 	 9.67757 	 -78.9802
| 38> H 	 -60.8483 	 8.78534 	 -79.633
| 39> H 	 -66.4613 	 5.82509 	 -86.1121
| 40> H 	 -59.9401 	 10.8791 	 -85.7983
| 41> *
| 42>
| 43>                          ****END OF INPUT****

CARTESIAN COORDINATES (ANGSTROEM)
---------------------------------
  S    -64.121600    6.953820  -86.227100
  C    -65.695100    6.510650  -85.683600
  C    -65.965800    6.938900  -84.447900
  C    -64.836400    7.625260  -83.834100
  C    -63.862500    7.929130  -84.760200
  H    -64.863000    7.872260  -82.786500
  C    -67.230300    6.622640  -83.683400
  H    -67.069600    6.498340  -82.621900
  H    -67.550000    5.593990  -84.009800
  C    -68.227200    7.820760  -83.935300
  H    -69.038800    7.861680  -83.199700
  H    -67.771200    8.810210  -83.906100
  C    -68.809900    7.714770  -85.384600
  H    -69.565400    8.385370  -85.676000
  H    -68.096500    7.931980  -86.150100
  H    -69.265700    6.754950  -85.572500
  S    -62.235100    9.779580  -86.083100
  C    -60.725400   10.356900  -85.276900
  C    -60.720700    9.973960  -83.999100
  C    -61.754800    9.043940  -83.625700
  C    -62.684000    8.795240  -84.668400
  H    -59.939100   10.373600  -83.372000
  C    -61.895200    8.448500  -82.241700
  H    -60.870700    8.028130  -82.000900
  H    -62.469900    7.514130  -82.236200
  C    -62.224700    9.436490  -81.148700
  H    -63.272500    9.652290  -81.222400
  H    -61.733700   10.380800  -81.296000
  C    -61.952500    8.908070  -79.705400
  H    -62.471800    7.928710  -79.457800
  H    -62.171900    9.677570  -78.980200
  H    -60.848300    8.785340  -79.633000
  H    -66.461300    5.825090  -86.112100
  H    -59.940100   10.879100  -85.798300

 Total Charge           Charge          ....    0
 Multiplicity           Mult            ....    1
 Number of Electrons    NEL             ....  134
 Basis Dimension        Dim             ....  322

ORBITAL ENERGIES
----------------

  NO   OCC          E(Eh)            E(eV)
   0   2.0000     -88.965572     -2420.8763
   1   2.0000     -88.961125     -2420.7553
   2   2.0000     -10.335045      -281.2309
   3   2.0000     -10.333315      -281.1838
   4   2.0000     -10.317618      -280.7567
   5   2.0000     -10.307999      -280.4949
   6   2.0000     -10.307630      -280.4849
   7   2.0000     -10.300039      -280.2783
   8   2.0000     -10.297380      -280.2060
   9   2.0000     -10.294620      -280.1309
  10   2.0000     -10.293502      -280.1004
  11   2.0000     -10.293496      -280.1003
  12   2.0000     -10.293424      -280.0983
  13   2.0000     -10.287282      -279.9312
  14   2.0000     -10.284778      -279.8630
  15   2.0000     -10.267444      -279.3914
  16   2.0000      -8.080264      -219.8752
  17   2.0000      -8.074811      -219.7268
  18   2.0000      -6.038947      -164.3281
  19   2.0000      -6.034909      -164.2182
  20   2.0000      -6.033478      -164.1793
  21   2.0000      -6.030678      -164.1031
  22   2.0000      -6.029535      -164.0720
  23   2.0000      -6.025374      -163.9587
  24   2.0000      -1.004359       -27.3300
  25   2.0000      -0.981777       -26.7155
  26   2.0000      -0.909005       -24.7353
  27   2.0000      -0.907604       -24.6972
  28   2.0000      -0.869609       -23.6633
  29   2.0000      -0.846189       -23.0260
  30   2.0000      -0.839640       -22.8478
  31   2.0000      -0.819288       -22.2940
  32   2.0000      -0.781772       -21.2731
  33   2.0000      -0.769766       -20.9464
  34   2.0000      -0.713547       -19.4166
  35   2.0000      -0.701260       -19.0822
  36   2.0000      -0.697712       -18.9857
  37   2.0000      -0.658396       -17.9159
  38   2.0000      -0.631695       -17.1893
  39   2.0000      -0.623669       -16.9709
  40   2.0000      -0.599055       -16.3011
  41   2.0000      -0.574132       -15.6229
  42   2.0000      -0.560027       -15.2391
  43   2.0000      -0.544199       -14.8084
  44   2.0000      -0.541093       -14.7239
  45   2.0000      -0.529352       -14.4044
  46   2.0000      -0.518712       -14.1149
  47   2.0000      -0.513298       -13.9676
  48   2.0000      -0.498025       -13.5519
  49   2.0000      -0.495274       -13.4771
  50   2.0000      -0.487075       -13.2540
  51   2.0000      -0.480677       -13.0799
  52   2.0000      -0.467147       -12.7117
  53   2.0000      -0.460482       -12.5304
  54   2.0000      -0.458361       -12.4726
  55   2.0000      -0.446398       -12.1471
  56   2.0000      -0.444567       -12.0973
  57   2.0000      -0.440579       -11.9888
  58   2.0000      -0.438080       -11.9208
  59   2.0000      -0.428370       -11.6565
  60   2.0000      -0.419401       -11.4125
  61   2.0000      -0.414943       -11.2912
  62   2.0000      -0.408072       -11.1042
  63   2.0000      -0.354758        -9.6535
  64   2.0000      -0.328131        -8.9289
  65   2.0000      -0.326564        -8.8863
  66   2.0000      -0.289329        -7.8730
  67   0.0000       0.023826         0.6483
  68   0.0000       0.076853         2.0913
  69   0.0000       0.107056         2.9131
  70   0.0000       0.113425         3.0865
  71   0.0000       0.131053         3.5661

MULLIKEN ATOMIC CHARGES
-----------------------
   0 S :    0.116460
   1 C :   -0.094049
   2 C :   -0.142364
   3 C :    0.035285
   4 C :   -0.136039
   5 H :    0.009822
   6 C :    0.051688
   7 H :    0.022583
   8 H :    0.036443
   9 C :   -0.050623
  10 H :    0.032793
  11 H :    0.040674
  12 C :   -0.050956
  13 H :    0.014381
  14 H :    0.033388
  15 H :    0.017565
  16 S :    0.076801
  17 C :   -0.096666
  18 C :   -0.013490
  19 C :   -0.030670
  20 C :   -0.134019
  21 H :    0.019872
  22 C :    0.036316
  23 H :    0.019343
  24 H :    0.029105
  25 C :   -0.043875
  26 H :    0.018907
  27 H :    0.024175
  28 C :   -0.071178
  29 H :    0.049767
  30 H :    0.036665
  31 H :    0.031503
  32 H :    0.050181
  33 H :    0.060217
Sum of atomic charges:   -0.0000000

LOEWDIN ATOMIC CHARGES
----------------------
   0 S :    0.402312
   1 C :   -0.212150
   2 C :   -0.070068
   3 C :   -0.053722
   4 C :   -0.179412
   5 H :    0.028462
   6 C :   -0.029188
   7 H :    0.026741
   8 H :    0.035119
   9 C :   -0.030929
  10 H :    0.021582
  11 H :    0.030256
  12 C :   -0.069273
  13 H :    0.019906
  14 H :    0.024513
  15 H :    0.019584
  16 S :    0.359508
  17 C :   -0.159747
  18 C :   -0.071213
  19 C :   -0.054213
  20 C :   -0.187524
  21 H :    0.034075
  22 C :   -0.041507
  23 H :    0.033381
  24 H :    0.031603
  25 C :   -0.039396
  26 H :    0.019226
  27 H :    0.024064
  28 C :   -0.068950
  29 H :    0.033124
  30 H :    0.024781
  31 H :    0.026259
  32 H :    0.041152
  33 H :    0.031643

  Mayer bond orders larger than 0.100000
B(  0-S ,  1-C ) :   1.1123 B(  0-S ,  4-C ) :   1.1386 B(  1-C ,  2-C ) :   1.6821
B(  1-C , 32-H ) :   0.9462 B(  2-C ,  3-C ) :   1.2251 B(  2-C ,  6-C ) :   1.0170
B(  3-C ,  4-C ) :   1.5718 B(  3-C ,  5-H ) :   0.9965 B(  4-C , 20-C ) :   1.0610
B(  6-C ,  7-H ) :   0.9461 B(  6-C ,  8-H ) :   0.9532 B(  6-C ,  9-C ) :   1.0405
B(  9-C , 10-H ) :   0.9621 B(  9-C , 11-H ) :   0.9604 B(  9-C , 12-C ) :   1.0687
B( 12-C , 13-H ) :   0.9718 B( 12-C , 14-H ) :   0.9719 B( 12-C , 15-H ) :   0.9778
B( 16-S , 17-C ) :   1.1215 B( 16-S , 20-C ) :   1.1283 B( 17-C , 18-C ) :   1.6475
B( 17-C , 33-H ) :   0.9690 B( 18-C , 19-C ) :   1.2106 B( 18-C , 21-H ) :   0.9888
B( 19-C , 20-C ) :   1.5912 B( 19-C , 22-C ) :   1.0531 B( 22-C , 23-H ) :   0.9319
B( 22-C , 24-H ) :   0.9318 B( 22-C , 25-C ) :   1.0563 B( 25-C , 26-H ) :   0.9500
B( 25-C , 27-H ) :   0.9545 B( 25-C , 28-C ) :   1.0792 B( 28-C , 29-H ) :   0.9752
B( 28-C , 30-H ) :   0.9745 B( 28-C , 31-H ) :   0.9758

Dispersion correction           -0.014285911
FINAL SINGLE POINT ENERGY     -1339.870601831832

DIPOLE MOMENT
-------------
                                X             Y             Z
Electronic contribution:     12.91200       0.79876     -21.43045
Nuclear contribution   :    -13.03891      -0.79361      22.14192
                        -----------------------------------------
Total Dipole Moment    :     -0.12691       0.00514       0.71147
                        -----------------------------------------
Magnitude (a.u.)       :      0.72271
Magnitude (Debye)      :      1.83699

Rotational constants in cm-1:     0.018248     0.008625     0.006568
Rotational constants in MHz :   547.068279   258.577174   196.890658

                             ****ORCA TERMINATED NORMALLY****
TOTAL RUN TIME: 0 days 0 hours 0 minutes 21 seconds 423 msec
