                         Program Version 4.2.1 -  RELEASE  -
|  1> ! wB97X-D3 SP def2-SVP
|  2> %pal
|  3> nprocs 24
|  4> end
|  5>
|  6> * xyz 0 1
|  7> S 	 45.123 	 -12.0729 	 -124.738
|  8> C 	 43.701 	 -11.0358 	 -124.539
|  9> C 	 42.512 	 -11.5861 	 -125.132
| 10> C 	 42.8068 	 -12.928 	 -125.579
| 11> C 	 44.1213 	 -13.3726 	 -125.417
| 12> H 	 42.0227 	 -13.5957 	 -125.762
| 13> C 	 41.1315 	 -10.9265 	 -125.216
| 14> H 	 41.2334 	 -10.0247 	 -124.647
| 15> H 	 40.3661 	 -11.5311 	 -124.563
| 16> C 	 40.6145 	 -10.5043 	 -126.633
| 17> H 	 40.6147 	 -11.4611 	 -127.218
| 18> H 	 39.599 	 -10.1156 	 -126.714
| 19> C 	 41.5414 	 -9.4661 	 -127.326
| 20> H 	 42.421 	 -9.93967 	 -127.84
| 21> H 	 41.1048 	 -9.0069 	 -128.174
| 22> H 	 41.8498 	 -8.70984 	 -126.66
| 23> S 	 46.2377 	 -15.0723 	 -125.074
| 24> C 	 46.264 	 -16.644 	 -125.846
| 25> C 	 45.0735 	 -16.8771 	 -126.483
| 26> C 	 44.1668 	 -15.7845 	 -126.426
| 27> C 	 44.6639 	 -14.6735 	 -125.773
| 28> H 	 44.8259 	 -17.8162 	 -126.968
| 29> C 	 42.7511 	 -15.9674 	 -127.023
| 30> H 	 42.067 	 -15.5417 	 -126.296
| 31> H 	 42.4108 	 -17.0258 	 -127.063
| 32> C 	 42.5099 	 -15.3005 	 -128.416
| 33> H 	 42.9125 	 -14.3034 	 -128.389
| 34> H 	 41.36 	 -15.236 	 -128.52
| 35> C 	 43.108 	 -16.025 	 -129.625
| 36> H 	 43.3034 	 -15.3322 	 -130.474
| 37> H 	 42.5418 	 -16.969 	 -129.857
| 38> H 	 44.0952 	 -16.2786 	 -129.381
| 39> H 	 43.7703 	 -9.98509 	 -124.242
| 40> H 	 47.1422 	 -17.286 	 -125.757
| 41> *
| 42>
| 43>                          ****END OF INPUT****

CARTESIAN COORDINATES (ANGSTROEM)
---------------------------------
  S     45.123000  -12.072900  -124.738000
  C     43.701000  -11.035800  -124.539000
  C     42.512000  -11.586100  -125.132000
  C     42.806800  -12.928000  -125.579000
  C     44.121300  -13.372600  -125.417000
  H     42.022700  -13.595700  -125.762000
  C     41.131500  -10.926500  -125.216000
  H     41.233400  -10.024700  -124.647000
  H     40.366100  -11.531100  -124.563000
  C     40.614500  -10.504300  -126.633000
  H     40.614700  -11.461100  -127.218000
  H     39.599000  -10.115600  -126.714000
  C     41.541400   -9.466100  -127.326000
  H     42.421000   -9.939670  -127.840000
  H     41.104800   -9.006900  -128.174000
  H     41.849800   -8.709840  -126.660000
  S     46.237700  -15.072300  -125.074000
  C     46.264000  -16.644000  -125.846000
  C     45.073500  -16.877100  -126.483000
  C     44.166800  -15.784500  -126.426000
  C     44.663900  -14.673500  -125.773000
  H     44.825900  -17.816200  -126.968000
  C     42.751100  -15.967400  -127.023000
  H     42.067000  -15.541700  -126.296000
  H     42.410800  -17.025800  -127.063000
  C     42.509900  -15.300500  -128.416000
  H     42.912500  -14.303400  -128.389000
  H     41.360000  -15.236000  -128.520000
  C     43.108000  -16.025000  -129.625000
  H     43.303400  -15.332200  -130.474000
  H     42.541800  -16.969000  -129.857000
  H     44.095200  -16.278600  -129.381000
  H     43.770300   -9.985090  -124.242000
  H     47.142200  -17.286000  -125.757000

 Total Charge           Charge          ....    0
 Multiplicity           Mult            ....    1
 Number of Electrons    NEL             ....  134
 Basis Dimension        Dim             ....  322

ORBITAL ENERGIES
----------------

  NO   OCC          E(Eh)            E(eV)
   0   2.0000     -88.972567     -2421.0666
   1   2.0000     -88.964285     -2420.8413
   2   2.0000     -10.337359      -281.2938
   3   2.0000     -10.331835      -281.1435
   4   2.0000     -10.324175      -280.9351
   5   2.0000     -10.320768      -280.8424
   6   2.0000     -10.313028      -280.6318
   7   2.0000     -10.306370      -280.4506
   8   2.0000     -10.305424      -280.4249
   9   2.0000     -10.298077      -280.2249
  10   2.0000     -10.297149      -280.1997
  11   2.0000     -10.295040      -280.1423
  12   2.0000     -10.292800      -280.0813
  13   2.0000     -10.291799      -280.0541
  14   2.0000     -10.277582      -279.6672
  15   2.0000     -10.274114      -279.5729
  16   2.0000      -8.086142      -220.0351
  17   2.0000      -8.079174      -219.8455
  18   2.0000      -6.044777      -164.4867
  19   2.0000      -6.040848      -164.3798
  20   2.0000      -6.037736      -164.2952
  21   2.0000      -6.036801      -164.2697
  22   2.0000      -6.033688      -164.1850
  23   2.0000      -6.029850      -164.0806
  24   2.0000      -1.005364       -27.3573
  25   2.0000      -0.978098       -26.6154
  26   2.0000      -0.905341       -24.6356
  27   2.0000      -0.902910       -24.5694
  28   2.0000      -0.867542       -23.6070
  29   2.0000      -0.851434       -23.1687
  30   2.0000      -0.842439       -22.9239
  31   2.0000      -0.812118       -22.0989
  32   2.0000      -0.784321       -21.3425
  33   2.0000      -0.773484       -21.0476
  34   2.0000      -0.709483       -19.3060
  35   2.0000      -0.699383       -19.0312
  36   2.0000      -0.686556       -18.6821
  37   2.0000      -0.667206       -18.1556
  38   2.0000      -0.635768       -17.3001
  39   2.0000      -0.624139       -16.9837
  40   2.0000      -0.598441       -16.2844
  41   2.0000      -0.560510       -15.2523
  42   2.0000      -0.553406       -15.0589
  43   2.0000      -0.548088       -14.9142
  44   2.0000      -0.541374       -14.7315
  45   2.0000      -0.538247       -14.6464
  46   2.0000      -0.517001       -14.0683
  47   2.0000      -0.504141       -13.7184
  48   2.0000      -0.503593       -13.7035
  49   2.0000      -0.494870       -13.4661
  50   2.0000      -0.490291       -13.3415
  51   2.0000      -0.479269       -13.0416
  52   2.0000      -0.469173       -12.7669
  53   2.0000      -0.466464       -12.6931
  54   2.0000      -0.455910       -12.4059
  55   2.0000      -0.448652       -12.2085
  56   2.0000      -0.443592       -12.0708
  57   2.0000      -0.436991       -11.8911
  58   2.0000      -0.432802       -11.7771
  59   2.0000      -0.425157       -11.5691
  60   2.0000      -0.417112       -11.3502
  61   2.0000      -0.416925       -11.3451
  62   2.0000      -0.408053       -11.1037
  63   2.0000      -0.363114        -9.8808
  64   2.0000      -0.336357        -9.1527
  65   2.0000      -0.329354        -8.9622
  66   2.0000      -0.280926        -7.6444
  67   0.0000       0.013314         0.3623
  68   0.0000       0.081307         2.2125
  69   0.0000       0.089721         2.4414
  70   0.0000       0.111581         3.0363
  71   0.0000       0.128685         3.5017

MULLIKEN ATOMIC CHARGES
-----------------------
   0 S :    0.109404
   1 C :   -0.117937
   2 C :   -0.106585
   3 C :    0.004763
   4 C :   -0.096535
   5 H :   -0.011986
   6 C :    0.034463
   7 H :    0.009573
   8 H :    0.059780
   9 C :   -0.073538
  10 H :    0.035223
  11 H :    0.040966
  12 C :   -0.044380
  13 H :    0.042958
  14 H :    0.019677
  15 H :    0.023523
  16 S :    0.077044
  17 C :   -0.092633
  18 C :   -0.008742
  19 C :   -0.080655
  20 C :   -0.098587
  21 H :    0.017255
  22 C :    0.031032
  23 H :    0.028474
  24 H :    0.025612
  25 C :   -0.083440
  26 H :    0.032324
  27 H :    0.037215
  28 C :   -0.031881
  29 H :    0.039437
  30 H :    0.041866
  31 H :    0.010012
  32 H :    0.058323
  33 H :    0.067972
Sum of atomic charges:   -0.0000000

LOEWDIN ATOMIC CHARGES
----------------------
   0 S :    0.391305
   1 C :   -0.195528
   2 C :   -0.054291
   3 C :   -0.065172
   4 C :   -0.179494
   5 H :    0.018528
   6 C :   -0.041617
   7 H :    0.022846
   8 H :    0.046545
   9 C :   -0.042051
  10 H :    0.027711
  11 H :    0.027234
  12 C :   -0.066248
  13 H :    0.036236
  14 H :    0.021634
  15 H :    0.017154
  16 S :    0.390701
  17 C :   -0.179178
  18 C :   -0.072077
  19 C :   -0.061144
  20 C :   -0.184781
  21 H :    0.032771
  22 C :   -0.033954
  23 H :    0.026769
  24 H :    0.032475
  25 C :   -0.041878
  26 H :    0.022390
  27 H :    0.029600
  28 C :   -0.071365
  29 H :    0.035127
  30 H :    0.031324
  31 H :    0.016637
  32 H :    0.028844
  33 H :    0.032948

  Mayer bond orders larger than 0.100000
B(  0-S ,  1-C ) :   1.1402 B(  0-S ,  4-C ) :   1.1340 B(  1-C ,  2-C ) :   1.5981
B(  1-C ,  4-C ) :   0.1016 B(  1-C , 32-H ) :   0.9582 B(  2-C ,  3-C ) :   1.2575
B(  2-C ,  6-C ) :   1.0283 B(  3-C ,  4-C ) :   1.5665 B(  3-C ,  5-H ) :   0.9888
B(  4-C , 20-C ) :   1.0919 B(  6-C ,  7-H ) :   0.9400 B(  6-C ,  8-H ) :   0.9433
B(  6-C ,  9-C ) :   1.0501 B(  9-C , 10-H ) :   0.9610 B(  9-C , 11-H ) :   0.9630
B(  9-C , 12-C ) :   1.0661 B( 12-C , 13-H ) :   0.9733 B( 12-C , 14-H ) :   0.9744
B( 12-C , 15-H ) :   0.9797 B( 16-S , 17-C ) :   1.1552 B( 16-S , 20-C ) :   1.1289
B( 17-C , 18-C ) :   1.5785 B( 17-C , 33-H ) :   0.9707 B( 18-C , 19-C ) :   1.2638
B( 18-C , 21-H ) :   0.9924 B( 19-C , 20-C ) :   1.5927 B( 19-C , 22-C ) :   1.0230
B( 22-C , 23-H ) :   0.9381 B( 22-C , 24-H ) :   0.9409 B( 22-C , 25-C ) :   1.0631
B( 25-C , 26-H ) :   0.9561 B( 25-C , 27-H ) :   0.9575 B( 25-C , 28-C ) :   1.0803
B( 28-C , 29-H ) :   0.9719 B( 28-C , 30-H ) :   0.9740 B( 28-C , 31-H ) :   0.9717

Dispersion correction           -0.014680951
FINAL SINGLE POINT ENERGY     -1339.874418458565

DIPOLE MOMENT
-------------
                                X             Y             Z
Electronic contribution:     22.56389      -4.55334      17.95528
Nuclear contribution   :    -23.11634       4.47847     -18.25693
                        -----------------------------------------
Total Dipole Moment    :     -0.55245      -0.07487      -0.30165
                        -----------------------------------------
Magnitude (a.u.)       :      0.63388
Magnitude (Debye)      :      1.61119

Rotational constants in cm-1:     0.018605     0.009343     0.006756
Rotational constants in MHz :   557.758961   280.109124   202.553925

                             ****ORCA TERMINATED NORMALLY****
TOTAL RUN TIME: 0 days 0 hours 0 minutes 21 seconds 883 msec
