                         Program Version 4.2.1 -  RELEASE  -
|  1> ! wB97X-D3 SP def2-SVP
|  2> %pal
|  3> nprocs 24
|  4> end
|  5>
|  6> * xyz 0 1
|  7> S 	 -53.5604 	 -41.7046 	 -77.7317
|  8> C 	 -54.3593 	 -41.9869 	 -76.2651
|  9> C 	 -54.0337 	 -43.2627 	 -75.7938
| 10> C 	 -53.0713 	 -43.9501 	 -76.5916
| 11> C 	 -52.7914 	 -43.2515 	 -77.7212
| 12> H 	 -52.7271 	 -44.9557 	 -76.4289
| 13> C 	 -54.4681 	 -43.8999 	 -74.4836
| 14> H 	 -53.6692 	 -44.4866 	 -74.0006
| 15> H 	 -55.276 	 -44.6078 	 -74.7879
| 16> C 	 -54.9498 	 -42.9513 	 -73.4314
| 17> H 	 -54.2785 	 -42.2313 	 -73.1011
| 18> H 	 -55.8642 	 -42.5755 	 -73.7526
| 19> C 	 -55.3094 	 -43.6181 	 -71.9952
| 20> H 	 -54.4704 	 -44.3038 	 -71.7756
| 21> H 	 -55.3138 	 -42.8675 	 -71.1928
| 22> H 	 -56.2721 	 -44.2185 	 -72.0837
| 23> S 	 -52.6195 	 -44.9561 	 -79.8457
| 24> C 	 -51.1502 	 -44.9492 	 -80.8378
| 25> C 	 -50.1833 	 -44.0134 	 -80.42
| 26> C 	 -50.7293 	 -43.1636 	 -79.3778
| 27> C 	 -51.9087 	 -43.6768 	 -78.8248
| 28> H 	 -49.1928 	 -44.0193 	 -80.8686
| 29> C 	 -49.8884 	 -42.0897 	 -78.7331
| 30> H 	 -50.6668 	 -41.3802 	 -78.5372
| 31> H 	 -49.3069 	 -41.772 	 -79.6174
| 32> C 	 -49.0944 	 -42.4699 	 -77.4761
| 33> H 	 -49.7327 	 -42.8072 	 -76.6554
| 34> H 	 -48.5057 	 -41.6164 	 -77.12
| 35> C 	 -48.0217 	 -43.5616 	 -77.752
| 36> H 	 -47.5095 	 -43.3576 	 -78.6738
| 37> H 	 -48.4877 	 -44.5821 	 -77.8308
| 38> H 	 -47.2642 	 -43.6032 	 -77.0415
| 39> H 	 -55.0152 	 -41.2195 	 -75.9218
| 40> H 	 -50.8569 	 -45.5845 	 -81.5986
| 41> *
| 42>
| 43>                          ****END OF INPUT****

CARTESIAN COORDINATES (ANGSTROEM)
---------------------------------
  S    -53.560400  -41.704600  -77.731700
  C    -54.359300  -41.986900  -76.265100
  C    -54.033700  -43.262700  -75.793800
  C    -53.071300  -43.950100  -76.591600
  C    -52.791400  -43.251500  -77.721200
  H    -52.727100  -44.955700  -76.428900
  C    -54.468100  -43.899900  -74.483600
  H    -53.669200  -44.486600  -74.000600
  H    -55.276000  -44.607800  -74.787900
  C    -54.949800  -42.951300  -73.431400
  H    -54.278500  -42.231300  -73.101100
  H    -55.864200  -42.575500  -73.752600
  C    -55.309400  -43.618100  -71.995200
  H    -54.470400  -44.303800  -71.775600
  H    -55.313800  -42.867500  -71.192800
  H    -56.272100  -44.218500  -72.083700
  S    -52.619500  -44.956100  -79.845700
  C    -51.150200  -44.949200  -80.837800
  C    -50.183300  -44.013400  -80.420000
  C    -50.729300  -43.163600  -79.377800
  C    -51.908700  -43.676800  -78.824800
  H    -49.192800  -44.019300  -80.868600
  C    -49.888400  -42.089700  -78.733100
  H    -50.666800  -41.380200  -78.537200
  H    -49.306900  -41.772000  -79.617400
  C    -49.094400  -42.469900  -77.476100
  H    -49.732700  -42.807200  -76.655400
  H    -48.505700  -41.616400  -77.120000
  C    -48.021700  -43.561600  -77.752000
  H    -47.509500  -43.357600  -78.673800
  H    -48.487700  -44.582100  -77.830800
  H    -47.264200  -43.603200  -77.041500
  H    -55.015200  -41.219500  -75.921800
  H    -50.856900  -45.584500  -81.598600

 Total Charge           Charge          ....    0
 Multiplicity           Mult            ....    1
 Number of Electrons    NEL             ....  134
 Basis Dimension        Dim             ....  322

ORBITAL ENERGIES
----------------

  NO   OCC          E(Eh)            E(eV)
   0   2.0000     -88.967276     -2420.9227
   1   2.0000     -88.964013     -2420.8339
   2   2.0000     -10.327170      -281.0166
   3   2.0000     -10.325409      -280.9687
   4   2.0000     -10.314020      -280.6588
   5   2.0000     -10.312083      -280.6060
   6   2.0000     -10.304165      -280.3906
   7   2.0000     -10.303884      -280.3829
   8   2.0000     -10.297190      -280.2008
   9   2.0000     -10.293368      -280.0968
  10   2.0000     -10.291112      -280.0354
  11   2.0000     -10.288973      -279.9772
  12   2.0000     -10.287979      -279.9501
  13   2.0000     -10.286949      -279.9221
  14   2.0000     -10.277228      -279.6576
  15   2.0000     -10.270745      -279.4812
  16   2.0000      -8.080779      -219.8892
  17   2.0000      -8.080250      -219.8748
  18   2.0000      -6.039387      -164.3401
  19   2.0000      -6.038531      -164.3168
  20   2.0000      -6.035462      -164.2333
  21   2.0000      -6.034448      -164.2057
  22   2.0000      -6.031512      -164.1258
  23   2.0000      -6.031262      -164.1190
  24   2.0000      -1.010738       -27.5036
  25   2.0000      -0.979390       -26.6505
  26   2.0000      -0.911189       -24.7947
  27   2.0000      -0.905019       -24.6268
  28   2.0000      -0.867545       -23.6071
  29   2.0000      -0.852258       -23.1911
  30   2.0000      -0.844206       -22.9720
  31   2.0000      -0.812848       -22.1187
  32   2.0000      -0.780145       -21.2288
  33   2.0000      -0.766321       -20.8526
  34   2.0000      -0.709767       -19.3137
  35   2.0000      -0.703182       -19.1346
  36   2.0000      -0.685524       -18.6541
  37   2.0000      -0.663966       -18.0674
  38   2.0000      -0.653792       -17.7906
  39   2.0000      -0.611847       -16.6492
  40   2.0000      -0.581308       -15.8182
  41   2.0000      -0.577320       -15.7097
  42   2.0000      -0.566680       -15.4201
  43   2.0000      -0.553521       -15.0621
  44   2.0000      -0.543931       -14.8011
  45   2.0000      -0.524291       -14.2667
  46   2.0000      -0.523482       -14.2447
  47   2.0000      -0.514709       -14.0059
  48   2.0000      -0.502075       -13.6622
  49   2.0000      -0.495505       -13.4834
  50   2.0000      -0.479748       -13.0546
  51   2.0000      -0.477400       -12.9907
  52   2.0000      -0.467489       -12.7210
  53   2.0000      -0.463941       -12.6245
  54   2.0000      -0.460590       -12.5333
  55   2.0000      -0.452467       -12.3122
  56   2.0000      -0.443904       -12.0792
  57   2.0000      -0.440604       -11.9894
  58   2.0000      -0.435488       -11.8502
  59   2.0000      -0.424774       -11.5587
  60   2.0000      -0.423128       -11.5139
  61   2.0000      -0.406166       -11.0523
  62   2.0000      -0.404202       -10.9989
  63   2.0000      -0.340813        -9.2740
  64   2.0000      -0.331584        -9.0229
  65   2.0000      -0.324102        -8.8193
  66   2.0000      -0.298175        -8.1138
  67   0.0000       0.037245         1.0135
  68   0.0000       0.065368         1.7788
  69   0.0000       0.109429         2.9777
  70   0.0000       0.114530         3.1165
  71   0.0000       0.130115         3.5406

MULLIKEN ATOMIC CHARGES
-----------------------
   0 S :    0.125025
   1 C :   -0.139259
   2 C :   -0.069553
   3 C :    0.029838
   4 C :   -0.146011
   5 H :    0.014275
   6 C :    0.057431
   7 H :    0.026748
   8 H :    0.044939
   9 C :   -0.061847
  10 H :    0.027097
  11 H :    0.018275
  12 C :   -0.095200
  13 H :    0.027921
  14 H :    0.042964
  15 H :    0.047133
  16 S :    0.111723
  17 C :   -0.052660
  18 C :   -0.064536
  19 C :   -0.065050
  20 C :   -0.172861
  21 H :    0.030149
  22 C :    0.085005
  23 H :    0.016246
  24 H :    0.028070
  25 C :   -0.036845
  26 H :    0.040894
  27 H :    0.032630
  28 C :   -0.051537
  29 H :    0.012455
  30 H :    0.047420
  31 H :    0.016324
  32 H :    0.049067
  33 H :    0.023729
Sum of atomic charges:    0.0000000

LOEWDIN ATOMIC CHARGES
----------------------
   0 S :    0.443123
   1 C :   -0.215123
   2 C :   -0.060971
   3 C :   -0.060624
   4 C :   -0.207243
   5 H :    0.034451
   6 C :   -0.036595
   7 H :    0.029853
   8 H :    0.041285
   9 C :   -0.033851
  10 H :    0.017993
  11 H :    0.014042
  12 C :   -0.068252
  13 H :    0.021366
  14 H :    0.026115
  15 H :    0.030018
  16 S :    0.390218
  17 C :   -0.171737
  18 C :   -0.068906
  19 C :   -0.054310
  20 C :   -0.192004
  21 H :    0.034579
  22 C :   -0.036276
  23 H :    0.024761
  24 H :    0.034476
  25 C :   -0.031991
  26 H :    0.029781
  27 H :    0.027434
  28 C :   -0.064021
  29 H :    0.018116
  30 H :    0.032441
  31 H :    0.014659
  32 H :    0.023897
  33 H :    0.013296

  Mayer bond orders larger than 0.100000
B(  0-S ,  1-C ) :   1.1590 B(  0-S ,  4-C ) :   1.1726 B(  1-C ,  2-C ) :   1.5653
B(  1-C , 32-H ) :   0.9813 B(  2-C ,  3-C ) :   1.2604 B(  2-C ,  6-C ) :   1.0145
B(  3-C ,  4-C ) :   1.5655 B(  3-C ,  5-H ) :   1.0020 B(  4-C , 20-C ) :   1.0073
B(  6-C ,  7-H ) :   0.9515 B(  6-C ,  8-H ) :   0.9258 B(  6-C ,  9-C ) :   1.0875
B(  9-C , 10-H ) :   0.9645 B(  9-C , 11-H ) :   0.9469 B(  9-C , 12-C ) :   1.0731
B( 12-C , 13-H ) :   0.9772 B( 12-C , 14-H ) :   0.9787 B( 12-C , 15-H ) :   0.9785
B( 16-S , 17-C ) :   1.1457 B( 16-S , 20-C ) :   1.1316 B( 17-C , 18-C ) :   1.6452
B( 17-C , 20-C ) :   0.1030 B( 17-C , 33-H ) :   0.9688 B( 18-C , 19-C ) :   1.2044
B( 18-C , 21-H ) :   0.9833 B( 19-C , 20-C ) :   1.6073 B( 19-C , 22-C ) :   1.0317
B( 22-C , 23-H ) :   0.9209 B( 22-C , 24-H ) :   0.9357 B( 22-C , 25-C ) :   1.0753
B( 25-C , 26-H ) :   0.9559 B( 25-C , 27-H ) :   0.9556 B( 25-C , 28-C ) :   1.0740
B( 28-C , 29-H ) :   0.9743 B( 28-C , 30-H ) :   0.9745 B( 28-C , 31-H ) :   0.9747

Dispersion correction           -0.014603798
FINAL SINGLE POINT ENERGY     -1339.861964829078

DIPOLE MOMENT
-------------
                                X             Y             Z
Electronic contribution:     -7.45748       0.01075     -21.86094
Nuclear contribution   :      7.72543      -0.03357      22.25313
                        -----------------------------------------
Total Dipole Moment    :      0.26796      -0.02282       0.39218
                        -----------------------------------------
Magnitude (a.u.)       :      0.47553
Magnitude (Debye)      :      1.20870

Rotational constants in cm-1:     0.022517     0.007258     0.006583
Rotational constants in MHz :   675.043708   217.600108   197.348499

                             ****ORCA TERMINATED NORMALLY****
TOTAL RUN TIME: 0 days 0 hours 0 minutes 22 seconds 415 msec
