                         Program Version 4.2.1 -  RELEASE  -
|  1> ! wB97X-D3 SP def2-SVP
|  2> %pal
|  3> nprocs 24
|  4> end
|  5>
|  6> * xyz 0 1
|  7> S 	 -104.622 	 60.9931 	 -99.4731
|  8> C 	 -105.425 	 59.8618 	 -100.64
|  9> C 	 -104.558 	 59.4725 	 -101.677
| 10> C 	 -103.235 	 59.9954 	 -101.451
| 11> C 	 -103.075 	 60.763 	 -100.313
| 12> H 	 -102.38 	 59.8031 	 -102.14
| 13> C 	 -104.943 	 58.5554 	 -102.883
| 14> H 	 -105.612 	 57.7012 	 -102.548
| 15> H 	 -104.023 	 58.2486 	 -103.329
| 16> C 	 -105.621 	 59.4439 	 -103.997
| 17> H 	 -105.222 	 60.4548 	 -104.049
| 18> H 	 -105.601 	 58.9348 	 -104.944
| 19> C 	 -107.12 	 59.6433 	 -103.689
| 20> H 	 -107.719 	 58.6585 	 -103.691
| 21> H 	 -107.253 	 60.2959 	 -102.847
| 22> H 	 -107.532 	 60.2096 	 -104.529
| 23> S 	 -101.964 	 63.2066 	 -99.6295
| 24> C 	 -100.246 	 63.2533 	 -99.3785
| 25> C 	 -99.6249 	 62.0502 	 -99.5619
| 26> C 	 -100.562 	 61.016 	 -99.9339
| 27> C 	 -101.881 	 61.4956 	 -99.9809
| 28> H 	 -98.5367 	 62.0477 	 -99.4999
| 29> C 	 -100.144 	 59.6043 	 -100.155
| 30> H 	 -99.1701 	 59.5876 	 -100.607
| 31> H 	 -100.826 	 59.1635 	 -100.938
| 32> C 	 -100.276 	 58.7916 	 -98.7988
| 33> H 	 -101.199 	 58.9227 	 -98.2598
| 34> H 	 -99.4625 	 58.9813 	 -98.1181
| 35> C 	 -100.125 	 57.3515 	 -99.167
| 36> H 	 -100.627 	 56.7064 	 -98.5002
| 37> H 	 -99.0947 	 57.1327 	 -99.2069
| 38> H 	 -100.523 	 57.1116 	 -100.18
| 39> H 	 -106.525 	 59.6977 	 -100.653
| 40> H 	 -99.6485 	 64.1476 	 -99.1632
| 41> *
| 42>
| 43>                          ****END OF INPUT****

CARTESIAN COORDINATES (ANGSTROEM)
---------------------------------
  S    -104.622000   60.993100  -99.473100
  C    -105.425000   59.861800  -100.640000
  C    -104.558000   59.472500  -101.677000
  C    -103.235000   59.995400  -101.451000
  C    -103.075000   60.763000  -100.313000
  H    -102.380000   59.803100  -102.140000
  C    -104.943000   58.555400  -102.883000
  H    -105.612000   57.701200  -102.548000
  H    -104.023000   58.248600  -103.329000
  C    -105.621000   59.443900  -103.997000
  H    -105.222000   60.454800  -104.049000
  H    -105.601000   58.934800  -104.944000
  C    -107.120000   59.643300  -103.689000
  H    -107.719000   58.658500  -103.691000
  H    -107.253000   60.295900  -102.847000
  H    -107.532000   60.209600  -104.529000
  S    -101.964000   63.206600  -99.629500
  C    -100.246000   63.253300  -99.378500
  C    -99.624900   62.050200  -99.561900
  C    -100.562000   61.016000  -99.933900
  C    -101.881000   61.495600  -99.980900
  H    -98.536700   62.047700  -99.499900
  C    -100.144000   59.604300  -100.155000
  H    -99.170100   59.587600  -100.607000
  H    -100.826000   59.163500  -100.938000
  C    -100.276000   58.791600  -98.798800
  H    -101.199000   58.922700  -98.259800
  H    -99.462500   58.981300  -98.118100
  C    -100.125000   57.351500  -99.167000
  H    -100.627000   56.706400  -98.500200
  H    -99.094700   57.132700  -99.206900
  H    -100.523000   57.111600  -100.180000
  H    -106.525000   59.697700  -100.653000
  H    -99.648500   64.147600  -99.163200

 Total Charge           Charge          ....    0
 Multiplicity           Mult            ....    1
 Number of Electrons    NEL             ....  134
 Basis Dimension        Dim             ....  322

ORBITAL ENERGIES
----------------

  NO   OCC          E(Eh)            E(eV)
   0   2.0000     -88.968050     -2420.9437
   1   2.0000     -88.966203     -2420.8935
   2   2.0000     -10.330421      -281.1050
   3   2.0000     -10.322879      -280.8998
   4   2.0000     -10.322524      -280.8902
   5   2.0000     -10.313655      -280.6488
   6   2.0000     -10.309681      -280.5407
   7   2.0000     -10.303343      -280.3682
   8   2.0000     -10.301984      -280.3312
   9   2.0000     -10.298279      -280.2304
  10   2.0000     -10.292801      -280.0814
  11   2.0000     -10.292184      -280.0646
  12   2.0000     -10.288430      -279.9624
  13   2.0000     -10.280403      -279.7440
  14   2.0000     -10.280146      -279.7370
  15   2.0000     -10.262663      -279.2613
  16   2.0000      -8.081281      -219.9028
  17   2.0000      -8.081094      -219.8977
  18   2.0000      -6.039914      -164.3544
  19   2.0000      -6.039611      -164.3462
  20   2.0000      -6.036107      -164.2508
  21   2.0000      -6.035650      -164.2384
  22   2.0000      -6.031899      -164.1363
  23   2.0000      -6.031784      -164.1332
  24   2.0000      -1.002699       -27.2848
  25   2.0000      -0.975162       -26.5355
  26   2.0000      -0.910062       -24.7641
  27   2.0000      -0.906090       -24.6560
  28   2.0000      -0.866171       -23.5697
  29   2.0000      -0.855063       -23.2674
  30   2.0000      -0.841310       -22.8932
  31   2.0000      -0.809710       -22.0333
  32   2.0000      -0.780604       -21.2413
  33   2.0000      -0.765545       -20.8315
  34   2.0000      -0.704562       -19.1721
  35   2.0000      -0.694792       -18.9063
  36   2.0000      -0.690456       -18.7883
  37   2.0000      -0.657528       -17.8922
  38   2.0000      -0.632912       -17.2224
  39   2.0000      -0.617648       -16.8071
  40   2.0000      -0.591498       -16.0955
  41   2.0000      -0.573948       -15.6179
  42   2.0000      -0.566627       -15.4187
  43   2.0000      -0.544086       -14.8053
  44   2.0000      -0.541425       -14.7329
  45   2.0000      -0.529039       -14.3959
  46   2.0000      -0.517133       -14.0719
  47   2.0000      -0.503623       -13.7043
  48   2.0000      -0.501084       -13.6352
  49   2.0000      -0.491155       -13.3650
  50   2.0000      -0.488542       -13.2939
  51   2.0000      -0.480151       -13.0656
  52   2.0000      -0.470068       -12.7912
  53   2.0000      -0.457262       -12.4427
  54   2.0000      -0.456923       -12.4335
  55   2.0000      -0.449487       -12.2312
  56   2.0000      -0.441671       -12.0185
  57   2.0000      -0.435199       -11.8424
  58   2.0000      -0.434665       -11.8278
  59   2.0000      -0.423198       -11.5158
  60   2.0000      -0.420831       -11.4514
  61   2.0000      -0.416148       -11.3240
  62   2.0000      -0.415572       -11.3083
  63   2.0000      -0.347919        -9.4673
  64   2.0000      -0.330757        -9.0004
  65   2.0000      -0.328654        -8.9431
  66   2.0000      -0.285251        -7.7621
  67   0.0000       0.026507         0.7213
  68   0.0000       0.070978         1.9314
  69   0.0000       0.104812         2.8521
  70   0.0000       0.119175         3.2429
  71   0.0000       0.135141         3.6774

MULLIKEN ATOMIC CHARGES
-----------------------
   0 S :    0.095671
   1 C :   -0.146964
   2 C :   -0.102957
   3 C :    0.003074
   4 C :   -0.148052
   5 H :    0.038723
   6 C :    0.081026
   7 H :    0.055931
   8 H :    0.016035
   9 C :   -0.072125
  10 H :    0.043755
  11 H :    0.032060
  12 C :   -0.088944
  13 H :    0.043231
  14 H :    0.033704
  15 H :    0.027861
  16 S :    0.116809
  17 C :   -0.100059
  18 C :   -0.035600
  19 C :   -0.046858
  20 C :   -0.148509
  21 H :    0.020959
  22 C :    0.053095
  23 H :    0.021881
  24 H :    0.016604
  25 C :   -0.047370
  26 H :    0.039102
  27 H :    0.027568
  28 C :   -0.010465
  29 H :    0.021735
  30 H :    0.013373
  31 H :    0.019525
  32 H :    0.068579
  33 H :    0.057602
Sum of atomic charges:    0.0000000

LOEWDIN ATOMIC CHARGES
----------------------
   0 S :    0.368145
   1 C :   -0.191801
   2 C :   -0.057458
   3 C :   -0.069744
   4 C :   -0.185743
   5 H :    0.036412
   6 C :   -0.024410
   7 H :    0.042190
   8 H :    0.024020
   9 C :   -0.035191
  10 H :    0.030443
  11 H :    0.020580
  12 C :   -0.074664
  13 H :    0.031391
  14 H :    0.018601
  15 H :    0.025254
  16 S :    0.409447
  17 C :   -0.191681
  18 C :   -0.075182
  19 C :   -0.051170
  20 C :   -0.207571
  21 H :    0.035143
  22 C :   -0.030651
  23 H :    0.028597
  24 H :    0.032456
  25 C :   -0.027120
  26 H :    0.026935
  27 H :    0.025219
  28 C :   -0.059969
  29 H :    0.018797
  30 H :    0.018022
  31 H :    0.024348
  32 H :    0.032914
  33 H :    0.033438

  Mayer bond orders larger than 0.100000
B(  0-S ,  1-C ) :   1.1188 B(  0-S ,  4-C ) :   1.1298 B(  1-C ,  2-C ) :   1.6198
B(  1-C , 32-H ) :   0.9578 B(  2-C ,  3-C ) :   1.2535 B(  2-C ,  6-C ) :   1.0125
B(  3-C ,  4-C ) :   1.5871 B(  3-C ,  5-H ) :   0.9691 B(  4-C , 20-C ) :   1.0719
B(  6-C ,  7-H ) :   0.9507 B(  6-C ,  8-H ) :   0.9387 B(  6-C ,  9-C ) :   1.0518
B(  9-C , 10-H ) :   0.9561 B(  9-C , 11-H ) :   0.9602 B(  9-C , 12-C ) :   1.0857
B( 12-C , 13-H ) :   0.9747 B( 12-C , 14-H ) :   0.9721 B( 12-C , 15-H ) :   0.9718
B( 16-S , 17-C ) :   1.1506 B( 16-S , 20-C ) :   1.1321 B( 17-C , 18-C ) :   1.6367
B( 17-C , 33-H ) :   0.9604 B( 18-C , 19-C ) :   1.2263 B( 18-C , 21-H ) :   0.9896
B( 19-C , 20-C ) :   1.5833 B( 19-C , 22-C ) :   1.0628 B( 22-C , 23-H ) :   0.9284
B( 22-C , 24-H ) :   0.9327 B( 22-C , 25-C ) :   1.0524 B( 25-C , 26-H ) :   0.9654
B( 25-C , 27-H ) :   0.9567 B( 25-C , 28-C ) :   1.0802 B( 28-C , 29-H ) :   0.9733
B( 28-C , 30-H ) :   0.9751 B( 28-C , 31-H ) :   0.9745

Dispersion correction           -0.014406344
FINAL SINGLE POINT ENERGY     -1339.873920508302

DIPOLE MOMENT
-------------
                                X             Y             Z
Electronic contribution:      0.55096      20.47127      12.28425
Nuclear contribution   :     -0.23798     -20.83245     -12.77181
                        -----------------------------------------
Total Dipole Moment    :      0.31297      -0.36118      -0.48756
                        -----------------------------------------
Magnitude (a.u.)       :      0.68272
Magnitude (Debye)      :      1.73535

Rotational constants in cm-1:     0.019564     0.008402     0.006903
Rotational constants in MHz :   586.518252   251.888096   206.955506

                             ****ORCA TERMINATED NORMALLY****
TOTAL RUN TIME: 0 days 0 hours 0 minutes 21 seconds 809 msec
