                         Program Version 4.2.1 -  RELEASE  -
|  1> ! wB97X-D3 SP def2-SVP
|  2> %pal
|  3> nprocs 24
|  4> end
|  5>
|  6> * xyz 0 1
|  7> S 	 -42.3476 	 19.3419 	 24.5451
|  8> C 	 -42.7512 	 17.9968 	 25.7002
|  9> C 	 -42.0298 	 18.0202 	 26.8468
| 10> C 	 -41.1382 	 19.1502 	 26.888
| 11> C 	 -41.1243 	 19.8851 	 25.703
| 12> H 	 -40.4299 	 19.3856 	 27.7068
| 13> C 	 -42.052 	 17.0775 	 28.0353
| 14> H 	 -43.1223 	 17.0231 	 28.3121
| 15> H 	 -41.6453 	 17.5916 	 28.8823
| 16> C 	 -41.2678 	 15.7087 	 27.9269
| 17> H 	 -41.6476 	 15.1334 	 27.0613
| 18> H 	 -40.2556 	 15.9153 	 27.7893
| 19> C 	 -41.2612 	 14.832 	 29.1913
| 20> H 	 -40.8394 	 13.8791 	 28.9338
| 21> H 	 -40.7908 	 15.2705 	 30.069
| 22> H 	 -42.2339 	 14.5796 	 29.5519
| 23> S 	 -41.1003 	 22.5987 	 25.0901
| 24> C 	 -39.5752 	 23.4252 	 24.9649
| 25> C 	 -38.5349 	 22.6082 	 25.292
| 26> C 	 -38.9044 	 21.1957 	 25.575
| 27> C 	 -40.2706 	 21.0258 	 25.5204
| 28> H 	 -37.4948 	 22.9941 	 25.284
| 29> C 	 -37.8828 	 20.1256 	 25.9107
| 30> H 	 -37.1957 	 19.8528 	 25.0519
| 31> H 	 -38.2985 	 19.0999 	 26.022
| 32> C 	 -37.0725 	 20.3164 	 27.2412
| 33> H 	 -36.3968 	 21.1755 	 27.0328
| 34> H 	 -36.4544 	 19.4539 	 27.3885
| 35> C 	 -37.9506 	 20.3679 	 28.5887
| 36> H 	 -38.6852 	 21.0932 	 28.5469
| 37> H 	 -37.3404 	 20.4736 	 29.5233
| 38> H 	 -38.3546 	 19.4439 	 28.8615
| 39> H 	 -43.343 	 17.14 	 25.5511
| 40> H 	 -39.4699 	 24.541 	 24.8237
| 41> *
| 42>
| 43>                          ****END OF INPUT****

CARTESIAN COORDINATES (ANGSTROEM)
---------------------------------
  S    -42.347600   19.341900   24.545100
  C    -42.751200   17.996800   25.700200
  C    -42.029800   18.020200   26.846800
  C    -41.138200   19.150200   26.888000
  C    -41.124300   19.885100   25.703000
  H    -40.429900   19.385600   27.706800
  C    -42.052000   17.077500   28.035300
  H    -43.122300   17.023100   28.312100
  H    -41.645300   17.591600   28.882300
  C    -41.267800   15.708700   27.926900
  H    -41.647600   15.133400   27.061300
  H    -40.255600   15.915300   27.789300
  C    -41.261200   14.832000   29.191300
  H    -40.839400   13.879100   28.933800
  H    -40.790800   15.270500   30.069000
  H    -42.233900   14.579600   29.551900
  S    -41.100300   22.598700   25.090100
  C    -39.575200   23.425200   24.964900
  C    -38.534900   22.608200   25.292000
  C    -38.904400   21.195700   25.575000
  C    -40.270600   21.025800   25.520400
  H    -37.494800   22.994100   25.284000
  C    -37.882800   20.125600   25.910700
  H    -37.195700   19.852800   25.051900
  H    -38.298500   19.099900   26.022000
  C    -37.072500   20.316400   27.241200
  H    -36.396800   21.175500   27.032800
  H    -36.454400   19.453900   27.388500
  C    -37.950600   20.367900   28.588700
  H    -38.685200   21.093200   28.546900
  H    -37.340400   20.473600   29.523300
  H    -38.354600   19.443900   28.861500
  H    -43.343000   17.140000   25.551100
  H    -39.469900   24.541000   24.823700

 Total Charge           Charge          ....    0
 Multiplicity           Mult            ....    1
 Number of Electrons    NEL             ....  134
 Basis Dimension        Dim             ....  322

ORBITAL ENERGIES
----------------

  NO   OCC          E(Eh)            E(eV)
   0   2.0000     -88.972183     -2421.0562
   1   2.0000     -88.960076     -2420.7267
   2   2.0000     -10.330947      -281.1194
   3   2.0000     -10.329448      -281.0786
   4   2.0000     -10.320502      -280.8351
   5   2.0000     -10.312419      -280.6152
   6   2.0000     -10.311958      -280.6026
   7   2.0000     -10.300375      -280.2874
   8   2.0000     -10.299028      -280.2508
   9   2.0000     -10.299021      -280.2506
  10   2.0000     -10.297472      -280.2085
  11   2.0000     -10.295728      -280.1610
  12   2.0000     -10.294869      -280.1376
  13   2.0000     -10.291797      -280.0540
  14   2.0000     -10.278619      -279.6954
  15   2.0000     -10.277206      -279.6570
  16   2.0000      -8.085148      -220.0081
  17   2.0000      -8.074388      -219.7153
  18   2.0000      -6.043952      -164.4643
  19   2.0000      -6.040075      -164.3588
  20   2.0000      -6.035515      -164.2347
  21   2.0000      -6.033098      -164.1689
  22   2.0000      -6.029052      -164.0588
  23   2.0000      -6.024853      -163.9446
  24   2.0000      -0.998181       -27.1619
  25   2.0000      -0.974761       -26.5246
  26   2.0000      -0.907462       -24.6933
  27   2.0000      -0.898939       -24.4614
  28   2.0000      -0.871187       -23.7062
  29   2.0000      -0.849657       -23.1204
  30   2.0000      -0.838579       -22.8189
  31   2.0000      -0.809276       -22.0215
  32   2.0000      -0.786761       -21.4088
  33   2.0000      -0.779904       -21.2223
  34   2.0000      -0.713567       -19.4172
  35   2.0000      -0.710577       -19.3358
  36   2.0000      -0.694115       -18.8878
  37   2.0000      -0.651314       -17.7232
  38   2.0000      -0.633320       -17.2335
  39   2.0000      -0.612735       -16.6734
  40   2.0000      -0.595597       -16.2070
  41   2.0000      -0.570393       -15.5212
  42   2.0000      -0.555474       -15.1152
  43   2.0000      -0.551474       -15.0064
  44   2.0000      -0.535059       -14.5597
  45   2.0000      -0.528393       -14.3783
  46   2.0000      -0.512368       -13.9422
  47   2.0000      -0.507325       -13.8050
  48   2.0000      -0.500791       -13.6272
  49   2.0000      -0.500346       -13.6151
  50   2.0000      -0.489475       -13.3193
  51   2.0000      -0.477583       -12.9957
  52   2.0000      -0.470966       -12.8156
  53   2.0000      -0.467784       -12.7291
  54   2.0000      -0.457567       -12.4510
  55   2.0000      -0.450827       -12.2676
  56   2.0000      -0.445700       -12.1281
  57   2.0000      -0.434251       -11.8166
  58   2.0000      -0.433207       -11.7882
  59   2.0000      -0.430479       -11.7139
  60   2.0000      -0.421614       -11.4727
  61   2.0000      -0.415428       -11.3044
  62   2.0000      -0.406982       -11.0745
  63   2.0000      -0.344896        -9.3851
  64   2.0000      -0.334356        -9.0983
  65   2.0000      -0.326325        -8.8797
  66   2.0000      -0.295253        -8.0342
  67   0.0000       0.030595         0.8325
  68   0.0000       0.065962         1.7949
  69   0.0000       0.101285         2.7561
  70   0.0000       0.120693         3.2842
  71   0.0000       0.124489         3.3875

MULLIKEN ATOMIC CHARGES
-----------------------
   0 S :    0.119859
   1 C :   -0.096272
   2 C :   -0.087517
   3 C :    0.022461
   4 C :   -0.143119
   5 H :    0.004613
   6 C :    0.065038
   7 H :    0.034539
   8 H :    0.004951
   9 C :   -0.042690
  10 H :    0.035193
  11 H :    0.019548
  12 C :   -0.033788
  13 H :    0.031361
  14 H :    0.031821
  15 H :    0.012855
  16 S :    0.080106
  17 C :   -0.104025
  18 C :   -0.044103
  19 C :    0.001821
  20 C :   -0.169162
  21 H :    0.032695
  22 C :    0.003426
  23 H :    0.047100
  24 H :    0.023585
  25 C :   -0.078189
  26 H :    0.040625
  27 H :    0.026952
  28 C :   -0.036700
  29 H :    0.042443
  30 H :    0.031879
  31 H :    0.019334
  32 H :    0.019863
  33 H :    0.083498
Sum of atomic charges:   -0.0000000

LOEWDIN ATOMIC CHARGES
----------------------
   0 S :    0.376940
   1 C :   -0.173483
   2 C :   -0.062030
   3 C :   -0.056559
   4 C :   -0.190191
   5 H :    0.034826
   6 C :   -0.034259
   7 H :    0.035920
   8 H :    0.025475
   9 C :   -0.029395
  10 H :    0.027569
  11 H :    0.018715
  12 C :   -0.063294
  13 H :    0.028202
  14 H :    0.025708
  15 H :    0.018669
  16 S :    0.361857
  17 C :   -0.194101
  18 C :   -0.078525
  19 C :   -0.053098
  20 C :   -0.166999
  21 H :    0.035449
  22 C :   -0.048934
  23 H :    0.041993
  24 H :    0.032611
  25 C :   -0.033076
  26 H :    0.024025
  27 H :    0.022227
  28 C :   -0.062430
  29 H :    0.014931
  30 H :    0.037740
  31 H :    0.016433
  32 H :    0.020694
  33 H :    0.046390

  Mayer bond orders larger than 0.100000
B(  0-S ,  1-C ) :   1.0994 B(  0-S ,  4-C ) :   1.1264 B(  1-C ,  2-C ) :   1.6786
B(  1-C , 32-H ) :   0.9631 B(  2-C ,  3-C ) :   1.2094 B(  2-C ,  6-C ) :   1.0179
B(  3-C ,  4-C ) :   1.5923 B(  3-C ,  5-H ) :   0.9796 B(  4-C , 20-C ) :   1.0638
B(  6-C ,  7-H ) :   0.9389 B(  6-C ,  8-H ) :   0.9387 B(  6-C ,  9-C ) :   1.0526
B(  9-C , 10-H ) :   0.9598 B(  9-C , 11-H ) :   0.9552 B(  9-C , 12-C ) :   1.0855
B( 12-C , 13-H ) :   0.9726 B( 12-C , 14-H ) :   0.9748 B( 12-C , 15-H ) :   0.9746
B( 16-S , 17-C ) :   1.1305 B( 16-S , 20-C ) :   1.1049 B( 17-C , 18-C ) :   1.6699
B( 17-C , 33-H ) :   0.9560 B( 18-C , 19-C ) :   1.1742 B( 18-C , 21-H ) :   0.9820
B( 19-C , 20-C ) :   1.6504 B( 19-C , 22-C ) :   1.0473 B( 22-C , 23-H ) :   0.9372
B( 22-C , 24-H ) :   0.9363 B( 22-C , 25-C ) :   1.0650 B( 25-C , 26-H ) :   0.9641
B( 25-C , 27-H ) :   0.9570 B( 25-C , 28-C ) :   1.0632 B( 28-C , 29-H ) :   0.9788
B( 28-C , 30-H ) :   0.9685 B( 28-C , 31-H ) :   0.9642

Dispersion correction           -0.014776300
FINAL SINGLE POINT ENERGY     -1339.861405089467

DIPOLE MOMENT
-------------
                                X             Y             Z
Electronic contribution:    -13.67354      19.66725     -21.72803
Nuclear contribution   :     14.21833     -20.15729      22.30211
                        -----------------------------------------
Total Dipole Moment    :      0.54479      -0.49004       0.57408
                        -----------------------------------------
Magnitude (a.u.)       :      0.93086
Magnitude (Debye)      :      2.36605

Rotational constants in cm-1:     0.019075     0.008824     0.006536
Rotational constants in MHz :   571.840521   264.533693   195.955572

                             ****ORCA TERMINATED NORMALLY****
TOTAL RUN TIME: 0 days 0 hours 0 minutes 20 seconds 765 msec
