                         Program Version 4.2.1 -  RELEASE  -
|  1> ! wB97X-D3 SP def2-SVP
|  2> %pal
|  3> nprocs 24
|  4> end
|  5>
|  6> * xyz 0 1
|  7> S 	 -109.636 	 55.6407 	 -90.9077
|  8> C 	 -110.828 	 55.9974 	 -89.6213
|  9> C 	 -110.192 	 56.1359 	 -88.4071
| 10> C 	 -108.779 	 56.0171 	 -88.5166
| 11> C 	 -108.306 	 55.7475 	 -89.8114
| 12> H 	 -108.172 	 56.1223 	 -87.6899
| 13> C 	 -110.941 	 56.5381 	 -87.1266
| 14> H 	 -111.777 	 57.2251 	 -87.2639
| 15> H 	 -110.206 	 57.1347 	 -86.5474
| 16> C 	 -111.384 	 55.3574 	 -86.1942
| 17> H 	 -110.635 	 54.654 	 -86.2114
| 18> H 	 -111.558 	 55.7307 	 -85.2261
| 19> C 	 -112.704 	 54.7033 	 -86.6087
| 20> H 	 -113.504 	 55.4191 	 -86.6343
| 21> H 	 -112.462 	 54.1752 	 -87.5519
| 22> H 	 -112.933 	 53.987 	 -85.8841
| 23> S 	 -106.647 	 53.7772 	 -90.7737
| 24> C 	 -104.974 	 54.2158 	 -90.9852
| 25> C 	 -104.648 	 55.4441 	 -90.7426
| 26> C 	 -105.788 	 56.2092 	 -90.2814
| 27> C 	 -106.971 	 55.4679 	 -90.3203
| 28> H 	 -103.598 	 55.6225 	 -90.9211
| 29> C 	 -105.701 	 57.6432 	 -89.7366
| 30> H 	 -105.083 	 57.6219 	 -88.8428
| 31> H 	 -106.734 	 57.9068 	 -89.38
| 32> C 	 -105.302 	 58.7695 	 -90.6434
| 33> H 	 -105.982 	 58.6686 	 -91.4222
| 34> H 	 -104.378 	 58.5467 	 -90.9896
| 35> C 	 -105.344 	 60.1616 	 -90.0512
| 36> H 	 -106.349 	 60.6503 	 -89.8412
| 37> H 	 -104.916 	 60.9401 	 -90.7697
| 38> H 	 -104.762 	 60.2557 	 -89.0835
| 39> H 	 -111.91 	 56.0898 	 -89.7726
| 40> H 	 -104.355 	 53.4488 	 -91.4318
| 41> *
| 42>
| 43>                          ****END OF INPUT****

CARTESIAN COORDINATES (ANGSTROEM)
---------------------------------
  S    -109.636000   55.640700  -90.907700
  C    -110.828000   55.997400  -89.621300
  C    -110.192000   56.135900  -88.407100
  C    -108.779000   56.017100  -88.516600
  C    -108.306000   55.747500  -89.811400
  H    -108.172000   56.122300  -87.689900
  C    -110.941000   56.538100  -87.126600
  H    -111.777000   57.225100  -87.263900
  H    -110.206000   57.134700  -86.547400
  C    -111.384000   55.357400  -86.194200
  H    -110.635000   54.654000  -86.211400
  H    -111.558000   55.730700  -85.226100
  C    -112.704000   54.703300  -86.608700
  H    -113.504000   55.419100  -86.634300
  H    -112.462000   54.175200  -87.551900
  H    -112.933000   53.987000  -85.884100
  S    -106.647000   53.777200  -90.773700
  C    -104.974000   54.215800  -90.985200
  C    -104.648000   55.444100  -90.742600
  C    -105.788000   56.209200  -90.281400
  C    -106.971000   55.467900  -90.320300
  H    -103.598000   55.622500  -90.921100
  C    -105.701000   57.643200  -89.736600
  H    -105.083000   57.621900  -88.842800
  H    -106.734000   57.906800  -89.380000
  C    -105.302000   58.769500  -90.643400
  H    -105.982000   58.668600  -91.422200
  H    -104.378000   58.546700  -90.989600
  C    -105.344000   60.161600  -90.051200
  H    -106.349000   60.650300  -89.841200
  H    -104.916000   60.940100  -90.769700
  H    -104.762000   60.255700  -89.083500
  H    -111.910000   56.089800  -89.772600
  H    -104.355000   53.448800  -91.431800

 Total Charge           Charge          ....    0
 Multiplicity           Mult            ....    1
 Number of Electrons    NEL             ....  134
 Basis Dimension        Dim             ....  322

ORBITAL ENERGIES
----------------

  NO   OCC          E(Eh)            E(eV)
   0   2.0000     -88.964415     -2420.8448
   1   2.0000     -88.959474     -2420.7104
   2   2.0000     -10.330840      -281.1164
   3   2.0000     -10.329227      -281.0726
   4   2.0000     -10.316080      -280.7148
   5   2.0000     -10.312717      -280.6233
   6   2.0000     -10.308137      -280.4987
   7   2.0000     -10.301188      -280.3096
   8   2.0000     -10.295466      -280.1539
   9   2.0000     -10.291842      -280.0552
  10   2.0000     -10.290610      -280.0217
  11   2.0000     -10.288956      -279.9767
  12   2.0000     -10.288519      -279.9648
  13   2.0000     -10.274920      -279.5948
  14   2.0000     -10.269959      -279.4598
  15   2.0000     -10.269644      -279.4512
  16   2.0000      -8.079023      -219.8414
  17   2.0000      -8.074933      -219.7301
  18   2.0000      -6.037533      -164.2896
  19   2.0000      -6.033384      -164.1767
  20   2.0000      -6.033341      -164.1755
  21   2.0000      -6.029949      -164.0833
  22   2.0000      -6.029625      -164.0744
  23   2.0000      -6.025447      -163.9607
  24   2.0000      -1.007093       -27.4044
  25   2.0000      -0.984728       -26.7958
  26   2.0000      -0.913411       -24.8552
  27   2.0000      -0.909935       -24.7606
  28   2.0000      -0.874809       -23.8048
  29   2.0000      -0.848807       -23.0972
  30   2.0000      -0.846132       -23.0244
  31   2.0000      -0.816722       -22.2241
  32   2.0000      -0.784507       -21.3475
  33   2.0000      -0.771149       -20.9840
  34   2.0000      -0.711359       -19.3571
  35   2.0000      -0.698782       -19.0148
  36   2.0000      -0.693620       -18.8744
  37   2.0000      -0.653944       -17.7947
  38   2.0000      -0.640113       -17.4184
  39   2.0000      -0.626198       -17.0397
  40   2.0000      -0.599963       -16.3258
  41   2.0000      -0.580772       -15.8036
  42   2.0000      -0.573163       -15.5966
  43   2.0000      -0.552062       -15.0224
  44   2.0000      -0.540356       -14.7038
  45   2.0000      -0.519707       -14.1419
  46   2.0000      -0.517887       -14.0924
  47   2.0000      -0.508211       -13.8291
  48   2.0000      -0.506762       -13.7897
  49   2.0000      -0.495139       -13.4734
  50   2.0000      -0.490616       -13.3503
  51   2.0000      -0.479298       -13.0424
  52   2.0000      -0.473619       -12.8878
  53   2.0000      -0.464639       -12.6435
  54   2.0000      -0.455524       -12.3954
  55   2.0000      -0.447945       -12.1892
  56   2.0000      -0.445361       -12.1189
  57   2.0000      -0.435188       -11.8421
  58   2.0000      -0.429730       -11.6936
  59   2.0000      -0.428556       -11.6616
  60   2.0000      -0.422928       -11.5085
  61   2.0000      -0.415429       -11.3044
  62   2.0000      -0.407073       -11.0770
  63   2.0000      -0.345195        -9.3932
  64   2.0000      -0.332426        -9.0458
  65   2.0000      -0.326243        -8.8775
  66   2.0000      -0.302234        -8.2242
  67   0.0000       0.037371         1.0169
  68   0.0000       0.064561         1.7568
  69   0.0000       0.115167         3.1339
  70   0.0000       0.119212         3.2439
  71   0.0000       0.129833         3.5329

MULLIKEN ATOMIC CHARGES
-----------------------
   0 S :    0.104387
   1 C :   -0.132199
   2 C :   -0.087482
   3 C :    0.091722
   4 C :   -0.176079
   5 H :   -0.025067
   6 C :    0.032345
   7 H :    0.027114
   8 H :    0.022499
   9 C :   -0.027616
  10 H :    0.009144
  11 H :    0.015996
  12 C :   -0.033746
  13 H :    0.024920
  14 H :    0.038622
  15 H :    0.021603
  16 S :    0.092440
  17 C :   -0.095373
  18 C :   -0.008543
  19 C :   -0.021153
  20 C :   -0.148694
  21 H :    0.019194
  22 C :    0.035451
  23 H :    0.025675
  24 H :    0.023521
  25 C :    0.037009
  26 H :    0.014244
  27 H :   -0.002360
  28 C :   -0.110650
  29 H :    0.042797
  30 H :    0.042864
  31 H :    0.037799
  32 H :    0.056484
  33 H :    0.053130
Sum of atomic charges:   -0.0000000

LOEWDIN ATOMIC CHARGES
----------------------
   0 S :    0.405711
   1 C :   -0.188579
   2 C :   -0.066567
   3 C :   -0.052606
   4 C :   -0.202521
   5 H :    0.016931
   6 C :   -0.029026
   7 H :    0.028182
   8 H :    0.032333
   9 C :   -0.024236
  10 H :    0.012785
  11 H :    0.016441
  12 C :   -0.057576
  13 H :    0.019793
  14 H :    0.030768
  15 H :    0.018491
  16 S :    0.381711
  17 C :   -0.167352
  18 C :   -0.080846
  19 C :   -0.040038
  20 C :   -0.195890
  21 H :    0.041449
  22 C :   -0.032078
  23 H :    0.026147
  24 H :    0.033375
  25 C :   -0.034273
  26 H :    0.023369
  27 H :    0.009866
  28 C :   -0.078692
  29 H :    0.031623
  30 H :    0.035121
  31 H :    0.029049
  32 H :    0.032378
  33 H :    0.024758

  Mayer bond orders larger than 0.100000
B(  0-S ,  1-C ) :   1.1359 B(  0-S ,  4-C ) :   1.1742 B(  1-C ,  2-C ) :   1.5998
B(  1-C ,  4-C ) :   0.1035 B(  1-C , 32-H ) :   0.9689 B(  2-C ,  3-C ) :   1.2671
B(  2-C ,  6-C ) :   1.0111 B(  3-C ,  4-C ) :   1.5400 B(  3-C ,  5-H ) :   1.0102
B(  4-C , 20-C ) :   1.0102 B(  6-C ,  7-H ) :   0.9523 B(  6-C ,  8-H ) :   0.9427
B(  6-C ,  9-C ) :   1.0654 B(  9-C , 10-H ) :   0.9565 B(  9-C , 11-H ) :   0.9562
B(  9-C , 12-C ) :   1.0897 B( 12-C , 13-H ) :   0.9762 B( 12-C , 14-H ) :   0.9756
B( 12-C , 15-H ) :   0.9732 B( 16-S , 17-C ) :   1.1359 B( 16-S , 20-C ) :   1.1288
B( 17-C , 18-C ) :   1.6956 B( 17-C , 33-H ) :   0.9585 B( 18-C , 19-C ) :   1.1469
B( 18-C , 21-H ) :   0.9963 B( 19-C , 20-C ) :   1.6536 B( 19-C , 22-C ) :   1.0462
B( 22-C , 23-H ) :   0.9319 B( 22-C , 24-H ) :   0.9333 B( 22-C , 25-C ) :   1.0665
B( 25-C , 26-H ) :   0.9467 B( 25-C , 27-H ) :   0.9497 B( 25-C , 28-C ) :   1.0870
B( 28-C , 29-H ) :   0.9739 B( 28-C , 30-H ) :   0.9728 B( 28-C , 31-H ) :   0.9728

Dispersion correction           -0.013673085
FINAL SINGLE POINT ENERGY     -1339.862167143040

DIPOLE MOMENT
-------------
                                X             Y             Z
Electronic contribution:      4.32234     -15.86881     -15.73641
Nuclear contribution   :     -4.11894      16.18040      16.18726
                        -----------------------------------------
Total Dipole Moment    :      0.20340       0.31160       0.45085
                        -----------------------------------------
Magnitude (a.u.)       :      0.58457
Magnitude (Debye)      :      1.48587

Rotational constants in cm-1:     0.019147     0.007705     0.006364
Rotational constants in MHz :   574.026482   231.002990   190.784953

                             ****ORCA TERMINATED NORMALLY****
TOTAL RUN TIME: 0 days 0 hours 0 minutes 21 seconds 206 msec
