                         Program Version 4.2.1 -  RELEASE  -
|  1> ! wB97X-D3 SP def2-SVP
|  2> %pal
|  3> nprocs 24
|  4> end
|  5>
|  6> * xyz 0 1
|  7> S 	 -105.586 	 21.7562 	 -120.134
|  8> C 	 -107.057 	 20.9654 	 -119.75
|  9> C 	 -107.539 	 20.1466 	 -120.663
| 10> C 	 -106.563 	 19.9874 	 -121.732
| 11> C 	 -105.405 	 20.6747 	 -121.513
| 12> H 	 -106.677 	 19.4154 	 -122.565
| 13> C 	 -108.979 	 19.5456 	 -120.78
| 14> H 	 -109.081 	 19.1147 	 -121.783
| 15> H 	 -109.682 	 20.4206 	 -120.679
| 16> C 	 -109.304 	 18.3705 	 -119.813
| 17> H 	 -109.098 	 18.5287 	 -118.773
| 18> H 	 -110.359 	 18.2669 	 -119.915
| 19> C 	 -108.579 	 17.0512 	 -120.21
| 20> H 	 -109.084 	 16.1884 	 -119.762
| 21> H 	 -108.552 	 16.8537 	 -121.341
| 22> H 	 -107.596 	 17.0935 	 -119.795
| 23> S 	 -102.771 	 19.9098 	 -121.349
| 24> C 	 -101.931 	 19.5784 	 -122.811
| 25> C 	 -102.513 	 20.1788 	 -123.891
| 26> C 	 -103.863 	 20.6755 	 -123.542
| 27> C 	 -104.158 	 20.5465 	 -122.21
| 28> H 	 -102.137 	 20.0479 	 -124.873
| 29> C 	 -104.821 	 21.2043 	 -124.551
| 30> H 	 -104.421 	 21.9211 	 -125.259
| 31> H 	 -105.608 	 21.7964 	 -124.179
| 32> C 	 -105.438 	 20.1498 	 -125.484
| 33> H 	 -105.926 	 19.4076 	 -124.887
| 34> H 	 -104.611 	 19.7641 	 -126.083
| 35> C 	 -106.362 	 20.7118 	 -126.576
| 36> H 	 -105.913 	 21.5932 	 -127.078
| 37> H 	 -107.364 	 20.9905 	 -126.351
| 38> H 	 -106.467 	 19.9699 	 -127.386
| 39> H 	 -107.646 	 21.2346 	 -118.824
| 40> H 	 -100.952 	 19.109 	 -122.897
| 41> *
| 42>
| 43>                          ****END OF INPUT****

CARTESIAN COORDINATES (ANGSTROEM)
---------------------------------
  S    -105.586000   21.756200  -120.134000
  C    -107.057000   20.965400  -119.750000
  C    -107.539000   20.146600  -120.663000
  C    -106.563000   19.987400  -121.732000
  C    -105.405000   20.674700  -121.513000
  H    -106.677000   19.415400  -122.565000
  C    -108.979000   19.545600  -120.780000
  H    -109.081000   19.114700  -121.783000
  H    -109.682000   20.420600  -120.679000
  C    -109.304000   18.370500  -119.813000
  H    -109.098000   18.528700  -118.773000
  H    -110.359000   18.266900  -119.915000
  C    -108.579000   17.051200  -120.210000
  H    -109.084000   16.188400  -119.762000
  H    -108.552000   16.853700  -121.341000
  H    -107.596000   17.093500  -119.795000
  S    -102.771000   19.909800  -121.349000
  C    -101.931000   19.578400  -122.811000
  C    -102.513000   20.178800  -123.891000
  C    -103.863000   20.675500  -123.542000
  C    -104.158000   20.546500  -122.210000
  H    -102.137000   20.047900  -124.873000
  C    -104.821000   21.204300  -124.551000
  H    -104.421000   21.921100  -125.259000
  H    -105.608000   21.796400  -124.179000
  C    -105.438000   20.149800  -125.484000
  H    -105.926000   19.407600  -124.887000
  H    -104.611000   19.764100  -126.083000
  C    -106.362000   20.711800  -126.576000
  H    -105.913000   21.593200  -127.078000
  H    -107.364000   20.990500  -126.351000
  H    -106.467000   19.969900  -127.386000
  H    -107.646000   21.234600  -118.824000
  H    -100.952000   19.109000  -122.897000

 Total Charge           Charge          ....    0
 Multiplicity           Mult            ....    1
 Number of Electrons    NEL             ....  134
 Basis Dimension        Dim             ....  322

ORBITAL ENERGIES
----------------

  NO   OCC          E(Eh)            E(eV)
   0   2.0000     -88.961932     -2420.7772
   1   2.0000     -88.960951     -2420.7506
   2   2.0000     -10.323186      -280.9082
   3   2.0000     -10.320162      -280.8259
   4   2.0000     -10.315557      -280.7006
   5   2.0000     -10.306715      -280.4600
   6   2.0000     -10.304189      -280.3912
   7   2.0000     -10.303351      -280.3684
   8   2.0000     -10.295129      -280.1447
   9   2.0000     -10.293168      -280.0913
  10   2.0000     -10.286624      -279.9133
  11   2.0000     -10.285985      -279.8959
  12   2.0000     -10.284979      -279.8685
  13   2.0000     -10.281548      -279.7751
  14   2.0000     -10.280413      -279.7442
  15   2.0000     -10.278601      -279.6950
  16   2.0000      -8.077663      -219.8044
  17   2.0000      -8.076651      -219.7769
  18   2.0000      -6.036116      -164.2511
  19   2.0000      -6.035205      -164.2263
  20   2.0000      -6.032313      -164.1476
  21   2.0000      -6.031087      -164.1142
  22   2.0000      -6.028155      -164.0344
  23   2.0000      -6.027218      -164.0089
  24   2.0000      -1.011304       -27.5190
  25   2.0000      -0.988559       -26.9001
  26   2.0000      -0.912071       -24.8187
  27   2.0000      -0.905177       -24.6311
  28   2.0000      -0.874234       -23.7891
  29   2.0000      -0.849647       -23.1201
  30   2.0000      -0.844443       -22.9785
  31   2.0000      -0.816540       -22.2192
  32   2.0000      -0.782953       -21.3052
  33   2.0000      -0.773388       -21.0450
  34   2.0000      -0.705081       -19.1862
  35   2.0000      -0.701449       -19.0874
  36   2.0000      -0.696063       -18.9408
  37   2.0000      -0.664112       -18.0714
  38   2.0000      -0.641597       -17.4587
  39   2.0000      -0.615179       -16.7399
  40   2.0000      -0.602018       -16.3817
  41   2.0000      -0.576242       -15.6803
  42   2.0000      -0.570993       -15.5375
  43   2.0000      -0.548056       -14.9134
  44   2.0000      -0.542725       -14.7683
  45   2.0000      -0.524715       -14.2782
  46   2.0000      -0.511906       -13.9297
  47   2.0000      -0.507254       -13.8031
  48   2.0000      -0.505068       -13.7436
  49   2.0000      -0.491706       -13.3800
  50   2.0000      -0.488696       -13.2981
  51   2.0000      -0.477467       -12.9925
  52   2.0000      -0.472843       -12.8667
  53   2.0000      -0.464704       -12.6452
  54   2.0000      -0.461648       -12.5621
  55   2.0000      -0.451441       -12.2843
  56   2.0000      -0.444167       -12.0864
  57   2.0000      -0.436678       -11.8826
  58   2.0000      -0.432056       -11.7569
  59   2.0000      -0.428720       -11.6661
  60   2.0000      -0.423796       -11.5321
  61   2.0000      -0.415806       -11.3147
  62   2.0000      -0.414179       -11.2704
  63   2.0000      -0.344843        -9.3837
  64   2.0000      -0.328414        -8.9366
  65   2.0000      -0.324805        -8.8384
  66   2.0000      -0.300842        -8.1863
  67   0.0000       0.041424         1.1272
  68   0.0000       0.065711         1.7881
  69   0.0000       0.107545         2.9264
  70   0.0000       0.119904         3.2627
  71   0.0000       0.135415         3.6848

MULLIKEN ATOMIC CHARGES
-----------------------
   0 S :    0.115072
   1 C :   -0.152365
   2 C :   -0.060595
   3 C :    0.080317
   4 C :   -0.172819
   5 H :   -0.048640
   6 C :    0.040916
   7 H :    0.022005
   8 H :    0.051255
   9 C :   -0.046656
  10 H :    0.030114
  11 H :    0.023704
  12 C :   -0.081162
  13 H :    0.036391
  14 H :    0.037961
  15 H :    0.044637
  16 S :    0.113509
  17 C :   -0.095562
  18 C :   -0.004479
  19 C :   -0.021816
  20 C :   -0.139104
  21 H :    0.011961
  22 C :    0.071407
  23 H :    0.005839
  24 H :    0.010693
  25 C :   -0.075304
  26 H :    0.028745
  27 H :    0.026210
  28 C :   -0.053201
  29 H :    0.023368
  30 H :    0.027526
  31 H :    0.030974
  32 H :    0.056991
  33 H :    0.062109
Sum of atomic charges:    0.0000000

LOEWDIN ATOMIC CHARGES
----------------------
   0 S :    0.401427
   1 C :   -0.206297
   2 C :   -0.073294
   3 C :   -0.040544
   4 C :   -0.187013
   5 H :    0.010343
   6 C :   -0.024530
   7 H :    0.029501
   8 H :    0.038120
   9 C :   -0.037394
  10 H :    0.022038
  11 H :    0.019416
  12 C :   -0.067836
  13 H :    0.027329
  14 H :    0.030053
  15 H :    0.024825
  16 S :    0.411420
  17 C :   -0.186565
  18 C :   -0.067634
  19 C :   -0.044802
  20 C :   -0.203445
  21 H :    0.025167
  22 C :   -0.039492
  23 H :    0.030412
  24 H :    0.023365
  25 C :   -0.031666
  26 H :    0.016517
  27 H :    0.025899
  28 C :   -0.069152
  29 H :    0.026903
  30 H :    0.017162
  31 H :    0.029580
  32 H :    0.036186
  33 H :    0.034001

  Mayer bond orders larger than 0.100000
B(  0-S ,  1-C ) :   1.1288 B(  0-S ,  4-C ) :   1.1325 B(  1-C ,  2-C ) :   1.6881
B(  1-C , 32-H ) :   0.9504 B(  2-C ,  3-C ) :   1.2008 B(  2-C ,  6-C ) :   0.9954
B(  3-C ,  4-C ) :   1.6156 B(  3-C ,  5-H ) :   1.0140 B(  4-C , 20-C ) :   1.0363
B(  6-C ,  7-H ) :   0.9464 B(  6-C ,  8-H ) :   0.9480 B(  6-C ,  9-C ) :   1.0673
B(  9-C , 10-H ) :   0.9613 B(  9-C , 11-H ) :   0.9582 B(  9-C , 12-C ) :   1.0661
B( 12-C , 13-H ) :   0.9752 B( 12-C , 14-H ) :   0.9769 B( 12-C , 15-H ) :   0.9788
B( 16-S , 17-C ) :   1.1615 B( 16-S , 20-C ) :   1.1119 B( 17-C , 18-C ) :   1.6369
B( 17-C , 33-H ) :   0.9626 B( 18-C , 19-C ) :   1.1951 B( 18-C , 21-H ) :   0.9928
B( 19-C , 20-C ) :   1.6368 B( 19-C , 22-C ) :   1.0723 B( 22-C , 23-H ) :   0.9258
B( 22-C , 24-H ) :   0.9319 B( 22-C , 25-C ) :   1.0590 B( 25-C , 26-H ) :   0.9565
B( 25-C , 27-H ) :   0.9564 B( 25-C , 28-C ) :   1.0802 B( 28-C , 29-H ) :   0.9699
B( 28-C , 30-H ) :   0.9769 B( 28-C , 31-H ) :   0.9756

Dispersion correction           -0.014295820
FINAL SINGLE POINT ENERGY     -1339.869784236829

DIPOLE MOMENT
-------------
                                X             Y             Z
Electronic contribution:     20.16727      10.40019      14.86911
Nuclear contribution   :    -20.62282     -10.67593     -15.33662
                        -----------------------------------------
Total Dipole Moment    :     -0.45555      -0.27574      -0.46751
                        -----------------------------------------
Magnitude (a.u.)       :      0.70861
Magnitude (Debye)      :      1.80113

Rotational constants in cm-1:     0.016744     0.008931     0.007246
Rotational constants in MHz :   501.972375   267.736476   217.215280

                             ****ORCA TERMINATED NORMALLY****
TOTAL RUN TIME: 0 days 0 hours 0 minutes 21 seconds 670 msec
