                         Program Version 4.2.1 -  RELEASE  -
|  1> ! wB97X-D3 SP def2-SVP
|  2> %pal
|  3> nprocs 24
|  4> end
|  5>
|  6> * xyz 0 1
|  7> S 	 46.4055 	 -34.7849 	 -119.582
|  8> C 	 46.223 	 -33.1493 	 -120.032
|  9> C 	 46.367 	 -32.2839 	 -118.902
| 10> C 	 46.7036 	 -33.0834 	 -117.68
| 11> C 	 46.7348 	 -34.4245 	 -117.938
| 12> H 	 47.0341 	 -32.6641 	 -116.777
| 13> C 	 46.0816 	 -30.816 	 -118.903
| 14> H 	 45.5958 	 -30.4588 	 -117.969
| 15> H 	 45.3692 	 -30.5952 	 -119.728
| 16> C 	 47.1941 	 -29.9242 	 -119.246
| 17> H 	 47.9376 	 -30.1492 	 -118.521
| 18> H 	 47.6607 	 -30.0754 	 -120.221
| 19> C 	 46.975 	 -28.4885 	 -118.857
| 20> H 	 46.5951 	 -28.3991 	 -117.879
| 21> H 	 47.8563 	 -27.836 	 -119.013
| 22> H 	 46.28 	 -28.0411 	 -119.562
| 23> S 	 48.7332 	 -36.1339 	 -117.265
| 24> C 	 48.6235 	 -37.2041 	 -115.924
| 25> C 	 47.4051 	 -37.0257 	 -115.23
| 26> C 	 46.5896 	 -35.9715 	 -115.807
| 27> C 	 47.1871 	 -35.428 	 -117.007
| 28> H 	 47.206 	 -37.6771 	 -114.409
| 29> C 	 45.3288 	 -35.5705 	 -115.079
| 30> H 	 45.0493 	 -34.5511 	 -115.478
| 31> H 	 45.526 	 -35.3716 	 -114.027
| 32> C 	 44.1455 	 -36.6226 	 -115.218
| 33> H 	 44.4429 	 -37.669 	 -115.15
| 34> H 	 43.7056 	 -36.5322 	 -116.272
| 35> C 	 42.9776 	 -36.3519 	 -114.206
| 36> H 	 43.1964 	 -36.6406 	 -113.243
| 37> H 	 42.1258 	 -36.9575 	 -114.637
| 38> H 	 42.8391 	 -35.278 	 -114.203
| 39> H 	 45.9597 	 -32.8097 	 -121.014
| 40> H 	 49.3598 	 -37.969 	 -115.633
| 41> *
| 42>
| 43>                          ****END OF INPUT****

CARTESIAN COORDINATES (ANGSTROEM)
---------------------------------
  S     46.405500  -34.784900  -119.582000
  C     46.223000  -33.149300  -120.032000
  C     46.367000  -32.283900  -118.902000
  C     46.703600  -33.083400  -117.680000
  C     46.734800  -34.424500  -117.938000
  H     47.034100  -32.664100  -116.777000
  C     46.081600  -30.816000  -118.903000
  H     45.595800  -30.458800  -117.969000
  H     45.369200  -30.595200  -119.728000
  C     47.194100  -29.924200  -119.246000
  H     47.937600  -30.149200  -118.521000
  H     47.660700  -30.075400  -120.221000
  C     46.975000  -28.488500  -118.857000
  H     46.595100  -28.399100  -117.879000
  H     47.856300  -27.836000  -119.013000
  H     46.280000  -28.041100  -119.562000
  S     48.733200  -36.133900  -117.265000
  C     48.623500  -37.204100  -115.924000
  C     47.405100  -37.025700  -115.230000
  C     46.589600  -35.971500  -115.807000
  C     47.187100  -35.428000  -117.007000
  H     47.206000  -37.677100  -114.409000
  C     45.328800  -35.570500  -115.079000
  H     45.049300  -34.551100  -115.478000
  H     45.526000  -35.371600  -114.027000
  C     44.145500  -36.622600  -115.218000
  H     44.442900  -37.669000  -115.150000
  H     43.705600  -36.532200  -116.272000
  C     42.977600  -36.351900  -114.206000
  H     43.196400  -36.640600  -113.243000
  H     42.125800  -36.957500  -114.637000
  H     42.839100  -35.278000  -114.203000
  H     45.959700  -32.809700  -121.014000
  H     49.359800  -37.969000  -115.633000

 Total Charge           Charge          ....    0
 Multiplicity           Mult            ....    1
 Number of Electrons    NEL             ....  134
 Basis Dimension        Dim             ....  322

ORBITAL ENERGIES
----------------

  NO   OCC          E(Eh)            E(eV)
   0   2.0000     -88.966795     -2420.9096
   1   2.0000     -88.966523     -2420.9022
   2   2.0000     -10.326855      -281.0080
   3   2.0000     -10.324248      -280.9371
   4   2.0000     -10.317623      -280.7568
   5   2.0000     -10.316767      -280.7335
   6   2.0000     -10.310565      -280.5648
   7   2.0000     -10.310153      -280.5535
   8   2.0000     -10.296838      -280.1912
   9   2.0000     -10.295758      -280.1618
  10   2.0000     -10.294029      -280.1148
  11   2.0000     -10.293531      -280.1012
  12   2.0000     -10.290876      -280.0290
  13   2.0000     -10.275684      -279.6156
  14   2.0000     -10.273493      -279.5559
  15   2.0000     -10.273307      -279.5509
  16   2.0000      -8.082841      -219.9453
  17   2.0000      -8.081906      -219.9198
  18   2.0000      -6.041276      -164.3915
  19   2.0000      -6.040260      -164.3638
  20   2.0000      -6.037006      -164.2753
  21   2.0000      -6.036049      -164.2492
  22   2.0000      -6.033752      -164.1867
  23   2.0000      -6.033076      -164.1683
  24   2.0000      -1.008397       -27.4399
  25   2.0000      -0.982128       -26.7251
  26   2.0000      -0.925768       -25.1914
  27   2.0000      -0.898076       -24.4379
  28   2.0000      -0.871618       -23.7179
  29   2.0000      -0.851160       -23.1613
  30   2.0000      -0.845940       -23.0192
  31   2.0000      -0.814075       -22.1521
  32   2.0000      -0.781065       -21.2539
  33   2.0000      -0.765192       -20.8219
  34   2.0000      -0.702163       -19.1068
  35   2.0000      -0.697241       -18.9729
  36   2.0000      -0.690309       -18.7843
  37   2.0000      -0.657519       -17.8920
  38   2.0000      -0.649116       -17.6633
  39   2.0000      -0.621924       -16.9234
  40   2.0000      -0.592497       -16.1227
  41   2.0000      -0.582062       -15.8387
  42   2.0000      -0.566266       -15.4089
  43   2.0000      -0.550098       -14.9689
  44   2.0000      -0.528659       -14.3855
  45   2.0000      -0.525426       -14.2976
  46   2.0000      -0.519479       -14.1358
  47   2.0000      -0.515048       -14.0152
  48   2.0000      -0.506811       -13.7910
  49   2.0000      -0.501484       -13.6461
  50   2.0000      -0.497839       -13.5469
  51   2.0000      -0.476363       -12.9625
  52   2.0000      -0.472750       -12.8642
  53   2.0000      -0.458237       -12.4693
  54   2.0000      -0.454380       -12.3643
  55   2.0000      -0.452654       -12.3173
  56   2.0000      -0.443798       -12.0764
  57   2.0000      -0.441550       -12.0152
  58   2.0000      -0.439572       -11.9614
  59   2.0000      -0.426059       -11.5936
  60   2.0000      -0.419166       -11.4061
  61   2.0000      -0.411889       -11.2081
  62   2.0000      -0.395294       -10.7565
  63   2.0000      -0.342296        -9.3143
  64   2.0000      -0.324817        -8.8387
  65   2.0000      -0.319897        -8.7048
  66   2.0000      -0.299586        -8.1521
  67   0.0000       0.040904         1.1130
  68   0.0000       0.062943         1.7128
  69   0.0000       0.110472         3.0061
  70   0.0000       0.115734         3.1493
  71   0.0000       0.135275         3.6810

MULLIKEN ATOMIC CHARGES
-----------------------
   0 S :    0.134502
   1 C :   -0.105771
   2 C :   -0.097365
   3 C :    0.072575
   4 C :   -0.169671
   5 H :    0.000735
   6 C :    0.039398
   7 H :    0.029769
   8 H :    0.019876
   9 C :   -0.053357
  10 H :    0.004867
  11 H :    0.031257
  12 C :   -0.030703
  13 H :    0.022754
  14 H :    0.035379
  15 H :    0.011769
  16 S :    0.133464
  17 C :   -0.116535
  18 C :   -0.036480
  19 C :   -0.016914
  20 C :   -0.178067
  21 H :    0.015422
  22 C :    0.053134
  23 H :    0.027822
  24 H :    0.031398
  25 C :   -0.124204
  26 H :    0.035430
  27 H :    0.043961
  28 C :   -0.026174
  29 H :    0.020275
  30 H :    0.048234
  31 H :    0.030309
  32 H :    0.044484
  33 H :    0.068428
Sum of atomic charges:    0.0000000

LOEWDIN ATOMIC CHARGES
----------------------
   0 S :    0.444332
   1 C :   -0.208605
   2 C :   -0.053182
   3 C :   -0.048035
   4 C :   -0.218938
   5 H :    0.023744
   6 C :   -0.042799
   7 H :    0.035911
   8 H :    0.033431
   9 C :   -0.049068
  10 H :    0.019144
  11 H :    0.026229
  12 C :   -0.058403
  13 H :    0.018396
  14 H :    0.031712
  15 H :    0.018256
  16 S :    0.445110
  17 C :   -0.208163
  18 C :   -0.070426
  19 C :   -0.049497
  20 C :   -0.224399
  21 H :    0.027357
  22 C :   -0.041248
  23 H :    0.034935
  24 H :    0.029695
  25 C :   -0.041495
  26 H :    0.019954
  27 H :    0.032909
  28 C :   -0.059919
  29 H :    0.009408
  30 H :    0.038324
  31 H :    0.024595
  32 H :    0.024875
  33 H :    0.035859

  Mayer bond orders larger than 0.100000
B(  0-S ,  1-C ) :   1.1583 B(  0-S ,  4-C ) :   1.1634 B(  1-C ,  2-C ) :   1.5911
B(  1-C , 32-H ) :   0.9714 B(  2-C ,  3-C ) :   1.2293 B(  2-C ,  6-C ) :   1.0340
B(  3-C ,  4-C ) :   1.5829 B(  3-C ,  5-H ) :   0.9989 B(  4-C , 20-C ) :   1.0198
B(  6-C ,  7-H ) :   0.9425 B(  6-C ,  8-H ) :   0.9355 B(  6-C ,  9-C ) :   1.0703
B(  9-C , 10-H ) :   0.9501 B(  9-C , 11-H ) :   0.9522 B(  9-C , 12-C ) :   1.0861
B( 12-C , 13-H ) :   0.9718 B( 12-C , 14-H ) :   0.9722 B( 12-C , 15-H ) :   0.9716
B( 16-S , 17-C ) :   1.1817 B( 16-S , 20-C ) :   1.1762 B( 17-C , 18-C ) :   1.5753
B( 17-C , 20-C ) :   0.1063 B( 17-C , 33-H ) :   0.9651 B( 18-C , 19-C ) :   1.2650
B( 18-C , 21-H ) :   0.9937 B( 19-C , 20-C ) :   1.5367 B( 19-C , 22-C ) :   1.0541
B( 22-C , 23-H ) :   0.9276 B( 22-C , 24-H ) :   0.9463 B( 22-C , 25-C ) :   1.0410
B( 25-C , 26-H ) :   0.9667 B( 25-C , 27-H ) :   0.9588 B( 25-C , 28-C ) :   1.0682
B( 28-C , 29-H ) :   0.9792 B( 28-C , 30-H ) :   0.9760 B( 28-C , 31-H ) :   0.9751

Dispersion correction           -0.013258057
FINAL SINGLE POINT ENERGY     -1339.863752630356

DIPOLE MOMENT
-------------
                                X             Y             Z
Electronic contribution:     14.05914     -17.09591      -9.51333
Nuclear contribution   :    -14.22371      17.37941       9.82498
                        -----------------------------------------
Total Dipole Moment    :     -0.16457       0.28351       0.31165
                        -----------------------------------------
Magnitude (a.u.)       :      0.45231
Magnitude (Debye)      :      1.14968

Rotational constants in cm-1:     0.018720     0.007227     0.006232
Rotational constants in MHz :   561.215329   216.663835   186.834189

                             ****ORCA TERMINATED NORMALLY****
TOTAL RUN TIME: 0 days 0 hours 0 minutes 20 seconds 486 msec
