                         Program Version 4.2.1 -  RELEASE  -
|  1> ! wB97X-D3 SP def2-SVP
|  2> %pal
|  3> nprocs 24
|  4> end
|  5>
|  6> * xyz 0 1
|  7> S 	 -144.663 	 14.2002 	 -8.7938
|  8> C 	 -144.369 	 12.4604 	 -8.77825
|  9> C 	 -145.518 	 11.7546 	 -9.1249
| 10> C 	 -146.644 	 12.5957 	 -9.34707
| 11> C 	 -146.333 	 13.917 	 -9.27486
| 12> H 	 -147.645 	 12.3217 	 -9.6382
| 13> C 	 -145.634 	 10.2894 	 -9.21074
| 14> H 	 -146.614 	 9.92401 	 -8.90307
| 15> H 	 -145.026 	 9.85105 	 -8.43125
| 16> C 	 -145.312 	 9.78851 	 -10.604
| 17> H 	 -145.58 	 8.74337 	 -10.8293
| 18> H 	 -145.867 	 10.4904 	 -11.1702
| 19> C 	 -143.83 	 9.91503 	 -10.962
| 20> H 	 -143.741 	 9.79375 	 -12.0129
| 21> H 	 -143.314 	 10.8199 	 -10.7342
| 22> H 	 -143.295 	 9.07362 	 -10.6342
| 23> S 	 -146.433 	 16.5919 	 -9.07585
| 24> C 	 -147.796 	 17.5161 	 -9.57967
| 25> C 	 -148.799 	 16.6752 	 -9.98576
| 26> C 	 -148.474 	 15.2743 	 -9.98649
| 27> C 	 -147.179 	 15.0546 	 -9.52724
| 28> H 	 -149.777 	 17.0428 	 -10.3271
| 29> C 	 -149.498 	 14.1633 	 -10.3981
| 30> H 	 -149.184 	 13.3203 	 -11.0526
| 31> H 	 -150.226 	 14.6583 	 -10.9645
| 32> C 	 -150.383 	 13.6869 	 -9.21743
| 33> H 	 -149.932 	 12.961 	 -8.5312
| 34> H 	 -151.285 	 13.2875 	 -9.62318
| 35> C 	 -151 	 14.8942 	 -8.47836
| 36> H 	 -151.576 	 15.5755 	 -9.12239
| 37> H 	 -150.263 	 15.5122 	 -7.99022
| 38> H 	 -151.569 	 14.616 	 -7.56799
| 39> H 	 -143.354 	 12.1153 	 -8.57368
| 40> H 	 -147.818 	 18.6042 	 -9.5872
| 41> *
| 42>
| 43>                          ****END OF INPUT****

CARTESIAN COORDINATES (ANGSTROEM)
---------------------------------
  S    -144.663000   14.200200   -8.793800
  C    -144.369000   12.460400   -8.778250
  C    -145.518000   11.754600   -9.124900
  C    -146.644000   12.595700   -9.347070
  C    -146.333000   13.917000   -9.274860
  H    -147.645000   12.321700   -9.638200
  C    -145.634000   10.289400   -9.210740
  H    -146.614000    9.924010   -8.903070
  H    -145.026000    9.851050   -8.431250
  C    -145.312000    9.788510  -10.604000
  H    -145.580000    8.743370  -10.829300
  H    -145.867000   10.490400  -11.170200
  C    -143.830000    9.915030  -10.962000
  H    -143.741000    9.793750  -12.012900
  H    -143.314000   10.819900  -10.734200
  H    -143.295000    9.073620  -10.634200
  S    -146.433000   16.591900   -9.075850
  C    -147.796000   17.516100   -9.579670
  C    -148.799000   16.675200   -9.985760
  C    -148.474000   15.274300   -9.986490
  C    -147.179000   15.054600   -9.527240
  H    -149.777000   17.042800  -10.327100
  C    -149.498000   14.163300  -10.398100
  H    -149.184000   13.320300  -11.052600
  H    -150.226000   14.658300  -10.964500
  C    -150.383000   13.686900   -9.217430
  H    -149.932000   12.961000   -8.531200
  H    -151.285000   13.287500   -9.623180
  C    -151.000000   14.894200   -8.478360
  H    -151.576000   15.575500   -9.122390
  H    -150.263000   15.512200   -7.990220
  H    -151.569000   14.616000   -7.567990
  H    -143.354000   12.115300   -8.573680
  H    -147.818000   18.604200   -9.587200

 Total Charge           Charge          ....    0
 Multiplicity           Mult            ....    1
 Number of Electrons    NEL             ....  134
 Basis Dimension        Dim             ....  322

ORBITAL ENERGIES
----------------

  NO   OCC          E(Eh)            E(eV)
   0   2.0000     -88.964505     -2420.8472
   1   2.0000     -88.962062     -2420.7808
   2   2.0000     -10.328199      -281.0446
   3   2.0000     -10.327659      -281.0299
   4   2.0000     -10.317316      -280.7485
   5   2.0000     -10.317227      -280.7460
   6   2.0000     -10.310242      -280.5559
   7   2.0000     -10.301172      -280.3091
   8   2.0000     -10.299445      -280.2622
   9   2.0000     -10.297307      -280.2040
  10   2.0000     -10.290519      -280.0193
  11   2.0000     -10.288827      -279.9732
  12   2.0000     -10.282691      -279.8063
  13   2.0000     -10.281811      -279.7823
  14   2.0000     -10.276162      -279.6286
  15   2.0000     -10.262130      -279.2467
  16   2.0000      -8.079200      -219.8462
  17   2.0000      -8.077548      -219.8013
  18   2.0000      -6.037808      -164.2971
  19   2.0000      -6.036128      -164.2514
  20   2.0000      -6.033826      -164.1888
  21   2.0000      -6.031935      -164.1373
  22   2.0000      -6.029750      -164.0778
  23   2.0000      -6.028211      -164.0360
  24   2.0000      -1.010700       -27.5025
  25   2.0000      -0.985174       -26.8079
  26   2.0000      -0.920252       -25.0413
  27   2.0000      -0.911322       -24.7983
  28   2.0000      -0.870448       -23.6861
  29   2.0000      -0.854392       -23.2492
  30   2.0000      -0.840706       -22.8768
  31   2.0000      -0.815770       -22.1982
  32   2.0000      -0.786986       -21.4150
  33   2.0000      -0.777619       -21.1601
  34   2.0000      -0.710416       -19.3314
  35   2.0000      -0.701358       -19.0849
  36   2.0000      -0.691505       -18.8168
  37   2.0000      -0.667952       -18.1759
  38   2.0000      -0.641879       -17.4664
  39   2.0000      -0.623921       -16.9778
  40   2.0000      -0.597819       -16.2675
  41   2.0000      -0.577912       -15.7258
  42   2.0000      -0.566865       -15.4252
  43   2.0000      -0.545184       -14.8352
  44   2.0000      -0.544787       -14.8244
  45   2.0000      -0.536496       -14.5988
  46   2.0000      -0.519299       -14.1308
  47   2.0000      -0.506668       -13.7871
  48   2.0000      -0.500801       -13.6275
  49   2.0000      -0.496335       -13.5060
  50   2.0000      -0.492969       -13.4144
  51   2.0000      -0.487878       -13.2758
  52   2.0000      -0.476310       -12.9610
  53   2.0000      -0.463321       -12.6076
  54   2.0000      -0.461058       -12.5460
  55   2.0000      -0.449491       -12.2313
  56   2.0000      -0.439635       -11.9631
  57   2.0000      -0.437269       -11.8987
  58   2.0000      -0.430219       -11.7069
  59   2.0000      -0.424559       -11.5528
  60   2.0000      -0.419849       -11.4247
  61   2.0000      -0.417377       -11.3574
  62   2.0000      -0.405372       -11.0307
  63   2.0000      -0.364976        -9.9315
  64   2.0000      -0.339367        -9.2346
  65   2.0000      -0.326723        -8.8906
  66   2.0000      -0.280685        -7.6378
  67   0.0000       0.017367         0.4726
  68   0.0000       0.082754         2.2518
  69   0.0000       0.095536         2.5997
  70   0.0000       0.118916         3.2359
  71   0.0000       0.139281         3.7900

MULLIKEN ATOMIC CHARGES
-----------------------
   0 S :    0.086423
   1 C :   -0.125363
   2 C :   -0.086618
   3 C :   -0.020616
   4 C :   -0.072447
   5 H :   -0.004507
   6 C :    0.088740
   7 H :    0.014404
   8 H :    0.012758
   9 C :   -0.038827
  10 H :    0.033707
  11 H :    0.014131
  12 C :   -0.020180
  13 H :    0.011946
  14 H :    0.028328
  15 H :    0.011730
  16 S :    0.071090
  17 C :   -0.072245
  18 C :   -0.038408
  19 C :   -0.079231
  20 C :   -0.101635
  21 H :    0.018050
  22 C :    0.070990
  23 H :    0.052321
  24 H :   -0.008240
  25 C :   -0.043685
  26 H :    0.042549
  27 H :    0.025968
  28 C :   -0.099429
  29 H :    0.029743
  30 H :    0.040996
  31 H :    0.034128
  32 H :    0.060060
  33 H :    0.063371
Sum of atomic charges:    0.0000000

LOEWDIN ATOMIC CHARGES
----------------------
   0 S :    0.384174
   1 C :   -0.188118
   2 C :   -0.057713
   3 C :   -0.064565
   4 C :   -0.176857
   5 H :    0.030845
   6 C :   -0.036207
   7 H :    0.029873
   8 H :    0.025685
   9 C :   -0.030121
  10 H :    0.028602
  11 H :    0.019327
  12 C :   -0.061491
  13 H :    0.024546
  14 H :    0.020578
  15 H :    0.018418
  16 S :    0.399521
  17 C :   -0.192828
  18 C :   -0.073382
  19 C :   -0.056980
  20 C :   -0.179560
  21 H :    0.030992
  22 C :   -0.033130
  23 H :    0.035999
  24 H :    0.023589
  25 C :   -0.035178
  26 H :    0.023034
  27 H :    0.023720
  28 C :   -0.073330
  29 H :    0.022828
  30 H :    0.023321
  31 H :    0.031239
  32 H :    0.028676
  33 H :    0.034494

  Mayer bond orders larger than 0.100000
B(  0-S ,  1-C ) :   1.1239 B(  0-S ,  4-C ) :   1.1336 B(  1-C ,  2-C ) :   1.6062
B(  1-C , 32-H ) :   0.9700 B(  2-C ,  3-C ) :   1.2168 B(  2-C ,  6-C ) :   1.0329
B(  3-C ,  4-C ) :   1.5936 B(  3-C ,  5-H ) :   0.9956 B(  4-C , 20-C ) :   1.0921
B(  6-C ,  7-H ) :   0.9377 B(  6-C ,  8-H ) :   0.9380 B(  6-C ,  9-C ) :   1.0562
B(  9-C , 10-H ) :   0.9552 B(  9-C , 11-H ) :   0.9543 B(  9-C , 12-C ) :   1.0911
B( 12-C , 13-H ) :   0.9673 B( 12-C , 14-H ) :   0.9717 B( 12-C , 15-H ) :   0.9723
B( 16-S , 17-C ) :   1.1532 B( 16-S , 20-C ) :   1.1348 B( 17-C , 18-C ) :   1.5978
B( 17-C , 33-H ) :   0.9703 B( 18-C , 19-C ) :   1.2531 B( 18-C , 21-H ) :   0.9833
B( 19-C , 20-C ) :   1.5835 B( 19-C , 22-C ) :   1.0355 B( 22-C , 23-H ) :   0.9466
B( 22-C , 24-H ) :   0.9177 B( 22-C , 25-C ) :   1.0647 B( 25-C , 26-H ) :   0.9586
B( 25-C , 27-H ) :   0.9584 B( 25-C , 28-C ) :   1.0744 B( 28-C , 29-H ) :   0.9759
B( 28-C , 30-H ) :   0.9669 B( 28-C , 31-H ) :   0.9699

Dispersion correction           -0.014836958
FINAL SINGLE POINT ENERGY     -1339.874589492441

DIPOLE MOMENT
-------------
                                X             Y             Z
Electronic contribution:     12.37238      19.51999       5.16766
Nuclear contribution   :    -12.86764     -19.89879      -5.36293
                        -----------------------------------------
Total Dipole Moment    :     -0.49526      -0.37879      -0.19526
                        -----------------------------------------
Magnitude (a.u.)       :      0.65337
Magnitude (Debye)      :      1.66074

Rotational constants in cm-1:     0.021993     0.008697     0.006791
Rotational constants in MHz :   659.345811   260.733758   203.592646

                             ****ORCA TERMINATED NORMALLY****
TOTAL RUN TIME: 0 days 0 hours 0 minutes 21 seconds 149 msec
