                         Program Version 4.2.1 -  RELEASE  -
|  1> ! wB97X-D3 SP def2-SVP
|  2> %pal
|  3> nprocs 24
|  4> end
|  5>
|  6> * xyz 0 1
|  7> S 	 -42.8171 	 20.0847 	 25.9554
|  8> C 	 -43.206 	 18.4894 	 26.6806
|  9> C 	 -42.9039 	 17.453 	 25.8306
| 10> C 	 -42.2377 	 17.9497 	 24.6921
| 11> C 	 -41.9319 	 19.328 	 24.6925
| 12> H 	 -41.8854 	 17.3865 	 23.8764
| 13> C 	 -43.2346 	 16.0053 	 26.1086
| 14> H 	 -43.8372 	 15.9262 	 26.9922
| 15> H 	 -42.4115 	 15.2944 	 26.3227
| 16> C 	 -44.0232 	 15.3908 	 25.0368
| 17> H 	 -44.9679 	 15.9697 	 25.0286
| 18> H 	 -43.6083 	 15.4513 	 23.9706
| 19> C 	 -44.3033 	 13.8552 	 25.2062
| 20> H 	 -43.4101 	 13.2938 	 25.0605
| 21> H 	 -44.5833 	 13.8233 	 26.2919
| 22> H 	 -45.1516 	 13.5868 	 24.5891
| 23> S 	 -41.4664 	 21.8163 	 23.4457
| 24> C 	 -40.2481 	 21.8442 	 22.181
| 25> C 	 -39.497 	 20.697 	 22.2358
| 26> C 	 -39.9617 	 19.6471 	 23.0365
| 27> C 	 -41.074 	 20.0694 	 23.7501
| 28> H 	 -38.6818 	 20.5026 	 21.464
| 29> C 	 -39.221 	 18.4072 	 23.2783
| 30> H 	 -39.5678 	 17.7147 	 22.5275
| 31> H 	 -39.6325 	 18.0735 	 24.2143
| 32> C 	 -37.6966 	 18.4165 	 23.4446
| 33> H 	 -37.3075 	 19.0334 	 22.6383
| 34> H 	 -37.4557 	 17.3691 	 23.332
| 35> C 	 -37.2845 	 18.999 	 24.7726
| 36> H 	 -37.944 	 18.5752 	 25.5357
| 37> H 	 -37.4771 	 20.1066 	 24.7247
| 38> H 	 -36.233 	 18.852 	 24.9918
| 39> H 	 -43.7328 	 18.4987 	 27.6284
| 40> H 	 -40.1339 	 22.7048 	 21.564
| 41> *
| 42>
| 43>                          ****END OF INPUT****

CARTESIAN COORDINATES (ANGSTROEM)
---------------------------------
  S    -42.817100   20.084700   25.955400
  C    -43.206000   18.489400   26.680600
  C    -42.903900   17.453000   25.830600
  C    -42.237700   17.949700   24.692100
  C    -41.931900   19.328000   24.692500
  H    -41.885400   17.386500   23.876400
  C    -43.234600   16.005300   26.108600
  H    -43.837200   15.926200   26.992200
  H    -42.411500   15.294400   26.322700
  C    -44.023200   15.390800   25.036800
  H    -44.967900   15.969700   25.028600
  H    -43.608300   15.451300   23.970600
  C    -44.303300   13.855200   25.206200
  H    -43.410100   13.293800   25.060500
  H    -44.583300   13.823300   26.291900
  H    -45.151600   13.586800   24.589100
  S    -41.466400   21.816300   23.445700
  C    -40.248100   21.844200   22.181000
  C    -39.497000   20.697000   22.235800
  C    -39.961700   19.647100   23.036500
  C    -41.074000   20.069400   23.750100
  H    -38.681800   20.502600   21.464000
  C    -39.221000   18.407200   23.278300
  H    -39.567800   17.714700   22.527500
  H    -39.632500   18.073500   24.214300
  C    -37.696600   18.416500   23.444600
  H    -37.307500   19.033400   22.638300
  H    -37.455700   17.369100   23.332000
  C    -37.284500   18.999000   24.772600
  H    -37.944000   18.575200   25.535700
  H    -37.477100   20.106600   24.724700
  H    -36.233000   18.852000   24.991800
  H    -43.732800   18.498700   27.628400
  H    -40.133900   22.704800   21.564000

 Total Charge           Charge          ....    0
 Multiplicity           Mult            ....    1
 Number of Electrons    NEL             ....  134
 Basis Dimension        Dim             ....  322

ORBITAL ENERGIES
----------------

  NO   OCC          E(Eh)            E(eV)
   0   2.0000     -88.965176     -2420.8655
   1   2.0000     -88.963835     -2420.8290
   2   2.0000     -10.332736      -281.1680
   3   2.0000     -10.331503      -281.1345
   4   2.0000     -10.319759      -280.8149
   5   2.0000     -10.317186      -280.7449
   6   2.0000     -10.304798      -280.4078
   7   2.0000     -10.299053      -280.2515
   8   2.0000     -10.296257      -280.1754
   9   2.0000     -10.291831      -280.0550
  10   2.0000     -10.290855      -280.0284
  11   2.0000     -10.287824      -279.9459
  12   2.0000     -10.285045      -279.8703
  13   2.0000     -10.283428      -279.8263
  14   2.0000     -10.282018      -279.7879
  15   2.0000     -10.277258      -279.6584
  16   2.0000      -8.079241      -219.8473
  17   2.0000      -8.078828      -219.8361
  18   2.0000      -6.037761      -164.2958
  19   2.0000      -6.037264      -164.2823
  20   2.0000      -6.034044      -164.1947
  21   2.0000      -6.033432      -164.1780
  22   2.0000      -6.029851      -164.0806
  23   2.0000      -6.029538      -164.0721
  24   2.0000      -1.006197       -27.3800
  25   2.0000      -0.985626       -26.8202
  26   2.0000      -0.922212       -25.0947
  27   2.0000      -0.918964       -25.0063
  28   2.0000      -0.868660       -23.6374
  29   2.0000      -0.857089       -23.3226
  30   2.0000      -0.840689       -22.8763
  31   2.0000      -0.810994       -22.0683
  32   2.0000      -0.787662       -21.4334
  33   2.0000      -0.776713       -21.1354
  34   2.0000      -0.707304       -19.2467
  35   2.0000      -0.703062       -19.1313
  36   2.0000      -0.686977       -18.6936
  37   2.0000      -0.653881       -17.7930
  38   2.0000      -0.645989       -17.5783
  39   2.0000      -0.623593       -16.9688
  40   2.0000      -0.607282       -16.5250
  41   2.0000      -0.575414       -15.6578
  42   2.0000      -0.564543       -15.3620
  43   2.0000      -0.559822       -15.2335
  44   2.0000      -0.546286       -14.8652
  45   2.0000      -0.528192       -14.3728
  46   2.0000      -0.519324       -14.1315
  47   2.0000      -0.513996       -13.9865
  48   2.0000      -0.507687       -13.8149
  49   2.0000      -0.494730       -13.4623
  50   2.0000      -0.489285       -13.3141
  51   2.0000      -0.481131       -13.0922
  52   2.0000      -0.469737       -12.7822
  53   2.0000      -0.467346       -12.7171
  54   2.0000      -0.457630       -12.4527
  55   2.0000      -0.452848       -12.3226
  56   2.0000      -0.445641       -12.1265
  57   2.0000      -0.439020       -11.9463
  58   2.0000      -0.431740       -11.7482
  59   2.0000      -0.422976       -11.5098
  60   2.0000      -0.417992       -11.3741
  61   2.0000      -0.416825       -11.3424
  62   2.0000      -0.406898       -11.0723
  63   2.0000      -0.355394        -9.6708
  64   2.0000      -0.334384        -9.0991
  65   2.0000      -0.330191        -8.9850
  66   2.0000      -0.280901        -7.6437
  67   0.0000       0.017602         0.4790
  68   0.0000       0.073008         1.9866
  69   0.0000       0.094044         2.5591
  70   0.0000       0.119827         3.2607
  71   0.0000       0.138030         3.7560

MULLIKEN ATOMIC CHARGES
-----------------------
   0 S :    0.090774
   1 C :   -0.149126
   2 C :   -0.026839
   3 C :    0.014218
   4 C :   -0.138253
   5 H :   -0.011008
   6 C :    0.125708
   7 H :    0.003897
   8 H :    0.030543
   9 C :   -0.179071
  10 H :    0.033534
  11 H :    0.043581
  12 C :   -0.027294
  13 H :    0.038296
  14 H :    0.022104
  15 H :    0.046889
  16 S :    0.083464
  17 C :   -0.085349
  18 C :   -0.046539
  19 C :   -0.061860
  20 C :   -0.135209
  21 H :    0.040758
  22 C :    0.032822
  23 H :    0.037277
  24 H :    0.019536
  25 C :   -0.028497
  26 H :    0.023027
  27 H :    0.028998
  28 C :   -0.054302
  29 H :    0.034518
  30 H :    0.046692
  31 H :    0.041758
  32 H :    0.051046
  33 H :    0.053906
Sum of atomic charges:   -0.0000000

LOEWDIN ATOMIC CHARGES
----------------------
   0 S :    0.393136
   1 C :   -0.175939
   2 C :   -0.058243
   3 C :   -0.065368
   4 C :   -0.194115
   5 H :    0.019377
   6 C :   -0.034831
   7 H :    0.028029
   8 H :    0.032428
   9 C :   -0.052593
  10 H :    0.025669
  11 H :    0.025797
  12 C :   -0.060011
  13 H :    0.020670
  14 H :    0.026656
  15 H :    0.029820
  16 S :    0.365593
  17 C :   -0.168514
  18 C :   -0.081145
  19 C :   -0.061986
  20 C :   -0.169984
  21 H :    0.039585
  22 C :   -0.035763
  23 H :    0.032985
  24 H :    0.029541
  25 C :   -0.033518
  26 H :    0.020838
  27 H :    0.026433
  28 C :   -0.064098
  29 H :    0.027118
  30 H :    0.036302
  31 H :    0.025705
  32 H :    0.025193
  33 H :    0.025234

  Mayer bond orders larger than 0.100000
B(  0-S ,  1-C ) :   1.1341 B(  0-S ,  4-C ) :   1.1620 B(  1-C ,  2-C ) :   1.5878
B(  1-C ,  4-C ) :   0.1004 B(  1-C , 32-H ) :   0.9739 B(  2-C ,  3-C ) :   1.2440
B(  2-C ,  6-C ) :   1.0244 B(  3-C ,  4-C ) :   1.5318 B(  3-C ,  5-H ) :   1.0039
B(  4-C , 20-C ) :   1.0725 B(  6-C ,  7-H ) :   0.9271 B(  6-C ,  8-H ) :   0.9372
B(  6-C ,  9-C ) :   1.0563 B(  9-C , 10-H ) :   0.9551 B(  9-C , 11-H ) :   0.9571
B(  9-C , 12-C ) :   1.0738 B( 12-C , 13-H ) :   0.9755 B( 12-C , 14-H ) :   0.9743
B( 12-C , 15-H ) :   0.9748 B( 16-S , 17-C ) :   1.1453 B( 16-S , 20-C ) :   1.1224
B( 17-C , 18-C ) :   1.6030 B( 17-C , 20-C ) :   0.1038 B( 17-C , 33-H ) :   0.9763
B( 18-C , 19-C ) :   1.2478 B( 18-C , 21-H ) :   0.9687 B( 19-C , 20-C ) :   1.5920
B( 19-C , 22-C ) :   1.0368 B( 22-C , 23-H ) :   0.9121 B( 22-C , 24-H ) :   0.9318
B( 22-C , 25-C ) :   1.0786 B( 25-C , 26-H ) :   0.9508 B( 25-C , 27-H ) :   0.9481
B( 25-C , 28-C ) :   1.0791 B( 28-C , 29-H ) :   0.9743 B( 28-C , 30-H ) :   0.9735
B( 28-C , 31-H ) :   0.9741

Dispersion correction           -0.013913756
FINAL SINGLE POINT ENERGY     -1339.867671355902

DIPOLE MOMENT
-------------
                                X             Y             Z
Electronic contribution:     -6.98150      26.24802      -0.72546
Nuclear contribution   :      7.24659     -26.86290       0.56667
                        -----------------------------------------
Total Dipole Moment    :      0.26508      -0.61488      -0.15880
                        -----------------------------------------
Magnitude (a.u.)       :      0.68816
Magnitude (Debye)      :      1.74916

Rotational constants in cm-1:     0.019231     0.008104     0.006664
Rotational constants in MHz :   576.541472   242.942843   199.772425

                             ****ORCA TERMINATED NORMALLY****
TOTAL RUN TIME: 0 days 0 hours 0 minutes 21 seconds 750 msec
