                         Program Version 4.2.1 -  RELEASE  -
|  1> ! wB97X-D3 SP def2-SVP
|  2> %pal
|  3> nprocs 24
|  4> end
|  5>
|  6> * xyz 0 1
|  7> S 	 39.0646 	 -6.66653 	 -117.338
|  8> C 	 38.629 	 -8.2525 	 -116.671
|  9> C 	 37.6077 	 -8.16682 	 -115.717
| 10> C 	 36.9993 	 -6.88993 	 -115.738
| 11> C 	 37.5718 	 -6.00485 	 -116.65
| 12> H 	 36.0969 	 -6.58291 	 -115.131
| 13> C 	 37.0553 	 -9.37757 	 -114.903
| 14> H 	 37.8527 	 -10.1135 	 -114.947
| 15> H 	 36.1634 	 -9.76659 	 -115.414
| 16> C 	 36.6973 	 -8.93912 	 -113.457
| 17> H 	 37.4764 	 -8.19896 	 -113.243
| 18> H 	 35.6682 	 -8.4607 	 -113.583
| 19> C 	 36.5625 	 -10.1347 	 -112.534
| 20> H 	 37.4177 	 -10.802 	 -112.486
| 21> H 	 36.4004 	 -9.7769 	 -111.512
| 22> H 	 35.7824 	 -10.9185 	 -112.697
| 23> S 	 37.275 	 -3.52782 	 -115.52
| 24> C 	 36.8068 	 -2.15728 	 -116.497
| 25> C 	 36.5978 	 -2.54895 	 -117.779
| 26> C 	 36.7454 	 -3.91989 	 -117.987
| 27> C 	 37.0619 	 -4.64337 	 -116.846
| 28> H 	 36.2478 	 -1.83781 	 -118.546
| 29> C 	 36.6904 	 -4.49266 	 -119.369
| 30> H 	 37.2687 	 -5.45673 	 -119.361
| 31> H 	 37.3051 	 -3.8245 	 -120.039
| 32> C 	 35.1881 	 -4.73187 	 -119.839
| 33> H 	 35.2582 	 -5.32424 	 -120.743
| 34> H 	 34.7193 	 -3.79008 	 -120.065
| 35> C 	 34.2152 	 -5.45321 	 -118.894
| 36> H 	 33.1378 	 -5.29605 	 -119.171
| 37> H 	 34.3134 	 -5.07888 	 -117.889
| 38> H 	 34.4012 	 -6.51852 	 -118.802
| 39> H 	 39.1568 	 -9.1775 	 -116.818
| 40> H 	 36.6244 	 -1.22574 	 -116.118
| 41> *
| 42>
| 43>                          ****END OF INPUT****

CARTESIAN COORDINATES (ANGSTROEM)
---------------------------------
  S     39.064600   -6.666530  -117.338000
  C     38.629000   -8.252500  -116.671000
  C     37.607700   -8.166820  -115.717000
  C     36.999300   -6.889930  -115.738000
  C     37.571800   -6.004850  -116.650000
  H     36.096900   -6.582910  -115.131000
  C     37.055300   -9.377570  -114.903000
  H     37.852700  -10.113500  -114.947000
  H     36.163400   -9.766590  -115.414000
  C     36.697300   -8.939120  -113.457000
  H     37.476400   -8.198960  -113.243000
  H     35.668200   -8.460700  -113.583000
  C     36.562500  -10.134700  -112.534000
  H     37.417700  -10.802000  -112.486000
  H     36.400400   -9.776900  -111.512000
  H     35.782400  -10.918500  -112.697000
  S     37.275000   -3.527820  -115.520000
  C     36.806800   -2.157280  -116.497000
  C     36.597800   -2.548950  -117.779000
  C     36.745400   -3.919890  -117.987000
  C     37.061900   -4.643370  -116.846000
  H     36.247800   -1.837810  -118.546000
  C     36.690400   -4.492660  -119.369000
  H     37.268700   -5.456730  -119.361000
  H     37.305100   -3.824500  -120.039000
  C     35.188100   -4.731870  -119.839000
  H     35.258200   -5.324240  -120.743000
  H     34.719300   -3.790080  -120.065000
  C     34.215200   -5.453210  -118.894000
  H     33.137800   -5.296050  -119.171000
  H     34.313400   -5.078880  -117.889000
  H     34.401200   -6.518520  -118.802000
  H     39.156800   -9.177500  -116.818000
  H     36.624400   -1.225740  -116.118000

 Total Charge           Charge          ....    0
 Multiplicity           Mult            ....    1
 Number of Electrons    NEL             ....  134
 Basis Dimension        Dim             ....  322

ORBITAL ENERGIES
----------------

  NO   OCC          E(Eh)            E(eV)
   0   2.0000     -88.972209     -2421.0569
   1   2.0000     -88.961616     -2420.7687
   2   2.0000     -10.331334      -281.1299
   3   2.0000     -10.322220      -280.8819
   4   2.0000     -10.316001      -280.7127
   5   2.0000     -10.309437      -280.5340
   6   2.0000     -10.302488      -280.3449
   7   2.0000     -10.297985      -280.2224
   8   2.0000     -10.296957      -280.1944
   9   2.0000     -10.295660      -280.1592
  10   2.0000     -10.295390      -280.1518
  11   2.0000     -10.295314      -280.1497
  12   2.0000     -10.288624      -279.9677
  13   2.0000     -10.285042      -279.8702
  14   2.0000     -10.282443      -279.7995
  15   2.0000     -10.271921      -279.5132
  16   2.0000      -8.085455      -220.0164
  17   2.0000      -8.076640      -219.7765
  18   2.0000      -6.044027      -164.4663
  19   2.0000      -6.040319      -164.3654
  20   2.0000      -6.036084      -164.2502
  21   2.0000      -6.035101      -164.2235
  22   2.0000      -6.031002      -164.1119
  23   2.0000      -6.027525      -164.0173
  24   2.0000      -1.006721       -27.3943
  25   2.0000      -0.983162       -26.7532
  26   2.0000      -0.909169       -24.7397
  27   2.0000      -0.899756       -24.4836
  28   2.0000      -0.869311       -23.6552
  29   2.0000      -0.848039       -23.0763
  30   2.0000      -0.843115       -22.9423
  31   2.0000      -0.812522       -22.1098
  32   2.0000      -0.779769       -21.2186
  33   2.0000      -0.769957       -20.9516
  34   2.0000      -0.710826       -19.3426
  35   2.0000      -0.695922       -18.9370
  36   2.0000      -0.689742       -18.7688
  37   2.0000      -0.664383       -18.0788
  38   2.0000      -0.629986       -17.1428
  39   2.0000      -0.614481       -16.7209
  40   2.0000      -0.595505       -16.2045
  41   2.0000      -0.574234       -15.6257
  42   2.0000      -0.561259       -15.2726
  43   2.0000      -0.542653       -14.7663
  44   2.0000      -0.539315       -14.6755
  45   2.0000      -0.522893       -14.2286
  46   2.0000      -0.518346       -14.1049
  47   2.0000      -0.506859       -13.7923
  48   2.0000      -0.498464       -13.5639
  49   2.0000      -0.494956       -13.4684
  50   2.0000      -0.492370       -13.3981
  51   2.0000      -0.474823       -12.9206
  52   2.0000      -0.472249       -12.8505
  53   2.0000      -0.460768       -12.5381
  54   2.0000      -0.457487       -12.4489
  55   2.0000      -0.450767       -12.2660
  56   2.0000      -0.443970       -12.0810
  57   2.0000      -0.434953       -11.8357
  58   2.0000      -0.432071       -11.7573
  59   2.0000      -0.421071       -11.4579
  60   2.0000      -0.419011       -11.4019
  61   2.0000      -0.413789       -11.2598
  62   2.0000      -0.408142       -11.1061
  63   2.0000      -0.338552        -9.2125
  64   2.0000      -0.335416        -9.1271
  65   2.0000      -0.323391        -8.7999
  66   2.0000      -0.299155        -8.1404
  67   0.0000       0.029892         0.8134
  68   0.0000       0.063182         1.7193
  69   0.0000       0.104762         2.8507
  70   0.0000       0.124835         3.3969
  71   0.0000       0.125368         3.4114

MULLIKEN ATOMIC CHARGES
-----------------------
   0 S :    0.128517
   1 C :   -0.124244
   2 C :   -0.100059
   3 C :   -0.015626
   4 C :   -0.135102
   5 H :    0.041715
   6 C :    0.067265
   7 H :    0.013472
   8 H :    0.049793
   9 C :   -0.104170
  10 H :    0.053727
  11 H :    0.051250
  12 C :   -0.044217
  13 H :    0.022258
  14 H :    0.035205
  15 H :    0.033542
  16 S :    0.102821
  17 C :   -0.054622
  18 C :   -0.035246
  19 C :   -0.057185
  20 C :   -0.168249
  21 H :    0.027531
  22 C :    0.037295
  23 H :    0.026861
  24 H :    0.043163
  25 C :   -0.053363
  26 H :    0.031334
  27 H :    0.024138
  28 C :   -0.064710
  29 H :    0.040247
  30 H :    0.032571
  31 H :    0.032433
  32 H :    0.039628
  33 H :    0.022025
Sum of atomic charges:   -0.0000000

LOEWDIN ATOMIC CHARGES
----------------------
   0 S :    0.395478
   1 C :   -0.191142
   2 C :   -0.066136
   3 C :   -0.068231
   4 C :   -0.192171
   5 H :    0.042319
   6 C :   -0.026687
   7 H :    0.022389
   8 H :    0.033478
   9 C :   -0.045168
  10 H :    0.032504
  11 H :    0.036206
  12 C :   -0.077362
  13 H :    0.023073
  14 H :    0.028729
  15 H :    0.033419
  16 S :    0.412273
  17 C :   -0.164563
  18 C :   -0.074992
  19 C :   -0.063365
  20 C :   -0.208378
  21 H :    0.037486
  22 C :   -0.037212
  23 H :    0.026965
  24 H :    0.038802
  25 C :   -0.035316
  26 H :    0.024114
  27 H :    0.019745
  28 C :   -0.070549
  29 H :    0.033493
  30 H :    0.022033
  31 H :    0.023735
  32 H :    0.023947
  33 H :    0.011084

  Mayer bond orders larger than 0.100000
B(  0-S ,  1-C ) :   1.1349 B(  0-S ,  4-C ) :   1.1302 B(  1-C ,  2-C ) :   1.6170
B(  1-C , 32-H ) :   0.9661 B(  2-C ,  3-C ) :   1.2349 B(  2-C ,  6-C ) :   1.0154
B(  3-C ,  4-C ) :   1.5688 B(  3-C ,  5-H ) :   0.9848 B(  4-C , 20-C ) :   1.0466
B(  6-C ,  7-H ) :   0.9433 B(  6-C ,  8-H ) :   0.9431 B(  6-C ,  9-C ) :   1.0539
B(  9-C , 10-H ) :   0.9653 B(  9-C , 11-H ) :   0.9453 B(  9-C , 12-C ) :   1.0806
B( 12-C , 13-H ) :   0.9745 B( 12-C , 14-H ) :   0.9737 B( 12-C , 15-H ) :   0.9715
B( 16-S , 17-C ) :   1.1675 B( 16-S , 20-C ) :   1.1436 B( 17-C , 18-C ) :   1.5794
B( 17-C , 20-C ) :   0.1001 B( 17-C , 33-H ) :   0.9797 B( 18-C , 19-C ) :   1.2678
B( 18-C , 21-H ) :   0.9884 B( 19-C , 20-C ) :   1.5634 B( 19-C , 22-C ) :   1.0452
B( 22-C , 23-H ) :   0.9315 B( 22-C , 24-H ) :   0.9452 B( 22-C , 25-C ) :   1.0470
B( 25-C , 26-H ) :   0.9596 B( 25-C , 27-H ) :   0.9616 B( 25-C , 28-C ) :   1.0799
B( 28-C , 29-H ) :   0.9744 B( 28-C , 30-H ) :   0.9697 B( 28-C , 31-H ) :   0.9759

Dispersion correction           -0.014754347
FINAL SINGLE POINT ENERGY     -1339.876592916341

DIPOLE MOMENT
-------------
                                X             Y             Z
Electronic contribution:     14.72192      14.65471      -1.57680
Nuclear contribution   :    -15.02908     -14.87693       1.58691
                        -----------------------------------------
Total Dipole Moment    :     -0.30716      -0.22222       0.01011
                        -----------------------------------------
Magnitude (a.u.)       :      0.37926
Magnitude (Debye)      :      0.96399

Rotational constants in cm-1:     0.020560     0.007735     0.007268
Rotational constants in MHz :   616.366942   231.896274   217.879451

                             ****ORCA TERMINATED NORMALLY****
TOTAL RUN TIME: 0 days 0 hours 0 minutes 20 seconds 505 msec
