                         Program Version 4.2.1 -  RELEASE  -
|  1> ! wB97X-D3 SP def2-SVP
|  2> %pal
|  3> nprocs 24
|  4> end
|  5>
|  6> * xyz 0 1
|  7> S 	 -83.2054 	 -6.67243 	 -57.8691
|  8> C 	 -83.3483 	 -8.24732 	 -57.1403
|  9> C 	 -82.3685 	 -9.11575 	 -57.6296
| 10> C 	 -81.4711 	 -8.41409 	 -58.4857
| 11> C 	 -81.8932 	 -7.16257 	 -58.8982
| 12> H 	 -80.585 	 -8.84579 	 -59.0105
| 13> C 	 -82.1862 	 -10.5961 	 -57.3596
| 14> H 	 -81.9957 	 -10.5914 	 -56.3449
| 15> H 	 -81.2754 	 -11.0428 	 -57.9107
| 16> C 	 -83.4422 	 -11.2892 	 -57.8779
| 17> H 	 -84.3711 	 -10.8025 	 -57.3985
| 18> H 	 -83.5029 	 -11.1662 	 -58.9384
| 19> C 	 -83.3552 	 -12.8043 	 -57.5391
| 20> H 	 -82.4198 	 -13.3643 	 -57.7938
| 21> H 	 -83.1821 	 -12.8794 	 -56.4251
| 22> H 	 -84.2715 	 -13.2343 	 -57.9537
| 23> S 	 -80.0691 	 -5.1494 	 -58.6144
| 24> C 	 -79.7678 	 -4.13947 	 -60.0008
| 25> C 	 -80.299 	 -4.69825 	 -61.1389
| 26> C 	 -81.0389 	 -5.89541 	 -60.9564
| 27> C 	 -81.1154 	 -6.20553 	 -59.6141
| 28> H 	 -80.301 	 -4.17594 	 -62.101
| 29> C 	 -81.8136 	 -6.5101 	 -62.1311
| 30> H 	 -81.236 	 -6.34686 	 -63.0878
| 31> H 	 -82.7335 	 -5.96923 	 -62.3377
| 32> C 	 -82.2035 	 -7.95718 	 -61.9424
| 33> H 	 -82.9569 	 -7.9538 	 -61.182
| 34> H 	 -81.3168 	 -8.49569 	 -61.5868
| 35> C 	 -82.6775 	 -8.64211 	 -63.1704
| 36> H 	 -83.578 	 -8.11475 	 -63.5092
| 37> H 	 -82.9873 	 -9.65518 	 -63.0006
| 38> H 	 -81.8873 	 -8.57695 	 -63.9239
| 39> H 	 -84.2121 	 -8.64781 	 -56.5381
| 40> H 	 -79.1973 	 -3.21758 	 -60.0571
| 41> *
| 42>
| 43>                          ****END OF INPUT****

CARTESIAN COORDINATES (ANGSTROEM)
---------------------------------
  S    -83.205400   -6.672430  -57.869100
  C    -83.348300   -8.247320  -57.140300
  C    -82.368500   -9.115750  -57.629600
  C    -81.471100   -8.414090  -58.485700
  C    -81.893200   -7.162570  -58.898200
  H    -80.585000   -8.845790  -59.010500
  C    -82.186200  -10.596100  -57.359600
  H    -81.995700  -10.591400  -56.344900
  H    -81.275400  -11.042800  -57.910700
  C    -83.442200  -11.289200  -57.877900
  H    -84.371100  -10.802500  -57.398500
  H    -83.502900  -11.166200  -58.938400
  C    -83.355200  -12.804300  -57.539100
  H    -82.419800  -13.364300  -57.793800
  H    -83.182100  -12.879400  -56.425100
  H    -84.271500  -13.234300  -57.953700
  S    -80.069100   -5.149400  -58.614400
  C    -79.767800   -4.139470  -60.000800
  C    -80.299000   -4.698250  -61.138900
  C    -81.038900   -5.895410  -60.956400
  C    -81.115400   -6.205530  -59.614100
  H    -80.301000   -4.175940  -62.101000
  C    -81.813600   -6.510100  -62.131100
  H    -81.236000   -6.346860  -63.087800
  H    -82.733500   -5.969230  -62.337700
  C    -82.203500   -7.957180  -61.942400
  H    -82.956900   -7.953800  -61.182000
  H    -81.316800   -8.495690  -61.586800
  C    -82.677500   -8.642110  -63.170400
  H    -83.578000   -8.114750  -63.509200
  H    -82.987300   -9.655180  -63.000600
  H    -81.887300   -8.576950  -63.923900
  H    -84.212100   -8.647810  -56.538100
  H    -79.197300   -3.217580  -60.057100

 Total Charge           Charge          ....    0
 Multiplicity           Mult            ....    1
 Number of Electrons    NEL             ....  134
 Basis Dimension        Dim             ....  322

ORBITAL ENERGIES
----------------

  NO   OCC          E(Eh)            E(eV)
   0   2.0000     -88.965146     -2420.8647
   1   2.0000     -88.963883     -2420.8303
   2   2.0000     -10.323411      -280.9143
   3   2.0000     -10.319975      -280.8208
   4   2.0000     -10.317799      -280.7616
   5   2.0000     -10.314801      -280.6800
   6   2.0000     -10.302956      -280.3577
   7   2.0000     -10.299507      -280.2638
   8   2.0000     -10.295214      -280.1470
   9   2.0000     -10.294561      -280.1293
  10   2.0000     -10.292816      -280.0818
  11   2.0000     -10.291721      -280.0520
  12   2.0000     -10.288753      -279.9712
  13   2.0000     -10.286982      -279.9230
  14   2.0000     -10.273471      -279.5554
  15   2.0000     -10.272649      -279.5330
  16   2.0000      -8.079942      -219.8664
  17   2.0000      -8.078245      -219.8202
  18   2.0000      -6.038446      -164.3145
  19   2.0000      -6.036822      -164.2703
  20   2.0000      -6.034338      -164.2027
  21   2.0000      -6.032862      -164.1625
  22   2.0000      -6.030778      -164.1058
  23   2.0000      -6.028872      -164.0540
  24   2.0000      -1.007574       -27.4175
  25   2.0000      -0.982900       -26.7461
  26   2.0000      -0.916400       -24.9365
  27   2.0000      -0.914762       -24.8919
  28   2.0000      -0.868093       -23.6220
  29   2.0000      -0.853550       -23.2263
  30   2.0000      -0.844870       -22.9901
  31   2.0000      -0.807597       -21.9758
  32   2.0000      -0.782511       -21.2932
  33   2.0000      -0.769059       -20.9272
  34   2.0000      -0.708961       -19.2918
  35   2.0000      -0.702306       -19.1107
  36   2.0000      -0.685628       -18.6569
  37   2.0000      -0.654321       -17.8050
  38   2.0000      -0.637771       -17.3546
  39   2.0000      -0.610472       -16.6118
  40   2.0000      -0.596913       -16.2428
  41   2.0000      -0.576265       -15.6810
  42   2.0000      -0.570758       -15.5311
  43   2.0000      -0.556026       -15.1302
  44   2.0000      -0.539355       -14.6766
  45   2.0000      -0.522192       -14.2096
  46   2.0000      -0.516088       -14.0435
  47   2.0000      -0.512637       -13.9496
  48   2.0000      -0.501391       -13.6436
  49   2.0000      -0.496106       -13.4997
  50   2.0000      -0.494337       -13.4516
  51   2.0000      -0.479261       -13.0414
  52   2.0000      -0.472484       -12.8569
  53   2.0000      -0.462601       -12.5880
  54   2.0000      -0.455620       -12.3981
  55   2.0000      -0.448885       -12.2148
  56   2.0000      -0.446239       -12.1428
  57   2.0000      -0.432778       -11.7765
  58   2.0000      -0.427176       -11.6241
  59   2.0000      -0.423261       -11.5175
  60   2.0000      -0.421230       -11.4622
  61   2.0000      -0.417191       -11.3524
  62   2.0000      -0.404212       -10.9992
  63   2.0000      -0.336303        -9.1513
  64   2.0000      -0.327824        -8.9206
  65   2.0000      -0.316196        -8.6041
  66   2.0000      -0.306383        -8.3371
  67   0.0000       0.041081         1.1179
  68   0.0000       0.050477         1.3735
  69   0.0000       0.114713         3.1215
  70   0.0000       0.122586         3.3357
  71   0.0000       0.130064         3.5392

MULLIKEN ATOMIC CHARGES
-----------------------
   0 S :    0.122700
   1 C :   -0.143415
   2 C :   -0.113655
   3 C :    0.019497
   4 C :   -0.186122
   5 H :    0.029039
   6 C :    0.084353
   7 H :    0.026087
   8 H :    0.039028
   9 C :   -0.107337
  10 H :    0.043589
  11 H :    0.035237
  12 C :   -0.049513
  13 H :    0.033227
  14 H :    0.026073
  15 H :    0.050020
  16 S :    0.122441
  17 C :   -0.078752
  18 C :   -0.050924
  19 C :    0.017920
  20 C :   -0.207873
  21 H :    0.018240
  22 C :    0.043037
  23 H :    0.020259
  24 H :    0.033965
  25 C :   -0.101047
  26 H :    0.043569
  27 H :    0.022691
  28 C :    0.011520
  29 H :    0.016906
  30 H :    0.029059
  31 H :    0.026540
  32 H :    0.067659
  33 H :    0.055984
Sum of atomic charges:    0.0000000

LOEWDIN ATOMIC CHARGES
----------------------
   0 S :    0.422087
   1 C :   -0.218921
   2 C :   -0.063164
   3 C :   -0.061360
   4 C :   -0.216821
   5 H :    0.035188
   6 C :   -0.029033
   7 H :    0.021928
   8 H :    0.040559
   9 C :   -0.037502
  10 H :    0.032587
  11 H :    0.022972
  12 C :   -0.081125
  13 H :    0.029776
  14 H :    0.030789
  15 H :    0.028304
  16 S :    0.395638
  17 C :   -0.187869
  18 C :   -0.076177
  19 C :   -0.050010
  20 C :   -0.191843
  21 H :    0.031634
  22 C :   -0.029597
  23 H :    0.031620
  24 H :    0.033461
  25 C :   -0.047196
  26 H :    0.023963
  27 H :    0.021984
  28 C :   -0.057240
  29 H :    0.024206
  30 H :    0.024540
  31 H :    0.024741
  32 H :    0.038804
  33 H :    0.033077

  Mayer bond orders larger than 0.100000
B(  0-S ,  1-C ) :   1.1548 B(  0-S ,  4-C ) :   1.1530 B(  1-C ,  2-C ) :   1.5803
B(  1-C ,  4-C ) :   0.1071 B(  1-C , 32-H ) :   0.9568 B(  2-C ,  3-C ) :   1.2748
B(  2-C ,  6-C ) :   0.9957 B(  3-C ,  4-C ) :   1.5673 B(  3-C ,  5-H ) :   0.9811
B(  4-C , 20-C ) :   1.0350 B(  6-C ,  7-H ) :   0.9342 B(  6-C ,  8-H ) :   0.9490
B(  6-C ,  9-C ) :   1.0586 B(  9-C , 10-H ) :   0.9566 B(  9-C , 11-H ) :   0.9565
B(  9-C , 12-C ) :   1.0722 B( 12-C , 13-H ) :   0.9712 B( 12-C , 14-H ) :   0.9722
B( 12-C , 15-H ) :   0.9738 B( 16-S , 17-C ) :   1.1389 B( 16-S , 20-C ) :   1.1345
B( 17-C , 18-C ) :   1.6344 B( 17-C , 33-H ) :   0.9639 B( 18-C , 19-C ) :   1.2382
B( 18-C , 21-H ) :   0.9817 B( 19-C , 20-C ) :   1.6149 B( 19-C , 22-C ) :   1.0323
B( 22-C , 23-H ) :   0.9376 B( 22-C , 24-H ) :   0.9275 B( 22-C , 25-C ) :   1.0673
B( 25-C , 26-H ) :   0.9395 B( 25-C , 27-H ) :   0.9592 B( 25-C , 28-C ) :   1.0977
B( 28-C , 29-H ) :   0.9669 B( 28-C , 30-H ) :   0.9691 B( 28-C , 31-H ) :   0.9715

Dispersion correction           -0.014505363
FINAL SINGLE POINT ENERGY     -1339.863678239622

DIPOLE MOMENT
-------------
                                X             Y             Z
Electronic contribution:      7.54398      25.54342      11.48852
Nuclear contribution   :     -7.63822     -25.99189     -11.83124
                        -----------------------------------------
Total Dipole Moment    :     -0.09424      -0.44847      -0.34272
                        -----------------------------------------
Magnitude (a.u.)       :      0.57225
Magnitude (Debye)      :      1.45454

Rotational constants in cm-1:     0.020088     0.008646     0.006842
Rotational constants in MHz :   602.219314   259.193857   205.131903

                             ****ORCA TERMINATED NORMALLY****
TOTAL RUN TIME: 0 days 0 hours 0 minutes 21 seconds 985 msec
