                         Program Version 4.2.1 -  RELEASE  -
|  1> ! wB97X-D3 SP def2-SVP
|  2> %pal
|  3> nprocs 24
|  4> end
|  5>
|  6> * xyz 0 1
|  7> S 	 -65.0182 	 -50.7789 	 -83.4831
|  8> C 	 -65.1714 	 -50.8224 	 -81.7393
|  9> C 	 -66.3566 	 -50.2059 	 -81.3529
| 10> C 	 -67.0246 	 -49.5835 	 -82.4676
| 11> C 	 -66.4006 	 -49.7318 	 -83.6975
| 12> H 	 -67.9473 	 -49.0427 	 -82.3754
| 13> C 	 -66.9989 	 -50.15 	 -79.9429
| 14> H 	 -67.4972 	 -49.1531 	 -79.6729
| 15> H 	 -66.2424 	 -50.2453 	 -79.138
| 16> C 	 -68.2158 	 -51.0491 	 -79.7946
| 17> H 	 -68.8342 	 -50.9634 	 -80.7378
| 18> H 	 -68.0005 	 -52.1672 	 -79.9093
| 19> C 	 -69.0205 	 -50.7541 	 -78.5775
| 20> H 	 -69.8929 	 -51.3508 	 -78.5013
| 21> H 	 -68.3962 	 -51.0068 	 -77.6871
| 22> H 	 -69.3621 	 -49.7559 	 -78.4003
| 23> S 	 -65.3952 	 -48.1891 	 -85.8044
| 24> C 	 -66.5896 	 -47.6692 	 -86.9547
| 25> C 	 -67.8478 	 -48.1282 	 -86.7726
| 26> C 	 -67.954 	 -49.0503 	 -85.6585
| 27> C 	 -66.7268 	 -49.0963 	 -84.9601
| 28> H 	 -68.618 	 -47.9492 	 -87.5787
| 29> C 	 -69.2717 	 -49.7825 	 -85.3126
| 30> H 	 -69.0157 	 -50.3544 	 -84.4615
| 31> H 	 -69.3982 	 -50.3783 	 -86.139
| 32> C 	 -70.4611 	 -48.8529 	 -85.0667
| 33> H 	 -69.9461 	 -48.0751 	 -84.4562
| 34> H 	 -71.2275 	 -49.3908 	 -84.5772
| 35> C 	 -71.0314 	 -48.1679 	 -86.3853
| 36> H 	 -70.4887 	 -47.2494 	 -86.7869
| 37> H 	 -72.124 	 -47.927 	 -86.1899
| 38> H 	 -71.2416 	 -48.912 	 -87.1795
| 39> H 	 -64.5243 	 -51.2045 	 -80.9881
| 40> H 	 -66.3571 	 -47.0565 	 -87.8119
| 41> *
| 42>
| 43>                          ****END OF INPUT****

CARTESIAN COORDINATES (ANGSTROEM)
---------------------------------
  S    -65.018200  -50.778900  -83.483100
  C    -65.171400  -50.822400  -81.739300
  C    -66.356600  -50.205900  -81.352900
  C    -67.024600  -49.583500  -82.467600
  C    -66.400600  -49.731800  -83.697500
  H    -67.947300  -49.042700  -82.375400
  C    -66.998900  -50.150000  -79.942900
  H    -67.497200  -49.153100  -79.672900
  H    -66.242400  -50.245300  -79.138000
  C    -68.215800  -51.049100  -79.794600
  H    -68.834200  -50.963400  -80.737800
  H    -68.000500  -52.167200  -79.909300
  C    -69.020500  -50.754100  -78.577500
  H    -69.892900  -51.350800  -78.501300
  H    -68.396200  -51.006800  -77.687100
  H    -69.362100  -49.755900  -78.400300
  S    -65.395200  -48.189100  -85.804400
  C    -66.589600  -47.669200  -86.954700
  C    -67.847800  -48.128200  -86.772600
  C    -67.954000  -49.050300  -85.658500
  C    -66.726800  -49.096300  -84.960100
  H    -68.618000  -47.949200  -87.578700
  C    -69.271700  -49.782500  -85.312600
  H    -69.015700  -50.354400  -84.461500
  H    -69.398200  -50.378300  -86.139000
  C    -70.461100  -48.852900  -85.066700
  H    -69.946100  -48.075100  -84.456200
  H    -71.227500  -49.390800  -84.577200
  C    -71.031400  -48.167900  -86.385300
  H    -70.488700  -47.249400  -86.786900
  H    -72.124000  -47.927000  -86.189900
  H    -71.241600  -48.912000  -87.179500
  H    -64.524300  -51.204500  -80.988100
  H    -66.357100  -47.056500  -87.811900

 Total Charge           Charge          ....    0
 Multiplicity           Mult            ....    1
 Number of Electrons    NEL             ....  134
 Basis Dimension        Dim             ....  322

ORBITAL ENERGIES
----------------

  NO   OCC          E(Eh)            E(eV)
   0   2.0000     -88.967408     -2420.9262
   1   2.0000     -88.965775     -2420.8818
   2   2.0000     -10.332721      -281.1676
   3   2.0000     -10.328490      -281.0525
   4   2.0000     -10.314486      -280.6714
   5   2.0000     -10.314224      -280.6643
   6   2.0000     -10.311106      -280.5795
   7   2.0000     -10.304761      -280.4068
   8   2.0000     -10.302509      -280.3455
   9   2.0000     -10.295700      -280.1602
  10   2.0000     -10.294925      -280.1392
  11   2.0000     -10.294718      -280.1335
  12   2.0000     -10.292681      -280.0781
  13   2.0000     -10.292279      -280.0672
  14   2.0000     -10.284620      -279.8587
  15   2.0000     -10.275247      -279.6037
  16   2.0000      -8.081520      -219.9093
  17   2.0000      -8.080314      -219.8765
  18   2.0000      -6.039997      -164.3567
  19   2.0000      -6.038952      -164.3282
  20   2.0000      -6.036386      -164.2584
  21   2.0000      -6.034768      -164.2144
  22   2.0000      -6.032061      -164.1407
  23   2.0000      -6.031021      -164.1124
  24   2.0000      -1.001623       -27.2556
  25   2.0000      -0.979803       -26.6618
  26   2.0000      -0.912885       -24.8409
  27   2.0000      -0.910217       -24.7683
  28   2.0000      -0.870321       -23.6826
  29   2.0000      -0.846767       -23.0417
  30   2.0000      -0.840118       -22.8608
  31   2.0000      -0.813196       -22.1282
  32   2.0000      -0.786321       -21.3969
  33   2.0000      -0.773922       -21.0595
  34   2.0000      -0.711192       -19.3525
  35   2.0000      -0.697261       -18.9734
  36   2.0000      -0.693644       -18.8750
  37   2.0000      -0.654077       -17.7983
  38   2.0000      -0.640882       -17.4393
  39   2.0000      -0.618770       -16.8376
  40   2.0000      -0.597610       -16.2618
  41   2.0000      -0.571862       -15.5612
  42   2.0000      -0.559240       -15.2177
  43   2.0000      -0.551271       -15.0008
  44   2.0000      -0.544476       -14.8159
  45   2.0000      -0.524636       -14.2761
  46   2.0000      -0.516507       -14.0549
  47   2.0000      -0.508030       -13.8242
  48   2.0000      -0.501777       -13.6541
  49   2.0000      -0.497383       -13.5345
  50   2.0000      -0.489635       -13.3236
  51   2.0000      -0.483539       -13.1578
  52   2.0000      -0.472836       -12.8665
  53   2.0000      -0.462772       -12.5927
  54   2.0000      -0.454369       -12.3640
  55   2.0000      -0.451160       -12.2767
  56   2.0000      -0.444085       -12.0842
  57   2.0000      -0.437269       -11.8987
  58   2.0000      -0.432340       -11.7646
  59   2.0000      -0.425494       -11.5783
  60   2.0000      -0.421040       -11.4571
  61   2.0000      -0.419835       -11.4243
  62   2.0000      -0.401509       -10.9256
  63   2.0000      -0.344549        -9.3756
  64   2.0000      -0.333582        -9.0772
  65   2.0000      -0.327383        -8.9085
  66   2.0000      -0.293064        -7.9747
  67   0.0000       0.027803         0.7566
  68   0.0000       0.070729         1.9246
  69   0.0000       0.108809         2.9609
  70   0.0000       0.122348         3.3293
  71   0.0000       0.128738         3.5031

MULLIKEN ATOMIC CHARGES
-----------------------
   0 S :    0.109964
   1 C :   -0.098298
   2 C :   -0.079692
   3 C :    0.037793
   4 C :   -0.163997
   5 H :    0.002604
   6 C :    0.033608
   7 H :    0.030563
   8 H :    0.027344
   9 C :   -0.103106
  10 H :    0.026098
  11 H :    0.033981
  12 C :   -0.018508
  13 H :    0.024984
  14 H :    0.028423
  15 H :    0.025616
  16 S :    0.112803
  17 C :   -0.070779
  18 C :   -0.060401
  19 C :   -0.090624
  20 C :   -0.166294
  21 H :    0.045836
  22 C :    0.155154
  23 H :    0.014013
  24 H :    0.013218
  25 C :   -0.056031
  26 H :    0.048084
  27 H :    0.034447
  28 C :   -0.118132
  29 H :    0.070432
  30 H :    0.035818
  31 H :    0.031677
  32 H :    0.034371
  33 H :    0.049029
Sum of atomic charges:   -0.0000000

LOEWDIN ATOMIC CHARGES
----------------------
   0 S :    0.405367
   1 C :   -0.195765
   2 C :   -0.061432
   3 C :   -0.061195
   4 C :   -0.200675
   5 H :    0.025623
   6 C :   -0.038640
   7 H :    0.038434
   8 H :    0.028162
   9 C :   -0.057095
  10 H :    0.026405
  11 H :    0.030565
  12 C :   -0.067396
  13 H :    0.024380
  14 H :    0.031767
  15 H :    0.021582
  16 S :    0.381862
  17 C :   -0.178375
  18 C :   -0.088265
  19 C :   -0.036866
  20 C :   -0.186802
  21 H :    0.043934
  22 C :   -0.018140
  23 H :    0.025881
  24 H :    0.019981
  25 C :   -0.032353
  26 H :    0.035382
  27 H :    0.022361
  28 C :   -0.088704
  29 H :    0.036362
  30 H :    0.033888
  31 H :    0.025300
  32 H :    0.027235
  33 H :    0.027236

  Mayer bond orders larger than 0.100000
B(  0-S ,  1-C ) :   1.1318 B(  0-S ,  4-C ) :   1.1454 B(  1-C ,  2-C ) :   1.6160
B(  1-C , 32-H ) :   0.9706 B(  2-C ,  3-C ) :   1.2451 B(  2-C ,  6-C ) :   1.0230
B(  3-C ,  4-C ) :   1.5624 B(  3-C ,  5-H ) :   0.9963 B(  4-C , 20-C ) :   1.0562
B(  6-C ,  7-H ) :   0.9479 B(  6-C ,  8-H ) :   0.9451 B(  6-C ,  9-C ) :   1.0420
B(  9-C , 10-H ) :   0.9534 B(  9-C , 11-H ) :   0.9462 B(  9-C , 12-C ) :   1.0891
B( 12-C , 13-H ) :   0.9691 B( 12-C , 14-H ) :   0.9697 B( 12-C , 15-H ) :   0.9713
B( 16-S , 17-C ) :   1.1415 B( 16-S , 20-C ) :   1.1157 B( 17-C , 18-C ) :   1.6699
B( 17-C , 33-H ) :   0.9578 B( 18-C , 19-C ) :   1.2069 B( 18-C , 21-H ) :   0.9659
B( 19-C , 20-C ) :   1.6151 B( 19-C , 22-C ) :   1.0279 B( 22-C , 23-H ) :   0.9254
B( 22-C , 24-H ) :   0.9271 B( 22-C , 25-C ) :   1.0612 B( 25-C , 26-H ) :   0.9592
B( 25-C , 27-H ) :   0.9589 B( 25-C , 28-C ) :   1.0663 B( 28-C , 29-H ) :   0.9682
B( 28-C , 30-H ) :   0.9711 B( 28-C , 31-H ) :   0.9734

Dispersion correction           -0.014112919
FINAL SINGLE POINT ENERGY     -1339.860825663308

DIPOLE MOMENT
-------------
                                X             Y             Z
Electronic contribution:     26.95162       1.07420     -13.63972
Nuclear contribution   :    -27.71871      -1.06348      13.79914
                        -----------------------------------------
Total Dipole Moment    :     -0.76708       0.01072       0.15942
                        -----------------------------------------
Magnitude (a.u.)       :      0.78355
Magnitude (Debye)      :      1.99162

Rotational constants in cm-1:     0.017741     0.008680     0.006217
Rotational constants in MHz :   531.861932   260.229390   186.379701

                             ****ORCA TERMINATED NORMALLY****
TOTAL RUN TIME: 0 days 0 hours 0 minutes 21 seconds 383 msec
