                         Program Version 4.2.1 -  RELEASE  -
|  1> ! wB97X-D3 SP def2-SVP
|  2> %pal
|  3> nprocs 24
|  4> end
|  5>
|  6> * xyz 0 1
|  7> S 	 -119.574 	 66.073 	 -64.9276
|  8> C 	 -119.628 	 64.4748 	 -65.5891
|  9> C 	 -119.31 	 63.5169 	 -64.6207
| 10> C 	 -118.901 	 64.0294 	 -63.3848
| 11> C 	 -119.055 	 65.4008 	 -63.3657
| 12> H 	 -118.664 	 63.5509 	 -62.4214
| 13> C 	 -119.421 	 62.0297 	 -64.7756
| 14> H 	 -119.257 	 61.6148 	 -63.7681
| 15> H 	 -118.654 	 61.6344 	 -65.3769
| 16> C 	 -120.762 	 61.4862 	 -65.369
| 17> H 	 -121.548 	 62.0993 	 -64.9585
| 18> H 	 -120.866 	 61.4947 	 -66.4263
| 19> C 	 -121.071 	 60.0336 	 -65.0167
| 20> H 	 -122.017 	 59.8203 	 -65.4398
| 21> H 	 -120.324 	 59.3687 	 -65.5037
| 22> H 	 -121.175 	 59.7331 	 -63.9838
| 23> S 	 -116.972 	 66.3047 	 -61.8379
| 24> C 	 -117.334 	 66.8827 	 -60.2098
| 25> C 	 -118.683 	 67.0876 	 -60.033
| 26> C 	 -119.466 	 66.6607 	 -61.1499
| 27> C 	 -118.689 	 66.2011 	 -62.2128
| 28> H 	 -119.154 	 67.652 	 -59.251
| 29> C 	 -120.983 	 66.7238 	 -61.1116
| 30> H 	 -121.408 	 66.8009 	 -62.0975
| 31> H 	 -121.292 	 67.5736 	 -60.5866
| 32> C 	 -121.738 	 65.4933 	 -60.5353
| 33> H 	 -121.29 	 64.5866 	 -60.9488
| 34> H 	 -122.799 	 65.5706 	 -60.7922
| 35> C 	 -121.548 	 65.2679 	 -59.0712
| 36> H 	 -121.74 	 66.2094 	 -58.5639
| 37> H 	 -120.408 	 65.2572 	 -58.8277
| 38> H 	 -121.898 	 64.3718 	 -58.69
| 39> H 	 -119.952 	 64.1145 	 -66.5264
| 40> H 	 -116.668 	 67.2684 	 -59.4234
| 41> *
| 42>
| 43>                          ****END OF INPUT****

CARTESIAN COORDINATES (ANGSTROEM)
---------------------------------
  S    -119.574000   66.073000  -64.927600
  C    -119.628000   64.474800  -65.589100
  C    -119.310000   63.516900  -64.620700
  C    -118.901000   64.029400  -63.384800
  C    -119.055000   65.400800  -63.365700
  H    -118.664000   63.550900  -62.421400
  C    -119.421000   62.029700  -64.775600
  H    -119.257000   61.614800  -63.768100
  H    -118.654000   61.634400  -65.376900
  C    -120.762000   61.486200  -65.369000
  H    -121.548000   62.099300  -64.958500
  H    -120.866000   61.494700  -66.426300
  C    -121.071000   60.033600  -65.016700
  H    -122.017000   59.820300  -65.439800
  H    -120.324000   59.368700  -65.503700
  H    -121.175000   59.733100  -63.983800
  S    -116.972000   66.304700  -61.837900
  C    -117.334000   66.882700  -60.209800
  C    -118.683000   67.087600  -60.033000
  C    -119.466000   66.660700  -61.149900
  C    -118.689000   66.201100  -62.212800
  H    -119.154000   67.652000  -59.251000
  C    -120.983000   66.723800  -61.111600
  H    -121.408000   66.800900  -62.097500
  H    -121.292000   67.573600  -60.586600
  C    -121.738000   65.493300  -60.535300
  H    -121.290000   64.586600  -60.948800
  H    -122.799000   65.570600  -60.792200
  C    -121.548000   65.267900  -59.071200
  H    -121.740000   66.209400  -58.563900
  H    -120.408000   65.257200  -58.827700
  H    -121.898000   64.371800  -58.690000
  H    -119.952000   64.114500  -66.526400
  H    -116.668000   67.268400  -59.423400

 Total Charge           Charge          ....    0
 Multiplicity           Mult            ....    1
 Number of Electrons    NEL             ....  134
 Basis Dimension        Dim             ....  322

ORBITAL ENERGIES
----------------

  NO   OCC          E(Eh)            E(eV)
   0   2.0000     -88.972489     -2421.0645
   1   2.0000     -88.968961     -2420.9685
   2   2.0000     -10.326849      -281.0079
   3   2.0000     -10.324234      -280.9367
   4   2.0000     -10.320627      -280.8385
   5   2.0000     -10.309163      -280.5266
   6   2.0000     -10.302790      -280.3532
   7   2.0000     -10.296234      -280.1748
   8   2.0000     -10.292614      -280.0763
   9   2.0000     -10.291952      -280.0582
  10   2.0000     -10.285994      -279.8961
  11   2.0000     -10.285094      -279.8716
  12   2.0000     -10.283099      -279.8174
  13   2.0000     -10.281445      -279.7723
  14   2.0000     -10.274289      -279.5776
  15   2.0000     -10.270927      -279.4861
  16   2.0000      -8.086334      -220.0403
  17   2.0000      -8.082948      -219.9482
  18   2.0000      -6.044785      -164.4870
  19   2.0000      -6.041602      -164.4003
  20   2.0000      -6.040954      -164.3827
  21   2.0000      -6.037505      -164.2889
  22   2.0000      -6.037228      -164.2813
  23   2.0000      -6.033641      -164.1837
  24   2.0000      -1.006137       -27.3784
  25   2.0000      -0.983434       -26.7606
  26   2.0000      -0.910334       -24.7715
  27   2.0000      -0.909145       -24.7391
  28   2.0000      -0.870824       -23.6963
  29   2.0000      -0.857570       -23.3357
  30   2.0000      -0.848870       -23.0989
  31   2.0000      -0.814817       -22.1723
  32   2.0000      -0.784441       -21.3457
  33   2.0000      -0.769640       -20.9430
  34   2.0000      -0.711799       -19.3690
  35   2.0000      -0.701509       -19.0890
  36   2.0000      -0.685730       -18.6597
  37   2.0000      -0.663786       -18.0625
  38   2.0000      -0.643017       -17.4974
  39   2.0000      -0.612356       -16.6631
  40   2.0000      -0.596786       -16.2394
  41   2.0000      -0.570076       -15.5126
  42   2.0000      -0.566050       -15.4030
  43   2.0000      -0.556759       -15.1502
  44   2.0000      -0.544955       -14.8290
  45   2.0000      -0.525721       -14.3056
  46   2.0000      -0.520291       -14.1579
  47   2.0000      -0.517569       -14.0838
  48   2.0000      -0.503490       -13.7007
  49   2.0000      -0.494882       -13.4664
  50   2.0000      -0.489949       -13.3322
  51   2.0000      -0.478154       -13.0112
  52   2.0000      -0.474098       -12.9009
  53   2.0000      -0.465829       -12.6758
  54   2.0000      -0.458717       -12.4823
  55   2.0000      -0.449577       -12.2336
  56   2.0000      -0.437540       -11.9061
  57   2.0000      -0.434913       -11.8346
  58   2.0000      -0.430227       -11.7071
  59   2.0000      -0.424461       -11.5502
  60   2.0000      -0.423376       -11.5206
  61   2.0000      -0.421633       -11.4732
  62   2.0000      -0.405079       -11.0228
  63   2.0000      -0.343254        -9.3404
  64   2.0000      -0.330566        -8.9952
  65   2.0000      -0.322183        -8.7671
  66   2.0000      -0.301459        -8.2031
  67   0.0000       0.038234         1.0404
  68   0.0000       0.052302         1.4232
  69   0.0000       0.107262         2.9188
  70   0.0000       0.116797         3.1782
  71   0.0000       0.127975         3.4824

MULLIKEN ATOMIC CHARGES
-----------------------
   0 S :    0.132483
   1 C :   -0.078984
   2 C :   -0.102666
   3 C :    0.024610
   4 C :   -0.179705
   5 H :    0.038580
   6 C :    0.106385
   7 H :    0.017058
   8 H :    0.024721
   9 C :   -0.082604
  10 H :    0.027727
  11 H :    0.025400
  12 C :   -0.050740
  13 H :    0.018984
  14 H :    0.030572
  15 H :    0.030369
  16 S :    0.123418
  17 C :   -0.091374
  18 C :   -0.027788
  19 C :   -0.036061
  20 C :   -0.195181
  21 H :    0.015861
  22 C :    0.100690
  23 H :    0.016561
  24 H :    0.006045
  25 C :   -0.063867
  26 H :    0.023019
  27 H :    0.037110
  28 C :   -0.040407
  29 H :    0.009950
  30 H :    0.023348
  31 H :    0.030387
  32 H :    0.021117
  33 H :    0.064981
Sum of atomic charges:    0.0000000

LOEWDIN ATOMIC CHARGES
----------------------
   0 S :    0.414843
   1 C :   -0.205619
   2 C :   -0.062507
   3 C :   -0.059389
   4 C :   -0.192942
   5 H :    0.043396
   6 C :   -0.029162
   7 H :    0.033095
   8 H :    0.026272
   9 C :   -0.037365
  10 H :    0.022268
  11 H :    0.020762
  12 C :   -0.063420
  13 H :    0.022026
  14 H :    0.026905
  15 H :    0.021162
  16 S :    0.408109
  17 C :   -0.188419
  18 C :   -0.073522
  19 C :   -0.049437
  20 C :   -0.203651
  21 H :    0.029054
  22 C :   -0.023943
  23 H :    0.030823
  24 H :    0.020332
  25 C :   -0.037274
  26 H :    0.025658
  27 H :    0.025053
  28 C :   -0.071892
  29 H :    0.018741
  30 H :    0.034901
  31 H :    0.015534
  32 H :    0.021299
  33 H :    0.038310

  Mayer bond orders larger than 0.100000
B(  0-S ,  1-C ) :   1.1375 B(  0-S ,  4-C ) :   1.1554 B(  1-C ,  2-C ) :   1.5994
B(  1-C ,  4-C ) :   0.1013 B(  1-C , 32-H ) :   0.9710 B(  2-C ,  3-C ) :   1.2523
B(  2-C ,  6-C ) :   1.0301 B(  3-C ,  4-C ) :   1.5748 B(  3-C ,  5-H ) :   0.9861
B(  4-C , 20-C ) :   1.0104 B(  6-C ,  7-H ) :   0.9470 B(  6-C ,  8-H ) :   0.9235
B(  6-C ,  9-C ) :   1.0556 B(  9-C , 10-H ) :   0.9627 B(  9-C , 11-H ) :   0.9515
B(  9-C , 12-C ) :   1.0945 B( 12-C , 13-H ) :   0.9727 B( 12-C , 14-H ) :   0.9746
B( 12-C , 15-H ) :   0.9763 B( 16-S , 17-C ) :   1.1521 B( 16-S , 20-C ) :   1.1394
B( 17-C , 18-C ) :   1.6080 B( 17-C , 33-H ) :   0.9581 B( 18-C , 19-C ) :   1.2588
B( 18-C , 21-H ) :   0.9798 B( 19-C , 20-C ) :   1.6052 B( 19-C , 22-C ) :   1.0486
B( 22-C , 23-H ) :   0.9287 B( 22-C , 24-H ) :   0.9344 B( 22-C , 25-C ) :   1.0707
B( 25-C , 26-H ) :   0.9520 B( 25-C , 27-H ) :   0.9556 B( 25-C , 28-C ) :   1.0854
B( 28-C , 29-H ) :   0.9700 B( 28-C , 30-H ) :   0.9650 B( 28-C , 31-H ) :   0.9733

Dispersion correction           -0.014709201
FINAL SINGLE POINT ENERGY     -1339.863083928926

DIPOLE MOMENT
-------------
                                X             Y             Z
Electronic contribution:     17.85288      19.55976      -6.04729
Nuclear contribution   :    -18.22841     -19.91047       6.25238
                        -----------------------------------------
Total Dipole Moment    :     -0.37553      -0.35071       0.20509
                        -----------------------------------------
Magnitude (a.u.)       :      0.55325
Magnitude (Debye)      :      1.40624

Rotational constants in cm-1:     0.018993     0.008205     0.007011
Rotational constants in MHz :   569.388671   245.994553   210.185705

                             ****ORCA TERMINATED NORMALLY****
TOTAL RUN TIME: 0 days 0 hours 0 minutes 20 seconds 847 msec
