                         Program Version 4.2.1 -  RELEASE  -
|  1> ! wB97X-D3 SP def2-SVP
|  2> %pal
|  3> nprocs 24
|  4> end
|  5>
|  6> * xyz 0 1
|  7> S 	 38.6856 	 -26.5209 	 -125.413
|  8> C 	 38.3363 	 -24.8288 	 -125.546
|  9> C 	 39.4806 	 -24.0853 	 -125.914
| 10> C 	 40.672 	 -24.9338 	 -125.93
| 11> C 	 40.3305 	 -26.283 	 -125.744
| 12> H 	 41.6517 	 -24.713 	 -126.246
| 13> C 	 39.5562 	 -22.6166 	 -126.194
| 14> H 	 38.5998 	 -22.175 	 -126.306
| 15> H 	 40.1074 	 -22.5281 	 -127.157
| 16> C 	 40.3444 	 -21.8327 	 -125.107
| 17> H 	 41.4058 	 -22.2494 	 -124.983
| 18> H 	 40.4258 	 -20.8304 	 -125.435
| 19> C 	 39.5226 	 -21.9515 	 -123.756
| 20> H 	 38.5314 	 -21.622 	 -123.94
| 21> H 	 39.6182 	 -23.0141 	 -123.384
| 22> H 	 40.0928 	 -21.3253 	 -123.096
| 23> S 	 41.0574 	 -28.5068 	 -127.201
| 24> C 	 42.2827 	 -29.5711 	 -126.583
| 25> C 	 42.5969 	 -29.23 	 -125.27
| 26> C 	 42.0512 	 -28.0102 	 -124.809
| 27> C 	 41.2525 	 -27.4332 	 -125.85
| 28> H 	 43.2191 	 -29.8757 	 -124.617
| 29> C 	 42.2962 	 -27.3834 	 -123.444
| 30> H 	 41.9024 	 -26.3872 	 -123.592
| 31> H 	 43.3301 	 -27.123 	 -123.303
| 32> C 	 41.6554 	 -28.0098 	 -122.18
| 33> H 	 42.4043 	 -28.355 	 -121.563
| 34> H 	 41.0465 	 -28.8319 	 -122.535
| 35> C 	 40.9281 	 -26.9135 	 -121.406
| 36> H 	 40.3392 	 -26.1896 	 -121.975
| 37> H 	 41.695 	 -26.1715 	 -121.036
| 38> H 	 40.4052 	 -27.3423 	 -120.571
| 39> H 	 37.4443 	 -24.3636 	 -125.246
| 40> H 	 42.7036 	 -30.39 	 -127.193
| 41> *
| 42>
| 43>                          ****END OF INPUT****

CARTESIAN COORDINATES (ANGSTROEM)
---------------------------------
  S     38.685600  -26.520900  -125.413000
  C     38.336300  -24.828800  -125.546000
  C     39.480600  -24.085300  -125.914000
  C     40.672000  -24.933800  -125.930000
  C     40.330500  -26.283000  -125.744000
  H     41.651700  -24.713000  -126.246000
  C     39.556200  -22.616600  -126.194000
  H     38.599800  -22.175000  -126.306000
  H     40.107400  -22.528100  -127.157000
  C     40.344400  -21.832700  -125.107000
  H     41.405800  -22.249400  -124.983000
  H     40.425800  -20.830400  -125.435000
  C     39.522600  -21.951500  -123.756000
  H     38.531400  -21.622000  -123.940000
  H     39.618200  -23.014100  -123.384000
  H     40.092800  -21.325300  -123.096000
  S     41.057400  -28.506800  -127.201000
  C     42.282700  -29.571100  -126.583000
  C     42.596900  -29.230000  -125.270000
  C     42.051200  -28.010200  -124.809000
  C     41.252500  -27.433200  -125.850000
  H     43.219100  -29.875700  -124.617000
  C     42.296200  -27.383400  -123.444000
  H     41.902400  -26.387200  -123.592000
  H     43.330100  -27.123000  -123.303000
  C     41.655400  -28.009800  -122.180000
  H     42.404300  -28.355000  -121.563000
  H     41.046500  -28.831900  -122.535000
  C     40.928100  -26.913500  -121.406000
  H     40.339200  -26.189600  -121.975000
  H     41.695000  -26.171500  -121.036000
  H     40.405200  -27.342300  -120.571000
  H     37.444300  -24.363600  -125.246000
  H     42.703600  -30.390000  -127.193000

 Total Charge           Charge          ....    0
 Multiplicity           Mult            ....    1
 Number of Electrons    NEL             ....  134
 Basis Dimension        Dim             ....  322

ORBITAL ENERGIES
----------------

  NO   OCC          E(Eh)            E(eV)
   0   2.0000     -88.967404     -2420.9261
   1   2.0000     -88.966709     -2420.9072
   2   2.0000     -10.326226      -280.9909
   3   2.0000     -10.325359      -280.9673
   4   2.0000     -10.319268      -280.8016
   5   2.0000     -10.309023      -280.5228
   6   2.0000     -10.305760      -280.4340
   7   2.0000     -10.305218      -280.4192
   8   2.0000     -10.295130      -280.1447
   9   2.0000     -10.293132      -280.0904
  10   2.0000     -10.291299      -280.0405
  11   2.0000     -10.289184      -279.9829
  12   2.0000     -10.284126      -279.8453
  13   2.0000     -10.279431      -279.7176
  14   2.0000     -10.278441      -279.6906
  15   2.0000     -10.276963      -279.6504
  16   2.0000      -8.082451      -219.9347
  17   2.0000      -8.082401      -219.9333
  18   2.0000      -6.040787      -164.3782
  19   2.0000      -6.040728      -164.3766
  20   2.0000      -6.036895      -164.2723
  21   2.0000      -6.036622      -164.2648
  22   2.0000      -6.033455      -164.1787
  23   2.0000      -6.033405      -164.1773
  24   2.0000      -1.006375       -27.3849
  25   2.0000      -0.983077       -26.7509
  26   2.0000      -0.910947       -24.7881
  27   2.0000      -0.908866       -24.7315
  28   2.0000      -0.861270       -23.4363
  29   2.0000      -0.851516       -23.1709
  30   2.0000      -0.843093       -22.9417
  31   2.0000      -0.808037       -21.9878
  32   2.0000      -0.780832       -21.2475
  33   2.0000      -0.768364       -20.9083
  34   2.0000      -0.708887       -19.2898
  35   2.0000      -0.700268       -19.0553
  36   2.0000      -0.689739       -18.7688
  37   2.0000      -0.650931       -17.7127
  38   2.0000      -0.644521       -17.5383
  39   2.0000      -0.617837       -16.8122
  40   2.0000      -0.599495       -16.3131
  41   2.0000      -0.564833       -15.3699
  42   2.0000      -0.563018       -15.3205
  43   2.0000      -0.547922       -14.9097
  44   2.0000      -0.540129       -14.6977
  45   2.0000      -0.528821       -14.3900
  46   2.0000      -0.519066       -14.1245
  47   2.0000      -0.517813       -14.0904
  48   2.0000      -0.495406       -13.4807
  49   2.0000      -0.494696       -13.4614
  50   2.0000      -0.486383       -13.2351
  51   2.0000      -0.479501       -13.0479
  52   2.0000      -0.471283       -12.8243
  53   2.0000      -0.463698       -12.6179
  54   2.0000      -0.454685       -12.3726
  55   2.0000      -0.449332       -12.2270
  56   2.0000      -0.444401       -12.0928
  57   2.0000      -0.434859       -11.8331
  58   2.0000      -0.430158       -11.7052
  59   2.0000      -0.423926       -11.5356
  60   2.0000      -0.421088       -11.4584
  61   2.0000      -0.416803       -11.3418
  62   2.0000      -0.415045       -11.2940
  63   2.0000      -0.336521        -9.1572
  64   2.0000      -0.326702        -8.8900
  65   2.0000      -0.323436        -8.8011
  66   2.0000      -0.298247        -8.1157
  67   0.0000       0.043765         1.1909
  68   0.0000       0.054025         1.4701
  69   0.0000       0.113029         3.0757
  70   0.0000       0.118450         3.2232
  71   0.0000       0.128303         3.4913

MULLIKEN ATOMIC CHARGES
-----------------------
   0 S :    0.136958
   1 C :   -0.105504
   2 C :   -0.107821
   3 C :    0.057563
   4 C :   -0.189155
   5 H :   -0.000769
   6 C :    0.074687
   7 H :    0.009917
   8 H :    0.039413
   9 C :   -0.107482
  10 H :    0.043321
  11 H :    0.026833
  12 C :   -0.050538
  13 H :    0.030326
  14 H :    0.062331
  15 H :    0.031393
  16 S :    0.122929
  17 C :   -0.113902
  18 C :   -0.030139
  19 C :   -0.048912
  20 C :   -0.189968
  21 H :    0.025126
  22 C :    0.076184
  23 H :    0.002268
  24 H :    0.025811
  25 C :    0.011048
  26 H :    0.013833
  27 H :    0.037100
  28 C :   -0.087184
  29 H :    0.039055
  30 H :    0.025164
  31 H :    0.038228
  32 H :    0.028269
  33 H :    0.073617
Sum of atomic charges:   -0.0000000

LOEWDIN ATOMIC CHARGES
----------------------
   0 S :    0.442766
   1 C :   -0.211060
   2 C :   -0.051114
   3 C :   -0.060770
   4 C :   -0.216246
   5 H :    0.023695
   6 C :   -0.035078
   7 H :    0.021381
   8 H :    0.037556
   9 C :   -0.035423
  10 H :    0.029378
  11 H :    0.014537
  12 C :   -0.060315
  13 H :    0.017653
  14 H :    0.036919
  15 H :    0.022448
  16 S :    0.427402
  17 C :   -0.198818
  18 C :   -0.076021
  19 C :   -0.051537
  20 C :   -0.216531
  21 H :    0.034451
  22 C :   -0.034045
  23 H :    0.029549
  24 H :    0.030616
  25 C :   -0.028310
  26 H :    0.016890
  27 H :    0.026212
  28 C :   -0.066355
  29 H :    0.024681
  30 H :    0.030800
  31 H :    0.022419
  32 H :    0.016584
  33 H :    0.035687

  Mayer bond orders larger than 0.100000
B(  0-S ,  1-C ) :   1.1429 B(  0-S ,  4-C ) :   1.1912 B(  1-C ,  2-C ) :   1.5880
B(  1-C , 32-H ) :   0.9749 B(  2-C ,  3-C ) :   1.2311 B(  2-C ,  6-C ) :   1.0387
B(  3-C ,  4-C ) :   1.5666 B(  3-C ,  5-H ) :   0.9940 B(  4-C , 20-C ) :   0.9997
B(  6-C ,  7-H ) :   0.9431 B(  6-C ,  8-H ) :   0.9342 B(  6-C ,  9-C ) :   1.0708
B(  9-C , 10-H ) :   0.9565 B(  9-C , 11-H ) :   0.9598 B(  9-C , 12-C ) :   1.0594
B( 12-C , 13-H ) :   0.9780 B( 12-C , 14-H ) :   0.9738 B( 12-C , 15-H ) :   0.9757
B( 16-S , 17-C ) :   1.1698 B( 16-S , 20-C ) :   1.1820 B( 17-C , 18-C ) :   1.5568
B( 17-C , 20-C ) :   0.1123 B( 17-C , 33-H ) :   0.9688 B( 18-C , 19-C ) :   1.2892
B( 18-C , 21-H ) :   0.9870 B( 19-C , 20-C ) :   1.5335 B( 19-C , 22-C ) :   1.0492
B( 22-C , 23-H ) :   0.9295 B( 22-C , 24-H ) :   0.9278 B( 22-C , 25-C ) :   1.0346
B( 25-C , 26-H ) :   0.9495 B( 25-C , 27-H ) :   0.9661 B( 25-C , 28-C ) :   1.0840
B( 28-C , 29-H ) :   0.9777 B( 28-C , 30-H ) :   0.9733 B( 28-C , 31-H ) :   0.9748

Dispersion correction           -0.015237812
FINAL SINGLE POINT ENERGY     -1339.868152778691

DIPOLE MOMENT
-------------
                                X             Y             Z
Electronic contribution:     -4.14374     -18.18215     -19.08176
Nuclear contribution   :      4.42447      18.50333      19.39072
                        -----------------------------------------
Total Dipole Moment    :      0.28073       0.32118       0.30896
                        -----------------------------------------
Magnitude (a.u.)       :      0.52671
Magnitude (Debye)      :      1.33878

Rotational constants in cm-1:     0.019368     0.009198     0.007451
Rotational constants in MHz :   580.633638   275.739057   223.377477

                             ****ORCA TERMINATED NORMALLY****
TOTAL RUN TIME: 0 days 0 hours 0 minutes 22 seconds 197 msec
