                         Program Version 4.2.1 -  RELEASE  -
|  1> ! wB97X-D3 SP def2-SVP
|  2> %pal
|  3> nprocs 24
|  4> end
|  5>
|  6> * xyz 0 1
|  7> S 	 -41.217 	 -2.39915 	 -17.5106
|  8> C 	 -42.719 	 -3.24999 	 -17.8234
|  9> C 	 -42.5699 	 -4.61634 	 -17.6357
| 10> C 	 -41.2869 	 -4.99144 	 -17.2284
| 11> C 	 -40.4915 	 -3.9182 	 -16.9628
| 12> H 	 -41.0162 	 -5.9986 	 -17.0552
| 13> C 	 -43.6521 	 -5.62934 	 -17.8126
| 14> H 	 -44.5331 	 -5.08372 	 -17.532
| 15> H 	 -43.5876 	 -6.47115 	 -17.127
| 16> C 	 -43.9009 	 -5.96763 	 -19.2874
| 17> H 	 -44.6627 	 -6.68662 	 -19.3619
| 18> H 	 -44.2333 	 -5.07767 	 -19.8142
| 19> C 	 -42.6224 	 -6.62103 	 -19.8076
| 20> H 	 -41.8522 	 -5.92978 	 -19.8772
| 21> H 	 -42.2878 	 -7.40865 	 -19.0491
| 22> H 	 -42.6874 	 -7.11625 	 -20.844
| 23> S 	 -37.9553 	 -3.33278 	 -17.7348
| 24> C 	 -36.7071 	 -3.2042 	 -16.5147
| 25> C 	 -36.9725 	 -3.99676 	 -15.4086
| 26> C 	 -38.3972 	 -4.39889 	 -15.3757
| 27> C 	 -39.073 	 -3.98558 	 -16.5359
| 28> H 	 -36.2014 	 -4.08388 	 -14.6333
| 29> C 	 -39.0686 	 -5.0112 	 -14.2478
| 30> H 	 -38.6393 	 -5.99602 	 -14.115
| 31> H 	 -40.0248 	 -5.38571 	 -14.6122
| 32> C 	 -39.1398 	 -4.23002 	 -12.9423
| 33> H 	 -39.5985 	 -3.28591 	 -13.194
| 34> H 	 -38.1113 	 -3.91486 	 -12.7025
| 35> C 	 -39.7878 	 -4.89019 	 -11.6846
| 36> H 	 -40.7801 	 -5.22013 	 -11.9282
| 37> H 	 -39.6756 	 -4.32796 	 -10.8106
| 38> H 	 -39.2981 	 -5.82807 	 -11.5439
| 39> H 	 -43.6201 	 -2.70906 	 -18.1941
| 40> H 	 -35.7052 	 -2.77821 	 -16.6533
| 41> *
| 42>
| 43>                          ****END OF INPUT****

CARTESIAN COORDINATES (ANGSTROEM)
---------------------------------
  S    -41.217000   -2.399150  -17.510600
  C    -42.719000   -3.249990  -17.823400
  C    -42.569900   -4.616340  -17.635700
  C    -41.286900   -4.991440  -17.228400
  C    -40.491500   -3.918200  -16.962800
  H    -41.016200   -5.998600  -17.055200
  C    -43.652100   -5.629340  -17.812600
  H    -44.533100   -5.083720  -17.532000
  H    -43.587600   -6.471150  -17.127000
  C    -43.900900   -5.967630  -19.287400
  H    -44.662700   -6.686620  -19.361900
  H    -44.233300   -5.077670  -19.814200
  C    -42.622400   -6.621030  -19.807600
  H    -41.852200   -5.929780  -19.877200
  H    -42.287800   -7.408650  -19.049100
  H    -42.687400   -7.116250  -20.844000
  S    -37.955300   -3.332780  -17.734800
  C    -36.707100   -3.204200  -16.514700
  C    -36.972500   -3.996760  -15.408600
  C    -38.397200   -4.398890  -15.375700
  C    -39.073000   -3.985580  -16.535900
  H    -36.201400   -4.083880  -14.633300
  C    -39.068600   -5.011200  -14.247800
  H    -38.639300   -5.996020  -14.115000
  H    -40.024800   -5.385710  -14.612200
  C    -39.139800   -4.230020  -12.942300
  H    -39.598500   -3.285910  -13.194000
  H    -38.111300   -3.914860  -12.702500
  C    -39.787800   -4.890190  -11.684600
  H    -40.780100   -5.220130  -11.928200
  H    -39.675600   -4.327960  -10.810600
  H    -39.298100   -5.828070  -11.543900
  H    -43.620100   -2.709060  -18.194100
  H    -35.705200   -2.778210  -16.653300

 Total Charge           Charge          ....    0
 Multiplicity           Mult            ....    1
 Number of Electrons    NEL             ....  134
 Basis Dimension        Dim             ....  322

ORBITAL ENERGIES
----------------

  NO   OCC          E(Eh)            E(eV)
   0   2.0000     -88.968202     -2420.9479
   1   2.0000     -88.960404     -2420.7356
   2   2.0000     -10.329530      -281.0808
   3   2.0000     -10.326188      -280.9899
   4   2.0000     -10.317867      -280.7634
   5   2.0000     -10.316802      -280.7344
   6   2.0000     -10.307446      -280.4799
   7   2.0000     -10.299253      -280.2569
   8   2.0000     -10.296085      -280.1707
   9   2.0000     -10.287446      -279.9356
  10   2.0000     -10.285860      -279.8925
  11   2.0000     -10.284567      -279.8573
  12   2.0000     -10.282604      -279.8039
  13   2.0000     -10.282166      -279.7920
  14   2.0000     -10.278382      -279.6890
  15   2.0000     -10.272670      -279.5336
  16   2.0000      -8.082434      -219.9342
  17   2.0000      -8.075241      -219.7385
  18   2.0000      -6.040919      -164.3818
  19   2.0000      -6.037071      -164.2770
  20   2.0000      -6.033808      -164.1883
  21   2.0000      -6.033184      -164.1713
  22   2.0000      -6.029877      -164.0813
  23   2.0000      -6.025788      -163.9700
  24   2.0000      -1.005361       -27.3573
  25   2.0000      -0.981572       -26.7099
  26   2.0000      -0.918360       -24.9899
  27   2.0000      -0.910285       -24.7701
  28   2.0000      -0.863644       -23.5009
  29   2.0000      -0.851795       -23.1785
  30   2.0000      -0.846727       -23.0406
  31   2.0000      -0.815245       -22.1839
  32   2.0000      -0.782464       -21.2919
  33   2.0000      -0.767938       -20.8967
  34   2.0000      -0.710295       -19.3281
  35   2.0000      -0.706047       -19.2125
  36   2.0000      -0.692905       -18.8549
  37   2.0000      -0.654983       -17.8230
  38   2.0000      -0.642125       -17.4731
  39   2.0000      -0.619591       -16.8599
  40   2.0000      -0.594439       -16.1755
  41   2.0000      -0.578583       -15.7440
  42   2.0000      -0.554832       -15.0978
  43   2.0000      -0.546977       -14.8840
  44   2.0000      -0.545868       -14.8538
  45   2.0000      -0.533554       -14.5187
  46   2.0000      -0.513404       -13.9704
  47   2.0000      -0.512453       -13.9446
  48   2.0000      -0.504912       -13.7393
  49   2.0000      -0.492729       -13.4078
  50   2.0000      -0.488499       -13.2927
  51   2.0000      -0.473782       -12.8923
  52   2.0000      -0.472156       -12.8480
  53   2.0000      -0.465529       -12.6677
  54   2.0000      -0.453411       -12.3379
  55   2.0000      -0.451074       -12.2744
  56   2.0000      -0.445865       -12.1326
  57   2.0000      -0.437670       -11.9096
  58   2.0000      -0.436342       -11.8735
  59   2.0000      -0.427497       -11.6328
  60   2.0000      -0.422672       -11.5015
  61   2.0000      -0.417833       -11.3698
  62   2.0000      -0.404106       -10.9963
  63   2.0000      -0.342495        -9.3198
  64   2.0000      -0.328698        -8.9443
  65   2.0000      -0.322892        -8.7863
  66   2.0000      -0.295400        -8.0382
  67   0.0000       0.030643         0.8339
  68   0.0000       0.064056         1.7430
  69   0.0000       0.102832         2.7982
  70   0.0000       0.117596         3.1999
  71   0.0000       0.135417         3.6849

MULLIKEN ATOMIC CHARGES
-----------------------
   0 S :    0.122130
   1 C :   -0.151843
   2 C :   -0.090849
   3 C :    0.062362
   4 C :   -0.145156
   5 H :   -0.000013
   6 C :    0.061960
   7 H :    0.011320
   8 H :    0.031412
   9 C :   -0.013616
  10 H :    0.016662
  11 H :    0.028458
  12 C :   -0.085421
  13 H :    0.035429
  14 H :    0.030666
  15 H :    0.044265
  16 S :    0.097901
  17 C :   -0.099848
  18 C :   -0.044332
  19 C :   -0.050464
  20 C :   -0.180045
  21 H :    0.032740
  22 C :    0.109370
  23 H :    0.009828
  24 H :   -0.007947
  25 C :   -0.082616
  26 H :    0.026774
  27 H :    0.017179
  28 C :    0.019905
  29 H :    0.022874
  30 H :    0.036363
  31 H :    0.008950
  32 H :    0.064071
  33 H :    0.061531
Sum of atomic charges:   -0.0000000

LOEWDIN ATOMIC CHARGES
----------------------
   0 S :    0.403989
   1 C :   -0.201279
   2 C :   -0.064621
   3 C :   -0.054344
   4 C :   -0.189519
   5 H :    0.027191
   6 C :   -0.030883
   7 H :    0.030101
   8 H :    0.029178
   9 C :   -0.028943
  10 H :    0.016344
  11 H :    0.024123
  12 C :   -0.068665
  13 H :    0.013384
  14 H :    0.030052
  15 H :    0.031560
  16 S :    0.387972
  17 C :   -0.185038
  18 C :   -0.072614
  19 C :   -0.049328
  20 C :   -0.191741
  21 H :    0.034759
  22 C :   -0.046185
  23 H :    0.032356
  24 H :    0.028295
  25 C :   -0.036662
  26 H :    0.023388
  27 H :    0.022342
  28 C :   -0.052823
  29 H :    0.025039
  30 H :    0.023052
  31 H :    0.022640
  32 H :    0.035136
  33 H :    0.031744

  Mayer bond orders larger than 0.100000
B(  0-S ,  1-C ) :   1.1420 B(  0-S ,  4-C ) :   1.1558 B(  1-C ,  2-C ) :   1.5921
B(  1-C , 32-H ) :   0.9636 B(  2-C ,  3-C ) :   1.2566 B(  2-C ,  6-C ) :   1.0154
B(  3-C ,  4-C ) :   1.5566 B(  3-C ,  5-H ) :   1.0017 B(  4-C , 20-C ) :   1.0179
B(  6-C ,  7-H ) :   0.9300 B(  6-C ,  8-H ) :   0.9491 B(  6-C ,  9-C ) :   1.0788
B(  9-C , 10-H ) :   0.9554 B(  9-C , 11-H ) :   0.9557 B(  9-C , 12-C ) :   1.0675
B( 12-C , 13-H ) :   0.9744 B( 12-C , 14-H ) :   0.9717 B( 12-C , 15-H ) :   0.9733
B( 16-S , 17-C ) :   1.1378 B( 16-S , 20-C ) :   1.1369 B( 17-C , 18-C ) :   1.6550
B( 17-C , 33-H ) :   0.9623 B( 18-C , 19-C ) :   1.1772 B( 18-C , 21-H ) :   0.9861
B( 19-C , 20-C ) :   1.6234 B( 19-C , 22-C ) :   1.0848 B( 22-C , 23-H ) :   0.9058
B( 22-C , 24-H ) :   0.9118 B( 22-C , 25-C ) :   1.0469 B( 25-C , 26-H ) :   0.9548
B( 25-C , 27-H ) :   0.9557 B( 25-C , 28-C ) :   1.0785 B( 28-C , 29-H ) :   0.9742
B( 28-C , 30-H ) :   0.9754 B( 28-C , 31-H ) :   0.9706

Dispersion correction           -0.014388673
FINAL SINGLE POINT ENERGY     -1339.863824046890

DIPOLE MOMENT
-------------
                                X             Y             Z
Electronic contribution:     10.78447      16.04596     -10.13374
Nuclear contribution   :    -11.02533     -16.46328      10.42639
                        -----------------------------------------
Total Dipole Moment    :     -0.24087      -0.41732       0.29265
                        -----------------------------------------
Magnitude (a.u.)       :      0.56375
Magnitude (Debye)      :      1.43295

Rotational constants in cm-1:     0.018597     0.008452     0.007026
Rotational constants in MHz :   557.531150   253.382498   210.620062

                             ****ORCA TERMINATED NORMALLY****
TOTAL RUN TIME: 0 days 0 hours 0 minutes 21 seconds 598 msec
