                         Program Version 4.2.1 -  RELEASE  -
|  1> ! wB97X-D3 SP def2-SVP
|  2> %pal
|  3> nprocs 24
|  4> end
|  5>
|  6> * xyz 0 1
|  7> S 	 -55.5887 	 2.77215 	 -33.1088
|  8> C 	 -55.8406 	 1.08038 	 -32.9351
|  9> C 	 -54.8912 	 0.358815 	 -33.6378
| 10> C 	 -53.995 	 1.14837 	 -34.3868
| 11> C 	 -54.2331 	 2.47953 	 -34.1954
| 12> H 	 -53.1904 	 0.875521 	 -35.127
| 13> C 	 -54.7946 	 -1.15994 	 -33.766
| 14> H 	 -54.712 	 -1.44108 	 -34.7658
| 15> H 	 -55.6834 	 -1.64059 	 -33.2522
| 16> C 	 -53.5581 	 -1.59898 	 -33.0349
| 17> H 	 -52.7595 	 -1.00081 	 -33.4475
| 18> H 	 -53.7047 	 -1.39777 	 -31.9508
| 19> C 	 -53.1349 	 -3.04389 	 -33.2462
| 20> H 	 -53.0084 	 -3.28877 	 -34.3127
| 21> H 	 -52.1509 	 -3.19664 	 -32.8214
| 22> H 	 -53.8975 	 -3.72385 	 -32.9179
| 23> S 	 -54.7176 	 4.748 	 -35.6866
| 24> C 	 -53.4144 	 5.66863 	 -36.3143
| 25> C 	 -52.1997 	 5.03444 	 -36.1855
| 26> C 	 -52.3181 	 3.87193 	 -35.3467
| 27> C 	 -53.6165 	 3.65584 	 -34.8805
| 28> H 	 -51.3786 	 5.41656 	 -36.7717
| 29> C 	 -50.9977 	 3.23724 	 -34.9138
| 30> H 	 -51.166 	 2.82741 	 -33.927
| 31> H 	 -50.4085 	 4.1264 	 -34.7748
| 32> C 	 -50.3949 	 2.24756 	 -35.9029
| 33> H 	 -50.3298 	 2.68188 	 -36.8838
| 34> H 	 -50.9794 	 1.3529 	 -36.0588
| 35> C 	 -49.0078 	 1.64677 	 -35.4396
| 36> H 	 -49.1477 	 1.09939 	 -34.5382
| 37> H 	 -48.2223 	 2.37202 	 -35.3755
| 38> H 	 -48.491 	 0.87491 	 -36.0409
| 39> H 	 -56.6643 	 0.679548 	 -32.3436
| 40> H 	 -53.6039 	 6.65209 	 -36.7413
| 41> *
| 42>
| 43>                          ****END OF INPUT****

CARTESIAN COORDINATES (ANGSTROEM)
---------------------------------
  S    -55.588700    2.772150  -33.108800
  C    -55.840600    1.080380  -32.935100
  C    -54.891200    0.358815  -33.637800
  C    -53.995000    1.148370  -34.386800
  C    -54.233100    2.479530  -34.195400
  H    -53.190400    0.875521  -35.127000
  C    -54.794600   -1.159940  -33.766000
  H    -54.712000   -1.441080  -34.765800
  H    -55.683400   -1.640590  -33.252200
  C    -53.558100   -1.598980  -33.034900
  H    -52.759500   -1.000810  -33.447500
  H    -53.704700   -1.397770  -31.950800
  C    -53.134900   -3.043890  -33.246200
  H    -53.008400   -3.288770  -34.312700
  H    -52.150900   -3.196640  -32.821400
  H    -53.897500   -3.723850  -32.917900
  S    -54.717600    4.748000  -35.686600
  C    -53.414400    5.668630  -36.314300
  C    -52.199700    5.034440  -36.185500
  C    -52.318100    3.871930  -35.346700
  C    -53.616500    3.655840  -34.880500
  H    -51.378600    5.416560  -36.771700
  C    -50.997700    3.237240  -34.913800
  H    -51.166000    2.827410  -33.927000
  H    -50.408500    4.126400  -34.774800
  C    -50.394900    2.247560  -35.902900
  H    -50.329800    2.681880  -36.883800
  H    -50.979400    1.352900  -36.058800
  C    -49.007800    1.646770  -35.439600
  H    -49.147700    1.099390  -34.538200
  H    -48.222300    2.372020  -35.375500
  H    -48.491000    0.874910  -36.040900
  H    -56.664300    0.679548  -32.343600
  H    -53.603900    6.652090  -36.741300

 Total Charge           Charge          ....    0
 Multiplicity           Mult            ....    1
 Number of Electrons    NEL             ....  134
 Basis Dimension        Dim             ....  322

ORBITAL ENERGIES
----------------

  NO   OCC          E(Eh)            E(eV)
   0   2.0000     -88.964694     -2420.8524
   1   2.0000     -88.961879     -2420.7758
   2   2.0000     -10.329622      -281.0833
   3   2.0000     -10.327121      -281.0152
   4   2.0000     -10.313826      -280.6535
   5   2.0000     -10.313551      -280.6460
   6   2.0000     -10.305382      -280.4237
   7   2.0000     -10.300389      -280.2878
   8   2.0000     -10.296450      -280.1807
   9   2.0000     -10.292655      -280.0774
  10   2.0000     -10.291827      -280.0548
  11   2.0000     -10.290915      -280.0300
  12   2.0000     -10.287465      -279.9362
  13   2.0000     -10.280815      -279.7552
  14   2.0000     -10.278217      -279.6845
  15   2.0000     -10.274512      -279.5837
  16   2.0000      -8.079979      -219.8674
  17   2.0000      -8.077667      -219.8045
  18   2.0000      -6.038304      -164.3106
  19   2.0000      -6.036023      -164.2485
  20   2.0000      -6.034454      -164.2058
  21   2.0000      -6.032085      -164.1414
  22   2.0000      -6.030852      -164.1078
  23   2.0000      -6.028455      -164.0426
  24   2.0000      -1.009455       -27.4687
  25   2.0000      -0.989389       -26.9226
  26   2.0000      -0.917847       -24.9759
  27   2.0000      -0.908681       -24.7265
  28   2.0000      -0.866674       -23.5834
  29   2.0000      -0.853583       -23.2272
  30   2.0000      -0.847995       -23.0751
  31   2.0000      -0.815380       -22.1876
  32   2.0000      -0.783911       -21.3313
  33   2.0000      -0.772380       -21.0175
  34   2.0000      -0.712930       -19.3998
  35   2.0000      -0.694584       -18.9006
  36   2.0000      -0.688768       -18.7423
  37   2.0000      -0.663591       -18.0572
  38   2.0000      -0.644204       -17.5297
  39   2.0000      -0.622004       -16.9256
  40   2.0000      -0.595003       -16.1909
  41   2.0000      -0.574322       -15.6281
  42   2.0000      -0.567293       -15.4368
  43   2.0000      -0.560001       -15.2384
  44   2.0000      -0.528691       -14.3864
  45   2.0000      -0.522483       -14.2175
  46   2.0000      -0.519368       -14.1327
  47   2.0000      -0.514495       -14.0001
  48   2.0000      -0.508177       -13.8282
  49   2.0000      -0.498296       -13.5593
  50   2.0000      -0.493087       -13.4176
  51   2.0000      -0.484174       -13.1750
  52   2.0000      -0.473391       -12.8816
  53   2.0000      -0.465044       -12.6545
  54   2.0000      -0.458717       -12.4823
  55   2.0000      -0.451918       -12.2973
  56   2.0000      -0.445461       -12.1216
  57   2.0000      -0.430671       -11.7191
  58   2.0000      -0.429212       -11.6794
  59   2.0000      -0.428223       -11.6525
  60   2.0000      -0.425041       -11.5659
  61   2.0000      -0.416620       -11.3368
  62   2.0000      -0.414986       -11.2923
  63   2.0000      -0.349273        -9.5042
  64   2.0000      -0.331331        -9.0160
  65   2.0000      -0.327927        -8.9233
  66   2.0000      -0.293135        -7.9766
  67   0.0000       0.030339         0.8256
  68   0.0000       0.077877         2.1191
  69   0.0000       0.109508         2.9799
  70   0.0000       0.121583         3.3085
  71   0.0000       0.125242         3.4080

MULLIKEN ATOMIC CHARGES
-----------------------
   0 S :    0.106857
   1 C :   -0.125301
   2 C :   -0.090060
   3 C :    0.011436
   4 C :   -0.164397
   5 H :    0.033835
   6 C :    0.113509
   7 H :    0.009194
   8 H :    0.023527
   9 C :   -0.124594
  10 H :    0.019802
  11 H :    0.037944
  12 C :   -0.007300
  13 H :    0.015701
  14 H :    0.036131
  15 H :    0.025780
  16 S :    0.103232
  17 C :   -0.102557
  18 C :   -0.035595
  19 C :   -0.064926
  20 C :   -0.117272
  21 H :    0.025938
  22 C :    0.076438
  23 H :    0.024633
  24 H :    0.027979
  25 C :   -0.047196
  26 H :    0.023015
  27 H :    0.025588
  28 C :   -0.054704
  29 H :    0.025503
  30 H :    0.025694
  31 H :    0.026860
  32 H :    0.052915
  33 H :    0.062393
Sum of atomic charges:   -0.0000000

LOEWDIN ATOMIC CHARGES
----------------------
   0 S :    0.410425
   1 C :   -0.208374
   2 C :   -0.061284
   3 C :   -0.070299
   4 C :   -0.186169
   5 H :    0.045532
   6 C :   -0.023929
   7 H :    0.019555
   8 H :    0.032450
   9 C :   -0.044739
  10 H :    0.019367
  11 H :    0.029684
  12 C :   -0.064845
  13 H :    0.023780
  14 H :    0.028008
  15 H :    0.020894
  16 S :    0.417208
  17 C :   -0.189561
  18 C :   -0.076558
  19 C :   -0.055622
  20 C :   -0.207369
  21 H :    0.034303
  22 C :   -0.026619
  23 H :    0.030563
  24 H :    0.033709
  25 C :   -0.034143
  26 H :    0.021843
  27 H :    0.022366
  28 C :   -0.070659
  29 H :    0.021665
  30 H :    0.019388
  31 H :    0.030076
  32 H :    0.030962
  33 H :    0.028393

  Mayer bond orders larger than 0.100000
B(  0-S ,  1-C ) :   1.1377 B(  0-S ,  4-C ) :   1.1652 B(  1-C ,  2-C ) :   1.6148
B(  1-C , 32-H ) :   0.9709 B(  2-C ,  3-C ) :   1.2237 B(  2-C ,  6-C ) :   1.0296
B(  3-C ,  4-C ) :   1.6028 B(  3-C ,  5-H ) :   0.9780 B(  4-C , 20-C ) :   1.0001
B(  6-C ,  7-H ) :   0.9360 B(  6-C ,  8-H ) :   0.9395 B(  6-C ,  9-C ) :   1.0688
B(  9-C , 10-H ) :   0.9577 B(  9-C , 11-H ) :   0.9520 B(  9-C , 12-C ) :   1.0906
B( 12-C , 13-H ) :   0.9702 B( 12-C , 14-H ) :   0.9723 B( 12-C , 15-H ) :   0.9716
B( 16-S , 17-C ) :   1.1741 B( 16-S , 20-C ) :   1.1456 B( 17-C , 18-C ) :   1.5990
B( 17-C , 33-H ) :   0.9666 B( 18-C , 19-C ) :   1.2342 B( 18-C , 21-H ) :   0.9952
B( 19-C , 20-C ) :   1.6049 B( 19-C , 22-C ) :   1.0238 B( 22-C , 23-H ) :   0.9416
B( 22-C , 24-H ) :   0.9447 B( 22-C , 25-C ) :   1.0546 B( 25-C , 26-H ) :   0.9569
B( 25-C , 27-H ) :   0.9548 B( 25-C , 28-C ) :   1.0702 B( 28-C , 29-H ) :   0.9763
B( 28-C , 30-H ) :   0.9788 B( 28-C , 31-H ) :   0.9763

Dispersion correction           -0.013873668
FINAL SINGLE POINT ENERGY     -1339.877257690354

DIPOLE MOMENT
-------------
                                X             Y             Z
Electronic contribution:    -21.88245      24.38150       0.17340
Nuclear contribution   :     22.34586     -24.74918      -0.40456
                        -----------------------------------------
Total Dipole Moment    :      0.46341      -0.36768      -0.23116
                        -----------------------------------------
Magnitude (a.u.)       :      0.63511
Magnitude (Debye)      :      1.61433

Rotational constants in cm-1:     0.016241     0.009703     0.006423
Rotational constants in MHz :   486.890340   290.886189   192.569299

                             ****ORCA TERMINATED NORMALLY****
TOTAL RUN TIME: 0 days 0 hours 0 minutes 21 seconds 409 msec
