                         Program Version 4.2.1 -  RELEASE  -
|  1> ! wB97X-D3 SP def2-SVP
|  2> %pal
|  3> nprocs 24
|  4> end
|  5>
|  6> * xyz 0 1
|  7> S 	 -31.9307 	 -31.8172 	 -95.3724
|  8> C 	 -32.914 	 -30.9601 	 -96.49
|  9> C 	 -33.1994 	 -29.6545 	 -96.0579
| 10> C 	 -32.5399 	 -29.3991 	 -94.8179
| 11> C 	 -31.6221 	 -30.3997 	 -94.4572
| 12> H 	 -32.6701 	 -28.5646 	 -94.0711
| 13> C 	 -34.1933 	 -28.7212 	 -96.7128
| 14> H 	 -34.6662 	 -28.0592 	 -96.0165
| 15> H 	 -34.9609 	 -29.3087 	 -97.1744
| 16> C 	 -33.6648 	 -27.8346 	 -97.8348
| 17> H 	 -33.5629 	 -28.4135 	 -98.7756
| 18> H 	 -34.5458 	 -27.2464 	 -98.0076
| 19> C 	 -32.3614 	 -27.1047 	 -97.4779
| 20> H 	 -31.622 	 -27.7312 	 -97.0016
| 21> H 	 -31.9308 	 -26.8336 	 -98.4698
| 22> H 	 -32.5779 	 -26.1681 	 -96.9575
| 23> S 	 -31.1946 	 -31.8031 	 -92.2215
| 24> C 	 -29.8712 	 -31.3326 	 -91.1601
| 25> C 	 -29.2302 	 -30.1235 	 -91.5667
| 26> C 	 -29.7616 	 -29.7192 	 -92.869
| 27> C 	 -30.7929 	 -30.4824 	 -93.309
| 28> H 	 -28.4148 	 -29.6936 	 -90.9177
| 29> C 	 -29.1943 	 -28.6227 	 -93.6885
| 30> H 	 -28.7767 	 -27.8461 	 -93.0958
| 31> H 	 -29.9528 	 -28.1088 	 -94.1929
| 32> C 	 -28.187 	 -29.0653 	 -94.7333
| 33> H 	 -28.5419 	 -29.6651 	 -95.5841
| 34> H 	 -27.4882 	 -29.7081 	 -94.1678
| 35> C 	 -27.3518 	 -27.9137 	 -95.2853
| 36> H 	 -27.0306 	 -27.1722 	 -94.5947
| 37> H 	 -27.8186 	 -27.454 	 -96.159
| 38> H 	 -26.4734 	 -28.2759 	 -95.7552
| 39> H 	 -33.2686 	 -31.4039 	 -97.4001
| 40> H 	 -29.6113 	 -31.8603 	 -90.2841
| 41> *
| 42>
| 43>                          ****END OF INPUT****

CARTESIAN COORDINATES (ANGSTROEM)
---------------------------------
  S    -31.930700  -31.817200  -95.372400
  C    -32.914000  -30.960100  -96.490000
  C    -33.199400  -29.654500  -96.057900
  C    -32.539900  -29.399100  -94.817900
  C    -31.622100  -30.399700  -94.457200
  H    -32.670100  -28.564600  -94.071100
  C    -34.193300  -28.721200  -96.712800
  H    -34.666200  -28.059200  -96.016500
  H    -34.960900  -29.308700  -97.174400
  C    -33.664800  -27.834600  -97.834800
  H    -33.562900  -28.413500  -98.775600
  H    -34.545800  -27.246400  -98.007600
  C    -32.361400  -27.104700  -97.477900
  H    -31.622000  -27.731200  -97.001600
  H    -31.930800  -26.833600  -98.469800
  H    -32.577900  -26.168100  -96.957500
  S    -31.194600  -31.803100  -92.221500
  C    -29.871200  -31.332600  -91.160100
  C    -29.230200  -30.123500  -91.566700
  C    -29.761600  -29.719200  -92.869000
  C    -30.792900  -30.482400  -93.309000
  H    -28.414800  -29.693600  -90.917700
  C    -29.194300  -28.622700  -93.688500
  H    -28.776700  -27.846100  -93.095800
  H    -29.952800  -28.108800  -94.192900
  C    -28.187000  -29.065300  -94.733300
  H    -28.541900  -29.665100  -95.584100
  H    -27.488200  -29.708100  -94.167800
  C    -27.351800  -27.913700  -95.285300
  H    -27.030600  -27.172200  -94.594700
  H    -27.818600  -27.454000  -96.159000
  H    -26.473400  -28.275900  -95.755200
  H    -33.268600  -31.403900  -97.400100
  H    -29.611300  -31.860300  -90.284100

 Total Charge           Charge          ....    0
 Multiplicity           Mult            ....    1
 Number of Electrons    NEL             ....  134
 Basis Dimension        Dim             ....  322

ORBITAL ENERGIES
----------------

  NO   OCC          E(Eh)            E(eV)
   0   2.0000     -88.966140     -2420.8917
   1   2.0000     -88.964630     -2420.8507
   2   2.0000     -10.321904      -280.8733
   3   2.0000     -10.319056      -280.7958
   4   2.0000     -10.317407      -280.7509
   5   2.0000     -10.311995      -280.6036
   6   2.0000     -10.306914      -280.4654
   7   2.0000     -10.303479      -280.3719
   8   2.0000     -10.301211      -280.3102
   9   2.0000     -10.299343      -280.2594
  10   2.0000     -10.284644      -279.8594
  11   2.0000     -10.283219      -279.8206
  12   2.0000     -10.281281      -279.7679
  13   2.0000     -10.276910      -279.6489
  14   2.0000     -10.275510      -279.6108
  15   2.0000     -10.266602      -279.3684
  16   2.0000      -8.082006      -219.9226
  17   2.0000      -8.079260      -219.8478
  18   2.0000      -6.040292      -164.3647
  19   2.0000      -6.037724      -164.2948
  20   2.0000      -6.036307      -164.2563
  21   2.0000      -6.033884      -164.1903
  22   2.0000      -6.032982      -164.1658
  23   2.0000      -6.029965      -164.0837
  24   2.0000      -1.012124       -27.5413
  25   2.0000      -0.981819       -26.7167
  26   2.0000      -0.915335       -24.9075
  27   2.0000      -0.911470       -24.8024
  28   2.0000      -0.868815       -23.6417
  29   2.0000      -0.852346       -23.1935
  30   2.0000      -0.843048       -22.9405
  31   2.0000      -0.810313       -22.0497
  32   2.0000      -0.786852       -21.4113
  33   2.0000      -0.774437       -21.0735
  34   2.0000      -0.704418       -19.1682
  35   2.0000      -0.699020       -19.0213
  36   2.0000      -0.693658       -18.8754
  37   2.0000      -0.665346       -18.1050
  38   2.0000      -0.642106       -17.4726
  39   2.0000      -0.609083       -16.5740
  40   2.0000      -0.595451       -16.2030
  41   2.0000      -0.575174       -15.6513
  42   2.0000      -0.566845       -15.4246
  43   2.0000      -0.549081       -14.9412
  44   2.0000      -0.540763       -14.7149
  45   2.0000      -0.524495       -14.2722
  46   2.0000      -0.511086       -13.9074
  47   2.0000      -0.509370       -13.8607
  48   2.0000      -0.506864       -13.7925
  49   2.0000      -0.500024       -13.6063
  50   2.0000      -0.497439       -13.5360
  51   2.0000      -0.478622       -13.0240
  52   2.0000      -0.474410       -12.9094
  53   2.0000      -0.461609       -12.5610
  54   2.0000      -0.455559       -12.3964
  55   2.0000      -0.450067       -12.2470
  56   2.0000      -0.443291       -12.0626
  57   2.0000      -0.439942       -11.9714
  58   2.0000      -0.430832       -11.7235
  59   2.0000      -0.426200       -11.5975
  60   2.0000      -0.419675       -11.4199
  61   2.0000      -0.414206       -11.2711
  62   2.0000      -0.404676       -11.0118
  63   2.0000      -0.340223        -9.2579
  64   2.0000      -0.330637        -8.9971
  65   2.0000      -0.327235        -8.9045
  66   2.0000      -0.288746        -7.8572
  67   0.0000       0.030158         0.8206
  68   0.0000       0.062364         1.6970
  69   0.0000       0.103192         2.8080
  70   0.0000       0.123175         3.3518
  71   0.0000       0.127315         3.4644

MULLIKEN ATOMIC CHARGES
-----------------------
   0 S :    0.123766
   1 C :   -0.110640
   2 C :   -0.093999
   3 C :    0.023973
   4 C :   -0.191554
   5 H :    0.041034
   6 C :    0.088114
   7 H :    0.019148
   8 H :    0.015515
   9 C :   -0.081228
  10 H :    0.024020
  11 H :    0.022239
  12 C :   -0.052034
  13 H :    0.056072
  14 H :    0.030545
  15 H :    0.037803
  16 S :    0.105951
  17 C :   -0.088740
  18 C :   -0.058352
  19 C :   -0.045800
  20 C :   -0.149787
  21 H :    0.048074
  22 C :    0.142251
  23 H :   -0.002213
  24 H :   -0.007551
  25 C :   -0.077900
  26 H :    0.040614
  27 H :    0.020310
  28 C :   -0.026073
  29 H :    0.023313
  30 H :    0.023491
  31 H :    0.013509
  32 H :    0.041900
  33 H :    0.044229
Sum of atomic charges:   -0.0000000

LOEWDIN ATOMIC CHARGES
----------------------
   0 S :    0.440800
   1 C :   -0.204820
   2 C :   -0.063800
   3 C :   -0.065059
   4 C :   -0.216120
   5 H :    0.042406
   6 C :   -0.030665
   7 H :    0.027731
   8 H :    0.029394
   9 C :   -0.041271
  10 H :    0.021285
  11 H :    0.023255
  12 C :   -0.067981
  13 H :    0.027345
  14 H :    0.031990
  15 H :    0.027642
  16 S :    0.395417
  17 C :   -0.174743
  18 C :   -0.072440
  19 C :   -0.052704
  20 C :   -0.200771
  21 H :    0.044921
  22 C :   -0.031346
  23 H :    0.026191
  24 H :    0.021770
  25 C :   -0.034911
  26 H :    0.030320
  27 H :    0.023361
  28 C :   -0.065984
  29 H :    0.019271
  30 H :    0.026026
  31 H :    0.023261
  32 H :    0.022832
  33 H :    0.017396

  Mayer bond orders larger than 0.100000
B(  0-S ,  1-C ) :   1.1647 B(  0-S ,  4-C ) :   1.1728 B(  1-C ,  2-C ) :   1.5626
B(  1-C ,  4-C ) :   0.1123 B(  1-C , 32-H ) :   0.9736 B(  2-C ,  3-C ) :   1.2556
B(  2-C ,  6-C ) :   1.0278 B(  3-C ,  4-C ) :   1.5404 B(  3-C ,  5-H ) :   0.9829
B(  4-C , 20-C ) :   1.0484 B(  6-C ,  7-H ) :   0.9465 B(  6-C ,  8-H ) :   0.9358
B(  6-C ,  9-C ) :   1.0732 B(  9-C , 10-H ) :   0.9608 B(  9-C , 11-H ) :   0.9576
B(  9-C , 12-C ) :   1.0708 B( 12-C , 13-H ) :   0.9710 B( 12-C , 14-H ) :   0.9744
B( 12-C , 15-H ) :   0.9765 B( 16-S , 17-C ) :   1.1532 B( 16-S , 20-C ) :   1.1218
B( 17-C , 18-C ) :   1.6217 B( 17-C , 33-H ) :   0.9726 B( 18-C , 19-C ) :   1.1978
B( 18-C , 21-H ) :   0.9848 B( 19-C , 20-C ) :   1.6442 B( 19-C , 22-C ) :   1.0735
B( 22-C , 23-H ) :   0.9219 B( 22-C , 24-H ) :   0.9088 B( 22-C , 25-C ) :   1.0638
B( 25-C , 26-H ) :   0.9529 B( 25-C , 27-H ) :   0.9573 B( 25-C , 28-C ) :   1.0915
B( 28-C , 29-H ) :   0.9741 B( 28-C , 30-H ) :   0.9727 B( 28-C , 31-H ) :   0.9696

Dispersion correction           -0.014802335
FINAL SINGLE POINT ENERGY     -1339.868180598396

DIPOLE MOMENT
-------------
                                X             Y             Z
Electronic contribution:     -6.72572     -23.47114      15.44287
Nuclear contribution   :      6.72764      23.96424     -15.61888
                        -----------------------------------------
Total Dipole Moment    :      0.00192       0.49310      -0.17601
                        -----------------------------------------
Magnitude (a.u.)       :      0.52358
Magnitude (Debye)      :      1.33083

Rotational constants in cm-1:     0.018134     0.009878     0.007304
Rotational constants in MHz :   543.646597   296.127582   218.955137

                             ****ORCA TERMINATED NORMALLY****
TOTAL RUN TIME: 0 days 0 hours 0 minutes 21 seconds 161 msec
