                         Program Version 4.2.1 -  RELEASE  -
|  1> ! wB97X-D3 SP def2-SVP
|  2> %pal
|  3> nprocs 24
|  4> end
|  5>
|  6> * xyz 0 1
|  7> S 	 -108.001 	 69.6499 	 -13.8893
|  8> C 	 -107.295 	 71.0807 	 -13.1533
|  9> C 	 -106.005 	 70.7719 	 -12.723
| 10> C 	 -105.74 	 69.3688 	 -12.8482
| 11> C 	 -106.778 	 68.6192 	 -13.3757
| 12> H 	 -104.804 	 68.8831 	 -12.6563
| 13> C 	 -105.149 	 71.631 	 -11.8453
| 14> H 	 -105.759 	 71.7989 	 -10.908
| 15> H 	 -104.978 	 72.5703 	 -12.2584
| 16> C 	 -103.866 	 71.092 	 -11.2716
| 17> H 	 -104.083 	 70.1127 	 -10.7986
| 18> H 	 -103.192 	 70.868 	 -12.1037
| 19> C 	 -103.082 	 71.9254 	 -10.2586
| 20> H 	 -103.572 	 72.2304 	 -9.35229
| 21> H 	 -102.117 	 71.4721 	 -10.1891
| 22> H 	 -103.016 	 72.9845 	 -10.6337
| 23> S 	 -105.55 	 66.612 	 -14.739
| 24> C 	 -105.992 	 64.9277 	 -14.4461
| 25> C 	 -107.298 	 64.8835 	 -13.9747
| 26> C 	 -107.835 	 66.2069 	 -13.5869
| 27> C 	 -106.816 	 67.1902 	 -13.6826
| 28> H 	 -107.795 	 63.9745 	 -13.8236
| 29> C 	 -109.191 	 66.478 	 -12.9651
| 30> H 	 -109.822 	 65.844 	 -13.545
| 31> H 	 -109.594 	 67.5609 	 -13.1902
| 32> C 	 -109.456 	 66.1643 	 -11.4772
| 33> H 	 -110.535 	 66.4554 	 -11.1483
| 34> H 	 -108.695 	 66.7167 	 -10.9005
| 35> C 	 -109.229 	 64.6983 	 -11.0981
| 36> H 	 -110.054 	 64.1962 	 -11.6166
| 37> H 	 -109.424 	 64.5139 	 -10.0384
| 38> H 	 -108.233 	 64.3512 	 -11.2941
| 39> H 	 -107.87 	 72.0117 	 -13.0865
| 40> H 	 -105.396 	 64.1019 	 -14.6722
| 41> *
| 42>
| 43>                          ****END OF INPUT****

CARTESIAN COORDINATES (ANGSTROEM)
---------------------------------
  S    -108.001000   69.649900  -13.889300
  C    -107.295000   71.080700  -13.153300
  C    -106.005000   70.771900  -12.723000
  C    -105.740000   69.368800  -12.848200
  C    -106.778000   68.619200  -13.375700
  H    -104.804000   68.883100  -12.656300
  C    -105.149000   71.631000  -11.845300
  H    -105.759000   71.798900  -10.908000
  H    -104.978000   72.570300  -12.258400
  C    -103.866000   71.092000  -11.271600
  H    -104.083000   70.112700  -10.798600
  H    -103.192000   70.868000  -12.103700
  C    -103.082000   71.925400  -10.258600
  H    -103.572000   72.230400   -9.352290
  H    -102.117000   71.472100  -10.189100
  H    -103.016000   72.984500  -10.633700
  S    -105.550000   66.612000  -14.739000
  C    -105.992000   64.927700  -14.446100
  C    -107.298000   64.883500  -13.974700
  C    -107.835000   66.206900  -13.586900
  C    -106.816000   67.190200  -13.682600
  H    -107.795000   63.974500  -13.823600
  C    -109.191000   66.478000  -12.965100
  H    -109.822000   65.844000  -13.545000
  H    -109.594000   67.560900  -13.190200
  C    -109.456000   66.164300  -11.477200
  H    -110.535000   66.455400  -11.148300
  H    -108.695000   66.716700  -10.900500
  C    -109.229000   64.698300  -11.098100
  H    -110.054000   64.196200  -11.616600
  H    -109.424000   64.513900  -10.038400
  H    -108.233000   64.351200  -11.294100
  H    -107.870000   72.011700  -13.086500
  H    -105.396000   64.101900  -14.672200

 Total Charge           Charge          ....    0
 Multiplicity           Mult            ....    1
 Number of Electrons    NEL             ....  134
 Basis Dimension        Dim             ....  322

ORBITAL ENERGIES
----------------

  NO   OCC          E(Eh)            E(eV)
   0   2.0000     -88.963984     -2420.8331
   1   2.0000     -88.962112     -2420.7821
   2   2.0000     -10.329716      -281.0859
   3   2.0000     -10.324043      -280.9315
   4   2.0000     -10.317427      -280.7515
   5   2.0000     -10.317012      -280.7402
   6   2.0000     -10.314088      -280.6606
   7   2.0000     -10.305653      -280.4311
   8   2.0000     -10.299755      -280.2706
   9   2.0000     -10.295932      -280.1666
  10   2.0000     -10.292535      -280.0741
  11   2.0000     -10.291314      -280.0409
  12   2.0000     -10.287615      -279.9402
  13   2.0000     -10.286076      -279.8984
  14   2.0000     -10.280206      -279.7386
  15   2.0000     -10.273189      -279.5477
  16   2.0000      -8.079698      -219.8598
  17   2.0000      -8.076800      -219.7809
  18   2.0000      -6.038060      -164.3040
  19   2.0000      -6.035406      -164.2318
  20   2.0000      -6.033901      -164.1908
  21   2.0000      -6.031453      -164.1242
  22   2.0000      -6.030704      -164.1038
  23   2.0000      -6.027315      -164.0116
  24   2.0000      -1.010545       -27.4983
  25   2.0000      -0.982656       -26.7394
  26   2.0000      -0.918088       -24.9824
  27   2.0000      -0.904277       -24.6066
  28   2.0000      -0.871736       -23.7211
  29   2.0000      -0.849258       -23.1095
  30   2.0000      -0.841628       -22.9019
  31   2.0000      -0.815600       -22.1936
  32   2.0000      -0.786569       -21.4036
  33   2.0000      -0.772580       -21.0230
  34   2.0000      -0.711875       -19.3711
  35   2.0000      -0.693362       -18.8673
  36   2.0000      -0.681062       -18.5326
  37   2.0000      -0.668582       -18.1931
  38   2.0000      -0.640932       -17.4407
  39   2.0000      -0.620875       -16.8949
  40   2.0000      -0.590494       -16.0682
  41   2.0000      -0.573749       -15.6125
  42   2.0000      -0.570956       -15.5365
  43   2.0000      -0.556173       -15.1342
  44   2.0000      -0.540602       -14.7105
  45   2.0000      -0.535375       -14.5683
  46   2.0000      -0.519516       -14.1367
  47   2.0000      -0.510055       -13.8793
  48   2.0000      -0.505733       -13.7617
  49   2.0000      -0.498255       -13.5582
  50   2.0000      -0.491664       -13.3789
  51   2.0000      -0.480106       -13.0643
  52   2.0000      -0.475594       -12.9416
  53   2.0000      -0.467867       -12.7313
  54   2.0000      -0.456138       -12.4122
  55   2.0000      -0.453872       -12.3505
  56   2.0000      -0.438445       -11.9307
  57   2.0000      -0.436581       -11.8800
  58   2.0000      -0.424673       -11.5559
  59   2.0000      -0.420064       -11.4305
  60   2.0000      -0.416148       -11.3240
  61   2.0000      -0.409823       -11.1519
  62   2.0000      -0.404033       -10.9943
  63   2.0000      -0.337272        -9.1776
  64   2.0000      -0.328230        -8.9316
  65   2.0000      -0.324574        -8.8321
  66   2.0000      -0.295480        -8.0404
  67   0.0000       0.019612         0.5337
  68   0.0000       0.074702         2.0327
  69   0.0000       0.095902         2.6096
  70   0.0000       0.118960         3.2371
  71   0.0000       0.130985         3.5643

MULLIKEN ATOMIC CHARGES
-----------------------
   0 S :    0.117513
   1 C :   -0.154819
   2 C :   -0.034801
   3 C :   -0.012481
   4 C :   -0.131575
   5 H :    0.009605
   6 C :    0.058801
   7 H :    0.043236
   8 H :    0.012361
   9 C :   -0.121654
  10 H :    0.034893
  11 H :    0.029514
  12 C :   -0.009554
  13 H :    0.024885
  14 H :    0.044886
  15 H :    0.013916
  16 S :    0.099714
  17 C :   -0.068752
  18 C :   -0.012342
  19 C :   -0.047375
  20 C :   -0.147408
  21 H :    0.006515
  22 C :    0.037267
  23 H :    0.011754
  24 H :    0.052029
  25 C :   -0.078821
  26 H :    0.046677
  27 H :    0.033804
  28 C :   -0.059843
  29 H :    0.023756
  30 H :    0.031440
  31 H :    0.043488
  32 H :    0.062985
  33 H :    0.040387
Sum of atomic charges:   -0.0000000

LOEWDIN ATOMIC CHARGES
----------------------
   0 S :    0.449362
   1 C :   -0.197126
   2 C :   -0.059896
   3 C :   -0.067442
   4 C :   -0.223738
   5 H :    0.026693
   6 C :   -0.037005
   7 H :    0.045474
   8 H :    0.019577
   9 C :   -0.049456
  10 H :    0.025819
  11 H :    0.022832
  12 C :   -0.065076
  13 H :    0.023544
  14 H :    0.030805
  15 H :    0.029654
  16 S :    0.398087
  17 C :   -0.169406
  18 C :   -0.057478
  19 C :   -0.053828
  20 C :   -0.193404
  21 H :    0.021413
  22 C :   -0.050540
  23 H :    0.024554
  24 H :    0.036363
  25 C :   -0.044213
  26 H :    0.035981
  27 H :    0.023956
  28 C :   -0.070210
  29 H :    0.023954
  30 H :    0.027305
  31 H :    0.022344
  32 H :    0.032482
  33 H :    0.018621

  Mayer bond orders larger than 0.100000
B(  0-S ,  1-C ) :   1.1604 B(  0-S ,  4-C ) :   1.1847 B(  1-C ,  2-C ) :   1.5557
B(  1-C ,  4-C ) :   0.1018 B(  1-C , 32-H ) :   0.9782 B(  2-C ,  3-C ) :   1.2687
B(  2-C ,  6-C ) :   1.0252 B(  3-C ,  4-C ) :   1.5267 B(  3-C ,  5-H ) :   0.9978
B(  4-C , 20-C ) :   1.0419 B(  6-C ,  7-H ) :   0.9389 B(  6-C ,  8-H ) :   0.9298
B(  6-C ,  9-C ) :   1.0963 B(  9-C , 10-H ) :   0.9389 B(  9-C , 11-H ) :   0.9508
B(  9-C , 12-C ) :   1.0879 B( 12-C , 13-H ) :   0.9712 B( 12-C , 14-H ) :   0.9709
B( 12-C , 15-H ) :   0.9677 B( 16-S , 17-C ) :   1.1365 B( 16-S , 20-C ) :   1.1518
B( 17-C , 18-C ) :   1.6122 B( 17-C , 33-H ) :   0.9813 B( 18-C , 19-C ) :   1.2092
B( 18-C , 21-H ) :   0.9978 B( 19-C , 20-C ) :   1.5620 B( 19-C , 22-C ) :   1.0505
B( 22-C , 23-H ) :   0.9235 B( 22-C , 24-H ) :   0.9318 B( 22-C , 25-C ) :   1.0606
B( 25-C , 26-H ) :   0.9547 B( 25-C , 27-H ) :   0.9561 B( 25-C , 28-C ) :   1.0781
B( 28-C , 29-H ) :   0.9766 B( 28-C , 30-H ) :   0.9718 B( 28-C , 31-H ) :   0.9718

Dispersion correction           -0.013980836
FINAL SINGLE POINT ENERGY     -1339.851336522973

DIPOLE MOMENT
-------------
                                X             Y             Z
Electronic contribution:     -1.74197      -2.72824     -19.99012
Nuclear contribution   :      1.72062       2.76120      20.42799
                        -----------------------------------------
Total Dipole Moment    :     -0.02135       0.03296       0.43787
                        -----------------------------------------
Magnitude (a.u.)       :      0.43962
Magnitude (Debye)      :      1.11743

Rotational constants in cm-1:     0.019826     0.007503     0.006964
Rotational constants in MHz :   594.364927   224.936500   208.779723

                             ****ORCA TERMINATED NORMALLY****
TOTAL RUN TIME: 0 days 0 hours 0 minutes 20 seconds 19 msec
