                         Program Version 4.2.1 -  RELEASE  -
|  1> ! wB97X-D3 SP def2-SVP
|  2> %pal
|  3> nprocs 24
|  4> end
|  5>
|  6> * xyz 0 1
|  7> S 	 -91.7145 	 53.299 	 -94.1826
|  8> C 	 -92.5749 	 52.3005 	 -93.0384
|  9> C 	 -92.9393 	 51.0859 	 -93.5285
| 10> C 	 -92.6078 	 51.0516 	 -94.9694
| 11> C 	 -92.0955 	 52.2257 	 -95.4713
| 12> H 	 -93.0764 	 50.3884 	 -95.666
| 13> C 	 -93.7208 	 50.0034 	 -92.805
| 14> H 	 -93.6175 	 49.0736 	 -93.3807
| 15> H 	 -94.7911 	 50.2484 	 -92.8159
| 16> C 	 -93.3237 	 49.8321 	 -91.353
| 17> H 	 -92.2984 	 49.4322 	 -91.3721
| 18> H 	 -93.3718 	 50.8341 	 -90.9927
| 19> C 	 -94.2961 	 48.7717 	 -90.7734
| 20> H 	 -95.2272 	 49.2294 	 -90.5755
| 21> H 	 -94.5997 	 47.9801 	 -91.375
| 22> H 	 -93.907 	 48.19 	 -90.0253
| 23> S 	 -90.1706 	 52.8705 	 -97.1692
| 24> C 	 -90.6145 	 52.9594 	 -98.8856
| 25> C 	 -91.9828 	 53.0466 	 -99.1107
| 26> C 	 -92.6594 	 52.7261 	 -97.9033
| 27> C 	 -91.8027 	 52.5488 	 -96.8436
| 28> H 	 -92.4209 	 53.3412 	 -100.058
| 29> C 	 -94.1956 	 52.6256 	 -97.8697
| 30> H 	 -94.5934 	 52.4233 	 -96.8668
| 31> H 	 -94.3507 	 51.6763 	 -98.355
| 32> C 	 -95.0888 	 53.804 	 -98.3511
| 33> H 	 -95.1609 	 53.6369 	 -99.4248
| 34> H 	 -94.4815 	 54.7186 	 -98.3461
| 35> C 	 -96.4357 	 54.0171 	 -97.6983
| 36> H 	 -96.3973 	 54.0853 	 -96.6501
| 37> H 	 -97.0089 	 53.0942 	 -97.713
| 38> H 	 -97.0057 	 54.7448 	 -98.2296
| 39> H 	 -92.9354 	 52.6387 	 -92.0862
| 40> H 	 -89.9579 	 53.2596 	 -99.648
| 41> *
| 42>
| 43>                          ****END OF INPUT****

CARTESIAN COORDINATES (ANGSTROEM)
---------------------------------
  S    -91.714500   53.299000  -94.182600
  C    -92.574900   52.300500  -93.038400
  C    -92.939300   51.085900  -93.528500
  C    -92.607800   51.051600  -94.969400
  C    -92.095500   52.225700  -95.471300
  H    -93.076400   50.388400  -95.666000
  C    -93.720800   50.003400  -92.805000
  H    -93.617500   49.073600  -93.380700
  H    -94.791100   50.248400  -92.815900
  C    -93.323700   49.832100  -91.353000
  H    -92.298400   49.432200  -91.372100
  H    -93.371800   50.834100  -90.992700
  C    -94.296100   48.771700  -90.773400
  H    -95.227200   49.229400  -90.575500
  H    -94.599700   47.980100  -91.375000
  H    -93.907000   48.190000  -90.025300
  S    -90.170600   52.870500  -97.169200
  C    -90.614500   52.959400  -98.885600
  C    -91.982800   53.046600  -99.110700
  C    -92.659400   52.726100  -97.903300
  C    -91.802700   52.548800  -96.843600
  H    -92.420900   53.341200  -100.058000
  C    -94.195600   52.625600  -97.869700
  H    -94.593400   52.423300  -96.866800
  H    -94.350700   51.676300  -98.355000
  C    -95.088800   53.804000  -98.351100
  H    -95.160900   53.636900  -99.424800
  H    -94.481500   54.718600  -98.346100
  C    -96.435700   54.017100  -97.698300
  H    -96.397300   54.085300  -96.650100
  H    -97.008900   53.094200  -97.713000
  H    -97.005700   54.744800  -98.229600
  H    -92.935400   52.638700  -92.086200
  H    -89.957900   53.259600  -99.648000

 Total Charge           Charge          ....    0
 Multiplicity           Mult            ....    1
 Number of Electrons    NEL             ....  134
 Basis Dimension        Dim             ....  322

ORBITAL ENERGIES
----------------

  NO   OCC          E(Eh)            E(eV)
   0   2.0000     -88.967577     -2420.9308
   1   2.0000     -88.960960     -2420.7508
   2   2.0000     -10.320962      -280.8477
   3   2.0000     -10.317230      -280.7461
   4   2.0000     -10.313163      -280.6354
   5   2.0000     -10.306963      -280.4667
   6   2.0000     -10.301949      -280.3303
   7   2.0000     -10.299908      -280.2748
   8   2.0000     -10.295875      -280.1650
   9   2.0000     -10.291292      -280.0403
  10   2.0000     -10.289474      -279.9908
  11   2.0000     -10.288988      -279.9776
  12   2.0000     -10.287267      -279.9308
  13   2.0000     -10.286742      -279.9165
  14   2.0000     -10.273971      -279.5690
  15   2.0000     -10.265614      -279.3416
  16   2.0000      -8.083099      -219.9523
  17   2.0000      -8.076748      -219.7795
  18   2.0000      -6.041454      -164.3963
  19   2.0000      -6.037816      -164.2973
  20   2.0000      -6.035375      -164.2309
  21   2.0000      -6.033641      -164.1837
  22   2.0000      -6.031119      -164.1151
  23   2.0000      -6.027313      -164.0115
  24   2.0000      -1.013400       -27.5760
  25   2.0000      -0.986050       -26.8318
  26   2.0000      -0.919577       -25.0230
  27   2.0000      -0.905813       -24.6484
  28   2.0000      -0.873551       -23.7705
  29   2.0000      -0.855644       -23.2833
  30   2.0000      -0.845214       -22.9994
  31   2.0000      -0.815101       -22.1800
  32   2.0000      -0.787617       -21.4322
  33   2.0000      -0.775793       -21.1104
  34   2.0000      -0.715210       -19.4618
  35   2.0000      -0.707951       -19.2643
  36   2.0000      -0.695284       -18.9196
  37   2.0000      -0.665488       -18.1089
  38   2.0000      -0.640175       -17.4200
  39   2.0000      -0.610305       -16.6072
  40   2.0000      -0.596918       -16.2430
  41   2.0000      -0.579517       -15.7695
  42   2.0000      -0.569399       -15.4941
  43   2.0000      -0.561620       -15.2825
  44   2.0000      -0.527819       -14.3627
  45   2.0000      -0.525128       -14.2894
  46   2.0000      -0.520913       -14.1748
  47   2.0000      -0.513414       -13.9707
  48   2.0000      -0.503667       -13.7055
  49   2.0000      -0.500020       -13.6062
  50   2.0000      -0.491922       -13.3859
  51   2.0000      -0.484961       -13.1965
  52   2.0000      -0.473706       -12.8902
  53   2.0000      -0.464901       -12.6506
  54   2.0000      -0.461817       -12.5667
  55   2.0000      -0.457358       -12.4453
  56   2.0000      -0.451096       -12.2749
  57   2.0000      -0.438604       -11.9350
  58   2.0000      -0.436053       -11.8656
  59   2.0000      -0.423515       -11.5244
  60   2.0000      -0.421457       -11.4684
  61   2.0000      -0.410323       -11.1655
  62   2.0000      -0.402986       -10.9658
  63   2.0000      -0.344424        -9.3722
  64   2.0000      -0.329451        -8.9648
  65   2.0000      -0.325265        -8.8509
  66   2.0000      -0.294396        -8.0109
  67   0.0000       0.041586         1.1316
  68   0.0000       0.061356         1.6696
  69   0.0000       0.103171         2.8074
  70   0.0000       0.123008         3.3472
  71   0.0000       0.132445         3.6040

MULLIKEN ATOMIC CHARGES
-----------------------
   0 S :    0.110416
   1 C :   -0.131592
   2 C :   -0.089821
   3 C :    0.062228
   4 C :   -0.182946
   5 H :    0.007607
   6 C :    0.029947
   7 H :    0.026190
   8 H :    0.037650
   9 C :   -0.074371
  10 H :    0.041932
  11 H :    0.028973
  12 C :    0.039202
  13 H :    0.017215
  14 H :   -0.002636
  15 H :    0.009635
  16 S :    0.122326
  17 C :   -0.067469
  18 C :   -0.049372
  19 C :   -0.032845
  20 C :   -0.164428
  21 H :    0.026716
  22 C :    0.065158
  23 H :    0.011944
  24 H :    0.032190
  25 C :   -0.077140
  26 H :    0.020068
  27 H :    0.032900
  28 C :   -0.003407
  29 H :    0.025941
  30 H :    0.012574
  31 H :    0.039185
  32 H :    0.041043
  33 H :    0.034985
Sum of atomic charges:    0.0000000

LOEWDIN ATOMIC CHARGES
----------------------
   0 S :    0.404907
   1 C :   -0.200244
   2 C :   -0.058763
   3 C :   -0.065933
   4 C :   -0.200982
   5 H :    0.024674
   6 C :   -0.034284
   7 H :    0.029274
   8 H :    0.032663
   9 C :   -0.029161
  10 H :    0.031023
  11 H :    0.020792
  12 C :   -0.056866
  13 H :    0.024930
  14 H :    0.022715
  15 H :    0.017618
  16 S :    0.424861
  17 C :   -0.171603
  18 C :   -0.060058
  19 C :   -0.053751
  20 C :   -0.218566
  21 H :    0.035719
  22 C :   -0.036089
  23 H :    0.027050
  24 H :    0.030771
  25 C :   -0.044917
  26 H :    0.021658
  27 H :    0.026303
  28 C :   -0.060214
  29 H :    0.023181
  30 H :    0.027729
  31 H :    0.029962
  32 H :    0.021460
  33 H :    0.014140

  Mayer bond orders larger than 0.100000
B(  0-S ,  1-C ) :   1.1216 B(  0-S ,  4-C ) :   1.1436 B(  1-C ,  2-C ) :   1.6596
B(  1-C , 32-H ) :   0.9657 B(  2-C ,  3-C ) :   1.2067 B(  2-C ,  6-C ) :   1.0072
B(  3-C ,  4-C ) :   1.6297 B(  3-C ,  5-H ) :   0.9866 B(  4-C , 20-C ) :   1.0082
B(  6-C ,  7-H ) :   0.9433 B(  6-C ,  8-H ) :   0.9396 B(  6-C ,  9-C ) :   1.0579
B(  9-C , 10-H ) :   0.9618 B(  9-C , 11-H ) :   0.9600 B(  9-C , 12-C ) :   1.0737
B( 12-C , 13-H ) :   0.9713 B( 12-C , 14-H ) :   0.9643 B( 12-C , 15-H ) :   0.9702
B( 16-S , 17-C ) :   1.1495 B( 16-S , 20-C ) :   1.1523 B( 17-C , 18-C ) :   1.6226
B( 17-C , 20-C ) :   0.1009 B( 17-C , 33-H ) :   0.9690 B( 18-C , 19-C ) :   1.2308
B( 18-C , 21-H ) :   0.9914 B( 19-C , 20-C ) :   1.6233 B( 19-C , 22-C ) :   1.0328
B( 22-C , 23-H ) :   0.9402 B( 22-C , 24-H ) :   0.9314 B( 22-C , 25-C ) :   1.0347
B( 25-C , 26-H ) :   0.9487 B( 25-C , 27-H ) :   0.9627 B( 25-C , 28-C ) :   1.1005
B( 28-C , 29-H ) :   0.9689 B( 28-C , 30-H ) :   0.9682 B( 28-C , 31-H ) :   0.9714

Dispersion correction           -0.013505107
FINAL SINGLE POINT ENERGY     -1339.839940093330

DIPOLE MOMENT
-------------
                                X             Y             Z
Electronic contribution:     24.78679       9.80641      -6.88490
Nuclear contribution   :    -25.55280     -10.02607       6.77779
                        -----------------------------------------
Total Dipole Moment    :     -0.76601      -0.21966      -0.10711
                        -----------------------------------------
Magnitude (a.u.)       :      0.80405
Magnitude (Debye)      :      2.04374

Rotational constants in cm-1:     0.019425     0.007608     0.006193
Rotational constants in MHz :   582.354452   228.071013   185.675839

                             ****ORCA TERMINATED NORMALLY****
TOTAL RUN TIME: 0 days 0 hours 0 minutes 22 seconds 295 msec
