                         Program Version 4.2.1 -  RELEASE  -
|  1> ! wB97X-D3 SP def2-SVP
|  2> %pal
|  3> nprocs 24
|  4> end
|  5>
|  6> * xyz 0 1
|  7> S 	 -55.3999 	 13.9071 	 -88.6357
|  8> C 	 -54.0535 	 13.1299 	 -87.7622
|  9> C 	 -53.5567 	 13.9862 	 -86.8525
| 10> C 	 -54.2499 	 15.2354 	 -86.855
| 11> C 	 -55.3413 	 15.3646 	 -87.6962
| 12> H 	 -54.0157 	 16.1632 	 -86.3609
| 13> C 	 -52.3677 	 13.7046 	 -85.9293
| 14> H 	 -51.8784 	 12.7357 	 -86.1439
| 15> H 	 -52.7478 	 13.6981 	 -84.8869
| 16> C 	 -51.4301 	 14.9366 	 -85.9682
| 17> H 	 -51.152 	 15.2104 	 -86.9907
| 18> H 	 -51.8142 	 15.8886 	 -85.6079
| 19> C 	 -50.1711 	 14.5984 	 -85.1005
| 20> H 	 -50.3903 	 14.2554 	 -84.1021
| 21> H 	 -49.4544 	 13.9004 	 -85.5937
| 22> H 	 -49.669 	 15.5026 	 -84.9276
| 23> S 	 -57.6592 	 16.6573 	 -87.647
| 24> C 	 -57.8172 	 18.4032 	 -87.6348
| 25> C 	 -56.6276 	 18.9395 	 -88.0814
| 26> C 	 -55.5876 	 17.9126 	 -88.2515
| 27> C 	 -56.0713 	 16.6317 	 -88.0061
| 28> H 	 -56.4979 	 19.9972 	 -88.0841
| 29> C 	 -54.1497 	 18.2679 	 -88.6835
| 30> H 	 -53.4472 	 18.0133 	 -87.8101
| 31> H 	 -54.0499 	 19.3447 	 -88.6972
| 32> C 	 -53.8192 	 17.5531 	 -89.9845
| 33> H 	 -54.582 	 17.8541 	 -90.7108
| 34> H 	 -53.9978 	 16.4998 	 -89.8077
| 35> C 	 -52.3895 	 17.7867 	 -90.5131
| 36> H 	 -51.6288 	 17.1155 	 -90.0195
| 37> H 	 -52.1482 	 18.8176 	 -90.399
| 38> H 	 -52.3239 	 17.4497 	 -91.4901
| 39> H 	 -53.8164 	 12.1278 	 -87.7669
| 40> H 	 -58.6736 	 19.064 	 -87.4696
| 41> *
| 42>
| 43>                          ****END OF INPUT****

CARTESIAN COORDINATES (ANGSTROEM)
---------------------------------
  S    -55.399900   13.907100  -88.635700
  C    -54.053500   13.129900  -87.762200
  C    -53.556700   13.986200  -86.852500
  C    -54.249900   15.235400  -86.855000
  C    -55.341300   15.364600  -87.696200
  H    -54.015700   16.163200  -86.360900
  C    -52.367700   13.704600  -85.929300
  H    -51.878400   12.735700  -86.143900
  H    -52.747800   13.698100  -84.886900
  C    -51.430100   14.936600  -85.968200
  H    -51.152000   15.210400  -86.990700
  H    -51.814200   15.888600  -85.607900
  C    -50.171100   14.598400  -85.100500
  H    -50.390300   14.255400  -84.102100
  H    -49.454400   13.900400  -85.593700
  H    -49.669000   15.502600  -84.927600
  S    -57.659200   16.657300  -87.647000
  C    -57.817200   18.403200  -87.634800
  C    -56.627600   18.939500  -88.081400
  C    -55.587600   17.912600  -88.251500
  C    -56.071300   16.631700  -88.006100
  H    -56.497900   19.997200  -88.084100
  C    -54.149700   18.267900  -88.683500
  H    -53.447200   18.013300  -87.810100
  H    -54.049900   19.344700  -88.697200
  C    -53.819200   17.553100  -89.984500
  H    -54.582000   17.854100  -90.710800
  H    -53.997800   16.499800  -89.807700
  C    -52.389500   17.786700  -90.513100
  H    -51.628800   17.115500  -90.019500
  H    -52.148200   18.817600  -90.399000
  H    -52.323900   17.449700  -91.490100
  H    -53.816400   12.127800  -87.766900
  H    -58.673600   19.064000  -87.469600

 Total Charge           Charge          ....    0
 Multiplicity           Mult            ....    1
 Number of Electrons    NEL             ....  134
 Basis Dimension        Dim             ....  322

ORBITAL ENERGIES
----------------

  NO   OCC          E(Eh)            E(eV)
   0   2.0000     -88.964665     -2420.8516
   1   2.0000     -88.962197     -2420.7844
   2   2.0000     -10.332764      -281.1688
   3   2.0000     -10.322937      -280.9014
   4   2.0000     -10.318797      -280.7887
   5   2.0000     -10.308320      -280.5036
   6   2.0000     -10.307673      -280.4860
   7   2.0000     -10.301492      -280.3179
   8   2.0000     -10.300031      -280.2781
   9   2.0000     -10.296485      -280.1816
  10   2.0000     -10.295026      -280.1419
  11   2.0000     -10.292273      -280.0670
  12   2.0000     -10.291781      -280.0536
  13   2.0000     -10.279695      -279.7247
  14   2.0000     -10.276753      -279.6447
  15   2.0000     -10.270724      -279.4806
  16   2.0000      -8.081769      -219.9161
  17   2.0000      -8.076561      -219.7744
  18   2.0000      -6.040193      -164.3620
  19   2.0000      -6.035661      -164.2387
  20   2.0000      -6.035207      -164.2263
  21   2.0000      -6.032691      -164.1579
  22   2.0000      -6.030994      -164.1117
  23   2.0000      -6.027281      -164.0106
  24   2.0000      -1.016873       -27.6705
  25   2.0000      -0.991184       -26.9715
  26   2.0000      -0.910849       -24.7855
  27   2.0000      -0.905986       -24.6531
  28   2.0000      -0.874927       -23.8080
  29   2.0000      -0.846027       -23.0216
  30   2.0000      -0.841941       -22.9104
  31   2.0000      -0.821609       -22.3571
  32   2.0000      -0.780178       -21.2297
  33   2.0000      -0.771878       -21.0039
  34   2.0000      -0.713153       -19.4059
  35   2.0000      -0.700422       -19.0594
  36   2.0000      -0.691259       -18.8101
  37   2.0000      -0.666104       -18.1256
  38   2.0000      -0.646249       -17.5853
  39   2.0000      -0.618006       -16.8168
  40   2.0000      -0.589673       -16.0458
  41   2.0000      -0.575798       -15.6683
  42   2.0000      -0.564554       -15.3623
  43   2.0000      -0.557401       -15.1676
  44   2.0000      -0.530101       -14.4248
  45   2.0000      -0.527026       -14.3411
  46   2.0000      -0.521763       -14.1979
  47   2.0000      -0.511002       -13.9051
  48   2.0000      -0.504198       -13.7199
  49   2.0000      -0.501540       -13.6476
  50   2.0000      -0.490891       -13.3578
  51   2.0000      -0.488331       -13.2882
  52   2.0000      -0.476486       -12.9658
  53   2.0000      -0.469307       -12.7705
  54   2.0000      -0.459462       -12.5026
  55   2.0000      -0.454514       -12.3679
  56   2.0000      -0.439364       -11.9557
  57   2.0000      -0.435316       -11.8456
  58   2.0000      -0.432141       -11.7592
  59   2.0000      -0.424201       -11.5431
  60   2.0000      -0.416714       -11.3394
  61   2.0000      -0.410788       -11.1781
  62   2.0000      -0.406201       -11.0533
  63   2.0000      -0.347770        -9.4633
  64   2.0000      -0.327716        -8.9176
  65   2.0000      -0.322561        -8.7773
  66   2.0000      -0.308374        -8.3913
  67   0.0000       0.038827         1.0565
  68   0.0000       0.066700         1.8150
  69   0.0000       0.118771         3.2319
  70   0.0000       0.123122         3.3503
  71   0.0000       0.128967         3.5094

MULLIKEN ATOMIC CHARGES
-----------------------
   0 S :    0.084809
   1 C :   -0.098365
   2 C :   -0.057724
   3 C :    0.013631
   4 C :   -0.138086
   5 H :    0.004283
   6 C :    0.093217
   7 H :    0.033273
   8 H :    0.043010
   9 C :   -0.124616
  10 H :    0.033432
  11 H :    0.034941
  12 C :   -0.026015
  13 H :    0.023425
  14 H :    0.041421
  15 H :    0.012799
  16 S :    0.126290
  17 C :   -0.102255
  18 C :   -0.027614
  19 C :   -0.094802
  20 C :   -0.140399
  21 H :    0.015777
  22 C :    0.077015
  23 H :    0.028558
  24 H :    0.003899
  25 C :   -0.089922
  26 H :    0.033023
  27 H :    0.035902
  28 C :    0.004840
  29 H :    0.031798
  30 H :    0.026194
  31 H :    0.016949
  32 H :    0.017963
  33 H :    0.063349
Sum of atomic charges:   -0.0000000

LOEWDIN ATOMIC CHARGES
----------------------
   0 S :    0.389855
   1 C :   -0.174653
   2 C :   -0.064021
   3 C :   -0.065457
   4 C :   -0.197800
   5 H :    0.026053
   6 C :   -0.025493
   7 H :    0.033604
   8 H :    0.038847
   9 C :   -0.038417
  10 H :    0.024181
  11 H :    0.024167
  12 C :   -0.064345
  13 H :    0.022380
  14 H :    0.029678
  15 H :    0.017579
  16 S :    0.470507
  17 C :   -0.196420
  18 C :   -0.069444
  19 C :   -0.055144
  20 C :   -0.248750
  21 H :    0.027158
  22 C :   -0.036470
  23 H :    0.033379
  24 H :    0.021238
  25 C :   -0.040682
  26 H :    0.027690
  27 H :    0.023779
  28 C :   -0.059158
  29 H :    0.033144
  30 H :    0.020293
  31 H :    0.018119
  32 H :    0.015800
  33 H :    0.038804

  Mayer bond orders larger than 0.100000
B(  0-S ,  1-C ) :   1.1232 B(  0-S ,  4-C ) :   1.1467 B(  1-C ,  2-C ) :   1.6357
B(  1-C , 32-H ) :   0.9782 B(  2-C ,  3-C ) :   1.2112 B(  2-C ,  6-C ) :   1.0179
B(  3-C ,  4-C ) :   1.6104 B(  3-C ,  5-H ) :   0.9971 B(  4-C , 20-C ) :   0.9670
B(  6-C ,  7-H ) :   0.9528 B(  6-C ,  8-H ) :   0.9320 B(  6-C ,  9-C ) :   1.0510
B(  9-C , 10-H ) :   0.9609 B(  9-C , 11-H ) :   0.9532 B(  9-C , 12-C ) :   1.0821
B( 12-C , 13-H ) :   0.9729 B( 12-C , 14-H ) :   0.9770 B( 12-C , 15-H ) :   0.9732
B( 16-S , 17-C ) :   1.1714 B( 16-S , 20-C ) :   1.1854 B( 17-C , 18-C ) :   1.5950
B( 17-C , 33-H ) :   0.9659 B( 18-C , 19-C ) :   1.2691 B( 18-C , 21-H ) :   0.9916
B( 19-C , 20-C ) :   1.5623 B( 19-C , 22-C ) :   1.0408 B( 22-C , 23-H ) :   0.9321
B( 22-C , 24-H ) :   0.9298 B( 22-C , 25-C ) :   1.0561 B( 25-C , 26-H ) :   0.9538
B( 25-C , 27-H ) :   0.9548 B( 25-C , 28-C ) :   1.0850 B( 28-C , 29-H ) :   0.9717
B( 28-C , 30-H ) :   0.9760 B( 28-C , 31-H ) :   0.9711

Dispersion correction           -0.014970737
FINAL SINGLE POINT ENERGY     -1339.862113420809

DIPOLE MOMENT
-------------
                                X             Y             Z
Electronic contribution:    -28.90707      -5.67564      -2.74989
Nuclear contribution   :     29.52281       6.06432       3.04596
                        -----------------------------------------
Total Dipole Moment    :      0.61574       0.38869       0.29608
                        -----------------------------------------
Magnitude (a.u.)       :      0.78605
Magnitude (Debye)      :      1.99799

Rotational constants in cm-1:     0.017948     0.008996     0.007685
Rotational constants in MHz :   538.056229   269.701857   230.377058

                             ****ORCA TERMINATED NORMALLY****
TOTAL RUN TIME: 0 days 0 hours 0 minutes 22 seconds 503 msec
