                         Program Version 4.2.1 -  RELEASE  -
|  1> ! wB97X-D3 SP def2-SVP
|  2> %pal
|  3> nprocs 24
|  4> end
|  5>
|  6> * xyz 0 1
|  7> S 	 -97.0341 	 -2.83478 	 -117.125
|  8> C 	 -97.5847 	 -1.89206 	 -118.505
|  9> C 	 -98.9347 	 -2.21364 	 -118.777
| 10> C 	 -99.3878 	 -3.21484 	 -117.886
| 11> C 	 -98.4336 	 -3.80385 	 -117.048
| 12> H 	 -100.347 	 -3.6412 	 -117.955
| 13> C 	 -99.729 	 -1.57986 	 -119.857
| 14> H 	 -100.154 	 -2.34862 	 -120.598
| 15> H 	 -99.0828 	 -1.02544 	 -120.613
| 16> C 	 -100.867 	 -0.515363 	 -119.551
| 17> H 	 -101.512 	 -0.875074 	 -118.846
| 18> H 	 -100.396 	 0.303438 	 -118.934
| 19> C 	 -101.594 	 0.248961 	 -120.733
| 20> H 	 -100.953 	 0.885251 	 -121.314
| 21> H 	 -102.16 	 -0.299585 	 -121.481
| 22> H 	 -102.294 	 0.934202 	 -120.232
| 23> S 	 -98.2587 	 -4.52171 	 -114.407
| 24> C 	 -98.7248 	 -6.16701 	 -113.9
| 25> C 	 -99.225 	 -6.74126 	 -114.986
| 26> C 	 -99.2801 	 -6.03027 	 -116.199
| 27> C 	 -98.6177 	 -4.853 	 -116.086
| 28> H 	 -99.6133 	 -7.73766 	 -114.898
| 29> C 	 -99.996 	 -6.59447 	 -117.394
| 30> H 	 -100.757 	 -5.89009 	 -117.736
| 31> H 	 -100.634 	 -7.48807 	 -117.068
| 32> C 	 -99.0683 	 -6.94735 	 -118.569
| 33> H 	 -98.5783 	 -5.98171 	 -118.896
| 34> H 	 -99.6964 	 -7.33757 	 -119.362
| 35> C 	 -98.1099 	 -8.14924 	 -118.111
| 36> H 	 -97.3997 	 -8.32659 	 -118.85
| 37> H 	 -98.6087 	 -9.13735 	 -118.07
| 38> H 	 -97.513 	 -7.97707 	 -117.24
| 39> H 	 -96.9078 	 -1.39361 	 -119.182
| 40> H 	 -99.0327 	 -6.47583 	 -112.936
| 41> *
| 42>
| 43>                          ****END OF INPUT****

CARTESIAN COORDINATES (ANGSTROEM)
---------------------------------
  S    -97.034100   -2.834780  -117.125000
  C    -97.584700   -1.892060  -118.505000
  C    -98.934700   -2.213640  -118.777000
  C    -99.387800   -3.214840  -117.886000
  C    -98.433600   -3.803850  -117.048000
  H    -100.347000   -3.641200  -117.955000
  C    -99.729000   -1.579860  -119.857000
  H    -100.154000   -2.348620  -120.598000
  H    -99.082800   -1.025440  -120.613000
  C    -100.867000   -0.515363  -119.551000
  H    -101.512000   -0.875074  -118.846000
  H    -100.396000    0.303438  -118.934000
  C    -101.594000    0.248961  -120.733000
  H    -100.953000    0.885251  -121.314000
  H    -102.160000   -0.299585  -121.481000
  H    -102.294000    0.934202  -120.232000
  S    -98.258700   -4.521710  -114.407000
  C    -98.724800   -6.167010  -113.900000
  C    -99.225000   -6.741260  -114.986000
  C    -99.280100   -6.030270  -116.199000
  C    -98.617700   -4.853000  -116.086000
  H    -99.613300   -7.737660  -114.898000
  C    -99.996000   -6.594470  -117.394000
  H    -100.757000   -5.890090  -117.736000
  H    -100.634000   -7.488070  -117.068000
  C    -99.068300   -6.947350  -118.569000
  H    -98.578300   -5.981710  -118.896000
  H    -99.696400   -7.337570  -119.362000
  C    -98.109900   -8.149240  -118.111000
  H    -97.399700   -8.326590  -118.850000
  H    -98.608700   -9.137350  -118.070000
  H    -97.513000   -7.977070  -117.240000
  H    -96.907800   -1.393610  -119.182000
  H    -99.032700   -6.475830  -112.936000

 Total Charge           Charge          ....    0
 Multiplicity           Mult            ....    1
 Number of Electrons    NEL             ....  134
 Basis Dimension        Dim             ....  322

ORBITAL ENERGIES
----------------

  NO   OCC          E(Eh)            E(eV)
   0   2.0000     -88.967686     -2420.9338
   1   2.0000     -88.961278     -2420.7594
   2   2.0000     -10.330396      -281.1044
   3   2.0000     -10.326274      -280.9922
   4   2.0000     -10.318612      -280.7837
   5   2.0000     -10.309629      -280.5393
   6   2.0000     -10.308294      -280.5029
   7   2.0000     -10.305451      -280.4256
   8   2.0000     -10.296164      -280.1729
   9   2.0000     -10.295891      -280.1654
  10   2.0000     -10.294643      -280.1315
  11   2.0000     -10.293170      -280.0914
  12   2.0000     -10.292535      -280.0741
  13   2.0000     -10.285698      -279.8881
  14   2.0000     -10.284114      -279.8450
  15   2.0000     -10.272117      -279.5185
  16   2.0000      -8.082993      -219.9494
  17   2.0000      -8.075962      -219.7581
  18   2.0000      -6.041377      -164.3942
  19   2.0000      -6.037176      -164.2799
  20   2.0000      -6.034704      -164.2126
  21   2.0000      -6.034072      -164.1955
  22   2.0000      -6.030521      -164.0988
  23   2.0000      -6.026395      -163.9865
  24   2.0000      -1.016414       -27.6580
  25   2.0000      -0.991503       -26.9802
  26   2.0000      -0.905870       -24.6500
  27   2.0000      -0.905222       -24.6324
  28   2.0000      -0.874031       -23.7836
  29   2.0000      -0.850103       -23.1325
  30   2.0000      -0.839748       -22.8507
  31   2.0000      -0.818701       -22.2780
  32   2.0000      -0.784477       -21.3467
  33   2.0000      -0.777708       -21.1625
  34   2.0000      -0.719188       -19.5701
  35   2.0000      -0.707480       -19.2515
  36   2.0000      -0.692694       -18.8492
  37   2.0000      -0.664727       -18.0881
  38   2.0000      -0.645463       -17.5640
  39   2.0000      -0.624554       -16.9950
  40   2.0000      -0.594231       -16.1698
  41   2.0000      -0.570780       -15.5317
  42   2.0000      -0.554547       -15.0900
  43   2.0000      -0.548783       -14.9331
  44   2.0000      -0.542748       -14.7689
  45   2.0000      -0.521700       -14.1962
  46   2.0000      -0.518924       -14.1206
  47   2.0000      -0.514592       -14.0028
  48   2.0000      -0.506866       -13.7925
  49   2.0000      -0.500320       -13.6144
  50   2.0000      -0.489769       -13.3273
  51   2.0000      -0.476427       -12.9642
  52   2.0000      -0.474216       -12.9041
  53   2.0000      -0.467407       -12.7188
  54   2.0000      -0.459592       -12.5061
  55   2.0000      -0.451703       -12.2915
  56   2.0000      -0.440622       -11.9899
  57   2.0000      -0.435437       -11.8488
  58   2.0000      -0.429551       -11.6887
  59   2.0000      -0.427517       -11.6333
  60   2.0000      -0.419891       -11.4258
  61   2.0000      -0.415032       -11.2936
  62   2.0000      -0.405690       -11.0394
  63   2.0000      -0.354829        -9.6554
  64   2.0000      -0.332007        -9.0344
  65   2.0000      -0.328465        -8.9380
  66   2.0000      -0.292289        -7.9536
  67   0.0000       0.023971         0.6523
  68   0.0000       0.061604         1.6763
  69   0.0000       0.109154         2.9702
  70   0.0000       0.120231         3.2716
  71   0.0000       0.131545         3.5795

MULLIKEN ATOMIC CHARGES
-----------------------
   0 S :    0.114596
   1 C :   -0.115481
   2 C :   -0.063382
   3 C :    0.053364
   4 C :   -0.177296
   5 H :   -0.013877
   6 C :    0.004028
   7 H :    0.039957
   8 H :    0.019820
   9 C :   -0.047792
  10 H :    0.008593
  11 H :    0.028431
  12 C :   -0.055005
  13 H :    0.027448
  14 H :    0.034947
  15 H :    0.037252
  16 S :    0.081797
  17 C :   -0.056579
  18 C :   -0.047774
  19 C :   -0.027878
  20 C :   -0.122798
  21 H :    0.007180
  22 C :    0.038126
  23 H :    0.029410
  24 H :    0.026303
  25 C :   -0.072437
  26 H :    0.062613
  27 H :    0.031117
  28 C :   -0.043443
  29 H :    0.011310
  30 H :    0.030322
  31 H :    0.042556
  32 H :    0.060649
  33 H :    0.053926
Sum of atomic charges:   -0.0000000

LOEWDIN ATOMIC CHARGES
----------------------
   0 S :    0.433025
   1 C :   -0.194232
   2 C :   -0.064050
   3 C :   -0.060785
   4 C :   -0.208100
   5 H :    0.019243
   6 C :   -0.050901
   7 H :    0.036592
   8 H :    0.034661
   9 C :   -0.035786
  10 H :    0.007515
  11 H :    0.034016
  12 C :   -0.065587
  13 H :    0.022136
  14 H :    0.022953
  15 H :    0.034755
  16 S :    0.385420
  17 C :   -0.176772
  18 C :   -0.064845
  19 C :   -0.063664
  20 C :   -0.188960
  21 H :    0.026605
  22 C :   -0.038434
  23 H :    0.026780
  24 H :    0.035864
  25 C :   -0.032982
  26 H :    0.035255
  27 H :    0.023834
  28 C :   -0.067453
  29 H :    0.017016
  30 H :    0.030584
  31 H :    0.024726
  32 H :    0.029748
  33 H :    0.031824

  Mayer bond orders larger than 0.100000
B(  0-S ,  1-C ) :   1.1600 B(  0-S ,  4-C ) :   1.1796 B(  1-C ,  2-C ) :   1.5484
B(  1-C ,  4-C ) :   0.1143 B(  1-C , 32-H ) :   0.9676 B(  2-C ,  3-C ) :   1.2866
B(  2-C ,  6-C ) :   1.0454 B(  3-C ,  4-C ) :   1.5098 B(  3-C ,  5-H ) :   0.9996
B(  4-C , 20-C ) :   1.0480 B(  6-C ,  7-H ) :   0.9381 B(  6-C ,  8-H ) :   0.9427
B(  6-C ,  9-C ) :   1.0423 B(  9-C , 10-H ) :   0.9633 B(  9-C , 11-H ) :   0.9518
B(  9-C , 12-C ) :   1.0694 B( 12-C , 13-H ) :   0.9773 B( 12-C , 14-H ) :   0.9795
B( 12-C , 15-H ) :   0.9745 B( 16-S , 17-C ) :   1.1164 B( 16-S , 20-C ) :   1.1474
B( 17-C , 18-C ) :   1.6397 B( 17-C , 33-H ) :   0.9658 B( 18-C , 19-C ) :   1.2499
B( 18-C , 21-H ) :   0.9815 B( 19-C , 20-C ) :   1.5995 B( 19-C , 22-C ) :   1.0385
B( 22-C , 23-H ) :   0.9302 B( 22-C , 24-H ) :   0.9349 B( 22-C , 25-C ) :   1.0752
B( 25-C , 26-H ) :   0.9559 B( 25-C , 27-H ) :   0.9552 B( 25-C , 28-C ) :   1.0603
B( 28-C , 29-H ) :   0.9734 B( 28-C , 30-H ) :   0.9747 B( 28-C , 31-H ) :   0.9778

Dispersion correction           -0.014474534
FINAL SINGLE POINT ENERGY     -1339.849660258076

DIPOLE MOMENT
-------------
                                X             Y             Z
Electronic contribution:     14.29682       0.81470      21.66307
Nuclear contribution   :    -14.91608      -1.00260     -22.19408
                        -----------------------------------------
Total Dipole Moment    :     -0.61926      -0.18790      -0.53100
                        -----------------------------------------
Magnitude (a.u.)       :      0.83711
Magnitude (Debye)      :      2.12776

Rotational constants in cm-1:     0.020774     0.007671     0.006776
Rotational constants in MHz :   622.800383   229.975858   203.137118

                             ****ORCA TERMINATED NORMALLY****
TOTAL RUN TIME: 0 days 0 hours 0 minutes 20 seconds 539 msec
