                         Program Version 4.2.1 -  RELEASE  -
|  1> ! wB97X-D3 SP def2-SVP
|  2> %pal
|  3> nprocs 24
|  4> end
|  5>
|  6> * xyz 0 1
|  7> S 	 -106.359 	 53.038 	 -87.1205
|  8> C 	 -107.872 	 52.1666 	 -86.9052
|  9> C 	 -108.897 	 53.0767 	 -86.5386
| 10> C 	 -108.4 	 54.4281 	 -86.5558
| 11> C 	 -107.062 	 54.5662 	 -86.6313
| 12> H 	 -109.111 	 55.226 	 -86.3686
| 13> C 	 -110.324 	 52.7214 	 -86.0906
| 14> H 	 -110.287 	 51.7371 	 -85.695
| 15> H 	 -110.935 	 52.5809 	 -87.0569
| 16> C 	 -110.985 	 53.7094 	 -85.0885
| 17> H 	 -111.003 	 54.6745 	 -85.4979
| 18> H 	 -111.972 	 53.3087 	 -84.9113
| 19> C 	 -110.335 	 53.7886 	 -83.6896
| 20> H 	 -109.79 	 52.82 	 -83.4664
| 21> H 	 -109.574 	 54.5251 	 -83.7783
| 22> H 	 -111.086 	 54.0896 	 -82.8899
| 23> S 	 -105.05 	 55.9831 	 -85.2451
| 24> C 	 -104.523 	 57.585 	 -85.6987
| 25> C 	 -105.479 	 57.9965 	 -86.6125
| 26> C 	 -106.402 	 57.0325 	 -87.1135
| 27> C 	 -106.221 	 55.7642 	 -86.552
| 28> H 	 -105.543 	 58.972 	 -87.0151
| 29> C 	 -107.587 	 57.2477 	 -88.0789
| 30> H 	 -107.979 	 56.2973 	 -88.4044
| 31> H 	 -107.272 	 57.6984 	 -89.006
| 32> C 	 -108.671 	 58.0293 	 -87.3679
| 33> H 	 -108.197 	 58.8969 	 -86.9665
| 34> H 	 -108.936 	 57.3494 	 -86.5808
| 35> C 	 -109.833 	 58.6107 	 -88.2641
| 36> H 	 -109.343 	 59.3227 	 -88.9743
| 37> H 	 -110.602 	 59.1955 	 -87.7978
| 38> H 	 -110.311 	 57.7648 	 -88.8231
| 39> H 	 -107.947 	 51.1278 	 -86.7235
| 40> H 	 -103.754 	 58.1451 	 -85.2157
| 41> *
| 42>
| 43>                          ****END OF INPUT****

CARTESIAN COORDINATES (ANGSTROEM)
---------------------------------
  S    -106.359000   53.038000  -87.120500
  C    -107.872000   52.166600  -86.905200
  C    -108.897000   53.076700  -86.538600
  C    -108.400000   54.428100  -86.555800
  C    -107.062000   54.566200  -86.631300
  H    -109.111000   55.226000  -86.368600
  C    -110.324000   52.721400  -86.090600
  H    -110.287000   51.737100  -85.695000
  H    -110.935000   52.580900  -87.056900
  C    -110.985000   53.709400  -85.088500
  H    -111.003000   54.674500  -85.497900
  H    -111.972000   53.308700  -84.911300
  C    -110.335000   53.788600  -83.689600
  H    -109.790000   52.820000  -83.466400
  H    -109.574000   54.525100  -83.778300
  H    -111.086000   54.089600  -82.889900
  S    -105.050000   55.983100  -85.245100
  C    -104.523000   57.585000  -85.698700
  C    -105.479000   57.996500  -86.612500
  C    -106.402000   57.032500  -87.113500
  C    -106.221000   55.764200  -86.552000
  H    -105.543000   58.972000  -87.015100
  C    -107.587000   57.247700  -88.078900
  H    -107.979000   56.297300  -88.404400
  H    -107.272000   57.698400  -89.006000
  C    -108.671000   58.029300  -87.367900
  H    -108.197000   58.896900  -86.966500
  H    -108.936000   57.349400  -86.580800
  C    -109.833000   58.610700  -88.264100
  H    -109.343000   59.322700  -88.974300
  H    -110.602000   59.195500  -87.797800
  H    -110.311000   57.764800  -88.823100
  H    -107.947000   51.127800  -86.723500
  H    -103.754000   58.145100  -85.215700

 Total Charge           Charge          ....    0
 Multiplicity           Mult            ....    1
 Number of Electrons    NEL             ....  134
 Basis Dimension        Dim             ....  322

ORBITAL ENERGIES
----------------

  NO   OCC          E(Eh)            E(eV)
   0   2.0000     -88.964786     -2420.8549
   1   2.0000     -88.962379     -2420.7894
   2   2.0000     -10.332108      -281.1509
   3   2.0000     -10.329859      -281.0897
   4   2.0000     -10.324111      -280.9333
   5   2.0000     -10.314815      -280.6804
   6   2.0000     -10.307742      -280.4879
   7   2.0000     -10.305691      -280.4321
   8   2.0000     -10.301897      -280.3289
   9   2.0000     -10.295682      -280.1597
  10   2.0000     -10.295074      -280.1432
  11   2.0000     -10.287939      -279.9490
  12   2.0000     -10.287873      -279.9472
  13   2.0000     -10.287267      -279.9308
  14   2.0000     -10.285015      -279.8695
  15   2.0000     -10.283476      -279.8276
  16   2.0000      -8.079360      -219.8506
  17   2.0000      -8.076983      -219.7859
  18   2.0000      -6.037961      -164.3013
  19   2.0000      -6.035493      -164.2341
  20   2.0000      -6.033807      -164.1882
  21   2.0000      -6.031380      -164.1222
  22   2.0000      -6.030098      -164.0873
  23   2.0000      -6.027820      -164.0253
  24   2.0000      -1.007504       -27.4156
  25   2.0000      -0.985538       -26.8179
  26   2.0000      -0.911816       -24.8118
  27   2.0000      -0.910187       -24.7675
  28   2.0000      -0.870595       -23.6901
  29   2.0000      -0.844914       -22.9913
  30   2.0000      -0.839899       -22.8548
  31   2.0000      -0.818968       -22.2852
  32   2.0000      -0.783417       -21.3179
  33   2.0000      -0.773555       -21.0495
  34   2.0000      -0.710234       -19.3265
  35   2.0000      -0.702253       -19.1093
  36   2.0000      -0.694481       -18.8978
  37   2.0000      -0.660655       -17.9773
  38   2.0000      -0.642331       -17.4787
  39   2.0000      -0.630905       -17.1678
  40   2.0000      -0.603654       -16.4263
  41   2.0000      -0.572356       -15.5746
  42   2.0000      -0.568724       -15.4758
  43   2.0000      -0.546989       -14.8843
  44   2.0000      -0.545467       -14.8429
  45   2.0000      -0.530496       -14.4355
  46   2.0000      -0.515910       -14.0386
  47   2.0000      -0.512326       -13.9411
  48   2.0000      -0.511213       -13.9108
  49   2.0000      -0.501442       -13.6449
  50   2.0000      -0.489503       -13.3200
  51   2.0000      -0.480557       -13.0766
  52   2.0000      -0.472124       -12.8472
  53   2.0000      -0.464812       -12.6482
  54   2.0000      -0.462141       -12.5755
  55   2.0000      -0.447847       -12.1865
  56   2.0000      -0.444872       -12.1056
  57   2.0000      -0.435997       -11.8641
  58   2.0000      -0.431078       -11.7302
  59   2.0000      -0.427424       -11.6308
  60   2.0000      -0.422421       -11.4947
  61   2.0000      -0.411408       -11.1950
  62   2.0000      -0.407539       -11.0897
  63   2.0000      -0.342254        -9.3132
  64   2.0000      -0.328462        -8.9379
  65   2.0000      -0.325307        -8.8521
  66   2.0000      -0.303521        -8.2592
  67   0.0000       0.023467         0.6386
  68   0.0000       0.065057         1.7703
  69   0.0000       0.112622         3.0646
  70   0.0000       0.117840         3.2066
  71   0.0000       0.126962         3.4548

MULLIKEN ATOMIC CHARGES
-----------------------
   0 S :    0.109270
   1 C :   -0.097410
   2 C :   -0.145573
   3 C :    0.030550
   4 C :   -0.140443
   5 H :   -0.002705
   6 C :    0.054494
   7 H :    0.012863
   8 H :    0.058161
   9 C :   -0.063234
  10 H :    0.027143
  11 H :    0.030683
  12 C :   -0.067843
  13 H :    0.041798
  14 H :    0.027116
  15 H :    0.054659
  16 S :    0.090121
  17 C :   -0.074884
  18 C :   -0.013665
  19 C :   -0.065940
  20 C :   -0.134361
  21 H :    0.002012
  22 C :    0.086163
  23 H :    0.023161
  24 H :    0.013064
  25 C :   -0.065044
  26 H :    0.019449
  27 H :    0.018873
  28 C :   -0.049037
  29 H :    0.035057
  30 H :    0.039695
  31 H :    0.038443
  32 H :    0.043282
  33 H :    0.064079
Sum of atomic charges:   -0.0000000

LOEWDIN ATOMIC CHARGES
----------------------
   0 S :    0.408402
   1 C :   -0.198030
   2 C :   -0.057641
   3 C :   -0.066696
   4 C :   -0.191269
   5 H :    0.026696
   6 C :   -0.034071
   7 H :    0.023733
   8 H :    0.046976
   9 C :   -0.038146
  10 H :    0.014361
  11 H :    0.027133
  12 C :   -0.068337
  13 H :    0.033413
  14 H :    0.018525
  15 H :    0.036853
  16 S :    0.404418
  17 C :   -0.176437
  18 C :   -0.072133
  19 C :   -0.050506
  20 C :   -0.200987
  21 H :    0.021111
  22 C :   -0.025230
  23 H :    0.027158
  24 H :    0.022843
  25 C :   -0.037044
  26 H :    0.020035
  27 H :    0.016667
  28 C :   -0.068323
  29 H :    0.031038
  30 H :    0.023308
  31 H :    0.028238
  32 H :    0.020792
  33 H :    0.033151

  Mayer bond orders larger than 0.100000
B(  0-S ,  1-C ) :   1.1440 B(  0-S ,  4-C ) :   1.1550 B(  1-C ,  2-C ) :   1.6084
B(  1-C ,  4-C ) :   0.1040 B(  1-C , 32-H ) :   0.9664 B(  2-C ,  3-C ) :   1.2614
B(  2-C ,  6-C ) :   1.0072 B(  3-C ,  4-C ) :   1.5740 B(  3-C ,  5-H ) :   0.9856
B(  4-C , 20-C ) :   1.0131 B(  6-C ,  7-H ) :   0.9406 B(  6-C ,  8-H ) :   0.9353
B(  6-C ,  9-C ) :   1.0821 B(  9-C , 10-H ) :   0.9578 B(  9-C , 11-H ) :   0.9534
B(  9-C , 12-C ) :   1.0625 B( 12-C , 13-H ) :   0.9768 B( 12-C , 14-H ) :   0.9755
B( 12-C , 15-H ) :   0.9764 B( 16-S , 17-C ) :   1.1680 B( 16-S , 20-C ) :   1.1566
B( 17-C , 18-C ) :   1.5332 B( 17-C , 20-C ) :   0.1119 B( 17-C , 33-H ) :   0.9817
B( 18-C , 19-C ) :   1.2956 B( 18-C , 21-H ) :   0.9897 B( 19-C , 20-C ) :   1.5520
B( 19-C , 22-C ) :   1.0459 B( 22-C , 23-H ) :   0.9313 B( 22-C , 24-H ) :   0.9325
B( 22-C , 25-C ) :   1.0506 B( 25-C , 26-H ) :   0.9595 B( 25-C , 27-H ) :   0.9529
B( 25-C , 28-C ) :   1.0655 B( 28-C , 29-H ) :   0.9742 B( 28-C , 30-H ) :   0.9778
B( 28-C , 31-H ) :   0.9768

Dispersion correction           -0.015084170
FINAL SINGLE POINT ENERGY     -1339.860444158445

DIPOLE MOMENT
-------------
                                X             Y             Z
Electronic contribution:     25.96371      -8.30478      -0.27849
Nuclear contribution   :    -26.64461       8.66339       0.35746
                        -----------------------------------------
Total Dipole Moment    :     -0.68090       0.35861       0.07898
                        -----------------------------------------
Magnitude (a.u.)       :      0.77361
Magnitude (Debye)      :      1.96636

Rotational constants in cm-1:     0.016068     0.010068     0.007876
Rotational constants in MHz :   481.716396   301.833857   236.102122

                             ****ORCA TERMINATED NORMALLY****
TOTAL RUN TIME: 0 days 0 hours 0 minutes 21 seconds 346 msec
