                         Program Version 4.2.1 -  RELEASE  -
|  1> ! wB97X-D3 SP def2-SVP
|  2> %pal
|  3> nprocs 24
|  4> end
|  5>
|  6> * xyz 0 1
|  7> S 	 -78.5837 	 -22.3756 	 -55.0505
|  8> C 	 -79.2066 	 -20.8363 	 -54.4999
|  9> C 	 -79.356 	 -20.7937 	 -53.1542
| 10> C 	 -79.2148 	 -22.117 	 -52.5944
| 11> C 	 -78.6546 	 -23.0545 	 -53.4582
| 12> H 	 -79.4497 	 -22.4381 	 -51.5986
| 13> C 	 -79.9115 	 -19.6176 	 -52.3299
| 14> H 	 -79.7521 	 -18.692 	 -52.9501
| 15> H 	 -79.3081 	 -19.3782 	 -51.4296
| 16> C 	 -81.4255 	 -19.6732 	 -52.0289
| 17> H 	 -81.6501 	 -20.4331 	 -51.2647
| 18> H 	 -81.699 	 -18.6559 	 -51.5786
| 19> C 	 -82.4052 	 -19.9108 	 -53.2128
| 20> H 	 -82.4613 	 -19.0464 	 -53.9301
| 21> H 	 -82.1175 	 -20.8496 	 -53.7804
| 22> H 	 -83.3761 	 -19.9943 	 -52.9631
| 23> S 	 -79.2735 	 -24.9922 	 -51.7049
| 24> C 	 -78.4614 	 -26.587 	 -51.7384
| 25> C 	 -77.8296 	 -26.715 	 -52.946
| 26> C 	 -77.9208 	 -25.5522 	 -53.7956
| 27> C 	 -78.482 	 -24.426 	 -53.1716
| 28> H 	 -77.4832 	 -27.6805 	 -53.3907
| 29> C 	 -77.1963 	 -25.6599 	 -55.1518
| 30> H 	 -76.3331 	 -26.365 	 -55.0612
| 31> H 	 -76.8216 	 -24.6765 	 -55.3928
| 32> C 	 -77.9499 	 -26.2588 	 -56.4129
| 33> H 	 -78.1515 	 -27.3002 	 -56.4846
| 34> H 	 -77.193 	 -26.1045 	 -57.1887
| 35> C 	 -79.3023 	 -25.5385 	 -56.6485
| 36> H 	 -80.034 	 -25.8216 	 -55.8405
| 37> H 	 -79.6939 	 -25.7973 	 -57.5801
| 38> H 	 -79.3992 	 -24.4715 	 -56.5086
| 39> H 	 -79.3243 	 -19.9789 	 -55.0257
| 40> H 	 -78.6518 	 -27.3976 	 -51.0916
| 41> *
| 42>
| 43>                          ****END OF INPUT****

CARTESIAN COORDINATES (ANGSTROEM)
---------------------------------
  S    -78.583700  -22.375600  -55.050500
  C    -79.206600  -20.836300  -54.499900
  C    -79.356000  -20.793700  -53.154200
  C    -79.214800  -22.117000  -52.594400
  C    -78.654600  -23.054500  -53.458200
  H    -79.449700  -22.438100  -51.598600
  C    -79.911500  -19.617600  -52.329900
  H    -79.752100  -18.692000  -52.950100
  H    -79.308100  -19.378200  -51.429600
  C    -81.425500  -19.673200  -52.028900
  H    -81.650100  -20.433100  -51.264700
  H    -81.699000  -18.655900  -51.578600
  C    -82.405200  -19.910800  -53.212800
  H    -82.461300  -19.046400  -53.930100
  H    -82.117500  -20.849600  -53.780400
  H    -83.376100  -19.994300  -52.963100
  S    -79.273500  -24.992200  -51.704900
  C    -78.461400  -26.587000  -51.738400
  C    -77.829600  -26.715000  -52.946000
  C    -77.920800  -25.552200  -53.795600
  C    -78.482000  -24.426000  -53.171600
  H    -77.483200  -27.680500  -53.390700
  C    -77.196300  -25.659900  -55.151800
  H    -76.333100  -26.365000  -55.061200
  H    -76.821600  -24.676500  -55.392800
  C    -77.949900  -26.258800  -56.412900
  H    -78.151500  -27.300200  -56.484600
  H    -77.193000  -26.104500  -57.188700
  C    -79.302300  -25.538500  -56.648500
  H    -80.034000  -25.821600  -55.840500
  H    -79.693900  -25.797300  -57.580100
  H    -79.399200  -24.471500  -56.508600
  H    -79.324300  -19.978900  -55.025700
  H    -78.651800  -27.397600  -51.091600

 Total Charge           Charge          ....    0
 Multiplicity           Mult            ....    1
 Number of Electrons    NEL             ....  134
 Basis Dimension        Dim             ....  322

ORBITAL ENERGIES
----------------

  NO   OCC          E(Eh)            E(eV)
   0   2.0000     -88.971294     -2421.0320
   1   2.0000     -88.962914     -2420.8040
   2   2.0000     -10.332545      -281.1629
   3   2.0000     -10.330826      -281.1161
   4   2.0000     -10.318995      -280.7941
   5   2.0000     -10.308835      -280.5177
   6   2.0000     -10.306853      -280.4637
   7   2.0000     -10.304256      -280.3931
   8   2.0000     -10.304117      -280.3893
   9   2.0000     -10.298775      -280.2439
  10   2.0000     -10.297317      -280.2043
  11   2.0000     -10.297138      -280.1994
  12   2.0000     -10.295101      -280.1439
  13   2.0000     -10.288677      -279.9691
  14   2.0000     -10.277038      -279.6524
  15   2.0000     -10.266538      -279.3667
  16   2.0000      -8.085539      -220.0187
  17   2.0000      -8.077094      -219.7889
  18   2.0000      -6.044225      -164.4717
  19   2.0000      -6.040092      -164.3593
  20   2.0000      -6.036129      -164.2514
  21   2.0000      -6.035904      -164.2453
  22   2.0000      -6.031805      -164.1338
  23   2.0000      -6.027422      -164.0145
  24   2.0000      -1.012542       -27.5527
  25   2.0000      -0.984067       -26.7778
  26   2.0000      -0.908780       -24.7292
  27   2.0000      -0.898026       -24.4365
  28   2.0000      -0.878178       -23.8964
  29   2.0000      -0.848723       -23.0949
  30   2.0000      -0.837810       -22.7980
  31   2.0000      -0.814439       -22.1620
  32   2.0000      -0.789038       -21.4708
  33   2.0000      -0.773738       -21.0545
  34   2.0000      -0.719423       -19.5765
  35   2.0000      -0.700259       -19.0550
  36   2.0000      -0.693240       -18.8640
  37   2.0000      -0.672147       -18.2900
  38   2.0000      -0.636718       -17.3260
  39   2.0000      -0.614214       -16.7136
  40   2.0000      -0.593828       -16.1589
  41   2.0000      -0.573761       -15.6128
  42   2.0000      -0.551562       -15.0088
  43   2.0000      -0.544783       -14.8243
  44   2.0000      -0.541003       -14.7214
  45   2.0000      -0.531420       -14.4607
  46   2.0000      -0.520918       -14.1749
  47   2.0000      -0.512221       -13.9383
  48   2.0000      -0.509501       -13.8642
  49   2.0000      -0.502193       -13.6654
  50   2.0000      -0.491894       -13.3851
  51   2.0000      -0.476588       -12.9686
  52   2.0000      -0.471052       -12.8180
  53   2.0000      -0.461126       -12.5479
  54   2.0000      -0.458749       -12.4832
  55   2.0000      -0.453647       -12.3444
  56   2.0000      -0.450974       -12.2716
  57   2.0000      -0.441740       -12.0204
  58   2.0000      -0.421889       -11.4802
  59   2.0000      -0.417823       -11.3696
  60   2.0000      -0.414866       -11.2891
  61   2.0000      -0.410087       -11.1590
  62   2.0000      -0.401605       -10.9282
  63   2.0000      -0.369380       -10.0513
  64   2.0000      -0.334652        -9.1063
  65   2.0000      -0.324509        -8.8303
  66   2.0000      -0.283250        -7.7076
  67   0.0000       0.011534         0.3139
  68   0.0000       0.083850         2.2817
  69   0.0000       0.106672         2.9027
  70   0.0000       0.110254         3.0002
  71   0.0000       0.126766         3.4495

MULLIKEN ATOMIC CHARGES
-----------------------
   0 S :    0.109002
   1 C :   -0.058985
   2 C :   -0.073775
   3 C :   -0.040469
   4 C :   -0.087204
   5 H :    0.020370
   6 C :    0.057199
   7 H :    0.019508
   8 H :    0.047273
   9 C :   -0.101865
  10 H :    0.040266
  11 H :    0.040661
  12 C :   -0.044705
  13 H :    0.025139
  14 H :    0.054599
  15 H :    0.010004
  16 S :    0.055597
  17 C :   -0.056135
  18 C :   -0.035176
  19 C :   -0.064444
  20 C :   -0.112062
  21 H :    0.037863
  22 C :    0.009706
  23 H :    0.034505
  24 H :    0.026731
  25 C :   -0.039381
  26 H :    0.024032
  27 H :    0.030526
  28 C :   -0.057699
  29 H :    0.037353
  30 H :    0.021385
  31 H :    0.019938
  32 H :    0.000766
  33 H :    0.049478
Sum of atomic charges:    0.0000000

LOEWDIN ATOMIC CHARGES
----------------------
   0 S :    0.432980
   1 C :   -0.175240
   2 C :   -0.058867
   3 C :   -0.064719
   4 C :   -0.198051
   5 H :    0.017085
   6 C :   -0.036657
   7 H :    0.032320
   8 H :    0.038666
   9 C :   -0.044127
  10 H :    0.024037
  11 H :    0.033130
  12 C :   -0.068391
  13 H :    0.028082
  14 H :    0.036071
  15 H :    0.009457
  16 S :    0.388655
  17 C :   -0.165780
  18 C :   -0.070480
  19 C :   -0.066043
  20 C :   -0.182552
  21 H :    0.039218
  22 C :   -0.033605
  23 H :    0.035377
  24 H :    0.021166
  25 C :   -0.033587
  26 H :    0.019646
  27 H :    0.026483
  28 C :   -0.076447
  29 H :    0.035187
  30 H :    0.014953
  31 H :    0.008175
  32 H :    0.009021
  33 H :    0.024834

  Mayer bond orders larger than 0.100000
B(  0-S ,  1-C ) :   1.1323 B(  0-S ,  4-C ) :   1.1262 B(  1-C ,  2-C ) :   1.6342
B(  1-C , 32-H ) :   0.9684 B(  2-C ,  3-C ) :   1.2130 B(  2-C ,  6-C ) :   1.0331
B(  3-C ,  4-C ) :   1.5557 B(  3-C ,  5-H ) :   0.9812 B(  4-C , 20-C ) :   1.1440
B(  6-C ,  7-H ) :   0.9397 B(  6-C ,  8-H ) :   0.9423 B(  6-C ,  9-C ) :   1.0595
B(  9-C , 10-H ) :   0.9593 B(  9-C , 11-H ) :   0.9556 B(  9-C , 12-C ) :   1.0752
B( 12-C , 13-H ) :   0.9741 B( 12-C , 14-H ) :   0.9703 B( 12-C , 15-H ) :   0.9731
B( 16-S , 17-C ) :   1.1234 B( 16-S , 20-C ) :   1.1220 B( 17-C , 18-C ) :   1.6203
B( 17-C , 33-H ) :   0.9747 B( 18-C , 19-C ) :   1.2547 B( 18-C , 21-H ) :   0.9741
B( 19-C , 20-C ) :   1.5407 B( 19-C , 22-C ) :   1.0396 B( 22-C , 23-H ) :   0.9451
B( 22-C , 24-H ) :   0.9427 B( 22-C , 25-C ) :   1.0590 B( 25-C , 26-H ) :   0.9582
B( 25-C , 27-H ) :   0.9581 B( 25-C , 28-C ) :   1.0648 B( 28-C , 29-H ) :   0.9683
B( 28-C , 30-H ) :   0.9754 B( 28-C , 31-H ) :   0.9735

Dispersion correction           -0.015127691
FINAL SINGLE POINT ENERGY     -1339.853134323482

DIPOLE MOMENT
-------------
                                X             Y             Z
Electronic contribution:      8.55628      -5.81088       7.49500
Nuclear contribution   :     -8.73643       5.87204      -7.56050
                        -----------------------------------------
Total Dipole Moment    :     -0.18015       0.06116      -0.06550
                        -----------------------------------------
Magnitude (a.u.)       :      0.20121
Magnitude (Debye)      :      0.51143

Rotational constants in cm-1:     0.022439     0.008669     0.007051
Rotational constants in MHz :   672.703001   259.876038   211.384933

                             ****ORCA TERMINATED NORMALLY****
TOTAL RUN TIME: 0 days 0 hours 0 minutes 23 seconds 148 msec
