                         Program Version 4.2.1 -  RELEASE  -
|  1> ! wB97X-D3 SP def2-SVP
|  2> %pal
|  3> nprocs 24
|  4> end
|  5>
|  6> * xyz 0 1
|  7> S 	 -62.1635 	 12.4644 	 -122.407
|  8> C 	 -61.5159 	 12.0795 	 -120.788
|  9> C 	 -62.2071 	 12.7487 	 -119.786
| 10> C 	 -63.0093 	 13.7951 	 -120.332
| 11> C 	 -63.065 	 13.7699 	 -121.721
| 12> H 	 -63.4873 	 14.5773 	 -119.787
| 13> C 	 -61.9478 	 12.6623 	 -118.326
| 14> H 	 -62.9497 	 12.6779 	 -117.776
| 15> H 	 -61.5497 	 13.5122 	 -117.859
| 16> C 	 -61.1656 	 11.4327 	 -117.792
| 17> H 	 -61.7372 	 10.5534 	 -117.835
| 18> H 	 -60.307 	 11.2098 	 -118.485
| 19> C 	 -60.8361 	 11.5071 	 -116.281
| 20> H 	 -61.7593 	 11.5809 	 -115.756
| 21> H 	 -60.4608 	 10.4917 	 -116.026
| 22> H 	 -60.0756 	 12.3278 	 -115.966
| 23> S 	 -62.9829 	 15.3668 	 -123.972
| 24> C 	 -64.2497 	 16.5641 	 -124.114
| 25> C 	 -65.185 	 16.5328 	 -123.154
| 26> C 	 -64.9154 	 15.4943 	 -122.224
| 27> C 	 -63.7914 	 14.7368 	 -122.541
| 28> H 	 -65.9604 	 17.2819 	 -123.164
| 29> C 	 -65.8228 	 15.314 	 -120.994
| 30> H 	 -65.7783 	 14.335 	 -120.57
| 31> H 	 -66.8294 	 15.2957 	 -121.384
| 32> C 	 -65.6823 	 16.3807 	 -119.844
| 33> H 	 -66.0781 	 17.34 	 -120.146
| 34> H 	 -64.5967 	 16.4915 	 -119.696
| 35> C 	 -66.3048 	 15.8564 	 -118.558
| 36> H 	 -65.7538 	 14.9965 	 -118.041
| 37> H 	 -67.3159 	 15.5495 	 -118.716
| 38> H 	 -66.3423 	 16.6523 	 -117.758
| 39> H 	 -60.7544 	 11.3044 	 -120.554
| 40> H 	 -64.2764 	 17.1396 	 -125.041
| 41> *
| 42>
| 43>                          ****END OF INPUT****

CARTESIAN COORDINATES (ANGSTROEM)
---------------------------------
  S    -62.163500   12.464400  -122.407000
  C    -61.515900   12.079500  -120.788000
  C    -62.207100   12.748700  -119.786000
  C    -63.009300   13.795100  -120.332000
  C    -63.065000   13.769900  -121.721000
  H    -63.487300   14.577300  -119.787000
  C    -61.947800   12.662300  -118.326000
  H    -62.949700   12.677900  -117.776000
  H    -61.549700   13.512200  -117.859000
  C    -61.165600   11.432700  -117.792000
  H    -61.737200   10.553400  -117.835000
  H    -60.307000   11.209800  -118.485000
  C    -60.836100   11.507100  -116.281000
  H    -61.759300   11.580900  -115.756000
  H    -60.460800   10.491700  -116.026000
  H    -60.075600   12.327800  -115.966000
  S    -62.982900   15.366800  -123.972000
  C    -64.249700   16.564100  -124.114000
  C    -65.185000   16.532800  -123.154000
  C    -64.915400   15.494300  -122.224000
  C    -63.791400   14.736800  -122.541000
  H    -65.960400   17.281900  -123.164000
  C    -65.822800   15.314000  -120.994000
  H    -65.778300   14.335000  -120.570000
  H    -66.829400   15.295700  -121.384000
  C    -65.682300   16.380700  -119.844000
  H    -66.078100   17.340000  -120.146000
  H    -64.596700   16.491500  -119.696000
  C    -66.304800   15.856400  -118.558000
  H    -65.753800   14.996500  -118.041000
  H    -67.315900   15.549500  -118.716000
  H    -66.342300   16.652300  -117.758000
  H    -60.754400   11.304400  -120.554000
  H    -64.276400   17.139600  -125.041000

 Total Charge           Charge          ....    0
 Multiplicity           Mult            ....    1
 Number of Electrons    NEL             ....  134
 Basis Dimension        Dim             ....  322

ORBITAL ENERGIES
----------------

  NO   OCC          E(Eh)            E(eV)
   0   2.0000     -88.967749     -2420.9355
   1   2.0000     -88.962864     -2420.8026
   2   2.0000     -10.326932      -281.0101
   3   2.0000     -10.325347      -280.9670
   4   2.0000     -10.317202      -280.7453
   5   2.0000     -10.314060      -280.6598
   6   2.0000     -10.304842      -280.4090
   7   2.0000     -10.301992      -280.3315
   8   2.0000     -10.293605      -280.1032
   9   2.0000     -10.292530      -280.0740
  10   2.0000     -10.291427      -280.0440
  11   2.0000     -10.289694      -279.9968
  12   2.0000     -10.289642      -279.9954
  13   2.0000     -10.289497      -279.9915
  14   2.0000     -10.289009      -279.9782
  15   2.0000     -10.288526      -279.9650
  16   2.0000      -8.082135      -219.9261
  17   2.0000      -8.078041      -219.8147
  18   2.0000      -6.040673      -164.3751
  19   2.0000      -6.036825      -164.2704
  20   2.0000      -6.036394      -164.2586
  21   2.0000      -6.032764      -164.1599
  22   2.0000      -6.032655      -164.1569
  23   2.0000      -6.028773      -164.0513
  24   2.0000      -1.007233       -27.4082
  25   2.0000      -0.984304       -26.7843
  26   2.0000      -0.912461       -24.8293
  27   2.0000      -0.906329       -24.6625
  28   2.0000      -0.869255       -23.6536
  29   2.0000      -0.853537       -23.2259
  30   2.0000      -0.849139       -23.1063
  31   2.0000      -0.811932       -22.0938
  32   2.0000      -0.782754       -21.2998
  33   2.0000      -0.769859       -20.9489
  34   2.0000      -0.711747       -19.3676
  35   2.0000      -0.704365       -19.1667
  36   2.0000      -0.689633       -18.7659
  37   2.0000      -0.663839       -18.0640
  38   2.0000      -0.635308       -17.2876
  39   2.0000      -0.618906       -16.8413
  40   2.0000      -0.600843       -16.3498
  41   2.0000      -0.571936       -15.5632
  42   2.0000      -0.564280       -15.3548
  43   2.0000      -0.561083       -15.2678
  44   2.0000      -0.526405       -14.3242
  45   2.0000      -0.521739       -14.1973
  46   2.0000      -0.518521       -14.1097
  47   2.0000      -0.511508       -13.9188
  48   2.0000      -0.500309       -13.6141
  49   2.0000      -0.493429       -13.4269
  50   2.0000      -0.490664       -13.3516
  51   2.0000      -0.480826       -13.0839
  52   2.0000      -0.474490       -12.9115
  53   2.0000      -0.465543       -12.6681
  54   2.0000      -0.455214       -12.3870
  55   2.0000      -0.453703       -12.3459
  56   2.0000      -0.446075       -12.1383
  57   2.0000      -0.437778       -11.9125
  58   2.0000      -0.433817       -11.8048
  59   2.0000      -0.428698       -11.6655
  60   2.0000      -0.426280       -11.5997
  61   2.0000      -0.418108       -11.3773
  62   2.0000      -0.415239       -11.2992
  63   2.0000      -0.351468        -9.5639
  64   2.0000      -0.332314        -9.0427
  65   2.0000      -0.329611        -8.9692
  66   2.0000      -0.286763        -7.8032
  67   0.0000       0.026448         0.7197
  68   0.0000       0.081841         2.2270
  69   0.0000       0.100949         2.7470
  70   0.0000       0.117619         3.2006
  71   0.0000       0.126848         3.4517

MULLIKEN ATOMIC CHARGES
-----------------------
   0 S :    0.112157
   1 C :   -0.152396
   2 C :   -0.021694
   3 C :    0.017188
   4 C :   -0.120796
   5 H :   -0.022838
   6 C :    0.043736
   7 H :    0.022131
   8 H :    0.020859
   9 C :   -0.096190
  10 H :    0.019990
  11 H :    0.033305
  12 C :   -0.061448
  13 H :    0.026951
  14 H :    0.035817
  15 H :    0.057184
  16 S :    0.091672
  17 C :   -0.100699
  18 C :   -0.008616
  19 C :   -0.054464
  20 C :   -0.118145
  21 H :    0.017138
  22 C :    0.046645
  23 H :    0.016765
  24 H :    0.019962
  25 C :   -0.048191
  26 H :    0.028775
  27 H :    0.038163
  28 C :   -0.080089
  29 H :    0.044833
  30 H :    0.030232
  31 H :    0.039398
  32 H :    0.061529
  33 H :    0.061135
Sum of atomic charges:   -0.0000000

LOEWDIN ATOMIC CHARGES
----------------------
   0 S :    0.397180
   1 C :   -0.197805
   2 C :   -0.058130
   3 C :   -0.058125
   4 C :   -0.191762
   5 H :    0.025613
   6 C :   -0.039675
   7 H :    0.039573
   8 H :    0.025280
   9 C :   -0.043419
  10 H :    0.018688
  11 H :    0.024309
  12 C :   -0.067084
  13 H :    0.020801
  14 H :    0.032077
  15 H :    0.035017
  16 S :    0.392769
  17 C :   -0.172732
  18 C :   -0.070951
  19 C :   -0.051492
  20 C :   -0.196751
  21 H :    0.035754
  22 C :   -0.034343
  23 H :    0.024865
  24 H :    0.029069
  25 C :   -0.036738
  26 H :    0.023166
  27 H :    0.024268
  28 C :   -0.073201
  29 H :    0.032746
  30 H :    0.019926
  31 H :    0.031267
  32 H :    0.032475
  33 H :    0.027365

  Mayer bond orders larger than 0.100000
B(  0-S ,  1-C ) :   1.1152 B(  0-S ,  4-C ) :   1.1504 B(  1-C ,  2-C ) :   1.6226
B(  1-C , 32-H ) :   0.9576 B(  2-C ,  3-C ) :   1.2218 B(  2-C ,  6-C ) :   1.0298
B(  3-C ,  4-C ) :   1.5764 B(  3-C ,  5-H ) :   0.9973 B(  4-C , 20-C ) :   1.0419
B(  6-C ,  7-H ) :   0.9252 B(  6-C ,  8-H ) :   0.9441 B(  6-C ,  9-C ) :   1.0603
B(  9-C , 10-H ) :   0.9575 B(  9-C , 11-H ) :   0.9513 B(  9-C , 12-C ) :   1.0825
B( 12-C , 13-H ) :   0.9722 B( 12-C , 14-H ) :   0.9737 B( 12-C , 15-H ) :   0.9746
B( 16-S , 17-C ) :   1.1560 B( 16-S , 20-C ) :   1.1280 B( 17-C , 18-C ) :   1.6267
B( 17-C , 33-H ) :   0.9618 B( 18-C , 19-C ) :   1.2175 B( 18-C , 21-H ) :   0.9998
B( 19-C , 20-C ) :   1.6150 B( 19-C , 22-C ) :   1.0399 B( 22-C , 23-H ) :   0.9428
B( 22-C , 24-H ) :   0.9273 B( 22-C , 25-C ) :   1.0449 B( 25-C , 26-H ) :   0.9507
B( 25-C , 27-H ) :   0.9568 B( 25-C , 28-C ) :   1.0839 B( 28-C , 29-H ) :   0.9731
B( 28-C , 30-H ) :   0.9733 B( 28-C , 31-H ) :   0.9730

Dispersion correction           -0.014033716
FINAL SINGLE POINT ENERGY     -1339.877921699578

DIPOLE MOMENT
-------------
                                X             Y             Z
Electronic contribution:      5.74731       1.04379     -31.92847
Nuclear contribution   :     -6.10582      -0.80491      32.57871
                        -----------------------------------------
Total Dipole Moment    :     -0.35851       0.23887       0.65024
                        -----------------------------------------
Magnitude (a.u.)       :      0.78000
Magnitude (Debye)      :      1.98261

Rotational constants in cm-1:     0.018909     0.008480     0.006125
Rotational constants in MHz :   566.865399   254.231119   183.616488

                             ****ORCA TERMINATED NORMALLY****
TOTAL RUN TIME: 0 days 0 hours 0 minutes 21 seconds 300 msec
