                         Program Version 4.2.1 -  RELEASE  -
|  1> ! wB97X-D3 SP def2-SVP
|  2> %pal
|  3> nprocs 24
|  4> end
|  5>
|  6> * xyz 0 1
|  7> S 	 -99.0996 	 0.698759 	 -106.279
|  8> C 	 -98.9837 	 1.447 	 -107.819
|  9> C 	 -98.6311 	 2.80335 	 -107.723
| 10> C 	 -98.1778 	 3.12722 	 -106.425
| 11> C 	 -98.2537 	 2.05143 	 -105.541
| 12> H 	 -97.6964 	 4.03512 	 -106.119
| 13> C 	 -98.5834 	 3.88699 	 -108.882
| 14> H 	 -99.4646 	 3.60323 	 -109.485
| 15> H 	 -97.7772 	 3.65515 	 -109.517
| 16> C 	 -98.9113 	 5.30587 	 -108.575
| 17> H 	 -99.9592 	 5.45371 	 -108.211
| 18> H 	 -98.349 	 5.53075 	 -107.689
| 19> C 	 -98.5142 	 6.33709 	 -109.705
| 20> H 	 -97.4495 	 6.25259 	 -109.997
| 21> H 	 -99.1212 	 6.1223 	 -110.622
| 22> H 	 -98.7849 	 7.27586 	 -109.357
| 23> S 	 -96.4965 	 1.08525 	 -103.693
| 24> C 	 -96.5106 	 1.92508 	 -102.17
| 25> C 	 -97.3279 	 3.07108 	 -102.086
| 26> C 	 -98.0617 	 3.23804 	 -103.28
| 27> C 	 -97.7916 	 2.20881 	 -104.186
| 28> H 	 -97.2115 	 3.52929 	 -101.089
| 29> C 	 -98.9523 	 4.43898 	 -103.434
| 30> H 	 -99.7947 	 4.46216 	 -102.734
| 31> H 	 -99.2976 	 4.31478 	 -104.384
| 32> C 	 -98.1206 	 5.71528 	 -103.463
| 33> H 	 -97.1362 	 5.41356 	 -103.893
| 34> H 	 -97.9576 	 6.02252 	 -102.448
| 35> C 	 -98.7861 	 6.89372 	 -104.181
| 36> H 	 -98.7899 	 6.65102 	 -105.223
| 37> H 	 -98.1173 	 7.74929 	 -104.097
| 38> H 	 -99.8072 	 7.35998 	 -103.917
| 39> H 	 -99.2823 	 1.04983 	 -108.808
| 40> H 	 -96.0219 	 1.61626 	 -101.302
| 41> *
| 42>
| 43>                          ****END OF INPUT****

CARTESIAN COORDINATES (ANGSTROEM)
---------------------------------
  S    -99.099600    0.698759  -106.279000
  C    -98.983700    1.447000  -107.819000
  C    -98.631100    2.803350  -107.723000
  C    -98.177800    3.127220  -106.425000
  C    -98.253700    2.051430  -105.541000
  H    -97.696400    4.035120  -106.119000
  C    -98.583400    3.886990  -108.882000
  H    -99.464600    3.603230  -109.485000
  H    -97.777200    3.655150  -109.517000
  C    -98.911300    5.305870  -108.575000
  H    -99.959200    5.453710  -108.211000
  H    -98.349000    5.530750  -107.689000
  C    -98.514200    6.337090  -109.705000
  H    -97.449500    6.252590  -109.997000
  H    -99.121200    6.122300  -110.622000
  H    -98.784900    7.275860  -109.357000
  S    -96.496500    1.085250  -103.693000
  C    -96.510600    1.925080  -102.170000
  C    -97.327900    3.071080  -102.086000
  C    -98.061700    3.238040  -103.280000
  C    -97.791600    2.208810  -104.186000
  H    -97.211500    3.529290  -101.089000
  C    -98.952300    4.438980  -103.434000
  H    -99.794700    4.462160  -102.734000
  H    -99.297600    4.314780  -104.384000
  C    -98.120600    5.715280  -103.463000
  H    -97.136200    5.413560  -103.893000
  H    -97.957600    6.022520  -102.448000
  C    -98.786100    6.893720  -104.181000
  H    -98.789900    6.651020  -105.223000
  H    -98.117300    7.749290  -104.097000
  H    -99.807200    7.359980  -103.917000
  H    -99.282300    1.049830  -108.808000
  H    -96.021900    1.616260  -101.302000

 Total Charge           Charge          ....    0
 Multiplicity           Mult            ....    1
 Number of Electrons    NEL             ....  134
 Basis Dimension        Dim             ....  322

ORBITAL ENERGIES
----------------

  NO   OCC          E(Eh)            E(eV)
   0   2.0000     -88.971558     -2421.0392
   1   2.0000     -88.968008     -2420.9426
   2   2.0000     -10.324766      -280.9512
   3   2.0000     -10.322767      -280.8968
   4   2.0000     -10.314099      -280.6609
   5   2.0000     -10.309800      -280.5439
   6   2.0000     -10.304334      -280.3952
   7   2.0000     -10.302683      -280.3503
   8   2.0000     -10.292662      -280.0776
   9   2.0000     -10.290720      -280.0247
  10   2.0000     -10.289967      -280.0042
  11   2.0000     -10.288455      -279.9631
  12   2.0000     -10.288331      -279.9597
  13   2.0000     -10.285202      -279.8746
  14   2.0000     -10.283251      -279.8215
  15   2.0000     -10.278569      -279.6941
  16   2.0000      -8.086079      -220.0334
  17   2.0000      -8.082438      -219.9343
  18   2.0000      -6.044561      -164.4809
  19   2.0000      -6.040709      -164.3760
  20   2.0000      -6.040693      -164.3756
  21   2.0000      -6.037253      -164.2820
  22   2.0000      -6.036810      -164.2700
  23   2.0000      -6.033210      -164.1720
  24   2.0000      -1.005411       -27.3586
  25   2.0000      -0.981939       -26.7199
  26   2.0000      -0.915721       -24.9180
  27   2.0000      -0.909537       -24.7498
  28   2.0000      -0.868049       -23.6208
  29   2.0000      -0.853766       -23.2322
  30   2.0000      -0.846993       -23.0478
  31   2.0000      -0.808785       -22.0082
  32   2.0000      -0.787019       -21.4159
  33   2.0000      -0.772304       -21.0155
  34   2.0000      -0.710457       -19.3325
  35   2.0000      -0.700182       -19.0529
  36   2.0000      -0.692519       -18.8444
  37   2.0000      -0.655544       -17.8382
  38   2.0000      -0.636468       -17.3192
  39   2.0000      -0.621194       -16.9035
  40   2.0000      -0.593208       -16.1420
  41   2.0000      -0.575220       -15.6525
  42   2.0000      -0.564994       -15.3743
  43   2.0000      -0.560212       -15.2441
  44   2.0000      -0.531279       -14.4568
  45   2.0000      -0.525567       -14.3014
  46   2.0000      -0.512711       -13.9516
  47   2.0000      -0.507729       -13.8160
  48   2.0000      -0.503217       -13.6932
  49   2.0000      -0.493608       -13.4317
  50   2.0000      -0.486113       -13.2278
  51   2.0000      -0.481684       -13.1073
  52   2.0000      -0.474991       -12.9252
  53   2.0000      -0.465931       -12.6786
  54   2.0000      -0.458088       -12.4652
  55   2.0000      -0.457196       -12.4409
  56   2.0000      -0.445501       -12.1227
  57   2.0000      -0.441709       -12.0195
  58   2.0000      -0.433746       -11.8028
  59   2.0000      -0.425949       -11.5907
  60   2.0000      -0.422437       -11.4951
  61   2.0000      -0.416663       -11.3380
  62   2.0000      -0.401027       -10.9125
  63   2.0000      -0.339898        -9.2491
  64   2.0000      -0.333774        -9.0824
  65   2.0000      -0.326816        -8.8931
  66   2.0000      -0.288058        -7.8385
  67   0.0000       0.027229         0.7409
  68   0.0000       0.068235         1.8568
  69   0.0000       0.108867         2.9624
  70   0.0000       0.114186         3.1072
  71   0.0000       0.125741         3.4216

MULLIKEN ATOMIC CHARGES
-----------------------
   0 S :    0.143077
   1 C :   -0.131822
   2 C :   -0.090748
   3 C :    0.012863
   4 C :   -0.158717
   5 H :    0.006504
   6 C :    0.079006
   7 H :    0.018504
   8 H :    0.033994
   9 C :   -0.105797
  10 H :    0.039876
  11 H :    0.020964
  12 C :   -0.031258
  13 H :    0.044411
  14 H :    0.034976
  15 H :    0.025967
  16 S :    0.121344
  17 C :   -0.077792
  18 C :   -0.063241
  19 C :   -0.064340
  20 C :   -0.178390
  21 H :    0.031945
  22 C :    0.193503
  23 H :    0.039374
  24 H :   -0.031467
  25 C :   -0.108632
  26 H :    0.048802
  27 H :    0.026234
  28 C :   -0.055291
  29 H :    0.018710
  30 H :    0.028123
  31 H :    0.052117
  32 H :    0.051033
  33 H :    0.026167
Sum of atomic charges:   -0.0000000

LOEWDIN ATOMIC CHARGES
----------------------
   0 S :    0.425866
   1 C :   -0.220938
   2 C :   -0.060336
   3 C :   -0.062170
   4 C :   -0.205153
   5 H :    0.025949
   6 C :   -0.035983
   7 H :    0.034907
   8 H :    0.026238
   9 C :   -0.045422
  10 H :    0.032624
  11 H :    0.012278
  12 C :   -0.053106
  13 H :    0.031044
  14 H :    0.029275
  15 H :    0.017068
  16 S :    0.401284
  17 C :   -0.177423
  18 C :   -0.075510
  19 C :   -0.045818
  20 C :   -0.192065
  21 H :    0.042450
  22 C :   -0.023055
  23 H :    0.035403
  24 H :    0.011120
  25 C :   -0.035787
  26 H :    0.033964
  27 H :    0.019162
  28 C :   -0.076040
  29 H :    0.018014
  30 H :    0.027002
  31 H :    0.039414
  32 H :    0.034653
  33 H :    0.011091

  Mayer bond orders larger than 0.100000
B(  0-S ,  1-C ) :   1.1497 B(  0-S ,  4-C ) :   1.1548 B(  1-C ,  2-C ) :   1.5973
B(  1-C , 32-H ) :   0.9639 B(  2-C ,  3-C ) :   1.2723 B(  2-C ,  6-C ) :   0.9888
B(  3-C ,  4-C ) :   1.5365 B(  3-C ,  5-H ) :   0.9931 B(  4-C , 20-C ) :   1.0597
B(  6-C ,  7-H ) :   0.9387 B(  6-C ,  8-H ) :   0.9497 B(  6-C ,  9-C ) :   1.0561
B(  9-C , 10-H ) :   0.9566 B(  9-C , 11-H ) :   0.9510 B(  9-C , 12-C ) :   1.0768
B( 12-C , 13-H ) :   0.9771 B( 12-C , 14-H ) :   0.9776 B( 12-C , 15-H ) :   0.9744
B( 16-S , 17-C ) :   1.1574 B( 16-S , 20-C ) :   1.1366 B( 17-C , 18-C ) :   1.6404
B( 17-C , 20-C ) :   0.1034 B( 17-C , 33-H ) :   0.9683 B( 18-C , 19-C ) :   1.1920
B( 18-C , 21-H ) :   0.9912 B( 19-C , 20-C ) :   1.6004 B( 19-C , 22-C ) :   1.0447
B( 22-C , 23-H ) :   0.9269 B( 22-C , 24-H ) :   0.9091 B( 22-C , 25-C ) :   1.0538
B( 25-C , 26-H ) :   0.9527 B( 25-C , 27-H ) :   0.9522 B( 25-C , 28-C ) :   1.0848
B( 28-C , 29-H ) :   0.9730 B( 28-C , 30-H ) :   0.9716 B( 28-C , 31-H ) :   0.9722

Dispersion correction           -0.014950640
FINAL SINGLE POINT ENERGY     -1339.839660134032

DIPOLE MOMENT
-------------
                                X             Y             Z
Electronic contribution:      4.90235     -31.48428      10.37757
Nuclear contribution   :     -4.95049      32.19101     -10.47562
                        -----------------------------------------
Total Dipole Moment    :     -0.04814       0.70673      -0.09806
                        -----------------------------------------
Magnitude (a.u.)       :      0.71513
Magnitude (Debye)      :      1.81771

Rotational constants in cm-1:     0.016576     0.010021     0.006877
Rotational constants in MHz :   496.923629   300.423227   206.174379

                             ****ORCA TERMINATED NORMALLY****
TOTAL RUN TIME: 0 days 0 hours 0 minutes 21 seconds 145 msec
