                         Program Version 4.2.1 -  RELEASE  -
|  1> ! wB97X-D3 SP def2-SVP
|  2> %pal
|  3> nprocs 24
|  4> end
|  5>
|  6> * xyz 0 1
|  7> S 	 -53.8212 	 19.5574 	 29.0261
|  8> C 	 -53.012 	 19.3405 	 27.4704
|  9> C 	 -51.7741 	 18.7316 	 27.6261
| 10> C 	 -51.4595 	 18.5978 	 29.0409
| 11> C 	 -52.4136 	 18.9606 	 29.9185
| 12> H 	 -50.5213 	 18.1995 	 29.3687
| 13> C 	 -50.7089 	 18.121 	 26.6034
| 14> H 	 -49.7499 	 18.1045 	 27.1247
| 15> H 	 -50.5148 	 18.8038 	 25.7513
| 16> C 	 -50.994 	 16.757 	 25.9378
| 17> H 	 -51.8687 	 16.787 	 25.3512
| 18> H 	 -50.142 	 16.4544 	 25.285
| 19> C 	 -51.1942 	 15.7342 	 27.0818
| 20> H 	 -50.468 	 15.7532 	 27.8642
| 21> H 	 -52.1275 	 16.0277 	 27.5878
| 22> H 	 -51.2097 	 14.6844 	 26.783
| 23> S 	 -52.0066 	 20.6063 	 32.0683
| 24> C 	 -52.1707 	 19.9258 	 33.6596
| 25> C 	 -52.621 	 18.6556 	 33.6288
| 26> C 	 -52.7047 	 18.0907 	 32.2761
| 27> C 	 -52.3597 	 18.9781 	 31.3281
| 28> H 	 -52.8791 	 18.2104 	 34.5478
| 29> C 	 -53.1955 	 16.7019 	 32.0418
| 30> H 	 -53.4891 	 16.6212 	 31.0363
| 31> H 	 -54.0698 	 16.5613 	 32.7728
| 32> C 	 -52.1953 	 15.6576 	 32.4579
| 33> H 	 -52.1131 	 15.5324 	 33.4997
| 34> H 	 -51.214 	 15.9866 	 32.0563
| 35> C 	 -52.5023 	 14.3924 	 31.6571
| 36> H 	 -51.9112 	 13.5312 	 32.1087
| 37> H 	 -52.2211 	 14.7125 	 30.605
| 38> H 	 -53.5014 	 14.0996 	 31.5545
| 39> H 	 -53.3701 	 19.6682 	 26.5353
| 40> H 	 -52.0003 	 20.4929 	 34.5585
| 41> *
| 42>
| 43>                          ****END OF INPUT****

CARTESIAN COORDINATES (ANGSTROEM)
---------------------------------
  S    -53.821200   19.557400   29.026100
  C    -53.012000   19.340500   27.470400
  C    -51.774100   18.731600   27.626100
  C    -51.459500   18.597800   29.040900
  C    -52.413600   18.960600   29.918500
  H    -50.521300   18.199500   29.368700
  C    -50.708900   18.121000   26.603400
  H    -49.749900   18.104500   27.124700
  H    -50.514800   18.803800   25.751300
  C    -50.994000   16.757000   25.937800
  H    -51.868700   16.787000   25.351200
  H    -50.142000   16.454400   25.285000
  C    -51.194200   15.734200   27.081800
  H    -50.468000   15.753200   27.864200
  H    -52.127500   16.027700   27.587800
  H    -51.209700   14.684400   26.783000
  S    -52.006600   20.606300   32.068300
  C    -52.170700   19.925800   33.659600
  C    -52.621000   18.655600   33.628800
  C    -52.704700   18.090700   32.276100
  C    -52.359700   18.978100   31.328100
  H    -52.879100   18.210400   34.547800
  C    -53.195500   16.701900   32.041800
  H    -53.489100   16.621200   31.036300
  H    -54.069800   16.561300   32.772800
  C    -52.195300   15.657600   32.457900
  H    -52.113100   15.532400   33.499700
  H    -51.214000   15.986600   32.056300
  C    -52.502300   14.392400   31.657100
  H    -51.911200   13.531200   32.108700
  H    -52.221100   14.712500   30.605000
  H    -53.501400   14.099600   31.554500
  H    -53.370100   19.668200   26.535300
  H    -52.000300   20.492900   34.558500

 Total Charge           Charge          ....    0
 Multiplicity           Mult            ....    1
 Number of Electrons    NEL             ....  134
 Basis Dimension        Dim             ....  322

ORBITAL ENERGIES
----------------

  NO   OCC          E(Eh)            E(eV)
   0   2.0000     -88.965491     -2420.8741
   1   2.0000     -88.956329     -2420.6248
   2   2.0000     -10.323501      -280.9168
   3   2.0000     -10.320881      -280.8455
   4   2.0000     -10.318585      -280.7830
   5   2.0000     -10.313952      -280.6569
   6   2.0000     -10.310057      -280.5509
   7   2.0000     -10.302806      -280.3536
   8   2.0000     -10.302325      -280.3405
   9   2.0000     -10.291124      -280.0357
  10   2.0000     -10.290329      -280.0141
  11   2.0000     -10.289002      -279.9780
  12   2.0000     -10.288613      -279.9674
  13   2.0000     -10.281478      -279.7733
  14   2.0000     -10.280940      -279.7586
  15   2.0000     -10.272804      -279.5372
  16   2.0000      -8.079756      -219.8613
  17   2.0000      -8.071076      -219.6251
  18   2.0000      -6.038483      -164.3155
  19   2.0000      -6.034302      -164.2017
  20   2.0000      -6.030318      -164.0933
  21   2.0000      -6.029777      -164.0786
  22   2.0000      -6.025766      -163.9694
  23   2.0000      -6.021440      -163.8517
  24   2.0000      -1.006198       -27.3800
  25   2.0000      -0.980803       -26.6890
  26   2.0000      -0.919343       -25.0166
  27   2.0000      -0.906559       -24.6687
  28   2.0000      -0.876286       -23.8449
  29   2.0000      -0.848221       -23.0813
  30   2.0000      -0.840962       -22.8837
  31   2.0000      -0.813865       -22.1464
  32   2.0000      -0.780872       -21.2486
  33   2.0000      -0.772224       -21.0133
  34   2.0000      -0.709555       -19.3080
  35   2.0000      -0.703409       -19.1407
  36   2.0000      -0.699028       -19.0215
  37   2.0000      -0.661981       -18.0134
  38   2.0000      -0.646435       -17.5904
  39   2.0000      -0.615070       -16.7369
  40   2.0000      -0.598147       -16.2764
  41   2.0000      -0.577615       -15.7177
  42   2.0000      -0.570262       -15.5176
  43   2.0000      -0.548075       -14.9139
  44   2.0000      -0.542990       -14.7755
  45   2.0000      -0.532873       -14.5002
  46   2.0000      -0.519041       -14.1238
  47   2.0000      -0.511755       -13.9256
  48   2.0000      -0.506076       -13.7710
  49   2.0000      -0.495328       -13.4786
  50   2.0000      -0.488009       -13.2794
  51   2.0000      -0.475976       -12.9520
  52   2.0000      -0.468088       -12.7373
  53   2.0000      -0.463613       -12.6155
  54   2.0000      -0.456857       -12.4317
  55   2.0000      -0.452316       -12.3082
  56   2.0000      -0.442213       -12.0332
  57   2.0000      -0.440012       -11.9733
  58   2.0000      -0.438133       -11.9222
  59   2.0000      -0.421511       -11.4699
  60   2.0000      -0.414835       -11.2882
  61   2.0000      -0.413663       -11.2563
  62   2.0000      -0.410841       -11.1795
  63   2.0000      -0.335998        -9.1430
  64   2.0000      -0.326254        -8.8778
  65   2.0000      -0.321517        -8.7489
  66   2.0000      -0.317423        -8.6375
  67   0.0000       0.043844         1.1931
  68   0.0000       0.055294         1.5046
  69   0.0000       0.107932         2.9370
  70   0.0000       0.114541         3.1168
  71   0.0000       0.124245         3.3809

MULLIKEN ATOMIC CHARGES
-----------------------
   0 S :    0.113128
   1 C :   -0.113604
   2 C :   -0.075070
   3 C :    0.039096
   4 C :   -0.168444
   5 H :    0.000723
   6 C :    0.028661
   7 H :    0.028802
   8 H :    0.031823
   9 C :   -0.033944
  10 H :    0.027304
  11 H :    0.040401
  12 C :   -0.072753
  13 H :    0.013367
  14 H :    0.046094
  15 H :    0.033372
  16 S :    0.082789
  17 C :   -0.073820
  18 C :   -0.017138
  19 C :   -0.012630
  20 C :   -0.186335
  21 H :   -0.001324
  22 C :    0.089060
  23 H :    0.013309
  24 H :    0.038758
  25 C :   -0.058747
  26 H :    0.024637
  27 H :    0.030515
  28 C :   -0.064934
  29 H :    0.047013
  30 H :    0.040687
  31 H :    0.021523
  32 H :    0.033327
  33 H :    0.054355
Sum of atomic charges:    0.0000000

LOEWDIN ATOMIC CHARGES
----------------------
   0 S :    0.389111
   1 C :   -0.178960
   2 C :   -0.062441
   3 C :   -0.053196
   4 C :   -0.199177
   5 H :    0.026074
   6 C :   -0.030092
   7 H :    0.029654
   8 H :    0.030952
   9 C :   -0.032637
  10 H :    0.019023
  11 H :    0.030495
  12 C :   -0.071288
  13 H :    0.015679
  14 H :    0.030423
  15 H :    0.023672
  16 S :    0.364246
  17 C :   -0.168394
  18 C :   -0.072782
  19 C :   -0.040275
  20 C :   -0.184927
  21 H :    0.023465
  22 C :   -0.025822
  23 H :    0.021830
  24 H :    0.044667
  25 C :   -0.036706
  26 H :    0.014295
  27 H :    0.027772
  28 C :   -0.065746
  29 H :    0.033488
  30 H :    0.035634
  31 H :    0.011868
  32 H :    0.020885
  33 H :    0.029210

  Mayer bond orders larger than 0.100000
B(  0-S ,  1-C ) :   1.1382 B(  0-S ,  4-C ) :   1.1087 B(  1-C ,  2-C ) :   1.6365
B(  1-C , 32-H ) :   0.9750 B(  2-C ,  3-C ) :   1.2110 B(  2-C ,  6-C ) :   0.9999
B(  3-C ,  4-C ) :   1.6338 B(  3-C ,  5-H ) :   0.9938 B(  4-C , 20-C ) :   1.0483
B(  6-C ,  7-H ) :   0.9494 B(  6-C ,  8-H ) :   0.9446 B(  6-C ,  9-C ) :   1.0725
B(  9-C , 10-H ) :   0.9580 B(  9-C , 11-H ) :   0.9554 B(  9-C , 12-C ) :   1.0691
B( 12-C , 13-H ) :   0.9772 B( 12-C , 14-H ) :   0.9727 B( 12-C , 15-H ) :   0.9755
B( 16-S , 17-C ) :   1.1392 B( 16-S , 20-C ) :   1.0900 B( 17-C , 18-C ) :   1.6721
B( 17-C , 33-H ) :   0.9653 B( 18-C , 19-C ) :   1.1550 B( 18-C , 21-H ) :   0.9992
B( 19-C , 20-C ) :   1.6817 B( 19-C , 22-C ) :   1.0551 B( 22-C , 23-H ) :   0.9336
B( 22-C , 24-H ) :   0.9216 B( 22-C , 25-C ) :   1.0603 B( 25-C , 26-H ) :   0.9563
B( 25-C , 27-H ) :   0.9609 B( 25-C , 28-C ) :   1.0703 B( 28-C , 29-H ) :   0.9732
B( 28-C , 30-H ) :   0.9796 B( 28-C , 31-H ) :   0.9746

Dispersion correction           -0.015025589
FINAL SINGLE POINT ENERGY     -1339.865460317342

DIPOLE MOMENT
-------------
                                X             Y             Z
Electronic contribution:     -7.16342      26.52394       7.85758
Nuclear contribution   :      7.33314     -27.07279      -7.85998
                        -----------------------------------------
Total Dipole Moment    :      0.16972      -0.54886      -0.00240
                        -----------------------------------------
Magnitude (a.u.)       :      0.57451
Magnitude (Debye)      :      1.46028

Rotational constants in cm-1:     0.017781     0.009797     0.007249
Rotational constants in MHz :   533.054676   293.699266   217.319870

                             ****ORCA TERMINATED NORMALLY****
TOTAL RUN TIME: 0 days 0 hours 0 minutes 21 seconds 235 msec
