                         Program Version 4.2.1 -  RELEASE  -
|  1> ! wB97X-D3 SP def2-SVP
|  2> %pal
|  3> nprocs 24
|  4> end
|  5>
|  6> * xyz 0 1
|  7> S 	 -108.573 	 0.355617 	 -112.027
|  8> C 	 -110.111 	 1.26599 	 -112.211
|  9> C 	 -110.187 	 1.88615 	 -113.467
| 10> C 	 -108.975 	 1.52729 	 -114.262
| 11> C 	 -108.107 	 0.62119 	 -113.658
| 12> H 	 -108.77 	 1.96576 	 -115.221
| 13> C 	 -111.113 	 2.99834 	 -113.924
| 14> H 	 -110.652 	 3.94522 	 -113.787
| 15> H 	 -111.907 	 3.10806 	 -113.166
| 16> C 	 -111.569 	 2.75295 	 -115.397
| 17> H 	 -110.711 	 2.97208 	 -115.995
| 18> H 	 -111.657 	 1.74539 	 -115.711
| 19> C 	 -112.576 	 3.79203 	 -115.879
| 20> H 	 -112.892 	 3.53502 	 -116.924
| 21> H 	 -113.371 	 3.84519 	 -115.128
| 22> H 	 -112.017 	 4.73056 	 -115.842
| 23> S 	 -105.373 	 0.0633139 	 -113.329
| 24> C 	 -104.471 	 -0.52347 	 -114.654
| 25> C 	 -105.361 	 -0.897803 	 -115.648
| 26> C 	 -106.709 	 -0.605149 	 -115.399
| 27> C 	 -106.904 	 0.0551471 	 -114.22
| 28> H 	 -105.003 	 -1.31882 	 -116.598
| 29> C 	 -107.843 	 -0.982558 	 -116.329
| 30> H 	 -107.751 	 -0.405993 	 -117.225
| 31> H 	 -108.722 	 -0.592252 	 -115.912
| 32> C 	 -107.983 	 -2.43699 	 -116.77
| 33> H 	 -106.988 	 -2.79599 	 -117.032
| 34> H 	 -108.461 	 -2.31783 	 -117.751
| 35> C 	 -108.607 	 -3.4823 	 -115.837
| 36> H 	 -109.539 	 -3.14254 	 -115.414
| 37> H 	 -107.943 	 -3.82346 	 -115.052
| 38> H 	 -109.013 	 -4.33095 	 -116.464
| 39> H 	 -110.905 	 1.4505 	 -111.484
| 40> H 	 -103.387 	 -0.71596 	 -114.585
| 41> *
| 42>
| 43>                          ****END OF INPUT****

CARTESIAN COORDINATES (ANGSTROEM)
---------------------------------
  S    -108.573000    0.355617  -112.027000
  C    -110.111000    1.265990  -112.211000
  C    -110.187000    1.886150  -113.467000
  C    -108.975000    1.527290  -114.262000
  C    -108.107000    0.621190  -113.658000
  H    -108.770000    1.965760  -115.221000
  C    -111.113000    2.998340  -113.924000
  H    -110.652000    3.945220  -113.787000
  H    -111.907000    3.108060  -113.166000
  C    -111.569000    2.752950  -115.397000
  H    -110.711000    2.972080  -115.995000
  H    -111.657000    1.745390  -115.711000
  C    -112.576000    3.792030  -115.879000
  H    -112.892000    3.535020  -116.924000
  H    -113.371000    3.845190  -115.128000
  H    -112.017000    4.730560  -115.842000
  S    -105.373000    0.063314  -113.329000
  C    -104.471000   -0.523470  -114.654000
  C    -105.361000   -0.897803  -115.648000
  C    -106.709000   -0.605149  -115.399000
  C    -106.904000    0.055147  -114.220000
  H    -105.003000   -1.318820  -116.598000
  C    -107.843000   -0.982558  -116.329000
  H    -107.751000   -0.405993  -117.225000
  H    -108.722000   -0.592252  -115.912000
  C    -107.983000   -2.436990  -116.770000
  H    -106.988000   -2.795990  -117.032000
  H    -108.461000   -2.317830  -117.751000
  C    -108.607000   -3.482300  -115.837000
  H    -109.539000   -3.142540  -115.414000
  H    -107.943000   -3.823460  -115.052000
  H    -109.013000   -4.330950  -116.464000
  H    -110.905000    1.450500  -111.484000
  H    -103.387000   -0.715960  -114.585000

 Total Charge           Charge          ....    0
 Multiplicity           Mult            ....    1
 Number of Electrons    NEL             ....  134
 Basis Dimension        Dim             ....  322

ORBITAL ENERGIES
----------------

  NO   OCC          E(Eh)            E(eV)
   0   2.0000     -88.967020     -2420.9157
   1   2.0000     -88.962187     -2420.7842
   2   2.0000     -10.330179      -281.0985
   3   2.0000     -10.323818      -280.9254
   4   2.0000     -10.320278      -280.8290
   5   2.0000     -10.319595      -280.8104
   6   2.0000     -10.308950      -280.5208
   7   2.0000     -10.298129      -280.2263
   8   2.0000     -10.296839      -280.1912
   9   2.0000     -10.296781      -280.1897
  10   2.0000     -10.292364      -280.0695
  11   2.0000     -10.285280      -279.8767
  12   2.0000     -10.284982      -279.8686
  13   2.0000     -10.283065      -279.8164
  14   2.0000     -10.279391      -279.7164
  15   2.0000     -10.276821      -279.6465
  16   2.0000      -8.081435      -219.9070
  17   2.0000      -8.077755      -219.8069
  18   2.0000      -6.040203      -164.3623
  19   2.0000      -6.036225      -164.2540
  20   2.0000      -6.035981      -164.2474
  21   2.0000      -6.032100      -164.1418
  22   2.0000      -6.031937      -164.1374
  23   2.0000      -6.028540      -164.0449
  24   2.0000      -1.010033       -27.4844
  25   2.0000      -0.981687       -26.7131
  26   2.0000      -0.915327       -24.9073
  27   2.0000      -0.909228       -24.7413
  28   2.0000      -0.871734       -23.7211
  29   2.0000      -0.851323       -23.1657
  30   2.0000      -0.840198       -22.8629
  31   2.0000      -0.810297       -22.0493
  32   2.0000      -0.787606       -21.4319
  33   2.0000      -0.775888       -21.1130
  34   2.0000      -0.715161       -19.4605
  35   2.0000      -0.701968       -19.1015
  36   2.0000      -0.696899       -18.9636
  37   2.0000      -0.654375       -17.8064
  38   2.0000      -0.638529       -17.3753
  39   2.0000      -0.617329       -16.7984
  40   2.0000      -0.602948       -16.4070
  41   2.0000      -0.569556       -15.4984
  42   2.0000      -0.557319       -15.1654
  43   2.0000      -0.550708       -14.9855
  44   2.0000      -0.538119       -14.6430
  45   2.0000      -0.534708       -14.5502
  46   2.0000      -0.521542       -14.1919
  47   2.0000      -0.506815       -13.7911
  48   2.0000      -0.505055       -13.7432
  49   2.0000      -0.498360       -13.5611
  50   2.0000      -0.495995       -13.4967
  51   2.0000      -0.480351       -13.0710
  52   2.0000      -0.473835       -12.8937
  53   2.0000      -0.467700       -12.7268
  54   2.0000      -0.461181       -12.5494
  55   2.0000      -0.447413       -12.1747
  56   2.0000      -0.443494       -12.0681
  57   2.0000      -0.438356       -11.9283
  58   2.0000      -0.435841       -11.8598
  59   2.0000      -0.421578       -11.4717
  60   2.0000      -0.419288       -11.4094
  61   2.0000      -0.409836       -11.1522
  62   2.0000      -0.407411       -11.0862
  63   2.0000      -0.348659        -9.4875
  64   2.0000      -0.329946        -8.9783
  65   2.0000      -0.324476        -8.8294
  66   2.0000      -0.292365        -7.9557
  67   0.0000       0.029736         0.8092
  68   0.0000       0.070302         1.9130
  69   0.0000       0.105876         2.8810
  70   0.0000       0.118940         3.2365
  71   0.0000       0.133909         3.6439

MULLIKEN ATOMIC CHARGES
-----------------------
   0 S :    0.108957
   1 C :   -0.119705
   2 C :   -0.099643
   3 C :    0.014144
   4 C :   -0.150095
   5 H :    0.011170
   6 C :    0.076307
   7 H :    0.033542
   8 H :    0.011273
   9 C :   -0.097442
  10 H :    0.016109
  11 H :    0.025412
  12 C :   -0.022800
  13 H :    0.050112
  14 H :    0.033513
  15 H :    0.028966
  16 S :    0.100474
  17 C :   -0.101330
  18 C :   -0.052632
  19 C :   -0.031768
  20 C :   -0.154425
  21 H :    0.023028
  22 C :    0.122555
  23 H :    0.013538
  24 H :   -0.003476
  25 C :   -0.077612
  26 H :    0.015500
  27 H :    0.022013
  28 C :   -0.028970
  29 H :    0.021384
  30 H :    0.051385
  31 H :    0.034505
  32 H :    0.049317
  33 H :    0.076694
Sum of atomic charges:    0.0000000

LOEWDIN ATOMIC CHARGES
----------------------
   0 S :    0.402074
   1 C :   -0.194627
   2 C :   -0.054161
   3 C :   -0.063841
   4 C :   -0.200914
   5 H :    0.023580
   6 C :   -0.028246
   7 H :    0.032296
   8 H :    0.028128
   9 C :   -0.046967
  10 H :    0.022569
  11 H :    0.020573
  12 C :   -0.060444
  13 H :    0.034978
  14 H :    0.022833
  15 H :    0.027338
  16 S :    0.409588
  17 C :   -0.196699
  18 C :   -0.080291
  19 C :   -0.057077
  20 C :   -0.196423
  21 H :    0.031645
  22 C :   -0.027335
  23 H :    0.030987
  24 H :    0.020638
  25 C :   -0.042598
  26 H :    0.021532
  27 H :    0.028328
  28 C :   -0.067581
  29 H :    0.022325
  30 H :    0.029655
  31 H :    0.036657
  32 H :    0.032179
  33 H :    0.039301

  Mayer bond orders larger than 0.100000
B(  0-S ,  1-C ) :   1.1170 B(  0-S ,  4-C ) :   1.1434 B(  1-C ,  2-C ) :   1.6415
B(  1-C , 32-H ) :   0.9636 B(  2-C ,  3-C ) :   1.2062 B(  2-C ,  6-C ) :   1.0337
B(  3-C ,  4-C ) :   1.5824 B(  3-C ,  5-H ) :   0.9925 B(  4-C , 20-C ) :   1.0542
B(  6-C ,  7-H ) :   0.9381 B(  6-C ,  8-H ) :   0.9414 B(  6-C ,  9-C ) :   1.0343
B(  9-C , 10-H ) :   0.9454 B(  9-C , 11-H ) :   0.9701 B(  9-C , 12-C ) :   1.0695
B( 12-C , 13-H ) :   0.9727 B( 12-C , 14-H ) :   0.9802 B( 12-C , 15-H ) :   0.9747
B( 16-S , 17-C ) :   1.1786 B( 16-S , 20-C ) :   1.1317 B( 17-C , 18-C ) :   1.5620
B( 17-C , 20-C ) :   0.1041 B( 17-C , 33-H ) :   0.9680 B( 18-C , 19-C ) :   1.2664
B( 18-C , 21-H ) :   0.9885 B( 19-C , 20-C ) :   1.5785 B( 19-C , 22-C ) :   1.0434
B( 22-C , 23-H ) :   0.9235 B( 22-C , 24-H ) :   0.9202 B( 22-C , 25-C ) :   1.0785
B( 25-C , 26-H ) :   0.9544 B( 25-C , 27-H ) :   0.9533 B( 25-C , 28-C ) :   1.0712
B( 28-C , 29-H ) :   0.9744 B( 28-C , 30-H ) :   0.9767 B( 28-C , 31-H ) :   0.9709

Dispersion correction           -0.013919759
FINAL SINGLE POINT ENERGY     -1339.866124233944

DIPOLE MOMENT
-------------
                                X             Y             Z
Electronic contribution:     19.70965      -0.90808      19.49326
Nuclear contribution   :    -19.97147       1.10201     -20.12041
                        -----------------------------------------
Total Dipole Moment    :     -0.26182       0.19393      -0.62715
                        -----------------------------------------
Magnitude (a.u.)       :      0.70673
Magnitude (Debye)      :      1.79638

Rotational constants in cm-1:     0.018156     0.008321     0.006953
Rotational constants in MHz :   544.304594   249.451770   208.458316

                             ****ORCA TERMINATED NORMALLY****
TOTAL RUN TIME: 0 days 0 hours 0 minutes 20 seconds 314 msec
