                         Program Version 4.2.1 -  RELEASE  -
|  1> ! wB97X-D3 SP def2-SVP
|  2> %pal
|  3> nprocs 24
|  4> end
|  5>
|  6> * xyz 0 1
|  7> S 	 -50.0621 	 27.4963 	 27.6118
|  8> C 	 -51.5775 	 27.2452 	 28.5291
|  9> C 	 -51.4575 	 26.3473 	 29.5831
| 10> C 	 -50.1483 	 25.7548 	 29.6141
| 11> C 	 -49.2667 	 26.3262 	 28.6806
| 12> H 	 -49.7357 	 24.8503 	 30.1578
| 13> C 	 -52.6249 	 25.824 	 30.4146
| 14> H 	 -52.8583 	 24.8386 	 30.1088
| 15> H 	 -53.4608 	 26.4574 	 30.056
| 16> C 	 -52.4683 	 25.9635 	 31.9752
| 17> H 	 -51.7682 	 25.1459 	 32.2179
| 18> H 	 -52.0412 	 26.8497 	 32.3439
| 19> C 	 -53.8286 	 25.8862 	 32.6734
| 20> H 	 -53.8524 	 25.713 	 33.7521
| 21> H 	 -54.3727 	 26.775 	 32.5025
| 22> H 	 -54.3282 	 25.0468 	 32.2705
| 23> S 	 -46.8471 	 27.3063 	 28.063
| 24> C 	 -45.4393 	 26.2755 	 28.1866
| 25> C 	 -45.7902 	 24.9482 	 28.461
| 26> C 	 -47.2072 	 24.775 	 28.6282
| 27> C 	 -47.8938 	 25.9619 	 28.426
| 28> H 	 -45.0469 	 24.1011 	 28.5373
| 29> C 	 -47.7901 	 23.3626 	 28.8778
| 30> H 	 -47.2921 	 22.8553 	 28.0814
| 31> H 	 -48.8732 	 23.5321 	 28.8408
| 32> C 	 -47.4 	 22.5863 	 30.1187
| 33> H 	 -47.8423 	 23.2083 	 30.9433
| 34> H 	 -46.3563 	 22.5183 	 30.1543
| 35> C 	 -47.9495 	 21.1456 	 30.2584
| 36> H 	 -47.7933 	 20.4876 	 29.3978
| 37> H 	 -48.9963 	 21.1355 	 30.2221
| 38> H 	 -47.6269 	 20.7562 	 31.1831
| 39> H 	 -52.4812 	 27.6385 	 28.1037
| 40> H 	 -44.3958 	 26.4449 	 28.0508
| 41> *
| 42>
| 43>                          ****END OF INPUT****

CARTESIAN COORDINATES (ANGSTROEM)
---------------------------------
  S    -50.062100   27.496300   27.611800
  C    -51.577500   27.245200   28.529100
  C    -51.457500   26.347300   29.583100
  C    -50.148300   25.754800   29.614100
  C    -49.266700   26.326200   28.680600
  H    -49.735700   24.850300   30.157800
  C    -52.624900   25.824000   30.414600
  H    -52.858300   24.838600   30.108800
  H    -53.460800   26.457400   30.056000
  C    -52.468300   25.963500   31.975200
  H    -51.768200   25.145900   32.217900
  H    -52.041200   26.849700   32.343900
  C    -53.828600   25.886200   32.673400
  H    -53.852400   25.713000   33.752100
  H    -54.372700   26.775000   32.502500
  H    -54.328200   25.046800   32.270500
  S    -46.847100   27.306300   28.063000
  C    -45.439300   26.275500   28.186600
  C    -45.790200   24.948200   28.461000
  C    -47.207200   24.775000   28.628200
  C    -47.893800   25.961900   28.426000
  H    -45.046900   24.101100   28.537300
  C    -47.790100   23.362600   28.877800
  H    -47.292100   22.855300   28.081400
  H    -48.873200   23.532100   28.840800
  C    -47.400000   22.586300   30.118700
  H    -47.842300   23.208300   30.943300
  H    -46.356300   22.518300   30.154300
  C    -47.949500   21.145600   30.258400
  H    -47.793300   20.487600   29.397800
  H    -48.996300   21.135500   30.222100
  H    -47.626900   20.756200   31.183100
  H    -52.481200   27.638500   28.103700
  H    -44.395800   26.444900   28.050800

 Total Charge           Charge          ....    0
 Multiplicity           Mult            ....    1
 Number of Electrons    NEL             ....  134
 Basis Dimension        Dim             ....  322

ORBITAL ENERGIES
----------------

  NO   OCC          E(Eh)            E(eV)
   0   2.0000     -88.969749     -2420.9899
   1   2.0000     -88.967341     -2420.9244
   2   2.0000     -10.331877      -281.1447
   3   2.0000     -10.323887      -280.9272
   4   2.0000     -10.317225      -280.7460
   5   2.0000     -10.316927      -280.7379
   6   2.0000     -10.308670      -280.5132
   7   2.0000     -10.304291      -280.3940
   8   2.0000     -10.302312      -280.3402
   9   2.0000     -10.299128      -280.2535
  10   2.0000     -10.296312      -280.1769
  11   2.0000     -10.292132      -280.0631
  12   2.0000     -10.288648      -279.9683
  13   2.0000     -10.287215      -279.9294
  14   2.0000     -10.275362      -279.6068
  15   2.0000     -10.271657      -279.5060
  16   2.0000      -8.084301      -219.9850
  17   2.0000      -8.081277      -219.9027
  18   2.0000      -6.042967      -164.4375
  19   2.0000      -6.039739      -164.3496
  20   2.0000      -6.038863      -164.3258
  21   2.0000      -6.036094      -164.2505
  22   2.0000      -6.034870      -164.2172
  23   2.0000      -6.031947      -164.1376
  24   2.0000      -1.005250       -27.3542
  25   2.0000      -0.977363       -26.5954
  26   2.0000      -0.913962       -24.8702
  27   2.0000      -0.908596       -24.7241
  28   2.0000      -0.869942       -23.6723
  29   2.0000      -0.855953       -23.2917
  30   2.0000      -0.845267       -23.0009
  31   2.0000      -0.812658       -22.1136
  32   2.0000      -0.787456       -21.4278
  33   2.0000      -0.773462       -21.0470
  34   2.0000      -0.712714       -19.3939
  35   2.0000      -0.702499       -19.1160
  36   2.0000      -0.694641       -18.9022
  37   2.0000      -0.663934       -18.0666
  38   2.0000      -0.641607       -17.4590
  39   2.0000      -0.613302       -16.6888
  40   2.0000      -0.589424       -16.0391
  41   2.0000      -0.580085       -15.7849
  42   2.0000      -0.573862       -15.6156
  43   2.0000      -0.551229       -14.9997
  44   2.0000      -0.534582       -14.5467
  45   2.0000      -0.525041       -14.2871
  46   2.0000      -0.518968       -14.1218
  47   2.0000      -0.511644       -13.9225
  48   2.0000      -0.505403       -13.7527
  49   2.0000      -0.504051       -13.7159
  50   2.0000      -0.493059       -13.4168
  51   2.0000      -0.479324       -13.0431
  52   2.0000      -0.476840       -12.9755
  53   2.0000      -0.464210       -12.6318
  54   2.0000      -0.459610       -12.5066
  55   2.0000      -0.450379       -12.2554
  56   2.0000      -0.446567       -12.1517
  57   2.0000      -0.439964       -11.9720
  58   2.0000      -0.431750       -11.7485
  59   2.0000      -0.428796       -11.6681
  60   2.0000      -0.426355       -11.6017
  61   2.0000      -0.415842       -11.3156
  62   2.0000      -0.410466       -11.1693
  63   2.0000      -0.352784        -9.5997
  64   2.0000      -0.334079        -9.0908
  65   2.0000      -0.330180        -8.9847
  66   2.0000      -0.282150        -7.6777
  67   0.0000       0.024756         0.6737
  68   0.0000       0.070957         1.9308
  69   0.0000       0.098424         2.6782
  70   0.0000       0.115698         3.1483
  71   0.0000       0.118948         3.2367

MULLIKEN ATOMIC CHARGES
-----------------------
   0 S :    0.092165
   1 C :   -0.125041
   2 C :   -0.065919
   3 C :   -0.006946
   4 C :   -0.151335
   5 H :    0.034345
   6 C :    0.055082
   7 H :    0.035204
   8 H :    0.014024
   9 C :   -0.055965
  10 H :    0.032365
  11 H :    0.026519
  12 C :   -0.032704
  13 H :    0.033041
  14 H :    0.030299
  15 H :    0.014856
  16 S :    0.115945
  17 C :   -0.062987
  18 C :   -0.077034
  19 C :   -0.057727
  20 C :   -0.134275
  21 H :    0.038023
  22 C :    0.063768
  23 H :    0.023201
  24 H :    0.026891
  25 C :   -0.072801
  26 H :    0.033576
  27 H :    0.017900
  28 C :   -0.000026
  29 H :    0.023090
  30 H :    0.004327
  31 H :    0.035681
  32 H :    0.049115
  33 H :    0.043343
Sum of atomic charges:    0.0000000

LOEWDIN ATOMIC CHARGES
----------------------
   0 S :    0.374469
   1 C :   -0.182546
   2 C :   -0.057241
   3 C :   -0.076215
   4 C :   -0.180108
   5 H :    0.041716
   6 C :   -0.023958
   7 H :    0.027839
   8 H :    0.029985
   9 C :   -0.032403
  10 H :    0.025179
  11 H :    0.019805
  12 C :   -0.059924
  13 H :    0.028561
  14 H :    0.022016
  15 H :    0.018225
  16 S :    0.415716
  17 C :   -0.189433
  18 C :   -0.075181
  19 C :   -0.057486
  20 C :   -0.207290
  21 H :    0.038369
  22 C :   -0.031253
  23 H :    0.031837
  24 H :    0.028286
  25 C :   -0.035264
  26 H :    0.028752
  27 H :    0.014404
  28 C :   -0.058435
  29 H :    0.028558
  30 H :    0.017960
  31 H :    0.024964
  32 H :    0.022021
  33 H :    0.028072

  Mayer bond orders larger than 0.100000
B(  0-S ,  1-C ) :   1.1218 B(  0-S ,  4-C ) :   1.1420 B(  1-C ,  2-C ) :   1.6335
B(  1-C , 32-H ) :   0.9685 B(  2-C ,  3-C ) :   1.2086 B(  2-C ,  6-C ) :   1.0224
B(  3-C ,  4-C ) :   1.6049 B(  3-C ,  5-H ) :   0.9727 B(  4-C , 20-C ) :   1.0405
B(  6-C ,  7-H ) :   0.9400 B(  6-C ,  8-H ) :   0.9463 B(  6-C ,  9-C ) :   1.0410
B(  9-C , 10-H ) :   0.9570 B(  9-C , 11-H ) :   0.9663 B(  9-C , 12-C ) :   1.0808
B( 12-C , 13-H ) :   0.9741 B( 12-C , 14-H ) :   0.9771 B( 12-C , 15-H ) :   0.9742
B( 16-S , 17-C ) :   1.1448 B( 16-S , 20-C ) :   1.1281 B( 17-C , 18-C ) :   1.6230
B( 17-C , 33-H ) :   0.9674 B( 18-C , 19-C ) :   1.2438 B( 18-C , 21-H ) :   0.9739
B( 19-C , 20-C ) :   1.6101 B( 19-C , 22-C ) :   1.0194 B( 22-C , 23-H ) :   0.9259
B( 22-C , 24-H ) :   0.9365 B( 22-C , 25-C ) :   1.0816 B( 25-C , 26-H ) :   0.9524
B( 25-C , 27-H ) :   0.9514 B( 25-C , 28-C ) :   1.0865 B( 28-C , 29-H ) :   0.9705
B( 28-C , 30-H ) :   0.9698 B( 28-C , 31-H ) :   0.9745

Dispersion correction           -0.013427862
FINAL SINGLE POINT ENERGY     -1339.857195963688

DIPOLE MOMENT
-------------
                                X             Y             Z
Electronic contribution:     13.18597      21.86065     -19.65251
Nuclear contribution   :    -13.37683     -22.56240      19.96986
                        -----------------------------------------
Total Dipole Moment    :     -0.19087      -0.70175       0.31735
                        -----------------------------------------
Magnitude (a.u.)       :      0.79347
Magnitude (Debye)      :      2.01684

Rotational constants in cm-1:     0.015946     0.008875     0.006219
Rotational constants in MHz :   478.061642   266.076203   186.448448

                             ****ORCA TERMINATED NORMALLY****
TOTAL RUN TIME: 0 days 0 hours 0 minutes 20 seconds 56 msec
