                         Program Version 4.2.1 -  RELEASE  -
|  1> ! wB97X-D3 SP def2-SVP
|  2> %pal
|  3> nprocs 24
|  4> end
|  5>
|  6> * xyz 0 1
|  7> S 	 -112.234 	 71.8677 	 -10.9311
|  8> C 	 -111.127 	 73.1422 	 -11.1895
|  9> C 	 -109.843 	 72.7402 	 -11.3076
| 10> C 	 -109.824 	 71.3069 	 -11.5086
| 11> C 	 -110.96 	 70.7021 	 -11.0293
| 12> H 	 -108.934 	 70.7326 	 -11.6835
| 13> C 	 -108.713 	 73.6775 	 -11.6066
| 14> H 	 -109.005 	 74.2609 	 -12.4982
| 15> H 	 -107.844 	 72.9981 	 -11.8788
| 16> C 	 -108.287 	 74.6132 	 -10.5088
| 17> H 	 -109.243 	 75.1256 	 -10.1596
| 18> H 	 -107.759 	 74.0796 	 -9.70018
| 19> C 	 -107.463 	 75.7784 	 -11.1145
| 20> H 	 -108.003 	 76.2579 	 -11.867
| 21> H 	 -107.268 	 76.6375 	 -10.4451
| 22> H 	 -106.508 	 75.424 	 -11.4981
| 23> S 	 -111.849 	 68.8637 	 -9.10152
| 24> C 	 -112.154 	 67.2411 	 -9.59688
| 25> C 	 -111.896 	 67.0133 	 -10.9459
| 26> C 	 -111.277 	 68.1711 	 -11.5295
| 27> C 	 -111.301 	 69.2761 	 -10.7641
| 28> H 	 -112.05 	 66.0747 	 -11.3627
| 29> C 	 -110.736 	 68.1965 	 -12.9903
| 30> H 	 -110.691 	 67.1833 	 -13.288
| 31> H 	 -109.701 	 68.5018 	 -12.8277
| 32> C 	 -111.281 	 69.1889 	 -13.9869
| 33> H 	 -111.614 	 70.115 	 -13.5839
| 34> H 	 -112.244 	 68.8351 	 -14.3487
| 35> C 	 -110.334 	 69.4389 	 -15.138
| 36> H 	 -109.313 	 69.2812 	 -14.8839
| 37> H 	 -110.288 	 70.5138 	 -15.5289
| 38> H 	 -110.449 	 68.6858 	 -16.0068
| 39> H 	 -111.467 	 74.1584 	 -11.0446
| 40> H 	 -112.515 	 66.39 	 -8.97882
| 41> *
| 42>
| 43>                          ****END OF INPUT****

CARTESIAN COORDINATES (ANGSTROEM)
---------------------------------
  S    -112.234000   71.867700  -10.931100
  C    -111.127000   73.142200  -11.189500
  C    -109.843000   72.740200  -11.307600
  C    -109.824000   71.306900  -11.508600
  C    -110.960000   70.702100  -11.029300
  H    -108.934000   70.732600  -11.683500
  C    -108.713000   73.677500  -11.606600
  H    -109.005000   74.260900  -12.498200
  H    -107.844000   72.998100  -11.878800
  C    -108.287000   74.613200  -10.508800
  H    -109.243000   75.125600  -10.159600
  H    -107.759000   74.079600   -9.700180
  C    -107.463000   75.778400  -11.114500
  H    -108.003000   76.257900  -11.867000
  H    -107.268000   76.637500  -10.445100
  H    -106.508000   75.424000  -11.498100
  S    -111.849000   68.863700   -9.101520
  C    -112.154000   67.241100   -9.596880
  C    -111.896000   67.013300  -10.945900
  C    -111.277000   68.171100  -11.529500
  C    -111.301000   69.276100  -10.764100
  H    -112.050000   66.074700  -11.362700
  C    -110.736000   68.196500  -12.990300
  H    -110.691000   67.183300  -13.288000
  H    -109.701000   68.501800  -12.827700
  C    -111.281000   69.188900  -13.986900
  H    -111.614000   70.115000  -13.583900
  H    -112.244000   68.835100  -14.348700
  C    -110.334000   69.438900  -15.138000
  H    -109.313000   69.281200  -14.883900
  H    -110.288000   70.513800  -15.528900
  H    -110.449000   68.685800  -16.006800
  H    -111.467000   74.158400  -11.044600
  H    -112.515000   66.390000   -8.978820

 Total Charge           Charge          ....    0
 Multiplicity           Mult            ....    1
 Number of Electrons    NEL             ....  134
 Basis Dimension        Dim             ....  322

ORBITAL ENERGIES
----------------

  NO   OCC          E(Eh)            E(eV)
   0   2.0000     -88.965301     -2420.8689
   1   2.0000     -88.962349     -2420.7886
   2   2.0000     -10.328885      -281.0632
   3   2.0000     -10.323842      -280.9260
   4   2.0000     -10.319407      -280.8054
   5   2.0000     -10.304659      -280.4040
   6   2.0000     -10.301388      -280.3150
   7   2.0000     -10.297081      -280.1978
   8   2.0000     -10.294972      -280.1404
   9   2.0000     -10.294544      -280.1288
  10   2.0000     -10.294497      -280.1275
  11   2.0000     -10.290329      -280.0141
  12   2.0000     -10.287601      -279.9398
  13   2.0000     -10.281511      -279.7741
  14   2.0000     -10.276591      -279.6403
  15   2.0000     -10.276585      -279.6401
  16   2.0000      -8.079768      -219.8617
  17   2.0000      -8.078471      -219.8264
  18   2.0000      -6.038262      -164.3095
  19   2.0000      -6.036864      -164.2714
  20   2.0000      -6.034375      -164.2037
  21   2.0000      -6.032738      -164.1591
  22   2.0000      -6.030486      -164.0979
  23   2.0000      -6.029311      -164.0659
  24   2.0000      -1.011837       -27.5335
  25   2.0000      -0.988678       -26.9033
  26   2.0000      -0.916959       -24.9517
  27   2.0000      -0.909139       -24.7389
  28   2.0000      -0.867248       -23.5990
  29   2.0000      -0.852131       -23.1877
  30   2.0000      -0.847559       -23.0633
  31   2.0000      -0.816609       -22.2211
  32   2.0000      -0.782063       -21.2810
  33   2.0000      -0.770548       -20.9677
  34   2.0000      -0.708869       -19.2893
  35   2.0000      -0.700865       -19.0715
  36   2.0000      -0.690306       -18.7842
  37   2.0000      -0.665134       -18.0992
  38   2.0000      -0.645529       -17.5657
  39   2.0000      -0.617457       -16.8019
  40   2.0000      -0.590926       -16.0799
  41   2.0000      -0.576975       -15.7003
  42   2.0000      -0.568853       -15.4793
  43   2.0000      -0.557068       -15.1586
  44   2.0000      -0.526517       -14.3273
  45   2.0000      -0.524195       -14.2641
  46   2.0000      -0.514312       -13.9951
  47   2.0000      -0.511146       -13.9090
  48   2.0000      -0.500641       -13.6231
  49   2.0000      -0.493136       -13.4189
  50   2.0000      -0.490442       -13.3456
  51   2.0000      -0.485240       -13.2041
  52   2.0000      -0.473201       -12.8765
  53   2.0000      -0.468612       -12.7516
  54   2.0000      -0.461514       -12.5584
  55   2.0000      -0.447271       -12.1709
  56   2.0000      -0.441892       -12.0245
  57   2.0000      -0.439499       -11.9594
  58   2.0000      -0.433077       -11.7846
  59   2.0000      -0.429526       -11.6880
  60   2.0000      -0.416326       -11.3288
  61   2.0000      -0.412330       -11.2201
  62   2.0000      -0.406868       -11.0714
  63   2.0000      -0.340218        -9.2578
  64   2.0000      -0.334524        -9.1029
  65   2.0000      -0.326990        -8.8978
  66   2.0000      -0.298211        -8.1147
  67   0.0000       0.038412         1.0453
  68   0.0000       0.064375         1.7517
  69   0.0000       0.109889         2.9902
  70   0.0000       0.118633         3.2282
  71   0.0000       0.129976         3.5368

MULLIKEN ATOMIC CHARGES
-----------------------
   0 S :    0.116557
   1 C :   -0.120454
   2 C :   -0.075648
   3 C :    0.035609
   4 C :   -0.171285
   5 H :    0.010950
   6 C :    0.022237
   7 H :    0.042736
   8 H :    0.025722
   9 C :   -0.082140
  10 H :    0.032521
  11 H :    0.046614
  12 C :   -0.031595
  13 H :    0.010739
  14 H :    0.033037
  15 H :    0.029719
  16 S :    0.115657
  17 C :   -0.099470
  18 C :   -0.020205
  19 C :   -0.038618
  20 C :   -0.169638
  21 H :   -0.007398
  22 C :    0.104419
  23 H :    0.004323
  24 H :    0.017356
  25 C :   -0.002808
  26 H :    0.026388
  27 H :    0.018321
  28 C :   -0.088287
  29 H :    0.009674
  30 H :    0.046216
  31 H :    0.040613
  32 H :    0.049227
  33 H :    0.068909
Sum of atomic charges:   -0.0000000

LOEWDIN ATOMIC CHARGES
----------------------
   0 S :    0.428915
   1 C :   -0.204074
   2 C :   -0.067713
   3 C :   -0.061633
   4 C :   -0.193801
   5 H :    0.026098
   6 C :   -0.039516
   7 H :    0.037052
   8 H :    0.033781
   9 C :   -0.040551
  10 H :    0.029469
  11 H :    0.029826
  12 C :   -0.064265
  13 H :    0.015302
  14 H :    0.029437
  15 H :    0.023122
  16 S :    0.397084
  17 C :   -0.192167
  18 C :   -0.069933
  19 C :   -0.050271
  20 C :   -0.194595
  21 H :    0.020592
  22 C :   -0.022463
  23 H :    0.022514
  24 H :    0.031363
  25 C :   -0.045589
  26 H :    0.024352
  27 H :    0.026294
  28 C :   -0.076572
  29 H :    0.014672
  30 H :    0.037416
  31 H :    0.033871
  32 H :    0.022502
  33 H :    0.039480

  Mayer bond orders larger than 0.100000
B(  0-S ,  1-C ) :   1.1484 B(  0-S ,  4-C ) :   1.1666 B(  1-C ,  2-C ) :   1.6193
B(  1-C , 32-H ) :   0.9640 B(  2-C ,  3-C ) :   1.2303 B(  2-C ,  6-C ) :   1.0196
B(  3-C ,  4-C ) :   1.6074 B(  3-C ,  5-H ) :   0.9853 B(  4-C , 20-C ) :   0.9968
B(  6-C ,  7-H ) :   0.9473 B(  6-C ,  8-H ) :   0.9369 B(  6-C ,  9-C ) :   1.0619
B(  9-C , 10-H ) :   0.9583 B(  9-C , 11-H ) :   0.9550 B(  9-C , 12-C ) :   1.0754
B( 12-C , 13-H ) :   0.9737 B( 12-C , 14-H ) :   0.9743 B( 12-C , 15-H ) :   0.9748
B( 16-S , 17-C ) :   1.1645 B( 16-S , 20-C ) :   1.1185 B( 17-C , 18-C ) :   1.6198
B( 17-C , 33-H ) :   0.9579 B( 18-C , 19-C ) :   1.2201 B( 18-C , 21-H ) :   1.0005
B( 19-C , 20-C ) :   1.6515 B( 19-C , 22-C ) :   1.0258 B( 22-C , 23-H ) :   0.9323
B( 22-C , 24-H ) :   0.9339 B( 22-C , 25-C ) :   1.0588 B( 25-C , 26-H ) :   0.9541
B( 25-C , 27-H ) :   0.9481 B( 25-C , 28-C ) :   1.0676 B( 28-C , 29-H ) :   0.9771
B( 28-C , 30-H ) :   0.9749 B( 28-C , 31-H ) :   0.9749

Dispersion correction           -0.014490821
FINAL SINGLE POINT ENERGY     -1339.861877131762

DIPOLE MOMENT
-------------
                                X             Y             Z
Electronic contribution:    -17.17257     -11.87111      17.06220
Nuclear contribution   :     17.55225      11.92145     -17.38508
                        -----------------------------------------
Total Dipole Moment    :      0.37968       0.05035      -0.32288
                        -----------------------------------------
Magnitude (a.u.)       :      0.50094
Magnitude (Debye)      :      1.27330

Rotational constants in cm-1:     0.020862     0.008005     0.006604
Rotational constants in MHz :   625.437905   239.997825   197.971092

                             ****ORCA TERMINATED NORMALLY****
TOTAL RUN TIME: 0 days 0 hours 0 minutes 21 seconds 876 msec
