                         Program Version 4.2.1 -  RELEASE  -
|  1> ! wB97X-D3 SP def2-SVP
|  2> %pal
|  3> nprocs 24
|  4> end
|  5>
|  6> * xyz 0 1
|  7> S 	 -102.603 	 11.69 	 -8.28182
|  8> C 	 -102.505 	 13.37 	 -7.95705
|  9> C 	 -103.657 	 13.8314 	 -7.33168
| 10> C 	 -104.416 	 12.7675 	 -6.82492
| 11> C 	 -103.95 	 11.492 	 -7.09985
| 12> H 	 -105.348 	 12.7694 	 -6.26676
| 13> C 	 -103.955 	 15.318 	 -7.17292
| 14> H 	 -105.025 	 15.4479 	 -6.99021
| 15> H 	 -103.823 	 15.8228 	 -8.15041
| 16> C 	 -103.155 	 15.9443 	 -6.01111
| 17> H 	 -102.188 	 16.172 	 -6.43056
| 18> H 	 -103.504 	 16.9238 	 -5.67905
| 19> C 	 -103.111 	 15.2005 	 -4.61746
| 20> H 	 -104.06 	 14.869 	 -4.30352
| 21> H 	 -102.485 	 14.3247 	 -4.66422
| 22> H 	 -102.697 	 15.9023 	 -3.87267
| 23> S 	 -105.168 	 9.19811 	 -7.69529
| 24> C 	 -105.557 	 8.15295 	 -6.39494
| 25> C 	 -105.505 	 8.70176 	 -5.12061
| 26> C 	 -104.861 	 9.93185 	 -5.18097
| 27> C 	 -104.504 	 10.307 	 -6.48566
| 28> H 	 -105.854 	 8.1451 	 -4.28539
| 29> C 	 -104.286 	 10.6309 	 -3.93668
| 30> H 	 -103.402 	 11.1061 	 -4.19934
| 31> H 	 -104.025 	 9.92662 	 -3.09599
| 32> C 	 -105.273 	 11.6855 	 -3.35396
| 33> H 	 -106.237 	 11.1343 	 -3.16769
| 34> H 	 -105.569 	 12.3236 	 -4.1908
| 35> C 	 -104.668 	 12.5286 	 -2.24664
| 36> H 	 -103.646 	 12.8756 	 -2.4319
| 37> H 	 -104.702 	 12.0033 	 -1.29928
| 38> H 	 -105.266 	 13.423 	 -1.99631
| 39> H 	 -101.728 	 13.9381 	 -8.4461
| 40> H 	 -106.09 	 7.22927 	 -6.55006
| 41> *
| 42>
| 43>                          ****END OF INPUT****

CARTESIAN COORDINATES (ANGSTROEM)
---------------------------------
  S    -102.603000   11.690000   -8.281820
  C    -102.505000   13.370000   -7.957050
  C    -103.657000   13.831400   -7.331680
  C    -104.416000   12.767500   -6.824920
  C    -103.950000   11.492000   -7.099850
  H    -105.348000   12.769400   -6.266760
  C    -103.955000   15.318000   -7.172920
  H    -105.025000   15.447900   -6.990210
  H    -103.823000   15.822800   -8.150410
  C    -103.155000   15.944300   -6.011110
  H    -102.188000   16.172000   -6.430560
  H    -103.504000   16.923800   -5.679050
  C    -103.111000   15.200500   -4.617460
  H    -104.060000   14.869000   -4.303520
  H    -102.485000   14.324700   -4.664220
  H    -102.697000   15.902300   -3.872670
  S    -105.168000    9.198110   -7.695290
  C    -105.557000    8.152950   -6.394940
  C    -105.505000    8.701760   -5.120610
  C    -104.861000    9.931850   -5.180970
  C    -104.504000   10.307000   -6.485660
  H    -105.854000    8.145100   -4.285390
  C    -104.286000   10.630900   -3.936680
  H    -103.402000   11.106100   -4.199340
  H    -104.025000    9.926620   -3.095990
  C    -105.273000   11.685500   -3.353960
  H    -106.237000   11.134300   -3.167690
  H    -105.569000   12.323600   -4.190800
  C    -104.668000   12.528600   -2.246640
  H    -103.646000   12.875600   -2.431900
  H    -104.702000   12.003300   -1.299280
  H    -105.266000   13.423000   -1.996310
  H    -101.728000   13.938100   -8.446100
  H    -106.090000    7.229270   -6.550060

 Total Charge           Charge          ....    0
 Multiplicity           Mult            ....    1
 Number of Electrons    NEL             ....  134
 Basis Dimension        Dim             ....  322

ORBITAL ENERGIES
----------------

  NO   OCC          E(Eh)            E(eV)
   0   2.0000     -88.966071     -2420.8899
   1   2.0000     -88.964821     -2420.8558
   2   2.0000     -10.327293      -281.0199
   3   2.0000     -10.326088      -280.9871
   4   2.0000     -10.313675      -280.6494
   5   2.0000     -10.311739      -280.5967
   6   2.0000     -10.305720      -280.4329
   7   2.0000     -10.301085      -280.3068
   8   2.0000     -10.296040      -280.1695
   9   2.0000     -10.291222      -280.0384
  10   2.0000     -10.290047      -280.0064
  11   2.0000     -10.288937      -279.9762
  12   2.0000     -10.288320      -279.9594
  13   2.0000     -10.288227      -279.9569
  14   2.0000     -10.279486      -279.7190
  15   2.0000     -10.276663      -279.6422
  16   2.0000      -8.081542      -219.9100
  17   2.0000      -8.079473      -219.8536
  18   2.0000      -6.039634      -164.3468
  19   2.0000      -6.037894      -164.2995
  20   2.0000      -6.036196      -164.2533
  21   2.0000      -6.034093      -164.1960
  22   2.0000      -6.032443      -164.1511
  23   2.0000      -6.030218      -164.0906
  24   2.0000      -1.008478       -27.4421
  25   2.0000      -0.988090       -26.8873
  26   2.0000      -0.906522       -24.6677
  27   2.0000      -0.904484       -24.6123
  28   2.0000      -0.871797       -23.7228
  29   2.0000      -0.854729       -23.2584
  30   2.0000      -0.843372       -22.9493
  31   2.0000      -0.813244       -22.1295
  32   2.0000      -0.784095       -21.3363
  33   2.0000      -0.770400       -20.9636
  34   2.0000      -0.703658       -19.1475
  35   2.0000      -0.701879       -19.0991
  36   2.0000      -0.693696       -18.8764
  37   2.0000      -0.665601       -18.1119
  38   2.0000      -0.646408       -17.5897
  39   2.0000      -0.612526       -16.6677
  40   2.0000      -0.595986       -16.2176
  41   2.0000      -0.570930       -15.5358
  42   2.0000      -0.561816       -15.2878
  43   2.0000      -0.546919       -14.8824
  44   2.0000      -0.541193       -14.7266
  45   2.0000      -0.519196       -14.1280
  46   2.0000      -0.514011       -13.9869
  47   2.0000      -0.510947       -13.9036
  48   2.0000      -0.503524       -13.7016
  49   2.0000      -0.497478       -13.5371
  50   2.0000      -0.492441       -13.4000
  51   2.0000      -0.476822       -12.9750
  52   2.0000      -0.475418       -12.9368
  53   2.0000      -0.467092       -12.7102
  54   2.0000      -0.462908       -12.5964
  55   2.0000      -0.452249       -12.3063
  56   2.0000      -0.443543       -12.0694
  57   2.0000      -0.439270       -11.9531
  58   2.0000      -0.433046       -11.7838
  59   2.0000      -0.423660       -11.5284
  60   2.0000      -0.419976       -11.4281
  61   2.0000      -0.410982       -11.1834
  62   2.0000      -0.408508       -11.1161
  63   2.0000      -0.343248        -9.3403
  64   2.0000      -0.335342        -9.1251
  65   2.0000      -0.328241        -8.9319
  66   2.0000      -0.286499        -7.7960
  67   0.0000       0.023602         0.6423
  68   0.0000       0.058332         1.5873
  69   0.0000       0.105185         2.8622
  70   0.0000       0.123199         3.3524
  71   0.0000       0.127623         3.4728

MULLIKEN ATOMIC CHARGES
-----------------------
   0 S :    0.113676
   1 C :   -0.132558
   2 C :   -0.070498
   3 C :    0.010148
   4 C :   -0.147528
   5 H :    0.023128
   6 C :    0.084065
   7 H :    0.018570
   8 H :    0.039022
   9 C :   -0.075280
  10 H :    0.021143
  11 H :    0.022513
  12 C :   -0.043389
  13 H :    0.020223
  14 H :    0.039505
  15 H :    0.038161
  16 S :    0.110115
  17 C :   -0.071263
  18 C :   -0.045606
  19 C :   -0.001572
  20 C :   -0.190498
  21 H :    0.011467
  22 C :    0.067686
  23 H :    0.011458
  24 H :    0.034226
  25 C :   -0.092908
  26 H :    0.029223
  27 H :    0.005816
  28 C :   -0.026690
  29 H :    0.039803
  30 H :    0.027030
  31 H :    0.031734
  32 H :    0.053452
  33 H :    0.045629
Sum of atomic charges:   -0.0000000

LOEWDIN ATOMIC CHARGES
----------------------
   0 S :    0.397463
   1 C :   -0.194762
   2 C :   -0.069058
   3 C :   -0.059173
   4 C :   -0.198879
   5 H :    0.031668
   6 C :   -0.033557
   7 H :    0.028394
   8 H :    0.036520
   9 C :   -0.039920
  10 H :    0.019362
  11 H :    0.022906
  12 C :   -0.058084
  13 H :    0.016856
  14 H :    0.022317
  15 H :    0.031908
  16 S :    0.418667
  17 C :   -0.186711
  18 C :   -0.067677
  19 C :   -0.049529
  20 C :   -0.187706
  21 H :    0.031512
  22 C :   -0.021107
  23 H :    0.018286
  24 H :    0.034058
  25 C :   -0.047625
  26 H :    0.028069
  27 H :    0.015595
  28 C :   -0.070666
  29 H :    0.029377
  30 H :    0.025460
  31 H :    0.029960
  32 H :    0.025738
  33 H :    0.020338

  Mayer bond orders larger than 0.100000
B(  0-S ,  1-C ) :   1.1712 B(  0-S ,  4-C ) :   1.1271 B(  1-C ,  2-C ) :   1.5531
B(  1-C ,  4-C ) :   0.1076 B(  1-C , 32-H ) :   0.9744 B(  2-C ,  3-C ) :   1.2502
B(  2-C ,  6-C ) :   1.0228 B(  3-C ,  4-C ) :   1.5554 B(  3-C ,  5-H ) :   0.9940
B(  4-C , 20-C ) :   1.0601 B(  6-C ,  7-H ) :   0.9396 B(  6-C ,  8-H ) :   0.9458
B(  6-C ,  9-C ) :   1.0607 B(  9-C , 10-H ) :   0.9596 B(  9-C , 11-H ) :   0.9611
B(  9-C , 12-C ) :   1.0689 B( 12-C , 13-H ) :   0.9757 B( 12-C , 14-H ) :   0.9723
B( 12-C , 15-H ) :   0.9762 B( 16-S , 17-C ) :   1.1757 B( 16-S , 20-C ) :   1.1528
B( 17-C , 18-C ) :   1.5999 B( 17-C , 20-C ) :   0.1071 B( 17-C , 33-H ) :   0.9632
B( 18-C , 19-C ) :   1.2472 B( 18-C , 21-H ) :   1.0014 B( 19-C , 20-C ) :   1.5824
B( 19-C , 22-C ) :   1.0278 B( 22-C , 23-H ) :   0.9391 B( 22-C , 24-H ) :   0.9511
B( 22-C , 25-C ) :   1.0489 B( 25-C , 26-H ) :   0.9555 B( 25-C , 27-H ) :   0.9540
B( 25-C , 28-C ) :   1.0781 B( 28-C , 29-H ) :   0.9701 B( 28-C , 30-H ) :   0.9710
B( 28-C , 31-H ) :   0.9711

Dispersion correction           -0.016327752
FINAL SINGLE POINT ENERGY     -1339.862932260627

DIPOLE MOMENT
-------------
                                X             Y             Z
Electronic contribution:      0.72973     -20.83396     -23.91848
Nuclear contribution   :     -0.92935      21.25276      24.37293
                        -----------------------------------------
Total Dipole Moment    :     -0.19963       0.41880       0.45445
                        -----------------------------------------
Magnitude (a.u.)       :      0.64944
Magnitude (Debye)      :      1.65074

Rotational constants in cm-1:     0.017747     0.010851     0.007305
Rotational constants in MHz :   532.037137   325.306475   218.993376

                             ****ORCA TERMINATED NORMALLY****
TOTAL RUN TIME: 0 days 0 hours 0 minutes 23 seconds 147 msec
