                         Program Version 4.2.1 -  RELEASE  -
|  1> ! wB97X-D3 SP def2-SVP
|  2> %pal
|  3> nprocs 24
|  4> end
|  5>
|  6> * xyz 0 1
|  7> S 	 -102.512 	 23.6289 	 -111.234
|  8> C 	 -102.086 	 22.3263 	 -110.125
|  9> C 	 -101.92 	 22.6985 	 -108.8
| 10> C 	 -102.093 	 24.1254 	 -108.698
| 11> C 	 -102.44 	 24.7683 	 -109.886
| 12> H 	 -101.862 	 24.6775 	 -107.845
| 13> C 	 -101.591 	 21.729 	 -107.674
| 14> H 	 -100.567 	 21.4303 	 -107.83
| 15> H 	 -102.21 	 20.8456 	 -107.827
| 16> C 	 -101.963 	 22.1541 	 -106.272
| 17> H 	 -101.451 	 23.1591 	 -106.168
| 18> H 	 -103.009 	 22.4531 	 -106.137
| 19> C 	 -101.405 	 21.2433 	 -105.153
| 20> H 	 -101.684 	 21.7764 	 -104.216
| 21> H 	 -101.876 	 20.2377 	 -105.184
| 22> H 	 -100.304 	 21.2294 	 -105.054
| 23> S 	 -101.734 	 26.9857 	 -111.46
| 24> C 	 -102.421 	 28.4995 	 -111.024
| 25> C 	 -103.369 	 28.4246 	 -110.037
| 26> C 	 -103.477 	 27.0802 	 -109.599
| 27> C 	 -102.621 	 26.1685 	 -110.157
| 28> H 	 -104.005 	 29.1928 	 -109.702
| 29> C 	 -104.424 	 26.8015 	 -108.43
| 30> H 	 -104.688 	 25.7476 	 -108.491
| 31> H 	 -105.332 	 27.2459 	 -108.727
| 32> C 	 -104.013 	 27.2761 	 -107.019
| 33> H 	 -102.89 	 27.2974 	 -106.925
| 34> H 	 -104.292 	 26.518 	 -106.252
| 35> C 	 -104.436 	 28.7488 	 -106.631
| 36> H 	 -105.485 	 29.013 	 -106.608
| 37> H 	 -103.883 	 29.4747 	 -107.17
| 38> H 	 -104.024 	 28.8921 	 -105.59
| 39> H 	 -101.989 	 21.293 	 -110.329
| 40> H 	 -102.227 	 29.4013 	 -111.627
| 41> *
| 42>
| 43>                          ****END OF INPUT****

CARTESIAN COORDINATES (ANGSTROEM)
---------------------------------
  S    -102.512000   23.628900  -111.234000
  C    -102.086000   22.326300  -110.125000
  C    -101.920000   22.698500  -108.800000
  C    -102.093000   24.125400  -108.698000
  C    -102.440000   24.768300  -109.886000
  H    -101.862000   24.677500  -107.845000
  C    -101.591000   21.729000  -107.674000
  H    -100.567000   21.430300  -107.830000
  H    -102.210000   20.845600  -107.827000
  C    -101.963000   22.154100  -106.272000
  H    -101.451000   23.159100  -106.168000
  H    -103.009000   22.453100  -106.137000
  C    -101.405000   21.243300  -105.153000
  H    -101.684000   21.776400  -104.216000
  H    -101.876000   20.237700  -105.184000
  H    -100.304000   21.229400  -105.054000
  S    -101.734000   26.985700  -111.460000
  C    -102.421000   28.499500  -111.024000
  C    -103.369000   28.424600  -110.037000
  C    -103.477000   27.080200  -109.599000
  C    -102.621000   26.168500  -110.157000
  H    -104.005000   29.192800  -109.702000
  C    -104.424000   26.801500  -108.430000
  H    -104.688000   25.747600  -108.491000
  H    -105.332000   27.245900  -108.727000
  C    -104.013000   27.276100  -107.019000
  H    -102.890000   27.297400  -106.925000
  H    -104.292000   26.518000  -106.252000
  C    -104.436000   28.748800  -106.631000
  H    -105.485000   29.013000  -106.608000
  H    -103.883000   29.474700  -107.170000
  H    -104.024000   28.892100  -105.590000
  H    -101.989000   21.293000  -110.329000
  H    -102.227000   29.401300  -111.627000

 Total Charge           Charge          ....    0
 Multiplicity           Mult            ....    1
 Number of Electrons    NEL             ....  134
 Basis Dimension        Dim             ....  322

ORBITAL ENERGIES
----------------

  NO   OCC          E(Eh)            E(eV)
   0   2.0000     -88.967992     -2420.9421
   1   2.0000     -88.963646     -2420.8239
   2   2.0000     -10.328984      -281.0659
   3   2.0000     -10.321065      -280.8505
   4   2.0000     -10.317616      -280.7566
   5   2.0000     -10.308683      -280.5135
   6   2.0000     -10.300865      -280.3008
   7   2.0000     -10.297950      -280.2215
   8   2.0000     -10.295888      -280.1653
   9   2.0000     -10.294429      -280.1257
  10   2.0000     -10.292499      -280.0731
  11   2.0000     -10.292279      -280.0672
  12   2.0000     -10.289961      -280.0041
  13   2.0000     -10.287274      -279.9310
  14   2.0000     -10.282292      -279.7954
  15   2.0000     -10.282135      -279.7911
  16   2.0000      -8.082042      -219.9236
  17   2.0000      -8.078801      -219.8354
  18   2.0000      -6.040616      -164.3735
  19   2.0000      -6.037286      -164.2829
  20   2.0000      -6.036696      -164.2668
  21   2.0000      -6.033248      -164.1730
  22   2.0000      -6.032735      -164.1591
  23   2.0000      -6.029559      -164.0726
  24   2.0000      -1.006074       -27.3767
  25   2.0000      -0.982020       -26.7221
  26   2.0000      -0.914204       -24.8767
  27   2.0000      -0.901042       -24.5186
  28   2.0000      -0.870608       -23.6905
  29   2.0000      -0.847975       -23.0746
  30   2.0000      -0.843280       -22.9468
  31   2.0000      -0.815273       -22.1847
  32   2.0000      -0.786713       -21.4075
  33   2.0000      -0.773365       -21.0443
  34   2.0000      -0.713111       -19.4047
  35   2.0000      -0.699530       -19.0352
  36   2.0000      -0.687399       -18.7051
  37   2.0000      -0.664765       -18.0892
  38   2.0000      -0.640773       -17.4363
  39   2.0000      -0.621065       -16.9000
  40   2.0000      -0.595224       -16.1969
  41   2.0000      -0.568999       -15.4832
  42   2.0000      -0.567723       -15.4485
  43   2.0000      -0.542372       -14.7587
  44   2.0000      -0.534003       -14.5310
  45   2.0000      -0.526209       -14.3189
  46   2.0000      -0.519140       -14.1265
  47   2.0000      -0.511853       -13.9282
  48   2.0000      -0.502923       -13.6852
  49   2.0000      -0.499045       -13.5797
  50   2.0000      -0.493429       -13.4269
  51   2.0000      -0.476327       -12.9615
  52   2.0000      -0.473326       -12.8799
  53   2.0000      -0.468924       -12.7601
  54   2.0000      -0.457124       -12.4390
  55   2.0000      -0.453745       -12.3470
  56   2.0000      -0.443117       -12.0578
  57   2.0000      -0.439677       -11.9642
  58   2.0000      -0.436701       -11.8832
  59   2.0000      -0.423417       -11.5218
  60   2.0000      -0.419441       -11.4136
  61   2.0000      -0.409593       -11.1456
  62   2.0000      -0.405659       -11.0385
  63   2.0000      -0.344061        -9.3624
  64   2.0000      -0.332658        -9.0521
  65   2.0000      -0.330539        -8.9944
  66   2.0000      -0.290793        -7.9129
  67   0.0000       0.031796         0.8652
  68   0.0000       0.067322         1.8319
  69   0.0000       0.111718         3.0400
  70   0.0000       0.130426         3.5491
  71   0.0000       0.132203         3.5974

MULLIKEN ATOMIC CHARGES
-----------------------
   0 S :    0.117226
   1 C :   -0.093451
   2 C :   -0.105015
   3 C :    0.046759
   4 C :   -0.168992
   5 H :   -0.016750
   6 C :    0.098121
   7 H :    0.042268
   8 H :    0.024703
   9 C :   -0.136436
  10 H :    0.027784
  11 H :    0.041663
  12 C :   -0.047310
  13 H :    0.033344
  14 H :    0.048478
  15 H :    0.042239
  16 S :    0.108481
  17 C :   -0.090765
  18 C :   -0.001511
  19 C :   -0.072059
  20 C :   -0.152067
  21 H :    0.003748
  22 C :    0.107226
  23 H :    0.021626
  24 H :    0.004980
  25 C :   -0.089782
  26 H :    0.038745
  27 H :    0.039631
  28 C :   -0.060161
  29 H :    0.041871
  30 H :    0.028613
  31 H :    0.031308
  32 H :    0.019342
  33 H :    0.066144
Sum of atomic charges:   -0.0000000

LOEWDIN ATOMIC CHARGES
----------------------
   0 S :    0.396894
   1 C :   -0.189177
   2 C :   -0.058843
   3 C :   -0.053084
   4 C :   -0.184425
   5 H :    0.018303
   6 C :   -0.035511
   7 H :    0.035596
   8 H :    0.032327
   9 C :   -0.051455
  10 H :    0.025167
  11 H :    0.029051
  12 C :   -0.068990
  13 H :    0.033097
  14 H :    0.028840
  15 H :    0.030566
  16 S :    0.404366
  17 C :   -0.183687
  18 C :   -0.071129
  19 C :   -0.049936
  20 C :   -0.206798
  21 H :    0.026368
  22 C :   -0.036456
  23 H :    0.031369
  24 H :    0.023653
  25 C :   -0.043636
  26 H :    0.031079
  27 H :    0.029467
  28 C :   -0.069700
  29 H :    0.022046
  30 H :    0.018425
  31 H :    0.035369
  32 H :    0.018223
  33 H :    0.032621

  Mayer bond orders larger than 0.100000
B(  0-S ,  1-C ) :   1.1330 B(  0-S ,  4-C ) :   1.1369 B(  1-C ,  2-C ) :   1.6461
B(  1-C , 32-H ) :   0.9670 B(  2-C ,  3-C ) :   1.2323 B(  2-C ,  6-C ) :   1.0027
B(  3-C ,  4-C ) :   1.5810 B(  3-C ,  5-H ) :   1.0014 B(  4-C , 20-C ) :   1.0603
B(  6-C ,  7-H ) :   0.9362 B(  6-C ,  8-H ) :   0.9381 B(  6-C ,  9-C ) :   1.0694
B(  9-C , 10-H ) :   0.9473 B(  9-C , 11-H ) :   0.9590 B(  9-C , 12-C ) :   1.0823
B( 12-C , 13-H ) :   0.9718 B( 12-C , 14-H ) :   0.9748 B( 12-C , 15-H ) :   0.9741
B( 16-S , 17-C ) :   1.1772 B( 16-S , 20-C ) :   1.1141 B( 17-C , 18-C ) :   1.5764
B( 17-C , 33-H ) :   0.9606 B( 18-C , 19-C ) :   1.2518 B( 18-C , 21-H ) :   1.0009
B( 19-C , 20-C ) :   1.6060 B( 19-C , 22-C ) :   1.0546 B( 22-C , 23-H ) :   0.9270
B( 22-C , 24-H ) :   0.9321 B( 22-C , 25-C ) :   1.0395 B( 25-C , 26-H ) :   0.9599
B( 25-C , 27-H ) :   0.9616 B( 25-C , 28-C ) :   1.0708 B( 28-C , 29-H ) :   0.9795
B( 28-C , 30-H ) :   0.9741 B( 28-C , 31-H ) :   0.9711

Dispersion correction           -0.014158489
FINAL SINGLE POINT ENERGY     -1339.875736534002

DIPOLE MOMENT
-------------
                                X             Y             Z
Electronic contribution:      4.78802       3.09455     -30.69387
Nuclear contribution   :     -4.91553      -3.09218      31.39659
                        -----------------------------------------
Total Dipole Moment    :     -0.12751       0.00237       0.70272
                        -----------------------------------------
Magnitude (a.u.)       :      0.71419
Magnitude (Debye)      :      1.81534

Rotational constants in cm-1:     0.017300     0.008859     0.006298
Rotational constants in MHz :   518.642266   265.590689   188.815146

                             ****ORCA TERMINATED NORMALLY****
TOTAL RUN TIME: 0 days 0 hours 0 minutes 21 seconds 436 msec
