                         Program Version 4.2.1 -  RELEASE  -
|  1> ! wB97X-D3 SP def2-SVP
|  2> %pal
|  3> nprocs 24
|  4> end
|  5>
|  6> * xyz 0 1
|  7> S 	 -116.949 	 59.0103 	 -38.5407
|  8> C 	 -116.607 	 57.3531 	 -38.4792
|  9> C 	 -117.75 	 56.6048 	 -38.4668
| 10> C 	 -118.925 	 57.4186 	 -38.481
| 11> C 	 -118.742 	 58.781 	 -38.4791
| 12> H 	 -119.979 	 57.0206 	 -38.307
| 13> C 	 -117.682 	 55.0589 	 -38.3903
| 14> H 	 -117.819 	 54.7465 	 -37.3574
| 15> H 	 -116.707 	 54.8885 	 -38.7495
| 16> C 	 -118.527 	 54.305 	 -39.4001
| 17> H 	 -119.433 	 54.1229 	 -38.9166
| 18> H 	 -118.746 	 55.0518 	 -40.1667
| 19> C 	 -117.937 	 52.963 	 -39.7618
| 20> H 	 -116.931 	 53.1648 	 -40.2495
| 21> H 	 -117.72 	 52.2085 	 -39.0276
| 22> H 	 -118.487 	 52.4104 	 -40.5751
| 23> S 	 -119.142 	 60.8527 	 -36.8493
| 24> C 	 -120.696 	 61.7797 	 -36.9336
| 25> C 	 -121.518 	 61.4044 	 -38.0017
| 26> C 	 -121.018 	 60.1886 	 -38.5811
| 27> C 	 -119.699 	 59.7957 	 -38.1685
| 28> H 	 -122.396 	 62.0235 	 -38.2116
| 29> C 	 -121.821 	 59.3888 	 -39.4913
| 30> H 	 -121.223 	 58.4853 	 -39.8145
| 31> H 	 -121.967 	 59.98 	 -40.3928
| 32> C 	 -123.118 	 58.7844 	 -38.8892
| 33> H 	 -123.743 	 59.7397 	 -38.7829
| 34> H 	 -122.822 	 58.228 	 -37.9327
| 35> C 	 -123.797 	 57.751 	 -39.9365
| 36> H 	 -124.198 	 58.272 	 -40.8162
| 37> H 	 -124.636 	 57.2341 	 -39.4813
| 38> H 	 -122.992 	 57.0648 	 -40.226
| 39> H 	 -115.652 	 56.8932 	 -38.2757
| 40> H 	 -120.867 	 62.749 	 -36.5115
| 41> *
| 42>
| 43>                          ****END OF INPUT****

CARTESIAN COORDINATES (ANGSTROEM)
---------------------------------
  S    -116.949000   59.010300  -38.540700
  C    -116.607000   57.353100  -38.479200
  C    -117.750000   56.604800  -38.466800
  C    -118.925000   57.418600  -38.481000
  C    -118.742000   58.781000  -38.479100
  H    -119.979000   57.020600  -38.307000
  C    -117.682000   55.058900  -38.390300
  H    -117.819000   54.746500  -37.357400
  H    -116.707000   54.888500  -38.749500
  C    -118.527000   54.305000  -39.400100
  H    -119.433000   54.122900  -38.916600
  H    -118.746000   55.051800  -40.166700
  C    -117.937000   52.963000  -39.761800
  H    -116.931000   53.164800  -40.249500
  H    -117.720000   52.208500  -39.027600
  H    -118.487000   52.410400  -40.575100
  S    -119.142000   60.852700  -36.849300
  C    -120.696000   61.779700  -36.933600
  C    -121.518000   61.404400  -38.001700
  C    -121.018000   60.188600  -38.581100
  C    -119.699000   59.795700  -38.168500
  H    -122.396000   62.023500  -38.211600
  C    -121.821000   59.388800  -39.491300
  H    -121.223000   58.485300  -39.814500
  H    -121.967000   59.980000  -40.392800
  C    -123.118000   58.784400  -38.889200
  H    -123.743000   59.739700  -38.782900
  H    -122.822000   58.228000  -37.932700
  C    -123.797000   57.751000  -39.936500
  H    -124.198000   58.272000  -40.816200
  H    -124.636000   57.234100  -39.481300
  H    -122.992000   57.064800  -40.226000
  H    -115.652000   56.893200  -38.275700
  H    -120.867000   62.749000  -36.511500

 Total Charge           Charge          ....    0
 Multiplicity           Mult            ....    1
 Number of Electrons    NEL             ....  134
 Basis Dimension        Dim             ....  322

ORBITAL ENERGIES
----------------

  NO   OCC          E(Eh)            E(eV)
   0   2.0000     -88.966805     -2420.9098
   1   2.0000     -88.966290     -2420.8958
   2   2.0000     -10.334297      -281.2105
   3   2.0000     -10.333874      -281.1990
   4   2.0000     -10.320725      -280.8412
   5   2.0000     -10.310633      -280.5666
   6   2.0000     -10.310486      -280.5626
   7   2.0000     -10.305943      -280.4390
   8   2.0000     -10.302542      -280.3464
   9   2.0000     -10.300667      -280.2954
  10   2.0000     -10.299388      -280.2606
  11   2.0000     -10.287322      -279.9323
  12   2.0000     -10.287219      -279.9295
  13   2.0000     -10.286908      -279.9210
  14   2.0000     -10.286632      -279.9135
  15   2.0000     -10.280992      -279.7600
  16   2.0000      -8.081127      -219.8987
  17   2.0000      -8.080007      -219.8682
  18   2.0000      -6.039705      -164.3487
  19   2.0000      -6.038649      -164.3200
  20   2.0000      -6.035552      -164.2357
  21   2.0000      -6.034772      -164.2145
  22   2.0000      -6.031821      -164.1342
  23   2.0000      -6.030634      -164.1019
  24   2.0000      -1.006524       -27.3889
  25   2.0000      -0.979599       -26.6562
  26   2.0000      -0.917626       -24.9699
  27   2.0000      -0.904571       -24.6146
  28   2.0000      -0.878100       -23.8943
  29   2.0000      -0.847085       -23.0503
  30   2.0000      -0.840436       -22.8694
  31   2.0000      -0.819141       -22.2900
  32   2.0000      -0.779038       -21.1987
  33   2.0000      -0.765389       -20.8273
  34   2.0000      -0.717351       -19.5201
  35   2.0000      -0.695792       -18.9335
  36   2.0000      -0.691653       -18.8208
  37   2.0000      -0.659279       -17.9399
  38   2.0000      -0.641715       -17.4619
  39   2.0000      -0.618595       -16.8328
  40   2.0000      -0.587044       -15.9743
  41   2.0000      -0.581309       -15.8182
  42   2.0000      -0.570387       -15.5210
  43   2.0000      -0.562815       -15.3150
  44   2.0000      -0.527607       -14.3569
  45   2.0000      -0.519678       -14.1412
  46   2.0000      -0.515629       -14.0310
  47   2.0000      -0.512337       -13.9414
  48   2.0000      -0.509518       -13.8647
  49   2.0000      -0.506724       -13.7887
  50   2.0000      -0.493419       -13.4266
  51   2.0000      -0.476089       -12.9550
  52   2.0000      -0.469631       -12.7793
  53   2.0000      -0.462713       -12.5911
  54   2.0000      -0.455436       -12.3930
  55   2.0000      -0.448714       -12.2101
  56   2.0000      -0.441899       -12.0247
  57   2.0000      -0.439383       -11.9562
  58   2.0000      -0.428527       -11.6608
  59   2.0000      -0.421324       -11.4648
  60   2.0000      -0.418481       -11.3875
  61   2.0000      -0.412485       -11.2243
  62   2.0000      -0.406729       -11.0677
  63   2.0000      -0.355589        -9.6761
  64   2.0000      -0.330710        -8.9991
  65   2.0000      -0.326326        -8.8798
  66   2.0000      -0.287350        -7.8192
  67   0.0000       0.018547         0.5047
  68   0.0000       0.066143         1.7998
  69   0.0000       0.107666         2.9297
  70   0.0000       0.116253         3.1634
  71   0.0000       0.124184         3.3792

MULLIKEN ATOMIC CHARGES
-----------------------
   0 S :    0.109504
   1 C :   -0.105727
   2 C :   -0.152051
   3 C :    0.016530
   4 C :   -0.142343
   5 H :    0.036837
   6 C :    0.101028
   7 H :    0.048101
   8 H :   -0.007677
   9 C :   -0.025008
  10 H :    0.011232
  11 H :    0.037899
  12 C :   -0.092071
  13 H :    0.030785
  14 H :    0.039873
  15 H :    0.041467
  16 S :    0.089093
  17 C :   -0.084233
  18 C :   -0.049558
  19 C :   -0.021637
  20 C :   -0.142836
  21 H :    0.041474
  22 C :    0.018204
  23 H :    0.014146
  24 H :    0.034526
  25 C :   -0.130040
  26 H :    0.046283
  27 H :    0.058254
  28 C :   -0.045864
  29 H :    0.037446
  30 H :    0.043298
  31 H :    0.037397
  32 H :    0.052960
  33 H :    0.052709
Sum of atomic charges:    0.0000000

LOEWDIN ATOMIC CHARGES
----------------------
   0 S :    0.403605
   1 C :   -0.209148
   2 C :   -0.073769
   3 C :   -0.069894
   4 C :   -0.190517
   5 H :    0.039909
   6 C :   -0.021569
   7 H :    0.032038
   8 H :    0.020336
   9 C :   -0.043034
  10 H :    0.015737
  11 H :    0.032614
  12 C :   -0.074120
  13 H :    0.029148
  14 H :    0.026070
  15 H :    0.033465
  16 S :    0.377470
  17 C :   -0.168261
  18 C :   -0.065911
  19 C :   -0.051209
  20 C :   -0.185734
  21 H :    0.041532
  22 C :   -0.052306
  23 H :    0.028328
  24 H :    0.031925
  25 C :   -0.042331
  26 H :    0.029758
  27 H :    0.035654
  28 C :   -0.066694
  29 H :    0.027614
  30 H :    0.025707
  31 H :    0.025958
  32 H :    0.034000
  33 H :    0.023625

  Mayer bond orders larger than 0.100000
B(  0-S ,  1-C ) :   1.1510 B(  0-S ,  4-C ) :   1.1234 B(  1-C ,  2-C ) :   1.6249
B(  1-C , 32-H ) :   0.9597 B(  2-C ,  3-C ) :   1.2545 B(  2-C ,  6-C ) :   1.0076
B(  3-C ,  4-C ) :   1.5638 B(  3-C ,  5-H ) :   0.9776 B(  4-C , 20-C ) :   1.0901
B(  6-C ,  7-H ) :   0.9352 B(  6-C ,  8-H ) :   0.9431 B(  6-C ,  9-C ) :   1.0627
B(  9-C , 10-H ) :   0.9436 B(  9-C , 11-H ) :   0.9596 B(  9-C , 12-C ) :   1.0829
B( 12-C , 13-H ) :   0.9733 B( 12-C , 14-H ) :   0.9760 B( 12-C , 15-H ) :   0.9739
B( 16-S , 17-C ) :   1.1420 B( 16-S , 20-C ) :   1.1208 B( 17-C , 18-C ) :   1.6398
B( 17-C , 20-C ) :   0.1046 B( 17-C , 33-H ) :   0.9592 B( 18-C , 19-C ) :   1.2123
B( 18-C , 21-H ) :   0.9843 B( 19-C , 20-C ) :   1.5672 B( 19-C , 22-C ) :   1.0760
B( 22-C , 23-H ) :   0.9325 B( 22-C , 24-H ) :   0.9263 B( 22-C , 25-C ) :   1.0389
B( 25-C , 26-H ) :   0.9561 B( 25-C , 27-H ) :   0.9557 B( 25-C , 28-C ) :   1.0658
B( 28-C , 29-H ) :   0.9768 B( 28-C , 30-H ) :   0.9785 B( 28-C , 31-H ) :   0.9759

Dispersion correction           -0.013591500
FINAL SINGLE POINT ENERGY     -1339.842831427648

DIPOLE MOMENT
-------------
                                X             Y             Z
Electronic contribution:     15.33011      24.81100      10.81368
Nuclear contribution   :    -15.78080     -25.25537     -10.92561
                        -----------------------------------------
Total Dipole Moment    :     -0.45069      -0.44437      -0.11193
                        -----------------------------------------
Magnitude (a.u.)       :      0.64274
Magnitude (Debye)      :      1.63372

Rotational constants in cm-1:     0.017045     0.008789     0.006109
Rotational constants in MHz :   510.997740   263.498552   183.156336

                             ****ORCA TERMINATED NORMALLY****
TOTAL RUN TIME: 0 days 0 hours 0 minutes 21 seconds 186 msec
