                         Program Version 4.2.1 -  RELEASE  -
|  1> ! wB97X-D3 SP def2-SVP
|  2> %pal
|  3> nprocs 24
|  4> end
|  5>
|  6> * xyz 0 1
|  7> S 	 -94.9411 	 7.80946 	 2.36894
|  8> C 	 -95.7178 	 7.21558 	 0.949754
|  9> C 	 -96.8962 	 6.5337 	 1.29427
| 10> C 	 -97.168 	 6.65103 	 2.70755
| 11> C 	 -96.1229 	 7.10213 	 3.48229
| 12> H 	 -98.0882 	 6.4099 	 3.1724
| 13> C 	 -97.8669 	 6.04348 	 0.271678
| 14> H 	 -97.4182 	 5.44472 	 -0.463039
| 15> H 	 -98.2443 	 6.97631 	 -0.194868
| 16> C 	 -99.1656 	 5.27468 	 0.704053
| 17> H 	 -98.8007 	 4.42571 	 1.16632
| 18> H 	 -99.6322 	 5.96494 	 1.51505
| 19> C 	 -100.101 	 4.92487 	 -0.423144
| 20> H 	 -99.6647 	 4.21454 	 -1.15835
| 21> H 	 -101.057 	 4.57946 	 -0.0833538
| 22> H 	 -100.375 	 5.81522 	 -0.923327
| 23> S 	 -95.7717 	 9.14692 	 5.22576
| 24> C 	 -96.337 	 8.94943 	 6.80622
| 25> C 	 -96.5424 	 7.66494 	 7.08559
| 26> C 	 -96.4232 	 6.7139 	 5.9923
| 27> C 	 -96.0044 	 7.41596 	 4.86515
| 28> H 	 -96.91 	 7.41704 	 7.99375
| 29> C 	 -96.8161 	 5.21996 	 6.17027
| 30> H 	 -96.5821 	 4.88682 	 7.12606
| 31> H 	 -96.3322 	 4.62475 	 5.4099
| 32> C 	 -98.3313 	 4.91034 	 5.91527
| 33> H 	 -98.4779 	 3.84597 	 5.99083
| 34> H 	 -98.5498 	 5.2623 	 4.94529
| 35> C 	 -99.3047 	 5.83737 	 6.6968
| 36> H 	 -98.9938 	 6.0153 	 7.76156
| 37> H 	 -100.308 	 5.4331 	 6.67847
| 38> H 	 -99.1227 	 6.82314 	 6.35833
| 39> H 	 -95.267 	 7.36553 	 0.0252284
| 40> H 	 -96.3357 	 9.73833 	 7.5223
| 41> *
| 42>
| 43>                          ****END OF INPUT****

CARTESIAN COORDINATES (ANGSTROEM)
---------------------------------
  S    -94.941100    7.809460    2.368940
  C    -95.717800    7.215580    0.949754
  C    -96.896200    6.533700    1.294270
  C    -97.168000    6.651030    2.707550
  C    -96.122900    7.102130    3.482290
  H    -98.088200    6.409900    3.172400
  C    -97.866900    6.043480    0.271678
  H    -97.418200    5.444720   -0.463039
  H    -98.244300    6.976310   -0.194868
  C    -99.165600    5.274680    0.704053
  H    -98.800700    4.425710    1.166320
  H    -99.632200    5.964940    1.515050
  C    -100.101000    4.924870   -0.423144
  H    -99.664700    4.214540   -1.158350
  H    -101.057000    4.579460   -0.083354
  H    -100.375000    5.815220   -0.923327
  S    -95.771700    9.146920    5.225760
  C    -96.337000    8.949430    6.806220
  C    -96.542400    7.664940    7.085590
  C    -96.423200    6.713900    5.992300
  C    -96.004400    7.415960    4.865150
  H    -96.910000    7.417040    7.993750
  C    -96.816100    5.219960    6.170270
  H    -96.582100    4.886820    7.126060
  H    -96.332200    4.624750    5.409900
  C    -98.331300    4.910340    5.915270
  H    -98.477900    3.845970    5.990830
  H    -98.549800    5.262300    4.945290
  C    -99.304700    5.837370    6.696800
  H    -98.993800    6.015300    7.761560
  H    -100.308000    5.433100    6.678470
  H    -99.122700    6.823140    6.358330
  H    -95.267000    7.365530    0.025228
  H    -96.335700    9.738330    7.522300

 Total Charge           Charge          ....    0
 Multiplicity           Mult            ....    1
 Number of Electrons    NEL             ....  134
 Basis Dimension        Dim             ....  322

ORBITAL ENERGIES
----------------

  NO   OCC          E(Eh)            E(eV)
   0   2.0000     -88.961215     -2420.7577
   1   2.0000     -88.957856     -2420.6663
   2   2.0000     -10.327280      -281.0196
   3   2.0000     -10.326319      -280.9934
   4   2.0000     -10.311610      -280.5932
   5   2.0000     -10.310304      -280.5576
   6   2.0000     -10.308668      -280.5131
   7   2.0000     -10.305246      -280.4200
   8   2.0000     -10.294233      -280.1203
   9   2.0000     -10.293783      -280.1081
  10   2.0000     -10.288908      -279.9754
  11   2.0000     -10.287658      -279.9414
  12   2.0000     -10.284957      -279.8679
  13   2.0000     -10.281990      -279.7872
  14   2.0000     -10.278127      -279.6821
  15   2.0000     -10.276387      -279.6347
  16   2.0000      -8.077207      -219.7920
  17   2.0000      -8.073308      -219.6859
  18   2.0000      -6.035770      -164.2416
  19   2.0000      -6.031755      -164.1324
  20   2.0000      -6.031542      -164.1266
  21   2.0000      -6.027778      -164.0242
  22   2.0000      -6.027616      -164.0198
  23   2.0000      -6.024196      -163.9267
  24   2.0000      -1.011226       -27.5169
  25   2.0000      -0.986576       -26.8461
  26   2.0000      -0.913057       -24.8455
  27   2.0000      -0.909763       -24.7559
  28   2.0000      -0.878294       -23.8996
  29   2.0000      -0.850713       -23.1491
  30   2.0000      -0.844310       -22.9748
  31   2.0000      -0.821334       -22.3496
  32   2.0000      -0.790584       -21.5129
  33   2.0000      -0.774222       -21.0676
  34   2.0000      -0.717267       -19.5178
  35   2.0000      -0.701655       -19.0930
  36   2.0000      -0.688923       -18.7466
  37   2.0000      -0.665026       -18.0963
  38   2.0000      -0.649198       -17.6656
  39   2.0000      -0.622755       -16.9460
  40   2.0000      -0.602333       -16.3903
  41   2.0000      -0.575768       -15.6674
  42   2.0000      -0.565428       -15.3861
  43   2.0000      -0.564429       -15.3589
  44   2.0000      -0.546650       -14.8751
  45   2.0000      -0.526273       -14.3206
  46   2.0000      -0.520105       -14.1528
  47   2.0000      -0.512661       -13.9502
  48   2.0000      -0.510845       -13.9008
  49   2.0000      -0.504027       -13.7153
  50   2.0000      -0.493667       -13.4334
  51   2.0000      -0.486737       -13.2448
  52   2.0000      -0.479027       -13.0350
  53   2.0000      -0.474621       -12.9151
  54   2.0000      -0.458161       -12.4672
  55   2.0000      -0.452486       -12.3128
  56   2.0000      -0.448723       -12.2104
  57   2.0000      -0.432531       -11.7698
  58   2.0000      -0.429138       -11.6774
  59   2.0000      -0.423947       -11.5362
  60   2.0000      -0.416350       -11.3295
  61   2.0000      -0.414926       -11.2907
  62   2.0000      -0.408978       -11.1289
  63   2.0000      -0.352794        -9.6000
  64   2.0000      -0.330455        -8.9921
  65   2.0000      -0.323280        -8.7969
  66   2.0000      -0.289194        -7.8694
  67   0.0000       0.027264         0.7419
  68   0.0000       0.067920         1.8482
  69   0.0000       0.113854         3.0981
  70   0.0000       0.120472         3.2782
  71   0.0000       0.132636         3.6092

MULLIKEN ATOMIC CHARGES
-----------------------
   0 S :    0.078063
   1 C :   -0.095706
   2 C :   -0.062927
   3 C :    0.018028
   4 C :   -0.133692
   5 H :    0.005697
   6 C :    0.027331
   7 H :    0.019735
   8 H :    0.041646
   9 C :   -0.101985
  10 H :    0.017182
  11 H :    0.042785
  12 C :    0.002639
  13 H :    0.041413
  14 H :    0.027039
  15 H :    0.011226
  16 S :    0.100331
  17 C :   -0.059055
  18 C :   -0.003472
  19 C :   -0.077828
  20 C :   -0.138225
  21 H :   -0.032037
  22 C :    0.123901
  23 H :    0.015162
  24 H :    0.031109
  25 C :   -0.052702
  26 H :    0.036306
  27 H :    0.000519
  28 C :   -0.062882
  29 H :    0.015267
  30 H :    0.048506
  31 H :    0.036384
  32 H :    0.032163
  33 H :    0.048081
Sum of atomic charges:    0.0000000

LOEWDIN ATOMIC CHARGES
----------------------
   0 S :    0.400968
   1 C :   -0.186608
   2 C :   -0.061342
   3 C :   -0.059540
   4 C :   -0.187753
   5 H :    0.020335
   6 C :   -0.035946
   7 H :    0.021917
   8 H :    0.038502
   9 C :   -0.039871
  10 H :    0.010604
  11 H :    0.031447
  12 C :   -0.060802
  13 H :    0.032824
  14 H :    0.027697
  15 H :    0.020801
  16 S :    0.411555
  17 C :   -0.187777
  18 C :   -0.066554
  19 C :   -0.042177
  20 C :   -0.194505
  21 H :    0.008271
  22 C :   -0.013316
  23 H :    0.020949
  24 H :    0.035133
  25 C :   -0.029180
  26 H :    0.022585
  27 H :    0.014849
  28 C :   -0.068090
  29 H :    0.021283
  30 H :    0.028329
  31 H :    0.022902
  32 H :    0.014762
  33 H :    0.027748

  Mayer bond orders larger than 0.100000
B(  0-S ,  1-C ) :   1.1620 B(  0-S ,  4-C ) :   1.1431 B(  1-C ,  2-C ) :   1.5656
B(  1-C ,  4-C ) :   0.1026 B(  1-C , 32-H ) :   0.9884 B(  2-C ,  3-C ) :   1.2525
B(  2-C ,  6-C ) :   1.0232 B(  3-C ,  4-C ) :   1.5670 B(  3-C ,  5-H ) :   0.9864
B(  4-C , 20-C ) :   1.0416 B(  6-C ,  7-H ) :   0.9424 B(  6-C ,  8-H ) :   0.9388
B(  6-C ,  9-C ) :   1.0715 B(  9-C , 10-H ) :   0.9583 B(  9-C , 11-H ) :   0.9469
B(  9-C , 12-C ) :   1.0913 B( 12-C , 13-H ) :   0.9714 B( 12-C , 14-H ) :   0.9688
B( 12-C , 15-H ) :   0.9693 B( 16-S , 17-C ) :   1.1533 B( 16-S , 20-C ) :   1.1340
B( 17-C , 18-C ) :   1.6309 B( 17-C , 33-H ) :   0.9677 B( 18-C , 19-C ) :   1.2121
B( 18-C , 21-H ) :   1.0034 B( 19-C , 20-C ) :   1.6124 B( 19-C , 22-C ) :   1.0440
B( 22-C , 23-H ) :   0.9375 B( 22-C , 24-H ) :   0.9338 B( 22-C , 25-C ) :   1.0744
B( 25-C , 26-H ) :   0.9591 B( 25-C , 27-H ) :   0.9548 B( 25-C , 28-C ) :   1.0662
B( 28-C , 29-H ) :   0.9757 B( 28-C , 30-H ) :   0.9743 B( 28-C , 31-H ) :   0.9675

Dispersion correction           -0.014741832
FINAL SINGLE POINT ENERGY     -1339.849103959499

DIPOLE MOMENT
-------------
                                X             Y             Z
Electronic contribution:     23.67128      18.09514       4.26198
Nuclear contribution   :    -24.33444     -18.43450      -4.27535
                        -----------------------------------------
Total Dipole Moment    :     -0.66316      -0.33936      -0.01337
                        -----------------------------------------
Magnitude (a.u.)       :      0.74507
Magnitude (Debye)      :      1.89381

Rotational constants in cm-1:     0.018028     0.009394     0.006793
Rotational constants in MHz :   540.465964   281.630788   203.654844

                             ****ORCA TERMINATED NORMALLY****
TOTAL RUN TIME: 0 days 0 hours 0 minutes 22 seconds 235 msec
