                         Program Version 4.2.1 -  RELEASE  -
|  1> ! wB97X-D3 SP def2-SVP
|  2> %pal
|  3> nprocs 24
|  4> end
|  5>
|  6> * xyz 0 1
|  7> S 	 -51.097 	 -47.9193 	 -81.8462
|  8> C 	 -50.3201 	 -49.2898 	 -81.1087
|  9> C 	 -51.2231 	 -50.1791 	 -80.5795
| 10> C 	 -52.5793 	 -49.6694 	 -80.5946
| 11> C 	 -52.721 	 -48.4269 	 -81.1727
| 12> H 	 -53.4523 	 -50.1571 	 -80.144
| 13> C 	 -50.9185 	 -51.576 	 -80.1886
| 14> H 	 -51.2351 	 -51.609 	 -79.055
| 15> H 	 -49.9265 	 -51.7424 	 -80.189
| 16> C 	 -51.5086 	 -52.6609 	 -81.1085
| 17> H 	 -51.3462 	 -53.5848 	 -80.5674
| 18> H 	 -52.6259 	 -52.607 	 -81.0881
| 19> C 	 -50.8554 	 -52.5628 	 -82.517
| 20> H 	 -49.8429 	 -52.5335 	 -82.5432
| 21> H 	 -51.2029 	 -53.4183 	 -83.094
| 22> H 	 -51.2509 	 -51.7067 	 -82.9691
| 23> S 	 -54.8953 	 -47.1955 	 -79.8886
| 24> C 	 -56.1764 	 -46.5287 	 -80.8478
| 25> C 	 -56.072 	 -46.9597 	 -82.184
| 26> C 	 -54.8263 	 -47.6265 	 -82.4093
| 27> C 	 -54.0263 	 -47.7694 	 -81.2995
| 28> H 	 -56.8881 	 -46.7927 	 -82.8477
| 29> C 	 -54.41 	 -48.332 	 -83.6804
| 30> H 	 -53.933 	 -49.299 	 -83.5758
| 31> H 	 -53.5519 	 -47.7365 	 -83.992
| 32> C 	 -55.556 	 -48.4745 	 -84.7189
| 33> H 	 -56.0697 	 -47.5255 	 -84.9522
| 34> H 	 -56.3898 	 -49.0144 	 -84.279
| 35> C 	 -55.0452 	 -49.2845 	 -85.9983
| 36> H 	 -54.3612 	 -48.7182 	 -86.6076
| 37> H 	 -55.9398 	 -49.5663 	 -86.5898
| 38> H 	 -54.7047 	 -50.277 	 -85.6598
| 39> H 	 -49.3002 	 -49.5801 	 -81.2416
| 40> H 	 -57.0411 	 -46.0822 	 -80.3937
| 41> *
| 42>
| 43>                          ****END OF INPUT****

CARTESIAN COORDINATES (ANGSTROEM)
---------------------------------
  S    -51.097000  -47.919300  -81.846200
  C    -50.320100  -49.289800  -81.108700
  C    -51.223100  -50.179100  -80.579500
  C    -52.579300  -49.669400  -80.594600
  C    -52.721000  -48.426900  -81.172700
  H    -53.452300  -50.157100  -80.144000
  C    -50.918500  -51.576000  -80.188600
  H    -51.235100  -51.609000  -79.055000
  H    -49.926500  -51.742400  -80.189000
  C    -51.508600  -52.660900  -81.108500
  H    -51.346200  -53.584800  -80.567400
  H    -52.625900  -52.607000  -81.088100
  C    -50.855400  -52.562800  -82.517000
  H    -49.842900  -52.533500  -82.543200
  H    -51.202900  -53.418300  -83.094000
  H    -51.250900  -51.706700  -82.969100
  S    -54.895300  -47.195500  -79.888600
  C    -56.176400  -46.528700  -80.847800
  C    -56.072000  -46.959700  -82.184000
  C    -54.826300  -47.626500  -82.409300
  C    -54.026300  -47.769400  -81.299500
  H    -56.888100  -46.792700  -82.847700
  C    -54.410000  -48.332000  -83.680400
  H    -53.933000  -49.299000  -83.575800
  H    -53.551900  -47.736500  -83.992000
  C    -55.556000  -48.474500  -84.718900
  H    -56.069700  -47.525500  -84.952200
  H    -56.389800  -49.014400  -84.279000
  C    -55.045200  -49.284500  -85.998300
  H    -54.361200  -48.718200  -86.607600
  H    -55.939800  -49.566300  -86.589800
  H    -54.704700  -50.277000  -85.659800
  H    -49.300200  -49.580100  -81.241600
  H    -57.041100  -46.082200  -80.393700

 Total Charge           Charge          ....    0
 Multiplicity           Mult            ....    1
 Number of Electrons    NEL             ....  134
 Basis Dimension        Dim             ....  322

ORBITAL ENERGIES
----------------

  NO   OCC          E(Eh)            E(eV)
   0   2.0000     -88.967091     -2420.9176
   1   2.0000     -88.964579     -2420.8493
   2   2.0000     -10.335066      -281.2315
   3   2.0000     -10.321487      -280.8619
   4   2.0000     -10.319148      -280.7983
   5   2.0000     -10.312174      -280.6085
   6   2.0000     -10.301186      -280.3095
   7   2.0000     -10.297605      -280.2121
   8   2.0000     -10.297349      -280.2051
   9   2.0000     -10.296847      -280.1915
  10   2.0000     -10.292708      -280.0788
  11   2.0000     -10.291546      -280.0472
  12   2.0000     -10.287891      -279.9477
  13   2.0000     -10.286957      -279.9223
  14   2.0000     -10.284440      -279.8538
  15   2.0000     -10.270283      -279.4686
  16   2.0000      -8.080486      -219.8812
  17   2.0000      -8.079466      -219.8535
  18   2.0000      -6.039311      -164.3380
  19   2.0000      -6.037869      -164.2988
  20   2.0000      -6.035230      -164.2270
  21   2.0000      -6.033895      -164.1906
  22   2.0000      -6.030926      -164.1098
  23   2.0000      -6.030393      -164.0953
  24   2.0000      -1.002958       -27.2919
  25   2.0000      -0.982243       -26.7282
  26   2.0000      -0.913649       -24.8616
  27   2.0000      -0.902007       -24.5449
  28   2.0000      -0.870850       -23.6970
  29   2.0000      -0.845459       -23.0061
  30   2.0000      -0.842755       -22.9325
  31   2.0000      -0.815694       -22.1962
  32   2.0000      -0.782384       -21.2897
  33   2.0000      -0.770746       -20.9731
  34   2.0000      -0.711041       -19.3484
  35   2.0000      -0.710088       -19.3225
  36   2.0000      -0.697120       -18.9696
  37   2.0000      -0.655570       -17.8390
  38   2.0000      -0.636192       -17.3117
  39   2.0000      -0.621632       -16.9155
  40   2.0000      -0.599446       -16.3117
  41   2.0000      -0.570320       -15.5192
  42   2.0000      -0.558769       -15.2049
  43   2.0000      -0.552299       -15.0288
  44   2.0000      -0.536429       -14.5970
  45   2.0000      -0.528195       -14.3729
  46   2.0000      -0.519783       -14.1440
  47   2.0000      -0.512960       -13.9584
  48   2.0000      -0.504907       -13.7392
  49   2.0000      -0.493527       -13.4295
  50   2.0000      -0.485801       -13.2193
  51   2.0000      -0.481827       -13.1112
  52   2.0000      -0.471960       -12.8427
  53   2.0000      -0.467000       -12.7077
  54   2.0000      -0.460062       -12.5189
  55   2.0000      -0.450495       -12.2586
  56   2.0000      -0.444107       -12.0848
  57   2.0000      -0.438592       -11.9347
  58   2.0000      -0.431581       -11.7439
  59   2.0000      -0.431093       -11.7306
  60   2.0000      -0.425106       -11.5677
  61   2.0000      -0.415130       -11.2963
  62   2.0000      -0.406164       -11.0523
  63   2.0000      -0.340648        -9.2695
  64   2.0000      -0.329363        -8.9624
  65   2.0000      -0.321335        -8.7440
  66   2.0000      -0.299168        -8.1408
  67   0.0000       0.036287         0.9874
  68   0.0000       0.055075         1.4987
  69   0.0000       0.105774         2.8783
  70   0.0000       0.120353         3.2750
  71   0.0000       0.126492         3.4420

MULLIKEN ATOMIC CHARGES
-----------------------
   0 S :    0.099725
   1 C :   -0.094138
   2 C :   -0.111755
   3 C :    0.018084
   4 C :   -0.150164
   5 H :    0.026677
   6 C :    0.072385
   7 H :    0.048220
   8 H :   -0.020848
   9 C :   -0.073804
  10 H :    0.025572
  11 H :    0.031589
  12 C :    0.005257
  13 H :    0.012293
  14 H :    0.033163
  15 H :    0.034951
  16 S :    0.112905
  17 C :   -0.092103
  18 C :   -0.048453
  19 C :   -0.022787
  20 C :   -0.182321
  21 H :    0.013988
  22 C :    0.090822
  23 H :    0.027104
  24 H :    0.023911
  25 C :   -0.106189
  26 H :    0.032138
  27 H :    0.026122
  28 C :   -0.040042
  29 H :    0.047764
  30 H :    0.030011
  31 H :    0.033463
  32 H :    0.038128
  33 H :    0.058330
Sum of atomic charges:    0.0000000

LOEWDIN ATOMIC CHARGES
----------------------
   0 S :    0.371413
   1 C :   -0.194881
   2 C :   -0.069861
   3 C :   -0.053944
   4 C :   -0.171111
   5 H :    0.035058
   6 C :   -0.034093
   7 H :    0.044632
   8 H :    0.008218
   9 C :   -0.033742
  10 H :    0.021944
  11 H :    0.026237
  12 C :   -0.045864
  13 H :    0.011348
  14 H :    0.031822
  15 H :    0.025135
  16 S :    0.417834
  17 C :   -0.183948
  18 C :   -0.072747
  19 C :   -0.052454
  20 C :   -0.207645
  21 H :    0.028213
  22 C :   -0.037178
  23 H :    0.030518
  24 H :    0.034248
  25 C :   -0.042949
  26 H :    0.021799
  27 H :    0.022375
  28 C :   -0.062954
  29 H :    0.024221
  30 H :    0.028756
  31 H :    0.027745
  32 H :    0.025654
  33 H :    0.026200

  Mayer bond orders larger than 0.100000
B(  0-S ,  1-C ) :   1.1260 B(  0-S ,  4-C ) :   1.1015 B(  1-C ,  2-C ) :   1.6419
B(  1-C , 32-H ) :   0.9619 B(  2-C ,  3-C ) :   1.1991 B(  2-C ,  6-C ) :   1.0427
B(  3-C ,  4-C ) :   1.6161 B(  3-C ,  5-H ) :   0.9881 B(  4-C , 20-C ) :   1.0461
B(  6-C ,  7-H ) :   0.9330 B(  6-C ,  8-H ) :   0.9332 B(  6-C ,  9-C ) :   1.0640
B(  9-C , 10-H ) :   0.9576 B(  9-C , 11-H ) :   0.9583 B(  9-C , 12-C ) :   1.0537
B( 12-C , 13-H ) :   0.9782 B( 12-C , 14-H ) :   0.9723 B( 12-C , 15-H ) :   0.9756
B( 16-S , 17-C ) :   1.1890 B( 16-S , 20-C ) :   1.1391 B( 17-C , 18-C ) :   1.5567
B( 17-C , 20-C ) :   0.1033 B( 17-C , 33-H ) :   0.9670 B( 18-C , 19-C ) :   1.2623
B( 18-C , 21-H ) :   0.9987 B( 19-C , 20-C ) :   1.5792 B( 19-C , 22-C ) :   1.0260
B( 22-C , 23-H ) :   0.9366 B( 22-C , 24-H ) :   0.9181 B( 22-C , 25-C ) :   1.0634
B( 25-C , 26-H ) :   0.9513 B( 25-C , 27-H ) :   0.9574 B( 25-C , 28-C ) :   1.0765
B( 28-C , 29-H ) :   0.9799 B( 28-C , 30-H ) :   0.9749 B( 28-C , 31-H ) :   0.9739

Dispersion correction           -0.014900639
FINAL SINGLE POINT ENERGY     -1339.861316982318

DIPOLE MOMENT
-------------
                                X             Y             Z
Electronic contribution:      0.78342      20.27336      16.33274
Nuclear contribution   :     -1.00207     -20.96950     -16.61938
                        -----------------------------------------
Total Dipole Moment    :     -0.21865      -0.69615      -0.28664
                        -----------------------------------------
Magnitude (a.u.)       :      0.78396
Magnitude (Debye)      :      1.99266

Rotational constants in cm-1:     0.017046     0.009181     0.007314
Rotational constants in MHz :   511.029423   275.233686   219.267509

                             ****ORCA TERMINATED NORMALLY****
TOTAL RUN TIME: 0 days 0 hours 0 minutes 21 seconds 922 msec
