                         Program Version 4.2.1 -  RELEASE  -
|  1> ! wB97X-D3 SP def2-SVP
|  2> %pal
|  3> nprocs 24
|  4> end
|  5>
|  6> * xyz 0 1
|  7> S 	 -128.23 	 28.5086 	 -111.724
|  8> C 	 -127.421 	 27.0902 	 -112.416
|  9> C 	 -126.823 	 27.4107 	 -113.627
| 10> C 	 -126.95 	 28.7622 	 -114.011
| 11> C 	 -127.696 	 29.4907 	 -113.174
| 12> H 	 -126.554 	 29.1574 	 -114.969
| 13> C 	 -126.192 	 26.3801 	 -114.56
| 14> H 	 -126.211 	 26.562 	 -115.659
| 15> H 	 -126.704 	 25.4283 	 -114.536
| 16> C 	 -124.742 	 26.0789 	 -114.116
| 17> H 	 -124.55 	 25.9998 	 -113.033
| 18> H 	 -124.492 	 25.0539 	 -114.386
| 19> C 	 -123.662 	 26.8236 	 -114.803
| 20> H 	 -123.853 	 27.9165 	 -114.644
| 21> H 	 -122.815 	 26.6004 	 -114.183
| 22> H 	 -123.483 	 26.6313 	 -115.804
| 23> S 	 -128.548 	 31.6448 	 -114.832
| 24> C 	 -128.527 	 33.2595 	 -114.174
| 25> C 	 -127.912 	 33.2849 	 -112.931
| 26> C 	 -127.641 	 31.9541 	 -112.352
| 27> C 	 -127.881 	 30.9398 	 -113.296
| 28> H 	 -127.753 	 34.2497 	 -112.413
| 29> C 	 -127.016 	 31.7031 	 -110.98
| 30> H 	 -126.237 	 32.4842 	 -110.78
| 31> H 	 -126.361 	 30.8154 	 -111.079
| 32> C 	 -127.927 	 31.4638 	 -109.767
| 33> H 	 -128.636 	 30.7184 	 -109.867
| 34> H 	 -128.58 	 32.3473 	 -109.81
| 35> C 	 -127.17 	 31.2283 	 -108.449
| 36> H 	 -126.441 	 30.4247 	 -108.671
| 37> H 	 -127.751 	 30.8856 	 -107.612
| 38> H 	 -126.709 	 32.1929 	 -108.127
| 39> H 	 -127.556 	 25.9964 	 -112.157
| 40> H 	 -128.835 	 34.2192 	 -114.703
| 41> *
| 42>
| 43>                          ****END OF INPUT****

CARTESIAN COORDINATES (ANGSTROEM)
---------------------------------
  S    -128.230000   28.508600  -111.724000
  C    -127.421000   27.090200  -112.416000
  C    -126.823000   27.410700  -113.627000
  C    -126.950000   28.762200  -114.011000
  C    -127.696000   29.490700  -113.174000
  H    -126.554000   29.157400  -114.969000
  C    -126.192000   26.380100  -114.560000
  H    -126.211000   26.562000  -115.659000
  H    -126.704000   25.428300  -114.536000
  C    -124.742000   26.078900  -114.116000
  H    -124.550000   25.999800  -113.033000
  H    -124.492000   25.053900  -114.386000
  C    -123.662000   26.823600  -114.803000
  H    -123.853000   27.916500  -114.644000
  H    -122.815000   26.600400  -114.183000
  H    -123.483000   26.631300  -115.804000
  S    -128.548000   31.644800  -114.832000
  C    -128.527000   33.259500  -114.174000
  C    -127.912000   33.284900  -112.931000
  C    -127.641000   31.954100  -112.352000
  C    -127.881000   30.939800  -113.296000
  H    -127.753000   34.249700  -112.413000
  C    -127.016000   31.703100  -110.980000
  H    -126.237000   32.484200  -110.780000
  H    -126.361000   30.815400  -111.079000
  C    -127.927000   31.463800  -109.767000
  H    -128.636000   30.718400  -109.867000
  H    -128.580000   32.347300  -109.810000
  C    -127.170000   31.228300  -108.449000
  H    -126.441000   30.424700  -108.671000
  H    -127.751000   30.885600  -107.612000
  H    -126.709000   32.192900  -108.127000
  H    -127.556000   25.996400  -112.157000
  H    -128.835000   34.219200  -114.703000

 Total Charge           Charge          ....    0
 Multiplicity           Mult            ....    1
 Number of Electrons    NEL             ....  134
 Basis Dimension        Dim             ....  322

ORBITAL ENERGIES
----------------

  NO   OCC          E(Eh)            E(eV)
   0   2.0000     -88.972356     -2421.0609
   1   2.0000     -88.968125     -2420.9458
   2   2.0000     -10.334282      -281.2101
   3   2.0000     -10.333996      -281.2023
   4   2.0000     -10.324792      -280.9519
   5   2.0000     -10.322030      -280.8767
   6   2.0000     -10.311896      -280.6010
   7   2.0000     -10.302109      -280.3346
   8   2.0000     -10.301285      -280.3122
   9   2.0000     -10.294863      -280.1375
  10   2.0000     -10.294214      -280.1198
  11   2.0000     -10.293460      -280.0993
  12   2.0000     -10.280340      -279.7423
  13   2.0000     -10.279925      -279.7310
  14   2.0000     -10.277874      -279.6752
  15   2.0000     -10.267118      -279.3825
  16   2.0000      -8.084761      -219.9975
  17   2.0000      -8.081734      -219.9152
  18   2.0000      -6.043581      -164.4542
  19   2.0000      -6.040500      -164.3704
  20   2.0000      -6.039706      -164.3488
  21   2.0000      -6.036414      -164.2592
  22   2.0000      -6.035199      -164.2261
  23   2.0000      -6.032263      -164.1462
  24   2.0000      -0.999459       -27.1967
  25   2.0000      -0.975993       -26.5581
  26   2.0000      -0.912569       -24.8323
  27   2.0000      -0.903624       -24.5889
  28   2.0000      -0.869350       -23.6562
  29   2.0000      -0.851774       -23.1779
  30   2.0000      -0.844520       -22.9806
  31   2.0000      -0.814247       -22.1568
  32   2.0000      -0.781505       -21.2658
  33   2.0000      -0.767485       -20.8843
  34   2.0000      -0.705674       -19.2024
  35   2.0000      -0.697181       -18.9712
  36   2.0000      -0.691326       -18.8119
  37   2.0000      -0.657465       -17.8905
  38   2.0000      -0.629425       -17.1275
  39   2.0000      -0.619991       -16.8708
  40   2.0000      -0.592877       -16.1330
  41   2.0000      -0.569031       -15.4841
  42   2.0000      -0.559000       -15.2112
  43   2.0000      -0.550378       -14.9766
  44   2.0000      -0.536579       -14.6010
  45   2.0000      -0.522088       -14.2067
  46   2.0000      -0.520350       -14.1594
  47   2.0000      -0.507892       -13.8204
  48   2.0000      -0.507200       -13.8016
  49   2.0000      -0.499170       -13.5831
  50   2.0000      -0.485037       -13.1985
  51   2.0000      -0.480094       -13.0640
  52   2.0000      -0.466326       -12.6894
  53   2.0000      -0.462112       -12.5747
  54   2.0000      -0.456808       -12.4304
  55   2.0000      -0.449462       -12.2305
  56   2.0000      -0.445284       -12.1168
  57   2.0000      -0.436059       -11.8658
  58   2.0000      -0.432281       -11.7630
  59   2.0000      -0.425082       -11.5671
  60   2.0000      -0.417465       -11.3598
  61   2.0000      -0.403129       -10.9697
  62   2.0000      -0.399138       -10.8611
  63   2.0000      -0.354397        -9.6436
  64   2.0000      -0.331004        -9.0071
  65   2.0000      -0.328014        -8.9257
  66   2.0000      -0.292449        -7.9580
  67   0.0000       0.027304         0.7430
  68   0.0000       0.060330         1.6417
  69   0.0000       0.099300         2.7021
  70   0.0000       0.107600         2.9280
  71   0.0000       0.126983         3.4554

MULLIKEN ATOMIC CHARGES
-----------------------
   0 S :    0.100032
   1 C :   -0.126846
   2 C :   -0.067834
   3 C :    0.011222
   4 C :   -0.122371
   5 H :    0.032326
   6 C :    0.052148
   7 H :    0.032148
   8 H :    0.019144
   9 C :   -0.097519
  10 H :    0.030186
  11 H :    0.005755
  12 C :   -0.009418
  13 H :    0.022033
  14 H :    0.021813
  15 H :    0.026610
  16 S :    0.101248
  17 C :   -0.117016
  18 C :   -0.040617
  19 C :   -0.030377
  20 C :   -0.156624
  21 H :    0.032110
  22 C :    0.007943
  23 H :    0.031282
  24 H :    0.027543
  25 C :   -0.022850
  26 H :    0.004346
  27 H :    0.014079
  28 C :   -0.049446
  29 H :    0.037674
  30 H :    0.034135
  31 H :    0.038400
  32 H :    0.072098
  33 H :    0.086644
Sum of atomic charges:    0.0000000

LOEWDIN ATOMIC CHARGES
----------------------
   0 S :    0.378274
   1 C :   -0.202248
   2 C :   -0.060983
   3 C :   -0.063317
   4 C :   -0.162432
   5 H :    0.041388
   6 C :   -0.035980
   7 H :    0.036193
   8 H :    0.030023
   9 C :   -0.049303
  10 H :    0.028288
  11 H :    0.020408
  12 C :   -0.059560
  13 H :    0.025895
  14 H :    0.029166
  15 H :    0.012918
  16 S :    0.380547
  17 C :   -0.202889
  18 C :   -0.077167
  19 C :   -0.053328
  20 C :   -0.174945
  21 H :    0.035259
  22 C :   -0.042647
  23 H :    0.036590
  24 H :    0.026854
  25 C :   -0.043060
  26 H :    0.005117
  27 H :    0.023063
  28 C :   -0.063377
  29 H :    0.031315
  30 H :    0.024572
  31 H :    0.029628
  32 H :    0.046193
  33 H :    0.049545

  Mayer bond orders larger than 0.100000
B(  0-S ,  1-C ) :   1.1188 B(  0-S ,  4-C ) :   1.1117 B(  1-C ,  2-C ) :   1.6410
B(  1-C , 32-H ) :   0.9518 B(  2-C ,  3-C ) :   1.2358 B(  2-C ,  6-C ) :   1.0191
B(  3-C ,  4-C ) :   1.6025 B(  3-C ,  5-H ) :   0.9858 B(  4-C , 20-C ) :   1.0386
B(  6-C ,  7-H ) :   0.9532 B(  6-C ,  8-H ) :   0.9426 B(  6-C ,  9-C ) :   1.0530
B(  9-C , 10-H ) :   0.9603 B(  9-C , 11-H ) :   0.9495 B(  9-C , 12-C ) :   1.0932
B( 12-C , 13-H ) :   0.9715 B( 12-C , 14-H ) :   0.9691 B( 12-C , 15-H ) :   0.9774
B( 16-S , 17-C ) :   1.1395 B( 16-S , 20-C ) :   1.1213 B( 17-C , 18-C ) :   1.6389
B( 17-C , 33-H ) :   0.9555 B( 18-C , 19-C ) :   1.2141 B( 18-C , 21-H ) :   0.9823
B( 19-C , 20-C ) :   1.6038 B( 19-C , 22-C ) :   1.0413 B( 22-C , 23-H ) :   0.9425
B( 22-C , 24-H ) :   0.9304 B( 22-C , 25-C ) :   1.0483 B( 25-C , 26-H ) :   0.9507
B( 25-C , 27-H ) :   0.9528 B( 25-C , 28-C ) :   1.0744 B( 28-C , 29-H ) :   0.9728
B( 28-C , 30-H ) :   0.9758 B( 28-C , 31-H ) :   0.9775

Dispersion correction           -0.014448622
FINAL SINGLE POINT ENERGY     -1339.859651083211

DIPOLE MOMENT
-------------
                                X             Y             Z
Electronic contribution:    -16.23379       7.54668      -8.59765
Nuclear contribution   :     16.57284      -7.72194       8.58309
                        -----------------------------------------
Total Dipole Moment    :      0.33905      -0.17526      -0.01456
                        -----------------------------------------
Magnitude (a.u.)       :      0.38195
Magnitude (Debye)      :      0.97084

Rotational constants in cm-1:     0.017479     0.008792     0.006915
Rotational constants in MHz :   524.009406   263.567138   207.317438

                             ****ORCA TERMINATED NORMALLY****
TOTAL RUN TIME: 0 days 0 hours 0 minutes 21 seconds 219 msec
