                         Program Version 4.2.1 -  RELEASE  -
|  1> ! wB97X-D3 SP def2-SVP
|  2> %pal
|  3> nprocs 24
|  4> end
|  5>
|  6> * xyz 0 1
|  7> S 	 -112.341 	 57.5762 	 -99.6026
|  8> C 	 -113.932 	 57.1357 	 -100.008
|  9> C 	 -114.886 	 58.0714 	 -99.7216
| 10> C 	 -114.209 	 59.3074 	 -99.4191
| 11> C 	 -112.885 	 59.2333 	 -99.2323
| 12> H 	 -114.59 	 60.3042 	 -99.1579
| 13> C 	 -116.362 	 57.8985 	 -99.8535
| 14> H 	 -116.659 	 56.8406 	 -100.145
| 15> H 	 -116.7 	 58.4539 	 -100.677
| 16> C 	 -117.355 	 58.2186 	 -98.6677
| 17> H 	 -117.233 	 57.4963 	 -97.8489
| 18> H 	 -117.295 	 59.2629 	 -98.4274
| 19> C 	 -118.816 	 57.9902 	 -99.1732
| 20> H 	 -119.496 	 57.9702 	 -98.3221
| 21> H 	 -119.14 	 58.6366 	 -99.9516
| 22> H 	 -118.957 	 57.0327 	 -99.6352
| 23> S 	 -111.078 	 59.5641 	 -97.3077
| 24> C 	 -110.284 	 61.113 	 -97.1147
| 25> C 	 -110.674 	 62.058 	 -98.1056
| 26> C 	 -111.727 	 61.5754 	 -98.8776
| 27> C 	 -111.984 	 60.2517 	 -98.6757
| 28> H 	 -110.287 	 63.0371 	 -98.1632
| 29> C 	 -112.522 	 62.5009 	 -99.8155
| 30> H 	 -113.129 	 63.0614 	 -99.0755
| 31> H 	 -113.22 	 61.9192 	 -100.39
| 32> C 	 -111.719 	 63.3179 	 -100.796
| 33> H 	 -111.17 	 62.5889 	 -101.477
| 34> H 	 -110.92 	 63.7894 	 -100.141
| 35> C 	 -112.523 	 64.293 	 -101.656
| 36> H 	 -113.424 	 63.8515 	 -101.98
| 37> H 	 -112.109 	 64.6251 	 -102.599
| 38> H 	 -112.728 	 65.2768 	 -101.193
| 39> H 	 -114.271 	 56.1254 	 -100.283
| 40> H 	 -109.543 	 61.3747 	 -96.3784
| 41> *
| 42>
| 43>                          ****END OF INPUT****

CARTESIAN COORDINATES (ANGSTROEM)
---------------------------------
  S    -112.341000   57.576200  -99.602600
  C    -113.932000   57.135700  -100.008000
  C    -114.886000   58.071400  -99.721600
  C    -114.209000   59.307400  -99.419100
  C    -112.885000   59.233300  -99.232300
  H    -114.590000   60.304200  -99.157900
  C    -116.362000   57.898500  -99.853500
  H    -116.659000   56.840600  -100.145000
  H    -116.700000   58.453900  -100.677000
  C    -117.355000   58.218600  -98.667700
  H    -117.233000   57.496300  -97.848900
  H    -117.295000   59.262900  -98.427400
  C    -118.816000   57.990200  -99.173200
  H    -119.496000   57.970200  -98.322100
  H    -119.140000   58.636600  -99.951600
  H    -118.957000   57.032700  -99.635200
  S    -111.078000   59.564100  -97.307700
  C    -110.284000   61.113000  -97.114700
  C    -110.674000   62.058000  -98.105600
  C    -111.727000   61.575400  -98.877600
  C    -111.984000   60.251700  -98.675700
  H    -110.287000   63.037100  -98.163200
  C    -112.522000   62.500900  -99.815500
  H    -113.129000   63.061400  -99.075500
  H    -113.220000   61.919200  -100.390000
  C    -111.719000   63.317900  -100.796000
  H    -111.170000   62.588900  -101.477000
  H    -110.920000   63.789400  -100.141000
  C    -112.523000   64.293000  -101.656000
  H    -113.424000   63.851500  -101.980000
  H    -112.109000   64.625100  -102.599000
  H    -112.728000   65.276800  -101.193000
  H    -114.271000   56.125400  -100.283000
  H    -109.543000   61.374700  -96.378400

 Total Charge           Charge          ....    0
 Multiplicity           Mult            ....    1
 Number of Electrons    NEL             ....  134
 Basis Dimension        Dim             ....  322

ORBITAL ENERGIES
----------------

  NO   OCC          E(Eh)            E(eV)
   0   2.0000     -88.968004     -2420.9425
   1   2.0000     -88.963097     -2420.8089
   2   2.0000     -10.325407      -280.9686
   3   2.0000     -10.324493      -280.9437
   4   2.0000     -10.320203      -280.8270
   5   2.0000     -10.309241      -280.5287
   6   2.0000     -10.300759      -280.2979
   7   2.0000     -10.300179      -280.2821
   8   2.0000     -10.297769      -280.2165
   9   2.0000     -10.293888      -280.1109
  10   2.0000     -10.293334      -280.0959
  11   2.0000     -10.293306      -280.0951
  12   2.0000     -10.292182      -280.0645
  13   2.0000     -10.289364      -279.9878
  14   2.0000     -10.278121      -279.6819
  15   2.0000     -10.275152      -279.6011
  16   2.0000      -8.082176      -219.9272
  17   2.0000      -8.078409      -219.8247
  18   2.0000      -6.040621      -164.3737
  19   2.0000      -6.036910      -164.2727
  20   2.0000      -6.036792      -164.2695
  21   2.0000      -6.032987      -164.1659
  22   2.0000      -6.032976      -164.1656
  23   2.0000      -6.028993      -164.0572
  24   2.0000      -1.009862       -27.4797
  25   2.0000      -0.986859       -26.8538
  26   2.0000      -0.912357       -24.8265
  27   2.0000      -0.907022       -24.6813
  28   2.0000      -0.870435       -23.6857
  29   2.0000      -0.856120       -23.2962
  30   2.0000      -0.848492       -23.0886
  31   2.0000      -0.815036       -22.1783
  32   2.0000      -0.786530       -21.4026
  33   2.0000      -0.772084       -21.0095
  34   2.0000      -0.709375       -19.3031
  35   2.0000      -0.700848       -19.0710
  36   2.0000      -0.692843       -18.8532
  37   2.0000      -0.666990       -18.1497
  38   2.0000      -0.645734       -17.5713
  39   2.0000      -0.615536       -16.7496
  40   2.0000      -0.596791       -16.2395
  41   2.0000      -0.574596       -15.6355
  42   2.0000      -0.565151       -15.3785
  43   2.0000      -0.561718       -15.2851
  44   2.0000      -0.526359       -14.3230
  45   2.0000      -0.520419       -14.1613
  46   2.0000      -0.517288       -14.0761
  47   2.0000      -0.514753       -14.0071
  48   2.0000      -0.503916       -13.7122
  49   2.0000      -0.496862       -13.5203
  50   2.0000      -0.493485       -13.4284
  51   2.0000      -0.480419       -13.0729
  52   2.0000      -0.468808       -12.7569
  53   2.0000      -0.465667       -12.6714
  54   2.0000      -0.457727       -12.4554
  55   2.0000      -0.454671       -12.3722
  56   2.0000      -0.444543       -12.0966
  57   2.0000      -0.438765       -11.9394
  58   2.0000      -0.429707       -11.6929
  59   2.0000      -0.428569       -11.6620
  60   2.0000      -0.422776       -11.5043
  61   2.0000      -0.419317       -11.4102
  62   2.0000      -0.412319       -11.2198
  63   2.0000      -0.351662        -9.5692
  64   2.0000      -0.336712        -9.1624
  65   2.0000      -0.325731        -8.8636
  66   2.0000      -0.288545        -7.8517
  67   0.0000       0.036421         0.9911
  68   0.0000       0.065578         1.7845
  69   0.0000       0.109607         2.9826
  70   0.0000       0.125931         3.4268
  71   0.0000       0.133101         3.6218

MULLIKEN ATOMIC CHARGES
-----------------------
   0 S :    0.110842
   1 C :   -0.107205
   2 C :   -0.043514
   3 C :    0.022820
   4 C :   -0.149703
   5 H :    0.011894
   6 C :    0.022107
   7 H :    0.014800
   8 H :    0.021323
   9 C :   -0.055784
  10 H :    0.044311
  11 H :    0.037209
  12 C :   -0.053581
  13 H :    0.036535
  14 H :    0.023956
  15 H :    0.011026
  16 S :    0.108473
  17 C :   -0.081359
  18 C :   -0.042765
  19 C :   -0.033541
  20 C :   -0.173505
  21 H :    0.006669
  22 C :    0.082012
  23 H :    0.044805
  24 H :    0.010929
  25 C :   -0.110155
  26 H :    0.048169
  27 H :    0.032192
  28 C :   -0.009029
  29 H :    0.015256
  30 H :    0.023095
  31 H :    0.032496
  32 H :    0.047140
  33 H :    0.052084
Sum of atomic charges:    0.0000000

LOEWDIN ATOMIC CHARGES
----------------------
   0 S :    0.398447
   1 C :   -0.206398
   2 C :   -0.067811
   3 C :   -0.067168
   4 C :   -0.189194
   5 H :    0.032747
   6 C :   -0.037532
   7 H :    0.033992
   8 H :    0.025159
   9 C :   -0.026629
  10 H :    0.029706
  11 H :    0.022087
  12 C :   -0.065928
  13 H :    0.028300
  14 H :    0.019480
  15 H :    0.019536
  16 S :    0.402536
  17 C :   -0.180242
  18 C :   -0.065853
  19 C :   -0.058536
  20 C :   -0.183812
  21 H :    0.023729
  22 C :   -0.030156
  23 H :    0.037523
  24 H :    0.022303
  25 C :   -0.047927
  26 H :    0.037477
  27 H :    0.025975
  28 C :   -0.068739
  29 H :    0.020673
  30 H :    0.028167
  31 H :    0.030757
  32 H :    0.032057
  33 H :    0.025273

  Mayer bond orders larger than 0.100000
B(  0-S ,  1-C ) :   1.1381 B(  0-S ,  4-C ) :   1.1151 B(  1-C ,  2-C ) :   1.6521
B(  1-C , 32-H ) :   0.9553 B(  2-C ,  3-C ) :   1.1843 B(  2-C ,  6-C ) :   1.0276
B(  3-C ,  4-C ) :   1.6490 B(  3-C ,  5-H ) :   0.9845 B(  4-C , 20-C ) :   1.0148
B(  6-C ,  7-H ) :   0.9428 B(  6-C ,  8-H ) :   0.9406 B(  6-C ,  9-C ) :   1.0620
B(  9-C , 10-H ) :   0.9592 B(  9-C , 11-H ) :   0.9558 B(  9-C , 12-C ) :   1.0784
B( 12-C , 13-H ) :   0.9752 B( 12-C , 14-H ) :   0.9757 B( 12-C , 15-H ) :   0.9722
B( 16-S , 17-C ) :   1.1632 B( 16-S , 20-C ) :   1.1351 B( 17-C , 18-C ) :   1.5944
B( 17-C , 20-C ) :   0.1116 B( 17-C , 33-H ) :   0.9678 B( 18-C , 19-C ) :   1.2473
B( 18-C , 21-H ) :   0.9905 B( 19-C , 20-C ) :   1.6303 B( 19-C , 22-C ) :   1.0203
B( 22-C , 23-H ) :   0.9352 B( 22-C , 24-H ) :   0.9284 B( 22-C , 25-C ) :   1.0582
B( 25-C , 26-H ) :   0.9541 B( 25-C , 27-H ) :   0.9589 B( 25-C , 28-C ) :   1.0761
B( 28-C , 29-H ) :   0.9711 B( 28-C , 30-H ) :   0.9739 B( 28-C , 31-H ) :   0.9737

Dispersion correction           -0.013070827
FINAL SINGLE POINT ENERGY     -1339.863934215534

DIPOLE MOMENT
-------------
                                X             Y             Z
Electronic contribution:     22.11426     -13.54420      10.17265
Nuclear contribution   :    -22.66604      13.98877     -10.30071
                        -----------------------------------------
Total Dipole Moment    :     -0.55178       0.44457      -0.12806
                        -----------------------------------------
Magnitude (a.u.)       :      0.72007
Magnitude (Debye)      :      1.83028

Rotational constants in cm-1:     0.016878     0.007813     0.006262
Rotational constants in MHz :   505.983135   234.219087   187.718619

                             ****ORCA TERMINATED NORMALLY****
TOTAL RUN TIME: 0 days 0 hours 0 minutes 20 seconds 700 msec
