                         Program Version 4.2.1 -  RELEASE  -
|  1> ! wB97X-D3 SP def2-SVP
|  2> %pal
|  3> nprocs 24
|  4> end
|  5>
|  6> * xyz 0 1
|  7> S 	 -35.0975 	 -33.7339 	 -95.18
|  8> C 	 -35.6292 	 -32.9402 	 -96.6127
|  9> C 	 -35.3805 	 -31.5762 	 -96.5868
| 10> C 	 -34.8835 	 -31.1522 	 -95.3343
| 11> C 	 -34.5077 	 -32.2263 	 -94.4987
| 12> H 	 -34.665 	 -30.1715 	 -94.9046
| 13> C 	 -35.524 	 -30.5848 	 -97.7659
| 14> H 	 -35.6255 	 -29.489 	 -97.558
| 15> H 	 -36.5222 	 -30.8102 	 -98.1697
| 16> C 	 -34.416 	 -30.8397 	 -98.8
| 17> H 	 -34.7601 	 -31.7221 	 -99.3086
| 18> H 	 -34.4452 	 -29.9974 	 -99.5385
| 19> C 	 -33.0885 	 -30.88 	 -98.1088
| 20> H 	 -32.9109 	 -29.8819 	 -97.7354
| 21> H 	 -33.0973 	 -31.647 	 -97.3089
| 22> H 	 -32.2949 	 -31.1934 	 -98.7848
| 23> S 	 -34.1769 	 -32.8468 	 -91.8649
| 24> C 	 -32.6394 	 -32.5541 	 -91.1147
| 25> C 	 -31.8885 	 -31.6627 	 -91.8769
| 26> C 	 -32.3846 	 -31.5365 	 -93.1928
| 27> C 	 -33.6465 	 -32.1404 	 -93.3421
| 28> H 	 -30.9567 	 -31.275 	 -91.5361
| 29> C 	 -31.6677 	 -30.6756 	 -94.2536
| 30> H 	 -31.5165 	 -31.3173 	 -95.1331
| 31> H 	 -30.5967 	 -30.7722 	 -94.0145
| 32> C 	 -32.085 	 -29.1503 	 -94.2243
| 33> H 	 -31.8095 	 -28.6917 	 -93.3082
| 34> H 	 -33.1912 	 -29.0205 	 -94.2243
| 35> C 	 -31.5111 	 -28.3844 	 -95.3914
| 36> H 	 -31.1587 	 -27.368 	 -95.1823
| 37> H 	 -32.296 	 -28.2551 	 -96.1658
| 38> H 	 -30.7238 	 -28.9176 	 -95.9412
| 39> H 	 -35.8062 	 -33.5078 	 -97.5067
| 40> H 	 -32.3377 	 -32.7562 	 -90.0978
| 41> *
| 42>
| 43>                          ****END OF INPUT****

CARTESIAN COORDINATES (ANGSTROEM)
---------------------------------
  S    -35.097500  -33.733900  -95.180000
  C    -35.629200  -32.940200  -96.612700
  C    -35.380500  -31.576200  -96.586800
  C    -34.883500  -31.152200  -95.334300
  C    -34.507700  -32.226300  -94.498700
  H    -34.665000  -30.171500  -94.904600
  C    -35.524000  -30.584800  -97.765900
  H    -35.625500  -29.489000  -97.558000
  H    -36.522200  -30.810200  -98.169700
  C    -34.416000  -30.839700  -98.800000
  H    -34.760100  -31.722100  -99.308600
  H    -34.445200  -29.997400  -99.538500
  C    -33.088500  -30.880000  -98.108800
  H    -32.910900  -29.881900  -97.735400
  H    -33.097300  -31.647000  -97.308900
  H    -32.294900  -31.193400  -98.784800
  S    -34.176900  -32.846800  -91.864900
  C    -32.639400  -32.554100  -91.114700
  C    -31.888500  -31.662700  -91.876900
  C    -32.384600  -31.536500  -93.192800
  C    -33.646500  -32.140400  -93.342100
  H    -30.956700  -31.275000  -91.536100
  C    -31.667700  -30.675600  -94.253600
  H    -31.516500  -31.317300  -95.133100
  H    -30.596700  -30.772200  -94.014500
  C    -32.085000  -29.150300  -94.224300
  H    -31.809500  -28.691700  -93.308200
  H    -33.191200  -29.020500  -94.224300
  C    -31.511100  -28.384400  -95.391400
  H    -31.158700  -27.368000  -95.182300
  H    -32.296000  -28.255100  -96.165800
  H    -30.723800  -28.917600  -95.941200
  H    -35.806200  -33.507800  -97.506700
  H    -32.337700  -32.756200  -90.097800

 Total Charge           Charge          ....    0
 Multiplicity           Mult            ....    1
 Number of Electrons    NEL             ....  134
 Basis Dimension        Dim             ....  322

ORBITAL ENERGIES
----------------

  NO   OCC          E(Eh)            E(eV)
   0   2.0000     -88.966882     -2420.9119
   1   2.0000     -88.966491     -2420.9013
   2   2.0000     -10.327116      -281.0151
   3   2.0000     -10.322995      -280.9030
   4   2.0000     -10.314629      -280.6753
   5   2.0000     -10.311265      -280.5838
   6   2.0000     -10.304228      -280.3923
   7   2.0000     -10.302388      -280.3422
   8   2.0000     -10.298630      -280.2400
   9   2.0000     -10.294992      -280.1410
  10   2.0000     -10.294558      -280.1292
  11   2.0000     -10.293730      -280.1066
  12   2.0000     -10.290252      -280.0120
  13   2.0000     -10.284546      -279.8567
  14   2.0000     -10.280861      -279.7565
  15   2.0000     -10.272087      -279.5177
  16   2.0000      -8.082188      -219.9275
  17   2.0000      -8.081563      -219.9105
  18   2.0000      -6.040592      -164.3729
  19   2.0000      -6.039866      -164.3531
  20   2.0000      -6.036576      -164.2636
  21   2.0000      -6.035974      -164.2472
  22   2.0000      -6.033077      -164.1684
  23   2.0000      -6.032567      -164.1545
  24   2.0000      -1.008618       -27.4459
  25   2.0000      -0.986826       -26.8529
  26   2.0000      -0.914853       -24.8944
  27   2.0000      -0.904881       -24.6231
  28   2.0000      -0.869248       -23.6534
  29   2.0000      -0.854395       -23.2493
  30   2.0000      -0.845098       -22.9963
  31   2.0000      -0.811050       -22.0698
  32   2.0000      -0.782344       -21.2887
  33   2.0000      -0.769650       -20.9432
  34   2.0000      -0.711059       -19.3489
  35   2.0000      -0.698103       -18.9964
  36   2.0000      -0.693860       -18.8809
  37   2.0000      -0.663875       -18.0650
  38   2.0000      -0.643619       -17.5138
  39   2.0000      -0.607045       -16.5185
  40   2.0000      -0.591627       -16.0990
  41   2.0000      -0.580014       -15.7830
  42   2.0000      -0.555799       -15.1241
  43   2.0000      -0.553903       -15.0725
  44   2.0000      -0.543899       -14.8002
  45   2.0000      -0.534893       -14.5552
  46   2.0000      -0.517708       -14.0876
  47   2.0000      -0.507213       -13.8020
  48   2.0000      -0.505182       -13.7467
  49   2.0000      -0.495538       -13.4843
  50   2.0000      -0.489461       -13.3189
  51   2.0000      -0.480375       -13.0717
  52   2.0000      -0.468923       -12.7600
  53   2.0000      -0.464821       -12.6484
  54   2.0000      -0.456329       -12.4173
  55   2.0000      -0.451964       -12.2986
  56   2.0000      -0.442229       -12.0337
  57   2.0000      -0.436651       -11.8819
  58   2.0000      -0.433476       -11.7955
  59   2.0000      -0.424154       -11.5418
  60   2.0000      -0.418313       -11.3829
  61   2.0000      -0.413226       -11.2444
  62   2.0000      -0.401988       -10.9387
  63   2.0000      -0.341325        -9.2879
  64   2.0000      -0.332121        -9.0375
  65   2.0000      -0.330207        -8.9854
  66   2.0000      -0.289236        -7.8705
  67   0.0000       0.025689         0.6990
  68   0.0000       0.065599         1.7850
  69   0.0000       0.111647         3.0381
  70   0.0000       0.122343         3.3291
  71   0.0000       0.132408         3.6030

MULLIKEN ATOMIC CHARGES
-----------------------
   0 S :    0.122683
   1 C :   -0.111290
   2 C :   -0.110196
   3 C :    0.049161
   4 C :   -0.172691
   5 H :    0.001658
   6 C :    0.035687
   7 H :    0.033935
   8 H :    0.029248
   9 C :   -0.071913
  10 H :    0.022506
  11 H :    0.031991
  12 C :   -0.034037
  13 H :    0.020684
  14 H :    0.061486
  15 H :    0.030634
  16 S :    0.123743
  17 C :   -0.085827
  18 C :   -0.034027
  19 C :   -0.066159
  20 C :   -0.177826
  21 H :    0.008925
  22 C :    0.068647
  23 H :    0.033065
  24 H :    0.005280
  25 C :   -0.017088
  26 H :    0.019601
  27 H :    0.028733
  28 C :   -0.056067
  29 H :    0.035200
  30 H :    0.034647
  31 H :    0.035072
  32 H :    0.051345
  33 H :    0.053192
Sum of atomic charges:    0.0000000

LOEWDIN ATOMIC CHARGES
----------------------
   0 S :    0.420385
   1 C :   -0.211093
   2 C :   -0.062295
   3 C :   -0.057462
   4 C :   -0.199373
   5 H :    0.031266
   6 C :   -0.036566
   7 H :    0.031846
   8 H :    0.030637
   9 C :   -0.041634
  10 H :    0.017206
  11 H :    0.027040
  12 C :   -0.063427
  13 H :    0.023769
  14 H :    0.032664
  15 H :    0.025254
  16 S :    0.430911
  17 C :   -0.194045
  18 C :   -0.066992
  19 C :   -0.057018
  20 C :   -0.216512
  21 H :    0.026065
  22 C :   -0.044090
  23 H :    0.040959
  24 H :    0.032966
  25 C :   -0.031725
  26 H :    0.022610
  27 H :    0.025145
  28 C :   -0.071379
  29 H :    0.027055
  30 H :    0.026995
  31 H :    0.027418
  32 H :    0.024939
  33 H :    0.028483

  Mayer bond orders larger than 0.100000
B(  0-S ,  1-C ) :   1.1527 B(  0-S ,  4-C ) :   1.1657 B(  1-C ,  2-C ) :   1.5906
B(  1-C ,  4-C ) :   0.1025 B(  1-C , 32-H ) :   0.9661 B(  2-C ,  3-C ) :   1.2458
B(  2-C ,  6-C ) :   1.0005 B(  3-C ,  4-C ) :   1.5444 B(  3-C ,  5-H ) :   0.9990
B(  4-C , 20-C ) :   1.0535 B(  6-C ,  7-H ) :   0.9546 B(  6-C ,  8-H ) :   0.9457
B(  6-C ,  9-C ) :   1.0599 B(  9-C , 10-H ) :   0.9583 B(  9-C , 11-H ) :   0.9574
B(  9-C , 12-C ) :   1.0830 B( 12-C , 13-H ) :   0.9698 B( 12-C , 14-H ) :   0.9632
B( 12-C , 15-H ) :   0.9685 B( 16-S , 17-C ) :   1.1661 B( 16-S , 20-C ) :   1.1655
B( 17-C , 18-C ) :   1.5795 B( 17-C , 20-C ) :   0.1040 B( 17-C , 33-H ) :   0.9674
B( 18-C , 19-C ) :   1.2844 B( 18-C , 21-H ) :   0.9874 B( 19-C , 20-C ) :   1.5496
B( 19-C , 22-C ) :   1.0447 B( 22-C , 23-H ) :   0.9323 B( 22-C , 24-H ) :   0.9186
B( 22-C , 25-C ) :   1.0329 B( 25-C , 26-H ) :   0.9528 B( 25-C , 27-H ) :   0.9651
B( 25-C , 28-C ) :   1.0622 B( 28-C , 29-H ) :   0.9727 B( 28-C , 30-H ) :   0.9737
B( 28-C , 31-H ) :   0.9782

Dispersion correction           -0.017092179
FINAL SINGLE POINT ENERGY     -1339.862028658324

DIPOLE MOMENT
-------------
                                X             Y             Z
Electronic contribution:    -11.89596     -21.05426      19.53333
Nuclear contribution   :     12.38213      21.61558     -19.85344
                        -----------------------------------------
Total Dipole Moment    :      0.48617       0.56131      -0.32011
                        -----------------------------------------
Magnitude (a.u.)       :      0.80865
Magnitude (Debye)      :      2.05541

Rotational constants in cm-1:     0.018556     0.011269     0.007615
Rotational constants in MHz :   556.283389   337.843200   228.296949

                             ****ORCA TERMINATED NORMALLY****
TOTAL RUN TIME: 0 days 0 hours 0 minutes 24 seconds 32 msec
