                         Program Version 4.2.1 -  RELEASE  -
|  1> ! wB97X-D3 SP def2-SVP
|  2> %pal
|  3> nprocs 24
|  4> end
|  5>
|  6> * xyz 0 1
|  7> S 	 45.1784 	 -31.9661 	 -124.36
|  8> C 	 44.1304 	 -32.7399 	 -125.518
|  9> C 	 43.5791 	 -33.91 	 -124.948
| 10> C 	 44.0289 	 -34.2025 	 -123.623
| 11> C 	 44.8502 	 -33.2404 	 -123.112
| 12> H 	 43.7098 	 -35.0655 	 -123.087
| 13> C 	 42.6472 	 -34.9731 	 -125.592
| 14> H 	 42.1002 	 -35.5024 	 -124.767
| 15> H 	 43.3063 	 -35.761 	 -125.934
| 16> C 	 41.5869 	 -34.5334 	 -126.673
| 17> H 	 42.1262 	 -34.2094 	 -127.513
| 18> H 	 40.9753 	 -35.4453 	 -126.871
| 19> C 	 40.6267 	 -33.4952 	 -126.148
| 20> H 	 41.1252 	 -32.761 	 -125.596
| 21> H 	 40.202 	 -33.0035 	 -127.034
| 22> H 	 39.8033 	 -33.8968 	 -125.479
| 23> S 	 47.2181 	 -32.9865 	 -121.814
| 24> C 	 47.2846 	 -33.2244 	 -120.073
| 25> C 	 46.0366 	 -33.3621 	 -119.53
| 26> C 	 44.9756 	 -33.4583 	 -120.535
| 27> C 	 45.4819 	 -33.2403 	 -121.822
| 28> H 	 45.8882 	 -33.5259 	 -118.434
| 29> C 	 43.5224 	 -33.7658 	 -120.217
| 30> H 	 43.494 	 -34.006 	 -119.153
| 31> H 	 43.3159 	 -34.6561 	 -120.788
| 32> C 	 42.3685 	 -32.7228 	 -120.539
| 33> H 	 42.3076 	 -32.5163 	 -121.642
| 34> H 	 42.5784 	 -31.7157 	 -120.19
| 35> C 	 40.926 	 -33.3246 	 -120.128
| 36> H 	 40.6485 	 -34.1156 	 -120.779
| 37> H 	 40.0756 	 -32.7213 	 -120.355
| 38> H 	 40.857 	 -33.5879 	 -119.084
| 39> H 	 43.9699 	 -32.4131 	 -126.484
| 40> H 	 48.1341 	 -33.3834 	 -119.552
| 41> *
| 42>
| 43>                          ****END OF INPUT****

CARTESIAN COORDINATES (ANGSTROEM)
---------------------------------
  S     45.178400  -31.966100  -124.360000
  C     44.130400  -32.739900  -125.518000
  C     43.579100  -33.910000  -124.948000
  C     44.028900  -34.202500  -123.623000
  C     44.850200  -33.240400  -123.112000
  H     43.709800  -35.065500  -123.087000
  C     42.647200  -34.973100  -125.592000
  H     42.100200  -35.502400  -124.767000
  H     43.306300  -35.761000  -125.934000
  C     41.586900  -34.533400  -126.673000
  H     42.126200  -34.209400  -127.513000
  H     40.975300  -35.445300  -126.871000
  C     40.626700  -33.495200  -126.148000
  H     41.125200  -32.761000  -125.596000
  H     40.202000  -33.003500  -127.034000
  H     39.803300  -33.896800  -125.479000
  S     47.218100  -32.986500  -121.814000
  C     47.284600  -33.224400  -120.073000
  C     46.036600  -33.362100  -119.530000
  C     44.975600  -33.458300  -120.535000
  C     45.481900  -33.240300  -121.822000
  H     45.888200  -33.525900  -118.434000
  C     43.522400  -33.765800  -120.217000
  H     43.494000  -34.006000  -119.153000
  H     43.315900  -34.656100  -120.788000
  C     42.368500  -32.722800  -120.539000
  H     42.307600  -32.516300  -121.642000
  H     42.578400  -31.715700  -120.190000
  C     40.926000  -33.324600  -120.128000
  H     40.648500  -34.115600  -120.779000
  H     40.075600  -32.721300  -120.355000
  H     40.857000  -33.587900  -119.084000
  H     43.969900  -32.413100  -126.484000
  H     48.134100  -33.383400  -119.552000

 Total Charge           Charge          ....    0
 Multiplicity           Mult            ....    1
 Number of Electrons    NEL             ....  134
 Basis Dimension        Dim             ....  322

ORBITAL ENERGIES
----------------

  NO   OCC          E(Eh)            E(eV)
   0   2.0000     -88.967297     -2420.9232
   1   2.0000     -88.964972     -2420.8600
   2   2.0000     -10.332274      -281.1555
   3   2.0000     -10.326367      -280.9947
   4   2.0000     -10.313828      -280.6535
   5   2.0000     -10.310988      -280.5763
   6   2.0000     -10.309878      -280.5460
   7   2.0000     -10.306271      -280.4479
   8   2.0000     -10.301010      -280.3047
   9   2.0000     -10.297056      -280.1971
  10   2.0000     -10.296785      -280.1898
  11   2.0000     -10.296318      -280.1771
  12   2.0000     -10.291366      -280.0423
  13   2.0000     -10.287917      -279.9485
  14   2.0000     -10.277313      -279.6599
  15   2.0000     -10.274044      -279.5710
  16   2.0000      -8.081045      -219.8964
  17   2.0000      -8.079685      -219.8594
  18   2.0000      -6.039775      -164.3506
  19   2.0000      -6.038242      -164.3089
  20   2.0000      -6.035633      -164.2379
  21   2.0000      -6.034227      -164.1997
  22   2.0000      -6.031685      -164.1305
  23   2.0000      -6.030360      -164.0944
  24   2.0000      -1.003204       -27.2986
  25   2.0000      -0.978418       -26.6241
  26   2.0000      -0.905154       -24.6305
  27   2.0000      -0.896491       -24.3947
  28   2.0000      -0.871587       -23.7171
  29   2.0000      -0.852325       -23.1929
  30   2.0000      -0.842955       -22.9380
  31   2.0000      -0.813946       -22.1486
  32   2.0000      -0.780754       -21.2454
  33   2.0000      -0.770966       -20.9791
  34   2.0000      -0.715165       -19.4606
  35   2.0000      -0.704494       -19.1703
  36   2.0000      -0.695248       -18.9187
  37   2.0000      -0.665180       -18.1005
  38   2.0000      -0.645490       -17.5647
  39   2.0000      -0.612323       -16.6622
  40   2.0000      -0.591909       -16.1067
  41   2.0000      -0.573402       -15.6031
  42   2.0000      -0.558572       -15.1995
  43   2.0000      -0.550689       -14.9850
  44   2.0000      -0.540241       -14.7007
  45   2.0000      -0.518479       -14.1085
  46   2.0000      -0.517558       -14.0835
  47   2.0000      -0.511906       -13.9297
  48   2.0000      -0.504299       -13.7227
  49   2.0000      -0.501629       -13.6500
  50   2.0000      -0.486596       -13.2409
  51   2.0000      -0.481170       -13.0933
  52   2.0000      -0.479266       -13.0415
  53   2.0000      -0.462465       -12.5843
  54   2.0000      -0.454814       -12.3761
  55   2.0000      -0.448037       -12.1917
  56   2.0000      -0.439968       -11.9721
  57   2.0000      -0.437830       -11.9140
  58   2.0000      -0.433889       -11.8067
  59   2.0000      -0.427196       -11.6246
  60   2.0000      -0.419062       -11.4033
  61   2.0000      -0.415251       -11.2996
  62   2.0000      -0.413104       -11.2411
  63   2.0000      -0.353604        -9.6221
  64   2.0000      -0.330969        -9.0061
  65   2.0000      -0.326172        -8.8756
  66   2.0000      -0.288068        -7.8387
  67   0.0000       0.026891         0.7318
  68   0.0000       0.065771         1.7897
  69   0.0000       0.108327         2.9477
  70   0.0000       0.118195         3.2163
  71   0.0000       0.130320         3.5462

MULLIKEN ATOMIC CHARGES
-----------------------
   0 S :    0.103857
   1 C :   -0.094367
   2 C :   -0.092106
   3 C :    0.022814
   4 C :   -0.125158
   5 H :    0.007755
   6 C :    0.011664
   7 H :    0.020567
   8 H :    0.041964
   9 C :   -0.046956
  10 H :    0.025678
  11 H :    0.039623
  12 C :   -0.052246
  13 H :    0.024960
  14 H :    0.033986
  15 H :    0.040017
  16 S :    0.104175
  17 C :   -0.047524
  18 C :   -0.039490
  19 C :   -0.054155
  20 C :   -0.157753
  21 H :    0.036750
  22 C :    0.080114
  23 H :    0.016813
  24 H :    0.024868
  25 C :   -0.078987
  26 H :    0.043846
  27 H :    0.034196
  28 C :   -0.042408
  29 H :    0.018999
  30 H :    0.020665
  31 H :    0.037959
  32 H :    0.021581
  33 H :    0.018300
Sum of atomic charges:   -0.0000000

LOEWDIN ATOMIC CHARGES
----------------------
   0 S :    0.383104
   1 C :   -0.196705
   2 C :   -0.056911
   3 C :   -0.059305
   4 C :   -0.170993
   5 H :    0.028756
   6 C :   -0.039016
   7 H :    0.029839
   8 H :    0.032314
   9 C :   -0.038096
  10 H :    0.015533
  11 H :    0.034750
  12 C :   -0.067122
  13 H :    0.014386
  14 H :    0.030151
  15 H :    0.033243
  16 S :    0.401388
  17 C :   -0.165491
  18 C :   -0.070238
  19 C :   -0.052966
  20 C :   -0.197246
  21 H :    0.039591
  22 C :   -0.032143
  23 H :    0.029958
  24 H :    0.030703
  25 C :   -0.036869
  26 H :    0.031794
  27 H :    0.022445
  28 C :   -0.068448
  29 H :    0.023170
  30 H :    0.026055
  31 H :    0.023254
  32 H :    0.012999
  33 H :    0.008116

  Mayer bond orders larger than 0.100000
B(  0-S ,  1-C ) :   1.1259 B(  0-S ,  4-C ) :   1.1301 B(  1-C ,  2-C ) :   1.5939
B(  1-C , 32-H ) :   0.9835 B(  2-C ,  3-C ) :   1.2464 B(  2-C ,  6-C ) :   1.0042
B(  3-C ,  4-C ) :   1.5741 B(  3-C ,  5-H ) :   0.9985 B(  4-C , 20-C ) :   1.0666
B(  6-C ,  7-H ) :   0.9471 B(  6-C ,  8-H ) :   0.9416 B(  6-C ,  9-C ) :   1.0692
B(  9-C , 10-H ) :   0.9575 B(  9-C , 11-H ) :   0.9554 B(  9-C , 12-C ) :   1.0794
B( 12-C , 13-H ) :   0.9762 B( 12-C , 14-H ) :   0.9732 B( 12-C , 15-H ) :   0.9748
B( 16-S , 17-C ) :   1.1439 B( 16-S , 20-C ) :   1.1367 B( 17-C , 18-C ) :   1.6235
B( 17-C , 33-H ) :   0.9801 B( 18-C , 19-C ) :   1.2335 B( 18-C , 21-H ) :   0.9775
B( 19-C , 20-C ) :   1.5912 B( 19-C , 22-C ) :   1.0430 B( 22-C , 23-H ) :   0.9329
B( 22-C , 24-H ) :   0.9328 B( 22-C , 25-C ) :   1.0482 B( 25-C , 26-H ) :   0.9553
B( 25-C , 27-H ) :   0.9633 B( 25-C , 28-C ) :   1.0641 B( 28-C , 29-H ) :   0.9745
B( 28-C , 30-H ) :   0.9731 B( 28-C , 31-H ) :   0.9811

Dispersion correction           -0.014616888
FINAL SINGLE POINT ENERGY     -1339.865761122684

DIPOLE MOMENT
-------------
                                X             Y             Z
Electronic contribution:     29.71098       7.62809       1.50287
Nuclear contribution   :    -30.24210      -8.10903      -1.38415
                        -----------------------------------------
Total Dipole Moment    :     -0.53112      -0.48094       0.11872
                        -----------------------------------------
Magnitude (a.u.)       :      0.72629
Magnitude (Debye)      :      1.84608

Rotational constants in cm-1:     0.018957     0.009033     0.006792
Rotational constants in MHz :   568.309806   270.806579   203.628049

                             ****ORCA TERMINATED NORMALLY****
TOTAL RUN TIME: 0 days 0 hours 0 minutes 20 seconds 763 msec
