                         Program Version 4.2.1 -  RELEASE  -
|  1> ! wB97X-D3 SP def2-SVP
|  2> %pal
|  3> nprocs 24
|  4> end
|  5>
|  6> * xyz 0 1
|  7> S 	 -99.8284 	 -4.33162 	 -109.219
|  8> C 	 -99.7338 	 -5.86868 	 -110.015
|  9> C 	 -100.818 	 -6.68426 	 -109.676
| 10> C 	 -101.78 	 -6.05792 	 -108.886
| 11> C 	 -101.422 	 -4.75822 	 -108.616
| 12> H 	 -102.781 	 -6.42768 	 -108.568
| 13> C 	 -101.032 	 -8.12156 	 -110.172
| 14> H 	 -99.9847 	 -8.41593 	 -110.23
| 15> H 	 -101.386 	 -8.16383 	 -111.208
| 16> C 	 -101.861 	 -9.11784 	 -109.329
| 17> H 	 -102.919 	 -8.83035 	 -109.265
| 18> H 	 -101.923 	 -10.1694 	 -109.705
| 19> C 	 -101.295 	 -9.32681 	 -107.849
| 20> H 	 -101.313 	 -8.41675 	 -107.235
| 21> H 	 -101.844 	 -10.1089 	 -107.25
| 22> H 	 -100.211 	 -9.603 	 -107.84
| 23> S 	 -103.535 	 -3.0034 	 -108.383
| 24> C 	 -103.952 	 -2.49346 	 -106.828
| 25> C 	 -102.941 	 -2.76906 	 -105.902
| 26> C 	 -101.89 	 -3.5739 	 -106.398
| 27> C 	 -102.148 	 -3.86264 	 -107.754
| 28> H 	 -103.087 	 -2.45625 	 -104.905
| 29> C 	 -100.727 	 -3.97424 	 -105.502
| 30> H 	 -100.607 	 -3.21635 	 -104.754
| 31> H 	 -99.8637 	 -4.07868 	 -106.114
| 32> C 	 -100.723 	 -5.30683 	 -104.768
| 33> H 	 -101.02 	 -6.13694 	 -105.403
| 34> H 	 -101.381 	 -5.37754 	 -103.936
| 35> C 	 -99.2842 	 -5.55502 	 -104.305
| 36> H 	 -98.8289 	 -5.99364 	 -105.167
| 37> H 	 -99.3669 	 -6.31108 	 -103.508
| 38> H 	 -98.7763 	 -4.6859 	 -103.955
| 39> H 	 -98.9594 	 -6.25183 	 -110.643
| 40> H 	 -104.859 	 -2.1301 	 -106.41
| 41> *
| 42>
| 43>                          ****END OF INPUT****

CARTESIAN COORDINATES (ANGSTROEM)
---------------------------------
  S    -99.828400   -4.331620  -109.219000
  C    -99.733800   -5.868680  -110.015000
  C    -100.818000   -6.684260  -109.676000
  C    -101.780000   -6.057920  -108.886000
  C    -101.422000   -4.758220  -108.616000
  H    -102.781000   -6.427680  -108.568000
  C    -101.032000   -8.121560  -110.172000
  H    -99.984700   -8.415930  -110.230000
  H    -101.386000   -8.163830  -111.208000
  C    -101.861000   -9.117840  -109.329000
  H    -102.919000   -8.830350  -109.265000
  H    -101.923000  -10.169400  -109.705000
  C    -101.295000   -9.326810  -107.849000
  H    -101.313000   -8.416750  -107.235000
  H    -101.844000  -10.108900  -107.250000
  H    -100.211000   -9.603000  -107.840000
  S    -103.535000   -3.003400  -108.383000
  C    -103.952000   -2.493460  -106.828000
  C    -102.941000   -2.769060  -105.902000
  C    -101.890000   -3.573900  -106.398000
  C    -102.148000   -3.862640  -107.754000
  H    -103.087000   -2.456250  -104.905000
  C    -100.727000   -3.974240  -105.502000
  H    -100.607000   -3.216350  -104.754000
  H    -99.863700   -4.078680  -106.114000
  C    -100.723000   -5.306830  -104.768000
  H    -101.020000   -6.136940  -105.403000
  H    -101.381000   -5.377540  -103.936000
  C    -99.284200   -5.555020  -104.305000
  H    -98.828900   -5.993640  -105.167000
  H    -99.366900   -6.311080  -103.508000
  H    -98.776300   -4.685900  -103.955000
  H    -98.959400   -6.251830  -110.643000
  H    -104.859000   -2.130100  -106.410000

 Total Charge           Charge          ....    0
 Multiplicity           Mult            ....    1
 Number of Electrons    NEL             ....  134
 Basis Dimension        Dim             ....  322

ORBITAL ENERGIES
----------------

  NO   OCC          E(Eh)            E(eV)
   0   2.0000     -88.970993     -2421.0238
   1   2.0000     -88.968022     -2420.9430
   2   2.0000     -10.322782      -280.8972
   3   2.0000     -10.319678      -280.8127
   4   2.0000     -10.312609      -280.6204
   5   2.0000     -10.306509      -280.4544
   6   2.0000     -10.300723      -280.2969
   7   2.0000     -10.300590      -280.2933
   8   2.0000     -10.300586      -280.2932
   9   2.0000     -10.295729      -280.1610
  10   2.0000     -10.292629      -280.0767
  11   2.0000     -10.286521      -279.9105
  12   2.0000     -10.285351      -279.8786
  13   2.0000     -10.283409      -279.8258
  14   2.0000     -10.276493      -279.6376
  15   2.0000     -10.270889      -279.4851
  16   2.0000      -8.085306      -220.0124
  17   2.0000      -8.083397      -219.9604
  18   2.0000      -6.043666      -164.4565
  19   2.0000      -6.041694      -164.4028
  20   2.0000      -6.039845      -164.3525
  21   2.0000      -6.037762      -164.2958
  22   2.0000      -6.036274      -164.2554
  23   2.0000      -6.034414      -164.2048
  24   2.0000      -1.009597       -27.4725
  25   2.0000      -0.987556       -26.8728
  26   2.0000      -0.915227       -24.9046
  27   2.0000      -0.903815       -24.5940
  28   2.0000      -0.866781       -23.5863
  29   2.0000      -0.855905       -23.2904
  30   2.0000      -0.845438       -23.0056
  31   2.0000      -0.810965       -22.0675
  32   2.0000      -0.782732       -21.2992
  33   2.0000      -0.768010       -20.8986
  34   2.0000      -0.710801       -19.3419
  35   2.0000      -0.699195       -19.0261
  36   2.0000      -0.691725       -18.8228
  37   2.0000      -0.659674       -17.9506
  38   2.0000      -0.637642       -17.3511
  39   2.0000      -0.621537       -16.9129
  40   2.0000      -0.598270       -16.2798
  41   2.0000      -0.575746       -15.6669
  42   2.0000      -0.561181       -15.2705
  43   2.0000      -0.547899       -14.9091
  44   2.0000      -0.533426       -14.5153
  45   2.0000      -0.522981       -14.2310
  46   2.0000      -0.518507       -14.1093
  47   2.0000      -0.511722       -13.9247
  48   2.0000      -0.498686       -13.5699
  49   2.0000      -0.495743       -13.4899
  50   2.0000      -0.490103       -13.3364
  51   2.0000      -0.477001       -12.9798
  52   2.0000      -0.473929       -12.8963
  53   2.0000      -0.465126       -12.6567
  54   2.0000      -0.456131       -12.4120
  55   2.0000      -0.449660       -12.2359
  56   2.0000      -0.444263       -12.0890
  57   2.0000      -0.437198       -11.8968
  58   2.0000      -0.434839       -11.8326
  59   2.0000      -0.430406       -11.7119
  60   2.0000      -0.423282       -11.5181
  61   2.0000      -0.415988       -11.3196
  62   2.0000      -0.411831       -11.2065
  63   2.0000      -0.340772        -9.2729
  64   2.0000      -0.330507        -8.9936
  65   2.0000      -0.316733        -8.6187
  66   2.0000      -0.300578        -8.1792
  67   0.0000       0.037069         1.0087
  68   0.0000       0.058159         1.5826
  69   0.0000       0.110869         3.0169
  70   0.0000       0.119122         3.2415
  71   0.0000       0.130248         3.5442

MULLIKEN ATOMIC CHARGES
-----------------------
   0 S :    0.135175
   1 C :   -0.109469
   2 C :   -0.099896
   3 C :    0.038293
   4 C :   -0.185028
   5 H :    0.033391
   6 C :    0.084513
   7 H :    0.015996
   8 H :    0.050208
   9 C :   -0.086927
  10 H :    0.036745
  11 H :    0.043903
  12 C :   -0.109467
  13 H :    0.037862
  14 H :    0.043429
  15 H :    0.036321
  16 S :    0.146438
  17 C :   -0.075512
  18 C :   -0.057521
  19 C :    0.018554
  20 C :   -0.226253
  21 H :   -0.003320
  22 C :    0.113038
  23 H :    0.019607
  24 H :   -0.001633
  25 C :   -0.063706
  26 H :    0.026120
  27 H :    0.011613
  28 C :   -0.045340
  29 H :    0.038318
  30 H :    0.029688
  31 H :    0.032834
  32 H :    0.032061
  33 H :    0.039964
Sum of atomic charges:    0.0000000

LOEWDIN ATOMIC CHARGES
----------------------
   0 S :    0.422781
   1 C :   -0.207168
   2 C :   -0.064146
   3 C :   -0.059625
   4 C :   -0.197917
   5 H :    0.043942
   6 C :   -0.036301
   7 H :    0.030619
   8 H :    0.036949
   9 C :   -0.046279
  10 H :    0.023811
  11 H :    0.035250
  12 C :   -0.081362
  13 H :    0.021076
  14 H :    0.030338
  15 H :    0.027867
  16 S :    0.442931
  17 C :   -0.211526
  18 C :   -0.068405
  19 C :   -0.047272
  20 C :   -0.215945
  21 H :    0.020692
  22 C :   -0.025003
  23 H :    0.031175
  24 H :    0.022966
  25 C :   -0.033289
  26 H :    0.023739
  27 H :    0.011477
  28 C :   -0.056163
  29 H :    0.026177
  30 H :    0.028255
  31 H :    0.019672
  32 H :    0.023983
  33 H :    0.026698

  Mayer bond orders larger than 0.100000
B(  0-S ,  1-C ) :   1.1435 B(  0-S ,  4-C ) :   1.1635 B(  1-C ,  2-C ) :   1.6061
B(  1-C ,  4-C ) :   0.1031 B(  1-C , 32-H ) :   0.9701 B(  2-C ,  3-C ) :   1.2582
B(  2-C ,  6-C ) :   0.9897 B(  3-C ,  4-C ) :   1.5762 B(  3-C ,  5-H ) :   0.9854
B(  4-C , 20-C ) :   1.0238 B(  6-C ,  7-H ) :   0.9397 B(  6-C ,  8-H ) :   0.9405
B(  6-C ,  9-C ) :   1.0737 B(  9-C , 10-H ) :   0.9513 B(  9-C , 11-H ) :   0.9587
B(  9-C , 12-C ) :   1.0612 B( 12-C , 13-H ) :   0.9780 B( 12-C , 14-H ) :   0.9768
B( 12-C , 15-H ) :   0.9756 B( 16-S , 17-C ) :   1.1694 B( 16-S , 20-C ) :   1.1664
B( 17-C , 18-C ) :   1.5912 B( 17-C , 20-C ) :   0.1032 B( 17-C , 33-H ) :   0.9666
B( 18-C , 19-C ) :   1.2689 B( 18-C , 21-H ) :   0.9920 B( 19-C , 20-C ) :   1.5477
B( 19-C , 22-C ) :   1.0419 B( 22-C , 23-H ) :   0.9281 B( 22-C , 24-H ) :   0.9229
B( 22-C , 25-C ) :   1.0749 B( 25-C , 26-H ) :   0.9549 B( 25-C , 27-H ) :   0.9547
B( 25-C , 28-C ) :   1.0745 B( 28-C , 29-H ) :   0.9783 B( 28-C , 30-H ) :   0.9743
B( 28-C , 31-H ) :   0.9756

Dispersion correction           -0.015094539
FINAL SINGLE POINT ENERGY     -1339.868325530741

DIPOLE MOMENT
-------------
                                X             Y             Z
Electronic contribution:     -6.56718      22.58012     -13.93358
Nuclear contribution   :      6.53601     -23.09409      14.23909
                        -----------------------------------------
Total Dipole Moment    :     -0.03117      -0.51398       0.30552
                        -----------------------------------------
Magnitude (a.u.)       :      0.59873
Magnitude (Debye)      :      1.52186

Rotational constants in cm-1:     0.016332     0.009858     0.008253
Rotational constants in MHz :   489.629715   295.523178   247.424320

                             ****ORCA TERMINATED NORMALLY****
TOTAL RUN TIME: 0 days 0 hours 0 minutes 23 seconds 498 msec
