                         Program Version 4.2.1 -  RELEASE  -
|  1> ! wB97X-D3 SP def2-SVP
|  2> %pal
|  3> nprocs 24
|  4> end
|  5>
|  6> * xyz 0 1
|  7> S 	 -33.492 	 10.3412 	 5.70733
|  8> C 	 -33.5049 	 12.1058 	 5.45213
|  9> C 	 -32.2943 	 12.7368 	 5.72739
| 10> C 	 -31.3279 	 11.768 	 6.12783
| 11> C 	 -31.7828 	 10.4626 	 6.14778
| 12> H 	 -30.3278 	 11.8829 	 6.4736
| 13> C 	 -31.8335 	 14.1713 	 5.56403
| 14> H 	 -31.4243 	 14.2109 	 4.54174
| 15> H 	 -31.0032 	 14.3258 	 6.30218
| 16> C 	 -32.7958 	 15.3254 	 5.90339
| 17> H 	 -33.695 	 15.3497 	 5.3248
| 18> H 	 -33.2563 	 15.1588 	 6.86831
| 19> C 	 -32.1603 	 16.724 	 5.67731
| 20> H 	 -32.2328 	 17.0435 	 4.6198
| 21> H 	 -32.6821 	 17.3916 	 6.36321
| 22> H 	 -31.0936 	 16.772 	 6.0322
| 23> S 	 -31.6642 	 8.66886 	 8.06198
| 24> C 	 -30.1786 	 7.861 	 8.36978
| 25> C 	 -29.2076 	 8.14654 	 7.42069
| 26> C 	 -29.7309 	 8.9251 	 6.32664
| 27> C 	 -31.0058 	 9.31705 	 6.59263
| 28> H 	 -28.1862 	 7.78687 	 7.46791
| 29> C 	 -28.9198 	 9.32033 	 5.07059
| 30> H 	 -28.6314 	 10.4044 	 5.10394
| 31> H 	 -29.6883 	 9.264 	 4.32143
| 32> C 	 -27.7855 	 8.37758 	 4.68831
| 33> H 	 -27.6206 	 8.70508 	 3.65696
| 34> H 	 -28.1627 	 7.4116 	 4.57239
| 35> C 	 -26.447 	 8.52829 	 5.39705
| 36> H 	 -25.6768 	 7.92156 	 4.99051
| 37> H 	 -26.3695 	 8.37634 	 6.51325
| 38> H 	 -26.2108 	 9.59337 	 5.37657
| 39> H 	 -34.3597 	 12.5334 	 5.05749
| 40> H 	 -29.8932 	 7.21714 	 9.22815
| 41> *
| 42>
| 43>                          ****END OF INPUT****

CARTESIAN COORDINATES (ANGSTROEM)
---------------------------------
  S    -33.492000   10.341200    5.707330
  C    -33.504900   12.105800    5.452130
  C    -32.294300   12.736800    5.727390
  C    -31.327900   11.768000    6.127830
  C    -31.782800   10.462600    6.147780
  H    -30.327800   11.882900    6.473600
  C    -31.833500   14.171300    5.564030
  H    -31.424300   14.210900    4.541740
  H    -31.003200   14.325800    6.302180
  C    -32.795800   15.325400    5.903390
  H    -33.695000   15.349700    5.324800
  H    -33.256300   15.158800    6.868310
  C    -32.160300   16.724000    5.677310
  H    -32.232800   17.043500    4.619800
  H    -32.682100   17.391600    6.363210
  H    -31.093600   16.772000    6.032200
  S    -31.664200    8.668860    8.061980
  C    -30.178600    7.861000    8.369780
  C    -29.207600    8.146540    7.420690
  C    -29.730900    8.925100    6.326640
  C    -31.005800    9.317050    6.592630
  H    -28.186200    7.786870    7.467910
  C    -28.919800    9.320330    5.070590
  H    -28.631400   10.404400    5.103940
  H    -29.688300    9.264000    4.321430
  C    -27.785500    8.377580    4.688310
  H    -27.620600    8.705080    3.656960
  H    -28.162700    7.411600    4.572390
  C    -26.447000    8.528290    5.397050
  H    -25.676800    7.921560    4.990510
  H    -26.369500    8.376340    6.513250
  H    -26.210800    9.593370    5.376570
  H    -34.359700   12.533400    5.057490
  H    -29.893200    7.217140    9.228150

 Total Charge           Charge          ....    0
 Multiplicity           Mult            ....    1
 Number of Electrons    NEL             ....  134
 Basis Dimension        Dim             ....  322

ORBITAL ENERGIES
----------------

  NO   OCC          E(Eh)            E(eV)
   0   2.0000     -88.964613     -2420.8502
   1   2.0000     -88.962672     -2420.7974
   2   2.0000     -10.324996      -280.9574
   3   2.0000     -10.314761      -280.6789
   4   2.0000     -10.314283      -280.6659
   5   2.0000     -10.311455      -280.5889
   6   2.0000     -10.304261      -280.3932
   7   2.0000     -10.299553      -280.2651
   8   2.0000     -10.299295      -280.2581
   9   2.0000     -10.295495      -280.1547
  10   2.0000     -10.290254      -280.0120
  11   2.0000     -10.287341      -279.9328
  12   2.0000     -10.286494      -279.9097
  13   2.0000     -10.285404      -279.8801
  14   2.0000     -10.285207      -279.8747
  15   2.0000     -10.282919      -279.8125
  16   2.0000      -8.078704      -219.8327
  17   2.0000      -8.078385      -219.8240
  18   2.0000      -6.037174      -164.2799
  19   2.0000      -6.036804      -164.2698
  20   2.0000      -6.033462      -164.1788
  21   2.0000      -6.032762      -164.1598
  22   2.0000      -6.029419      -164.0688
  23   2.0000      -6.029142      -164.0613
  24   2.0000      -1.007586       -27.4178
  25   2.0000      -0.979090       -26.6424
  26   2.0000      -0.912628       -24.8339
  27   2.0000      -0.907428       -24.6924
  28   2.0000      -0.866391       -23.5757
  29   2.0000      -0.853808       -23.2333
  30   2.0000      -0.846162       -23.0252
  31   2.0000      -0.809771       -22.0350
  32   2.0000      -0.786673       -21.4065
  33   2.0000      -0.772216       -21.0131
  34   2.0000      -0.710283       -19.3278
  35   2.0000      -0.706347       -19.2207
  36   2.0000      -0.688747       -18.7418
  37   2.0000      -0.660415       -17.9708
  38   2.0000      -0.647327       -17.6147
  39   2.0000      -0.610217       -16.6049
  40   2.0000      -0.594982       -16.1903
  41   2.0000      -0.569452       -15.4956
  42   2.0000      -0.562135       -15.2965
  43   2.0000      -0.553589       -15.0639
  44   2.0000      -0.532292       -14.4844
  45   2.0000      -0.523595       -14.2477
  46   2.0000      -0.515549       -14.0288
  47   2.0000      -0.512921       -13.9573
  48   2.0000      -0.502669       -13.6783
  49   2.0000      -0.499155       -13.5827
  50   2.0000      -0.491333       -13.3698
  51   2.0000      -0.479966       -13.0605
  52   2.0000      -0.474069       -12.9001
  53   2.0000      -0.468223       -12.7410
  54   2.0000      -0.454403       -12.3649
  55   2.0000      -0.449095       -12.2205
  56   2.0000      -0.442942       -12.0531
  57   2.0000      -0.437199       -11.8968
  58   2.0000      -0.433478       -11.7955
  59   2.0000      -0.430916       -11.7258
  60   2.0000      -0.424194       -11.5429
  61   2.0000      -0.416155       -11.3242
  62   2.0000      -0.406655       -11.0656
  63   2.0000      -0.340344        -9.2612
  64   2.0000      -0.329890        -8.9768
  65   2.0000      -0.328039        -8.9264
  66   2.0000      -0.290837        -7.9141
  67   0.0000       0.036661         0.9976
  68   0.0000       0.067679         1.8416
  69   0.0000       0.107833         2.9343
  70   0.0000       0.122664         3.3379
  71   0.0000       0.137360         3.7378

MULLIKEN ATOMIC CHARGES
-----------------------
   0 S :    0.096806
   1 C :   -0.116795
   2 C :   -0.031962
   3 C :    0.026339
   4 C :   -0.175530
   5 H :    0.002541
   6 C :    0.035837
   7 H :    0.053927
   8 H :    0.038202
   9 C :   -0.069890
  10 H :    0.015976
  11 H :    0.025816
  12 C :   -0.067825
  13 H :    0.052444
  14 H :    0.035663
  15 H :    0.033526
  16 S :    0.121040
  17 C :   -0.084672
  18 C :   -0.056966
  19 C :   -0.063700
  20 C :   -0.150720
  21 H :    0.011271
  22 C :    0.064738
  23 H :    0.039756
  24 H :    0.029519
  25 C :   -0.036207
  26 H :    0.025719
  27 H :    0.018894
  28 C :   -0.043943
  29 H :    0.038289
  30 H :    0.030103
  31 H :    0.021690
  32 H :    0.019094
  33 H :    0.061023
Sum of atomic charges:   -0.0000000

LOEWDIN ATOMIC CHARGES
----------------------
   0 S :    0.376376
   1 C :   -0.176069
   2 C :   -0.058090
   3 C :   -0.060253
   4 C :   -0.190788
   5 H :    0.027621
   6 C :   -0.033798
   7 H :    0.040054
   8 H :    0.037839
   9 C :   -0.048242
  10 H :    0.019054
  11 H :    0.025286
  12 C :   -0.067492
  13 H :    0.031088
  14 H :    0.029133
  15 H :    0.027215
  16 S :    0.428782
  17 C :   -0.202844
  18 C :   -0.075429
  19 C :   -0.057762
  20 C :   -0.210876
  21 H :    0.027631
  22 C :   -0.028228
  23 H :    0.035004
  24 H :    0.035603
  25 C :   -0.040560
  26 H :    0.035614
  27 H :    0.018703
  28 C :   -0.068170
  29 H :    0.024253
  30 H :    0.026416
  31 H :    0.028346
  32 H :    0.007265
  33 H :    0.037319

  Mayer bond orders larger than 0.100000
B(  0-S ,  1-C ) :   1.1270 B(  0-S ,  4-C ) :   1.1381 B(  1-C ,  2-C ) :   1.6125
B(  1-C , 32-H ) :   0.9836 B(  2-C ,  3-C ) :   1.2147 B(  2-C ,  6-C ) :   1.0057
B(  3-C ,  4-C ) :   1.6136 B(  3-C ,  5-H ) :   0.9925 B(  4-C , 20-C ) :   1.0030
B(  6-C ,  7-H ) :   0.9380 B(  6-C ,  8-H ) :   0.9466 B(  6-C ,  9-C ) :   1.0615
B(  9-C , 10-H ) :   0.9503 B(  9-C , 11-H ) :   0.9615 B(  9-C , 12-C ) :   1.0724
B( 12-C , 13-H ) :   0.9774 B( 12-C , 14-H ) :   0.9747 B( 12-C , 15-H ) :   0.9767
B( 16-S , 17-C ) :   1.1603 B( 16-S , 20-C ) :   1.1456 B( 17-C , 18-C ) :   1.6158
B( 17-C , 33-H ) :   0.9601 B( 18-C , 19-C ) :   1.2380 B( 18-C , 21-H ) :   0.9844
B( 19-C , 20-C ) :   1.6324 B( 19-C , 22-C ) :   1.0114 B( 22-C , 23-H ) :   0.9296
B( 22-C , 24-H ) :   0.9332 B( 22-C , 25-C ) :   1.0916 B( 25-C , 26-H ) :   0.9462
B( 25-C , 27-H ) :   0.9565 B( 25-C , 28-C ) :   1.0637 B( 28-C , 29-H ) :   0.9735
B( 28-C , 30-H ) :   0.9741 B( 28-C , 31-H ) :   0.9680

Dispersion correction           -0.013666719
FINAL SINGLE POINT ENERGY     -1339.866970387138

DIPOLE MOMENT
-------------
                                X             Y             Z
Electronic contribution:    -17.46644     -17.89454       8.53971
Nuclear contribution   :     18.05541      18.33385      -8.75283
                        -----------------------------------------
Total Dipole Moment    :      0.58897       0.43931      -0.21312
                        -----------------------------------------
Magnitude (a.u.)       :      0.76505
Magnitude (Debye)      :      1.94460

Rotational constants in cm-1:     0.019694     0.007229     0.006009
Rotational constants in MHz :   590.413746   216.708601   180.154700

                             ****ORCA TERMINATED NORMALLY****
TOTAL RUN TIME: 0 days 0 hours 0 minutes 20 seconds 794 msec
