                         Program Version 4.2.1 -  RELEASE  -
|  1> ! wB97X-D3 SP def2-SVP
|  2> %pal
|  3> nprocs 24
|  4> end
|  5>
|  6> * xyz 0 1
|  7> S 	 -128.277 	 59.0652 	 -58.5939
|  8> C 	 -127.312 	 59.6902 	 -59.9078
|  9> C 	 -126.89 	 60.9897 	 -59.6193
| 10> C 	 -127.673 	 61.5767 	 -58.544
| 11> C 	 -128.539 	 60.6855 	 -57.9274
| 12> H 	 -127.609 	 62.5772 	 -58.15
| 13> C 	 -125.755 	 61.7579 	 -60.2538
| 14> H 	 -125.109 	 61.0651 	 -60.7578
| 15> H 	 -125.145 	 62.0816 	 -59.4475
| 16> C 	 -126.235 	 62.9424 	 -61.1443
| 17> H 	 -127.107 	 62.6875 	 -61.6905
| 18> H 	 -126.494 	 63.7625 	 -60.4068
| 19> C 	 -125.037 	 63.4106 	 -62.0917
| 20> H 	 -124.093 	 63.6679 	 -61.5919
| 21> H 	 -124.853 	 62.4524 	 -62.7102
| 22> H 	 -125.299 	 64.2185 	 -62.731
| 23> S 	 -131.223 	 61.3542 	 -57.6198
| 24> C 	 -131.767 	 61.8784 	 -56.1146
| 25> C 	 -130.815 	 61.7126 	 -55.1312
| 26> C 	 -129.588 	 61.1757 	 -55.5948
| 27> C 	 -129.606 	 60.9223 	 -56.9523
| 28> H 	 -130.911 	 62.0236 	 -54.1298
| 29> C 	 -128.278 	 60.9522 	 -54.7443
| 30> H 	 -128.427 	 61.525 	 -53.8625
| 31> H 	 -127.37 	 61.2918 	 -55.24
| 32> C 	 -127.898 	 59.5142 	 -54.3489
| 33> H 	 -127.493 	 58.9206 	 -55.1781
| 34> H 	 -128.836 	 59.0038 	 -54.1133
| 35> C 	 -127.027 	 59.4774 	 -53.0627
| 36> H 	 -126.85 	 58.4435 	 -52.7256
| 37> H 	 -127.478 	 59.936 	 -52.2049
| 38> H 	 -126.032 	 59.8985 	 -53.1083
| 39> H 	 -126.697 	 59.0793 	 -60.4752
| 40> H 	 -132.66 	 62.4236 	 -56.0072
| 41> *
| 42>
| 43>                          ****END OF INPUT****

CARTESIAN COORDINATES (ANGSTROEM)
---------------------------------
  S    -128.277000   59.065200  -58.593900
  C    -127.312000   59.690200  -59.907800
  C    -126.890000   60.989700  -59.619300
  C    -127.673000   61.576700  -58.544000
  C    -128.539000   60.685500  -57.927400
  H    -127.609000   62.577200  -58.150000
  C    -125.755000   61.757900  -60.253800
  H    -125.109000   61.065100  -60.757800
  H    -125.145000   62.081600  -59.447500
  C    -126.235000   62.942400  -61.144300
  H    -127.107000   62.687500  -61.690500
  H    -126.494000   63.762500  -60.406800
  C    -125.037000   63.410600  -62.091700
  H    -124.093000   63.667900  -61.591900
  H    -124.853000   62.452400  -62.710200
  H    -125.299000   64.218500  -62.731000
  S    -131.223000   61.354200  -57.619800
  C    -131.767000   61.878400  -56.114600
  C    -130.815000   61.712600  -55.131200
  C    -129.588000   61.175700  -55.594800
  C    -129.606000   60.922300  -56.952300
  H    -130.911000   62.023600  -54.129800
  C    -128.278000   60.952200  -54.744300
  H    -128.427000   61.525000  -53.862500
  H    -127.370000   61.291800  -55.240000
  C    -127.898000   59.514200  -54.348900
  H    -127.493000   58.920600  -55.178100
  H    -128.836000   59.003800  -54.113300
  C    -127.027000   59.477400  -53.062700
  H    -126.850000   58.443500  -52.725600
  H    -127.478000   59.936000  -52.204900
  H    -126.032000   59.898500  -53.108300
  H    -126.697000   59.079300  -60.475200
  H    -132.660000   62.423600  -56.007200

 Total Charge           Charge          ....    0
 Multiplicity           Mult            ....    1
 Number of Electrons    NEL             ....  134
 Basis Dimension        Dim             ....  322

ORBITAL ENERGIES
----------------

  NO   OCC          E(Eh)            E(eV)
   0   2.0000     -88.963126     -2420.8097
   1   2.0000     -88.961432     -2420.7636
   2   2.0000     -10.331145      -281.1247
   3   2.0000     -10.325241      -280.9641
   4   2.0000     -10.313681      -280.6495
   5   2.0000     -10.308362      -280.5048
   6   2.0000     -10.306577      -280.4562
   7   2.0000     -10.305106      -280.4162
   8   2.0000     -10.296361      -280.1782
   9   2.0000     -10.295698      -280.1602
  10   2.0000     -10.292008      -280.0598
  11   2.0000     -10.290330      -280.0141
  12   2.0000     -10.289441      -279.9899
  13   2.0000     -10.288549      -279.9657
  14   2.0000     -10.286903      -279.9209
  15   2.0000     -10.276606      -279.6407
  16   2.0000      -8.078666      -219.8317
  17   2.0000      -8.075958      -219.7580
  18   2.0000      -6.036925      -164.2731
  19   2.0000      -6.034472      -164.2063
  20   2.0000      -6.032961      -164.1652
  21   2.0000      -6.030593      -164.1008
  22   2.0000      -6.029719      -164.0770
  23   2.0000      -6.026621      -163.9927
  24   2.0000      -1.004274       -27.3277
  25   2.0000      -0.983592       -26.7649
  26   2.0000      -0.907509       -24.6946
  27   2.0000      -0.903232       -24.5782
  28   2.0000      -0.866374       -23.5752
  29   2.0000      -0.850234       -23.1360
  30   2.0000      -0.840459       -22.8701
  31   2.0000      -0.811960       -22.0946
  32   2.0000      -0.783734       -21.3265
  33   2.0000      -0.771502       -20.9937
  34   2.0000      -0.709468       -19.3056
  35   2.0000      -0.701967       -19.1015
  36   2.0000      -0.694216       -18.8906
  37   2.0000      -0.665291       -18.1035
  38   2.0000      -0.646152       -17.5827
  39   2.0000      -0.615309       -16.7434
  40   2.0000      -0.602077       -16.3834
  41   2.0000      -0.569604       -15.4997
  42   2.0000      -0.562137       -15.2965
  43   2.0000      -0.555635       -15.1196
  44   2.0000      -0.524837       -14.2815
  45   2.0000      -0.520281       -14.1576
  46   2.0000      -0.515096       -14.0165
  47   2.0000      -0.504635       -13.7318
  48   2.0000      -0.502279       -13.6677
  49   2.0000      -0.500142       -13.6096
  50   2.0000      -0.494266       -13.4497
  51   2.0000      -0.477879       -13.0037
  52   2.0000      -0.474380       -12.9085
  53   2.0000      -0.461118       -12.5477
  54   2.0000      -0.456934       -12.4338
  55   2.0000      -0.451770       -12.2933
  56   2.0000      -0.449358       -12.2276
  57   2.0000      -0.441430       -12.0119
  58   2.0000      -0.436595       -11.8803
  59   2.0000      -0.421025       -11.4567
  60   2.0000      -0.418505       -11.3881
  61   2.0000      -0.415864       -11.3162
  62   2.0000      -0.413467       -11.2510
  63   2.0000      -0.336633        -9.1603
  64   2.0000      -0.329978        -8.9792
  65   2.0000      -0.315670        -8.5898
  66   2.0000      -0.311150        -8.4668
  67   0.0000       0.041643         1.1332
  68   0.0000       0.047000         1.2789
  69   0.0000       0.100509         2.7350
  70   0.0000       0.126055         3.4301
  71   0.0000       0.132556         3.6070

MULLIKEN ATOMIC CHARGES
-----------------------
   0 S :    0.094980
   1 C :   -0.062224
   2 C :   -0.147344
   3 C :    0.063014
   4 C :   -0.187076
   5 H :    0.011647
   6 C :    0.085953
   7 H :    0.003414
   8 H :    0.026129
   9 C :   -0.079229
  10 H :    0.041514
  11 H :    0.041169
  12 C :   -0.073190
  13 H :    0.039687
  14 H :    0.041098
  15 H :    0.039235
  16 S :    0.117521
  17 C :   -0.064755
  18 C :   -0.021063
  19 C :   -0.025466
  20 C :   -0.174772
  21 H :   -0.003583
  22 C :    0.099644
  23 H :    0.001954
  24 H :    0.033316
  25 C :   -0.065793
  26 H :    0.037452
  27 H :    0.025365
  28 C :   -0.057164
  29 H :    0.029632
  30 H :    0.022437
  31 H :    0.027779
  32 H :    0.029185
  33 H :    0.049533
Sum of atomic charges:   -0.0000000

LOEWDIN ATOMIC CHARGES
----------------------
   0 S :    0.394613
   1 C :   -0.195658
   2 C :   -0.053198
   3 C :   -0.055476
   4 C :   -0.190257
   5 H :    0.030719
   6 C :   -0.031335
   7 H :    0.022003
   8 H :    0.031005
   9 C :   -0.031429
  10 H :    0.021697
  11 H :    0.028737
  12 C :   -0.069709
  13 H :    0.026442
  14 H :    0.034657
  15 H :    0.019610
  16 S :    0.422510
  17 C :   -0.188822
  18 C :   -0.075359
  19 C :   -0.045757
  20 C :   -0.198687
  21 H :    0.022904
  22 C :   -0.023963
  23 H :    0.021458
  24 H :    0.033415
  25 C :   -0.039686
  26 H :    0.025117
  27 H :    0.024554
  28 C :   -0.069001
  29 H :    0.029858
  30 H :    0.021638
  31 H :    0.022093
  32 H :    0.011956
  33 H :    0.023352

  Mayer bond orders larger than 0.100000
B(  0-S ,  1-C ) :   1.1397 B(  0-S ,  4-C ) :   1.1497 B(  1-C ,  2-C ) :   1.6203
B(  1-C , 32-H ) :   0.9638 B(  2-C ,  3-C ) :   1.2103 B(  2-C ,  6-C ) :   1.0322
B(  3-C ,  4-C ) :   1.6064 B(  3-C ,  5-H ) :   0.9963 B(  4-C , 20-C ) :   0.9992
B(  6-C ,  7-H ) :   0.9437 B(  6-C ,  8-H ) :   0.9365 B(  6-C ,  9-C ) :   1.0389
B(  9-C , 10-H ) :   0.9661 B(  9-C , 11-H ) :   0.9555 B(  9-C , 12-C ) :   1.0675
B( 12-C , 13-H ) :   0.9773 B( 12-C , 14-H ) :   0.9782 B( 12-C , 15-H ) :   0.9784
B( 16-S , 17-C ) :   1.1926 B( 16-S , 20-C ) :   1.1431 B( 17-C , 18-C ) :   1.5590
B( 17-C , 33-H ) :   0.9727 B( 18-C , 19-C ) :   1.2796 B( 18-C , 21-H ) :   0.9965
B( 19-C , 20-C ) :   1.5959 B( 19-C , 22-C ) :   1.0332 B( 22-C , 23-H ) :   0.9345
B( 22-C , 24-H ) :   0.9362 B( 22-C , 25-C ) :   1.0620 B( 25-C , 26-H ) :   0.9551
B( 25-C , 27-H ) :   0.9555 B( 25-C , 28-C ) :   1.0787 B( 28-C , 29-H ) :   0.9741
B( 28-C , 30-H ) :   0.9746 B( 28-C , 31-H ) :   0.9774

Dispersion correction           -0.013941686
FINAL SINGLE POINT ENERGY     -1339.868107738334

DIPOLE MOMENT
-------------
                                X             Y             Z
Electronic contribution:    -20.98047      -6.92457      -3.14158
Nuclear contribution   :     21.50532       7.42720       3.41156
                        -----------------------------------------
Total Dipole Moment    :      0.52485       0.50262       0.26998
                        -----------------------------------------
Magnitude (a.u.)       :      0.77523
Magnitude (Debye)      :      1.97048

Rotational constants in cm-1:     0.018155     0.007620     0.006565
Rotational constants in MHz :   544.266076   228.439825   196.807468

                             ****ORCA TERMINATED NORMALLY****
TOTAL RUN TIME: 0 days 0 hours 0 minutes 20 seconds 876 msec
