                         Program Version 4.2.1 -  RELEASE  -
|  1> ! wB97X-D3 SP def2-SVP
|  2> %pal
|  3> nprocs 24
|  4> end
|  5>
|  6> * xyz 0 1
|  7> S 	 -98.9838 	 14.1866 	 -115.797
|  8> C 	 -98.8125 	 15.9704 	 -115.927
|  9> C 	 -98.5011 	 16.4012 	 -117.228
| 10> C 	 -98.332 	 15.2077 	 -118.069
| 11> C 	 -98.4915 	 13.9921 	 -117.458
| 12> H 	 -98.216 	 15.1044 	 -119.128
| 13> C 	 -98.5099 	 17.7692 	 -117.812
| 14> H 	 -99.5505 	 18.0137 	 -118.013
| 15> H 	 -98.1704 	 17.7613 	 -118.863
| 16> C 	 -97.8661 	 18.861 	 -116.966
| 17> H 	 -97.985 	 19.7636 	 -117.403
| 18> H 	 -98.5498 	 18.9845 	 -116.117
| 19> C 	 -96.3899 	 18.6633 	 -116.532
| 20> H 	 -96.3239 	 17.784 	 -115.904
| 21> H 	 -95.7346 	 18.4701 	 -117.386
| 22> H 	 -95.9866 	 19.4791 	 -115.891
| 23> S 	 -100.481 	 12.1407 	 -118.017
| 24> C 	 -100.136 	 10.8806 	 -119.207
| 25> C 	 -98.8563 	 10.9501 	 -119.602
| 26> C 	 -98.1075 	 12.0023 	 -118.967
| 27> C 	 -98.813 	 12.7618 	 -118.14
| 28> H 	 -98.505 	 10.0936 	 -120.194
| 29> C 	 -96.6549 	 12.2908 	 -119.427
| 30> H 	 -96.1297 	 11.6561 	 -118.693
| 31> H 	 -96.185 	 13.2364 	 -119.103
| 32> C 	 -96.3346 	 11.9672 	 -120.876
| 33> H 	 -97.1579 	 12.3844 	 -121.455
| 34> H 	 -96.2807 	 10.9184 	 -121.049
| 35> C 	 -94.9734 	 12.5715 	 -121.385
| 36> H 	 -94.3037 	 12.2692 	 -120.659
| 37> H 	 -95.1433 	 13.653 	 -121.326
| 38> H 	 -94.8551 	 12.3493 	 -122.462
| 39> H 	 -99.0489 	 16.6458 	 -115.12
| 40> H 	 -100.804 	 10.2149 	 -119.661
| 41> *
| 42>
| 43>                          ****END OF INPUT****

CARTESIAN COORDINATES (ANGSTROEM)
---------------------------------
  S    -98.983800   14.186600  -115.797000
  C    -98.812500   15.970400  -115.927000
  C    -98.501100   16.401200  -117.228000
  C    -98.332000   15.207700  -118.069000
  C    -98.491500   13.992100  -117.458000
  H    -98.216000   15.104400  -119.128000
  C    -98.509900   17.769200  -117.812000
  H    -99.550500   18.013700  -118.013000
  H    -98.170400   17.761300  -118.863000
  C    -97.866100   18.861000  -116.966000
  H    -97.985000   19.763600  -117.403000
  H    -98.549800   18.984500  -116.117000
  C    -96.389900   18.663300  -116.532000
  H    -96.323900   17.784000  -115.904000
  H    -95.734600   18.470100  -117.386000
  H    -95.986600   19.479100  -115.891000
  S    -100.481000   12.140700  -118.017000
  C    -100.136000   10.880600  -119.207000
  C    -98.856300   10.950100  -119.602000
  C    -98.107500   12.002300  -118.967000
  C    -98.813000   12.761800  -118.140000
  H    -98.505000   10.093600  -120.194000
  C    -96.654900   12.290800  -119.427000
  H    -96.129700   11.656100  -118.693000
  H    -96.185000   13.236400  -119.103000
  C    -96.334600   11.967200  -120.876000
  H    -97.157900   12.384400  -121.455000
  H    -96.280700   10.918400  -121.049000
  C    -94.973400   12.571500  -121.385000
  H    -94.303700   12.269200  -120.659000
  H    -95.143300   13.653000  -121.326000
  H    -94.855100   12.349300  -122.462000
  H    -99.048900   16.645800  -115.120000
  H    -100.804000   10.214900  -119.661000

 Total Charge           Charge          ....    0
 Multiplicity           Mult            ....    1
 Number of Electrons    NEL             ....  134
 Basis Dimension        Dim             ....  322

ORBITAL ENERGIES
----------------

  NO   OCC          E(Eh)            E(eV)
   0   2.0000     -88.965660     -2420.8787
   1   2.0000     -88.958323     -2420.6790
   2   2.0000     -10.323231      -280.9094
   3   2.0000     -10.321026      -280.8494
   4   2.0000     -10.319521      -280.8084
   5   2.0000     -10.311443      -280.5886
   6   2.0000     -10.310690      -280.5681
   7   2.0000     -10.299559      -280.2653
   8   2.0000     -10.295492      -280.1546
   9   2.0000     -10.294087      -280.1163
  10   2.0000     -10.292152      -280.0637
  11   2.0000     -10.289638      -279.9953
  12   2.0000     -10.283110      -279.8176
  13   2.0000     -10.282832      -279.8101
  14   2.0000     -10.279887      -279.7299
  15   2.0000     -10.278476      -279.6915
  16   2.0000      -8.079815      -219.8630
  17   2.0000      -8.072778      -219.6715
  18   2.0000      -6.038409      -164.3135
  19   2.0000      -6.034489      -164.2068
  20   2.0000      -6.031509      -164.1257
  21   2.0000      -6.030427      -164.0963
  22   2.0000      -6.027460      -164.0155
  23   2.0000      -6.023145      -163.8981
  24   2.0000      -1.007278       -27.4094
  25   2.0000      -0.980148       -26.6712
  26   2.0000      -0.916696       -24.9446
  27   2.0000      -0.906514       -24.6675
  28   2.0000      -0.871766       -23.7220
  29   2.0000      -0.849111       -23.1055
  30   2.0000      -0.840968       -22.8839
  31   2.0000      -0.816225       -22.2106
  32   2.0000      -0.786231       -21.3944
  33   2.0000      -0.775747       -21.1092
  34   2.0000      -0.716106       -19.4862
  35   2.0000      -0.702492       -19.1158
  36   2.0000      -0.702029       -19.1032
  37   2.0000      -0.655221       -17.8295
  38   2.0000      -0.643264       -17.5041
  39   2.0000      -0.606494       -16.5035
  40   2.0000      -0.595805       -16.2127
  41   2.0000      -0.578904       -15.7528
  42   2.0000      -0.568455       -15.4685
  43   2.0000      -0.553594       -15.0641
  44   2.0000      -0.543818       -14.7980
  45   2.0000      -0.539241       -14.6735
  46   2.0000      -0.517232       -14.0746
  47   2.0000      -0.511836       -13.9278
  48   2.0000      -0.503754       -13.7078
  49   2.0000      -0.495117       -13.4728
  50   2.0000      -0.480735       -13.0815
  51   2.0000      -0.477849       -13.0029
  52   2.0000      -0.469585       -12.7781
  53   2.0000      -0.467175       -12.7125
  54   2.0000      -0.454365       -12.3639
  55   2.0000      -0.451557       -12.2875
  56   2.0000      -0.441673       -12.0185
  57   2.0000      -0.438791       -11.9401
  58   2.0000      -0.434222       -11.8158
  59   2.0000      -0.426693       -11.6109
  60   2.0000      -0.418626       -11.3914
  61   2.0000      -0.417386       -11.3576
  62   2.0000      -0.406935       -11.0733
  63   2.0000      -0.347711        -9.4617
  64   2.0000      -0.326776        -8.8920
  65   2.0000      -0.325130        -8.8472
  66   2.0000      -0.298180        -8.1139
  67   0.0000       0.035679         0.9709
  68   0.0000       0.066164         1.8004
  69   0.0000       0.110273         3.0007
  70   0.0000       0.120029         3.2661
  71   0.0000       0.129779         3.5315

MULLIKEN ATOMIC CHARGES
-----------------------
   0 S :    0.093655
   1 C :   -0.124487
   2 C :   -0.074773
   3 C :    0.037744
   4 C :   -0.162228
   5 H :    0.008719
   6 C :    0.056351
   7 H :    0.041447
   8 H :    0.020567
   9 C :   -0.023225
  10 H :   -0.003495
  11 H :    0.014886
  12 C :   -0.050667
  13 H :    0.031580
  14 H :    0.036027
  15 H :    0.042191
  16 S :    0.087913
  17 C :   -0.059806
  18 C :   -0.053498
  19 C :   -0.031390
  20 C :   -0.155542
  21 H :    0.031750
  22 C :    0.047009
  23 H :    0.029533
  24 H :    0.019707
  25 C :   -0.091139
  26 H :    0.033320
  27 H :    0.027619
  28 C :   -0.022362
  29 H :    0.030612
  30 H :    0.028259
  31 H :    0.048808
  32 H :    0.049595
  33 H :    0.035319
Sum of atomic charges:   -0.0000000

LOEWDIN ATOMIC CHARGES
----------------------
   0 S :    0.389142
   1 C :   -0.181479
   2 C :   -0.052768
   3 C :   -0.051176
   4 C :   -0.199512
   5 H :    0.028398
   6 C :   -0.037082
   7 H :    0.042412
   8 H :    0.032665
   9 C :   -0.036170
  10 H :    0.010218
  11 H :    0.025872
  12 C :   -0.066249
  13 H :    0.024329
  14 H :    0.027217
  15 H :    0.032585
  16 S :    0.367571
  17 C :   -0.162385
  18 C :   -0.078443
  19 C :   -0.057674
  20 C :   -0.190054
  21 H :    0.038544
  22 C :   -0.042977
  23 H :    0.038456
  24 H :    0.030300
  25 C :   -0.040727
  26 H :    0.023215
  27 H :    0.016342
  28 C :   -0.054339
  29 H :    0.016526
  30 H :    0.025946
  31 H :    0.034280
  32 H :    0.023903
  33 H :    0.023114

  Mayer bond orders larger than 0.100000
B(  0-S ,  1-C ) :   1.1314 B(  0-S ,  4-C ) :   1.1277 B(  1-C ,  2-C ) :   1.6157
B(  1-C , 32-H ) :   0.9688 B(  2-C ,  3-C ) :   1.2049 B(  2-C ,  6-C ) :   1.0236
B(  3-C ,  4-C ) :   1.6199 B(  3-C ,  5-H ) :   0.9872 B(  4-C , 20-C ) :   1.0221
B(  6-C ,  7-H ) :   0.9281 B(  6-C ,  8-H ) :   0.9389 B(  6-C ,  9-C ) :   1.0819
B(  9-C , 10-H ) :   0.9494 B(  9-C , 11-H ) :   0.9474 B(  9-C , 12-C ) :   1.0711
B( 12-C , 13-H ) :   0.9729 B( 12-C , 14-H ) :   0.9764 B( 12-C , 15-H ) :   0.9751
B( 16-S , 17-C ) :   1.1268 B( 16-S , 20-C ) :   1.0931 B( 17-C , 18-C ) :   1.6829
B( 17-C , 33-H ) :   0.9662 B( 18-C , 19-C ) :   1.1864 B( 18-C , 21-H ) :   0.9825
B( 19-C , 20-C ) :   1.7082 B( 19-C , 22-C ) :   1.0176 B( 22-C , 23-H ) :   0.9161
B( 22-C , 24-H ) :   0.9471 B( 22-C , 25-C ) :   1.0597 B( 25-C , 26-H ) :   0.9645
B( 25-C , 27-H ) :   0.9442 B( 25-C , 28-C ) :   1.0765 B( 28-C , 29-H ) :   0.9781
B( 28-C , 30-H ) :   0.9785 B( 28-C , 31-H ) :   0.9735

Dispersion correction           -0.013921507
FINAL SINGLE POINT ENERGY     -1339.853679823509

DIPOLE MOMENT
-------------
                                X             Y             Z
Electronic contribution:    -19.49187     -14.44817      12.26352
Nuclear contribution   :     19.69703      14.79762     -12.81389
                        -----------------------------------------
Total Dipole Moment    :      0.20516       0.34946      -0.55037
                        -----------------------------------------
Magnitude (a.u.)       :      0.68346
Magnitude (Debye)      :      1.73721

Rotational constants in cm-1:     0.018337     0.008359     0.006299
Rotational constants in MHz :   549.725059   250.604403   188.838255

                             ****ORCA TERMINATED NORMALLY****
TOTAL RUN TIME: 0 days 0 hours 0 minutes 21 seconds 193 msec
