                         Program Version 4.2.1 -  RELEASE  -
|  1> ! wB97X-D3 SP def2-SVP
|  2> %pal
|  3> nprocs 24
|  4> end
|  5>
|  6> * xyz 0 1
|  7> S 	 -93.0826 	 -37.8501 	 -56.8708
|  8> C 	 -93.9252 	 -39.3519 	 -56.2788
|  9> C 	 -94.5921 	 -39.0836 	 -55.0834
| 10> C 	 -94.8126 	 -37.7117 	 -54.9569
| 11> C 	 -94.0828 	 -36.8865 	 -55.8066
| 12> H 	 -95.3743 	 -37.1669 	 -54.2001
| 13> C 	 -95.1677 	 -40.1413 	 -54.181
| 14> H 	 -95.0197 	 -39.8237 	 -53.1482
| 15> H 	 -94.5479 	 -41.0084 	 -54.3925
| 16> C 	 -96.6642 	 -40.4973 	 -54.5838
| 17> H 	 -97.2279 	 -39.6261 	 -54.5495
| 18> H 	 -96.7541 	 -40.8023 	 -55.6735
| 19> C 	 -97.3575 	 -41.6036 	 -53.8129
| 20> H 	 -98.4054 	 -41.8187 	 -54.172
| 21> H 	 -96.8401 	 -42.595 	 -53.8166
| 22> H 	 -97.5814 	 -41.1521 	 -52.8402
| 23> S 	 -92.7197 	 -34.7016 	 -55.1072
| 24> C 	 -93.4419 	 -33.0685 	 -55.2518
| 25> C 	 -94.7456 	 -33.1868 	 -55.7228
| 26> C 	 -95.0882 	 -34.5599 	 -55.9978
| 27> C 	 -94.0733 	 -35.4466 	 -55.8786
| 28> H 	 -95.4164 	 -32.3163 	 -55.8949
| 29> C 	 -96.4867 	 -35.0063 	 -56.3605
| 30> H 	 -97.1621 	 -34.1331 	 -55.9942
| 31> H 	 -96.7723 	 -35.8402 	 -55.9148
| 32> C 	 -96.7199 	 -35.2373 	 -57.8865
| 33> H 	 -96.1955 	 -36.0745 	 -58.1753
| 34> H 	 -96.3025 	 -34.3184 	 -58.3234
| 35> C 	 -98.1827 	 -35.315 	 -58.3576
| 36> H 	 -98.0647 	 -35.9942 	 -59.2325
| 37> H 	 -98.4404 	 -34.3491 	 -58.7553
| 38> H 	 -98.8616 	 -35.7735 	 -57.6163
| 39> H 	 -93.5285 	 -40.3332 	 -56.3747
| 40> H 	 -92.9718 	 -32.2029 	 -54.8248
| 41> *
| 42>
| 43>                          ****END OF INPUT****

CARTESIAN COORDINATES (ANGSTROEM)
---------------------------------
  S    -93.082600  -37.850100  -56.870800
  C    -93.925200  -39.351900  -56.278800
  C    -94.592100  -39.083600  -55.083400
  C    -94.812600  -37.711700  -54.956900
  C    -94.082800  -36.886500  -55.806600
  H    -95.374300  -37.166900  -54.200100
  C    -95.167700  -40.141300  -54.181000
  H    -95.019700  -39.823700  -53.148200
  H    -94.547900  -41.008400  -54.392500
  C    -96.664200  -40.497300  -54.583800
  H    -97.227900  -39.626100  -54.549500
  H    -96.754100  -40.802300  -55.673500
  C    -97.357500  -41.603600  -53.812900
  H    -98.405400  -41.818700  -54.172000
  H    -96.840100  -42.595000  -53.816600
  H    -97.581400  -41.152100  -52.840200
  S    -92.719700  -34.701600  -55.107200
  C    -93.441900  -33.068500  -55.251800
  C    -94.745600  -33.186800  -55.722800
  C    -95.088200  -34.559900  -55.997800
  C    -94.073300  -35.446600  -55.878600
  H    -95.416400  -32.316300  -55.894900
  C    -96.486700  -35.006300  -56.360500
  H    -97.162100  -34.133100  -55.994200
  H    -96.772300  -35.840200  -55.914800
  C    -96.719900  -35.237300  -57.886500
  H    -96.195500  -36.074500  -58.175300
  H    -96.302500  -34.318400  -58.323400
  C    -98.182700  -35.315000  -58.357600
  H    -98.064700  -35.994200  -59.232500
  H    -98.440400  -34.349100  -58.755300
  H    -98.861600  -35.773500  -57.616300
  H    -93.528500  -40.333200  -56.374700
  H    -92.971800  -32.202900  -54.824800

 Total Charge           Charge          ....    0
 Multiplicity           Mult            ....    1
 Number of Electrons    NEL             ....  134
 Basis Dimension        Dim             ....  322

ORBITAL ENERGIES
----------------

  NO   OCC          E(Eh)            E(eV)
   0   2.0000     -88.967275     -2420.9226
   1   2.0000     -88.962022     -2420.7797
   2   2.0000     -10.330133      -281.0972
   3   2.0000     -10.324374      -280.9405
   4   2.0000     -10.318380      -280.7774
   5   2.0000     -10.313528      -280.6454
   6   2.0000     -10.304176      -280.3909
   7   2.0000     -10.303272      -280.3663
   8   2.0000     -10.300800      -280.2990
   9   2.0000     -10.300373      -280.2874
  10   2.0000     -10.292972      -280.0860
  11   2.0000     -10.290876      -280.0290
  12   2.0000     -10.286213      -279.9021
  13   2.0000     -10.283330      -279.8236
  14   2.0000     -10.277580      -279.6672
  15   2.0000     -10.274924      -279.5949
  16   2.0000      -8.080859      -219.8914
  17   2.0000      -8.076983      -219.7859
  18   2.0000      -6.039399      -164.3404
  19   2.0000      -6.035620      -164.2376
  20   2.0000      -6.035611      -164.2373
  21   2.0000      -6.031548      -164.1268
  22   2.0000      -6.031418      -164.1232
  23   2.0000      -6.027608      -164.0196
  24   2.0000      -1.009710       -27.4756
  25   2.0000      -0.982967       -26.7479
  26   2.0000      -0.911105       -24.7924
  27   2.0000      -0.905350       -24.6358
  28   2.0000      -0.872063       -23.7300
  29   2.0000      -0.849774       -23.1235
  30   2.0000      -0.846620       -23.0377
  31   2.0000      -0.816297       -22.2126
  32   2.0000      -0.783129       -21.3100
  33   2.0000      -0.771119       -20.9832
  34   2.0000      -0.707115       -19.2416
  35   2.0000      -0.700076       -19.0500
  36   2.0000      -0.690080       -18.7780
  37   2.0000      -0.668373       -18.1874
  38   2.0000      -0.643010       -17.4972
  39   2.0000      -0.616313       -16.7707
  40   2.0000      -0.600509       -16.3407
  41   2.0000      -0.569149       -15.4873
  42   2.0000      -0.567554       -15.4439
  43   2.0000      -0.559269       -15.2185
  44   2.0000      -0.525975       -14.3125
  45   2.0000      -0.523162       -14.2360
  46   2.0000      -0.521771       -14.1981
  47   2.0000      -0.514862       -14.0101
  48   2.0000      -0.506175       -13.7737
  49   2.0000      -0.498337       -13.5604
  50   2.0000      -0.489642       -13.3238
  51   2.0000      -0.483681       -13.1616
  52   2.0000      -0.472948       -12.8696
  53   2.0000      -0.466703       -12.6996
  54   2.0000      -0.455764       -12.4020
  55   2.0000      -0.446497       -12.1498
  56   2.0000      -0.440977       -11.9996
  57   2.0000      -0.432137       -11.7591
  58   2.0000      -0.428893       -11.6708
  59   2.0000      -0.423247       -11.5171
  60   2.0000      -0.420832       -11.4514
  61   2.0000      -0.414480       -11.2786
  62   2.0000      -0.411360       -11.1937
  63   2.0000      -0.341215        -9.2849
  64   2.0000      -0.333430        -9.0731
  65   2.0000      -0.322311        -8.7705
  66   2.0000      -0.302668        -8.2360
  67   0.0000       0.030028         0.8171
  68   0.0000       0.053926         1.4674
  69   0.0000       0.099940         2.7195
  70   0.0000       0.110113         2.9963
  71   0.0000       0.133599         3.6354

MULLIKEN ATOMIC CHARGES
-----------------------
   0 S :    0.102871
   1 C :   -0.086917
   2 C :   -0.135025
   3 C :    0.050545
   4 C :   -0.191950
   5 H :    0.013955
   6 C :    0.095262
   7 H :    0.038909
   8 H :    0.016549
   9 C :   -0.074876
  10 H :    0.010749
  11 H :    0.033935
  12 C :   -0.057069
  13 H :    0.035360
  14 H :    0.050125
  15 H :    0.028288
  16 S :    0.088923
  17 C :   -0.093900
  18 C :   -0.030229
  19 C :   -0.075259
  20 C :   -0.113665
  21 H :    0.039374
  22 C :    0.103045
  23 H :    0.023951
  24 H :   -0.022879
  25 C :   -0.075060
  26 H :    0.023047
  27 H :    0.023910
  28 C :   -0.037901
  29 H :    0.034124
  30 H :    0.034473
  31 H :    0.043307
  32 H :    0.042218
  33 H :    0.061809
Sum of atomic charges:   -0.0000000

LOEWDIN ATOMIC CHARGES
----------------------
   0 S :    0.385497
   1 C :   -0.184837
   2 C :   -0.054999
   3 C :   -0.066635
   4 C :   -0.192336
   5 H :    0.031664
   6 C :   -0.023349
   7 H :    0.034502
   8 H :    0.029882
   9 C :   -0.040089
  10 H :    0.013563
  11 H :    0.032614
  12 C :   -0.077401
  13 H :    0.033256
  14 H :    0.031111
  15 H :    0.025370
  16 S :    0.399809
  17 C :   -0.165585
  18 C :   -0.071201
  19 C :   -0.055268
  20 C :   -0.215144
  21 H :    0.040494
  22 C :   -0.021816
  23 H :    0.036272
  24 H :    0.000761
  25 C :   -0.029930
  26 H :    0.011382
  27 H :    0.025956
  28 C :   -0.066692
  29 H :    0.035259
  30 H :    0.024711
  31 H :    0.027400
  32 H :    0.018294
  33 H :    0.027484

  Mayer bond orders larger than 0.100000
B(  0-S ,  1-C ) :   1.1269 B(  0-S ,  4-C ) :   1.1512 B(  1-C ,  2-C ) :   1.6113
B(  1-C ,  4-C ) :   0.1176 B(  1-C , 32-H ) :   0.9564 B(  2-C ,  3-C ) :   1.2336
B(  2-C ,  6-C ) :   1.0361 B(  3-C ,  4-C ) :   1.5926 B(  3-C ,  5-H ) :   0.9879
B(  4-C , 20-C ) :   0.9992 B(  6-C ,  7-H ) :   0.9409 B(  6-C ,  8-H ) :   0.9321
B(  6-C ,  9-C ) :   1.0475 B(  9-C , 10-H ) :   0.9587 B(  9-C , 11-H ) :   0.9568
B(  9-C , 12-C ) :   1.0885 B( 12-C , 13-H ) :   0.9705 B( 12-C , 14-H ) :   0.9747
B( 12-C , 15-H ) :   0.9728 B( 16-S , 17-C ) :   1.1589 B( 16-S , 20-C ) :   1.1369
B( 17-C , 18-C ) :   1.5953 B( 17-C , 33-H ) :   0.9726 B( 18-C , 19-C ) :   1.2371
B( 18-C , 21-H ) :   0.9843 B( 19-C , 20-C ) :   1.6240 B( 19-C , 22-C ) :   1.0548
B( 22-C , 23-H ) :   0.9392 B( 22-C , 24-H ) :   0.9203 B( 22-C , 25-C ) :   1.0617
B( 25-C , 26-H ) :   0.9659 B( 25-C , 27-H ) :   0.9606 B( 25-C , 28-C ) :   1.0709
B( 28-C , 29-H ) :   0.9774 B( 28-C , 30-H ) :   0.9807 B( 28-C , 31-H ) :   0.9755

Dispersion correction           -0.014149042
FINAL SINGLE POINT ENERGY     -1339.842548859991

DIPOLE MOMENT
-------------
                                X             Y             Z
Electronic contribution:     26.42113      11.95369      -0.03220
Nuclear contribution   :    -27.02206     -12.01181       0.42135
                        -----------------------------------------
Total Dipole Moment    :     -0.60093      -0.05812       0.38914
                        -----------------------------------------
Magnitude (a.u.)       :      0.71828
Magnitude (Debye)      :      1.82573

Rotational constants in cm-1:     0.017611     0.008460     0.006919
Rotational constants in MHz :   527.961547   253.612373   207.440268

                             ****ORCA TERMINATED NORMALLY****
TOTAL RUN TIME: 0 days 0 hours 0 minutes 21 seconds 581 msec
