                         Program Version 4.2.1 -  RELEASE  -
|  1> ! wB97X-D3 SP def2-SVP
|  2> %pal
|  3> nprocs 24
|  4> end
|  5>
|  6> * xyz 0 1
|  7> S 	 -138.272 	 5.57267 	 3.25531
|  8> C 	 -137.554 	 6.40643 	 1.86918
|  9> C 	 -136.157 	 6.2822 	 1.83659
| 10> C 	 -135.673 	 5.56375 	 3.01191
| 11> C 	 -136.669 	 5.05095 	 3.83315
| 12> H 	 -134.622 	 5.40485 	 3.16683
| 13> C 	 -135.247 	 6.91985 	 0.721687
| 14> H 	 -135.769 	 7.05607 	 -0.25005
| 15> H 	 -134.416 	 6.32062 	 0.556979
| 16> C 	 -134.548 	 8.25596 	 1.0146
| 17> H 	 -134.043 	 8.75546 	 0.173248
| 18> H 	 -135.283 	 8.99416 	 1.31025
| 19> C 	 -133.42 	 8.24639 	 2.0255
| 20> H 	 -133.806 	 7.73064 	 2.89059
| 21> H 	 -132.49 	 7.77154 	 1.59997
| 22> H 	 -133.142 	 9.25023 	 2.38714
| 23> S 	 -137.752 	 4.42819 	 6.25261
| 24> C 	 -136.817 	 3.33802 	 7.32078
| 25> C 	 -135.763 	 2.82995 	 6.68942
| 26> C 	 -135.49 	 3.33118 	 5.35873
| 27> C 	 -136.505 	 4.24244 	 5.001
| 28> H 	 -135.226 	 2.04915 	 7.15897
| 29> C 	 -134.421 	 2.75863 	 4.48349
| 30> H 	 -133.827 	 2.04966 	 5.01198
| 31> H 	 -133.792 	 3.483 	 3.94877
| 32> C 	 -135.124 	 1.745 	 3.46421
| 33> H 	 -134.436 	 1.32246 	 2.70778
| 34> H 	 -135.823 	 2.353 	 2.86469
| 35> C 	 -135.859 	 0.545614 	 4.13082
| 36> H 	 -136.195 	 -0.0532646 	 3.3323
| 37> H 	 -136.798 	 0.893865 	 4.55847
| 38> H 	 -135.366 	 -0.0068643 	 4.93578
| 39> H 	 -138.09 	 6.72285 	 0.989683
| 40> H 	 -137.205 	 3.05709 	 8.27653
| 41> *
| 42>
| 43>                          ****END OF INPUT****

CARTESIAN COORDINATES (ANGSTROEM)
---------------------------------
  S    -138.272000    5.572670    3.255310
  C    -137.554000    6.406430    1.869180
  C    -136.157000    6.282200    1.836590
  C    -135.673000    5.563750    3.011910
  C    -136.669000    5.050950    3.833150
  H    -134.622000    5.404850    3.166830
  C    -135.247000    6.919850    0.721687
  H    -135.769000    7.056070   -0.250050
  H    -134.416000    6.320620    0.556979
  C    -134.548000    8.255960    1.014600
  H    -134.043000    8.755460    0.173248
  H    -135.283000    8.994160    1.310250
  C    -133.420000    8.246390    2.025500
  H    -133.806000    7.730640    2.890590
  H    -132.490000    7.771540    1.599970
  H    -133.142000    9.250230    2.387140
  S    -137.752000    4.428190    6.252610
  C    -136.817000    3.338020    7.320780
  C    -135.763000    2.829950    6.689420
  C    -135.490000    3.331180    5.358730
  C    -136.505000    4.242440    5.001000
  H    -135.226000    2.049150    7.158970
  C    -134.421000    2.758630    4.483490
  H    -133.827000    2.049660    5.011980
  H    -133.792000    3.483000    3.948770
  C    -135.124000    1.745000    3.464210
  H    -134.436000    1.322460    2.707780
  H    -135.823000    2.353000    2.864690
  C    -135.859000    0.545614    4.130820
  H    -136.195000   -0.053265    3.332300
  H    -136.798000    0.893865    4.558470
  H    -135.366000   -0.006864    4.935780
  H    -138.090000    6.722850    0.989683
  H    -137.205000    3.057090    8.276530

 Total Charge           Charge          ....    0
 Multiplicity           Mult            ....    1
 Number of Electrons    NEL             ....  134
 Basis Dimension        Dim             ....  322

ORBITAL ENERGIES
----------------

  NO   OCC          E(Eh)            E(eV)
   0   2.0000     -88.970234     -2421.0031
   1   2.0000     -88.964322     -2420.8423
   2   2.0000     -10.335028      -281.2304
   3   2.0000     -10.331939      -281.1464
   4   2.0000     -10.318450      -280.7793
   5   2.0000     -10.315285      -280.6932
   6   2.0000     -10.313412      -280.6422
   7   2.0000     -10.309883      -280.5462
   8   2.0000     -10.299627      -280.2671
   9   2.0000     -10.297634      -280.2129
  10   2.0000     -10.297206      -280.2012
  11   2.0000     -10.291937      -280.0578
  12   2.0000     -10.291072      -280.0343
  13   2.0000     -10.282168      -279.7920
  14   2.0000     -10.277445      -279.6635
  15   2.0000     -10.273119      -279.5458
  16   2.0000      -8.083985      -219.9764
  17   2.0000      -8.078519      -219.8277
  18   2.0000      -6.042659      -164.4291
  19   2.0000      -6.038674      -164.3207
  20   2.0000      -6.037197      -164.2805
  21   2.0000      -6.034582      -164.2093
  22   2.0000      -6.033229      -164.1725
  23   2.0000      -6.029015      -164.0578
  24   2.0000      -1.003273       -27.3004
  25   2.0000      -0.977090       -26.5880
  26   2.0000      -0.910322       -24.7711
  27   2.0000      -0.905069       -24.6282
  28   2.0000      -0.874563       -23.7981
  29   2.0000      -0.847485       -23.0612
  30   2.0000      -0.839414       -22.8416
  31   2.0000      -0.816985       -22.2313
  32   2.0000      -0.786887       -21.4123
  33   2.0000      -0.775076       -21.0909
  34   2.0000      -0.711674       -19.3656
  35   2.0000      -0.693951       -18.8834
  36   2.0000      -0.689499       -18.7622
  37   2.0000      -0.667009       -18.1502
  38   2.0000      -0.636927       -17.3317
  39   2.0000      -0.619834       -16.8665
  40   2.0000      -0.598161       -16.2768
  41   2.0000      -0.571664       -15.5558
  42   2.0000      -0.558624       -15.2009
  43   2.0000      -0.549747       -14.9594
  44   2.0000      -0.546240       -14.8639
  45   2.0000      -0.541299       -14.7295
  46   2.0000      -0.513499       -13.9730
  47   2.0000      -0.507707       -13.8154
  48   2.0000      -0.504489       -13.7278
  49   2.0000      -0.493187       -13.4203
  50   2.0000      -0.489168       -13.3109
  51   2.0000      -0.488712       -13.2985
  52   2.0000      -0.474550       -12.9132
  53   2.0000      -0.464428       -12.6377
  54   2.0000      -0.453169       -12.3314
  55   2.0000      -0.447614       -12.1802
  56   2.0000      -0.442357       -12.0371
  57   2.0000      -0.438091       -11.9211
  58   2.0000      -0.427503       -11.6329
  59   2.0000      -0.423987       -11.5373
  60   2.0000      -0.420431       -11.4405
  61   2.0000      -0.413809       -11.2603
  62   2.0000      -0.408425       -11.1138
  63   2.0000      -0.362530        -9.8649
  64   2.0000      -0.336240        -9.1496
  65   2.0000      -0.327952        -8.9240
  66   2.0000      -0.282806        -7.6955
  67   0.0000       0.015146         0.4122
  68   0.0000       0.072542         1.9740
  69   0.0000       0.092675         2.5218
  70   0.0000       0.120446         3.2775
  71   0.0000       0.137406         3.7390

MULLIKEN ATOMIC CHARGES
-----------------------
   0 S :    0.101140
   1 C :   -0.104940
   2 C :   -0.110108
   3 C :    0.011225
   4 C :   -0.109987
   5 H :    0.006192
   6 C :    0.102393
   7 H :    0.035751
   8 H :    0.002734
   9 C :   -0.082690
  10 H :    0.027840
  11 H :    0.021972
  12 C :   -0.081033
  13 H :    0.029606
  14 H :    0.038824
  15 H :    0.035499
  16 S :    0.077427
  17 C :   -0.073042
  18 C :   -0.004964
  19 C :   -0.041733
  20 C :   -0.144202
  21 H :    0.002424
  22 C :    0.088970
  23 H :    0.011697
  24 H :    0.043115
  25 C :   -0.117336
  26 H :    0.032978
  27 H :    0.040365
  28 C :   -0.041553
  29 H :    0.026911
  30 H :    0.036324
  31 H :    0.036838
  32 H :    0.052601
  33 H :    0.048761
Sum of atomic charges:   -0.0000000

LOEWDIN ATOMIC CHARGES
----------------------
   0 S :    0.383166
   1 C :   -0.192196
   2 C :   -0.053470
   3 C :   -0.064761
   4 C :   -0.180259
   5 H :    0.025499
   6 C :   -0.025739
   7 H :    0.039190
   8 H :    0.019741
   9 C :   -0.049798
  10 H :    0.027531
  11 H :    0.020369
  12 C :   -0.072070
  13 H :    0.020361
  14 H :    0.027605
  15 H :    0.030261
  16 S :    0.366101
  17 C :   -0.161262
  18 C :   -0.062953
  19 C :   -0.049576
  20 C :   -0.180775
  21 H :    0.026975
  22 C :   -0.029594
  23 H :    0.026309
  24 H :    0.031686
  25 C :   -0.033936
  26 H :    0.021368
  27 H :    0.025832
  28 C :   -0.068933
  29 H :    0.024975
  30 H :    0.029105
  31 H :    0.024592
  32 H :    0.028796
  33 H :    0.025861

  Mayer bond orders larger than 0.100000
B(  0-S ,  1-C ) :   1.1264 B(  0-S ,  4-C ) :   1.1281 B(  1-C ,  2-C ) :   1.6319
B(  1-C , 32-H ) :   0.9623 B(  2-C ,  3-C ) :   1.2318 B(  2-C ,  6-C ) :   1.0252
B(  3-C ,  4-C ) :   1.5686 B(  3-C ,  5-H ) :   0.9884 B(  4-C , 20-C ) :   1.1041
B(  6-C ,  7-H ) :   0.9442 B(  6-C ,  8-H ) :   0.9381 B(  6-C ,  9-C ) :   1.0586
B(  9-C , 10-H ) :   0.9565 B(  9-C , 11-H ) :   0.9538 B(  9-C , 12-C ) :   1.0842
B( 12-C , 13-H ) :   0.9748 B( 12-C , 14-H ) :   0.9747 B( 12-C , 15-H ) :   0.9705
B( 16-S , 17-C ) :   1.1141 B( 16-S , 20-C ) :   1.1288 B( 17-C , 18-C ) :   1.6548
B( 17-C , 33-H ) :   0.9714 B( 18-C , 19-C ) :   1.2084 B( 18-C , 21-H ) :   0.9920
B( 19-C , 20-C ) :   1.5747 B( 19-C , 22-C ) :   1.0602 B( 22-C , 23-H ) :   0.9326
B( 22-C , 24-H ) :   0.9377 B( 22-C , 25-C ) :   1.0490 B( 25-C , 26-H ) :   0.9650
B( 25-C , 27-H ) :   0.9585 B( 25-C , 28-C ) :   1.0695 B( 28-C , 29-H ) :   0.9707
B( 28-C , 30-H ) :   0.9708 B( 28-C , 31-H ) :   0.9772

Dispersion correction           -0.015090756
FINAL SINGLE POINT ENERGY     -1339.870961997427

DIPOLE MOMENT
-------------
                                X             Y             Z
Electronic contribution:    -19.80603       2.04483      13.02438
Nuclear contribution   :     20.33137      -2.34125     -13.32153
                        -----------------------------------------
Total Dipole Moment    :      0.52535      -0.29641      -0.29715
                        -----------------------------------------
Magnitude (a.u.)       :      0.67242
Magnitude (Debye)      :      1.70915

Rotational constants in cm-1:     0.020223     0.008439     0.007430
Rotational constants in MHz :   606.281183   253.002329   222.740587

                             ****ORCA TERMINATED NORMALLY****
TOTAL RUN TIME: 0 days 0 hours 0 minutes 21 seconds 102 msec
