                         Program Version 4.2.1 -  RELEASE  -
|  1> ! wB97X-D3 SP def2-SVP
|  2> %pal
|  3> nprocs 24
|  4> end
|  5>
|  6> * xyz 0 1
|  7> S 	 -83.1226 	 -28.3175 	 -53.6959
|  8> C 	 -81.4463 	 -28.5975 	 -53.9101
|  9> C 	 -80.7956 	 -28.9922 	 -52.702
| 10> C 	 -81.7355 	 -28.933 	 -51.6234
| 11> C 	 -83.028 	 -28.5994 	 -52.0008
| 12> H 	 -81.4752 	 -29.1934 	 -50.6003
| 13> C 	 -79.3012 	 -29.1372 	 -52.4122
| 14> H 	 -78.8671 	 -30.1634 	 -52.4634
| 15> H 	 -79.2046 	 -28.8498 	 -51.3668
| 16> C 	 -78.2846 	 -28.3493 	 -53.2574
| 17> H 	 -77.2696 	 -28.6173 	 -52.9246
| 18> H 	 -78.3212 	 -28.6341 	 -54.2992
| 19> C 	 -78.4695 	 -26.7911 	 -53.1136
| 20> H 	 -77.593 	 -26.3045 	 -53.6684
| 21> H 	 -79.3456 	 -26.5456 	 -53.7149
| 22> H 	 -78.6643 	 -26.41 	 -52.1164
| 23> S 	 -85.2734 	 -27.0771 	 -51.289
| 24> C 	 -86.2231 	 -27.6682 	 -49.9315
| 25> C 	 -85.8066 	 -28.9535 	 -49.4521
| 26> C 	 -84.6944 	 -29.4269 	 -50.1889
| 27> C 	 -84.2622 	 -28.5184 	 -51.1781
| 28> H 	 -86.3769 	 -29.5053 	 -48.6526
| 29> C 	 -84.1797 	 -30.7747 	 -50.0073
| 30> H 	 -83.901 	 -30.9418 	 -48.9357
| 31> H 	 -83.2417 	 -30.8236 	 -50.5573
| 32> C 	 -85.0536 	 -31.93 	 -50.4856
| 33> H 	 -86.0966 	 -31.7945 	 -50.2824
| 34> H 	 -84.7687 	 -32.8968 	 -50.0637
| 35> C 	 -84.8055 	 -32.1462 	 -51.9254
| 36> H 	 -83.8073 	 -32.2267 	 -52.2563
| 37> H 	 -85.347 	 -31.4868 	 -52.5643
| 38> H 	 -85.1594 	 -33.0965 	 -52.1317
| 39> H 	 -80.8993 	 -28.5768 	 -54.8705
| 40> H 	 -86.9313 	 -27.1547 	 -49.3019
| 41> *
| 42>
| 43>                          ****END OF INPUT****

CARTESIAN COORDINATES (ANGSTROEM)
---------------------------------
  S    -83.122600  -28.317500  -53.695900
  C    -81.446300  -28.597500  -53.910100
  C    -80.795600  -28.992200  -52.702000
  C    -81.735500  -28.933000  -51.623400
  C    -83.028000  -28.599400  -52.000800
  H    -81.475200  -29.193400  -50.600300
  C    -79.301200  -29.137200  -52.412200
  H    -78.867100  -30.163400  -52.463400
  H    -79.204600  -28.849800  -51.366800
  C    -78.284600  -28.349300  -53.257400
  H    -77.269600  -28.617300  -52.924600
  H    -78.321200  -28.634100  -54.299200
  C    -78.469500  -26.791100  -53.113600
  H    -77.593000  -26.304500  -53.668400
  H    -79.345600  -26.545600  -53.714900
  H    -78.664300  -26.410000  -52.116400
  S    -85.273400  -27.077100  -51.289000
  C    -86.223100  -27.668200  -49.931500
  C    -85.806600  -28.953500  -49.452100
  C    -84.694400  -29.426900  -50.188900
  C    -84.262200  -28.518400  -51.178100
  H    -86.376900  -29.505300  -48.652600
  C    -84.179700  -30.774700  -50.007300
  H    -83.901000  -30.941800  -48.935700
  H    -83.241700  -30.823600  -50.557300
  C    -85.053600  -31.930000  -50.485600
  H    -86.096600  -31.794500  -50.282400
  H    -84.768700  -32.896800  -50.063700
  C    -84.805500  -32.146200  -51.925400
  H    -83.807300  -32.226700  -52.256300
  H    -85.347000  -31.486800  -52.564300
  H    -85.159400  -33.096500  -52.131700
  H    -80.899300  -28.576800  -54.870500
  H    -86.931300  -27.154700  -49.301900

 Total Charge           Charge          ....    0
 Multiplicity           Mult            ....    1
 Number of Electrons    NEL             ....  134
 Basis Dimension        Dim             ....  322

ORBITAL ENERGIES
----------------

  NO   OCC          E(Eh)            E(eV)
   0   2.0000     -88.975212     -2421.1386
   1   2.0000     -88.969840     -2420.9924
   2   2.0000     -10.330448      -281.1058
   3   2.0000     -10.329109      -281.0694
   4   2.0000     -10.322204      -280.8815
   5   2.0000     -10.317693      -280.7587
   6   2.0000     -10.306900      -280.4650
   7   2.0000     -10.301068      -280.3063
   8   2.0000     -10.300325      -280.2861
   9   2.0000     -10.296679      -280.1869
  10   2.0000     -10.294633      -280.1312
  11   2.0000     -10.290538      -280.0198
  12   2.0000     -10.281870      -279.7839
  13   2.0000     -10.279732      -279.7257
  14   2.0000     -10.277315      -279.6600
  15   2.0000     -10.252160      -278.9754
  16   2.0000      -8.088901      -220.1102
  17   2.0000      -8.085401      -220.0149
  18   2.0000      -6.047360      -164.5570
  19   2.0000      -6.043734      -164.4584
  20   2.0000      -6.043564      -164.4537
  21   2.0000      -6.039770      -164.3505
  22   2.0000      -6.039705      -164.3487
  23   2.0000      -6.036401      -164.2588
  24   2.0000      -1.006427       -27.3863
  25   2.0000      -0.982246       -26.7283
  26   2.0000      -0.918831       -25.0027
  27   2.0000      -0.906891       -24.6778
  28   2.0000      -0.860019       -23.4023
  29   2.0000      -0.858859       -23.3707
  30   2.0000      -0.848163       -23.0797
  31   2.0000      -0.806127       -21.9358
  32   2.0000      -0.782062       -21.2810
  33   2.0000      -0.769531       -20.9400
  34   2.0000      -0.704493       -19.1702
  35   2.0000      -0.702978       -19.1290
  36   2.0000      -0.691523       -18.8173
  37   2.0000      -0.657513       -17.8918
  38   2.0000      -0.637008       -17.3339
  39   2.0000      -0.614344       -16.7172
  40   2.0000      -0.595598       -16.2070
  41   2.0000      -0.570847       -15.5335
  42   2.0000      -0.560039       -15.2394
  43   2.0000      -0.544569       -14.8185
  44   2.0000      -0.539762       -14.6877
  45   2.0000      -0.533503       -14.5174
  46   2.0000      -0.515751       -14.0343
  47   2.0000      -0.509971       -13.8770
  48   2.0000      -0.498308       -13.5597
  49   2.0000      -0.497004       -13.5242
  50   2.0000      -0.485749       -13.2179
  51   2.0000      -0.475852       -12.9486
  52   2.0000      -0.474942       -12.9238
  53   2.0000      -0.467904       -12.7323
  54   2.0000      -0.458106       -12.4657
  55   2.0000      -0.449934       -12.2433
  56   2.0000      -0.445830       -12.1317
  57   2.0000      -0.432420       -11.7668
  58   2.0000      -0.427554       -11.6343
  59   2.0000      -0.423852       -11.5336
  60   2.0000      -0.421239       -11.4625
  61   2.0000      -0.415293       -11.3007
  62   2.0000      -0.413203       -11.2438
  63   2.0000      -0.344835        -9.3834
  64   2.0000      -0.333192        -9.0666
  65   2.0000      -0.330527        -8.9941
  66   2.0000      -0.284511        -7.7419
  67   0.0000       0.027835         0.7574
  68   0.0000       0.064256         1.7485
  69   0.0000       0.107408         2.9227
  70   0.0000       0.114820         3.1244
  71   0.0000       0.130175         3.5422

MULLIKEN ATOMIC CHARGES
-----------------------
   0 S :    0.129323
   1 C :   -0.125828
   2 C :   -0.094542
   3 C :    0.025597
   4 C :   -0.171373
   5 H :    0.017965
   6 C :    0.044947
   7 H :    0.044321
   8 H :    0.023245
   9 C :   -0.088173
  10 H :    0.028382
  11 H :    0.026787
  12 C :   -0.071330
  13 H :    0.044144
  14 H :    0.031233
  15 H :    0.041540
  16 S :    0.130222
  17 C :   -0.088114
  18 C :   -0.073881
  19 C :   -0.024957
  20 C :   -0.145820
  21 H :    0.044733
  22 C :    0.058768
  23 H :    0.029653
  24 H :    0.005412
  25 C :   -0.038595
  26 H :    0.022918
  27 H :    0.018972
  28 C :    0.001669
  29 H :    0.017082
  30 H :    0.026711
  31 H :   -0.006139
  32 H :    0.060296
  33 H :    0.054832
Sum of atomic charges:   -0.0000000

LOEWDIN ATOMIC CHARGES
----------------------
   0 S :    0.441970
   1 C :   -0.221382
   2 C :   -0.063213
   3 C :   -0.067124
   4 C :   -0.206097
   5 H :    0.031251
   6 C :   -0.038515
   7 H :    0.038358
   8 H :    0.030442
   9 C :   -0.040909
  10 H :    0.024968
  11 H :    0.020356
  12 C :   -0.073180
  13 H :    0.033998
  14 H :    0.024038
  15 H :    0.024562
  16 S :    0.410530
  17 C :   -0.189816
  18 C :   -0.069678
  19 C :   -0.056977
  20 C :   -0.203452
  21 H :    0.042982
  22 C :   -0.040204
  23 H :    0.034067
  24 H :    0.028900
  25 C :   -0.031679
  26 H :    0.022052
  27 H :    0.026916
  28 C :   -0.055833
  29 H :    0.022187
  30 H :    0.022368
  31 H :    0.016806
  32 H :    0.032947
  33 H :    0.028360

  Mayer bond orders larger than 0.100000
B(  0-S ,  1-C ) :   1.1649 B(  0-S ,  4-C ) :   1.1772 B(  1-C ,  2-C ) :   1.5737
B(  1-C , 32-H ) :   0.9600 B(  2-C ,  3-C ) :   1.2835 B(  2-C ,  6-C ) :   1.0092
B(  3-C ,  4-C ) :   1.5542 B(  3-C ,  5-H ) :   0.9874 B(  4-C , 20-C ) :   1.0144
B(  6-C ,  7-H ) :   0.9336 B(  6-C ,  8-H ) :   0.9501 B(  6-C ,  9-C ) :   1.0838
B(  9-C , 10-H ) :   0.9567 B(  9-C , 11-H ) :   0.9534 B(  9-C , 12-C ) :   1.0668
B( 12-C , 13-H ) :   0.9755 B( 12-C , 14-H ) :   0.9747 B( 12-C , 15-H ) :   0.9791
B( 16-S , 17-C ) :   1.1602 B( 16-S , 20-C ) :   1.1410 B( 17-C , 18-C ) :   1.5925
B( 17-C , 20-C ) :   0.1064 B( 17-C , 33-H ) :   0.9648 B( 18-C , 19-C ) :   1.2595
B( 18-C , 21-H ) :   0.9790 B( 19-C , 20-C ) :   1.5609 B( 19-C , 22-C ) :   1.0682
B( 22-C , 23-H ) :   0.9213 B( 22-C , 24-H ) :   0.9265 B( 22-C , 25-C ) :   1.0741
B( 25-C , 26-H ) :   0.9547 B( 25-C , 27-H ) :   0.9535 B( 25-C , 28-C ) :   1.0951
B( 28-C , 29-H ) :   0.9683 B( 28-C , 30-H ) :   0.9732 B( 28-C , 31-H ) :   0.9651

Dispersion correction           -0.015036742
FINAL SINGLE POINT ENERGY     -1339.869068254202

DIPOLE MOMENT
-------------
                                X             Y             Z
Electronic contribution:    -16.34953      12.75781      -1.72881
Nuclear contribution   :     16.63475     -13.18228       2.01148
                        -----------------------------------------
Total Dipole Moment    :      0.28522      -0.42448       0.28267
                        -----------------------------------------
Magnitude (a.u.)       :      0.58432
Magnitude (Debye)      :      1.48523

Rotational constants in cm-1:     0.022215     0.008126     0.007071
Rotational constants in MHz :   665.991662   243.597312   211.992991

                             ****ORCA TERMINATED NORMALLY****
TOTAL RUN TIME: 0 days 0 hours 0 minutes 22 seconds 104 msec
