                         Program Version 4.2.1 -  RELEASE  -
|  1> ! wB97X-D3 SP def2-SVP
|  2> %pal
|  3> nprocs 24
|  4> end
|  5>
|  6> * xyz 0 1
|  7> S 	 -110.631 	 24.774 	 -112.711
|  8> C 	 -109.832 	 23.4324 	 -111.989
|  9> C 	 -109.24 	 22.5888 	 -112.888
| 10> C 	 -109.474 	 23.0088 	 -114.237
| 11> C 	 -110.195 	 24.2433 	 -114.35
| 12> H 	 -109.321 	 22.4409 	 -115.139
| 13> C 	 -108.575 	 21.2364 	 -112.606
| 14> H 	 -107.691 	 21.1583 	 -113.227
| 15> H 	 -109.233 	 20.54 	 -113.091
| 16> C 	 -108.323 	 20.7759 	 -111.186
| 17> H 	 -109.238 	 20.9564 	 -110.671
| 18> H 	 -108.141 	 19.677 	 -111.162
| 19> C 	 -107.189 	 21.5671 	 -110.489
| 20> H 	 -106.203 	 21.5098 	 -111.084
| 21> H 	 -107.3 	 22.6636 	 -110.335
| 22> H 	 -106.982 	 20.9914 	 -109.593
| 23> S 	 -112.31 	 24.9496 	 -115.953
| 24> C 	 -112.1 	 25.6817 	 -117.524
| 25> C 	 -110.765 	 25.5811 	 -117.85
| 26> C 	 -109.901 	 25.1084 	 -116.76
| 27> C 	 -110.657 	 24.8219 	 -115.612
| 28> H 	 -110.461 	 25.8744 	 -118.829
| 29> C 	 -108.439 	 25.0095 	 -116.865
| 30> H 	 -108.126 	 24.1574 	 -117.525
| 31> H 	 -108.068 	 24.9017 	 -115.896
| 32> C 	 -107.655 	 26.216 	 -117.406
| 33> H 	 -107.717 	 26.2889 	 -118.533
| 34> H 	 -106.647 	 26.2343 	 -117.062
| 35> C 	 -107.978 	 27.6023 	 -116.798
| 36> H 	 -109.019 	 27.9356 	 -117.084
| 37> H 	 -107.377 	 28.4895 	 -117.186
| 38> H 	 -108.037 	 27.4488 	 -115.707
| 39> H 	 -109.822 	 23.2411 	 -110.973
| 40> H 	 -112.949 	 25.9201 	 -118.115
| 41> *
| 42>
| 43>                          ****END OF INPUT****

CARTESIAN COORDINATES (ANGSTROEM)
---------------------------------
  S    -110.631000   24.774000  -112.711000
  C    -109.832000   23.432400  -111.989000
  C    -109.240000   22.588800  -112.888000
  C    -109.474000   23.008800  -114.237000
  C    -110.195000   24.243300  -114.350000
  H    -109.321000   22.440900  -115.139000
  C    -108.575000   21.236400  -112.606000
  H    -107.691000   21.158300  -113.227000
  H    -109.233000   20.540000  -113.091000
  C    -108.323000   20.775900  -111.186000
  H    -109.238000   20.956400  -110.671000
  H    -108.141000   19.677000  -111.162000
  C    -107.189000   21.567100  -110.489000
  H    -106.203000   21.509800  -111.084000
  H    -107.300000   22.663600  -110.335000
  H    -106.982000   20.991400  -109.593000
  S    -112.310000   24.949600  -115.953000
  C    -112.100000   25.681700  -117.524000
  C    -110.765000   25.581100  -117.850000
  C    -109.901000   25.108400  -116.760000
  C    -110.657000   24.821900  -115.612000
  H    -110.461000   25.874400  -118.829000
  C    -108.439000   25.009500  -116.865000
  H    -108.126000   24.157400  -117.525000
  H    -108.068000   24.901700  -115.896000
  C    -107.655000   26.216000  -117.406000
  H    -107.717000   26.288900  -118.533000
  H    -106.647000   26.234300  -117.062000
  C    -107.978000   27.602300  -116.798000
  H    -109.019000   27.935600  -117.084000
  H    -107.377000   28.489500  -117.186000
  H    -108.037000   27.448800  -115.707000
  H    -109.822000   23.241100  -110.973000
  H    -112.949000   25.920100  -118.115000

 Total Charge           Charge          ....    0
 Multiplicity           Mult            ....    1
 Number of Electrons    NEL             ....  134
 Basis Dimension        Dim             ....  322

ORBITAL ENERGIES
----------------

  NO   OCC          E(Eh)            E(eV)
   0   2.0000     -88.969337     -2420.9787
   1   2.0000     -88.960162     -2420.7291
   2   2.0000     -10.336311      -281.2653
   3   2.0000     -10.326036      -280.9857
   4   2.0000     -10.316534      -280.7272
   5   2.0000     -10.308152      -280.4991
   6   2.0000     -10.305094      -280.4159
   7   2.0000     -10.303137      -280.3626
   8   2.0000     -10.299632      -280.2672
   9   2.0000     -10.296771      -280.1894
  10   2.0000     -10.292440      -280.0715
  11   2.0000     -10.290206      -280.0107
  12   2.0000     -10.287547      -279.9384
  13   2.0000     -10.286380      -279.9066
  14   2.0000     -10.284681      -279.8604
  15   2.0000     -10.280003      -279.7331
  16   2.0000      -8.083789      -219.9711
  17   2.0000      -8.076441      -219.7711
  18   2.0000      -6.042325      -164.4200
  19   2.0000      -6.038233      -164.3087
  20   2.0000      -6.034858      -164.2168
  21   2.0000      -6.034646      -164.2111
  22   2.0000      -6.030637      -164.1020
  23   2.0000      -6.027279      -164.0106
  24   2.0000      -1.007833       -27.4245
  25   2.0000      -0.986373       -26.8406
  26   2.0000      -0.913328       -24.8529
  27   2.0000      -0.910760       -24.7830
  28   2.0000      -0.871487       -23.7144
  29   2.0000      -0.850761       -23.1504
  30   2.0000      -0.842024       -22.9126
  31   2.0000      -0.813009       -22.1231
  32   2.0000      -0.784386       -21.3442
  33   2.0000      -0.773769       -21.0553
  34   2.0000      -0.710881       -19.3440
  35   2.0000      -0.700576       -19.0636
  36   2.0000      -0.691360       -18.8128
  37   2.0000      -0.657304       -17.8862
  38   2.0000      -0.644737       -17.5442
  39   2.0000      -0.609194       -16.5770
  40   2.0000      -0.596646       -16.2356
  41   2.0000      -0.581095       -15.8124
  42   2.0000      -0.561262       -15.2727
  43   2.0000      -0.551504       -15.0072
  44   2.0000      -0.544951       -14.8289
  45   2.0000      -0.534487       -14.5441
  46   2.0000      -0.522553       -14.2194
  47   2.0000      -0.513100       -13.9622
  48   2.0000      -0.504406       -13.7256
  49   2.0000      -0.498046       -13.5525
  50   2.0000      -0.493771       -13.4362
  51   2.0000      -0.481310       -13.0971
  52   2.0000      -0.475364       -12.9353
  53   2.0000      -0.465952       -12.6792
  54   2.0000      -0.462353       -12.5813
  55   2.0000      -0.442380       -12.0378
  56   2.0000      -0.434927       -11.8350
  57   2.0000      -0.431765       -11.7489
  58   2.0000      -0.429483       -11.6868
  59   2.0000      -0.427872       -11.6430
  60   2.0000      -0.418274       -11.3818
  61   2.0000      -0.415411       -11.3039
  62   2.0000      -0.401122       -10.9151
  63   2.0000      -0.346731        -9.4350
  64   2.0000      -0.328766        -8.9462
  65   2.0000      -0.323087        -8.7916
  66   2.0000      -0.297071        -8.0837
  67   0.0000       0.028918         0.7869
  68   0.0000       0.074107         2.0166
  69   0.0000       0.113761         3.0956
  70   0.0000       0.124320         3.3829
  71   0.0000       0.129146         3.5143

MULLIKEN ATOMIC CHARGES
-----------------------
   0 S :    0.125527
   1 C :   -0.105295
   2 C :   -0.079169
   3 C :    0.023050
   4 C :   -0.184752
   5 H :    0.019318
   6 C :    0.070031
   7 H :    0.021060
   8 H :    0.028404
   9 C :   -0.050825
  10 H :    0.022612
  11 H :    0.041181
  12 C :   -0.087383
  13 H :    0.031722
  14 H :    0.053684
  15 H :    0.037755
  16 S :    0.101616
  17 C :   -0.094128
  18 C :   -0.010696
  19 C :   -0.057980
  20 C :   -0.139786
  21 H :    0.010650
  22 C :    0.104477
  23 H :    0.050286
  24 H :    0.012001
  25 C :   -0.100597
  26 H :    0.035399
  27 H :    0.032522
  28 C :   -0.102552
  29 H :    0.025365
  30 H :    0.052783
  31 H :    0.038360
  32 H :    0.019263
  33 H :    0.056098
Sum of atomic charges:   -0.0000000

LOEWDIN ATOMIC CHARGES
----------------------
   0 S :    0.413879
   1 C :   -0.198764
   2 C :   -0.061712
   3 C :   -0.050024
   4 C :   -0.195593
   5 H :    0.030529
   6 C :   -0.034073
   7 H :    0.028876
   8 H :    0.033992
   9 C :   -0.042311
  10 H :    0.020136
  11 H :    0.036230
  12 C :   -0.076500
  13 H :    0.031565
  14 H :    0.030696
  15 H :    0.026133
  16 S :    0.428452
  17 C :   -0.180643
  18 C :   -0.062927
  19 C :   -0.056694
  20 C :   -0.221636
  21 H :    0.025452
  22 C :   -0.036447
  23 H :    0.044727
  24 H :    0.025240
  25 C :   -0.048098
  26 H :    0.022773
  27 H :    0.026235
  28 C :   -0.082490
  29 H :    0.021490
  30 H :    0.035682
  31 H :    0.027831
  32 H :    0.012740
  33 H :    0.025250

  Mayer bond orders larger than 0.100000
B(  0-S ,  1-C ) :   1.1452 B(  0-S ,  4-C ) :   1.1514 B(  1-C ,  2-C ) :   1.6136
B(  1-C , 32-H ) :   0.9676 B(  2-C ,  3-C ) :   1.2583 B(  2-C ,  6-C ) :   0.9992
B(  3-C ,  4-C ) :   1.5479 B(  3-C ,  5-H ) :   0.9935 B(  4-C , 20-C ) :   1.0452
B(  6-C ,  7-H ) :   0.9369 B(  6-C ,  8-H ) :   0.9337 B(  6-C ,  9-C ) :   1.0901
B(  9-C , 10-H ) :   0.9465 B(  9-C , 11-H ) :   0.9512 B(  9-C , 12-C ) :   1.0715
B( 12-C , 13-H ) :   0.9740 B( 12-C , 14-H ) :   0.9760 B( 12-C , 15-H ) :   0.9758
B( 16-S , 17-C ) :   1.1581 B( 16-S , 20-C ) :   1.1714 B( 17-C , 18-C ) :   1.5816
B( 17-C , 33-H ) :   0.9785 B( 18-C , 19-C ) :   1.2300 B( 18-C , 21-H ) :   0.9978
B( 19-C , 20-C ) :   1.5557 B( 19-C , 22-C ) :   1.0749 B( 22-C , 23-H ) :   0.9266
B( 22-C , 24-H ) :   0.9178 B( 22-C , 25-C ) :   1.0756 B( 25-C , 26-H ) :   0.9529
B( 25-C , 27-H ) :   0.9622 B( 25-C , 28-C ) :   1.0632 B( 28-C , 29-H ) :   0.9690
B( 28-C , 30-H ) :   0.9744 B( 28-C , 31-H ) :   0.9742

Dispersion correction           -0.014457552
FINAL SINGLE POINT ENERGY     -1339.868076189532

DIPOLE MOMENT
-------------
                                X             Y             Z
Electronic contribution:    -22.33284       5.31733      -2.13643
Nuclear contribution   :     22.69370      -5.83598       1.95542
                        -----------------------------------------
Total Dipole Moment    :      0.36087      -0.51865      -0.18101
                        -----------------------------------------
Magnitude (a.u.)       :      0.65726
Magnitude (Debye)      :      1.67061

Rotational constants in cm-1:     0.022672     0.007413     0.006450
Rotational constants in MHz :   679.675987   222.222957   193.361805

                             ****ORCA TERMINATED NORMALLY****
TOTAL RUN TIME: 0 days 0 hours 0 minutes 21 seconds 532 msec
