                         Program Version 4.2.1 -  RELEASE  -
|  1> ! wB97X-D3 SP def2-SVP
|  2> %pal
|  3> nprocs 24
|  4> end
|  5>
|  6> * xyz 0 1
|  7> S 	 -65.3448 	 10.0294 	 -75.9419
|  8> C 	 -65.3071 	 9.78596 	 -74.1929
|  9> C 	 -66.5979 	 9.7844 	 -73.6662
| 10> C 	 -67.6428 	 9.99661 	 -74.6585
| 11> C 	 -67.1345 	 10.0752 	 -75.9563
| 12> H 	 -68.7487 	 9.97441 	 -74.5012
| 13> C 	 -66.8854 	 9.64058 	 -72.1772
| 14> H 	 -67.8537 	 10.1235 	 -72.0594
| 15> H 	 -66.0314 	 10.1966 	 -71.7551
| 16> C 	 -67.0275 	 8.20285 	 -71.7082
| 17> H 	 -67.723 	 8.13921 	 -70.8517
| 18> H 	 -67.5356 	 7.75275 	 -72.547
| 19> C 	 -65.6964 	 7.47757 	 -71.4218
| 20> H 	 -65.2236 	 7.05966 	 -72.3206
| 21> H 	 -65.0631 	 8.23537 	 -70.8913
| 22> H 	 -65.8212 	 6.59137 	 -70.7875
| 23> S 	 -67.2011 	 11.4593 	 -78.3277
| 24> C 	 -68.5132 	 11.2539 	 -79.4195
| 25> C 	 -69.5148 	 10.4503 	 -78.9376
| 26> C 	 -69.1657 	 9.93187 	 -77.6102
| 27> C 	 -67.8973 	 10.3412 	 -77.1794
| 28> H 	 -70.4182 	 10.2643 	 -79.5458
| 29> C 	 -70.1089 	 9.03944 	 -76.7971
| 30> H 	 -70.4904 	 9.70023 	 -76.0509
| 31> H 	 -69.3935 	 8.34181 	 -76.2994
| 32> C 	 -71.3724 	 8.3406 	 -77.529
| 33> H 	 -71.0303 	 7.75862 	 -78.3691
| 34> H 	 -72.0366 	 9.05934 	 -77.9054
| 35> C 	 -72.1995 	 7.4635 	 -76.5613
| 36> H 	 -72.3526 	 7.96783 	 -75.6192
| 37> H 	 -71.6109 	 6.49872 	 -76.4613
| 38> H 	 -73.1182 	 7.18909 	 -77.0212
| 39> H 	 -64.4459 	 9.72363 	 -73.5976
| 40> H 	 -68.463 	 11.663 	 -80.4316
| 41> *
| 42>
| 43>                          ****END OF INPUT****

CARTESIAN COORDINATES (ANGSTROEM)
---------------------------------
  S    -65.344800   10.029400  -75.941900
  C    -65.307100    9.785960  -74.192900
  C    -66.597900    9.784400  -73.666200
  C    -67.642800    9.996610  -74.658500
  C    -67.134500   10.075200  -75.956300
  H    -68.748700    9.974410  -74.501200
  C    -66.885400    9.640580  -72.177200
  H    -67.853700   10.123500  -72.059400
  H    -66.031400   10.196600  -71.755100
  C    -67.027500    8.202850  -71.708200
  H    -67.723000    8.139210  -70.851700
  H    -67.535600    7.752750  -72.547000
  C    -65.696400    7.477570  -71.421800
  H    -65.223600    7.059660  -72.320600
  H    -65.063100    8.235370  -70.891300
  H    -65.821200    6.591370  -70.787500
  S    -67.201100   11.459300  -78.327700
  C    -68.513200   11.253900  -79.419500
  C    -69.514800   10.450300  -78.937600
  C    -69.165700    9.931870  -77.610200
  C    -67.897300   10.341200  -77.179400
  H    -70.418200   10.264300  -79.545800
  C    -70.108900    9.039440  -76.797100
  H    -70.490400    9.700230  -76.050900
  H    -69.393500    8.341810  -76.299400
  C    -71.372400    8.340600  -77.529000
  H    -71.030300    7.758620  -78.369100
  H    -72.036600    9.059340  -77.905400
  C    -72.199500    7.463500  -76.561300
  H    -72.352600    7.967830  -75.619200
  H    -71.610900    6.498720  -76.461300
  H    -73.118200    7.189090  -77.021200
  H    -64.445900    9.723630  -73.597600
  H    -68.463000   11.663000  -80.431600

 Total Charge           Charge          ....    0
 Multiplicity           Mult            ....    1
 Number of Electrons    NEL             ....  134
 Basis Dimension        Dim             ....  322

ORBITAL ENERGIES
----------------

  NO   OCC          E(Eh)            E(eV)
   0   2.0000     -88.967678     -2420.9336
   1   2.0000     -88.962861     -2420.8025
   2   2.0000     -10.336753      -281.2773
   3   2.0000     -10.326728      -281.0045
   4   2.0000     -10.314982      -280.6849
   5   2.0000     -10.313652      -280.6487
   6   2.0000     -10.310784      -280.5707
   7   2.0000     -10.303833      -280.3815
   8   2.0000     -10.302597      -280.3479
   9   2.0000     -10.299474      -280.2629
  10   2.0000     -10.298445      -280.2349
  11   2.0000     -10.291214      -280.0382
  12   2.0000     -10.290958      -280.0312
  13   2.0000     -10.285980      -279.8957
  14   2.0000     -10.283377      -279.8249
  15   2.0000     -10.282358      -279.7972
  16   2.0000      -8.081287      -219.9030
  17   2.0000      -8.078430      -219.8253
  18   2.0000      -6.039983      -164.3563
  19   2.0000      -6.036892      -164.2722
  20   2.0000      -6.035977      -164.2473
  21   2.0000      -6.032805      -164.1610
  22   2.0000      -6.031899      -164.1363
  23   2.0000      -6.029216      -164.0633
  24   2.0000      -1.002446       -27.2779
  25   2.0000      -0.978467       -26.6254
  26   2.0000      -0.912461       -24.8293
  27   2.0000      -0.901461       -24.5300
  28   2.0000      -0.867709       -23.6116
  29   2.0000      -0.852790       -23.2056
  30   2.0000      -0.840880       -22.8815
  31   2.0000      -0.814280       -22.1577
  32   2.0000      -0.780518       -21.2390
  33   2.0000      -0.770037       -20.9538
  34   2.0000      -0.711431       -19.3590
  35   2.0000      -0.700229       -19.0542
  36   2.0000      -0.694788       -18.9061
  37   2.0000      -0.652173       -17.7465
  38   2.0000      -0.636885       -17.3305
  39   2.0000      -0.615298       -16.7431
  40   2.0000      -0.590812       -16.0768
  41   2.0000      -0.569463       -15.4959
  42   2.0000      -0.567328       -15.4378
  43   2.0000      -0.553291       -15.0558
  44   2.0000      -0.539841       -14.6898
  45   2.0000      -0.529924       -14.4200
  46   2.0000      -0.518258       -14.1025
  47   2.0000      -0.515262       -14.0210
  48   2.0000      -0.504760       -13.7352
  49   2.0000      -0.495596       -13.4859
  50   2.0000      -0.488136       -13.2828
  51   2.0000      -0.475657       -12.9433
  52   2.0000      -0.468711       -12.7543
  53   2.0000      -0.464570       -12.6416
  54   2.0000      -0.455972       -12.4076
  55   2.0000      -0.454115       -12.3571
  56   2.0000      -0.444090       -12.0843
  57   2.0000      -0.435939       -11.8625
  58   2.0000      -0.434488       -11.8230
  59   2.0000      -0.429460       -11.6862
  60   2.0000      -0.423695       -11.5293
  61   2.0000      -0.418308       -11.3827
  62   2.0000      -0.407639       -11.0924
  63   2.0000      -0.353361        -9.6155
  64   2.0000      -0.329507        -8.9664
  65   2.0000      -0.327332        -8.9072
  66   2.0000      -0.287523        -7.8239
  67   0.0000       0.024127         0.6565
  68   0.0000       0.078396         2.1333
  69   0.0000       0.108080         2.9410
  70   0.0000       0.123827         3.3695
  71   0.0000       0.129301         3.5185

MULLIKEN ATOMIC CHARGES
-----------------------
   0 S :    0.101939
   1 C :   -0.093126
   2 C :   -0.131898
   3 C :    0.005778
   4 C :   -0.142870
   5 H :    0.030087
   6 C :    0.062987
   7 H :    0.022201
   8 H :    0.034528
   9 C :   -0.048080
  10 H :    0.035190
  11 H :    0.021202
  12 C :   -0.066681
  13 H :    0.045666
  14 H :    0.033867
  15 H :    0.036376
  16 S :    0.104067
  17 C :   -0.095432
  18 C :   -0.046486
  19 C :   -0.061926
  20 C :   -0.141440
  21 H :    0.035205
  22 C :    0.012228
  23 H :    0.043288
  24 H :    0.049250
  25 C :   -0.063565
  26 H :    0.033103
  27 H :    0.022442
  28 C :   -0.035765
  29 H :    0.035062
  30 H :    0.040553
  31 H :    0.028459
  32 H :    0.030297
  33 H :    0.063493
Sum of atomic charges:   -0.0000000

LOEWDIN ATOMIC CHARGES
----------------------
   0 S :    0.381411
   1 C :   -0.189576
   2 C :   -0.060246
   3 C :   -0.072480
   4 C :   -0.178090
   5 H :    0.038745
   6 C :   -0.032284
   7 H :    0.032966
   8 H :    0.031308
   9 C :   -0.043915
  10 H :    0.026031
  11 H :    0.024791
  12 C :   -0.071356
  13 H :    0.029582
  14 H :    0.027707
  15 H :    0.028446
  16 S :    0.414527
  17 C :   -0.192574
  18 C :   -0.081775
  19 C :   -0.050346
  20 C :   -0.208599
  21 H :    0.039506
  22 C :   -0.036183
  23 H :    0.027060
  24 H :    0.038682
  25 C :   -0.032243
  26 H :    0.023019
  27 H :    0.014859
  28 C :   -0.059046
  29 H :    0.023463
  30 H :    0.034326
  31 H :    0.021710
  32 H :    0.019287
  33 H :    0.031288

  Mayer bond orders larger than 0.100000
B(  0-S ,  1-C ) :   1.1198 B(  0-S ,  4-C ) :   1.1410 B(  1-C ,  2-C ) :   1.6246
B(  1-C , 32-H ) :   0.9729 B(  2-C ,  3-C ) :   1.2298 B(  2-C ,  6-C ) :   1.0148
B(  3-C ,  4-C ) :   1.5740 B(  3-C ,  5-H ) :   0.9781 B(  4-C , 20-C ) :   1.0642
B(  6-C ,  7-H ) :   0.9336 B(  6-C ,  8-H ) :   0.9483 B(  6-C ,  9-C ) :   1.0656
B(  9-C , 10-H ) :   0.9593 B(  9-C , 11-H ) :   0.9510 B(  9-C , 12-C ) :   1.0700
B( 12-C , 13-H ) :   0.9740 B( 12-C , 14-H ) :   0.9782 B( 12-C , 15-H ) :   0.9743
B( 16-S , 17-C ) :   1.1690 B( 16-S , 20-C ) :   1.1324 B( 17-C , 18-C ) :   1.6070
B( 17-C , 33-H ) :   0.9614 B( 18-C , 19-C ) :   1.2327 B( 18-C , 21-H ) :   0.9880
B( 19-C , 20-C ) :   1.6004 B( 19-C , 22-C ) :   1.0255 B( 22-C , 23-H ) :   0.9269
B( 22-C , 24-H ) :   0.9403 B( 22-C , 25-C ) :   1.0624 B( 25-C , 26-H ) :   0.9607
B( 25-C , 27-H ) :   0.9500 B( 25-C , 28-C ) :   1.0878 B( 28-C , 29-H ) :   0.9757
B( 28-C , 30-H ) :   0.9780 B( 28-C , 31-H ) :   0.9740

Dispersion correction           -0.013696733
FINAL SINGLE POINT ENERGY     -1339.881056977109

DIPOLE MOMENT
-------------
                                X             Y             Z
Electronic contribution:     16.06039      17.00870     -17.95959
Nuclear contribution   :    -16.69829     -17.30069      18.22920
                        -----------------------------------------
Total Dipole Moment    :     -0.63790      -0.29199       0.26960
                        -----------------------------------------
Magnitude (a.u.)       :      0.75157
Magnitude (Debye)      :      1.91034

Rotational constants in cm-1:     0.017293     0.008544     0.006014
Rotational constants in MHz :   518.433673   256.151631   180.309494

                             ****ORCA TERMINATED NORMALLY****
TOTAL RUN TIME: 0 days 0 hours 0 minutes 21 seconds 2 msec
