                         Program Version 4.2.1 -  RELEASE  -
|  1> ! wB97X-D3 SP def2-SVP
|  2> %pal
|  3> nprocs 24
|  4> end
|  5>
|  6> * xyz 0 1
|  7> S 	 -139.183 	 7.82777 	 -4.3217
|  8> C 	 -140.113 	 9.22552 	 -4.82212
|  9> C 	 -141.474 	 8.97418 	 -4.85708
| 10> C 	 -141.72 	 7.60052 	 -4.52129
| 11> C 	 -140.604 	 6.90047 	 -4.17606
| 12> H 	 -142.722 	 7.19588 	 -4.48092
| 13> C 	 -142.488 	 9.9195 	 -5.44711
| 14> H 	 -142.639 	 9.47401 	 -6.42883
| 15> H 	 -141.853 	 10.8211 	 -5.55523
| 16> C 	 -143.792 	 10.0477 	 -4.68357
| 17> H 	 -144.226 	 9.05462 	 -4.54327
| 18> H 	 -143.613 	 10.4082 	 -3.70137
| 19> C 	 -144.899 	 10.851 	 -5.35661
| 20> H 	 -144.664 	 11.9433 	 -5.34592
| 21> H 	 -145.144 	 10.5953 	 -6.37256
| 22> H 	 -145.752 	 10.729 	 -4.69061
| 23> S 	 -140.036 	 4.35917 	 -5.01227
| 24> C 	 -140.125 	 3.01664 	 -3.94122
| 25> C 	 -140.355 	 3.46931 	 -2.63083
| 26> C 	 -140.615 	 4.87156 	 -2.53814
| 27> C 	 -140.582 	 5.49409 	 -3.7949
| 28> H 	 -140.367 	 2.81587 	 -1.76925
| 29> C 	 -140.93 	 5.52001 	 -1.19728
| 30> H 	 -141.636 	 4.94211 	 -0.575139
| 31> H 	 -141.491 	 6.45707 	 -1.42775
| 32> C 	 -139.758 	 5.73321 	 -0.213529
| 33> H 	 -139.415 	 4.74145 	 -0.0408099
| 34> H 	 -140.303 	 6.11121 	 0.645688
| 35> C 	 -138.645 	 6.70227 	 -0.610972
| 36> H 	 -138.07 	 6.27898 	 -1.38399
| 37> H 	 -138.022 	 6.91506 	 0.24629
| 38> H 	 -138.94 	 7.69232 	 -0.802104
| 39> H 	 -139.631 	 10.1663 	 -5.22455
| 40> H 	 -140.179 	 1.96117 	 -4.24896
| 41> *
| 42>
| 43>                          ****END OF INPUT****

CARTESIAN COORDINATES (ANGSTROEM)
---------------------------------
  S    -139.183000    7.827770   -4.321700
  C    -140.113000    9.225520   -4.822120
  C    -141.474000    8.974180   -4.857080
  C    -141.720000    7.600520   -4.521290
  C    -140.604000    6.900470   -4.176060
  H    -142.722000    7.195880   -4.480920
  C    -142.488000    9.919500   -5.447110
  H    -142.639000    9.474010   -6.428830
  H    -141.853000   10.821100   -5.555230
  C    -143.792000   10.047700   -4.683570
  H    -144.226000    9.054620   -4.543270
  H    -143.613000   10.408200   -3.701370
  C    -144.899000   10.851000   -5.356610
  H    -144.664000   11.943300   -5.345920
  H    -145.144000   10.595300   -6.372560
  H    -145.752000   10.729000   -4.690610
  S    -140.036000    4.359170   -5.012270
  C    -140.125000    3.016640   -3.941220
  C    -140.355000    3.469310   -2.630830
  C    -140.615000    4.871560   -2.538140
  C    -140.582000    5.494090   -3.794900
  H    -140.367000    2.815870   -1.769250
  C    -140.930000    5.520010   -1.197280
  H    -141.636000    4.942110   -0.575139
  H    -141.491000    6.457070   -1.427750
  C    -139.758000    5.733210   -0.213529
  H    -139.415000    4.741450   -0.040810
  H    -140.303000    6.111210    0.645688
  C    -138.645000    6.702270   -0.610972
  H    -138.070000    6.278980   -1.383990
  H    -138.022000    6.915060    0.246290
  H    -138.940000    7.692320   -0.802104
  H    -139.631000   10.166300   -5.224550
  H    -140.179000    1.961170   -4.248960

 Total Charge           Charge          ....    0
 Multiplicity           Mult            ....    1
 Number of Electrons    NEL             ....  134
 Basis Dimension        Dim             ....  322

ORBITAL ENERGIES
----------------

  NO   OCC          E(Eh)            E(eV)
   0   2.0000     -88.965097     -2420.8634
   1   2.0000     -88.963704     -2420.8255
   2   2.0000     -10.323695      -280.9220
   3   2.0000     -10.321089      -280.8511
   4   2.0000     -10.318715      -280.7865
   5   2.0000     -10.314318      -280.6669
   6   2.0000     -10.303050      -280.3602
   7   2.0000     -10.297283      -280.2033
   8   2.0000     -10.293181      -280.0917
   9   2.0000     -10.292602      -280.0759
  10   2.0000     -10.290760      -280.0258
  11   2.0000     -10.288431      -279.9624
  12   2.0000     -10.285745      -279.8893
  13   2.0000     -10.281132      -279.7638
  14   2.0000     -10.279885      -279.7299
  15   2.0000     -10.261789      -279.2375
  16   2.0000      -8.080475      -219.8809
  17   2.0000      -8.078916      -219.8385
  18   2.0000      -6.038908      -164.3270
  19   2.0000      -6.037372      -164.2853
  20   2.0000      -6.034896      -164.2179
  21   2.0000      -6.033195      -164.1716
  22   2.0000      -6.031262      -164.1190
  23   2.0000      -6.029873      -164.0812
  24   2.0000      -1.009127       -27.4598
  25   2.0000      -0.984870       -26.7997
  26   2.0000      -0.916580       -24.9414
  27   2.0000      -0.905421       -24.6378
  28   2.0000      -0.868949       -23.6453
  29   2.0000      -0.849522       -23.1167
  30   2.0000      -0.846539       -23.0355
  31   2.0000      -0.812387       -22.1062
  32   2.0000      -0.786977       -21.4147
  33   2.0000      -0.772748       -21.0275
  34   2.0000      -0.710536       -19.3347
  35   2.0000      -0.696635       -18.9564
  36   2.0000      -0.686182       -18.6720
  37   2.0000      -0.655855       -17.8467
  38   2.0000      -0.637772       -17.3547
  39   2.0000      -0.619070       -16.8457
  40   2.0000      -0.596721       -16.2376
  41   2.0000      -0.573663       -15.6102
  42   2.0000      -0.558238       -15.1904
  43   2.0000      -0.549620       -14.9559
  44   2.0000      -0.539691       -14.6857
  45   2.0000      -0.532058       -14.4780
  46   2.0000      -0.515009       -14.0141
  47   2.0000      -0.505545       -13.7566
  48   2.0000      -0.503672       -13.7056
  49   2.0000      -0.498206       -13.5569
  50   2.0000      -0.494427       -13.4541
  51   2.0000      -0.483705       -13.1623
  52   2.0000      -0.469134       -12.7658
  53   2.0000      -0.464979       -12.6527
  54   2.0000      -0.458916       -12.4877
  55   2.0000      -0.449187       -12.2230
  56   2.0000      -0.442412       -12.0386
  57   2.0000      -0.439089       -11.9482
  58   2.0000      -0.425370       -11.5749
  59   2.0000      -0.423366       -11.5204
  60   2.0000      -0.420578       -11.4445
  61   2.0000      -0.416930       -11.3452
  62   2.0000      -0.412094       -11.2137
  63   2.0000      -0.333982        -9.0881
  64   2.0000      -0.325240        -8.8502
  65   2.0000      -0.321950        -8.7607
  66   2.0000      -0.307759        -8.3746
  67   0.0000       0.046876         1.2756
  68   0.0000       0.055234         1.5030
  69   0.0000       0.119405         3.2492
  70   0.0000       0.123869         3.3706
  71   0.0000       0.128943         3.5087

MULLIKEN ATOMIC CHARGES
-----------------------
   0 S :    0.133910
   1 C :   -0.167461
   2 C :   -0.101962
   3 C :    0.033645
   4 C :   -0.156747
   5 H :    0.010177
   6 C :    0.093276
   7 H :    0.040817
   8 H :    0.018562
   9 C :   -0.080228
  10 H :    0.026335
  11 H :    0.022984
  12 C :   -0.037239
  13 H :    0.031877
  14 H :    0.032621
  15 H :    0.032868
  16 S :    0.114176
  17 C :   -0.101250
  18 C :   -0.043692
  19 C :   -0.002451
  20 C :   -0.195110
  21 H :    0.016309
  22 C :    0.027186
  23 H :    0.025690
  24 H :    0.026808
  25 C :   -0.054707
  26 H :    0.016461
  27 H :    0.024980
  28 C :    0.003552
  29 H :    0.033587
  30 H :    0.018261
  31 H :    0.014754
  32 H :    0.067514
  33 H :    0.074500
Sum of atomic charges:    0.0000000

LOEWDIN ATOMIC CHARGES
----------------------
   0 S :    0.430046
   1 C :   -0.214641
   2 C :   -0.065446
   3 C :   -0.061400
   4 C :   -0.217611
   5 H :    0.029685
   6 C :   -0.031821
   7 H :    0.037922
   8 H :    0.032989
   9 C :   -0.040905
  10 H :    0.025736
  11 H :    0.023732
  12 C :   -0.063121
  13 H :    0.027563
  14 H :    0.022031
  15 H :    0.029258
  16 S :    0.424477
  17 C :   -0.202024
  18 C :   -0.073744
  19 C :   -0.055380
  20 C :   -0.207422
  21 H :    0.027355
  22 C :   -0.037859
  23 H :    0.032712
  24 H :    0.031052
  25 C :   -0.030678
  26 H :    0.018140
  27 H :    0.025694
  28 C :   -0.060784
  29 H :    0.020755
  30 H :    0.028769
  31 H :    0.020147
  32 H :    0.037158
  33 H :    0.037614

  Mayer bond orders larger than 0.100000
B(  0-S ,  1-C ) :   1.1391 B(  0-S ,  4-C ) :   1.1657 B(  1-C ,  2-C ) :   1.6178
B(  1-C , 32-H ) :   0.9549 B(  2-C ,  3-C ) :   1.2361 B(  2-C ,  6-C ) :   1.0193
B(  3-C ,  4-C ) :   1.5920 B(  3-C ,  5-H ) :   0.9948 B(  4-C , 20-C ) :   1.0041
B(  6-C ,  7-H ) :   0.9336 B(  6-C ,  8-H ) :   0.9378 B(  6-C ,  9-C ) :   1.0618
B(  9-C , 10-H ) :   0.9538 B(  9-C , 11-H ) :   0.9540 B(  9-C , 12-C ) :   1.0915
B( 12-C , 13-H ) :   0.9742 B( 12-C , 14-H ) :   0.9749 B( 12-C , 15-H ) :   0.9739
B( 16-S , 17-C ) :   1.1782 B( 16-S , 20-C ) :   1.1642 B( 17-C , 18-C ) :   1.5624
B( 17-C , 20-C ) :   0.1093 B( 17-C , 33-H ) :   0.9654 B( 18-C , 19-C ) :   1.2735
B( 18-C , 21-H ) :   0.9883 B( 19-C , 20-C ) :   1.5634 B( 19-C , 22-C ) :   1.0414
B( 22-C , 23-H ) :   0.9426 B( 22-C , 24-H ) :   0.9336 B( 22-C , 25-C ) :   1.0674
B( 25-C , 26-H ) :   0.9564 B( 25-C , 27-H ) :   0.9550 B( 25-C , 28-C ) :   1.0838
B( 28-C , 29-H ) :   0.9760 B( 28-C , 30-H ) :   0.9678 B( 28-C , 31-H ) :   0.9706

Dispersion correction           -0.014567630
FINAL SINGLE POINT ENERGY     -1339.883986458517

DIPOLE MOMENT
-------------
                                X             Y             Z
Electronic contribution:     13.22622     -14.23444     -11.04364
Nuclear contribution   :    -13.66221      14.40465      11.28215
                        -----------------------------------------
Total Dipole Moment    :     -0.43599       0.17021       0.23852
                        -----------------------------------------
Magnitude (a.u.)       :      0.52531
Magnitude (Debye)      :      1.33523

Rotational constants in cm-1:     0.020211     0.007725     0.007172
Rotational constants in MHz :   605.900829   231.580131   215.018127

                             ****ORCA TERMINATED NORMALLY****
TOTAL RUN TIME: 0 days 0 hours 0 minutes 20 seconds 369 msec
