                         Program Version 4.2.1 -  RELEASE  -
|  1> ! wB97X-D3 SP def2-SVP
|  2> %pal
|  3> nprocs 24
|  4> end
|  5>
|  6> * xyz 0 1
|  7> S 	 -129.416 	 67.3713 	 -35.9771
|  8> C 	 -129.534 	 66.5312 	 -37.5211
|  9> C 	 -128.476 	 65.6567 	 -37.6171
| 10> C 	 -127.451 	 65.8551 	 -36.612
| 11> C 	 -127.769 	 66.7829 	 -35.699
| 12> H 	 -126.542 	 65.2207 	 -36.6024
| 13> C 	 -128.242 	 64.7253 	 -38.7266
| 14> H 	 -129.141 	 64.1938 	 -38.9958
| 15> H 	 -127.548 	 63.9847 	 -38.355
| 16> C 	 -127.497 	 65.3226 	 -39.9649
| 17> H 	 -127.91 	 64.7987 	 -40.8466
| 18> H 	 -127.806 	 66.376 	 -40.0752
| 19> C 	 -125.954 	 64.8918 	 -39.9896
| 20> H 	 -125.779 	 63.8414 	 -40.165
| 21> H 	 -125.489 	 65.4329 	 -40.8706
| 22> H 	 -125.542 	 65.1523 	 -39.0086
| 23> S 	 -127.7 	 67.0037 	 -32.8908
| 24> C 	 -126.24 	 67.5183 	 -32.1497
| 25> C 	 -125.173 	 67.7695 	 -33.059
| 26> C 	 -125.643 	 67.5428 	 -34.4073
| 27> C 	 -126.97 	 67.1908 	 -34.5292
| 28> H 	 -124.214 	 68.1734 	 -32.6607
| 29> C 	 -124.687 	 67.6623 	 -35.5924
| 30> H 	 -124.447 	 68.7238 	 -35.5147
| 31> H 	 -125.312 	 67.4433 	 -36.5334
| 32> C 	 -123.441 	 66.7788 	 -35.4691
| 33> H 	 -123.79 	 65.7542 	 -35.1584
| 34> H 	 -122.806 	 67.1596 	 -34.653
| 35> C 	 -122.661 	 66.7458 	 -36.7988
| 36> H 	 -122.427 	 67.809 	 -37.0077
| 37> H 	 -123.225 	 66.5231 	 -37.6604
| 38> H 	 -121.829 	 66.0638 	 -36.632
| 39> H 	 -130.369 	 66.494 	 -38.1975
| 40> H 	 -126.006 	 67.5472 	 -31.0428
| 41> *
| 42>
| 43>                          ****END OF INPUT****

CARTESIAN COORDINATES (ANGSTROEM)
---------------------------------
  S    -129.416000   67.371300  -35.977100
  C    -129.534000   66.531200  -37.521100
  C    -128.476000   65.656700  -37.617100
  C    -127.451000   65.855100  -36.612000
  C    -127.769000   66.782900  -35.699000
  H    -126.542000   65.220700  -36.602400
  C    -128.242000   64.725300  -38.726600
  H    -129.141000   64.193800  -38.995800
  H    -127.548000   63.984700  -38.355000
  C    -127.497000   65.322600  -39.964900
  H    -127.910000   64.798700  -40.846600
  H    -127.806000   66.376000  -40.075200
  C    -125.954000   64.891800  -39.989600
  H    -125.779000   63.841400  -40.165000
  H    -125.489000   65.432900  -40.870600
  H    -125.542000   65.152300  -39.008600
  S    -127.700000   67.003700  -32.890800
  C    -126.240000   67.518300  -32.149700
  C    -125.173000   67.769500  -33.059000
  C    -125.643000   67.542800  -34.407300
  C    -126.970000   67.190800  -34.529200
  H    -124.214000   68.173400  -32.660700
  C    -124.687000   67.662300  -35.592400
  H    -124.447000   68.723800  -35.514700
  H    -125.312000   67.443300  -36.533400
  C    -123.441000   66.778800  -35.469100
  H    -123.790000   65.754200  -35.158400
  H    -122.806000   67.159600  -34.653000
  C    -122.661000   66.745800  -36.798800
  H    -122.427000   67.809000  -37.007700
  H    -123.225000   66.523100  -37.660400
  H    -121.829000   66.063800  -36.632000
  H    -130.369000   66.494000  -38.197500
  H    -126.006000   67.547200  -31.042800

 Total Charge           Charge          ....    0
 Multiplicity           Mult            ....    1
 Number of Electrons    NEL             ....  134
 Basis Dimension        Dim             ....  322

ORBITAL ENERGIES
----------------

  NO   OCC          E(Eh)            E(eV)
   0   2.0000     -88.967589     -2420.9312
   1   2.0000     -88.963587     -2420.8223
   2   2.0000     -10.331119      -281.1240
   3   2.0000     -10.328012      -281.0395
   4   2.0000     -10.325388      -280.9681
   5   2.0000     -10.313451      -280.6433
   6   2.0000     -10.306239      -280.4470
   7   2.0000     -10.302099      -280.3344
   8   2.0000     -10.296454      -280.1808
   9   2.0000     -10.294551      -280.1290
  10   2.0000     -10.294088      -280.1164
  11   2.0000     -10.293362      -280.0966
  12   2.0000     -10.292746      -280.0799
  13   2.0000     -10.291496      -280.0458
  14   2.0000     -10.284299      -279.8500
  15   2.0000     -10.277845      -279.6744
  16   2.0000      -8.081964      -219.9214
  17   2.0000      -8.077997      -219.8135
  18   2.0000      -6.040528      -164.3711
  19   2.0000      -6.036746      -164.2682
  20   2.0000      -6.036502      -164.2616
  21   2.0000      -6.032713      -164.1585
  22   2.0000      -6.032629      -164.1562
  23   2.0000      -6.028421      -164.0417
  24   2.0000      -1.004149       -27.3243
  25   2.0000      -0.981951       -26.7202
  26   2.0000      -0.909587       -24.7511
  27   2.0000      -0.908363       -24.7178
  28   2.0000      -0.866382       -23.5755
  29   2.0000      -0.850449       -23.1419
  30   2.0000      -0.841073       -22.8868
  31   2.0000      -0.813491       -22.1362
  32   2.0000      -0.779575       -21.2133
  33   2.0000      -0.768667       -20.9165
  34   2.0000      -0.706330       -19.2202
  35   2.0000      -0.702156       -19.1066
  36   2.0000      -0.692288       -18.8381
  37   2.0000      -0.655289       -17.8313
  38   2.0000      -0.638360       -17.3707
  39   2.0000      -0.619391       -16.8545
  40   2.0000      -0.585405       -15.9297
  41   2.0000      -0.569260       -15.4904
  42   2.0000      -0.564596       -15.3634
  43   2.0000      -0.552637       -15.0380
  44   2.0000      -0.534864       -14.5544
  45   2.0000      -0.532805       -14.4984
  46   2.0000      -0.515739       -14.0340
  47   2.0000      -0.511603       -13.9214
  48   2.0000      -0.502456       -13.6725
  49   2.0000      -0.496017       -13.4973
  50   2.0000      -0.490421       -13.3450
  51   2.0000      -0.478609       -13.0236
  52   2.0000      -0.474258       -12.9052
  53   2.0000      -0.467559       -12.7229
  54   2.0000      -0.457671       -12.4539
  55   2.0000      -0.450086       -12.2475
  56   2.0000      -0.444695       -12.1008
  57   2.0000      -0.435782       -11.8582
  58   2.0000      -0.433093       -11.7851
  59   2.0000      -0.425170       -11.5695
  60   2.0000      -0.417690       -11.3659
  61   2.0000      -0.408580       -11.1180
  62   2.0000      -0.406815       -11.0700
  63   2.0000      -0.349004        -9.4969
  64   2.0000      -0.330052        -8.9812
  65   2.0000      -0.325201        -8.8492
  66   2.0000      -0.293816        -7.9951
  67   0.0000       0.033322         0.9067
  68   0.0000       0.063488         1.7276
  69   0.0000       0.108064         2.9406
  70   0.0000       0.120503         3.2791
  71   0.0000       0.121468         3.3053

MULLIKEN ATOMIC CHARGES
-----------------------
   0 S :    0.098490
   1 C :   -0.099202
   2 C :   -0.108974
   3 C :    0.011916
   4 C :   -0.136924
   5 H :    0.028871
   6 C :    0.052706
   7 H :    0.025981
   8 H :    0.010603
   9 C :   -0.074614
  10 H :    0.026970
  11 H :    0.042532
  12 C :   -0.079387
  13 H :    0.040994
  14 H :    0.051270
  15 H :    0.038372
  16 S :    0.111882
  17 C :   -0.110526
  18 C :   -0.069661
  19 C :   -0.046982
  20 C :   -0.140757
  21 H :    0.042100
  22 C :    0.031551
  23 H :    0.038240
  24 H :    0.044464
  25 C :   -0.109884
  26 H :    0.036982
  27 H :    0.036447
  28 C :   -0.004223
  29 H :    0.022448
  30 H :    0.019920
  31 H :    0.045887
  32 H :    0.043536
  33 H :    0.078972
Sum of atomic charges:   -0.0000000

LOEWDIN ATOMIC CHARGES
----------------------
   0 S :    0.386025
   1 C :   -0.191538
   2 C :   -0.064236
   3 C :   -0.069183
   4 C :   -0.181223
   5 H :    0.037154
   6 C :   -0.039878
   7 H :    0.029147
   8 H :    0.028626
   9 C :   -0.038678
  10 H :    0.025662
  11 H :    0.026813
  12 C :   -0.067521
  13 H :    0.024693
  14 H :    0.036342
  15 H :    0.019636
  16 S :    0.399679
  17 C :   -0.199369
  18 C :   -0.086857
  19 C :   -0.050191
  20 C :   -0.194507
  21 H :    0.040823
  22 C :   -0.040253
  23 H :    0.033794
  24 H :    0.037762
  25 C :   -0.043474
  26 H :    0.025230
  27 H :    0.025712
  28 C :   -0.061965
  29 H :    0.031387
  30 H :    0.017874
  31 H :    0.029754
  32 H :    0.029356
  33 H :    0.043401

  Mayer bond orders larger than 0.100000
B(  0-S ,  1-C ) :   1.1139 B(  0-S ,  4-C ) :   1.1372 B(  1-C ,  2-C ) :   1.6290
B(  1-C , 32-H ) :   0.9723 B(  2-C ,  3-C ) :   1.2102 B(  2-C ,  6-C ) :   1.0593
B(  3-C ,  4-C ) :   1.5968 B(  3-C ,  5-H ) :   0.9882 B(  4-C , 20-C ) :   1.0198
B(  6-C ,  7-H ) :   0.9353 B(  6-C ,  8-H ) :   0.9405 B(  6-C ,  9-C ) :   1.0421
B(  9-C , 10-H ) :   0.9577 B(  9-C , 11-H ) :   0.9655 B(  9-C , 12-C ) :   1.0641
B( 12-C , 13-H ) :   0.9739 B( 12-C , 14-H ) :   0.9755 B( 12-C , 15-H ) :   0.9786
B( 16-S , 17-C ) :   1.1801 B( 16-S , 20-C ) :   1.1091 B( 17-C , 18-C ) :   1.6095
B( 17-C , 33-H ) :   0.9549 B( 18-C , 19-C ) :   1.2153 B( 18-C , 21-H ) :   0.9857
B( 19-C , 20-C ) :   1.6376 B( 19-C , 22-C ) :   1.0320 B( 22-C , 23-H ) :   0.9249
B( 22-C , 24-H ) :   0.9413 B( 22-C , 25-C ) :   1.0596 B( 25-C , 26-H ) :   0.9601
B( 25-C , 27-H ) :   0.9473 B( 25-C , 28-C ) :   1.0815 B( 28-C , 29-H ) :   0.9666
B( 28-C , 30-H ) :   0.9764 B( 28-C , 31-H ) :   0.9742

Dispersion correction           -0.014691354
FINAL SINGLE POINT ENERGY     -1339.868049731671

DIPOLE MOMENT
-------------
                                X             Y             Z
Electronic contribution:    -22.04401       8.13414      22.23312
Nuclear contribution   :     22.60770      -8.47208     -22.63261
                        -----------------------------------------
Total Dipole Moment    :      0.56369      -0.33794      -0.39949
                        -----------------------------------------
Magnitude (a.u.)       :      0.76911
Magnitude (Debye)      :      1.95493

Rotational constants in cm-1:     0.016470     0.010348     0.006761
Rotational constants in MHz :   493.746203   310.216442   202.676990

                             ****ORCA TERMINATED NORMALLY****
TOTAL RUN TIME: 0 days 0 hours 0 minutes 22 seconds 246 msec
