                         Program Version 4.2.1 -  RELEASE  -
|  1> ! wB97X-D3 SP def2-SVP
|  2> %pal
|  3> nprocs 24
|  4> end
|  5>
|  6> * xyz 0 1
|  7> S 	 -43.7972 	 14.458 	 25.058
|  8> C 	 -44.5374 	 16.0113 	 25.0539
|  9> C 	 -44.473 	 16.7482 	 23.9024
| 10> C 	 -43.7562 	 15.9218 	 22.8992
| 11> C 	 -43.3071 	 14.7153 	 23.4041
| 12> H 	 -43.5951 	 16.1174 	 21.9057
| 13> C 	 -44.9213 	 18.2605 	 23.7499
| 14> H 	 -44.0958 	 18.8808 	 23.6176
| 15> H 	 -45.5489 	 18.4855 	 24.6196
| 16> C 	 -45.9012 	 18.469 	 22.6609
| 17> H 	 -45.4761 	 17.93 	 21.842
| 18> H 	 -46.8841 	 18.1274 	 22.8879
| 19> C 	 -46.0918 	 20.0119 	 22.2561
| 20> H 	 -45.1201 	 20.3551 	 21.8541
| 21> H 	 -46.8682 	 20.1055 	 21.5371
| 22> H 	 -46.234 	 20.4887 	 23.2152
| 23> S 	 -43.162 	 11.9829 	 22.9715
| 24> C 	 -42.0218 	 11.3103 	 21.8565
| 25> C 	 -41.2949 	 12.3152 	 21.2159
| 26> C 	 -41.5736 	 13.6431 	 21.8142
| 27> C 	 -42.6173 	 13.6691 	 22.6794
| 28> H 	 -40.5749 	 12.1208 	 20.4757
| 29> C 	 -40.9037 	 14.8743 	 21.2016
| 30> H 	 -39.8249 	 14.7179 	 21.2728
| 31> H 	 -40.9605 	 15.7276 	 21.9283
| 32> C 	 -41.308 	 15.2859 	 19.7767
| 33> H 	 -42.1612 	 15.9426 	 19.8569
| 34> H 	 -41.6774 	 14.4147 	 19.2275
| 35> C 	 -40.1753 	 16.1853 	 19.1313
| 36> H 	 -39.1482 	 15.7293 	 19.203
| 37> H 	 -40.2034 	 17.1518 	 19.7149
| 38> H 	 -40.2758 	 16.5368 	 18.1609
| 39> H 	 -45.1406 	 16.4454 	 25.8952
| 40> H 	 -41.9978 	 10.2434 	 21.6567
| 41> *
| 42>
| 43>                          ****END OF INPUT****

CARTESIAN COORDINATES (ANGSTROEM)
---------------------------------
  S    -43.797200   14.458000   25.058000
  C    -44.537400   16.011300   25.053900
  C    -44.473000   16.748200   23.902400
  C    -43.756200   15.921800   22.899200
  C    -43.307100   14.715300   23.404100
  H    -43.595100   16.117400   21.905700
  C    -44.921300   18.260500   23.749900
  H    -44.095800   18.880800   23.617600
  H    -45.548900   18.485500   24.619600
  C    -45.901200   18.469000   22.660900
  H    -45.476100   17.930000   21.842000
  H    -46.884100   18.127400   22.887900
  C    -46.091800   20.011900   22.256100
  H    -45.120100   20.355100   21.854100
  H    -46.868200   20.105500   21.537100
  H    -46.234000   20.488700   23.215200
  S    -43.162000   11.982900   22.971500
  C    -42.021800   11.310300   21.856500
  C    -41.294900   12.315200   21.215900
  C    -41.573600   13.643100   21.814200
  C    -42.617300   13.669100   22.679400
  H    -40.574900   12.120800   20.475700
  C    -40.903700   14.874300   21.201600
  H    -39.824900   14.717900   21.272800
  H    -40.960500   15.727600   21.928300
  C    -41.308000   15.285900   19.776700
  H    -42.161200   15.942600   19.856900
  H    -41.677400   14.414700   19.227500
  C    -40.175300   16.185300   19.131300
  H    -39.148200   15.729300   19.203000
  H    -40.203400   17.151800   19.714900
  H    -40.275800   16.536800   18.160900
  H    -45.140600   16.445400   25.895200
  H    -41.997800   10.243400   21.656700

 Total Charge           Charge          ....    0
 Multiplicity           Mult            ....    1
 Number of Electrons    NEL             ....  134
 Basis Dimension        Dim             ....  322

ORBITAL ENERGIES
----------------

  NO   OCC          E(Eh)            E(eV)
   0   2.0000     -88.969166     -2420.9741
   1   2.0000     -88.960295     -2420.7327
   2   2.0000     -10.329092      -281.0689
   3   2.0000     -10.327059      -281.0136
   4   2.0000     -10.321593      -280.8648
   5   2.0000     -10.314627      -280.6753
   6   2.0000     -10.308735      -280.5149
   7   2.0000     -10.305860      -280.4367
   8   2.0000     -10.297691      -280.2144
   9   2.0000     -10.295659      -280.1591
  10   2.0000     -10.294513      -280.1279
  11   2.0000     -10.294224      -280.1201
  12   2.0000     -10.293194      -280.0920
  13   2.0000     -10.286478      -279.9093
  14   2.0000     -10.282477      -279.8004
  15   2.0000     -10.279684      -279.7244
  16   2.0000      -8.084557      -219.9920
  17   2.0000      -8.075234      -219.7383
  18   2.0000      -6.043049      -164.4397
  19   2.0000      -6.039145      -164.3335
  20   2.0000      -6.035110      -164.2237
  21   2.0000      -6.033876      -164.1901
  22   2.0000      -6.029678      -164.0759
  23   2.0000      -6.025871      -163.9723
  24   2.0000      -1.006767       -27.3955
  25   2.0000      -0.981250       -26.7012
  26   2.0000      -0.917348       -24.9623
  27   2.0000      -0.904294       -24.6071
  28   2.0000      -0.871467       -23.7138
  29   2.0000      -0.849934       -23.1279
  30   2.0000      -0.840533       -22.8721
  31   2.0000      -0.813466       -22.1355
  32   2.0000      -0.784054       -21.3352
  33   2.0000      -0.774204       -21.0672
  34   2.0000      -0.710915       -19.3450
  35   2.0000      -0.700875       -19.0718
  36   2.0000      -0.688763       -18.7422
  37   2.0000      -0.669108       -18.2073
  38   2.0000      -0.643106       -17.4998
  39   2.0000      -0.621275       -16.9057
  40   2.0000      -0.597411       -16.2564
  41   2.0000      -0.582976       -15.8636
  42   2.0000      -0.565829       -15.3970
  43   2.0000      -0.554560       -15.0903
  44   2.0000      -0.532915       -14.5014
  45   2.0000      -0.523332       -14.2406
  46   2.0000      -0.517923       -14.0934
  47   2.0000      -0.512159       -13.9366
  48   2.0000      -0.507213       -13.8020
  49   2.0000      -0.499803       -13.6003
  50   2.0000      -0.490263       -13.3407
  51   2.0000      -0.476080       -12.9548
  52   2.0000      -0.471611       -12.8332
  53   2.0000      -0.462511       -12.5856
  54   2.0000      -0.457771       -12.4566
  55   2.0000      -0.454315       -12.3625
  56   2.0000      -0.449876       -12.2418
  57   2.0000      -0.445124       -12.1124
  58   2.0000      -0.439506       -11.9596
  59   2.0000      -0.421568       -11.4714
  60   2.0000      -0.416117       -11.3231
  61   2.0000      -0.411354       -11.1935
  62   2.0000      -0.410887       -11.1808
  63   2.0000      -0.353985        -9.6324
  64   2.0000      -0.332907        -9.0589
  65   2.0000      -0.326411        -8.8821
  66   2.0000      -0.295052        -8.0288
  67   0.0000       0.032116         0.8739
  68   0.0000       0.075681         2.0594
  69   0.0000       0.106729         2.9042
  70   0.0000       0.114347         3.1115
  71   0.0000       0.132162         3.5963

MULLIKEN ATOMIC CHARGES
-----------------------
   0 S :    0.129181
   1 C :   -0.129863
   2 C :   -0.090470
   3 C :    0.048564
   4 C :   -0.140679
   5 H :   -0.034650
   6 C :    0.121308
   7 H :    0.028349
   8 H :    0.016618
   9 C :   -0.115730
  10 H :    0.020623
  11 H :    0.028190
  12 C :   -0.034613
  13 H :    0.029333
  14 H :    0.043018
  15 H :    0.029133
  16 S :    0.078568
  17 C :   -0.087984
  18 C :   -0.009064
  19 C :   -0.062685
  20 C :   -0.124353
  21 H :    0.009212
  22 C :    0.012488
  23 H :    0.019447
  24 H :    0.027906
  25 C :   -0.036206
  26 H :    0.027320
  27 H :    0.038401
  28 C :   -0.067211
  29 H :    0.044285
  30 H :    0.033937
  31 H :    0.022654
  32 H :    0.056705
  33 H :    0.068266
Sum of atomic charges:   -0.0000000

LOEWDIN ATOMIC CHARGES
----------------------
   0 S :    0.417277
   1 C :   -0.209100
   2 C :   -0.058752
   3 C :   -0.046966
   4 C :   -0.192097
   5 H :    0.012124
   6 C :   -0.017471
   7 H :    0.023821
   8 H :    0.033202
   9 C :   -0.037353
  10 H :    0.014443
  11 H :    0.019195
  12 C :   -0.054760
  13 H :    0.024799
  14 H :    0.022661
  15 H :    0.022849
  16 S :    0.379585
  17 C :   -0.180484
  18 C :   -0.064968
  19 C :   -0.056653
  20 C :   -0.182598
  21 H :    0.022861
  22 C :   -0.043131
  23 H :    0.028665
  24 H :    0.033494
  25 C :   -0.036713
  26 H :    0.022048
  27 H :    0.025164
  28 C :   -0.067372
  29 H :    0.029833
  30 H :    0.034519
  31 H :    0.013956
  32 H :    0.036330
  33 H :    0.031592

  Mayer bond orders larger than 0.100000
B(  0-S ,  1-C ) :   1.1355 B(  0-S ,  4-C ) :   1.1312 B(  1-C ,  2-C ) :   1.6823
B(  1-C , 32-H ) :   0.9489 B(  2-C ,  3-C ) :   1.1828 B(  2-C ,  6-C ) :   1.0114
B(  3-C ,  4-C ) :   1.6094 B(  3-C ,  5-H ) :   1.0079 B(  4-C , 20-C ) :   1.0522
B(  6-C ,  7-H ) :   0.9481 B(  6-C ,  8-H ) :   0.9361 B(  6-C ,  9-C ) :   1.0597
B(  9-C , 10-H ) :   0.9643 B(  9-C , 11-H ) :   0.9602 B(  9-C , 12-C ) :   1.0715
B( 12-C , 13-H ) :   0.9786 B( 12-C , 14-H ) :   0.9777 B( 12-C , 15-H ) :   0.9761
B( 16-S , 17-C ) :   1.1565 B( 16-S , 20-C ) :   1.1032 B( 17-C , 18-C ) :   1.6122
B( 17-C , 33-H ) :   0.9689 B( 18-C , 19-C ) :   1.1965 B( 18-C , 21-H ) :   0.9988
B( 19-C , 20-C ) :   1.6515 B( 19-C , 22-C ) :   1.0616 B( 22-C , 23-H ) :   0.9374
B( 22-C , 24-H ) :   0.9317 B( 22-C , 25-C ) :   1.0367 B( 25-C , 26-H ) :   0.9552
B( 25-C , 27-H ) :   0.9631 B( 25-C , 28-C ) :   1.0572 B( 28-C , 29-H ) :   0.9802
B( 28-C , 30-H ) :   0.9758 B( 28-C , 31-H ) :   0.9778

Dispersion correction           -0.013567766
FINAL SINGLE POINT ENERGY     -1339.860491972517

DIPOLE MOMENT
-------------
                                X             Y             Z
Electronic contribution:     -1.19633     -26.94952      17.45063
Nuclear contribution   :      1.25141      27.47687     -17.91139
                        -----------------------------------------
Total Dipole Moment    :      0.05508       0.52735      -0.46075
                        -----------------------------------------
Magnitude (a.u.)       :      0.70244
Magnitude (Debye)      :      1.78547

Rotational constants in cm-1:     0.016517     0.008769     0.006179
Rotational constants in MHz :   495.166430   262.889950   185.238147

                             ****ORCA TERMINATED NORMALLY****
TOTAL RUN TIME: 0 days 0 hours 0 minutes 20 seconds 931 msec
