                         Program Version 4.2.1 -  RELEASE  -
|  1> ! wB97X-D3 SP def2-SVP
|  2> %pal
|  3> nprocs 24
|  4> end
|  5>
|  6> * xyz 0 1
|  7> S 	 -57.9026 	 15.4218 	 -88.4602
|  8> C 	 -58.6743 	 16.2292 	 -89.8293
|  9> C 	 -58.1225 	 17.4347 	 -90.0676
| 10> C 	 -57.0512 	 17.7464 	 -89.1951
| 11> C 	 -56.7929 	 16.8068 	 -88.2478
| 12> H 	 -56.6024 	 18.7287 	 -89.2293
| 13> C 	 -58.3997 	 18.3111 	 -91.2952
| 14> H 	 -59.2327 	 18.9477 	 -91.0034
| 15> H 	 -58.8821 	 17.6998 	 -91.9746
| 16> C 	 -57.3128 	 19.1911 	 -91.941
| 17> H 	 -57.1163 	 20.0755 	 -91.2751
| 18> H 	 -56.4698 	 18.5315 	 -92.1856
| 19> C 	 -57.7947 	 19.5631 	 -93.3664
| 20> H 	 -58.6552 	 20.1885 	 -93.3831
| 21> H 	 -56.9929 	 19.9028 	 -94.0292
| 22> H 	 -58.2508 	 18.6704 	 -93.8482
| 23> S 	 -56.7777 	 16.539 	 -85.4709
| 24> C 	 -55.3218 	 17.0165 	 -84.6498
| 25> C 	 -54.1817 	 16.9684 	 -85.4552
| 26> C 	 -54.554 	 17.0683 	 -86.8307
| 27> C 	 -55.9634 	 16.9282 	 -87.0439
| 28> H 	 -53.1701 	 17.0884 	 -84.9699
| 29> C 	 -53.4496 	 17.2443 	 -87.8527
| 30> H 	 -53.7181 	 18.1593 	 -88.3968
| 31> H 	 -53.7415 	 16.5168 	 -88.6475
| 32> C 	 -51.9369 	 17.1471 	 -87.4583
| 33> H 	 -51.6738 	 16.1204 	 -87.1595
| 34> H 	 -51.6719 	 17.8394 	 -86.6618
| 35> C 	 -50.9299 	 17.5004 	 -88.569
| 36> H 	 -49.918 	 17.2046 	 -88.3262
| 37> H 	 -50.9243 	 18.6006 	 -88.7256
| 38> H 	 -51.2177 	 16.9701 	 -89.3865
| 39> H 	 -59.4533 	 15.6773 	 -90.3983
| 40> H 	 -55.2857 	 17.2188 	 -83.5968
| 41> *
| 42>
| 43>                          ****END OF INPUT****

CARTESIAN COORDINATES (ANGSTROEM)
---------------------------------
  S    -57.902600   15.421800  -88.460200
  C    -58.674300   16.229200  -89.829300
  C    -58.122500   17.434700  -90.067600
  C    -57.051200   17.746400  -89.195100
  C    -56.792900   16.806800  -88.247800
  H    -56.602400   18.728700  -89.229300
  C    -58.399700   18.311100  -91.295200
  H    -59.232700   18.947700  -91.003400
  H    -58.882100   17.699800  -91.974600
  C    -57.312800   19.191100  -91.941000
  H    -57.116300   20.075500  -91.275100
  H    -56.469800   18.531500  -92.185600
  C    -57.794700   19.563100  -93.366400
  H    -58.655200   20.188500  -93.383100
  H    -56.992900   19.902800  -94.029200
  H    -58.250800   18.670400  -93.848200
  S    -56.777700   16.539000  -85.470900
  C    -55.321800   17.016500  -84.649800
  C    -54.181700   16.968400  -85.455200
  C    -54.554000   17.068300  -86.830700
  C    -55.963400   16.928200  -87.043900
  H    -53.170100   17.088400  -84.969900
  C    -53.449600   17.244300  -87.852700
  H    -53.718100   18.159300  -88.396800
  H    -53.741500   16.516800  -88.647500
  C    -51.936900   17.147100  -87.458300
  H    -51.673800   16.120400  -87.159500
  H    -51.671900   17.839400  -86.661800
  C    -50.929900   17.500400  -88.569000
  H    -49.918000   17.204600  -88.326200
  H    -50.924300   18.600600  -88.725600
  H    -51.217700   16.970100  -89.386500
  H    -59.453300   15.677300  -90.398300
  H    -55.285700   17.218800  -83.596800

 Total Charge           Charge          ....    0
 Multiplicity           Mult            ....    1
 Number of Electrons    NEL             ....  134
 Basis Dimension        Dim             ....  322

ORBITAL ENERGIES
----------------

  NO   OCC          E(Eh)            E(eV)
   0   2.0000     -88.964801     -2420.8553
   1   2.0000     -88.960253     -2420.7316
   2   2.0000     -10.330621      -281.1105
   3   2.0000     -10.329312      -281.0749
   4   2.0000     -10.316114      -280.7157
   5   2.0000     -10.313209      -280.6367
   6   2.0000     -10.311946      -280.6023
   7   2.0000     -10.298158      -280.2271
   8   2.0000     -10.298018      -280.2233
   9   2.0000     -10.297146      -280.1996
  10   2.0000     -10.294777      -280.1351
  11   2.0000     -10.294583      -280.1298
  12   2.0000     -10.286404      -279.9073
  13   2.0000     -10.284658      -279.8598
  14   2.0000     -10.281097      -279.7629
  15   2.0000     -10.274468      -279.5825
  16   2.0000      -8.078765      -219.8344
  17   2.0000      -8.074583      -219.7206
  18   2.0000      -6.037263      -164.2823
  19   2.0000      -6.033634      -164.1835
  20   2.0000      -6.033203      -164.1718
  21   2.0000      -6.029333      -164.0665
  22   2.0000      -6.029243      -164.0641
  23   2.0000      -6.025152      -163.9527
  24   2.0000      -0.999452       -27.1965
  25   2.0000      -0.978459       -26.6252
  26   2.0000      -0.910999       -24.7895
  27   2.0000      -0.905043       -24.6275
  28   2.0000      -0.866357       -23.5748
  29   2.0000      -0.854782       -23.2598
  30   2.0000      -0.842970       -22.9384
  31   2.0000      -0.812445       -22.1077
  32   2.0000      -0.781865       -21.2756
  33   2.0000      -0.767821       -20.8935
  34   2.0000      -0.712499       -19.3881
  35   2.0000      -0.703800       -19.1514
  36   2.0000      -0.690222       -18.7819
  37   2.0000      -0.646412       -17.5898
  38   2.0000      -0.638667       -17.3790
  39   2.0000      -0.622687       -16.9442
  40   2.0000      -0.593050       -16.1377
  41   2.0000      -0.574860       -15.6427
  42   2.0000      -0.570493       -15.5239
  43   2.0000      -0.556603       -15.1459
  44   2.0000      -0.532413       -14.4877
  45   2.0000      -0.526129       -14.3167
  46   2.0000      -0.514695       -14.0056
  47   2.0000      -0.507729       -13.8160
  48   2.0000      -0.504605       -13.7310
  49   2.0000      -0.491803       -13.3826
  50   2.0000      -0.484203       -13.1758
  51   2.0000      -0.475740       -12.9455
  52   2.0000      -0.465111       -12.6563
  53   2.0000      -0.463936       -12.6243
  54   2.0000      -0.458162       -12.4672
  55   2.0000      -0.449304       -12.2262
  56   2.0000      -0.447515       -12.1775
  57   2.0000      -0.434366       -11.8197
  58   2.0000      -0.433504       -11.7962
  59   2.0000      -0.431739       -11.7482
  60   2.0000      -0.423337       -11.5196
  61   2.0000      -0.418003       -11.3744
  62   2.0000      -0.412039       -11.2122
  63   2.0000      -0.345530        -9.4023
  64   2.0000      -0.326865        -8.8944
  65   2.0000      -0.325833        -8.8664
  66   2.0000      -0.282191        -7.6788
  67   0.0000       0.029563         0.8045
  68   0.0000       0.055818         1.5189
  69   0.0000       0.108852         2.9620
  70   0.0000       0.128103         3.4859
  71   0.0000       0.136806         3.7227

MULLIKEN ATOMIC CHARGES
-----------------------
   0 S :    0.080857
   1 C :   -0.168639
   2 C :   -0.052155
   3 C :    0.017637
   4 C :   -0.134439
   5 H :    0.008627
   6 C :    0.072644
   7 H :    0.027186
   8 H :   -0.016698
   9 C :   -0.066366
  10 H :    0.057474
  11 H :    0.042661
  12 C :   -0.052026
  13 H :    0.018721
  14 H :    0.045965
  15 H :    0.021285
  16 S :    0.106101
  17 C :   -0.091573
  18 C :   -0.062553
  19 C :   -0.044763
  20 C :   -0.151104
  21 H :    0.049395
  22 C :    0.056053
  23 H :    0.028610
  24 H :    0.036764
  25 C :   -0.087407
  26 H :    0.039143
  27 H :    0.035953
  28 C :   -0.009121
  29 H :    0.029664
  30 H :    0.036598
  31 H :    0.011512
  32 H :    0.061714
  33 H :    0.052281
Sum of atomic charges:    0.0000000

LOEWDIN ATOMIC CHARGES
----------------------
   0 S :    0.368519
   1 C :   -0.193734
   2 C :   -0.066592
   3 C :   -0.067553
   4 C :   -0.178314
   5 H :    0.031145
   6 C :   -0.033354
   7 H :    0.035311
   8 H :    0.016399
   9 C :   -0.040363
  10 H :    0.033281
  11 H :    0.031973
  12 C :   -0.066761
  13 H :    0.018033
  14 H :    0.028347
  15 H :    0.029584
  16 S :    0.387853
  17 C :   -0.174944
  18 C :   -0.083478
  19 C :   -0.042240
  20 C :   -0.195524
  21 H :    0.044046
  22 C :   -0.045322
  23 H :    0.037057
  24 H :    0.042058
  25 C :   -0.039372
  26 H :    0.028450
  27 H :    0.022971
  28 C :   -0.050936
  29 H :    0.027374
  30 H :    0.029194
  31 H :    0.010000
  32 H :    0.034035
  33 H :    0.022858

  Mayer bond orders larger than 0.100000
B(  0-S ,  1-C ) :   1.1161 B(  0-S ,  4-C ) :   1.1321 B(  1-C ,  2-C ) :   1.6411
B(  1-C , 32-H ) :   0.9643 B(  2-C ,  3-C ) :   1.2453 B(  2-C ,  6-C ) :   1.0003
B(  3-C ,  4-C ) :   1.5923 B(  3-C ,  5-H ) :   0.9922 B(  4-C , 20-C ) :   1.0535
B(  6-C ,  7-H ) :   0.9184 B(  6-C ,  8-H ) :   0.9438 B(  6-C ,  9-C ) :   1.0722
B(  9-C , 10-H ) :   0.9456 B(  9-C , 11-H ) :   0.9587 B(  9-C , 12-C ) :   1.0759
B( 12-C , 13-H ) :   0.9749 B( 12-C , 14-H ) :   0.9758 B( 12-C , 15-H ) :   0.9721
B( 16-S , 17-C ) :   1.1781 B( 16-S , 20-C ) :   1.1154 B( 17-C , 18-C ) :   1.5868
B( 17-C , 20-C ) :   0.1080 B( 17-C , 33-H ) :   0.9670 B( 18-C , 19-C ) :   1.2591
B( 18-C , 21-H ) :   0.9749 B( 19-C , 20-C ) :   1.5684 B( 19-C , 22-C ) :   1.0298
B( 22-C , 23-H ) :   0.9297 B( 22-C , 24-H ) :   0.9203 B( 22-C , 25-C ) :   1.0644
B( 25-C , 26-H ) :   0.9533 B( 25-C , 27-H ) :   0.9538 B( 25-C , 28-C ) :   1.0861
B( 28-C , 29-H ) :   0.9730 B( 28-C , 30-H ) :   0.9771 B( 28-C , 31-H ) :   0.9759

Dispersion correction           -0.013030031
FINAL SINGLE POINT ENERGY     -1339.848014593668

DIPOLE MOMENT
-------------
                                X             Y             Z
Electronic contribution:    -15.64171     -14.04725      21.60255
Nuclear contribution   :     16.09243      14.46688     -22.01979
                        -----------------------------------------
Total Dipole Moment    :      0.45072       0.41964      -0.41723
                        -----------------------------------------
Magnitude (a.u.)       :      0.74386
Magnitude (Debye)      :      1.89074

Rotational constants in cm-1:     0.016041     0.008167     0.005949
Rotational constants in MHz :   480.906579   244.832745   178.359788

                             ****ORCA TERMINATED NORMALLY****
TOTAL RUN TIME: 0 days 0 hours 0 minutes 20 seconds 715 msec
