                         Program Version 4.2.1 -  RELEASE  -
|  1> ! wB97X-D3 SP def2-SVP
|  2> %pal
|  3> nprocs 24
|  4> end
|  5>
|  6> * xyz 0 1
|  7> S 	 -137.902 	 12.7549 	 -2.9907
|  8> C 	 -139.018 	 11.417 	 -2.80949
|  9> C 	 -138.709 	 10.6921 	 -1.65559
| 10> C 	 -137.589 	 11.2253 	 -0.934352
| 11> C 	 -137.093 	 12.3855 	 -1.46241
| 12> H 	 -137.211 	 10.8686 	 -0.00963017
| 13> C 	 -139.417 	 9.47025 	 -1.12661
| 14> H 	 -140.501 	 9.71426 	 -1.12945
| 15> H 	 -139.124 	 9.23801 	 -0.0298229
| 16> C 	 -139.143 	 8.16994 	 -1.93309
| 17> H 	 -139.725 	 8.25713 	 -2.86197
| 18> H 	 -138.125 	 8.13737 	 -2.29792
| 19> C 	 -139.549 	 6.93692 	 -1.06239
| 20> H 	 -140.527 	 7.06858 	 -0.628542
| 21> H 	 -139.527 	 5.99644 	 -1.61566
| 22> H 	 -138.926 	 6.73257 	 -0.250113
| 23> S 	 -136.496 	 14.9128 	 -0.432825
| 24> C 	 -135.071 	 15.035 	 0.580567
| 25> C 	 -134.227 	 14.0065 	 0.334405
| 26> C 	 -134.823 	 12.9451 	 -0.467209
| 27> C 	 -136.075 	 13.2583 	 -0.960517
| 28> H 	 -133.252 	 14.057 	 0.773187
| 29> C 	 -134.22 	 11.6043 	 -0.581314
| 30> H 	 -133.471 	 11.7162 	 -1.31935
| 31> H 	 -135.072 	 11.0078 	 -0.969952
| 32> C 	 -133.629 	 10.9682 	 0.699902
| 33> H 	 -134.416 	 10.8193 	 1.48493
| 34> H 	 -132.965 	 11.6521 	 1.224
| 35> C 	 -132.915 	 9.6146 	 0.396055
| 36> H 	 -132.128 	 9.71977 	 -0.263649
| 37> H 	 -133.564 	 8.93787 	 -0.0903813
| 38> H 	 -132.552 	 9.27136 	 1.30256
| 39> H 	 -139.969 	 11.342 	 -3.41496
| 40> H 	 -134.751 	 15.8105 	 1.25267
| 41> *
| 42>
| 43>                          ****END OF INPUT****

CARTESIAN COORDINATES (ANGSTROEM)
---------------------------------
  S    -137.902000   12.754900   -2.990700
  C    -139.018000   11.417000   -2.809490
  C    -138.709000   10.692100   -1.655590
  C    -137.589000   11.225300   -0.934352
  C    -137.093000   12.385500   -1.462410
  H    -137.211000   10.868600   -0.009630
  C    -139.417000    9.470250   -1.126610
  H    -140.501000    9.714260   -1.129450
  H    -139.124000    9.238010   -0.029823
  C    -139.143000    8.169940   -1.933090
  H    -139.725000    8.257130   -2.861970
  H    -138.125000    8.137370   -2.297920
  C    -139.549000    6.936920   -1.062390
  H    -140.527000    7.068580   -0.628542
  H    -139.527000    5.996440   -1.615660
  H    -138.926000    6.732570   -0.250113
  S    -136.496000   14.912800   -0.432825
  C    -135.071000   15.035000    0.580567
  C    -134.227000   14.006500    0.334405
  C    -134.823000   12.945100   -0.467209
  C    -136.075000   13.258300   -0.960517
  H    -133.252000   14.057000    0.773187
  C    -134.220000   11.604300   -0.581314
  H    -133.471000   11.716200   -1.319350
  H    -135.072000   11.007800   -0.969952
  C    -133.629000   10.968200    0.699902
  H    -134.416000   10.819300    1.484930
  H    -132.965000   11.652100    1.224000
  C    -132.915000    9.614600    0.396055
  H    -132.128000    9.719770   -0.263649
  H    -133.564000    8.937870   -0.090381
  H    -132.552000    9.271360    1.302560
  H    -139.969000   11.342000   -3.414960
  H    -134.751000   15.810500    1.252670

 Total Charge           Charge          ....    0
 Multiplicity           Mult            ....    1
 Number of Electrons    NEL             ....  134
 Basis Dimension        Dim             ....  322

ORBITAL ENERGIES
----------------

  NO   OCC          E(Eh)            E(eV)
   0   2.0000     -88.962855     -2420.8023
   1   2.0000     -88.961564     -2420.7672
   2   2.0000     -10.328070      -281.0411
   3   2.0000     -10.323253      -280.9100
   4   2.0000     -10.319940      -280.8199
   5   2.0000     -10.317039      -280.7409
   6   2.0000     -10.303935      -280.3843
   7   2.0000     -10.303562      -280.3742
   8   2.0000     -10.299661      -280.2680
   9   2.0000     -10.292684      -280.0782
  10   2.0000     -10.291876      -280.0562
  11   2.0000     -10.290975      -280.0317
  12   2.0000     -10.290054      -280.0066
  13   2.0000     -10.284528      -279.8562
  14   2.0000     -10.275379      -279.6073
  15   2.0000     -10.266256      -279.3590
  16   2.0000      -8.077497      -219.7999
  17   2.0000      -8.075929      -219.7572
  18   2.0000      -6.036022      -164.2485
  19   2.0000      -6.034696      -164.2124
  20   2.0000      -6.031931      -164.1372
  21   2.0000      -6.030494      -164.0981
  22   2.0000      -6.028343      -164.0396
  23   2.0000      -6.026387      -163.9863
  24   2.0000      -1.005795       -27.3691
  25   2.0000      -0.982014       -26.7219
  26   2.0000      -0.909565       -24.7505
  27   2.0000      -0.906792       -24.6751
  28   2.0000      -0.873404       -23.7665
  29   2.0000      -0.851619       -23.1737
  30   2.0000      -0.845351       -23.0032
  31   2.0000      -0.818428       -22.2706
  32   2.0000      -0.782192       -21.2845
  33   2.0000      -0.768784       -20.9197
  34   2.0000      -0.711969       -19.3737
  35   2.0000      -0.705865       -19.2076
  36   2.0000      -0.701921       -19.1003
  37   2.0000      -0.657041       -17.8790
  38   2.0000      -0.641726       -17.4623
  39   2.0000      -0.619140       -16.8476
  40   2.0000      -0.592238       -16.1156
  41   2.0000      -0.569349       -15.4928
  42   2.0000      -0.563905       -15.3446
  43   2.0000      -0.554422       -15.0866
  44   2.0000      -0.537381       -14.6229
  45   2.0000      -0.526899       -14.3377
  46   2.0000      -0.520255       -14.1569
  47   2.0000      -0.516896       -14.0655
  48   2.0000      -0.505140       -13.7456
  49   2.0000      -0.499164       -13.5830
  50   2.0000      -0.494191       -13.4476
  51   2.0000      -0.477517       -12.9939
  52   2.0000      -0.473612       -12.8876
  53   2.0000      -0.464222       -12.6321
  54   2.0000      -0.457515       -12.4496
  55   2.0000      -0.449010       -12.2182
  56   2.0000      -0.446421       -12.1477
  57   2.0000      -0.441157       -12.0045
  58   2.0000      -0.438598       -11.9348
  59   2.0000      -0.421756       -11.4766
  60   2.0000      -0.419478       -11.4146
  61   2.0000      -0.416071       -11.3219
  62   2.0000      -0.412207       -11.2167
  63   2.0000      -0.345817        -9.4102
  64   2.0000      -0.328573        -8.9409
  65   2.0000      -0.323464        -8.8019
  66   2.0000      -0.296536        -8.0692
  67   0.0000       0.031895         0.8679
  68   0.0000       0.062778         1.7083
  69   0.0000       0.117974         3.2102
  70   0.0000       0.121692         3.3114
  71   0.0000       0.126175         3.4334

MULLIKEN ATOMIC CHARGES
-----------------------
   0 S :    0.100966
   1 C :   -0.145200
   2 C :   -0.079829
   3 C :    0.053349
   4 C :   -0.180977
   5 H :    0.001813
   6 C :   -0.005127
   7 H :    0.043494
   8 H :    0.037102
   9 C :   -0.052471
  10 H :    0.028623
  11 H :    0.032088
  12 C :   -0.033954
  13 H :    0.027322
  14 H :    0.031377
  15 H :    0.020128
  16 S :    0.098202
  17 C :   -0.079330
  18 C :   -0.035458
  19 C :   -0.046457
  20 C :   -0.123974
  21 H :    0.015545
  22 C :    0.089250
  23 H :    0.024905
  24 H :    0.028927
  25 C :   -0.117980
  26 H :    0.029830
  27 H :    0.022640
  28 C :    0.040982
  29 H :    0.007373
  30 H :    0.018849
  31 H :    0.018218
  32 H :    0.077589
  33 H :    0.052184
Sum of atomic charges:    0.0000000

LOEWDIN ATOMIC CHARGES
----------------------
   0 S :    0.396136
   1 C :   -0.212425
   2 C :   -0.063736
   3 C :   -0.058526
   4 C :   -0.183691
   5 H :    0.027311
   6 C :   -0.040793
   7 H :    0.034920
   8 H :    0.035644
   9 C :   -0.036096
  10 H :    0.024984
  11 H :    0.023234
  12 C :   -0.064142
  13 H :    0.025317
  14 H :    0.028162
  15 H :    0.017433
  16 S :    0.382043
  17 C :   -0.170726
  18 C :   -0.075554
  19 C :   -0.041385
  20 C :   -0.205063
  21 H :    0.028464
  22 C :   -0.037396
  23 H :    0.030825
  24 H :    0.037256
  25 C :   -0.036515
  26 H :    0.026546
  27 H :    0.018227
  28 C :   -0.044727
  29 H :    0.016130
  30 H :    0.022672
  31 H :    0.019407
  32 H :    0.042704
  33 H :    0.033358

  Mayer bond orders larger than 0.100000
B(  0-S ,  1-C ) :   1.1366 B(  0-S ,  4-C ) :   1.1490 B(  1-C ,  2-C ) :   1.5989
B(  1-C , 32-H ) :   0.9622 B(  2-C ,  3-C ) :   1.2428 B(  2-C ,  6-C ) :   1.0226
B(  3-C ,  4-C ) :   1.5785 B(  3-C ,  5-H ) :   0.9973 B(  4-C , 20-C ) :   1.0286
B(  6-C ,  7-H ) :   0.9365 B(  6-C ,  8-H ) :   0.9548 B(  6-C ,  9-C ) :   1.0458
B(  9-C , 10-H ) :   0.9547 B(  9-C , 11-H ) :   0.9622 B(  9-C , 12-C ) :   1.0725
B( 12-C , 13-H ) :   0.9741 B( 12-C , 14-H ) :   0.9741 B( 12-C , 15-H ) :   0.9761
B( 16-S , 17-C ) :   1.1447 B( 16-S , 20-C ) :   1.0982 B( 17-C , 18-C ) :   1.6588
B( 17-C , 33-H ) :   0.9636 B( 18-C , 19-C ) :   1.1834 B( 18-C , 21-H ) :   0.9919
B( 19-C , 20-C ) :   1.6241 B( 19-C , 22-C ) :   1.0538 B( 22-C , 23-H ) :   0.9165
B( 22-C , 24-H ) :   0.9296 B( 22-C , 25-C ) :   1.0644 B( 25-C , 26-H ) :   0.9565
B( 25-C , 27-H ) :   0.9527 B( 25-C , 28-C ) :   1.0817 B( 28-C , 29-H ) :   0.9731
B( 28-C , 30-H ) :   0.9745 B( 28-C , 31-H ) :   0.9723

Dispersion correction           -0.013842110
FINAL SINGLE POINT ENERGY     -1339.871076073215

DIPOLE MOMENT
-------------
                                X             Y             Z
Electronic contribution:     -4.20862      30.16296      -8.15978
Nuclear contribution   :      4.47772     -30.75155       8.64188
                        -----------------------------------------
Total Dipole Moment    :      0.26910      -0.58859       0.48210
                        -----------------------------------------
Magnitude (a.u.)       :      0.80701
Magnitude (Debye)      :      2.05127

Rotational constants in cm-1:     0.017021     0.008761     0.006347
Rotational constants in MHz :   510.264687   262.642341   190.277158

                             ****ORCA TERMINATED NORMALLY****
TOTAL RUN TIME: 0 days 0 hours 0 minutes 21 seconds 232 msec
