                         Program Version 4.2.1 -  RELEASE  -
|  1> ! wB97X-D3 SP def2-SVP
|  2> %pal
|  3> nprocs 24
|  4> end
|  5>
|  6> * xyz 0 1
|  7> S 	 -129.884 	 8.16134 	 -6.33171
|  8> C 	 -128.128 	 7.97023 	 -6.425
|  9> C 	 -127.586 	 8.77952 	 -7.39257
| 10> C 	 -128.587 	 9.65047 	 -7.95135
| 11> C 	 -129.805 	 9.47299 	 -7.4238
| 12> H 	 -128.401 	 10.4431 	 -8.65335
| 13> C 	 -126.162 	 8.74978 	 -7.85264
| 14> H 	 -126.285 	 8.69986 	 -8.96331
| 15> H 	 -125.734 	 7.75178 	 -7.57625
| 16> C 	 -125.223 	 9.91937 	 -7.54802
| 17> H 	 -124.367 	 9.70447 	 -8.08734
| 18> H 	 -125.552 	 10.853 	 -7.99022
| 19> C 	 -124.889 	 10.0771 	 -6.0336
| 20> H 	 -124.839 	 9.0931 	 -5.53755
| 21> H 	 -123.961 	 10.6176 	 -5.7868
| 22> H 	 -125.658 	 10.6283 	 -5.44578
| 23> S 	 -131.556 	 11.4087 	 -6.53595
| 24> C 	 -132.668 	 12.118 	 -7.6699
| 25> C 	 -132.709 	 11.4356 	 -8.81208
| 26> C 	 -131.834 	 10.305 	 -8.83367
| 27> C 	 -131.013 	 10.2051 	 -7.73074
| 28> H 	 -133.2 	 11.8033 	 -9.67897
| 29> C 	 -131.658 	 9.53384 	 -10.168
| 30> H 	 -131.056 	 8.62197 	 -10.0645
| 31> H 	 -131.051 	 10.1788 	 -10.7111
| 32> C 	 -132.89 	 9.07593 	 -10.9383
| 33> H 	 -133.532 	 9.88259 	 -11.2481
| 34> H 	 -133.557 	 8.39726 	 -10.4447
| 35> C 	 -132.445 	 8.31167 	 -12.2333
| 36> H 	 -131.849 	 8.9383 	 -12.9058
| 37> H 	 -133.354 	 7.95363 	 -12.8208
| 38> H 	 -131.874 	 7.40048 	 -11.9109
| 39> H 	 -127.548 	 7.42437 	 -5.71034
| 40> H 	 -133.18 	 13.0325 	 -7.35464
| 41> *
| 42>
| 43>                          ****END OF INPUT****

CARTESIAN COORDINATES (ANGSTROEM)
---------------------------------
  S    -129.884000    8.161340   -6.331710
  C    -128.128000    7.970230   -6.425000
  C    -127.586000    8.779520   -7.392570
  C    -128.587000    9.650470   -7.951350
  C    -129.805000    9.472990   -7.423800
  H    -128.401000   10.443100   -8.653350
  C    -126.162000    8.749780   -7.852640
  H    -126.285000    8.699860   -8.963310
  H    -125.734000    7.751780   -7.576250
  C    -125.223000    9.919370   -7.548020
  H    -124.367000    9.704470   -8.087340
  H    -125.552000   10.853000   -7.990220
  C    -124.889000   10.077100   -6.033600
  H    -124.839000    9.093100   -5.537550
  H    -123.961000   10.617600   -5.786800
  H    -125.658000   10.628300   -5.445780
  S    -131.556000   11.408700   -6.535950
  C    -132.668000   12.118000   -7.669900
  C    -132.709000   11.435600   -8.812080
  C    -131.834000   10.305000   -8.833670
  C    -131.013000   10.205100   -7.730740
  H    -133.200000   11.803300   -9.678970
  C    -131.658000    9.533840  -10.168000
  H    -131.056000    8.621970  -10.064500
  H    -131.051000   10.178800  -10.711100
  C    -132.890000    9.075930  -10.938300
  H    -133.532000    9.882590  -11.248100
  H    -133.557000    8.397260  -10.444700
  C    -132.445000    8.311670  -12.233300
  H    -131.849000    8.938300  -12.905800
  H    -133.354000    7.953630  -12.820800
  H    -131.874000    7.400480  -11.910900
  H    -127.548000    7.424370   -5.710340
  H    -133.180000   13.032500   -7.354640

 Total Charge           Charge          ....    0
 Multiplicity           Mult            ....    1
 Number of Electrons    NEL             ....  134
 Basis Dimension        Dim             ....  322

ORBITAL ENERGIES
----------------

  NO   OCC          E(Eh)            E(eV)
   0   2.0000     -88.960293     -2420.7326
   1   2.0000     -88.955779     -2420.6098
   2   2.0000     -10.322537      -280.8905
   3   2.0000     -10.319698      -280.8133
   4   2.0000     -10.314338      -280.6674
   5   2.0000     -10.309118      -280.5254
   6   2.0000     -10.304499      -280.3997
   7   2.0000     -10.298404      -280.2338
   8   2.0000     -10.297942      -280.2213
   9   2.0000     -10.288354      -279.9603
  10   2.0000     -10.287855      -279.9468
  11   2.0000     -10.287852      -279.9467
  12   2.0000     -10.286338      -279.9055
  13   2.0000     -10.286290      -279.9042
  14   2.0000     -10.285031      -279.8699
  15   2.0000     -10.282497      -279.8010
  16   2.0000      -8.075948      -219.7577
  17   2.0000      -8.071172      -219.6278
  18   2.0000      -6.034405      -164.2045
  19   2.0000      -6.030403      -164.0956
  20   2.0000      -6.029653      -164.0752
  21   2.0000      -6.026627      -163.9929
  22   2.0000      -6.025606      -163.9651
  23   2.0000      -6.021894      -163.8641
  24   2.0000      -1.010514       -27.4975
  25   2.0000      -0.987520       -26.8718
  26   2.0000      -0.912747       -24.8371
  27   2.0000      -0.906465       -24.6662
  28   2.0000      -0.871114       -23.7042
  29   2.0000      -0.847174       -23.0528
  30   2.0000      -0.843884       -22.9632
  31   2.0000      -0.816815       -22.2267
  32   2.0000      -0.782110       -21.2823
  33   2.0000      -0.770360       -20.9626
  34   2.0000      -0.713766       -19.4225
  35   2.0000      -0.702413       -19.1136
  36   2.0000      -0.695813       -18.9340
  37   2.0000      -0.657916       -17.9028
  38   2.0000      -0.642263       -17.4769
  39   2.0000      -0.620993       -16.8981
  40   2.0000      -0.604012       -16.4360
  41   2.0000      -0.566449       -15.4139
  42   2.0000      -0.565117       -15.3776
  43   2.0000      -0.549122       -14.9424
  44   2.0000      -0.540197       -14.6995
  45   2.0000      -0.526841       -14.3361
  46   2.0000      -0.519468       -14.1354
  47   2.0000      -0.512629       -13.9494
  48   2.0000      -0.501916       -13.6578
  49   2.0000      -0.497899       -13.5485
  50   2.0000      -0.485621       -13.2144
  51   2.0000      -0.476080       -12.9548
  52   2.0000      -0.464350       -12.6356
  53   2.0000      -0.462379       -12.5820
  54   2.0000      -0.460437       -12.5291
  55   2.0000      -0.448816       -12.2129
  56   2.0000      -0.446150       -12.1404
  57   2.0000      -0.440771       -11.9940
  58   2.0000      -0.438206       -11.9242
  59   2.0000      -0.424997       -11.5648
  60   2.0000      -0.421873       -11.4798
  61   2.0000      -0.417230       -11.3534
  62   2.0000      -0.408496       -11.1157
  63   2.0000      -0.336090        -9.1455
  64   2.0000      -0.325712        -8.8631
  65   2.0000      -0.323296        -8.7973
  66   2.0000      -0.311453        -8.4751
  67   0.0000       0.046838         1.2745
  68   0.0000       0.063063         1.7160
  69   0.0000       0.112818         3.0699
  70   0.0000       0.128024         3.4837
  71   0.0000       0.134602         3.6627

MULLIKEN ATOMIC CHARGES
-----------------------
   0 S :    0.112780
   1 C :   -0.129036
   2 C :   -0.065061
   3 C :    0.043022
   4 C :   -0.156267
   5 H :    0.003296
   6 C :    0.004652
   7 H :    0.036853
   8 H :    0.030668
   9 C :    0.009283
  10 H :    0.013244
  11 H :    0.022861
  12 C :   -0.082270
  13 H :    0.025320
  14 H :    0.038187
  15 H :    0.043168
  16 S :    0.084087
  17 C :   -0.090962
  18 C :   -0.012876
  19 C :    0.007545
  20 C :   -0.181809
  21 H :    0.013440
  22 C :    0.067002
  23 H :    0.023663
  24 H :    0.019819
  25 C :   -0.059314
  26 H :    0.020101
  27 H :    0.030849
  28 C :   -0.103045
  29 H :    0.036168
  30 H :    0.044532
  31 H :    0.043049
  32 H :    0.040458
  33 H :    0.066593
Sum of atomic charges:    0.0000000

LOEWDIN ATOMIC CHARGES
----------------------
   0 S :    0.408935
   1 C :   -0.189956
   2 C :   -0.062691
   3 C :   -0.058536
   4 C :   -0.207150
   5 H :    0.030607
   6 C :   -0.036618
   7 H :    0.041085
   8 H :    0.034569
   9 C :   -0.033866
  10 H :    0.018457
  11 H :    0.025038
  12 C :   -0.074745
  13 H :    0.024505
  14 H :    0.027947
  15 H :    0.031225
  16 S :    0.385158
  17 C :   -0.172194
  18 C :   -0.078104
  19 C :   -0.045598
  20 C :   -0.197494
  21 H :    0.028697
  22 C :   -0.027864
  23 H :    0.033215
  24 H :    0.025492
  25 C :   -0.038744
  26 H :    0.016857
  27 H :    0.024927
  28 C :   -0.070135
  29 H :    0.021188
  30 H :    0.032551
  31 H :    0.028374
  32 H :    0.022666
  33 H :    0.032201

  Mayer bond orders larger than 0.100000
B(  0-S ,  1-C ) :   1.1242 B(  0-S ,  4-C ) :   1.1579 B(  1-C ,  2-C ) :   1.6344
B(  1-C , 32-H ) :   0.9711 B(  2-C ,  3-C ) :   1.2025 B(  2-C ,  6-C ) :   1.0178
B(  3-C ,  4-C ) :   1.6288 B(  3-C ,  5-H ) :   1.0020 B(  4-C , 20-C ) :   0.9966
B(  6-C ,  7-H ) :   0.9341 B(  6-C ,  8-H ) :   0.9443 B(  6-C ,  9-C ) :   1.0857
B(  9-C , 10-H ) :   0.9500 B(  9-C , 11-H ) :   0.9527 B(  9-C , 12-C ) :   1.0581
B( 12-C , 13-H ) :   0.9778 B( 12-C , 14-H ) :   0.9776 B( 12-C , 15-H ) :   0.9767
B( 16-S , 17-C ) :   1.1578 B( 16-S , 20-C ) :   1.1256 B( 17-C , 18-C ) :   1.6177
B( 17-C , 33-H ) :   0.9672 B( 18-C , 19-C ) :   1.2117 B( 18-C , 21-H ) :   0.9992
B( 19-C , 20-C ) :   1.6400 B( 19-C , 22-C ) :   1.0275 B( 22-C , 23-H ) :   0.9406
B( 22-C , 24-H ) :   0.9395 B( 22-C , 25-C ) :   1.0594 B( 25-C , 26-H ) :   0.9521
B( 25-C , 27-H ) :   0.9583 B( 25-C , 28-C ) :   1.0814 B( 28-C , 29-H ) :   0.9773
B( 28-C , 30-H ) :   0.9747 B( 28-C , 31-H ) :   0.9756

Dispersion correction           -0.013799309
FINAL SINGLE POINT ENERGY     -1339.880626968151

DIPOLE MOMENT
-------------
                                X             Y             Z
Electronic contribution:    -12.28040       3.17968      16.87093
Nuclear contribution   :     12.64845      -2.97770     -17.49514
                        -----------------------------------------
Total Dipole Moment    :      0.36805       0.20198      -0.62421
                        -----------------------------------------
Magnitude (a.u.)       :      0.75226
Magnitude (Debye)      :      1.91210

Rotational constants in cm-1:     0.019017     0.007683     0.006585
Rotational constants in MHz :   570.120086   230.322308   197.422265

                             ****ORCA TERMINATED NORMALLY****
TOTAL RUN TIME: 0 days 0 hours 0 minutes 20 seconds 757 msec
