                         Program Version 4.2.1 -  RELEASE  -
|  1> ! wB97X-D3 SP def2-SVP
|  2> %pal
|  3> nprocs 24
|  4> end
|  5>
|  6> * xyz 0 1
|  7> S 	 -31.8353 	 14.9344 	 10.0746
|  8> C 	 -32.3434 	 13.2847 	 10.347
|  9> C 	 -31.2896 	 12.4104 	 10.5042
| 10> C 	 -30.0503 	 13.0925 	 10.1509
| 11> C 	 -30.2236 	 14.4082 	 9.834
| 12> H 	 -29.0689 	 12.6073 	 10.1878
| 13> C 	 -31.3468 	 10.9899 	 10.7393
| 14> H 	 -30.3254 	 10.543 	 10.6707
| 15> H 	 -31.888 	 10.5468 	 9.92821
| 16> C 	 -32.012 	 10.5333 	 12.0525
| 17> H 	 -31.3281 	 10.6622 	 12.9109
| 18> H 	 -32.7896 	 11.1911 	 12.2673
| 19> C 	 -32.4588 	 9.02999 	 11.8886
| 20> H 	 -32.97 	 8.70665 	 12.8038
| 21> H 	 -33.1551 	 8.86418 	 11.0518
| 22> H 	 -31.6627 	 8.39448 	 11.6695
| 23> S 	 -28.9391 	 15.5417 	 7.77706
| 24> C 	 -27.7314 	 16.7733 	 8.07178
| 25> C 	 -27.5471 	 16.9663 	 9.415
| 26> C 	 -28.3884 	 16.1986 	 10.2349
| 27> C 	 -29.1751 	 15.3486 	 9.50156
| 28> H 	 -26.74 	 17.5779 	 9.79563
| 29> C 	 -28.2345 	 16.3273 	 11.7879
| 30> H 	 -27.1783 	 16.4915 	 12.0142
| 31> H 	 -28.4725 	 15.3341 	 12.1416
| 32> C 	 -29.1701 	 17.313 	 12.5174
| 33> H 	 -30.2242 	 16.9963 	 12.4612
| 34> H 	 -29.0365 	 18.2581 	 11.9292
| 35> C 	 -28.7955 	 17.8608 	 13.9402
| 36> H 	 -29.6275 	 18.4104 	 14.4546
| 37> H 	 -28.0028 	 18.6431 	 13.9254
| 38> H 	 -28.4249 	 17.0498 	 14.5918
| 39> H 	 -33.3899 	 12.8952 	 10.3631
| 40> H 	 -27.0423 	 17.3452 	 7.42631
| 41> *
| 42>
| 43>                          ****END OF INPUT****

CARTESIAN COORDINATES (ANGSTROEM)
---------------------------------
  S    -31.835300   14.934400   10.074600
  C    -32.343400   13.284700   10.347000
  C    -31.289600   12.410400   10.504200
  C    -30.050300   13.092500   10.150900
  C    -30.223600   14.408200    9.834000
  H    -29.068900   12.607300   10.187800
  C    -31.346800   10.989900   10.739300
  H    -30.325400   10.543000   10.670700
  H    -31.888000   10.546800    9.928210
  C    -32.012000   10.533300   12.052500
  H    -31.328100   10.662200   12.910900
  H    -32.789600   11.191100   12.267300
  C    -32.458800    9.029990   11.888600
  H    -32.970000    8.706650   12.803800
  H    -33.155100    8.864180   11.051800
  H    -31.662700    8.394480   11.669500
  S    -28.939100   15.541700    7.777060
  C    -27.731400   16.773300    8.071780
  C    -27.547100   16.966300    9.415000
  C    -28.388400   16.198600   10.234900
  C    -29.175100   15.348600    9.501560
  H    -26.740000   17.577900    9.795630
  C    -28.234500   16.327300   11.787900
  H    -27.178300   16.491500   12.014200
  H    -28.472500   15.334100   12.141600
  C    -29.170100   17.313000   12.517400
  H    -30.224200   16.996300   12.461200
  H    -29.036500   18.258100   11.929200
  C    -28.795500   17.860800   13.940200
  H    -29.627500   18.410400   14.454600
  H    -28.002800   18.643100   13.925400
  H    -28.424900   17.049800   14.591800
  H    -33.389900   12.895200   10.363100
  H    -27.042300   17.345200    7.426310

 Total Charge           Charge          ....    0
 Multiplicity           Mult            ....    1
 Number of Electrons    NEL             ....  134
 Basis Dimension        Dim             ....  322

ORBITAL ENERGIES
----------------

  NO   OCC          E(Eh)            E(eV)
   0   2.0000     -88.966866     -2420.9115
   1   2.0000     -88.966349     -2420.8974
   2   2.0000     -10.321735      -280.8687
   3   2.0000     -10.320880      -280.8454
   4   2.0000     -10.314598      -280.6745
   5   2.0000     -10.313822      -280.6534
   6   2.0000     -10.300269      -280.2846
   7   2.0000     -10.296157      -280.1727
   8   2.0000     -10.294412      -280.1252
   9   2.0000     -10.293369      -280.0968
  10   2.0000     -10.290861      -280.0286
  11   2.0000     -10.287282      -279.9312
  12   2.0000     -10.286802      -279.9181
  13   2.0000     -10.286678      -279.9147
  14   2.0000     -10.284777      -279.8630
  15   2.0000     -10.279649      -279.7235
  16   2.0000      -8.082111      -219.9254
  17   2.0000      -8.080939      -219.8935
  18   2.0000      -6.040616      -164.3735
  19   2.0000      -6.039499      -164.3431
  20   2.0000      -6.036643      -164.2654
  21   2.0000      -6.035448      -164.2329
  22   2.0000      -6.032741      -164.1592
  23   2.0000      -6.031649      -164.1295
  24   2.0000      -1.011647       -27.5283
  25   2.0000      -0.987707       -26.8769
  26   2.0000      -0.918446       -24.9922
  27   2.0000      -0.897669       -24.4268
  28   2.0000      -0.868980       -23.6462
  29   2.0000      -0.849848       -23.1255
  30   2.0000      -0.845520       -23.0078
  31   2.0000      -0.812381       -22.1060
  32   2.0000      -0.782904       -21.3039
  33   2.0000      -0.771339       -20.9892
  34   2.0000      -0.715815       -19.4783
  35   2.0000      -0.702684       -19.1210
  36   2.0000      -0.687405       -18.7052
  37   2.0000      -0.661535       -18.0013
  38   2.0000      -0.639634       -17.4053
  39   2.0000      -0.617578       -16.8052
  40   2.0000      -0.588800       -16.0221
  41   2.0000      -0.574100       -15.6220
  42   2.0000      -0.558104       -15.1868
  43   2.0000      -0.552550       -15.0357
  44   2.0000      -0.525415       -14.2973
  45   2.0000      -0.523841       -14.2544
  46   2.0000      -0.514598       -14.0029
  47   2.0000      -0.509062       -13.8523
  48   2.0000      -0.503612       -13.7040
  49   2.0000      -0.498982       -13.5780
  50   2.0000      -0.496367       -13.5068
  51   2.0000      -0.475730       -12.9453
  52   2.0000      -0.469318       -12.7708
  53   2.0000      -0.462881       -12.5956
  54   2.0000      -0.456648       -12.4260
  55   2.0000      -0.451700       -12.2914
  56   2.0000      -0.450615       -12.2618
  57   2.0000      -0.443542       -12.0694
  58   2.0000      -0.433252       -11.7894
  59   2.0000      -0.427614       -11.6360
  60   2.0000      -0.424536       -11.5522
  61   2.0000      -0.417097       -11.3498
  62   2.0000      -0.397492       -10.8163
  63   2.0000      -0.337193        -9.1755
  64   2.0000      -0.328392        -8.9360
  65   2.0000      -0.317936        -8.6515
  66   2.0000      -0.313758        -8.5378
  67   0.0000       0.048957         1.3322
  68   0.0000       0.053906         1.4669
  69   0.0000       0.111568         3.0359
  70   0.0000       0.118039         3.2120
  71   0.0000       0.127160         3.4602

MULLIKEN ATOMIC CHARGES
-----------------------
   0 S :    0.138537
   1 C :   -0.140474
   2 C :   -0.076182
   3 C :    0.036607
   4 C :   -0.160153
   5 H :    0.017989
   6 C :    0.045410
   7 H :    0.025049
   8 H :    0.029350
   9 C :   -0.052857
  10 H :    0.032699
  11 H :    0.012093
  12 C :   -0.045440
  13 H :    0.038059
  14 H :    0.029565
  15 H :    0.022105
  16 S :    0.123586
  17 C :   -0.075864
  18 C :   -0.065924
  19 C :   -0.000732
  20 C :   -0.226745
  21 H :    0.014726
  22 C :    0.106312
  23 H :    0.021958
  24 H :    0.016324
  25 C :   -0.086661
  26 H :    0.043856
  27 H :    0.030121
  28 C :   -0.081945
  29 H :    0.046202
  30 H :    0.031840
  31 H :    0.035588
  32 H :    0.058135
  33 H :    0.056864
Sum of atomic charges:   -0.0000000

LOEWDIN ATOMIC CHARGES
----------------------
   0 S :    0.425987
   1 C :   -0.205961
   2 C :   -0.065902
   3 C :   -0.055764
   4 C :   -0.220642
   5 H :    0.034626
   6 C :   -0.040559
   7 H :    0.035072
   8 H :    0.033527
   9 C :   -0.027374
  10 H :    0.028546
  11 H :    0.011876
  12 C :   -0.060921
  13 H :    0.028235
  14 H :    0.026380
  15 H :    0.016712
  16 S :    0.416776
  17 C :   -0.195159
  18 C :   -0.077144
  19 C :   -0.054791
  20 C :   -0.202045
  21 H :    0.029804
  22 C :   -0.025704
  23 H :    0.030357
  24 H :    0.026696
  25 C :   -0.049763
  26 H :    0.027021
  27 H :    0.029487
  28 C :   -0.077459
  29 H :    0.035085
  30 H :    0.025497
  31 H :    0.022325
  32 H :    0.035726
  33 H :    0.039448

  Mayer bond orders larger than 0.100000
B(  0-S ,  1-C ) :   1.1350 B(  0-S ,  4-C ) :   1.1546 B(  1-C ,  2-C ) :   1.6172
B(  1-C , 32-H ) :   0.9598 B(  2-C ,  3-C ) :   1.2272 B(  2-C ,  6-C ) :   1.0388
B(  3-C ,  4-C ) :   1.6033 B(  3-C ,  5-H ) :   0.9924 B(  4-C , 20-C ) :   0.9890
B(  6-C ,  7-H ) :   0.9363 B(  6-C ,  8-H ) :   0.9390 B(  6-C ,  9-C ) :   1.0468
B(  9-C , 10-H ) :   0.9540 B(  9-C , 11-H ) :   0.9653 B(  9-C , 12-C ) :   1.0698
B( 12-C , 13-H ) :   0.9759 B( 12-C , 14-H ) :   0.9774 B( 12-C , 15-H ) :   0.9763
B( 16-S , 17-C ) :   1.1423 B( 16-S , 20-C ) :   1.1550 B( 17-C , 18-C ) :   1.6345
B( 17-C , 20-C ) :   0.1024 B( 17-C , 33-H ) :   0.9585 B( 18-C , 19-C ) :   1.2436
B( 18-C , 21-H ) :   0.9825 B( 19-C , 20-C ) :   1.6320 B( 19-C , 22-C ) :   1.0231
B( 22-C , 23-H ) :   0.9435 B( 22-C , 24-H ) :   0.9268 B( 22-C , 25-C ) :   1.0587
B( 25-C , 26-H ) :   0.9575 B( 25-C , 27-H ) :   0.9626 B( 25-C , 28-C ) :   1.0657
B( 28-C , 29-H ) :   0.9746 B( 28-C , 30-H ) :   0.9791 B( 28-C , 31-H ) :   0.9775

Dispersion correction           -0.013724369
FINAL SINGLE POINT ENERGY     -1339.872074316890

DIPOLE MOMENT
-------------
                                X             Y             Z
Electronic contribution:      0.66105      10.04426     -22.06905
Nuclear contribution   :     -0.45947     -10.35939      22.45296
                        -----------------------------------------
Total Dipole Moment    :      0.20157      -0.31513       0.38391
                        -----------------------------------------
Magnitude (a.u.)       :      0.53603
Magnitude (Debye)      :      1.36248

Rotational constants in cm-1:     0.019342     0.007517     0.006209
Rotational constants in MHz :   579.870033   225.356426   186.149737

                             ****ORCA TERMINATED NORMALLY****
TOTAL RUN TIME: 0 days 0 hours 0 minutes 20 seconds 699 msec
