                         Program Version 4.2.1 -  RELEASE  -
|  1> ! wB97X-D3 SP def2-SVP
|  2> %pal
|  3> nprocs 24
|  4> end
|  5>
|  6> * xyz 0 1
|  7> S 	 -99.2346 	 7.43673 	 2.93731
|  8> C 	 -99.571 	 7.80839 	 1.23653
|  9> C 	 -98.3838 	 7.69911 	 0.535768
| 10> C 	 -97.2274 	 7.71348 	 1.35917
| 11> C 	 -97.4913 	 7.57079 	 2.72535
| 12> H 	 -96.1539 	 7.67417 	 0.98166
| 13> C 	 -98.2394 	 7.93622 	 -0.909021
| 14> H 	 -99.1307 	 7.68367 	 -1.41909
| 15> H 	 -97.4775 	 7.25156 	 -1.41647
| 16> C 	 -97.8054 	 9.32553 	 -1.27844
| 17> H 	 -98.6739 	 9.95454 	 -1.07319
| 18> H 	 -97.1229 	 9.7096 	 -0.608152
| 19> C 	 -97.2458 	 9.53351 	 -2.65106
| 20> H 	 -97.2613 	 10.5222 	 -2.82369
| 21> H 	 -96.2198 	 9.11691 	 -2.77443
| 22> H 	 -97.7468 	 9.03856 	 -3.46433
| 23> S 	 -96.933 	 6.0922 	 4.95116
| 24> C 	 -95.3868 	 6.19036 	 5.7176
| 25> C 	 -94.6047 	 7.20179 	 5.19098
| 26> C 	 -95.2052 	 7.75755 	 3.99597
| 27> C 	 -96.4982 	 7.3048 	 3.82451
| 28> H 	 -93.5361 	 7.30208 	 5.57432
| 29> C 	 -94.4959 	 8.69727 	 3.07053
| 30> H 	 -95.329 	 9.18858 	 2.48257
| 31> H 	 -93.783 	 8.09259 	 2.39631
| 32> C 	 -93.6437 	 9.87359 	 3.55682
| 33> H 	 -93.3969 	 10.475 	 2.65719
| 34> H 	 -92.7704 	 9.41518 	 3.97273
| 35> C 	 -94.2829 	 10.8012 	 4.59783
| 36> H 	 -93.7698 	 11.8025 	 4.69681
| 37> H 	 -94.5702 	 10.4259 	 5.55168
| 38> H 	 -95.2698 	 11.1897 	 4.30627
| 39> H 	 -100.538 	 7.74252 	 0.749082
| 40> H 	 -95.1012 	 5.61905 	 6.62219
| 41> *
| 42>
| 43>                          ****END OF INPUT****

CARTESIAN COORDINATES (ANGSTROEM)
---------------------------------
  S    -99.234600    7.436730    2.937310
  C    -99.571000    7.808390    1.236530
  C    -98.383800    7.699110    0.535768
  C    -97.227400    7.713480    1.359170
  C    -97.491300    7.570790    2.725350
  H    -96.153900    7.674170    0.981660
  C    -98.239400    7.936220   -0.909021
  H    -99.130700    7.683670   -1.419090
  H    -97.477500    7.251560   -1.416470
  C    -97.805400    9.325530   -1.278440
  H    -98.673900    9.954540   -1.073190
  H    -97.122900    9.709600   -0.608152
  C    -97.245800    9.533510   -2.651060
  H    -97.261300   10.522200   -2.823690
  H    -96.219800    9.116910   -2.774430
  H    -97.746800    9.038560   -3.464330
  S    -96.933000    6.092200    4.951160
  C    -95.386800    6.190360    5.717600
  C    -94.604700    7.201790    5.190980
  C    -95.205200    7.757550    3.995970
  C    -96.498200    7.304800    3.824510
  H    -93.536100    7.302080    5.574320
  C    -94.495900    8.697270    3.070530
  H    -95.329000    9.188580    2.482570
  H    -93.783000    8.092590    2.396310
  C    -93.643700    9.873590    3.556820
  H    -93.396900   10.475000    2.657190
  H    -92.770400    9.415180    3.972730
  C    -94.282900   10.801200    4.597830
  H    -93.769800   11.802500    4.696810
  H    -94.570200   10.425900    5.551680
  H    -95.269800   11.189700    4.306270
  H    -100.538000    7.742520    0.749082
  H    -95.101200    5.619050    6.622190

 Total Charge           Charge          ....    0
 Multiplicity           Mult            ....    1
 Number of Electrons    NEL             ....  134
 Basis Dimension        Dim             ....  322

ORBITAL ENERGIES
----------------

  NO   OCC          E(Eh)            E(eV)
   0   2.0000     -88.967641     -2420.9326
   1   2.0000     -88.967176     -2420.9199
   2   2.0000     -10.338057      -281.3128
   3   2.0000     -10.329586      -281.0823
   4   2.0000     -10.319421      -280.8057
   5   2.0000     -10.317335      -280.7490
   6   2.0000     -10.306467      -280.4532
   7   2.0000     -10.302347      -280.3411
   8   2.0000     -10.299271      -280.2574
   9   2.0000     -10.299100      -280.2528
  10   2.0000     -10.298118      -280.2260
  11   2.0000     -10.290318      -280.0138
  12   2.0000     -10.285487      -279.8823
  13   2.0000     -10.275882      -279.6210
  14   2.0000     -10.273536      -279.5571
  15   2.0000     -10.268572      -279.4221
  16   2.0000      -8.083606      -219.9661
  17   2.0000      -8.081209      -219.9009
  18   2.0000      -6.041977      -164.4106
  19   2.0000      -6.039881      -164.3535
  20   2.0000      -6.038029      -164.3031
  21   2.0000      -6.035839      -164.2435
  22   2.0000      -6.034333      -164.2026
  23   2.0000      -6.031800      -164.1336
  24   2.0000      -1.010562       -27.4988
  25   2.0000      -0.988048       -26.8861
  26   2.0000      -0.921237       -25.0681
  27   2.0000      -0.909559       -24.7504
  28   2.0000      -0.870522       -23.6881
  29   2.0000      -0.852489       -23.1974
  30   2.0000      -0.846008       -23.0211
  31   2.0000      -0.815994       -22.2043
  32   2.0000      -0.784785       -21.3551
  33   2.0000      -0.776299       -21.1242
  34   2.0000      -0.710502       -19.3338
  35   2.0000      -0.702784       -19.1237
  36   2.0000      -0.694353       -18.8943
  37   2.0000      -0.655458       -17.8359
  38   2.0000      -0.638523       -17.3751
  39   2.0000      -0.620734       -16.8910
  40   2.0000      -0.592635       -16.1264
  41   2.0000      -0.573138       -15.5959
  42   2.0000      -0.558881       -15.2079
  43   2.0000      -0.555578       -15.1180
  44   2.0000      -0.540947       -14.7199
  45   2.0000      -0.533300       -14.5118
  46   2.0000      -0.518725       -14.1152
  47   2.0000      -0.506808       -13.7909
  48   2.0000      -0.501470       -13.6457
  49   2.0000      -0.498642       -13.5687
  50   2.0000      -0.497249       -13.5308
  51   2.0000      -0.485710       -13.2168
  52   2.0000      -0.469515       -12.7762
  53   2.0000      -0.460191       -12.5224
  54   2.0000      -0.453102       -12.3295
  55   2.0000      -0.450321       -12.2538
  56   2.0000      -0.447268       -12.1708
  57   2.0000      -0.441755       -12.0208
  58   2.0000      -0.438567       -11.9340
  59   2.0000      -0.428525       -11.6608
  60   2.0000      -0.419019       -11.4021
  61   2.0000      -0.407472       -11.0879
  62   2.0000      -0.403611       -10.9828
  63   2.0000      -0.356006        -9.6874
  64   2.0000      -0.332218        -9.0401
  65   2.0000      -0.327443        -8.9102
  66   2.0000      -0.290969        -7.9177
  67   0.0000       0.026796         0.7292
  68   0.0000       0.073059         1.9880
  69   0.0000       0.104505         2.8437
  70   0.0000       0.116098         3.1592
  71   0.0000       0.128835         3.5058

MULLIKEN ATOMIC CHARGES
-----------------------
   0 S :    0.092221
   1 C :   -0.105553
   2 C :   -0.078688
   3 C :   -0.025564
   4 C :   -0.122780
   5 H :    0.045887
   6 C :    0.051936
   7 H :    0.003312
   8 H :    0.024642
   9 C :   -0.044149
  10 H :    0.012788
  11 H :    0.003938
  12 C :    0.007646
  13 H :    0.011229
  14 H :    0.028589
  15 H :    0.016215
  16 S :    0.114046
  17 C :   -0.111700
  18 C :   -0.052389
  19 C :   -0.053506
  20 C :   -0.125478
  21 H :    0.050771
  22 C :   -0.026595
  23 H :    0.044624
  24 H :    0.057137
  25 C :   -0.028492
  26 H :    0.041441
  27 H :    0.023084
  28 C :   -0.063064
  29 H :    0.037382
  30 H :    0.030448
  31 H :    0.011903
  32 H :    0.058699
  33 H :    0.070020
Sum of atomic charges:    0.0000000

LOEWDIN ATOMIC CHARGES
----------------------
   0 S :    0.388487
   1 C :   -0.192942
   2 C :   -0.063460
   3 C :   -0.075806
   4 C :   -0.183845
   5 H :    0.043940
   6 C :   -0.036584
   7 H :    0.020978
   8 H :    0.035126
   9 C :   -0.036409
  10 H :    0.025792
  11 H :    0.015200
  12 C :   -0.053833
  13 H :    0.013964
  14 H :    0.030697
  15 H :    0.022503
  16 S :    0.429823
  17 C :   -0.197170
  18 C :   -0.081695
  19 C :   -0.065151
  20 C :   -0.205373
  21 H :    0.046350
  22 C :   -0.047376
  23 H :    0.037362
  24 H :    0.043319
  25 C :   -0.039757
  26 H :    0.036181
  27 H :    0.017702
  28 C :   -0.081032
  29 H :    0.034559
  30 H :    0.022104
  31 H :    0.026760
  32 H :    0.033239
  33 H :    0.036345

  Mayer bond orders larger than 0.100000
B(  0-S ,  1-C ) :   1.1238 B(  0-S ,  4-C ) :   1.1551 B(  1-C ,  2-C ) :   1.5980
B(  1-C ,  4-C ) :   0.1011 B(  1-C , 32-H ) :   0.9652 B(  2-C ,  3-C ) :   1.2434
B(  2-C ,  6-C ) :   1.0638 B(  3-C ,  4-C ) :   1.5536 B(  3-C ,  5-H ) :   0.9785
B(  4-C , 20-C ) :   1.0255 B(  6-C ,  7-H ) :   0.9318 B(  6-C ,  8-H ) :   0.9368
B(  6-C ,  9-C ) :   1.0594 B(  9-C , 10-H ) :   0.9464 B(  9-C , 11-H ) :   0.9522
B(  9-C , 12-C ) :   1.0881 B( 12-C , 13-H ) :   0.9686 B( 12-C , 14-H ) :   0.9685
B( 12-C , 15-H ) :   0.9731 B( 16-S , 17-C ) :   1.1634 B( 16-S , 20-C ) :   1.1488
B( 17-C , 18-C ) :   1.6267 B( 17-C , 33-H ) :   0.9603 B( 18-C , 19-C ) :   1.2226
B( 18-C , 21-H ) :   0.9772 B( 19-C , 20-C ) :   1.6114 B( 19-C , 22-C ) :   1.0470
B( 22-C , 23-H ) :   0.9312 B( 22-C , 24-H ) :   0.9294 B( 22-C , 25-C ) :   1.0778
B( 25-C , 26-H ) :   0.9531 B( 25-C , 27-H ) :   0.9495 B( 25-C , 28-C ) :   1.0783
B( 28-C , 29-H ) :   0.9743 B( 28-C , 30-H ) :   0.9735 B( 28-C , 31-H ) :   0.9688

Dispersion correction           -0.013988103
FINAL SINGLE POINT ENERGY     -1339.860934134181

DIPOLE MOMENT
-------------
                                X             Y             Z
Electronic contribution:    -13.67320     -18.32467      18.79137
Nuclear contribution   :     14.13858      18.48588     -19.23622
                        -----------------------------------------
Total Dipole Moment    :      0.46538       0.16121      -0.44485
                        -----------------------------------------
Magnitude (a.u.)       :      0.66367
Magnitude (Debye)      :      1.68691

Rotational constants in cm-1:     0.017959     0.008861     0.006580
Rotational constants in MHz :   538.390905   265.660832   197.258809

                             ****ORCA TERMINATED NORMALLY****
TOTAL RUN TIME: 0 days 0 hours 0 minutes 21 seconds 723 msec
