                         Program Version 4.2.1 -  RELEASE  -
|  1> ! wB97X-D3 SP def2-SVP
|  2> %pal
|  3> nprocs 24
|  4> end
|  5>
|  6> * xyz 0 1
|  7> S 	 -103.518 	 0.0712328 	 -121.82
|  8> C 	 -105.027 	 -0.842219 	 -122.06
|  9> C 	 -104.85 	 -2.12738 	 -121.523
| 10> C 	 -103.604 	 -2.29087 	 -120.813
| 11> C 	 -102.854 	 -1.15436 	 -120.694
| 12> H 	 -103.283 	 -3.21658 	 -120.363
| 13> C 	 -105.826 	 -3.1749 	 -121.832
| 14> H 	 -105.836 	 -3.43113 	 -122.923
| 15> H 	 -106.744 	 -2.6242 	 -121.572
| 16> C 	 -105.862 	 -4.61223 	 -121.123
| 17> H 	 -105.03 	 -5.11737 	 -121.36
| 18> H 	 -105.845 	 -4.52621 	 -120.095
| 19> C 	 -107.148 	 -5.33307 	 -121.598
| 20> H 	 -108.039 	 -4.93182 	 -121.076
| 21> H 	 -107.314 	 -5.37713 	 -122.696
| 22> H 	 -107.161 	 -6.30418 	 -121.116
| 23> S 	 -100.308 	 -0.183807 	 -121.152
| 24> C 	 -98.9671 	 -0.725067 	 -120.191
| 25> C 	 -99.4458 	 -1.54601 	 -119.149
| 26> C 	 -100.867 	 -1.69442 	 -119.198
| 27> C 	 -101.444 	 -1.12532 	 -120.261
| 28> H 	 -98.6676 	 -1.87224 	 -118.461
| 29> C 	 -101.511 	 -2.70964 	 -118.273
| 30> H 	 -102.527 	 -2.56985 	 -118.299
| 31> H 	 -101.403 	 -2.55026 	 -117.186
| 32> C 	 -101.329 	 -4.16466 	 -118.622
| 33> H 	 -101.621 	 -4.3179 	 -119.641
| 34> H 	 -102.074 	 -4.79698 	 -118.098
| 35> C 	 -99.9297 	 -4.68984 	 -118.291
| 36> H 	 -99.0663 	 -4.19152 	 -118.821
| 37> H 	 -99.8737 	 -5.70213 	 -118.469
| 38> H 	 -99.5862 	 -4.65167 	 -117.238
| 39> H 	 -105.757 	 -0.531911 	 -122.776
| 40> H 	 -97.918 	 -0.588311 	 -120.464
| 41> *
| 42>
| 43>                          ****END OF INPUT****

CARTESIAN COORDINATES (ANGSTROEM)
---------------------------------
  S    -103.518000    0.071233  -121.820000
  C    -105.027000   -0.842219  -122.060000
  C    -104.850000   -2.127380  -121.523000
  C    -103.604000   -2.290870  -120.813000
  C    -102.854000   -1.154360  -120.694000
  H    -103.283000   -3.216580  -120.363000
  C    -105.826000   -3.174900  -121.832000
  H    -105.836000   -3.431130  -122.923000
  H    -106.744000   -2.624200  -121.572000
  C    -105.862000   -4.612230  -121.123000
  H    -105.030000   -5.117370  -121.360000
  H    -105.845000   -4.526210  -120.095000
  C    -107.148000   -5.333070  -121.598000
  H    -108.039000   -4.931820  -121.076000
  H    -107.314000   -5.377130  -122.696000
  H    -107.161000   -6.304180  -121.116000
  S    -100.308000   -0.183807  -121.152000
  C    -98.967100   -0.725067  -120.191000
  C    -99.445800   -1.546010  -119.149000
  C    -100.867000   -1.694420  -119.198000
  C    -101.444000   -1.125320  -120.261000
  H    -98.667600   -1.872240  -118.461000
  C    -101.511000   -2.709640  -118.273000
  H    -102.527000   -2.569850  -118.299000
  H    -101.403000   -2.550260  -117.186000
  C    -101.329000   -4.164660  -118.622000
  H    -101.621000   -4.317900  -119.641000
  H    -102.074000   -4.796980  -118.098000
  C    -99.929700   -4.689840  -118.291000
  H    -99.066300   -4.191520  -118.821000
  H    -99.873700   -5.702130  -118.469000
  H    -99.586200   -4.651670  -117.238000
  H    -105.757000   -0.531911  -122.776000
  H    -97.918000   -0.588311  -120.464000

 Total Charge           Charge          ....    0
 Multiplicity           Mult            ....    1
 Number of Electrons    NEL             ....  134
 Basis Dimension        Dim             ....  322

ORBITAL ENERGIES
----------------

  NO   OCC          E(Eh)            E(eV)
   0   2.0000     -88.964156     -2420.8378
   1   2.0000     -88.963807     -2420.8283
   2   2.0000     -10.334553      -281.2175
   3   2.0000     -10.324744      -280.9506
   4   2.0000     -10.318524      -280.7813
   5   2.0000     -10.316816      -280.7348
   6   2.0000     -10.305428      -280.4250
   7   2.0000     -10.298846      -280.2459
   8   2.0000     -10.296690      -280.1872
   9   2.0000     -10.296639      -280.1858
  10   2.0000     -10.294664      -280.1320
  11   2.0000     -10.288792      -279.9723
  12   2.0000     -10.285573      -279.8847
  13   2.0000     -10.282056      -279.7890
  14   2.0000     -10.280617      -279.7498
  15   2.0000     -10.274060      -279.5714
  16   2.0000      -8.079480      -219.8538
  17   2.0000      -8.077869      -219.8100
  18   2.0000      -6.038040      -164.3034
  19   2.0000      -6.036574      -164.2635
  20   2.0000      -6.033745      -164.1865
  21   2.0000      -6.032627      -164.1561
  22   2.0000      -6.030235      -164.0910
  23   2.0000      -6.028374      -164.0404
  24   2.0000      -1.011595       -27.5269
  25   2.0000      -0.983322       -26.7575
  26   2.0000      -0.915122       -24.9017
  27   2.0000      -0.909730       -24.7550
  28   2.0000      -0.872286       -23.7361
  29   2.0000      -0.852105       -23.1870
  30   2.0000      -0.842525       -22.9263
  31   2.0000      -0.821392       -22.3512
  32   2.0000      -0.789919       -21.4948
  33   2.0000      -0.766959       -20.8700
  34   2.0000      -0.721179       -19.6243
  35   2.0000      -0.705255       -19.1910
  36   2.0000      -0.694978       -18.9113
  37   2.0000      -0.664445       -18.0805
  38   2.0000      -0.641972       -17.4689
  39   2.0000      -0.623079       -16.9548
  40   2.0000      -0.601650       -16.3717
  41   2.0000      -0.579770       -15.7764
  42   2.0000      -0.562883       -15.3168
  43   2.0000      -0.552778       -15.0418
  44   2.0000      -0.544408       -14.8141
  45   2.0000      -0.524546       -14.2736
  46   2.0000      -0.516403       -14.0521
  47   2.0000      -0.511631       -13.9222
  48   2.0000      -0.505989       -13.7687
  49   2.0000      -0.499242       -13.5851
  50   2.0000      -0.494833       -13.4651
  51   2.0000      -0.480399       -13.0723
  52   2.0000      -0.478276       -13.0146
  53   2.0000      -0.469742       -12.7823
  54   2.0000      -0.459214       -12.4959
  55   2.0000      -0.446023       -12.1369
  56   2.0000      -0.443118       -12.0579
  57   2.0000      -0.439191       -11.9510
  58   2.0000      -0.434184       -11.8147
  59   2.0000      -0.427648       -11.6369
  60   2.0000      -0.420437       -11.4407
  61   2.0000      -0.410353       -11.1663
  62   2.0000      -0.408896       -11.1266
  63   2.0000      -0.357662        -9.7325
  64   2.0000      -0.332919        -9.0592
  65   2.0000      -0.323585        -8.8052
  66   2.0000      -0.288235        -7.8433
  67   0.0000       0.022069         0.6005
  68   0.0000       0.072253         1.9661
  69   0.0000       0.100773         2.7422
  70   0.0000       0.120993         3.2924
  71   0.0000       0.137849         3.7511

MULLIKEN ATOMIC CHARGES
-----------------------
   0 S :    0.072377
   1 C :   -0.115891
   2 C :   -0.048478
   3 C :    0.004230
   4 C :   -0.076152
   5 H :   -0.004670
   6 C :   -0.044188
   7 H :    0.052599
   8 H :    0.043710
   9 C :    0.003975
  10 H :    0.008733
  11 H :    0.010524
  12 C :   -0.062636
  13 H :    0.029981
  14 H :    0.049971
  15 H :    0.024948
  16 S :    0.102507
  17 C :   -0.117411
  18 C :   -0.042632
  19 C :   -0.033988
  20 C :   -0.127389
  21 H :    0.032954
  22 C :    0.079360
  23 H :   -0.015616
  24 H :    0.024060
  25 C :   -0.057004
  26 H :    0.028913
  27 H :    0.025749
  28 C :   -0.037900
  29 H :    0.039344
  30 H :    0.008289
  31 H :    0.021709
  32 H :    0.052094
  33 H :    0.067926
Sum of atomic charges:   -0.0000000

LOEWDIN ATOMIC CHARGES
----------------------
   0 S :    0.371695
   1 C :   -0.185012
   2 C :   -0.061141
   3 C :   -0.063245
   4 C :   -0.167808
   5 H :    0.027054
   6 C :   -0.045490
   7 H :    0.039375
   8 H :    0.041030
   9 C :   -0.021995
  10 H :    0.006202
  11 H :    0.015546
  12 C :   -0.067016
  13 H :    0.030103
  14 H :    0.030683
  15 H :    0.026762
  16 S :    0.416975
  17 C :   -0.193831
  18 C :   -0.067859
  19 C :   -0.063181
  20 C :   -0.195384
  21 H :    0.035501
  22 C :   -0.036554
  23 H :    0.016163
  24 H :    0.036237
  25 C :   -0.034747
  26 H :    0.019150
  27 H :    0.030353
  28 C :   -0.072418
  29 H :    0.031450
  30 H :    0.013429
  31 H :    0.027975
  32 H :    0.026431
  33 H :    0.033564

  Mayer bond orders larger than 0.100000
B(  0-S ,  1-C ) :   1.1268 B(  0-S ,  4-C ) :   1.1409 B(  1-C ,  2-C ) :   1.5853
B(  1-C , 32-H ) :   0.9780 B(  2-C ,  3-C ) :   1.2548 B(  2-C ,  6-C ) :   1.0118
B(  3-C ,  4-C ) :   1.5470 B(  3-C ,  5-H ) :   0.9891 B(  4-C , 20-C ) :   1.0377
B(  6-C ,  7-H ) :   0.9411 B(  6-C ,  8-H ) :   0.9475 B(  6-C ,  9-C ) :   1.0697
B(  9-C , 10-H ) :   0.9489 B(  9-C , 11-H ) :   0.9517 B(  9-C , 12-C ) :   1.0909
B( 12-C , 13-H ) :   0.9739 B( 12-C , 14-H ) :   0.9761 B( 12-C , 15-H ) :   0.9693
B( 16-S , 17-C ) :   1.1649 B( 16-S , 20-C ) :   1.1329 B( 17-C , 18-C ) :   1.6023
B( 17-C , 33-H ) :   0.9669 B( 18-C , 19-C ) :   1.2205 B( 18-C , 21-H ) :   0.9903
B( 19-C , 20-C ) :   1.6293 B( 19-C , 22-C ) :   1.0606 B( 22-C , 23-H ) :   0.9113
B( 22-C , 24-H ) :   0.9300 B( 22-C , 25-C ) :   1.0845 B( 25-C , 26-H ) :   0.9387
B( 25-C , 27-H ) :   0.9500 B( 25-C , 28-C ) :   1.0863 B( 28-C , 29-H ) :   0.9671
B( 28-C , 30-H ) :   0.9687 B( 28-C , 31-H ) :   0.9730

Dispersion correction           -0.014347502
FINAL SINGLE POINT ENERGY     -1339.843832251958

DIPOLE MOMENT
-------------
                                X             Y             Z
Electronic contribution:     10.54253      28.25188      -8.73535
Nuclear contribution   :    -10.69980     -29.12320       8.84870
                        -----------------------------------------
Total Dipole Moment    :     -0.15727      -0.87132       0.11336
                        -----------------------------------------
Magnitude (a.u.)       :      0.89262
Magnitude (Debye)      :      2.26887

Rotational constants in cm-1:     0.018313     0.009186     0.006404
Rotational constants in MHz :   549.001590   275.381687   191.980825

                             ****ORCA TERMINATED NORMALLY****
TOTAL RUN TIME: 0 days 0 hours 0 minutes 21 seconds 688 msec
