                         Program Version 4.2.1 -  RELEASE  -
|  1> ! wB97X-D3 SP def2-SVP
|  2> %pal
|  3> nprocs 24
|  4> end
|  5>
|  6> * xyz 0 1
|  7> S 	 -126.426 	 64.2309 	 -56.6862
|  8> C 	 -125.635 	 64.5343 	 -58.1623
|  9> C 	 -125.842 	 65.7616 	 -58.6574
| 10> C 	 -126.793 	 66.5167 	 -57.8571
| 11> C 	 -127.199 	 65.7839 	 -56.7599
| 12> H 	 -127.144 	 67.5781 	 -57.9005
| 13> C 	 -125.319 	 66.3261 	 -59.905
| 14> H 	 -126.099 	 66.6493 	 -60.5808
| 15> H 	 -124.762 	 65.6036 	 -60.4374
| 16> C 	 -124.454 	 67.5219 	 -59.8904
| 17> H 	 -124.217 	 67.8034 	 -60.974
| 18> H 	 -124.932 	 68.4261 	 -59.4081
| 19> C 	 -123.087 	 67.1758 	 -59.1669
| 20> H 	 -122.401 	 66.6455 	 -59.8166
| 21> H 	 -122.561 	 68.0585 	 -58.824
| 22> H 	 -123.278 	 66.5701 	 -58.2839
| 23> S 	 -127.51 	 66.9894 	 -54.399
| 24> C 	 -129.016 	 67.1831 	 -53.6654
| 25> C 	 -129.966 	 66.5157 	 -54.4315
| 26> C 	 -129.566 	 66.0276 	 -55.6872
| 27> C 	 -128.178 	 66.1578 	 -55.7395
| 28> H 	 -130.988 	 66.4887 	 -54.0529
| 29> C 	 -130.41 	 65.3002 	 -56.684
| 30> H 	 -129.677 	 64.7042 	 -57.2528
| 31> H 	 -130.918 	 65.994 	 -57.3279
| 32> C 	 -131.438 	 64.2954 	 -56.1086
| 33> H 	 -132.155 	 65.0038 	 -55.6619
| 34> H 	 -130.99 	 63.6943 	 -55.357
| 35> C 	 -132.201 	 63.5267 	 -57.2019
| 36> H 	 -132.67 	 64.186 	 -57.9306
| 37> H 	 -132.981 	 62.9466 	 -56.6315
| 38> H 	 -131.461 	 62.8524 	 -57.5494
| 39> H 	 -124.844 	 63.9727 	 -58.541
| 40> H 	 -129.299 	 67.6485 	 -52.7407
| 41> *
| 42>
| 43>                          ****END OF INPUT****

CARTESIAN COORDINATES (ANGSTROEM)
---------------------------------
  S    -126.426000   64.230900  -56.686200
  C    -125.635000   64.534300  -58.162300
  C    -125.842000   65.761600  -58.657400
  C    -126.793000   66.516700  -57.857100
  C    -127.199000   65.783900  -56.759900
  H    -127.144000   67.578100  -57.900500
  C    -125.319000   66.326100  -59.905000
  H    -126.099000   66.649300  -60.580800
  H    -124.762000   65.603600  -60.437400
  C    -124.454000   67.521900  -59.890400
  H    -124.217000   67.803400  -60.974000
  H    -124.932000   68.426100  -59.408100
  C    -123.087000   67.175800  -59.166900
  H    -122.401000   66.645500  -59.816600
  H    -122.561000   68.058500  -58.824000
  H    -123.278000   66.570100  -58.283900
  S    -127.510000   66.989400  -54.399000
  C    -129.016000   67.183100  -53.665400
  C    -129.966000   66.515700  -54.431500
  C    -129.566000   66.027600  -55.687200
  C    -128.178000   66.157800  -55.739500
  H    -130.988000   66.488700  -54.052900
  C    -130.410000   65.300200  -56.684000
  H    -129.677000   64.704200  -57.252800
  H    -130.918000   65.994000  -57.327900
  C    -131.438000   64.295400  -56.108600
  H    -132.155000   65.003800  -55.661900
  H    -130.990000   63.694300  -55.357000
  C    -132.201000   63.526700  -57.201900
  H    -132.670000   64.186000  -57.930600
  H    -132.981000   62.946600  -56.631500
  H    -131.461000   62.852400  -57.549400
  H    -124.844000   63.972700  -58.541000
  H    -129.299000   67.648500  -52.740700

 Total Charge           Charge          ....    0
 Multiplicity           Mult            ....    1
 Number of Electrons    NEL             ....  134
 Basis Dimension        Dim             ....  322

ORBITAL ENERGIES
----------------

  NO   OCC          E(Eh)            E(eV)
   0   2.0000     -88.965086     -2420.8631
   1   2.0000     -88.963868     -2420.8299
   2   2.0000     -10.323464      -280.9157
   3   2.0000     -10.318127      -280.7705
   4   2.0000     -10.308180      -280.4998
   5   2.0000     -10.301284      -280.3122
   6   2.0000     -10.298764      -280.2436
   7   2.0000     -10.296824      -280.1908
   8   2.0000     -10.295495      -280.1547
   9   2.0000     -10.293784      -280.1081
  10   2.0000     -10.286936      -279.9218
  11   2.0000     -10.286406      -279.9073
  12   2.0000     -10.282713      -279.8068
  13   2.0000     -10.280089      -279.7354
  14   2.0000     -10.278437      -279.6905
  15   2.0000     -10.272600      -279.5317
  16   2.0000      -8.081330      -219.9042
  17   2.0000      -8.079895      -219.8651
  18   2.0000      -6.039563      -164.3449
  19   2.0000      -6.038244      -164.3090
  20   2.0000      -6.035428      -164.2324
  21   2.0000      -6.034314      -164.2020
  22   2.0000      -6.032484      -164.1522
  23   2.0000      -6.030658      -164.1025
  24   2.0000      -1.015945       -27.6453
  25   2.0000      -0.995168       -27.0799
  26   2.0000      -0.920927       -25.0597
  27   2.0000      -0.912587       -24.8328
  28   2.0000      -0.870496       -23.6874
  29   2.0000      -0.855234       -23.2721
  30   2.0000      -0.844342       -22.9757
  31   2.0000      -0.812392       -22.1063
  32   2.0000      -0.785385       -21.3714
  33   2.0000      -0.776488       -21.1293
  34   2.0000      -0.705993       -19.2110
  35   2.0000      -0.698459       -19.0060
  36   2.0000      -0.690853       -18.7991
  37   2.0000      -0.651616       -17.7314
  38   2.0000      -0.643722       -17.5166
  39   2.0000      -0.620721       -16.8907
  40   2.0000      -0.598078       -16.2745
  41   2.0000      -0.578471       -15.7410
  42   2.0000      -0.571538       -15.5523
  43   2.0000      -0.552820       -15.0430
  44   2.0000      -0.538716       -14.6592
  45   2.0000      -0.523308       -14.2399
  46   2.0000      -0.521147       -14.1811
  47   2.0000      -0.513987       -13.9863
  48   2.0000      -0.504901       -13.7391
  49   2.0000      -0.497239       -13.5306
  50   2.0000      -0.491671       -13.3790
  51   2.0000      -0.479285       -13.0420
  52   2.0000      -0.469852       -12.7853
  53   2.0000      -0.466526       -12.6948
  54   2.0000      -0.460621       -12.5341
  55   2.0000      -0.449048       -12.2192
  56   2.0000      -0.445901       -12.1336
  57   2.0000      -0.440994       -12.0000
  58   2.0000      -0.434355       -11.8194
  59   2.0000      -0.423320       -11.5191
  60   2.0000      -0.418872       -11.3981
  61   2.0000      -0.416074       -11.3220
  62   2.0000      -0.402829       -10.9615
  63   2.0000      -0.336491        -9.1564
  64   2.0000      -0.327383        -8.9085
  65   2.0000      -0.320292        -8.7156
  66   2.0000      -0.313124        -8.5205
  67   0.0000       0.055438         1.5085
  68   0.0000       0.057843         1.5740
  69   0.0000       0.119743         3.2584
  70   0.0000       0.127137         3.4596
  71   0.0000       0.133730         3.6390

MULLIKEN ATOMIC CHARGES
-----------------------
   0 S :    0.122319
   1 C :   -0.078110
   2 C :   -0.087593
   3 C :    0.038193
   4 C :   -0.199539
   5 H :    0.035340
   6 C :    0.117513
   7 H :    0.027818
   8 H :   -0.006858
   9 C :   -0.119172
  10 H :    0.040615
  11 H :    0.039485
  12 C :   -0.062416
  13 H :    0.026186
  14 H :    0.029915
  15 H :    0.037108
  16 S :    0.143485
  17 C :   -0.076249
  18 C :   -0.079404
  19 C :    0.019537
  20 C :   -0.224411
  21 H :    0.012326
  22 C :    0.096230
  23 H :    0.023183
  24 H :    0.027578
  25 C :   -0.128260
  26 H :    0.026155
  27 H :    0.034441
  28 C :   -0.018148
  29 H :    0.040997
  30 H :    0.041620
  31 H :    0.032821
  32 H :    0.020920
  33 H :    0.046375
Sum of atomic charges:   -0.0000000

LOEWDIN ATOMIC CHARGES
----------------------
   0 S :    0.425423
   1 C :   -0.201382
   2 C :   -0.063692
   3 C :   -0.058821
   4 C :   -0.206791
   5 H :    0.043593
   6 C :   -0.040477
   7 H :    0.037086
   8 H :    0.024359
   9 C :   -0.041024
  10 H :    0.032215
  11 H :    0.024762
  12 C :   -0.070583
  13 H :    0.021800
  14 H :    0.023578
  15 H :    0.024761
  16 S :    0.461361
  17 C :   -0.216013
  18 C :   -0.077425
  19 C :   -0.055748
  20 C :   -0.222228
  21 H :    0.026133
  22 C :   -0.029726
  23 H :    0.029541
  24 H :    0.030154
  25 C :   -0.037368
  26 H :    0.020251
  27 H :    0.020332
  28 C :   -0.057456
  29 H :    0.027814
  30 H :    0.035209
  31 H :    0.022173
  32 H :    0.017880
  33 H :    0.030311

  Mayer bond orders larger than 0.100000
B(  0-S ,  1-C ) :   1.1330 B(  0-S ,  4-C ) :   1.1565 B(  1-C ,  2-C ) :   1.6554
B(  1-C , 32-H ) :   0.9602 B(  2-C ,  3-C ) :   1.1812 B(  2-C ,  6-C ) :   1.0495
B(  3-C ,  4-C ) :   1.6308 B(  3-C ,  5-H ) :   0.9873 B(  4-C , 20-C ) :   0.9742
B(  6-C ,  7-H ) :   0.9266 B(  6-C ,  8-H ) :   0.9281 B(  6-C ,  9-C ) :   1.0758
B(  9-C , 10-H ) :   0.9561 B(  9-C , 11-H ) :   0.9569 B(  9-C , 12-C ) :   1.0576
B( 12-C , 13-H ) :   0.9761 B( 12-C , 14-H ) :   0.9771 B( 12-C , 15-H ) :   0.9803
B( 16-S , 17-C ) :   1.1720 B( 16-S , 20-C ) :   1.2032 B( 17-C , 18-C ) :   1.5762
B( 17-C , 20-C ) :   0.1089 B( 17-C , 33-H ) :   0.9696 B( 18-C , 19-C ) :   1.2701
B( 18-C , 21-H ) :   0.9848 B( 19-C , 20-C ) :   1.5505 B( 19-C , 22-C ) :   1.0434
B( 22-C , 23-H ) :   0.9327 B( 22-C , 24-H ) :   0.9201 B( 22-C , 25-C ) :   1.0670
B( 25-C , 26-H ) :   0.9498 B( 25-C , 27-H ) :   0.9636 B( 25-C , 28-C ) :   1.0802
B( 28-C , 29-H ) :   0.9725 B( 28-C , 30-H ) :   0.9739 B( 28-C , 31-H ) :   0.9781

Dispersion correction           -0.014079996
FINAL SINGLE POINT ENERGY     -1339.874608943837

DIPOLE MOMENT
-------------
                                X             Y             Z
Electronic contribution:      4.33934       0.07883      16.07143
Nuclear contribution   :     -4.56130       0.04801     -16.36862
                        -----------------------------------------
Total Dipole Moment    :     -0.22196       0.12685      -0.29719
                        -----------------------------------------
Magnitude (a.u.)       :      0.39202
Magnitude (Debye)      :      0.99644

Rotational constants in cm-1:     0.020851     0.007882     0.006626
Rotational constants in MHz :   625.106290   236.297418   198.644541

                             ****ORCA TERMINATED NORMALLY****
TOTAL RUN TIME: 0 days 0 hours 0 minutes 21 seconds 277 msec
