                         Program Version 4.2.1 -  RELEASE  -
|  1> ! wB97X-D3 SP def2-SVP
|  2> %pal
|  3> nprocs 24
|  4> end
|  5>
|  6> * xyz 0 1
|  7> S 	 -62.8042 	 12.5378 	 -100.02
|  8> C 	 -64.2171 	 12.1141 	 -101.031
|  9> C 	 -63.8299 	 11.5741 	 -102.269
| 10> C 	 -62.354 	 11.4062 	 -102.222
| 11> C 	 -61.7042 	 11.7623 	 -101.13
| 12> H 	 -61.7394 	 10.9214 	 -102.977
| 13> C 	 -64.7285 	 11.0359 	 -103.336
| 14> H 	 -65.2505 	 11.8549 	 -103.794
| 15> H 	 -65.5183 	 10.577 	 -102.761
| 16> C 	 -64.1197 	 10.0356 	 -104.354
| 17> H 	 -63.2395 	 10.5779 	 -104.696
| 18> H 	 -63.7186 	 9.20198 	 -103.78
| 19> C 	 -65.0506 	 9.51889 	 -105.508
| 20> H 	 -65.2644 	 10.4005 	 -106.223
| 21> H 	 -64.3643 	 8.81963 	 -105.985
| 22> H 	 -65.963 	 8.92438 	 -105.305
| 23> S 	 -59.4953 	 13.0711 	 -100.31
| 24> C 	 -57.9207 	 12.4015 	 -100.348
| 25> C 	 -58.0728 	 11.0772 	 -100.763
| 26> C 	 -59.415 	 10.5803 	 -100.886
| 27> C 	 -60.2935 	 11.6343 	 -100.862
| 28> H 	 -57.3178 	 10.4113 	 -100.895
| 29> C 	 -59.7133 	 9.12811 	 -101.255
| 30> H 	 -60.8411 	 8.90813 	 -101.346
| 31> H 	 -59.537 	 8.4642 	 -100.434
| 32> C 	 -58.9328 	 8.72976 	 -102.491
| 33> H 	 -57.8464 	 8.65693 	 -102.375
| 34> H 	 -58.9984 	 9.55975 	 -103.223
| 35> C 	 -59.5111 	 7.44149 	 -103.037
| 36> H 	 -58.7926 	 7.00897 	 -103.736
| 37> H 	 -60.4437 	 7.40832 	 -103.516
| 38> H 	 -59.5799 	 6.78656 	 -102.102
| 39> H 	 -65.1765 	 12.3379 	 -100.668
| 40> H 	 -57.0059 	 13.0118 	 -100.434
| 41> *
| 42>
| 43>                          ****END OF INPUT****

CARTESIAN COORDINATES (ANGSTROEM)
---------------------------------
  S    -62.804200   12.537800  -100.020000
  C    -64.217100   12.114100  -101.031000
  C    -63.829900   11.574100  -102.269000
  C    -62.354000   11.406200  -102.222000
  C    -61.704200   11.762300  -101.130000
  H    -61.739400   10.921400  -102.977000
  C    -64.728500   11.035900  -103.336000
  H    -65.250500   11.854900  -103.794000
  H    -65.518300   10.577000  -102.761000
  C    -64.119700   10.035600  -104.354000
  H    -63.239500   10.577900  -104.696000
  H    -63.718600    9.201980  -103.780000
  C    -65.050600    9.518890  -105.508000
  H    -65.264400   10.400500  -106.223000
  H    -64.364300    8.819630  -105.985000
  H    -65.963000    8.924380  -105.305000
  S    -59.495300   13.071100  -100.310000
  C    -57.920700   12.401500  -100.348000
  C    -58.072800   11.077200  -100.763000
  C    -59.415000   10.580300  -100.886000
  C    -60.293500   11.634300  -100.862000
  H    -57.317800   10.411300  -100.895000
  C    -59.713300    9.128110  -101.255000
  H    -60.841100    8.908130  -101.346000
  H    -59.537000    8.464200  -100.434000
  C    -58.932800    8.729760  -102.491000
  H    -57.846400    8.656930  -102.375000
  H    -58.998400    9.559750  -103.223000
  C    -59.511100    7.441490  -103.037000
  H    -58.792600    7.008970  -103.736000
  H    -60.443700    7.408320  -103.516000
  H    -59.579900    6.786560  -102.102000
  H    -65.176500   12.337900  -100.668000
  H    -57.005900   13.011800  -100.434000

 Total Charge           Charge          ....    0
 Multiplicity           Mult            ....    1
 Number of Electrons    NEL             ....  134
 Basis Dimension        Dim             ....  322

ORBITAL ENERGIES
----------------

  NO   OCC          E(Eh)            E(eV)
   0   2.0000     -88.960051     -2420.7260
   1   2.0000     -88.958664     -2420.6883
   2   2.0000     -10.323315      -280.9117
   3   2.0000     -10.319808      -280.8163
   4   2.0000     -10.317950      -280.7657
   5   2.0000     -10.315625      -280.7024
   6   2.0000     -10.311252      -280.5834
   7   2.0000     -10.302031      -280.3325
   8   2.0000     -10.297177      -280.2004
   9   2.0000     -10.296444      -280.1805
  10   2.0000     -10.295730      -280.1611
  11   2.0000     -10.289784      -279.9993
  12   2.0000     -10.289630      -279.9951
  13   2.0000     -10.289553      -279.9930
  14   2.0000     -10.288168      -279.9553
  15   2.0000     -10.280254      -279.7399
  16   2.0000      -8.076158      -219.7634
  17   2.0000      -8.073403      -219.6885
  18   2.0000      -6.034696      -164.2124
  19   2.0000      -6.032134      -164.1427
  20   2.0000      -6.030246      -164.0913
  21   2.0000      -6.027942      -164.0286
  22   2.0000      -6.027007      -164.0032
  23   2.0000      -6.023900      -163.9187
  24   2.0000      -1.011794       -27.5323
  25   2.0000      -0.983473       -26.7617
  26   2.0000      -0.917447       -24.9650
  27   2.0000      -0.911259       -24.7966
  28   2.0000      -0.871570       -23.7166
  29   2.0000      -0.853128       -23.2148
  30   2.0000      -0.839737       -22.8504
  31   2.0000      -0.818552       -22.2739
  32   2.0000      -0.781984       -21.2789
  33   2.0000      -0.774471       -21.0744
  34   2.0000      -0.713900       -19.4262
  35   2.0000      -0.706639       -19.2286
  36   2.0000      -0.691730       -18.8229
  37   2.0000      -0.665485       -18.1088
  38   2.0000      -0.648784       -17.6543
  39   2.0000      -0.615591       -16.7511
  40   2.0000      -0.606088       -16.4925
  41   2.0000      -0.568625       -15.4731
  42   2.0000      -0.564348       -15.3567
  43   2.0000      -0.557512       -15.1707
  44   2.0000      -0.535420       -14.5695
  45   2.0000      -0.526570       -14.3287
  46   2.0000      -0.521686       -14.1958
  47   2.0000      -0.511782       -13.9263
  48   2.0000      -0.504270       -13.7219
  49   2.0000      -0.498720       -13.5709
  50   2.0000      -0.491212       -13.3665
  51   2.0000      -0.486812       -13.2468
  52   2.0000      -0.477329       -12.9888
  53   2.0000      -0.470595       -12.8055
  54   2.0000      -0.464896       -12.6505
  55   2.0000      -0.448358       -12.2004
  56   2.0000      -0.441398       -12.0110
  57   2.0000      -0.436636       -11.8815
  58   2.0000      -0.433785       -11.8039
  59   2.0000      -0.421289       -11.4638
  60   2.0000      -0.419164       -11.4060
  61   2.0000      -0.412948       -11.2369
  62   2.0000      -0.409482       -11.1426
  63   2.0000      -0.349130        -9.5003
  64   2.0000      -0.326952        -8.8968
  65   2.0000      -0.323901        -8.8138
  66   2.0000      -0.294083        -8.0024
  67   0.0000       0.037589         1.0228
  68   0.0000       0.064442         1.7535
  69   0.0000       0.114073         3.1041
  70   0.0000       0.120850         3.2885
  71   0.0000       0.122796         3.3414

MULLIKEN ATOMIC CHARGES
-----------------------
   0 S :    0.089556
   1 C :   -0.121224
   2 C :   -0.073090
   3 C :   -0.010593
   4 C :   -0.113742
   5 H :    0.004437
   6 C :    0.095477
   7 H :    0.027788
   8 H :    0.020548
   9 C :   -0.111245
  10 H :    0.044063
  11 H :    0.031485
  12 C :   -0.058713
  13 H :    0.052462
  14 H :    0.035875
  15 H :    0.053281
  16 S :    0.097685
  17 C :   -0.079414
  18 C :   -0.014081
  19 C :   -0.036040
  20 C :   -0.168048
  21 H :   -0.025792
  22 C :    0.044764
  23 H :    0.042296
  24 H :    0.025830
  25 C :   -0.096513
  26 H :    0.037164
  27 H :    0.033624
  28 C :   -0.036548
  29 H :    0.029182
  30 H :    0.033180
  31 H :    0.030601
  32 H :    0.032052
  33 H :    0.083693
Sum of atomic charges:    0.0000000

LOEWDIN ATOMIC CHARGES
----------------------
   0 S :    0.376803
   1 C :   -0.172196
   2 C :   -0.049691
   3 C :   -0.072508
   4 C :   -0.197353
   5 H :    0.028654
   6 C :   -0.041213
   7 H :    0.031750
   8 H :    0.033467
   9 C :   -0.041048
  10 H :    0.026801
  11 H :    0.024347
  12 C :   -0.072673
  13 H :    0.037835
  14 H :    0.030417
  15 H :    0.031500
  16 S :    0.426353
  17 C :   -0.207342
  18 C :   -0.057838
  19 C :   -0.055885
  20 C :   -0.195343
  21 H :    0.007615
  22 C :   -0.038764
  23 H :    0.042837
  24 H :    0.028529
  25 C :   -0.047067
  26 H :    0.027067
  27 H :    0.024841
  28 C :   -0.063745
  29 H :    0.026339
  30 H :    0.017604
  31 H :    0.033818
  32 H :    0.013947
  33 H :    0.042143

  Mayer bond orders larger than 0.100000
B(  0-S ,  1-C ) :   1.1289 B(  0-S ,  4-C ) :   1.1127 B(  1-C ,  2-C ) :   1.6266
B(  1-C , 32-H ) :   0.9828 B(  2-C ,  3-C ) :   1.1785 B(  2-C ,  6-C ) :   1.0140
B(  3-C ,  4-C ) :   1.6642 B(  3-C ,  5-H ) :   0.9886 B(  4-C , 20-C ) :   1.0145
B(  6-C ,  7-H ) :   0.9244 B(  6-C ,  8-H ) :   0.9356 B(  6-C ,  9-C ) :   1.0722
B(  9-C , 10-H ) :   0.9491 B(  9-C , 11-H ) :   0.9571 B(  9-C , 12-C ) :   1.0701
B( 12-C , 13-H ) :   0.9737 B( 12-C , 14-H ) :   0.9735 B( 12-C , 15-H ) :   0.9766
B( 16-S , 17-C ) :   1.1613 B( 16-S , 20-C ) :   1.1641 B( 17-C , 18-C ) :   1.5699
B( 17-C , 20-C ) :   0.1022 B( 17-C , 33-H ) :   0.9654 B( 18-C , 19-C ) :   1.2531
B( 18-C , 21-H ) :   0.9983 B( 19-C , 20-C ) :   1.5882 B( 19-C , 22-C ) :   1.0479
B( 22-C , 23-H ) :   0.9456 B( 22-C , 24-H ) :   0.9174 B( 22-C , 25-C ) :   1.0498
B( 25-C , 26-H ) :   0.9472 B( 25-C , 27-H ) :   0.9584 B( 25-C , 28-C ) :   1.0807
B( 28-C , 29-H ) :   0.9720 B( 28-C , 30-H ) :   0.9787 B( 28-C , 31-H ) :   0.9695

Dispersion correction           -0.013927512
FINAL SINGLE POINT ENERGY     -1339.855143277649

DIPOLE MOMENT
-------------
                                X             Y             Z
Electronic contribution:      5.52268      23.75698      22.03113
Nuclear contribution   :     -5.57840     -24.42898     -22.69465
                        -----------------------------------------
Total Dipole Moment    :     -0.05572      -0.67200      -0.66352
                        -----------------------------------------
Magnitude (a.u.)       :      0.94602
Magnitude (Debye)      :      2.40459

Rotational constants in cm-1:     0.016289     0.009648     0.006555
Rotational constants in MHz :   488.338658   289.251380   196.512513

                             ****ORCA TERMINATED NORMALLY****
TOTAL RUN TIME: 0 days 0 hours 0 minutes 20 seconds 506 msec
