                         Program Version 4.2.1 -  RELEASE  -
|  1> ! wB97X-D3 SP def2-SVP
|  2> %pal
|  3> nprocs 24
|  4> end
|  5>
|  6> * xyz 0 1
|  7> S 	 -33.2153 	 -37.4618 	 -92.1691
|  8> C 	 -33.3997 	 -35.6944 	 -92.207
|  9> C 	 -32.1855 	 -35.0163 	 -91.9182
| 10> C 	 -31.1829 	 -35.9621 	 -91.5362
| 11> C 	 -31.5921 	 -37.2789 	 -91.5277
| 12> H 	 -30.247 	 -35.6064 	 -91.2194
| 13> C 	 -31.9289 	 -33.5332 	 -92.0778
| 14> H 	 -31.5034 	 -33.2148 	 -91.094
| 15> H 	 -32.8602 	 -32.9494 	 -92.1677
| 16> C 	 -30.978 	 -33.2168 	 -93.3195
| 17> H 	 -30.9795 	 -32.1088 	 -93.3839
| 18> H 	 -29.9929 	 -33.6082 	 -93.0153
| 19> C 	 -31.3959 	 -33.9883 	 -94.5773
| 20> H 	 -32.3306 	 -33.7195 	 -95.0792
| 21> H 	 -30.6573 	 -33.7846 	 -95.3793
| 22> H 	 -31.3635 	 -35.0679 	 -94.4482
| 23> S 	 -30.3401 	 -39.6104 	 -92.5608
| 24> C 	 -29.0659 	 -40.2156 	 -91.4707
| 25> C 	 -28.945 	 -39.5311 	 -90.2577
| 26> C 	 -29.9967 	 -38.6106 	 -90.0969
| 27> C 	 -30.7101 	 -38.4374 	 -91.2604
| 28> H 	 -28.1792 	 -39.851 	 -89.6129
| 29> C 	 -30.1287 	 -37.7067 	 -88.9186
| 30> H 	 -30.7909 	 -38.1715 	 -88.2526
| 31> H 	 -30.6514 	 -36.8357 	 -89.2563
| 32> C 	 -28.9358 	 -37.5224 	 -88.0959
| 33> H 	 -28.0306 	 -37.2352 	 -88.6136
| 34> H 	 -28.6877 	 -38.5346 	 -87.753
| 35> C 	 -29.1188 	 -36.6861 	 -86.7545
| 36> H 	 -29.2617 	 -35.6788 	 -86.9786
| 37> H 	 -28.2542 	 -36.6616 	 -86.0088
| 38> H 	 -29.9668 	 -37.1246 	 -86.1879
| 39> H 	 -34.1977 	 -35.1655 	 -92.7112
| 40> H 	 -28.2705 	 -40.9472 	 -91.7526
| 41> *
| 42>
| 43>                          ****END OF INPUT****

CARTESIAN COORDINATES (ANGSTROEM)
---------------------------------
  S    -33.215300  -37.461800  -92.169100
  C    -33.399700  -35.694400  -92.207000
  C    -32.185500  -35.016300  -91.918200
  C    -31.182900  -35.962100  -91.536200
  C    -31.592100  -37.278900  -91.527700
  H    -30.247000  -35.606400  -91.219400
  C    -31.928900  -33.533200  -92.077800
  H    -31.503400  -33.214800  -91.094000
  H    -32.860200  -32.949400  -92.167700
  C    -30.978000  -33.216800  -93.319500
  H    -30.979500  -32.108800  -93.383900
  H    -29.992900  -33.608200  -93.015300
  C    -31.395900  -33.988300  -94.577300
  H    -32.330600  -33.719500  -95.079200
  H    -30.657300  -33.784600  -95.379300
  H    -31.363500  -35.067900  -94.448200
  S    -30.340100  -39.610400  -92.560800
  C    -29.065900  -40.215600  -91.470700
  C    -28.945000  -39.531100  -90.257700
  C    -29.996700  -38.610600  -90.096900
  C    -30.710100  -38.437400  -91.260400
  H    -28.179200  -39.851000  -89.612900
  C    -30.128700  -37.706700  -88.918600
  H    -30.790900  -38.171500  -88.252600
  H    -30.651400  -36.835700  -89.256300
  C    -28.935800  -37.522400  -88.095900
  H    -28.030600  -37.235200  -88.613600
  H    -28.687700  -38.534600  -87.753000
  C    -29.118800  -36.686100  -86.754500
  H    -29.261700  -35.678800  -86.978600
  H    -28.254200  -36.661600  -86.008800
  H    -29.966800  -37.124600  -86.187900
  H    -34.197700  -35.165500  -92.711200
  H    -28.270500  -40.947200  -91.752600

 Total Charge           Charge          ....    0
 Multiplicity           Mult            ....    1
 Number of Electrons    NEL             ....  134
 Basis Dimension        Dim             ....  322

ORBITAL ENERGIES
----------------

  NO   OCC          E(Eh)            E(eV)
   0   2.0000     -88.972183     -2421.0562
   1   2.0000     -88.968371     -2420.9525
   2   2.0000     -10.330119      -281.0968
   3   2.0000     -10.325684      -280.9761
   4   2.0000     -10.323053      -280.9046
   5   2.0000     -10.314716      -280.6777
   6   2.0000     -10.302862      -280.3551
   7   2.0000     -10.299728      -280.2698
   8   2.0000     -10.299562      -280.2653
   9   2.0000     -10.299242      -280.2566
  10   2.0000     -10.291845      -280.0553
  11   2.0000     -10.290465      -280.0178
  12   2.0000     -10.286396      -279.9071
  13   2.0000     -10.285491      -279.8824
  14   2.0000     -10.278396      -279.6894
  15   2.0000     -10.276471      -279.6370
  16   2.0000      -8.085557      -220.0192
  17   2.0000      -8.082313      -219.9309
  18   2.0000      -6.044005      -164.4657
  19   2.0000      -6.040815      -164.3789
  20   2.0000      -6.040548      -164.3717
  21   2.0000      -6.037012      -164.2754
  22   2.0000      -6.036167      -164.2525
  23   2.0000      -6.033073      -164.1683
  24   2.0000      -1.002293       -27.2738
  25   2.0000      -0.978628       -26.6298
  26   2.0000      -0.918610       -24.9966
  27   2.0000      -0.905343       -24.6356
  28   2.0000      -0.861018       -23.4295
  29   2.0000      -0.850988       -23.1566
  30   2.0000      -0.843586       -22.9551
  31   2.0000      -0.810883       -22.0652
  32   2.0000      -0.785854       -21.3842
  33   2.0000      -0.771797       -21.0017
  34   2.0000      -0.709205       -19.2984
  35   2.0000      -0.701208       -19.0808
  36   2.0000      -0.692872       -18.8540
  37   2.0000      -0.653658       -17.7869
  38   2.0000      -0.635147       -17.2832
  39   2.0000      -0.625160       -17.0115
  40   2.0000      -0.599795       -16.3213
  41   2.0000      -0.574554       -15.6344
  42   2.0000      -0.564845       -15.3702
  43   2.0000      -0.545892       -14.8545
  44   2.0000      -0.539334       -14.6760
  45   2.0000      -0.525603       -14.3024
  46   2.0000      -0.513051       -13.9608
  47   2.0000      -0.504869       -13.7382
  48   2.0000      -0.499895       -13.6028
  49   2.0000      -0.489432       -13.3181
  50   2.0000      -0.485480       -13.2106
  51   2.0000      -0.476831       -12.9752
  52   2.0000      -0.469310       -12.7706
  53   2.0000      -0.462128       -12.5751
  54   2.0000      -0.459175       -12.4948
  55   2.0000      -0.454050       -12.3553
  56   2.0000      -0.448945       -12.2164
  57   2.0000      -0.439998       -11.9729
  58   2.0000      -0.433443       -11.7946
  59   2.0000      -0.428957       -11.6725
  60   2.0000      -0.424556       -11.5527
  61   2.0000      -0.416529       -11.3343
  62   2.0000      -0.411121       -11.1872
  63   2.0000      -0.340184        -9.2569
  64   2.0000      -0.336577        -9.1587
  65   2.0000      -0.326584        -8.8868
  66   2.0000      -0.289756        -7.8847
  67   0.0000       0.029425         0.8007
  68   0.0000       0.059439         1.6174
  69   0.0000       0.103263         2.8099
  70   0.0000       0.119041         3.2393
  71   0.0000       0.123818         3.3693

MULLIKEN ATOMIC CHARGES
-----------------------
   0 S :    0.107074
   1 C :   -0.109026
   2 C :   -0.137615
   3 C :    0.061285
   4 C :   -0.186440
   5 H :   -0.006049
   6 C :    0.044872
   7 H :    0.038820
   8 H :    0.025271
   9 C :   -0.072329
  10 H :    0.047800
  11 H :    0.035298
  12 C :   -0.063758
  13 H :    0.031299
  14 H :    0.031005
  15 H :    0.054739
  16 S :    0.117758
  17 C :   -0.097863
  18 C :   -0.052404
  19 C :   -0.029368
  20 C :   -0.148724
  21 H :    0.009063
  22 C :    0.179302
  23 H :    0.007380
  24 H :    0.014365
  25 C :   -0.111142
  26 H :    0.024781
  27 H :    0.023510
  28 C :   -0.052181
  29 H :    0.025918
  30 H :    0.041823
  31 H :    0.035189
  32 H :    0.045858
  33 H :    0.064487
Sum of atomic charges:   -0.0000000

LOEWDIN ATOMIC CHARGES
----------------------
   0 S :    0.394506
   1 C :   -0.199309
   2 C :   -0.059648
   3 C :   -0.057681
   4 C :   -0.190347
   5 H :    0.021353
   6 C :   -0.039016
   7 H :    0.034710
   8 H :    0.029015
   9 C :   -0.035032
  10 H :    0.029949
  11 H :    0.026557
  12 C :   -0.074022
  13 H :    0.024336
  14 H :    0.030562
  15 H :    0.032007
  16 S :    0.378349
  17 C :   -0.175686
  18 C :   -0.066481
  19 C :   -0.044448
  20 C :   -0.190582
  21 H :    0.026946
  22 C :   -0.032843
  23 H :    0.034390
  24 H :    0.027781
  25 C :   -0.040665
  26 H :    0.018143
  27 H :    0.024462
  28 C :   -0.063933
  29 H :    0.013489
  30 H :    0.035230
  31 H :    0.028523
  32 H :    0.024192
  33 H :    0.035194

  Mayer bond orders larger than 0.100000
B(  0-S ,  1-C ) :   1.1349 B(  0-S ,  4-C ) :   1.1518 B(  1-C ,  2-C ) :   1.6024
B(  1-C , 32-H ) :   0.9616 B(  2-C ,  3-C ) :   1.2579 B(  2-C ,  6-C ) :   1.0286
B(  3-C ,  4-C ) :   1.5543 B(  3-C ,  5-H ) :   0.9967 B(  4-C , 20-C ) :   1.0276
B(  6-C ,  7-H ) :   0.9437 B(  6-C ,  8-H ) :   0.9441 B(  6-C ,  9-C ) :   1.0487
B(  9-C , 10-H ) :   0.9616 B(  9-C , 11-H ) :   0.9551 B(  9-C , 12-C ) :   1.0767
B( 12-C , 13-H ) :   0.9773 B( 12-C , 14-H ) :   0.9718 B( 12-C , 15-H ) :   0.9666
B( 16-S , 17-C ) :   1.1399 B( 16-S , 20-C ) :   1.1242 B( 17-C , 18-C ) :   1.6437
B( 17-C , 33-H ) :   0.9543 B( 18-C , 19-C ) :   1.2145 B( 18-C , 21-H ) :   0.9930
B( 19-C , 20-C ) :   1.6168 B( 19-C , 22-C ) :   1.0414 B( 22-C , 23-H ) :   0.8905
B( 22-C , 24-H ) :   0.9250 B( 22-C , 25-C ) :   1.0759 B( 25-C , 26-H ) :   0.9612
B( 25-C , 27-H ) :   0.9372 B( 25-C , 28-C ) :   1.0717 B( 28-C , 29-H ) :   0.9792
B( 28-C , 30-H ) :   0.9775 B( 28-C , 31-H ) :   0.9744

Dispersion correction           -0.014706637
FINAL SINGLE POINT ENERGY     -1339.862312562630

DIPOLE MOMENT
-------------
                                X             Y             Z
Electronic contribution:     -9.57674     -19.69057     -10.20717
Nuclear contribution   :     10.06482      20.17282      10.40227
                        -----------------------------------------
Total Dipole Moment    :      0.48808       0.48225       0.19510
                        -----------------------------------------
Magnitude (a.u.)       :      0.71334
Magnitude (Debye)      :      1.81316

Rotational constants in cm-1:     0.016951     0.009156     0.007277
Rotational constants in MHz :   508.179583   274.482823   218.163045

                             ****ORCA TERMINATED NORMALLY****
TOTAL RUN TIME: 0 days 0 hours 0 minutes 21 seconds 998 msec
