                         Program Version 4.2.1 -  RELEASE  -
|  1> ! wB97X-D3 SP def2-SVP
|  2> %pal
|  3> nprocs 24
|  4> end
|  5>
|  6> * xyz 0 1
|  7> S 	 -86.9706 	 4.45852 	 -115.157
|  8> C 	 -86.1822 	 2.87212 	 -115.1
|  9> C 	 -86.4605 	 2.08874 	 -116.193
| 10> C 	 -87.3949 	 2.7523 	 -117.048
| 11> C 	 -87.8689 	 3.99193 	 -116.618
| 12> H 	 -87.7397 	 2.21122 	 -117.877
| 13> C 	 -85.96 	 0.69648 	 -116.628
| 14> H 	 -84.871 	 0.791742 	 -116.745
| 15> H 	 -86.2901 	 0.531429 	 -117.615
| 16> C 	 -86.4039 	 -0.360071 	 -115.619
| 17> H 	 -86.1369 	 -1.31018 	 -115.984
| 18> H 	 -85.7668 	 -0.329306 	 -114.77
| 19> C 	 -87.9514 	 -0.411479 	 -115.322
| 20> H 	 -88.3687 	 0.520161 	 -114.828
| 21> H 	 -88.4816 	 -0.44327 	 -116.293
| 22> H 	 -88.1756 	 -1.30162 	 -114.745
| 23> S 	 -88.019 	 6.24135 	 -118.107
| 24> C 	 -89.4943 	 6.70118 	 -118.967
| 25> C 	 -90.4704 	 5.80046 	 -118.76
| 26> C 	 -89.9755 	 4.65015 	 -118.026
| 27> C 	 -88.7826 	 4.85749 	 -117.4
| 28> H 	 -91.4203 	 6.0642 	 -119.255
| 29> C 	 -90.7999 	 3.46078 	 -117.724
| 30> H 	 -90.3335 	 2.51815 	 -117.631
| 31> H 	 -91.4563 	 3.32053 	 -118.549
| 32> C 	 -91.6941 	 3.75132 	 -116.523
| 33> H 	 -92.3359 	 4.68281 	 -116.62
| 34> H 	 -91.0119 	 3.90419 	 -115.717
| 35> C 	 -92.7954 	 2.6663 	 -116.276
| 36> H 	 -93.3485 	 2.71399 	 -115.342
| 37> H 	 -92.3269 	 1.6414 	 -116.221
| 38> H 	 -93.5088 	 2.57896 	 -117.159
| 39> H 	 -85.4989 	 2.57971 	 -114.285
| 40> H 	 -89.6173 	 7.54025 	 -119.622
| 41> *
| 42>
| 43>                          ****END OF INPUT****

CARTESIAN COORDINATES (ANGSTROEM)
---------------------------------
  S    -86.970600    4.458520  -115.157000
  C    -86.182200    2.872120  -115.100000
  C    -86.460500    2.088740  -116.193000
  C    -87.394900    2.752300  -117.048000
  C    -87.868900    3.991930  -116.618000
  H    -87.739700    2.211220  -117.877000
  C    -85.960000    0.696480  -116.628000
  H    -84.871000    0.791742  -116.745000
  H    -86.290100    0.531429  -117.615000
  C    -86.403900   -0.360071  -115.619000
  H    -86.136900   -1.310180  -115.984000
  H    -85.766800   -0.329306  -114.770000
  C    -87.951400   -0.411479  -115.322000
  H    -88.368700    0.520161  -114.828000
  H    -88.481600   -0.443270  -116.293000
  H    -88.175600   -1.301620  -114.745000
  S    -88.019000    6.241350  -118.107000
  C    -89.494300    6.701180  -118.967000
  C    -90.470400    5.800460  -118.760000
  C    -89.975500    4.650150  -118.026000
  C    -88.782600    4.857490  -117.400000
  H    -91.420300    6.064200  -119.255000
  C    -90.799900    3.460780  -117.724000
  H    -90.333500    2.518150  -117.631000
  H    -91.456300    3.320530  -118.549000
  C    -91.694100    3.751320  -116.523000
  H    -92.335900    4.682810  -116.620000
  H    -91.011900    3.904190  -115.717000
  C    -92.795400    2.666300  -116.276000
  H    -93.348500    2.713990  -115.342000
  H    -92.326900    1.641400  -116.221000
  H    -93.508800    2.578960  -117.159000
  H    -85.498900    2.579710  -114.285000
  H    -89.617300    7.540250  -119.622000

 Total Charge           Charge          ....    0
 Multiplicity           Mult            ....    1
 Number of Electrons    NEL             ....  134
 Basis Dimension        Dim             ....  322

ORBITAL ENERGIES
----------------

  NO   OCC          E(Eh)            E(eV)
   0   2.0000     -88.970327     -2421.0057
   1   2.0000     -88.956210     -2420.6215
   2   2.0000     -10.335290      -281.2375
   3   2.0000     -10.323163      -280.9075
   4   2.0000     -10.318376      -280.7773
   5   2.0000     -10.311872      -280.6003
   6   2.0000     -10.302561      -280.3469
   7   2.0000     -10.299324      -280.2589
   8   2.0000     -10.295195      -280.1465
   9   2.0000     -10.294838      -280.1368
  10   2.0000     -10.289893      -280.0022
  11   2.0000     -10.286549      -279.9112
  12   2.0000     -10.285869      -279.8927
  13   2.0000     -10.285350      -279.8786
  14   2.0000     -10.284513      -279.8558
  15   2.0000     -10.278814      -279.7008
  16   2.0000      -8.083958      -219.9757
  17   2.0000      -8.071612      -219.6397
  18   2.0000      -6.042613      -164.4278
  19   2.0000      -6.038630      -164.3195
  20   2.0000      -6.034617      -164.2103
  21   2.0000      -6.030207      -164.0903
  22   2.0000      -6.026083      -163.9781
  23   2.0000      -6.022152      -163.8711
  24   2.0000      -1.007104       -27.4047
  25   2.0000      -0.983630       -26.7659
  26   2.0000      -0.911535       -24.8041
  27   2.0000      -0.910404       -24.7734
  28   2.0000      -0.869965       -23.6729
  29   2.0000      -0.845505       -23.0074
  30   2.0000      -0.838691       -22.8219
  31   2.0000      -0.814082       -22.1523
  32   2.0000      -0.784266       -21.3410
  33   2.0000      -0.770151       -20.9569
  34   2.0000      -0.713283       -19.4094
  35   2.0000      -0.703517       -19.1437
  36   2.0000      -0.693495       -18.8710
  37   2.0000      -0.661375       -17.9969
  38   2.0000      -0.637254       -17.3406
  39   2.0000      -0.619112       -16.8469
  40   2.0000      -0.598218       -16.2783
  41   2.0000      -0.575114       -15.6496
  42   2.0000      -0.561924       -15.2907
  43   2.0000      -0.555628       -15.1194
  44   2.0000      -0.543769       -14.7967
  45   2.0000      -0.519005       -14.1228
  46   2.0000      -0.509141       -13.8544
  47   2.0000      -0.504760       -13.7352
  48   2.0000      -0.503254       -13.6942
  49   2.0000      -0.495622       -13.4866
  50   2.0000      -0.492307       -13.3964
  51   2.0000      -0.475362       -12.9353
  52   2.0000      -0.472400       -12.8546
  53   2.0000      -0.465097       -12.6559
  54   2.0000      -0.458337       -12.4720
  55   2.0000      -0.447424       -12.1750
  56   2.0000      -0.442560       -12.0427
  57   2.0000      -0.438897       -11.9430
  58   2.0000      -0.431983       -11.7549
  59   2.0000      -0.428174       -11.6512
  60   2.0000      -0.416101       -11.3227
  61   2.0000      -0.414547       -11.2804
  62   2.0000      -0.411567       -11.1993
  63   2.0000      -0.346892        -9.4394
  64   2.0000      -0.332026        -9.0349
  65   2.0000      -0.320864        -8.7312
  66   2.0000      -0.298968        -8.1353
  67   0.0000       0.034783         0.9465
  68   0.0000       0.066825         1.8184
  69   0.0000       0.113423         3.0864
  70   0.0000       0.118671         3.2292
  71   0.0000       0.133178         3.6240

MULLIKEN ATOMIC CHARGES
-----------------------
   0 S :    0.113997
   1 C :   -0.151195
   2 C :   -0.111652
   3 C :    0.051383
   4 C :   -0.149589
   5 H :   -0.010339
   6 C :    0.107440
   7 H :    0.040013
   8 H :    0.002217
   9 C :   -0.031262
  10 H :    0.007852
  11 H :    0.016770
  12 C :   -0.075580
  13 H :    0.060569
  14 H :    0.028289
  15 H :    0.043532
  16 S :    0.084487
  17 C :   -0.080788
  18 C :   -0.036438
  19 C :   -0.062959
  20 C :   -0.116928
  21 H :    0.031625
  22 C :    0.116573
  23 H :    0.010251
  24 H :   -0.005141
  25 C :   -0.081353
  26 H :    0.038536
  27 H :    0.026913
  28 C :   -0.072108
  29 H :    0.041836
  30 H :    0.021171
  31 H :    0.038651
  32 H :    0.056782
  33 H :    0.046444
Sum of atomic charges:    0.0000000

LOEWDIN ATOMIC CHARGES
----------------------
   0 S :    0.392704
   1 C :   -0.192646
   2 C :   -0.062944
   3 C :   -0.052678
   4 C :   -0.195196
   5 H :    0.018197
   6 C :   -0.020750
   7 H :    0.038640
   8 H :    0.020683
   9 C :   -0.036907
  10 H :    0.018385
  11 H :    0.019733
  12 C :   -0.067612
  13 H :    0.035239
  14 H :    0.026207
  15 H :    0.026715
  16 S :    0.392999
  17 C :   -0.170486
  18 C :   -0.074548
  19 C :   -0.052488
  20 C :   -0.199508
  21 H :    0.042143
  22 C :   -0.030416
  23 H :    0.024216
  24 H :    0.024206
  25 C :   -0.034916
  26 H :    0.031922
  27 H :    0.019991
  28 C :   -0.079646
  29 H :    0.025519
  30 H :    0.023297
  31 H :    0.029892
  32 H :    0.032363
  33 H :    0.027691

  Mayer bond orders larger than 0.100000
B(  0-S ,  1-C ) :   1.1380 B(  0-S ,  4-C ) :   1.1418 B(  1-C ,  2-C ) :   1.6183
B(  1-C , 32-H ) :   0.9637 B(  2-C ,  3-C ) :   1.2641 B(  2-C ,  6-C ) :   1.0021
B(  3-C ,  4-C ) :   1.5593 B(  3-C ,  5-H ) :   0.9949 B(  4-C , 20-C ) :   1.0136
B(  6-C ,  7-H ) :   0.9374 B(  6-C ,  8-H ) :   0.9401 B(  6-C ,  9-C ) :   1.0773
B(  9-C , 10-H ) :   0.9530 B(  9-C , 11-H ) :   0.9545 B(  9-C , 12-C ) :   1.0628
B( 12-C , 13-H ) :   0.9729 B( 12-C , 14-H ) :   0.9762 B( 12-C , 15-H ) :   0.9762
B( 16-S , 17-C ) :   1.1394 B( 16-S , 20-C ) :   1.1305 B( 17-C , 18-C ) :   1.6712
B( 17-C , 33-H ) :   0.9674 B( 18-C , 19-C ) :   1.1745 B( 18-C , 21-H ) :   0.9883
B( 19-C , 20-C ) :   1.6377 B( 19-C , 22-C ) :   1.0783 B( 22-C , 23-H ) :   0.9334
B( 22-C , 24-H ) :   0.9173 B( 22-C , 25-C ) :   1.0534 B( 25-C , 26-H ) :   0.9587
B( 25-C , 27-H ) :   0.9601 B( 25-C , 28-C ) :   1.0642 B( 28-C , 29-H ) :   0.9758
B( 28-C , 30-H ) :   0.9737 B( 28-C , 31-H ) :   0.9754

Dispersion correction           -0.014904438
FINAL SINGLE POINT ENERGY     -1339.864513197922

DIPOLE MOMENT
-------------
                                X             Y             Z
Electronic contribution:     13.51757      24.54136      -3.06775
Nuclear contribution   :    -13.69441     -25.22776       2.81166
                        -----------------------------------------
Total Dipole Moment    :     -0.17685      -0.68640      -0.25609
                        -----------------------------------------
Magnitude (a.u.)       :      0.75366
Magnitude (Debye)      :      1.91565

Rotational constants in cm-1:     0.017927     0.009477     0.007198
Rotational constants in MHz :   537.446854   284.124930   215.795629

                             ****ORCA TERMINATED NORMALLY****
TOTAL RUN TIME: 0 days 0 hours 0 minutes 22 seconds 201 msec
