                         Program Version 4.2.1 -  RELEASE  -
|  1> ! wB97X-D3 SP def2-SVP
|  2> %pal
|  3> nprocs 24
|  4> end
|  5>
|  6> * xyz 0 1
|  7> S 	 -62.8174 	 17.5714 	 -119.207
|  8> C 	 -62.1554 	 15.8978 	 -119.123
|  9> C 	 -63.0251 	 14.895 	 -118.84
| 10> C 	 -64.3612 	 15.4042 	 -118.761
| 11> C 	 -64.4114 	 16.8067 	 -118.907
| 12> H 	 -65.2498 	 14.829 	 -118.58
| 13> C 	 -62.6129 	 13.4469 	 -118.717
| 14> H 	 -61.7233 	 13.3807 	 -119.315
| 15> H 	 -63.4397 	 12.9717 	 -119.142
| 16> C 	 -62.3931 	 12.873 	 -117.225
| 17> H 	 -61.6547 	 13.4798 	 -116.739
| 18> H 	 -63.2934 	 12.967 	 -116.695
| 19> C 	 -61.9809 	 11.3379 	 -117.186
| 20> H 	 -61.7294 	 10.9983 	 -116.198
| 21> H 	 -62.7973 	 10.7451 	 -117.55
| 22> H 	 -61.0914 	 11.1659 	 -117.825
| 23> S 	 -66.2331 	 17.7595 	 -120.642
| 24> C 	 -67.8059 	 18.2412 	 -120.079
| 25> C 	 -67.9706 	 17.9395 	 -118.755
| 26> C 	 -66.7789 	 17.5185 	 -118.217
| 27> C 	 -65.7427 	 17.3761 	 -119.076
| 28> H 	 -68.94 	 17.8996 	 -118.302
| 29> C 	 -66.659 	 17.2946 	 -116.73
| 30> H 	 -67.1267 	 18.109 	 -116.208
| 31> H 	 -65.6215 	 17.407 	 -116.304
| 32> C 	 -67.272 	 15.9404 	 -116.324
| 33> H 	 -67.0181 	 15.0637 	 -116.947
| 34> H 	 -68.3358 	 15.9728 	 -116.379
| 35> C 	 -66.9614 	 15.644 	 -114.834
| 36> H 	 -65.8821 	 15.421 	 -114.558
| 37> H 	 -67.4826 	 14.738 	 -114.537
| 38> H 	 -67.24 	 16.4862 	 -114.246
| 39> H 	 -61.1871 	 15.6536 	 -119.312
| 40> H 	 -68.6498 	 18.6778 	 -120.637
| 41> *
| 42>
| 43>                          ****END OF INPUT****

CARTESIAN COORDINATES (ANGSTROEM)
---------------------------------
  S    -62.817400   17.571400  -119.207000
  C    -62.155400   15.897800  -119.123000
  C    -63.025100   14.895000  -118.840000
  C    -64.361200   15.404200  -118.761000
  C    -64.411400   16.806700  -118.907000
  H    -65.249800   14.829000  -118.580000
  C    -62.612900   13.446900  -118.717000
  H    -61.723300   13.380700  -119.315000
  H    -63.439700   12.971700  -119.142000
  C    -62.393100   12.873000  -117.225000
  H    -61.654700   13.479800  -116.739000
  H    -63.293400   12.967000  -116.695000
  C    -61.980900   11.337900  -117.186000
  H    -61.729400   10.998300  -116.198000
  H    -62.797300   10.745100  -117.550000
  H    -61.091400   11.165900  -117.825000
  S    -66.233100   17.759500  -120.642000
  C    -67.805900   18.241200  -120.079000
  C    -67.970600   17.939500  -118.755000
  C    -66.778900   17.518500  -118.217000
  C    -65.742700   17.376100  -119.076000
  H    -68.940000   17.899600  -118.302000
  C    -66.659000   17.294600  -116.730000
  H    -67.126700   18.109000  -116.208000
  H    -65.621500   17.407000  -116.304000
  C    -67.272000   15.940400  -116.324000
  H    -67.018100   15.063700  -116.947000
  H    -68.335800   15.972800  -116.379000
  C    -66.961400   15.644000  -114.834000
  H    -65.882100   15.421000  -114.558000
  H    -67.482600   14.738000  -114.537000
  H    -67.240000   16.486200  -114.246000
  H    -61.187100   15.653600  -119.312000
  H    -68.649800   18.677800  -120.637000

 Total Charge           Charge          ....    0
 Multiplicity           Mult            ....    1
 Number of Electrons    NEL             ....  134
 Basis Dimension        Dim             ....  322

ORBITAL ENERGIES
----------------

  NO   OCC          E(Eh)            E(eV)
   0   2.0000     -88.974038     -2421.1066
   1   2.0000     -88.960303     -2420.7329
   2   2.0000     -10.331640      -281.1382
   3   2.0000     -10.311083      -280.5788
   4   2.0000     -10.310849      -280.5725
   5   2.0000     -10.306904      -280.4651
   6   2.0000     -10.297121      -280.1989
   7   2.0000     -10.296309      -280.1768
   8   2.0000     -10.292698      -280.0786
   9   2.0000     -10.291629      -280.0495
  10   2.0000     -10.285851      -279.8922
  11   2.0000     -10.285617      -279.8859
  12   2.0000     -10.285548      -279.8840
  13   2.0000     -10.282787      -279.8089
  14   2.0000     -10.281459      -279.7727
  15   2.0000     -10.276808      -279.6462
  16   2.0000      -8.086823      -220.0536
  17   2.0000      -8.076605      -219.7756
  18   2.0000      -6.045395      -164.5036
  19   2.0000      -6.041947      -164.4097
  20   2.0000      -6.037301      -164.2833
  21   2.0000      -6.034929      -164.2188
  22   2.0000      -6.030847      -164.1077
  23   2.0000      -6.027503      -164.0167
  24   2.0000      -1.015244       -27.6262
  25   2.0000      -0.982055       -26.7231
  26   2.0000      -0.906635       -24.6708
  27   2.0000      -0.903912       -24.5967
  28   2.0000      -0.870227       -23.6801
  29   2.0000      -0.849541       -23.1172
  30   2.0000      -0.849090       -23.1049
  31   2.0000      -0.813645       -22.1404
  32   2.0000      -0.781136       -21.2558
  33   2.0000      -0.767348       -20.8806
  34   2.0000      -0.710611       -19.3367
  35   2.0000      -0.706306       -19.2196
  36   2.0000      -0.698654       -19.0113
  37   2.0000      -0.665234       -18.1019
  38   2.0000      -0.640855       -17.4386
  39   2.0000      -0.615291       -16.7429
  40   2.0000      -0.596205       -16.2236
  41   2.0000      -0.571556       -15.5528
  42   2.0000      -0.563056       -15.3215
  43   2.0000      -0.551831       -15.0161
  44   2.0000      -0.531680       -14.4678
  45   2.0000      -0.519476       -14.1357
  46   2.0000      -0.517172       -14.0730
  47   2.0000      -0.513369       -13.9695
  48   2.0000      -0.502326       -13.6690
  49   2.0000      -0.493071       -13.4171
  50   2.0000      -0.485127       -13.2010
  51   2.0000      -0.479917       -13.0592
  52   2.0000      -0.470948       -12.8151
  53   2.0000      -0.465068       -12.6551
  54   2.0000      -0.456742       -12.4286
  55   2.0000      -0.453881       -12.3507
  56   2.0000      -0.447238       -12.1700
  57   2.0000      -0.438769       -11.9395
  58   2.0000      -0.436455       -11.8766
  59   2.0000      -0.434516       -11.8238
  60   2.0000      -0.427093       -11.6218
  61   2.0000      -0.419532       -11.4161
  62   2.0000      -0.407710       -11.0944
  63   2.0000      -0.340522        -9.2661
  64   2.0000      -0.329487        -8.9658
  65   2.0000      -0.321675        -8.7532
  66   2.0000      -0.300346        -8.1728
  67   0.0000       0.036698         0.9986
  68   0.0000       0.065391         1.7794
  69   0.0000       0.105404         2.8682
  70   0.0000       0.126918         3.4536
  71   0.0000       0.132805         3.6138

MULLIKEN ATOMIC CHARGES
-----------------------
   0 S :    0.119142
   1 C :   -0.080319
   2 C :   -0.082111
   3 C :    0.027104
   4 C :   -0.152401
   5 H :    0.011296
   6 C :    0.104581
   7 H :    0.018948
   8 H :    0.011662
   9 C :   -0.051612
  10 H :    0.028850
  11 H :    0.020152
  12 C :   -0.049731
  13 H :    0.035258
  14 H :    0.031547
  15 H :    0.034142
  16 S :    0.122303
  17 C :   -0.101004
  18 C :   -0.038705
  19 C :   -0.023742
  20 C :   -0.169213
  21 H :    0.016742
  22 C :    0.058829
  23 H :    0.015235
  24 H :    0.034358
  25 C :   -0.077827
  26 H :    0.028971
  27 H :    0.017918
  28 C :   -0.052064
  29 H :    0.037643
  30 H :    0.027918
  31 H :    0.024444
  32 H :   -0.005372
  33 H :    0.057060
Sum of atomic charges:    0.0000000

LOEWDIN ATOMIC CHARGES
----------------------
   0 S :    0.370098
   1 C :   -0.162302
   2 C :   -0.060139
   3 C :   -0.041711
   4 C :   -0.185235
   5 H :    0.028061
   6 C :   -0.018194
   7 H :    0.028806
   8 H :    0.023475
   9 C :   -0.023395
  10 H :    0.020532
  11 H :    0.016347
  12 C :   -0.062591
  13 H :    0.024271
  14 H :    0.022303
  15 H :    0.027526
  16 S :    0.440256
  17 C :   -0.192288
  18 C :   -0.072907
  19 C :   -0.069199
  20 C :   -0.222601
  21 H :    0.032661
  22 C :   -0.032217
  23 H :    0.026877
  24 H :    0.035635
  25 C :   -0.037362
  26 H :    0.023143
  27 H :    0.018678
  28 C :   -0.067244
  29 H :    0.029251
  30 H :    0.022893
  31 H :    0.018823
  32 H :    0.003126
  33 H :    0.034623

  Mayer bond orders larger than 0.100000
B(  0-S ,  1-C ) :   1.1123 B(  0-S ,  4-C ) :   1.1231 B(  1-C ,  2-C ) :   1.6612
B(  1-C , 32-H ) :   0.9649 B(  2-C ,  3-C ) :   1.2097 B(  2-C ,  6-C ) :   1.0168
B(  3-C ,  4-C ) :   1.5995 B(  3-C ,  5-H ) :   0.9895 B(  4-C , 20-C ) :   1.0220
B(  6-C ,  7-H ) :   0.9396 B(  6-C ,  8-H ) :   0.9338 B(  6-C ,  9-C ) :   1.0535
B(  9-C , 10-H ) :   0.9615 B(  9-C , 11-H ) :   0.9593 B(  9-C , 12-C ) :   1.0755
B( 12-C , 13-H ) :   0.9770 B( 12-C , 14-H ) :   0.9782 B( 12-C , 15-H ) :   0.9786
B( 16-S , 17-C ) :   1.1746 B( 16-S , 20-C ) :   1.1520 B( 17-C , 18-C ) :   1.5881
B( 17-C , 33-H ) :   0.9624 B( 18-C , 19-C ) :   1.2743 B( 18-C , 21-H ) :   0.9945
B( 19-C , 20-C ) :   1.6141 B( 19-C , 22-C ) :   1.0361 B( 22-C , 23-H ) :   0.9326
B( 22-C , 24-H ) :   0.9458 B( 22-C , 25-C ) :   1.0485 B( 25-C , 26-H ) :   0.9591
B( 25-C , 27-H ) :   0.9511 B( 25-C , 28-C ) :   1.0847 B( 28-C , 29-H ) :   0.9770
B( 28-C , 30-H ) :   0.9746 B( 28-C , 31-H ) :   0.9721

Dispersion correction           -0.014268970
FINAL SINGLE POINT ENERGY     -1339.857559584543

DIPOLE MOMENT
-------------
                                X             Y             Z
Electronic contribution:      0.43588      23.12936     -21.30423
Nuclear contribution   :     -0.62981     -23.72039      21.67311
                        -----------------------------------------
Total Dipole Moment    :     -0.19392      -0.59102       0.36888
                        -----------------------------------------
Magnitude (a.u.)       :      0.72318
Magnitude (Debye)      :      1.83818

Rotational constants in cm-1:     0.017416     0.008869     0.006742
Rotational constants in MHz :   522.124121   265.894698   202.116042

                             ****ORCA TERMINATED NORMALLY****
TOTAL RUN TIME: 0 days 0 hours 0 minutes 21 seconds 841 msec
