                         Program Version 4.2.1 -  RELEASE  -
|  1> ! wB97X-D3 SP def2-SVP
|  2> %pal
|  3> nprocs 24
|  4> end
|  5>
|  6> * xyz 0 1
|  7> S 	 -110.179 	 55.8067 	 -85.9105
|  8> C 	 -111.864 	 56.3744 	 -85.9751
|  9> C 	 -112.126 	 57.2239 	 -87.0562
| 10> C 	 -110.933 	 57.4245 	 -87.8267
| 11> C 	 -109.766 	 56.8952 	 -87.2563
| 12> H 	 -110.858 	 57.9568 	 -88.7661
| 13> C 	 -113.484 	 57.8268 	 -87.4882
| 14> H 	 -114.167 	 56.9432 	 -87.574
| 15> H 	 -113.433 	 58.1715 	 -88.5014
| 16> C 	 -114.156 	 58.9436 	 -86.6844
| 17> H 	 -113.623 	 59.851 	 -86.8235
| 18> H 	 -115.16 	 59.0828 	 -87.1389
| 19> C 	 -114.408 	 58.6419 	 -85.2486
| 20> H 	 -114.734 	 59.5371 	 -84.6927
| 21> H 	 -115.159 	 57.8169 	 -85.0446
| 22> H 	 -113.471 	 58.2741 	 -84.7499
| 23> S 	 -107.748 	 55.4362 	 -88.4144
| 24> C 	 -106.376 	 56.2244 	 -88.9939
| 25> C 	 -106.37 	 57.5592 	 -88.8013
| 26> C 	 -107.497 	 57.9852 	 -88.0779
| 27> C 	 -108.357 	 56.9473 	 -87.7656
| 28> H 	 -105.652 	 58.2225 	 -89.1885
| 29> C 	 -107.662 	 59.4737 	 -87.7463
| 30> H 	 -108.652 	 59.7372 	 -88.1394
| 31> H 	 -106.888 	 59.9966 	 -88.2672
| 32> C 	 -107.598 	 59.8389 	 -86.3586
| 33> H 	 -106.616 	 59.5904 	 -85.8649
| 34> H 	 -108.331 	 59.249 	 -85.8372
| 35> C 	 -107.808 	 61.36 	 -86.0154
| 36> H 	 -108.039 	 61.5207 	 -84.9683
| 37> H 	 -108.688 	 61.7787 	 -86.4402
| 38> H 	 -107.03 	 61.9995 	 -86.3482
| 39> H 	 -112.618 	 56.3216 	 -85.1728
| 40> H 	 -105.658 	 55.7451 	 -89.5793
| 41> *
| 42>
| 43>                          ****END OF INPUT****

CARTESIAN COORDINATES (ANGSTROEM)
---------------------------------
  S    -110.179000   55.806700  -85.910500
  C    -111.864000   56.374400  -85.975100
  C    -112.126000   57.223900  -87.056200
  C    -110.933000   57.424500  -87.826700
  C    -109.766000   56.895200  -87.256300
  H    -110.858000   57.956800  -88.766100
  C    -113.484000   57.826800  -87.488200
  H    -114.167000   56.943200  -87.574000
  H    -113.433000   58.171500  -88.501400
  C    -114.156000   58.943600  -86.684400
  H    -113.623000   59.851000  -86.823500
  H    -115.160000   59.082800  -87.138900
  C    -114.408000   58.641900  -85.248600
  H    -114.734000   59.537100  -84.692700
  H    -115.159000   57.816900  -85.044600
  H    -113.471000   58.274100  -84.749900
  S    -107.748000   55.436200  -88.414400
  C    -106.376000   56.224400  -88.993900
  C    -106.370000   57.559200  -88.801300
  C    -107.497000   57.985200  -88.077900
  C    -108.357000   56.947300  -87.765600
  H    -105.652000   58.222500  -89.188500
  C    -107.662000   59.473700  -87.746300
  H    -108.652000   59.737200  -88.139400
  H    -106.888000   59.996600  -88.267200
  C    -107.598000   59.838900  -86.358600
  H    -106.616000   59.590400  -85.864900
  H    -108.331000   59.249000  -85.837200
  C    -107.808000   61.360000  -86.015400
  H    -108.039000   61.520700  -84.968300
  H    -108.688000   61.778700  -86.440200
  H    -107.030000   61.999500  -86.348200
  H    -112.618000   56.321600  -85.172800
  H    -105.658000   55.745100  -89.579300

 Total Charge           Charge          ....    0
 Multiplicity           Mult            ....    1
 Number of Electrons    NEL             ....  134
 Basis Dimension        Dim             ....  322

ORBITAL ENERGIES
----------------

  NO   OCC          E(Eh)            E(eV)
   0   2.0000     -88.969553     -2420.9846
   1   2.0000     -88.964554     -2420.8486
   2   2.0000     -10.336529      -281.2713
   3   2.0000     -10.326081      -280.9870
   4   2.0000     -10.318487      -280.7803
   5   2.0000     -10.307148      -280.4718
   6   2.0000     -10.305392      -280.4240
   7   2.0000     -10.300245      -280.2839
   8   2.0000     -10.297729      -280.2155
   9   2.0000     -10.297281      -280.2033
  10   2.0000     -10.287152      -279.9276
  11   2.0000     -10.284356      -279.8516
  12   2.0000     -10.283944      -279.8404
  13   2.0000     -10.283091      -279.8171
  14   2.0000     -10.279633      -279.7230
  15   2.0000     -10.270078      -279.4630
  16   2.0000      -8.083100      -219.9523
  17   2.0000      -8.080778      -219.8891
  18   2.0000      -6.041707      -164.4032
  19   2.0000      -6.038998      -164.3295
  20   2.0000      -6.037812      -164.2972
  21   2.0000      -6.035121      -164.2240
  22   2.0000      -6.033791      -164.1878
  23   2.0000      -6.031703      -164.1310
  24   2.0000      -1.010308       -27.4919
  25   2.0000      -0.981360       -26.7042
  26   2.0000      -0.917774       -24.9739
  27   2.0000      -0.912837       -24.8396
  28   2.0000      -0.866303       -23.5733
  29   2.0000      -0.852391       -23.1947
  30   2.0000      -0.846220       -23.0268
  31   2.0000      -0.810706       -22.0604
  32   2.0000      -0.788695       -21.4615
  33   2.0000      -0.779695       -21.2166
  34   2.0000      -0.707177       -19.2433
  35   2.0000      -0.697087       -18.9687
  36   2.0000      -0.688624       -18.7384
  37   2.0000      -0.668076       -18.1793
  38   2.0000      -0.635390       -17.2898
  39   2.0000      -0.615031       -16.7358
  40   2.0000      -0.601450       -16.3663
  41   2.0000      -0.574610       -15.6359
  42   2.0000      -0.569623       -15.5002
  43   2.0000      -0.553809       -15.0699
  44   2.0000      -0.540732       -14.7141
  45   2.0000      -0.524073       -14.2607
  46   2.0000      -0.518011       -14.0958
  47   2.0000      -0.509471       -13.8634
  48   2.0000      -0.504558       -13.7297
  49   2.0000      -0.492380       -13.3984
  50   2.0000      -0.490602       -13.3500
  51   2.0000      -0.483302       -13.1513
  52   2.0000      -0.475014       -12.9258
  53   2.0000      -0.464357       -12.6358
  54   2.0000      -0.461040       -12.5455
  55   2.0000      -0.450905       -12.2698
  56   2.0000      -0.444998       -12.1090
  57   2.0000      -0.438234       -11.9250
  58   2.0000      -0.434057       -11.8113
  59   2.0000      -0.429674       -11.6920
  60   2.0000      -0.416942       -11.3456
  61   2.0000      -0.412347       -11.2205
  62   2.0000      -0.408459       -11.1147
  63   2.0000      -0.341315        -9.2876
  64   2.0000      -0.333764        -9.0822
  65   2.0000      -0.331389        -9.0176
  66   2.0000      -0.295369        -8.0374
  67   0.0000       0.033720         0.9176
  68   0.0000       0.057934         1.5765
  69   0.0000       0.107130         2.9152
  70   0.0000       0.123500         3.3606
  71   0.0000       0.128099         3.4857

MULLIKEN ATOMIC CHARGES
-----------------------
   0 S :    0.107626
   1 C :   -0.118711
   2 C :   -0.104121
   3 C :    0.043998
   4 C :   -0.178194
   5 H :    0.015998
   6 C :    0.046705
   7 H :    0.040488
   8 H :    0.016087
   9 C :   -0.021657
  10 H :    0.025790
  11 H :    0.031124
  12 C :   -0.099181
  13 H :    0.041667
  14 H :    0.037436
  15 H :    0.035443
  16 S :    0.119616
  17 C :   -0.047564
  18 C :   -0.028290
  19 C :   -0.054808
  20 C :   -0.169625
  21 H :   -0.001904
  22 C :    0.148587
  23 H :    0.019862
  24 H :   -0.002304
  25 C :   -0.087952
  26 H :    0.030018
  27 H :    0.027390
  28 C :   -0.020112
  29 H :    0.028838
  30 H :    0.003534
  31 H :    0.025955
  32 H :    0.057933
  33 H :    0.030329
Sum of atomic charges:   -0.0000000

LOEWDIN ATOMIC CHARGES
----------------------
   0 S :    0.386188
   1 C :   -0.198679
   2 C :   -0.062846
   3 C :   -0.061533
   4 C :   -0.188441
   5 H :    0.030943
   6 C :   -0.033176
   7 H :    0.038599
   8 H :    0.028895
   9 C :   -0.040549
  10 H :    0.021600
  11 H :    0.032764
  12 C :   -0.078611
  13 H :    0.030210
  14 H :    0.029573
  15 H :    0.025722
  16 S :    0.436430
  17 C :   -0.186607
  18 C :   -0.071163
  19 C :   -0.046918
  20 C :   -0.210021
  21 H :    0.025780
  22 C :   -0.028118
  23 H :    0.033991
  24 H :    0.023535
  25 C :   -0.042166
  26 H :    0.029494
  27 H :    0.023737
  28 C :   -0.063203
  29 H :    0.029879
  30 H :    0.017673
  31 H :    0.019364
  32 H :    0.030697
  33 H :    0.016955

  Mayer bond orders larger than 0.100000
B(  0-S ,  1-C ) :   1.1330 B(  0-S ,  4-C ) :   1.1463 B(  1-C ,  2-C ) :   1.6253
B(  1-C ,  4-C ) :   0.1047 B(  1-C , 32-H ) :   0.9554 B(  2-C ,  3-C ) :   1.2360
B(  2-C ,  6-C ) :   1.0017 B(  3-C ,  4-C ) :   1.5926 B(  3-C ,  5-H ) :   0.9895
B(  4-C , 20-C ) :   0.9912 B(  6-C ,  7-H ) :   0.9432 B(  6-C ,  8-H ) :   0.9417
B(  6-C ,  9-C ) :   1.0791 B(  9-C , 10-H ) :   0.9541 B(  9-C , 11-H ) :   0.9465
B(  9-C , 12-C ) :   1.0888 B( 12-C , 13-H ) :   0.9700 B( 12-C , 14-H ) :   0.9740
B( 12-C , 15-H ) :   0.9669 B( 16-S , 17-C ) :   1.1828 B( 16-S , 20-C ) :   1.1541
B( 17-C , 18-C ) :   1.5819 B( 17-C , 33-H ) :   0.9692 B( 18-C , 19-C ) :   1.2769
B( 18-C , 21-H ) :   1.0017 B( 19-C , 20-C ) :   1.6059 B( 19-C , 22-C ) :   1.0274
B( 22-C , 23-H ) :   0.9168 B( 22-C , 24-H ) :   0.9261 B( 22-C , 25-C ) :   1.0950
B( 25-C , 26-H ) :   0.9498 B( 25-C , 27-H ) :   0.9520 B( 25-C , 28-C ) :   1.0807
B( 28-C , 29-H ) :   0.9738 B( 28-C , 30-H ) :   0.9710 B( 28-C , 31-H ) :   0.9770

Dispersion correction           -0.014021869
FINAL SINGLE POINT ENERGY     -1339.872417409288

DIPOLE MOMENT
-------------
                                X             Y             Z
Electronic contribution:     13.20378     -24.67136      -6.20608
Nuclear contribution   :    -13.45374      25.29602       5.89552
                        -----------------------------------------
Total Dipole Moment    :     -0.24996       0.62466      -0.31056
                        -----------------------------------------
Magnitude (a.u.)       :      0.74103
Magnitude (Debye)      :      1.88356

Rotational constants in cm-1:     0.018690     0.008510     0.006690
Rotational constants in MHz :   560.317590   255.129027   200.561158

                             ****ORCA TERMINATED NORMALLY****
TOTAL RUN TIME: 0 days 0 hours 0 minutes 21 seconds 404 msec
