                         Program Version 4.2.1 -  RELEASE  -
|  1> ! wB97X-D3 SP def2-SVP
|  2> %pal
|  3> nprocs 24
|  4> end
|  5>
|  6> * xyz 0 1
|  7> S 	 -53.6058 	 -47.5173 	 -78.9638
|  8> C 	 -54.6968 	 -46.1785 	 -79.1405
|  9> C 	 -55.0374 	 -45.9747 	 -80.4694
| 10> C 	 -54.2495 	 -46.6917 	 -81.3815
| 11> C 	 -53.4138 	 -47.5707 	 -80.7507
| 12> H 	 -54.2119 	 -46.4966 	 -82.4101
| 13> C 	 -55.9286 	 -44.8828 	 -81.0575
| 14> H 	 -56.584 	 -44.3384 	 -80.4096
| 15> H 	 -56.6146 	 -45.5341 	 -81.5536
| 16> C 	 -55.2548 	 -43.9525 	 -82.0278
| 17> H 	 -54.7331 	 -44.4351 	 -82.8496
| 18> H 	 -56.1577 	 -43.4246 	 -82.5069
| 19> C 	 -54.4299 	 -42.8708 	 -81.4044
| 20> H 	 -54.9337 	 -42.1905 	 -80.6971
| 21> H 	 -53.5331 	 -43.2195 	 -80.9333
| 22> H 	 -54.1221 	 -42.1859 	 -82.1684
| 23> S 	 -53.2926 	 -49.8497 	 -82.1167
| 24> C 	 -51.7069 	 -50.31 	 -82.7128
| 25> C 	 -50.7301 	 -49.501 	 -82.3033
| 26> C 	 -51.2271 	 -48.4231 	 -81.6162
| 27> C 	 -52.5564 	 -48.536 	 -81.3635
| 28> H 	 -49.7524 	 -49.627 	 -82.741
| 29> C 	 -50.3598 	 -47.1722 	 -81.2767
| 30> H 	 -49.2864 	 -47.4151 	 -81.0814
| 31> H 	 -50.665 	 -46.8405 	 -80.2547
| 32> C 	 -50.6117 	 -45.9157 	 -82.1572
| 33> H 	 -49.8252 	 -45.2602 	 -81.7936
| 34> H 	 -51.5804 	 -45.3636 	 -82.0747
| 35> C 	 -50.2413 	 -46.2687 	 -83.597
| 36> H 	 -49.1846 	 -46.6516 	 -83.72
| 37> H 	 -50.2418 	 -45.3227 	 -84.2631
| 38> H 	 -50.9975 	 -47.0125 	 -83.9991
| 39> H 	 -55.2605 	 -45.6611 	 -78.3458
| 40> H 	 -51.4319 	 -51.1675 	 -83.415
| 41> *
| 42>
| 43>                          ****END OF INPUT****

CARTESIAN COORDINATES (ANGSTROEM)
---------------------------------
  S    -53.605800  -47.517300  -78.963800
  C    -54.696800  -46.178500  -79.140500
  C    -55.037400  -45.974700  -80.469400
  C    -54.249500  -46.691700  -81.381500
  C    -53.413800  -47.570700  -80.750700
  H    -54.211900  -46.496600  -82.410100
  C    -55.928600  -44.882800  -81.057500
  H    -56.584000  -44.338400  -80.409600
  H    -56.614600  -45.534100  -81.553600
  C    -55.254800  -43.952500  -82.027800
  H    -54.733100  -44.435100  -82.849600
  H    -56.157700  -43.424600  -82.506900
  C    -54.429900  -42.870800  -81.404400
  H    -54.933700  -42.190500  -80.697100
  H    -53.533100  -43.219500  -80.933300
  H    -54.122100  -42.185900  -82.168400
  S    -53.292600  -49.849700  -82.116700
  C    -51.706900  -50.310000  -82.712800
  C    -50.730100  -49.501000  -82.303300
  C    -51.227100  -48.423100  -81.616200
  C    -52.556400  -48.536000  -81.363500
  H    -49.752400  -49.627000  -82.741000
  C    -50.359800  -47.172200  -81.276700
  H    -49.286400  -47.415100  -81.081400
  H    -50.665000  -46.840500  -80.254700
  C    -50.611700  -45.915700  -82.157200
  H    -49.825200  -45.260200  -81.793600
  H    -51.580400  -45.363600  -82.074700
  C    -50.241300  -46.268700  -83.597000
  H    -49.184600  -46.651600  -83.720000
  H    -50.241800  -45.322700  -84.263100
  H    -50.997500  -47.012500  -83.999100
  H    -55.260500  -45.661100  -78.345800
  H    -51.431900  -51.167500  -83.415000

 Total Charge           Charge          ....    0
 Multiplicity           Mult            ....    1
 Number of Electrons    NEL             ....  134
 Basis Dimension        Dim             ....  322

ORBITAL ENERGIES
----------------

  NO   OCC          E(Eh)            E(eV)
   0   2.0000     -88.966732     -2420.9079
   1   2.0000     -88.964428     -2420.8452
   2   2.0000     -10.324184      -280.9353
   3   2.0000     -10.313337      -280.6402
   4   2.0000     -10.310983      -280.5761
   5   2.0000     -10.309200      -280.5276
   6   2.0000     -10.296033      -280.1693
   7   2.0000     -10.294600      -280.1303
   8   2.0000     -10.292510      -280.0734
   9   2.0000     -10.291150      -280.0364
  10   2.0000     -10.288779      -279.9719
  11   2.0000     -10.287134      -279.9271
  12   2.0000     -10.286054      -279.8978
  13   2.0000     -10.285251      -279.8759
  14   2.0000     -10.279883      -279.7298
  15   2.0000     -10.271909      -279.5129
  16   2.0000      -8.082675      -219.9408
  17   2.0000      -8.078478      -219.8266
  18   2.0000      -6.040927      -164.3820
  19   2.0000      -6.037154      -164.2793
  20   2.0000      -6.036919      -164.2729
  21   2.0000      -6.033471      -164.1791
  22   2.0000      -6.033159      -164.1706
  23   2.0000      -6.029277      -164.0650
  24   2.0000      -1.019628       -27.7455
  25   2.0000      -0.988864       -26.9084
  26   2.0000      -0.917416       -24.9642
  27   2.0000      -0.902331       -24.5537
  28   2.0000      -0.877716       -23.8839
  29   2.0000      -0.852276       -23.1916
  30   2.0000      -0.847010       -23.0483
  31   2.0000      -0.815492       -22.1907
  32   2.0000      -0.783722       -21.3262
  33   2.0000      -0.766714       -20.8634
  34   2.0000      -0.709924       -19.3180
  35   2.0000      -0.694220       -18.8907
  36   2.0000      -0.683566       -18.6008
  37   2.0000      -0.660408       -17.9706
  38   2.0000      -0.639443       -17.4001
  39   2.0000      -0.630742       -17.1634
  40   2.0000      -0.593224       -16.1424
  41   2.0000      -0.567406       -15.4399
  42   2.0000      -0.557278       -15.1643
  43   2.0000      -0.545205       -14.8358
  44   2.0000      -0.540424       -14.7057
  45   2.0000      -0.535453       -14.5704
  46   2.0000      -0.516091       -14.0435
  47   2.0000      -0.510602       -13.8942
  48   2.0000      -0.497459       -13.5366
  49   2.0000      -0.497258       -13.5311
  50   2.0000      -0.481179       -13.0935
  51   2.0000      -0.478936       -13.0325
  52   2.0000      -0.469768       -12.7830
  53   2.0000      -0.467854       -12.7310
  54   2.0000      -0.462443       -12.5837
  55   2.0000      -0.447767       -12.1844
  56   2.0000      -0.444453       -12.0942
  57   2.0000      -0.437620       -11.9083
  58   2.0000      -0.432757       -11.7759
  59   2.0000      -0.431836       -11.7508
  60   2.0000      -0.412827       -11.2336
  61   2.0000      -0.410016       -11.1571
  62   2.0000      -0.401482       -10.9249
  63   2.0000      -0.344343        -9.3701
  64   2.0000      -0.335060        -9.1175
  65   2.0000      -0.317273        -8.6334
  66   2.0000      -0.302759        -8.2385
  67   0.0000       0.043566         1.1855
  68   0.0000       0.062692         1.7059
  69   0.0000       0.115741         3.1495
  70   0.0000       0.121476         3.3055
  71   0.0000       0.124840         3.3971

MULLIKEN ATOMIC CHARGES
-----------------------
   0 S :    0.111433
   1 C :   -0.119841
   2 C :   -0.084522
   3 C :    0.041854
   4 C :   -0.173955
   5 H :   -0.003978
   6 C :    0.096635
   7 H :    0.005938
   8 H :    0.021261
   9 C :   -0.097654
  10 H :    0.031097
  11 H :    0.031896
  12 C :   -0.021977
  13 H :    0.024395
  14 H :    0.033906
  15 H :    0.021431
  16 S :    0.141176
  17 C :   -0.117873
  18 C :   -0.028175
  19 C :   -0.010891
  20 C :   -0.184939
  21 H :    0.013412
  22 C :    0.046502
  23 H :    0.035366
  24 H :    0.023063
  25 C :   -0.054949
  26 H :    0.026841
  27 H :    0.056889
  28 C :   -0.116806
  29 H :    0.037568
  30 H :    0.038714
  31 H :    0.057955
  32 H :    0.051596
  33 H :    0.066631
Sum of atomic charges:   -0.0000000

LOEWDIN ATOMIC CHARGES
----------------------
   0 S :    0.390777
   1 C :   -0.212463
   2 C :   -0.065213
   3 C :   -0.054446
   4 C :   -0.171916
   5 H :    0.024587
   6 C :   -0.033199
   7 H :    0.025283
   8 H :    0.033487
   9 C :   -0.043522
  10 H :    0.022223
  11 H :    0.035867
  12 C :   -0.066480
  13 H :    0.028039
  14 H :    0.022217
  15 H :    0.025662
  16 S :    0.440162
  17 C :   -0.190774
  18 C :   -0.078591
  19 C :   -0.058285
  20 C :   -0.233374
  21 H :    0.034834
  22 C :   -0.035400
  23 H :    0.034980
  24 H :    0.031653
  25 C :   -0.045284
  26 H :    0.026577
  27 H :    0.032849
  28 C :   -0.084521
  29 H :    0.027867
  30 H :    0.028666
  31 H :    0.030671
  32 H :    0.034121
  33 H :    0.042944

  Mayer bond orders larger than 0.100000
B(  0-S ,  1-C ) :   1.1300 B(  0-S ,  4-C ) :   1.1396 B(  1-C ,  2-C ) :   1.6272
B(  1-C , 32-H ) :   0.9616 B(  2-C ,  3-C ) :   1.2199 B(  2-C ,  6-C ) :   1.0051
B(  3-C ,  4-C ) :   1.5977 B(  3-C ,  5-H ) :   1.0057 B(  4-C , 20-C ) :   1.0172
B(  6-C ,  7-H ) :   0.9466 B(  6-C ,  8-H ) :   0.9259 B(  6-C ,  9-C ) :   1.0878
B(  9-C , 10-H ) :   0.9519 B(  9-C , 11-H ) :   0.9468 B(  9-C , 12-C ) :   1.0845
B( 12-C , 13-H ) :   0.9702 B( 12-C , 14-H ) :   0.9733 B( 12-C , 15-H ) :   0.9683
B( 16-S , 17-C ) :   1.1512 B( 16-S , 20-C ) :   1.1621 B( 17-C , 18-C ) :   1.6373
B( 17-C , 33-H ) :   0.9512 B( 18-C , 19-C ) :   1.2591 B( 18-C , 21-H ) :   0.9881
B( 19-C , 20-C ) :   1.6024 B( 19-C , 22-C ) :   1.0309 B( 22-C , 23-H ) :   0.9464
B( 22-C , 24-H ) :   0.9225 B( 22-C , 25-C ) :   1.0685 B( 25-C , 26-H ) :   0.9507
B( 25-C , 27-H ) :   0.9544 B( 25-C , 28-C ) :   1.0716 B( 28-C , 29-H ) :   0.9725
B( 28-C , 30-H ) :   0.9736 B( 28-C , 31-H ) :   0.9726

Dispersion correction           -0.016313006
FINAL SINGLE POINT ENERGY     -1339.859993716208

DIPOLE MOMENT
-------------
                                X             Y             Z
Electronic contribution:     -4.87467     -24.56673      10.72736
Nuclear contribution   :      4.95706      25.08658     -11.13499
                        -----------------------------------------
Total Dipole Moment    :      0.08239       0.51985      -0.40763
                        -----------------------------------------
Magnitude (a.u.)       :      0.66573
Magnitude (Debye)      :      1.69214

Rotational constants in cm-1:     0.019249     0.010074     0.008313
Rotational constants in MHz :   577.079635   301.997399   249.204710

                             ****ORCA TERMINATED NORMALLY****
TOTAL RUN TIME: 0 days 0 hours 0 minutes 23 seconds 274 msec
