                         Program Version 4.2.1 -  RELEASE  -
|  1> ! wB97X-D3 SP def2-SVP
|  2> %pal
|  3> nprocs 24
|  4> end
|  5>
|  6> * xyz 0 1
|  7> S 	 -111.191 	 52.8645 	 -77.1078
|  8> C 	 -111.945 	 51.847 	 -78.3238
|  9> C 	 -111.98 	 50.5566 	 -77.9093
| 10> C 	 -111.248 	 50.2991 	 -76.7035
| 11> C 	 -110.731 	 51.4563 	 -76.0792
| 12> H 	 -111.237 	 49.3602 	 -76.1536
| 13> C 	 -112.716 	 49.417 	 -78.6732
| 14> H 	 -113.659 	 49.7377 	 -79.1705
| 15> H 	 -113.135 	 48.6967 	 -77.9158
| 16> C 	 -111.863 	 48.6197 	 -79.6355
| 17> H 	 -110.96 	 48.1689 	 -79.2509
| 18> H 	 -112.531 	 47.8159 	 -80.0412
| 19> C 	 -111.451 	 49.4829 	 -80.8553
| 20> H 	 -110.928 	 48.942 	 -81.6198
| 21> H 	 -112.339 	 50.0613 	 -81.2338
| 22> H 	 -110.629 	 50.1948 	 -80.7261
| 23> S 	 -109.019 	 50.1656 	 -74.3126
| 24> C 	 -108.869 	 50.7575 	 -72.6639
| 25> C 	 -109.577 	 51.9392 	 -72.5763
| 26> C 	 -110.301 	 52.3389 	 -73.699
| 27> C 	 -110.115 	 51.5035 	 -74.7453
| 28> H 	 -109.561 	 52.4346 	 -71.5877
| 29> C 	 -111.118 	 53.6735 	 -73.6216
| 30> H 	 -111.105 	 54.1877 	 -74.5659
| 31> H 	 -110.57 	 54.466 	 -73.0244
| 32> C 	 -112.597 	 53.4564 	 -73.2267
| 33> H 	 -113.034 	 52.6336 	 -73.7761
| 34> H 	 -113.072 	 54.3657 	 -73.5103
| 35> C 	 -112.839 	 53.2351 	 -71.7366
| 36> H 	 -112.636 	 52.2781 	 -71.432
| 37> H 	 -113.847 	 53.4629 	 -71.5107
| 38> H 	 -112.288 	 53.9957 	 -71.1181
| 39> H 	 -112.444 	 52.2477 	 -79.2511
| 40> H 	 -108.363 	 50.2598 	 -71.8743
| 41> *
| 42>
| 43>                          ****END OF INPUT****

CARTESIAN COORDINATES (ANGSTROEM)
---------------------------------
  S    -111.191000   52.864500  -77.107800
  C    -111.945000   51.847000  -78.323800
  C    -111.980000   50.556600  -77.909300
  C    -111.248000   50.299100  -76.703500
  C    -110.731000   51.456300  -76.079200
  H    -111.237000   49.360200  -76.153600
  C    -112.716000   49.417000  -78.673200
  H    -113.659000   49.737700  -79.170500
  H    -113.135000   48.696700  -77.915800
  C    -111.863000   48.619700  -79.635500
  H    -110.960000   48.168900  -79.250900
  H    -112.531000   47.815900  -80.041200
  C    -111.451000   49.482900  -80.855300
  H    -110.928000   48.942000  -81.619800
  H    -112.339000   50.061300  -81.233800
  H    -110.629000   50.194800  -80.726100
  S    -109.019000   50.165600  -74.312600
  C    -108.869000   50.757500  -72.663900
  C    -109.577000   51.939200  -72.576300
  C    -110.301000   52.338900  -73.699000
  C    -110.115000   51.503500  -74.745300
  H    -109.561000   52.434600  -71.587700
  C    -111.118000   53.673500  -73.621600
  H    -111.105000   54.187700  -74.565900
  H    -110.570000   54.466000  -73.024400
  C    -112.597000   53.456400  -73.226700
  H    -113.034000   52.633600  -73.776100
  H    -113.072000   54.365700  -73.510300
  C    -112.839000   53.235100  -71.736600
  H    -112.636000   52.278100  -71.432000
  H    -113.847000   53.462900  -71.510700
  H    -112.288000   53.995700  -71.118100
  H    -112.444000   52.247700  -79.251100
  H    -108.363000   50.259800  -71.874300

 Total Charge           Charge          ....    0
 Multiplicity           Mult            ....    1
 Number of Electrons    NEL             ....  134
 Basis Dimension        Dim             ....  322

ORBITAL ENERGIES
----------------

  NO   OCC          E(Eh)            E(eV)
   0   2.0000     -88.967779     -2420.9363
   1   2.0000     -88.966025     -2420.8886
   2   2.0000     -10.339220      -281.3445
   3   2.0000     -10.330810      -281.1156
   4   2.0000     -10.318253      -280.7739
   5   2.0000     -10.315896      -280.7098
   6   2.0000     -10.302579      -280.3474
   7   2.0000     -10.300221      -280.2833
   8   2.0000     -10.299731      -280.2699
   9   2.0000     -10.298814      -280.2450
  10   2.0000     -10.296619      -280.1853
  11   2.0000     -10.291433      -280.0441
  12   2.0000     -10.289602      -279.9943
  13   2.0000     -10.280394      -279.7437
  14   2.0000     -10.275652      -279.6147
  15   2.0000     -10.266328      -279.3610
  16   2.0000      -8.081085      -219.8975
  17   2.0000      -8.080053      -219.8694
  18   2.0000      -6.039802      -164.3514
  19   2.0000      -6.038651      -164.3200
  20   2.0000      -6.035750      -164.2411
  21   2.0000      -6.034653      -164.2113
  22   2.0000      -6.031757      -164.1325
  23   2.0000      -6.030759      -164.1053
  24   2.0000      -1.004232       -27.3266
  25   2.0000      -0.982358       -26.7313
  26   2.0000      -0.906933       -24.6789
  27   2.0000      -0.904224       -24.6052
  28   2.0000      -0.868557       -23.6346
  29   2.0000      -0.850656       -23.1475
  30   2.0000      -0.839449       -22.8426
  31   2.0000      -0.808675       -22.0052
  32   2.0000      -0.785737       -21.3810
  33   2.0000      -0.777237       -21.1497
  34   2.0000      -0.709351       -19.3024
  35   2.0000      -0.694588       -18.9007
  36   2.0000      -0.689240       -18.7552
  37   2.0000      -0.666547       -18.1377
  38   2.0000      -0.634061       -17.2537
  39   2.0000      -0.614980       -16.7345
  40   2.0000      -0.599637       -16.3170
  41   2.0000      -0.567695       -15.4478
  42   2.0000      -0.554863       -15.0986
  43   2.0000      -0.551822       -15.0158
  44   2.0000      -0.540494       -14.7076
  45   2.0000      -0.531546       -14.4641
  46   2.0000      -0.514869       -14.0103
  47   2.0000      -0.513463       -13.9720
  48   2.0000      -0.502192       -13.6653
  49   2.0000      -0.491701       -13.3799
  50   2.0000      -0.485707       -13.2168
  51   2.0000      -0.483116       -13.1463
  52   2.0000      -0.473655       -12.8888
  53   2.0000      -0.464611       -12.6427
  54   2.0000      -0.454630       -12.3711
  55   2.0000      -0.448547       -12.2056
  56   2.0000      -0.438463       -11.9312
  57   2.0000      -0.435969       -11.8633
  58   2.0000      -0.430989       -11.7278
  59   2.0000      -0.420232       -11.4351
  60   2.0000      -0.414901       -11.2900
  61   2.0000      -0.412281       -11.2187
  62   2.0000      -0.405896       -11.0450
  63   2.0000      -0.355300        -9.6682
  64   2.0000      -0.335209        -9.1215
  65   2.0000      -0.330831        -9.0024
  66   2.0000      -0.289638        -7.8814
  67   0.0000       0.021921         0.5965
  68   0.0000       0.079627         2.1668
  69   0.0000       0.105595         2.8734
  70   0.0000       0.113661         3.0929
  71   0.0000       0.133517         3.6332

MULLIKEN ATOMIC CHARGES
-----------------------
   0 S :    0.091895
   1 C :   -0.141612
   2 C :   -0.060273
   3 C :    0.004815
   4 C :   -0.126698
   5 H :    0.024635
   6 C :    0.021354
   7 H :    0.032054
   8 H :    0.030924
   9 C :   -0.040904
  10 H :    0.034114
  11 H :    0.038101
  12 C :   -0.078475
  13 H :    0.021792
  14 H :    0.029805
  15 H :    0.031246
  16 S :    0.095631
  17 C :   -0.089336
  18 C :   -0.052422
  19 C :   -0.014107
  20 C :   -0.151724
  21 H :    0.027301
  22 C :    0.036438
  23 H :    0.012614
  24 H :    0.035955
  25 C :   -0.042117
  26 H :    0.037478
  27 H :    0.019722
  28 C :   -0.009734
  29 H :    0.022453
  30 H :    0.017705
  31 H :    0.018795
  32 H :    0.072804
  33 H :    0.049770
Sum of atomic charges:   -0.0000000

LOEWDIN ATOMIC CHARGES
----------------------
   0 S :    0.384221
   1 C :   -0.198709
   2 C :   -0.069534
   3 C :   -0.065628
   4 C :   -0.174186
   5 H :    0.030467
   6 C :   -0.037176
   7 H :    0.032501
   8 H :    0.034877
   9 C :   -0.039654
  10 H :    0.024780
  11 H :    0.031655
  12 C :   -0.080247
  13 H :    0.023115
  14 H :    0.025752
  15 H :    0.026880
  16 S :    0.392344
  17 C :   -0.179664
  18 C :   -0.073524
  19 C :   -0.065444
  20 C :   -0.179355
  21 H :    0.035526
  22 C :   -0.030851
  23 H :    0.018189
  24 H :    0.037982
  25 C :   -0.030790
  26 H :    0.029148
  27 H :    0.021356
  28 C :   -0.056831
  29 H :    0.012036
  30 H :    0.022286
  31 H :    0.027950
  32 H :    0.044229
  33 H :    0.026298

  Mayer bond orders larger than 0.100000
B(  0-S ,  1-C ) :   1.1282 B(  0-S ,  4-C ) :   1.1370 B(  1-C ,  2-C ) :   1.6302
B(  1-C , 32-H ) :   0.9605 B(  2-C ,  3-C ) :   1.2518 B(  2-C ,  6-C ) :   1.0076
B(  3-C ,  4-C ) :   1.5610 B(  3-C ,  5-H ) :   0.9841 B(  4-C , 20-C ) :   1.0556
B(  6-C ,  7-H ) :   0.9479 B(  6-C ,  8-H ) :   0.9423 B(  6-C ,  9-C ) :   1.0807
B(  9-C , 10-H ) :   0.9562 B(  9-C , 11-H ) :   0.9526 B(  9-C , 12-C ) :   1.0735
B( 12-C , 13-H ) :   0.9709 B( 12-C , 14-H ) :   0.9751 B( 12-C , 15-H ) :   0.9705
B( 16-S , 17-C ) :   1.1413 B( 16-S , 20-C ) :   1.1383 B( 17-C , 18-C ) :   1.6040
B( 17-C , 33-H ) :   0.9745 B( 18-C , 19-C ) :   1.2528 B( 18-C , 21-H ) :   0.9837
B( 19-C , 20-C ) :   1.6055 B( 19-C , 22-C ) :   1.0140 B( 22-C , 23-H ) :   0.9382
B( 22-C , 24-H ) :   0.9444 B( 22-C , 25-C ) :   1.0698 B( 25-C , 26-H ) :   0.9547
B( 25-C , 27-H ) :   0.9552 B( 25-C , 28-C ) :   1.0875 B( 28-C , 29-H ) :   0.9763
B( 28-C , 30-H ) :   0.9720 B( 28-C , 31-H ) :   0.9724

Dispersion correction           -0.014651358
FINAL SINGLE POINT ENERGY     -1339.876095472226

DIPOLE MOMENT
-------------
                                X             Y             Z
Electronic contribution:     13.26090       1.24749       4.05875
Nuclear contribution   :    -13.68470      -1.32700      -3.92487
                        -----------------------------------------
Total Dipole Moment    :     -0.42380      -0.07951       0.13389
                        -----------------------------------------
Magnitude (a.u.)       :      0.45150
Magnitude (Debye)      :      1.14763

Rotational constants in cm-1:     0.022988     0.007692     0.006533
Rotational constants in MHz :   689.175778   230.600739   195.841315

                             ****ORCA TERMINATED NORMALLY****
TOTAL RUN TIME: 0 days 0 hours 0 minutes 20 seconds 233 msec
