                         Program Version 4.2.1 -  RELEASE  -
|  1> ! wB97X-D3 SP def2-SVP
|  2> %pal
|  3> nprocs 24
|  4> end
|  5>
|  6> * xyz 0 1
|  7> S 	 -38.1785 	 16.4998 	 14.3438
|  8> C 	 -39.0461 	 17.3852 	 15.621
|  9> C 	 -38.6117 	 18.6945 	 15.8275
| 10> C 	 -37.4698 	 19.0283 	 14.9952
| 11> C 	 -37.0965 	 17.9552 	 14.2131
| 12> H 	 -36.9259 	 19.9518 	 14.9813
| 13> C 	 -39.2707 	 19.6897 	 16.782
| 14> H 	 -38.6076 	 19.7984 	 17.6223
| 15> H 	 -40.2119 	 19.3788 	 17.1698
| 16> C 	 -39.465 	 21.156 	 16.3066
| 17> H 	 -38.5195 	 21.513 	 15.8098
| 18> H 	 -40.2146 	 21.0076 	 15.4714
| 19> C 	 -39.8651 	 22.1433 	 17.4196
| 20> H 	 -40.2634 	 23.0728 	 16.9546
| 21> H 	 -40.7623 	 21.8673 	 18.0319
| 22> H 	 -39.0756 	 22.316 	 18.1308
| 23> S 	 -34.7488 	 16.6967 	 13.4909
| 24> C 	 -33.7844 	 17.3337 	 12.1841
| 25> C 	 -34.2963 	 18.6104 	 11.7717
| 26> C 	 -35.5942 	 18.931 	 12.3615
| 27> C 	 -35.9871 	 18.0203 	 13.3085
| 28> H 	 -33.6597 	 19.1824 	 11.0812
| 29> C 	 -36.3198 	 20.2555 	 11.9066
| 30> H 	 -35.6322 	 21.0533 	 12.0574
| 31> H 	 -37.0667 	 20.4963 	 12.6306
| 32> C 	 -36.7338 	 20.2204 	 10.4239
| 33> H 	 -35.929 	 20.1081 	 9.72954
| 34> H 	 -37.2843 	 21.0648 	 10.1482
| 35> C 	 -37.5517 	 19.0095 	 10.1581
| 36> H 	 -38.319 	 18.8518 	 10.9341
| 37> H 	 -36.9574 	 18.1059 	 10.0625
| 38> H 	 -38.098 	 19.0659 	 9.21396
| 39> H 	 -39.7592 	 16.9754 	 16.222
| 40> H 	 -32.9622 	 16.8498 	 11.7978
| 41> *
| 42>
| 43>                          ****END OF INPUT****

CARTESIAN COORDINATES (ANGSTROEM)
---------------------------------
  S    -38.178500   16.499800   14.343800
  C    -39.046100   17.385200   15.621000
  C    -38.611700   18.694500   15.827500
  C    -37.469800   19.028300   14.995200
  C    -37.096500   17.955200   14.213100
  H    -36.925900   19.951800   14.981300
  C    -39.270700   19.689700   16.782000
  H    -38.607600   19.798400   17.622300
  H    -40.211900   19.378800   17.169800
  C    -39.465000   21.156000   16.306600
  H    -38.519500   21.513000   15.809800
  H    -40.214600   21.007600   15.471400
  C    -39.865100   22.143300   17.419600
  H    -40.263400   23.072800   16.954600
  H    -40.762300   21.867300   18.031900
  H    -39.075600   22.316000   18.130800
  S    -34.748800   16.696700   13.490900
  C    -33.784400   17.333700   12.184100
  C    -34.296300   18.610400   11.771700
  C    -35.594200   18.931000   12.361500
  C    -35.987100   18.020300   13.308500
  H    -33.659700   19.182400   11.081200
  C    -36.319800   20.255500   11.906600
  H    -35.632200   21.053300   12.057400
  H    -37.066700   20.496300   12.630600
  C    -36.733800   20.220400   10.423900
  H    -35.929000   20.108100    9.729540
  H    -37.284300   21.064800   10.148200
  C    -37.551700   19.009500   10.158100
  H    -38.319000   18.851800   10.934100
  H    -36.957400   18.105900   10.062500
  H    -38.098000   19.065900    9.213960
  H    -39.759200   16.975400   16.222000
  H    -32.962200   16.849800   11.797800

 Total Charge           Charge          ....    0
 Multiplicity           Mult            ....    1
 Number of Electrons    NEL             ....  134
 Basis Dimension        Dim             ....  322

ORBITAL ENERGIES
----------------

  NO   OCC          E(Eh)            E(eV)
   0   2.0000     -88.971195     -2421.0293
   1   2.0000     -88.961167     -2420.7564
   2   2.0000     -10.332279      -281.1556
   3   2.0000     -10.326598      -281.0010
   4   2.0000     -10.318378      -280.7773
   5   2.0000     -10.311591      -280.5926
   6   2.0000     -10.311375      -280.5868
   7   2.0000     -10.307886      -280.4918
   8   2.0000     -10.302806      -280.3536
   9   2.0000     -10.299914      -280.2749
  10   2.0000     -10.298995      -280.2499
  11   2.0000     -10.292703      -280.0787
  12   2.0000     -10.290349      -280.0146
  13   2.0000     -10.289416      -279.9893
  14   2.0000     -10.276106      -279.6271
  15   2.0000     -10.263823      -279.2928
  16   2.0000      -8.084232      -219.9831
  17   2.0000      -8.075239      -219.7384
  18   2.0000      -6.042823      -164.4336
  19   2.0000      -6.039251      -164.3364
  20   2.0000      -6.034716      -164.2130
  21   2.0000      -6.033795      -164.1879
  22   2.0000      -6.029806      -164.0794
  23   2.0000      -6.026016      -163.9762
  24   2.0000      -0.995715       -27.0948
  25   2.0000      -0.970685       -26.4137
  26   2.0000      -0.911045       -24.7908
  27   2.0000      -0.907372       -24.6908
  28   2.0000      -0.869078       -23.6488
  29   2.0000      -0.849196       -23.1078
  30   2.0000      -0.840986       -22.8844
  31   2.0000      -0.809106       -22.0169
  32   2.0000      -0.783710       -21.3258
  33   2.0000      -0.774338       -21.0708
  34   2.0000      -0.709787       -19.3143
  35   2.0000      -0.697497       -18.9799
  36   2.0000      -0.694244       -18.8913
  37   2.0000      -0.660207       -17.9652
  38   2.0000      -0.644893       -17.5484
  39   2.0000      -0.621793       -16.9199
  40   2.0000      -0.596182       -16.2229
  41   2.0000      -0.569710       -15.5026
  42   2.0000      -0.556993       -15.1565
  43   2.0000      -0.553182       -15.0529
  44   2.0000      -0.545791       -14.8517
  45   2.0000      -0.525166       -14.2905
  46   2.0000      -0.515938       -14.0394
  47   2.0000      -0.512355       -13.9419
  48   2.0000      -0.502500       -13.6737
  49   2.0000      -0.497806       -13.5460
  50   2.0000      -0.490961       -13.3597
  51   2.0000      -0.477483       -12.9930
  52   2.0000      -0.472281       -12.8514
  53   2.0000      -0.458649       -12.4805
  54   2.0000      -0.456433       -12.4202
  55   2.0000      -0.451742       -12.2925
  56   2.0000      -0.440079       -11.9752
  57   2.0000      -0.432632       -11.7725
  58   2.0000      -0.431237       -11.7345
  59   2.0000      -0.422626       -11.5002
  60   2.0000      -0.420317       -11.4374
  61   2.0000      -0.419465       -11.4142
  62   2.0000      -0.412185       -11.2161
  63   2.0000      -0.343682        -9.3521
  64   2.0000      -0.333124        -9.0648
  65   2.0000      -0.322232        -8.7684
  66   2.0000      -0.292102        -7.9485
  67   0.0000       0.025272         0.6877
  68   0.0000       0.065196         1.7741
  69   0.0000       0.098714         2.6861
  70   0.0000       0.112985         3.0745
  71   0.0000       0.129675         3.5286

MULLIKEN ATOMIC CHARGES
-----------------------
   0 S :    0.115244
   1 C :   -0.081664
   2 C :   -0.065646
   3 C :    0.017864
   4 C :   -0.133770
   5 H :    0.022017
   6 C :    0.092868
   7 H :    0.023334
   8 H :    0.010195
   9 C :   -0.127863
  10 H :    0.036542
  11 H :    0.042943
  12 C :   -0.059006
  13 H :    0.043562
  14 H :    0.031716
  15 H :    0.042552
  16 S :    0.089280
  17 C :   -0.072926
  18 C :   -0.064730
  19 C :   -0.045073
  20 C :   -0.178984
  21 H :    0.034125
  22 C :    0.114878
  23 H :    0.017528
  24 H :    0.006487
  25 C :   -0.015975
  26 H :    0.021468
  27 H :    0.017879
  28 C :   -0.065801
  29 H :    0.028659
  30 H :    0.038691
  31 H :    0.022087
  32 H :    0.005552
  33 H :    0.035966
Sum of atomic charges:    0.0000000

LOEWDIN ATOMIC CHARGES
----------------------
   0 S :    0.369061
   1 C :   -0.172422
   2 C :   -0.051526
   3 C :   -0.049445
   4 C :   -0.171136
   5 H :    0.031379
   6 C :   -0.032869
   7 H :    0.027960
   8 H :    0.023087
   9 C :   -0.047282
  10 H :    0.024715
  11 H :    0.029862
  12 C :   -0.073151
  13 H :    0.035801
  14 H :    0.030146
  15 H :    0.025704
  16 S :    0.374271
  17 C :   -0.170579
  18 C :   -0.073968
  19 C :   -0.047591
  20 C :   -0.182421
  21 H :    0.033244
  22 C :   -0.018370
  23 H :    0.027290
  24 H :    0.023494
  25 C :   -0.034884
  26 H :    0.024387
  27 H :    0.019110
  28 C :   -0.065804
  29 H :    0.024758
  30 H :    0.025826
  31 H :    0.023089
  32 H :    0.006287
  33 H :    0.011977

  Mayer bond orders larger than 0.100000
B(  0-S ,  1-C ) :   1.1132 B(  0-S ,  4-C ) :   1.1166 B(  1-C ,  2-C ) :   1.6533
B(  1-C , 32-H ) :   0.9749 B(  2-C ,  3-C ) :   1.1890 B(  2-C ,  6-C ) :   1.0240
B(  3-C ,  4-C ) :   1.6123 B(  3-C ,  5-H ) :   0.9899 B(  4-C , 20-C ) :   1.0657
B(  6-C ,  7-H ) :   0.9333 B(  6-C ,  8-H ) :   0.9464 B(  6-C ,  9-C ) :   1.0501
B(  9-C , 10-H ) :   0.9528 B(  9-C , 11-H ) :   0.9615 B(  9-C , 12-C ) :   1.0757
B( 12-C , 13-H ) :   0.9726 B( 12-C , 14-H ) :   0.9742 B( 12-C , 15-H ) :   0.9741
B( 16-S , 17-C ) :   1.1584 B( 16-S , 20-C ) :   1.1136 B( 17-C , 18-C ) :   1.6069
B( 17-C , 20-C ) :   0.1010 B( 17-C , 33-H ) :   0.9807 B( 18-C , 19-C ) :   1.1992
B( 18-C , 21-H ) :   0.9874 B( 19-C , 20-C ) :   1.6307 B( 19-C , 22-C ) :   1.0225
B( 22-C , 23-H ) :   0.9356 B( 22-C , 24-H ) :   0.9347 B( 22-C , 25-C ) :   1.0729
B( 25-C , 26-H ) :   0.9532 B( 25-C , 27-H ) :   0.9551 B( 25-C , 28-C ) :   1.0860
B( 28-C , 29-H ) :   0.9768 B( 28-C , 30-H ) :   0.9688 B( 28-C , 31-H ) :   0.9711

Dispersion correction           -0.014633431
FINAL SINGLE POINT ENERGY     -1339.862702236087

DIPOLE MOMENT
-------------
                                X             Y             Z
Electronic contribution:     12.12506     -24.01824       0.91554
Nuclear contribution   :    -12.24864      24.76647      -0.88191
                        -----------------------------------------
Total Dipole Moment    :     -0.12358       0.74823       0.03362
                        -----------------------------------------
Magnitude (a.u.)       :      0.75912
Magnitude (Debye)      :      1.92952

Rotational constants in cm-1:     0.018654     0.008346     0.006986
Rotational constants in MHz :   559.228774   250.200884   209.437704

                             ****ORCA TERMINATED NORMALLY****
TOTAL RUN TIME: 0 days 0 hours 0 minutes 22 seconds 646 msec
