                         Program Version 4.2.1 -  RELEASE  -
|  1> ! wB97X-D3 SP def2-SVP
|  2> %pal
|  3> nprocs 24
|  4> end
|  5>
|  6> * xyz 0 1
|  7> S 	 -58.4257 	 -2.61661 	 -30.9476
|  8> C 	 -58.5891 	 -0.878443 	 -31.4164
|  9> C 	 -59.4589 	 -0.137714 	 -30.6126
| 10> C 	 -59.9749 	 -1.00215 	 -29.6032
| 11> C 	 -59.4729 	 -2.28188 	 -29.6073
| 12> H 	 -60.7722 	 -0.730462 	 -28.8967
| 13> C 	 -59.84 	 1.38821 	 -30.7238
| 14> H 	 -59.7035 	 1.67223 	 -31.7586
| 15> H 	 -59.0432 	 1.93463 	 -30.2011
| 16> C 	 -61.2351 	 1.78209 	 -30.2029
| 17> H 	 -61.2179 	 1.48833 	 -29.1219
| 18> H 	 -61.308 	 2.89803 	 -30.2003
| 19> C 	 -62.3284 	 1.07632 	 -30.9751
| 20> H 	 -63.2814 	 1.41157 	 -30.6898
| 21> H 	 -62.1607 	 1.31759 	 -32.102
| 22> H 	 -62.3701 	 -0.0020369 	 -30.9441
| 23> S 	 -60.0049 	 -4.91485 	 -29.2452
| 24> C 	 -60.4177 	 -5.5989 	 -27.6963
| 25> C 	 -60.4609 	 -4.59517 	 -26.7976
| 26> C 	 -60.1266 	 -3.28615 	 -27.2793
| 27> C 	 -59.8215 	 -3.32043 	 -28.6698
| 28> H 	 -60.7809 	 -4.96124 	 -25.8538
| 29> C 	 -59.9221 	 -2.07366 	 -26.3698
| 30> H 	 -60.6408 	 -2.18191 	 -25.569
| 31> H 	 -60.3824 	 -1.22604 	 -26.9166
| 32> C 	 -58.4406 	 -1.83097 	 -25.9363
| 33> H 	 -57.8638 	 -1.46457 	 -26.7686
| 34> H 	 -57.9674 	 -2.83093 	 -25.6636
| 35> C 	 -58.2881 	 -0.881774 	 -24.7037
| 36> H 	 -58.3753 	 0.153195 	 -25.0482
| 37> H 	 -57.2393 	 -0.981405 	 -24.2783
| 38> H 	 -58.9487 	 -1.11057 	 -23.9154
| 39> H 	 -57.9859 	 -0.386861 	 -32.1173
| 40> H 	 -60.6109 	 -6.6132 	 -27.56
| 41> *
| 42>
| 43>                          ****END OF INPUT****

CARTESIAN COORDINATES (ANGSTROEM)
---------------------------------
  S    -58.425700   -2.616610  -30.947600
  C    -58.589100   -0.878443  -31.416400
  C    -59.458900   -0.137714  -30.612600
  C    -59.974900   -1.002150  -29.603200
  C    -59.472900   -2.281880  -29.607300
  H    -60.772200   -0.730462  -28.896700
  C    -59.840000    1.388210  -30.723800
  H    -59.703500    1.672230  -31.758600
  H    -59.043200    1.934630  -30.201100
  C    -61.235100    1.782090  -30.202900
  H    -61.217900    1.488330  -29.121900
  H    -61.308000    2.898030  -30.200300
  C    -62.328400    1.076320  -30.975100
  H    -63.281400    1.411570  -30.689800
  H    -62.160700    1.317590  -32.102000
  H    -62.370100   -0.002037  -30.944100
  S    -60.004900   -4.914850  -29.245200
  C    -60.417700   -5.598900  -27.696300
  C    -60.460900   -4.595170  -26.797600
  C    -60.126600   -3.286150  -27.279300
  C    -59.821500   -3.320430  -28.669800
  H    -60.780900   -4.961240  -25.853800
  C    -59.922100   -2.073660  -26.369800
  H    -60.640800   -2.181910  -25.569000
  H    -60.382400   -1.226040  -26.916600
  C    -58.440600   -1.830970  -25.936300
  H    -57.863800   -1.464570  -26.768600
  H    -57.967400   -2.830930  -25.663600
  C    -58.288100   -0.881774  -24.703700
  H    -58.375300    0.153195  -25.048200
  H    -57.239300   -0.981405  -24.278300
  H    -58.948700   -1.110570  -23.915400
  H    -57.985900   -0.386861  -32.117300
  H    -60.610900   -6.613200  -27.560000

 Total Charge           Charge          ....    0
 Multiplicity           Mult            ....    1
 Number of Electrons    NEL             ....  134
 Basis Dimension        Dim             ....  322

ORBITAL ENERGIES
----------------

  NO   OCC          E(Eh)            E(eV)
   0   2.0000     -88.971186     -2421.0291
   1   2.0000     -88.959133     -2420.7011
   2   2.0000     -10.327613      -281.0287
   3   2.0000     -10.324552      -280.9454
   4   2.0000     -10.314361      -280.6680
   5   2.0000     -10.307960      -280.4939
   6   2.0000     -10.307397      -280.4785
   7   2.0000     -10.305224      -280.4194
   8   2.0000     -10.300799      -280.2990
   9   2.0000     -10.299330      -280.2590
  10   2.0000     -10.292896      -280.0839
  11   2.0000     -10.292758      -280.0802
  12   2.0000     -10.291408      -280.0434
  13   2.0000     -10.288301      -279.9589
  14   2.0000     -10.280597      -279.7493
  15   2.0000     -10.279573      -279.7214
  16   2.0000      -8.085171      -220.0087
  17   2.0000      -8.075196      -219.7372
  18   2.0000      -6.043705      -164.4576
  19   2.0000      -6.039997      -164.3567
  20   2.0000      -6.035721      -164.2403
  21   2.0000      -6.033583      -164.1821
  22   2.0000      -6.029335      -164.0666
  23   2.0000      -6.026202      -163.9813
  24   2.0000      -1.009903       -27.4809
  25   2.0000      -0.982823       -26.7440
  26   2.0000      -0.912782       -24.8381
  27   2.0000      -0.898493       -24.4492
  28   2.0000      -0.873819       -23.7778
  29   2.0000      -0.847634       -23.0653
  30   2.0000      -0.840831       -22.8802
  31   2.0000      -0.816385       -22.2150
  32   2.0000      -0.786422       -21.3996
  33   2.0000      -0.770397       -20.9636
  34   2.0000      -0.711715       -19.3668
  35   2.0000      -0.698373       -19.0037
  36   2.0000      -0.694852       -18.9079
  37   2.0000      -0.660799       -17.9812
  38   2.0000      -0.636168       -17.3110
  39   2.0000      -0.625915       -17.0320
  40   2.0000      -0.591097       -16.0846
  41   2.0000      -0.566927       -15.4269
  42   2.0000      -0.558733       -15.2039
  43   2.0000      -0.553814       -15.0700
  44   2.0000      -0.538362       -14.6496
  45   2.0000      -0.524761       -14.2795
  46   2.0000      -0.518362       -14.1053
  47   2.0000      -0.512122       -13.9356
  48   2.0000      -0.500506       -13.6195
  49   2.0000      -0.497547       -13.5389
  50   2.0000      -0.487967       -13.2783
  51   2.0000      -0.484609       -13.1869
  52   2.0000      -0.468800       -12.7567
  53   2.0000      -0.465242       -12.6599
  54   2.0000      -0.457287       -12.4434
  55   2.0000      -0.451207       -12.2780
  56   2.0000      -0.442530       -12.0419
  57   2.0000      -0.436651       -11.8819
  58   2.0000      -0.435737       -11.8570
  59   2.0000      -0.429859       -11.6971
  60   2.0000      -0.417465       -11.3598
  61   2.0000      -0.411788       -11.2053
  62   2.0000      -0.410441       -11.1687
  63   2.0000      -0.355407        -9.6711
  64   2.0000      -0.336100        -9.1458
  65   2.0000      -0.326948        -8.8967
  66   2.0000      -0.282971        -7.7000
  67   0.0000       0.023508         0.6397
  68   0.0000       0.079640         2.1671
  69   0.0000       0.101174         2.7531
  70   0.0000       0.122631         3.3370
  71   0.0000       0.136217         3.7066

MULLIKEN ATOMIC CHARGES
-----------------------
   0 S :    0.118232
   1 C :   -0.104051
   2 C :   -0.094602
   3 C :   -0.029175
   4 C :   -0.118848
   5 H :    0.028416
   6 C :    0.073294
   7 H :    0.018532
   8 H :    0.044820
   9 C :   -0.093800
  10 H :    0.036599
  11 H :    0.045331
  12 C :   -0.041284
  13 H :    0.025251
  14 H :    0.035606
  15 H :    0.045958
  16 S :    0.083863
  17 C :   -0.082211
  18 C :   -0.022587
  19 C :   -0.064467
  20 C :   -0.137864
  21 H :    0.002131
  22 C :    0.096966
  23 H :    0.009189
  24 H :    0.005252
  25 C :   -0.067615
  26 H :    0.038674
  27 H :    0.039961
  28 C :   -0.054633
  29 H :    0.037013
  30 H :    0.039611
  31 H :    0.029196
  32 H :    0.020498
  33 H :    0.036745
Sum of atomic charges:   -0.0000000

LOEWDIN ATOMIC CHARGES
----------------------
   0 S :    0.394221
   1 C :   -0.177001
   2 C :   -0.052489
   3 C :   -0.070961
   4 C :   -0.194863
   5 H :    0.031387
   6 C :   -0.028304
   7 H :    0.025383
   8 H :    0.036330
   9 C :   -0.047714
  10 H :    0.025841
  11 H :    0.034781
  12 C :   -0.066018
  13 H :    0.018231
  14 H :    0.037734
  15 H :    0.028270
  16 S :    0.417688
  17 C :   -0.179913
  18 C :   -0.070090
  19 C :   -0.063427
  20 C :   -0.208113
  21 H :    0.028297
  22 C :   -0.037101
  23 H :    0.026581
  24 H :    0.028414
  25 C :   -0.037090
  26 H :    0.026039
  27 H :    0.031235
  28 C :   -0.066877
  29 H :    0.025775
  30 H :    0.034604
  31 H :    0.016490
  32 H :    0.013176
  33 H :    0.019484

  Mayer bond orders larger than 0.100000
B(  0-S ,  1-C ) :   1.1180 B(  0-S ,  4-C ) :   1.1410 B(  1-C ,  2-C ) :   1.6472
B(  1-C , 32-H ) :   0.9694 B(  2-C ,  3-C ) :   1.2350 B(  2-C ,  6-C ) :   0.9871
B(  3-C ,  4-C ) :   1.5897 B(  3-C ,  5-H ) :   0.9767 B(  4-C , 20-C ) :   1.0693
B(  6-C ,  7-H ) :   0.9428 B(  6-C ,  8-H ) :   0.9375 B(  6-C ,  9-C ) :   1.0809
B(  9-C , 10-H ) :   0.9457 B(  9-C , 11-H ) :   0.9527 B(  9-C , 12-C ) :   1.0737
B( 12-C , 13-H ) :   0.9738 B( 12-C , 14-H ) :   0.9719 B( 12-C , 15-H ) :   0.9730
B( 16-S , 17-C ) :   1.1483 B( 16-S , 20-C ) :   1.1723 B( 17-C , 18-C ) :   1.5992
B( 17-C , 33-H ) :   0.9805 B( 18-C , 19-C ) :   1.2412 B( 18-C , 21-H ) :   1.0024
B( 19-C , 20-C ) :   1.5319 B( 19-C , 22-C ) :   1.0535 B( 22-C , 23-H ) :   0.9301
B( 22-C , 24-H ) :   0.9261 B( 22-C , 25-C ) :   1.0432 B( 25-C , 26-H ) :   0.9559
B( 25-C , 27-H ) :   0.9625 B( 25-C , 28-C ) :   1.0752 B( 28-C , 29-H ) :   0.9778
B( 28-C , 30-H ) :   0.9759 B( 28-C , 31-H ) :   0.9789

Dispersion correction           -0.014479791
FINAL SINGLE POINT ENERGY     -1339.876387668793

DIPOLE MOMENT
-------------
                                X             Y             Z
Electronic contribution:      5.11803     -23.24949     -12.56709
Nuclear contribution   :     -5.30495      23.80450      12.95407
                        -----------------------------------------
Total Dipole Moment    :     -0.18691       0.55501       0.38697
                        -----------------------------------------
Magnitude (a.u.)       :      0.70194
Magnitude (Debye)      :      1.78420

Rotational constants in cm-1:     0.016376     0.009536     0.007561
Rotational constants in MHz :   490.934456   285.885280   226.672802

                             ****ORCA TERMINATED NORMALLY****
TOTAL RUN TIME: 0 days 0 hours 0 minutes 22 seconds 117 msec
