                         Program Version 4.2.1 -  RELEASE  -
|  1> ! wB97X-D3 SP def2-SVP
|  2> %pal
|  3> nprocs 24
|  4> end
|  5>
|  6> * xyz 0 1
|  7> S 	 -37.2972 	 3.64975 	 6.06394
|  8> C 	 -37.1322 	 5.19373 	 6.86722
|  9> C 	 -37.9882 	 6.07872 	 6.2806
| 10> C 	 -38.6731 	 5.51387 	 5.2059
| 11> C 	 -38.2477 	 4.25256 	 4.82193
| 12> H 	 -39.4675 	 6.10618 	 4.72289
| 13> C 	 -38.2506 	 7.41829 	 6.8931
| 14> H 	 -38.2882 	 7.33234 	 7.97178
| 15> H 	 -39.2345 	 7.57123 	 6.53552
| 16> C 	 -37.4218 	 8.55971 	 6.33143
| 17> H 	 -37.2672 	 8.36921 	 5.26805
| 18> H 	 -37.9049 	 9.52915 	 6.42736
| 19> C 	 -35.9807 	 8.49869 	 6.95269
| 20> H 	 -35.4095 	 7.64591 	 6.56294
| 21> H 	 -35.4365 	 9.41161 	 6.72185
| 22> H 	 -35.9295 	 8.30521 	 8.06272
| 23> S 	 -38.7127 	 1.72014 	 4.0113
| 24> C 	 -39.4917 	 1.30638 	 2.48988
| 25> C 	 -39.7937 	 2.49153 	 1.85052
| 26> C 	 -39.3546 	 3.73772 	 2.51025
| 27> C 	 -38.7591 	 3.41514 	 3.74091
| 28> H 	 -40.2664 	 2.4208 	 0.938181
| 29> C 	 -39.8324 	 5.15642 	 1.92179
| 30> H 	 -40.0828 	 5.8965 	 2.74272
| 31> H 	 -40.7892 	 4.99686 	 1.43192
| 32> C 	 -38.8417 	 5.82871 	 0.977163
| 33> H 	 -39.2015 	 6.7792 	 0.65671
| 34> H 	 -38.8013 	 5.13296 	 0.024704
| 35> C 	 -37.4222 	 5.86213 	 1.41548
| 36> H 	 -37.1756 	 4.87321 	 1.731
| 37> H 	 -37.2378 	 6.49562 	 2.29021
| 38> H 	 -36.8208 	 6.19102 	 0.550872
| 39> H 	 -36.5058 	 5.46661 	 7.74945
| 40> H 	 -40.0452 	 0.383015 	 2.10198
| 41> *
| 42>
| 43>                          ****END OF INPUT****

CARTESIAN COORDINATES (ANGSTROEM)
---------------------------------
  S    -37.297200    3.649750    6.063940
  C    -37.132200    5.193730    6.867220
  C    -37.988200    6.078720    6.280600
  C    -38.673100    5.513870    5.205900
  C    -38.247700    4.252560    4.821930
  H    -39.467500    6.106180    4.722890
  C    -38.250600    7.418290    6.893100
  H    -38.288200    7.332340    7.971780
  H    -39.234500    7.571230    6.535520
  C    -37.421800    8.559710    6.331430
  H    -37.267200    8.369210    5.268050
  H    -37.904900    9.529150    6.427360
  C    -35.980700    8.498690    6.952690
  H    -35.409500    7.645910    6.562940
  H    -35.436500    9.411610    6.721850
  H    -35.929500    8.305210    8.062720
  S    -38.712700    1.720140    4.011300
  C    -39.491700    1.306380    2.489880
  C    -39.793700    2.491530    1.850520
  C    -39.354600    3.737720    2.510250
  C    -38.759100    3.415140    3.740910
  H    -40.266400    2.420800    0.938181
  C    -39.832400    5.156420    1.921790
  H    -40.082800    5.896500    2.742720
  H    -40.789200    4.996860    1.431920
  C    -38.841700    5.828710    0.977163
  H    -39.201500    6.779200    0.656710
  H    -38.801300    5.132960    0.024704
  C    -37.422200    5.862130    1.415480
  H    -37.175600    4.873210    1.731000
  H    -37.237800    6.495620    2.290210
  H    -36.820800    6.191020    0.550872
  H    -36.505800    5.466610    7.749450
  H    -40.045200    0.383015    2.101980

 Total Charge           Charge          ....    0
 Multiplicity           Mult            ....    1
 Number of Electrons    NEL             ....  134
 Basis Dimension        Dim             ....  322

ORBITAL ENERGIES
----------------

  NO   OCC          E(Eh)            E(eV)
   0   2.0000     -88.968850     -2420.9655
   1   2.0000     -88.966883     -2420.9120
   2   2.0000     -10.335749      -281.2500
   3   2.0000     -10.329310      -281.0748
   4   2.0000     -10.323405      -280.9141
   5   2.0000     -10.316720      -280.7322
   6   2.0000     -10.312549      -280.6187
   7   2.0000     -10.305180      -280.4182
   8   2.0000     -10.293995      -280.1139
   9   2.0000     -10.292273      -280.0670
  10   2.0000     -10.291563      -280.0477
  11   2.0000     -10.290408      -280.0162
  12   2.0000     -10.286872      -279.9200
  13   2.0000     -10.285291      -279.8770
  14   2.0000     -10.282394      -279.7982
  15   2.0000     -10.266969      -279.3784
  16   2.0000      -8.083864      -219.9731
  17   2.0000      -8.082974      -219.9489
  18   2.0000      -6.042588      -164.4272
  19   2.0000      -6.041413      -164.3952
  20   2.0000      -6.038219      -164.3083
  21   2.0000      -6.037256      -164.2821
  22   2.0000      -6.034467      -164.2062
  23   2.0000      -6.033733      -164.1862
  24   2.0000      -1.020745       -27.7759
  25   2.0000      -0.990230       -26.9455
  26   2.0000      -0.920732       -25.0544
  27   2.0000      -0.907746       -24.7010
  28   2.0000      -0.872317       -23.7369
  29   2.0000      -0.849639       -23.1198
  30   2.0000      -0.841422       -22.8963
  31   2.0000      -0.815673       -22.1956
  32   2.0000      -0.785176       -21.3657
  33   2.0000      -0.779771       -21.2187
  34   2.0000      -0.713400       -19.4126
  35   2.0000      -0.698537       -19.0082
  36   2.0000      -0.681662       -18.5490
  37   2.0000      -0.661542       -18.0015
  38   2.0000      -0.631536       -17.1850
  39   2.0000      -0.630407       -17.1542
  40   2.0000      -0.588379       -16.0106
  41   2.0000      -0.575137       -15.6503
  42   2.0000      -0.554512       -15.0890
  43   2.0000      -0.552396       -15.0315
  44   2.0000      -0.543331       -14.7848
  45   2.0000      -0.541163       -14.7258
  46   2.0000      -0.522080       -14.2065
  47   2.0000      -0.514417       -13.9980
  48   2.0000      -0.505582       -13.7576
  49   2.0000      -0.502954       -13.6861
  50   2.0000      -0.485604       -13.2139
  51   2.0000      -0.477790       -13.0013
  52   2.0000      -0.476300       -12.9608
  53   2.0000      -0.464523       -12.6403
  54   2.0000      -0.459949       -12.5158
  55   2.0000      -0.448306       -12.1990
  56   2.0000      -0.445955       -12.1351
  57   2.0000      -0.438915       -11.9435
  58   2.0000      -0.435014       -11.8373
  59   2.0000      -0.424979       -11.5643
  60   2.0000      -0.419885       -11.4257
  61   2.0000      -0.405061       -11.0223
  62   2.0000      -0.400403       -10.8955
  63   2.0000      -0.363406        -9.8888
  64   2.0000      -0.336031        -9.1439
  65   2.0000      -0.327577        -8.9138
  66   2.0000      -0.287708        -7.8289
  67   0.0000       0.018496         0.5033
  68   0.0000       0.085481         2.3261
  69   0.0000       0.094010         2.5582
  70   0.0000       0.119268         3.2454
  71   0.0000       0.130890         3.5617

MULLIKEN ATOMIC CHARGES
-----------------------
   0 S :    0.104926
   1 C :   -0.127237
   2 C :   -0.134298
   3 C :   -0.005016
   4 C :   -0.085601
   5 H :    0.007045
   6 C :    0.095602
   7 H :    0.034603
   8 H :   -0.000270
   9 C :   -0.039634
  10 H :    0.032862
  11 H :    0.038264
  12 C :   -0.094269
  13 H :    0.039026
  14 H :    0.040319
  15 H :    0.029964
  16 S :    0.097547
  17 C :   -0.098861
  18 C :   -0.036893
  19 C :   -0.062129
  20 C :   -0.129509
  21 H :   -0.005168
  22 C :    0.047827
  23 H :    0.033273
  24 H :    0.031065
  25 C :   -0.089220
  26 H :    0.024063
  27 H :    0.026979
  28 C :   -0.029683
  29 H :    0.035440
  30 H :    0.028161
  31 H :    0.040887
  32 H :    0.059429
  33 H :    0.090507
Sum of atomic charges:   -0.0000000

LOEWDIN ATOMIC CHARGES
----------------------
   0 S :    0.440026
   1 C :   -0.206217
   2 C :   -0.071426
   3 C :   -0.073623
   4 C :   -0.213733
   5 H :    0.028599
   6 C :   -0.026898
   7 H :    0.030329
   8 H :    0.026557
   9 C :   -0.033436
  10 H :    0.029959
  11 H :    0.023651
  12 C :   -0.075503
  13 H :    0.026898
  14 H :    0.024860
  15 H :    0.024459
  16 S :    0.415072
  17 C :   -0.212432
  18 C :   -0.060397
  19 C :   -0.061284
  20 C :   -0.196575
  21 H :    0.015358
  22 C :   -0.029600
  23 H :    0.030580
  24 H :    0.031477
  25 C :   -0.046623
  26 H :    0.016632
  27 H :    0.031118
  28 C :   -0.065063
  29 H :    0.023995
  30 H :    0.021967
  31 H :    0.031860
  32 H :    0.040171
  33 H :    0.059241

  Mayer bond orders larger than 0.100000
B(  0-S ,  1-C ) :   1.1443 B(  0-S ,  4-C ) :   1.1877 B(  1-C ,  2-C ) :   1.5725
B(  1-C ,  4-C ) :   0.1012 B(  1-C , 32-H ) :   0.9644 B(  2-C ,  3-C ) :   1.3294
B(  2-C ,  6-C ) :   1.0049 B(  3-C ,  4-C ) :   1.4868 B(  3-C ,  5-H ) :   0.9839
B(  4-C , 20-C ) :   1.0648 B(  6-C ,  7-H ) :   0.9508 B(  6-C ,  8-H ) :   0.9246
B(  6-C ,  9-C ) :   1.0677 B(  9-C , 10-H ) :   0.9524 B(  9-C , 11-H ) :   0.9613
B(  9-C , 12-C ) :   1.0636 B( 12-C , 13-H ) :   0.9739 B( 12-C , 14-H ) :   0.9760
B( 12-C , 15-H ) :   0.9788 B( 16-S , 17-C ) :   1.1244 B( 16-S , 20-C ) :   1.1608
B( 17-C , 18-C ) :   1.6472 B( 17-C , 33-H ) :   0.9536 B( 18-C , 19-C ) :   1.2309
B( 18-C , 21-H ) :   0.9893 B( 19-C , 20-C ) :   1.5780 B( 19-C , 22-C ) :   1.0086
B( 22-C , 23-H ) :   0.9460 B( 22-C , 24-H ) :   0.9432 B( 22-C , 25-C ) :   1.0721
B( 25-C , 26-H ) :   0.9550 B( 25-C , 27-H ) :   0.9532 B( 25-C , 28-C ) :   1.0876
B( 28-C , 29-H ) :   0.9650 B( 28-C , 30-H ) :   0.9721 B( 28-C , 31-H ) :   0.9715

Dispersion correction           -0.015087302
FINAL SINGLE POINT ENERGY     -1339.857221157236

DIPOLE MOMENT
-------------
                                X             Y             Z
Electronic contribution:     -3.01663     -26.79341       5.76479
Nuclear contribution   :      2.58806      27.37399      -5.92744
                        -----------------------------------------
Total Dipole Moment    :     -0.42857       0.58058      -0.16265
                        -----------------------------------------
Magnitude (a.u.)       :      0.73973
Magnitude (Debye)      :      1.88024

Rotational constants in cm-1:     0.021318     0.009085     0.006981
Rotational constants in MHz :   639.110091   272.370569   209.294274

                             ****ORCA TERMINATED NORMALLY****
TOTAL RUN TIME: 0 days 0 hours 0 minutes 22 seconds 463 msec
