                         Program Version 4.2.1 -  RELEASE  -
|  1> ! wB97X-D3 SP def2-SVP
|  2> %pal
|  3> nprocs 24
|  4> end
|  5>
|  6> * xyz 0 1
|  7> S 	 -46.7803 	 3.14474 	 -17.0755
|  8> C 	 -47.3029 	 1.9429 	 -18.2349
|  9> C 	 -48.6372 	 2.02467 	 -18.4911
| 10> C 	 -49.3262 	 2.8802 	 -17.575
| 11> C 	 -48.4537 	 3.66844 	 -16.8166
| 12> H 	 -50.3842 	 3.00412 	 -17.5371
| 13> C 	 -49.276 	 1.20569 	 -19.5957
| 14> H 	 -48.6292 	 1.25797 	 -20.4983
| 15> H 	 -50.2866 	 1.50594 	 -19.8752
| 16> C 	 -49.3528 	 -0.259493 	 -19.3142
| 17> H 	 -48.2768 	 -0.581387 	 -19.0805
| 18> H 	 -50.0252 	 -0.543567 	 -18.5077
| 19> C 	 -49.7297 	 -1.14671 	 -20.548
| 20> H 	 -50.2635 	 -0.725403 	 -21.3845
| 21> H 	 -48.8083 	 -1.5432 	 -20.9874
| 22> H 	 -50.2688 	 -2.06246 	 -20.2546
| 23> S 	 -47.7311 	 6.24465 	 -16.3972
| 24> C 	 -48.7619 	 7.31521 	 -15.5094
| 25> C 	 -49.8759 	 6.67214 	 -14.994
| 26> C 	 -49.9454 	 5.29015 	 -15.3846
| 27> C 	 -48.8513 	 4.88651 	 -16.1077
| 28> H 	 -50.5669 	 7.25288 	 -14.4276
| 29> C 	 -51.1187 	 4.47772 	 -14.9423
| 30> H 	 -51.884 	 4.36586 	 -15.697
| 31> H 	 -51.7215 	 5.21848 	 -14.348
| 32> C 	 -50.8331 	 3.10211 	 -14.2168
| 33> H 	 -50.3178 	 2.40314 	 -14.9004
| 34> H 	 -51.8467 	 2.61319 	 -14.0825
| 35> C 	 -50.1909 	 3.17969 	 -12.8236
| 36> H 	 -49.2437 	 3.71646 	 -12.9683
| 37> H 	 -50.1707 	 2.22567 	 -12.2844
| 38> H 	 -50.8708 	 3.83989 	 -12.2513
| 39> H 	 -46.6212 	 1.35258 	 -18.7847
| 40> H 	 -48.613 	 8.37032 	 -15.2939
| 41> *
| 42>
| 43>                          ****END OF INPUT****

CARTESIAN COORDINATES (ANGSTROEM)
---------------------------------
  S    -46.780300    3.144740  -17.075500
  C    -47.302900    1.942900  -18.234900
  C    -48.637200    2.024670  -18.491100
  C    -49.326200    2.880200  -17.575000
  C    -48.453700    3.668440  -16.816600
  H    -50.384200    3.004120  -17.537100
  C    -49.276000    1.205690  -19.595700
  H    -48.629200    1.257970  -20.498300
  H    -50.286600    1.505940  -19.875200
  C    -49.352800   -0.259493  -19.314200
  H    -48.276800   -0.581387  -19.080500
  H    -50.025200   -0.543567  -18.507700
  C    -49.729700   -1.146710  -20.548000
  H    -50.263500   -0.725403  -21.384500
  H    -48.808300   -1.543200  -20.987400
  H    -50.268800   -2.062460  -20.254600
  S    -47.731100    6.244650  -16.397200
  C    -48.761900    7.315210  -15.509400
  C    -49.875900    6.672140  -14.994000
  C    -49.945400    5.290150  -15.384600
  C    -48.851300    4.886510  -16.107700
  H    -50.566900    7.252880  -14.427600
  C    -51.118700    4.477720  -14.942300
  H    -51.884000    4.365860  -15.697000
  H    -51.721500    5.218480  -14.348000
  C    -50.833100    3.102110  -14.216800
  H    -50.317800    2.403140  -14.900400
  H    -51.846700    2.613190  -14.082500
  C    -50.190900    3.179690  -12.823600
  H    -49.243700    3.716460  -12.968300
  H    -50.170700    2.225670  -12.284400
  H    -50.870800    3.839890  -12.251300
  H    -46.621200    1.352580  -18.784700
  H    -48.613000    8.370320  -15.293900

 Total Charge           Charge          ....    0
 Multiplicity           Mult            ....    1
 Number of Electrons    NEL             ....  134
 Basis Dimension        Dim             ....  322

ORBITAL ENERGIES
----------------

  NO   OCC          E(Eh)            E(eV)
   0   2.0000     -88.969550     -2420.9845
   1   2.0000     -88.965205     -2420.8663
   2   2.0000     -10.335269      -281.2370
   3   2.0000     -10.329724      -281.0861
   4   2.0000     -10.315373      -280.6956
   5   2.0000     -10.309611      -280.5388
   6   2.0000     -10.303201      -280.3643
   7   2.0000     -10.300856      -280.3005
   8   2.0000     -10.296626      -280.1854
   9   2.0000     -10.295689      -280.1600
  10   2.0000     -10.293414      -280.0980
  11   2.0000     -10.292203      -280.0651
  12   2.0000     -10.291907      -280.0570
  13   2.0000     -10.291491      -280.0457
  14   2.0000     -10.278789      -279.7001
  15   2.0000     -10.277013      -279.6517
  16   2.0000      -8.083718      -219.9692
  17   2.0000      -8.079877      -219.8646
  18   2.0000      -6.042277      -164.4187
  19   2.0000      -6.038515      -164.3164
  20   2.0000      -6.038369      -164.3124
  21   2.0000      -6.034398      -164.2043
  22   2.0000      -6.034328      -164.2024
  23   2.0000      -6.030558      -164.0998
  24   2.0000      -1.006181       -27.3796
  25   2.0000      -0.984552       -26.7910
  26   2.0000      -0.914725       -24.8909
  27   2.0000      -0.902421       -24.5561
  28   2.0000      -0.868963       -23.6457
  29   2.0000      -0.850763       -23.1505
  30   2.0000      -0.845183       -22.9986
  31   2.0000      -0.814609       -22.1666
  32   2.0000      -0.783121       -21.3098
  33   2.0000      -0.774181       -21.0665
  34   2.0000      -0.709308       -19.3013
  35   2.0000      -0.695389       -18.9225
  36   2.0000      -0.688331       -18.7304
  37   2.0000      -0.665626       -18.1126
  38   2.0000      -0.642977       -17.4963
  39   2.0000      -0.619952       -16.8697
  40   2.0000      -0.591666       -16.1001
  41   2.0000      -0.577364       -15.7109
  42   2.0000      -0.562179       -15.2977
  43   2.0000      -0.548382       -14.9222
  44   2.0000      -0.536727       -14.6051
  45   2.0000      -0.520843       -14.1729
  46   2.0000      -0.520041       -14.1510
  47   2.0000      -0.508790       -13.8449
  48   2.0000      -0.501616       -13.6497
  49   2.0000      -0.498527       -13.5656
  50   2.0000      -0.490314       -13.3421
  51   2.0000      -0.479248       -13.0410
  52   2.0000      -0.475348       -12.9349
  53   2.0000      -0.465198       -12.6587
  54   2.0000      -0.460635       -12.5345
  55   2.0000      -0.447342       -12.1728
  56   2.0000      -0.441455       -12.0126
  57   2.0000      -0.438815       -11.9408
  58   2.0000      -0.429183       -11.6787
  59   2.0000      -0.422550       -11.4982
  60   2.0000      -0.414886       -11.2896
  61   2.0000      -0.413020       -11.2388
  62   2.0000      -0.410554       -11.1717
  63   2.0000      -0.354115        -9.6359
  64   2.0000      -0.332192        -9.0394
  65   2.0000      -0.331112        -9.0100
  66   2.0000      -0.285309        -7.7636
  67   0.0000       0.024578         0.6688
  68   0.0000       0.070461         1.9173
  69   0.0000       0.109081         2.9683
  70   0.0000       0.121629         3.3097
  71   0.0000       0.127235         3.4622

MULLIKEN ATOMIC CHARGES
-----------------------
   0 S :    0.111552
   1 C :   -0.109736
   2 C :   -0.068142
   3 C :    0.041466
   4 C :   -0.135246
   5 H :    0.003286
   6 C :    0.070402
   7 H :    0.032401
   8 H :    0.020866
   9 C :   -0.103486
  10 H :    0.033517
  11 H :    0.036497
  12 C :   -0.059668
  13 H :    0.030629
  14 H :    0.024703
  15 H :    0.033832
  16 S :    0.098777
  17 C :   -0.082665
  18 C :   -0.043093
  19 C :   -0.034028
  20 C :   -0.140748
  21 H :    0.010071
  22 C :    0.047483
  23 H :    0.030753
  24 H :    0.005385
  25 C :   -0.098406
  26 H :    0.045384
  27 H :    0.024877
  28 C :   -0.038144
  29 H :    0.051437
  30 H :    0.047913
  31 H :    0.020916
  32 H :    0.036460
  33 H :    0.054754
Sum of atomic charges:   -0.0000000

LOEWDIN ATOMIC CHARGES
----------------------
   0 S :    0.397106
   1 C :   -0.187866
   2 C :   -0.058997
   3 C :   -0.054225
   4 C :   -0.186343
   5 H :    0.026871
   6 C :   -0.034987
   7 H :    0.037505
   8 H :    0.027882
   9 C :   -0.041936
  10 H :    0.029647
  11 H :    0.022158
  12 C :   -0.077123
  13 H :    0.020795
  14 H :    0.026123
  15 H :    0.029950
  16 S :    0.399085
  17 C :   -0.190423
  18 C :   -0.070482
  19 C :   -0.065236
  20 C :   -0.178258
  21 H :    0.027562
  22 C :   -0.041950
  23 H :    0.032104
  24 H :    0.035191
  25 C :   -0.045760
  26 H :    0.024152
  27 H :    0.026336
  28 C :   -0.067442
  29 H :    0.030934
  30 H :    0.030626
  31 H :    0.025456
  32 H :    0.019160
  33 H :    0.032387

  Mayer bond orders larger than 0.100000
B(  0-S ,  1-C ) :   1.1237 B(  0-S ,  4-C ) :   1.1517 B(  1-C ,  2-C ) :   1.6153
B(  1-C , 32-H ) :   0.9713 B(  2-C ,  3-C ) :   1.2552 B(  2-C ,  6-C ) :   1.0242
B(  3-C ,  4-C ) :   1.5415 B(  3-C ,  5-H ) :   0.9958 B(  4-C , 20-C ) :   1.0643
B(  6-C ,  7-H ) :   0.9409 B(  6-C ,  8-H ) :   0.9399 B(  6-C ,  9-C ) :   1.0699
B(  9-C , 10-H ) :   0.9622 B(  9-C , 11-H ) :   0.9630 B(  9-C , 12-C ) :   1.0559
B( 12-C , 13-H ) :   0.9784 B( 12-C , 14-H ) :   0.9787 B( 12-C , 15-H ) :   0.9777
B( 16-S , 17-C ) :   1.1525 B( 16-S , 20-C ) :   1.1231 B( 17-C , 18-C ) :   1.6356
B( 17-C , 33-H ) :   0.9617 B( 18-C , 19-C ) :   1.2214 B( 18-C , 21-H ) :   0.9904
B( 19-C , 20-C ) :   1.6087 B( 19-C , 22-C ) :   1.0446 B( 22-C , 23-H ) :   0.9235
B( 22-C , 24-H ) :   0.9287 B( 22-C , 25-C ) :   1.0607 B( 25-C , 26-H ) :   0.9543
B( 25-C , 27-H ) :   0.9535 B( 25-C , 28-C ) :   1.0696 B( 28-C , 29-H ) :   0.9769
B( 28-C , 30-H ) :   0.9740 B( 28-C , 31-H ) :   0.9737

Dispersion correction           -0.014242645
FINAL SINGLE POINT ENERGY     -1339.875537688599

DIPOLE MOMENT
-------------
                                X             Y             Z
Electronic contribution:     17.07868      20.53694       1.28815
Nuclear contribution   :    -17.67455     -20.74757      -1.46398
                        -----------------------------------------
Total Dipole Moment    :     -0.59587      -0.21063      -0.17583
                        -----------------------------------------
Magnitude (a.u.)       :      0.65600
Magnitude (Debye)      :      1.66743

Rotational constants in cm-1:     0.021123     0.007837     0.006580
Rotational constants in MHz :   633.250949   234.932556   197.259399

                             ****ORCA TERMINATED NORMALLY****
TOTAL RUN TIME: 0 days 0 hours 0 minutes 21 seconds 586 msec
