                         Program Version 4.2.1 -  RELEASE  -
|  1> ! wB97X-D3 SP def2-SVP
|  2> %pal
|  3> nprocs 24
|  4> end
|  5>
|  6> * xyz 0 1
|  7> S 	 -55.9609 	 11.2611 	 22.1361
|  8> C 	 -57.0766 	 11.6614 	 20.877
|  9> C 	 -58.1582 	 10.8413 	 20.8447
| 10> C 	 -58.1169 	 9.88865 	 21.9176
| 11> C 	 -56.9133 	 9.8757 	 22.6358
| 12> H 	 -58.8548 	 9.07511 	 21.9789
| 13> C 	 -59.1928 	 10.8182 	 19.7574
| 14> H 	 -58.9381 	 11.7026 	 19.2296
| 15> H 	 -60.1688 	 11.0233 	 20.2227
| 16> C 	 -58.9796 	 9.65506 	 18.8559
| 17> H 	 -57.9506 	 9.49082 	 18.6446
| 18> H 	 -59.1901 	 8.76097 	 19.372
| 19> C 	 -59.8055 	 9.76857 	 17.6101
| 20> H 	 -60.8033 	 9.46572 	 17.6823
| 21> H 	 -59.6309 	 10.8105 	 17.2121
| 22> H 	 -59.3445 	 9.12085 	 16.8534
| 23> S 	 -56.0911 	 10.0434 	 25.3425
| 24> C 	 -56.2989 	 8.68792 	 26.3551
| 25> C 	 -56.776 	 7.63326 	 25.6959
| 26> C 	 -56.9735 	 7.86466 	 24.3044
| 27> C 	 -56.7684 	 9.19918 	 23.9534
| 28> H 	 -56.9788 	 6.68666 	 26.2451
| 29> C 	 -57.2412 	 6.65283 	 23.3665
| 30> H 	 -56.4909 	 5.85909 	 23.6049
| 31> H 	 -57.0672 	 6.97002 	 22.3308
| 32> C 	 -58.7048 	 6.12558 	 23.4117
| 33> H 	 -59.4217 	 6.93321 	 23.2657
| 34> H 	 -58.9234 	 5.76815 	 24.4337
| 35> C 	 -59.0299 	 5.01723 	 22.3676
| 36> H 	 -59.2055 	 5.35105 	 21.3865
| 37> H 	 -59.8847 	 4.41144 	 22.6706
| 38> H 	 -58.2173 	 4.28486 	 22.3241
| 39> H 	 -56.8281 	 12.52 	 20.2455
| 40> H 	 -56.3333 	 8.61641 	 27.4235
| 41> *
| 42>
| 43>                          ****END OF INPUT****

CARTESIAN COORDINATES (ANGSTROEM)
---------------------------------
  S    -55.960900   11.261100   22.136100
  C    -57.076600   11.661400   20.877000
  C    -58.158200   10.841300   20.844700
  C    -58.116900    9.888650   21.917600
  C    -56.913300    9.875700   22.635800
  H    -58.854800    9.075110   21.978900
  C    -59.192800   10.818200   19.757400
  H    -58.938100   11.702600   19.229600
  H    -60.168800   11.023300   20.222700
  C    -58.979600    9.655060   18.855900
  H    -57.950600    9.490820   18.644600
  H    -59.190100    8.760970   19.372000
  C    -59.805500    9.768570   17.610100
  H    -60.803300    9.465720   17.682300
  H    -59.630900   10.810500   17.212100
  H    -59.344500    9.120850   16.853400
  S    -56.091100   10.043400   25.342500
  C    -56.298900    8.687920   26.355100
  C    -56.776000    7.633260   25.695900
  C    -56.973500    7.864660   24.304400
  C    -56.768400    9.199180   23.953400
  H    -56.978800    6.686660   26.245100
  C    -57.241200    6.652830   23.366500
  H    -56.490900    5.859090   23.604900
  H    -57.067200    6.970020   22.330800
  C    -58.704800    6.125580   23.411700
  H    -59.421700    6.933210   23.265700
  H    -58.923400    5.768150   24.433700
  C    -59.029900    5.017230   22.367600
  H    -59.205500    5.351050   21.386500
  H    -59.884700    4.411440   22.670600
  H    -58.217300    4.284860   22.324100
  H    -56.828100   12.520000   20.245500
  H    -56.333300    8.616410   27.423500

 Total Charge           Charge          ....    0
 Multiplicity           Mult            ....    1
 Number of Electrons    NEL             ....  134
 Basis Dimension        Dim             ....  322

ORBITAL ENERGIES
----------------

  NO   OCC          E(Eh)            E(eV)
   0   2.0000     -88.965372     -2420.8709
   1   2.0000     -88.963908     -2420.8310
   2   2.0000     -10.334031      -281.2033
   3   2.0000     -10.331149      -281.1249
   4   2.0000     -10.313052      -280.6324
   5   2.0000     -10.304601      -280.4025
   6   2.0000     -10.301699      -280.3235
   7   2.0000     -10.297831      -280.2182
   8   2.0000     -10.297107      -280.1985
   9   2.0000     -10.296636      -280.1857
  10   2.0000     -10.291109      -280.0353
  11   2.0000     -10.286309      -279.9047
  12   2.0000     -10.286191      -279.9015
  13   2.0000     -10.276714      -279.6436
  14   2.0000     -10.276571      -279.6397
  15   2.0000     -10.276347      -279.6336
  16   2.0000      -8.080652      -219.8857
  17   2.0000      -8.079260      -219.8479
  18   2.0000      -6.039160      -164.3339
  19   2.0000      -6.037818      -164.2974
  20   2.0000      -6.035024      -164.2214
  21   2.0000      -6.033741      -164.1864
  22   2.0000      -6.031446      -164.1240
  23   2.0000      -6.029852      -164.0806
  24   2.0000      -1.008930       -27.4544
  25   2.0000      -0.991288       -26.9743
  26   2.0000      -0.926239       -25.2042
  27   2.0000      -0.900453       -24.5026
  28   2.0000      -0.872327       -23.7372
  29   2.0000      -0.852253       -23.1910
  30   2.0000      -0.845619       -23.0105
  31   2.0000      -0.817726       -22.2514
  32   2.0000      -0.783054       -21.3080
  33   2.0000      -0.772954       -21.0332
  34   2.0000      -0.714056       -19.4304
  35   2.0000      -0.701658       -19.0931
  36   2.0000      -0.694315       -18.8933
  37   2.0000      -0.656196       -17.8560
  38   2.0000      -0.638752       -17.3813
  39   2.0000      -0.623588       -16.9687
  40   2.0000      -0.592739       -16.1293
  41   2.0000      -0.576112       -15.6768
  42   2.0000      -0.568420       -15.4675
  43   2.0000      -0.558977       -15.2105
  44   2.0000      -0.532774       -14.4975
  45   2.0000      -0.522415       -14.2156
  46   2.0000      -0.518111       -14.0985
  47   2.0000      -0.509241       -13.8572
  48   2.0000      -0.504315       -13.7231
  49   2.0000      -0.501729       -13.6527
  50   2.0000      -0.495212       -13.4754
  51   2.0000      -0.483610       -13.1597
  52   2.0000      -0.472139       -12.8476
  53   2.0000      -0.468250       -12.7417
  54   2.0000      -0.460250       -12.5240
  55   2.0000      -0.450156       -12.2494
  56   2.0000      -0.441724       -12.0199
  57   2.0000      -0.436595       -11.8804
  58   2.0000      -0.433430       -11.7942
  59   2.0000      -0.422727       -11.5030
  60   2.0000      -0.420231       -11.4351
  61   2.0000      -0.419421       -11.4130
  62   2.0000      -0.414175       -11.2703
  63   2.0000      -0.356603        -9.7037
  64   2.0000      -0.331019        -9.0075
  65   2.0000      -0.329138        -8.9563
  66   2.0000      -0.290490        -7.9046
  67   0.0000       0.029419         0.8005
  68   0.0000       0.078477         2.1355
  69   0.0000       0.112719         3.0672
  70   0.0000       0.121961         3.3187
  71   0.0000       0.128737         3.5031

MULLIKEN ATOMIC CHARGES
-----------------------
   0 S :    0.095333
   1 C :   -0.143628
   2 C :   -0.122061
   3 C :    0.012470
   4 C :   -0.129933
   5 H :    0.018411
   6 C :    0.120134
   7 H :   -0.009140
   8 H :    0.041000
   9 C :   -0.043921
  10 H :    0.021763
  11 H :    0.004934
  12 C :   -0.016898
  13 H :    0.032540
  14 H :    0.030276
  15 H :    0.024189
  16 S :    0.107174
  17 C :   -0.061553
  18 C :   -0.061360
  19 C :   -0.059843
  20 C :   -0.133511
  21 H :    0.030637
  22 C :    0.049929
  23 H :    0.045088
  24 H :    0.022701
  25 C :   -0.087012
  26 H :    0.029635
  27 H :    0.024708
  28 C :   -0.026292
  29 H :    0.026168
  30 H :    0.030708
  31 H :    0.021213
  32 H :    0.058830
  33 H :    0.047313
Sum of atomic charges:   -0.0000000

LOEWDIN ATOMIC CHARGES
----------------------
   0 S :    0.407892
   1 C :   -0.200280
   2 C :   -0.067530
   3 C :   -0.059073
   4 C :   -0.194407
   5 H :    0.030330
   6 C :   -0.027260
   7 H :    0.023256
   8 H :    0.037231
   9 C :   -0.039586
  10 H :    0.028159
  11 H :    0.017654
  12 C :   -0.058768
  13 H :    0.018610
  14 H :    0.031667
  15 H :    0.029056
  16 S :    0.413042
  17 C :   -0.201962
  18 C :   -0.080094
  19 C :   -0.061820
  20 C :   -0.189488
  21 H :    0.037642
  22 C :   -0.030492
  23 H :    0.036955
  24 H :    0.026798
  25 C :   -0.041903
  26 H :    0.021668
  27 H :    0.022574
  28 C :   -0.064523
  29 H :    0.016932
  30 H :    0.029328
  31 H :    0.024787
  32 H :    0.030222
  33 H :    0.033381

  Mayer bond orders larger than 0.100000
B(  0-S ,  1-C ) :   1.1477 B(  0-S ,  4-C ) :   1.1539 B(  1-C ,  2-C ) :   1.6056
B(  1-C , 32-H ) :   0.9633 B(  2-C ,  3-C ) :   1.2652 B(  2-C ,  6-C ) :   1.0191
B(  3-C ,  4-C ) :   1.5504 B(  3-C ,  5-H ) :   0.9824 B(  4-C , 20-C ) :   1.0365
B(  6-C ,  7-H ) :   0.9289 B(  6-C ,  8-H ) :   0.9312 B(  6-C ,  9-C ) :   1.0658
B(  9-C , 10-H ) :   0.9490 B(  9-C , 11-H ) :   0.9446 B(  9-C , 12-C ) :   1.0949
B( 12-C , 13-H ) :   0.9743 B( 12-C , 14-H ) :   0.9734 B( 12-C , 15-H ) :   0.9716
B( 16-S , 17-C ) :   1.1476 B( 16-S , 20-C ) :   1.1317 B( 17-C , 18-C ) :   1.6510
B( 17-C , 33-H ) :   0.9567 B( 18-C , 19-C ) :   1.2417 B( 18-C , 21-H ) :   0.9815
B( 19-C , 20-C ) :   1.6106 B( 19-C , 22-C ) :   1.0355 B( 22-C , 23-H ) :   0.9425
B( 22-C , 24-H ) :   0.9375 B( 22-C , 25-C ) :   1.0561 B( 25-C , 26-H ) :   0.9559
B( 25-C , 27-H ) :   0.9582 B( 25-C , 28-C ) :   1.0770 B( 28-C , 29-H ) :   0.9781
B( 28-C , 30-H ) :   0.9744 B( 28-C , 31-H ) :   0.9739

Dispersion correction           -0.013947250
FINAL SINGLE POINT ENERGY     -1339.875536616014

DIPOLE MOMENT
-------------
                                X             Y             Z
Electronic contribution:     18.61651      18.10181      19.88642
Nuclear contribution   :    -19.11253     -18.53691     -20.25167
                        -----------------------------------------
Total Dipole Moment    :     -0.49602      -0.43509      -0.36525
                        -----------------------------------------
Magnitude (a.u.)       :      0.75415
Magnitude (Debye)      :      1.91690

Rotational constants in cm-1:     0.016991     0.009353     0.006314
Rotational constants in MHz :   509.364321   280.405337   189.275872

                             ****ORCA TERMINATED NORMALLY****
TOTAL RUN TIME: 0 days 0 hours 0 minutes 21 seconds 488 msec
