                         Program Version 4.2.1 -  RELEASE  -
|  1> ! wB97X-D3 SP def2-SVP
|  2> %pal
|  3> nprocs 24
|  4> end
|  5>
|  6> * xyz 0 1
|  7> S 	 -105.925 	 23.1891 	 -111.866
|  8> C 	 -105.411 	 23.5704 	 -110.209
|  9> C 	 -105.492 	 22.4748 	 -109.392
| 10> C 	 -106.097 	 21.3582 	 -110.054
| 11> C 	 -106.43 	 21.5881 	 -111.347
| 12> H 	 -106.475 	 20.4474 	 -109.638
| 13> C 	 -105.165 	 22.431 	 -107.93
| 14> H 	 -105.498 	 21.495 	 -107.425
| 15> H 	 -105.673 	 23.2371 	 -107.405
| 16> C 	 -103.657 	 22.4976 	 -107.627
| 17> H 	 -103.311 	 23.3445 	 -108.116
| 18> H 	 -103.65 	 22.7362 	 -106.63
| 19> C 	 -102.906 	 21.2361 	 -108.007
| 20> H 	 -103.06 	 21.1502 	 -109.05
| 21> H 	 -101.819 	 21.2001 	 -107.716
| 22> H 	 -103.434 	 20.3763 	 -107.508
| 23> S 	 -108.616 	 21.5406 	 -112.913
| 24> C 	 -108.964 	 20.0922 	 -113.9
| 25> C 	 -108.107 	 19.0718 	 -113.589
| 26> C 	 -107.067 	 19.4524 	 -112.679
| 27> C 	 -107.151 	 20.8054 	 -112.298
| 28> H 	 -108.344 	 18.0999 	 -113.936
| 29> C 	 -106.073 	 18.4523 	 -112.248
| 30> H 	 -106.509 	 17.4543 	 -112.35
| 31> H 	 -105.996 	 18.5608 	 -111.113
| 32> C 	 -104.695 	 18.4804 	 -112.915
| 33> H 	 -104.913 	 18.6426 	 -114.062
| 34> H 	 -104.258 	 17.4328 	 -112.848
| 35> C 	 -103.656 	 19.5328 	 -112.364
| 36> H 	 -102.746 	 19.5543 	 -112.943
| 37> H 	 -103.386 	 19.1979 	 -111.343
| 38> H 	 -104.12 	 20.5275 	 -112.337
| 39> H 	 -104.925 	 24.4952 	 -109.88
| 40> H 	 -109.897 	 20.0607 	 -114.463
| 41> *
| 42>
| 43>                          ****END OF INPUT****

CARTESIAN COORDINATES (ANGSTROEM)
---------------------------------
  S    -105.925000   23.189100  -111.866000
  C    -105.411000   23.570400  -110.209000
  C    -105.492000   22.474800  -109.392000
  C    -106.097000   21.358200  -110.054000
  C    -106.430000   21.588100  -111.347000
  H    -106.475000   20.447400  -109.638000
  C    -105.165000   22.431000  -107.930000
  H    -105.498000   21.495000  -107.425000
  H    -105.673000   23.237100  -107.405000
  C    -103.657000   22.497600  -107.627000
  H    -103.311000   23.344500  -108.116000
  H    -103.650000   22.736200  -106.630000
  C    -102.906000   21.236100  -108.007000
  H    -103.060000   21.150200  -109.050000
  H    -101.819000   21.200100  -107.716000
  H    -103.434000   20.376300  -107.508000
  S    -108.616000   21.540600  -112.913000
  C    -108.964000   20.092200  -113.900000
  C    -108.107000   19.071800  -113.589000
  C    -107.067000   19.452400  -112.679000
  C    -107.151000   20.805400  -112.298000
  H    -108.344000   18.099900  -113.936000
  C    -106.073000   18.452300  -112.248000
  H    -106.509000   17.454300  -112.350000
  H    -105.996000   18.560800  -111.113000
  C    -104.695000   18.480400  -112.915000
  H    -104.913000   18.642600  -114.062000
  H    -104.258000   17.432800  -112.848000
  C    -103.656000   19.532800  -112.364000
  H    -102.746000   19.554300  -112.943000
  H    -103.386000   19.197900  -111.343000
  H    -104.120000   20.527500  -112.337000
  H    -104.925000   24.495200  -109.880000
  H    -109.897000   20.060700  -114.463000

 Total Charge           Charge          ....    0
 Multiplicity           Mult            ....    1
 Number of Electrons    NEL             ....  134
 Basis Dimension        Dim             ....  322

ORBITAL ENERGIES
----------------

  NO   OCC          E(Eh)            E(eV)
   0   2.0000     -88.965586     -2420.8767
   1   2.0000     -88.963727     -2420.8261
   2   2.0000     -10.326042      -280.9859
   3   2.0000     -10.325040      -280.9586
   4   2.0000     -10.319880      -280.8182
   5   2.0000     -10.315598      -280.7017
   6   2.0000     -10.304779      -280.4073
   7   2.0000     -10.300607      -280.2938
   8   2.0000     -10.299330      -280.2590
   9   2.0000     -10.293698      -280.1058
  10   2.0000     -10.293451      -280.0991
  11   2.0000     -10.291611      -280.0490
  12   2.0000     -10.290309      -280.0135
  13   2.0000     -10.279840      -279.7287
  14   2.0000     -10.277248      -279.6581
  15   2.0000     -10.271212      -279.4939
  16   2.0000      -8.079734      -219.8607
  17   2.0000      -8.078219      -219.8195
  18   2.0000      -6.038284      -164.3101
  19   2.0000      -6.036672      -164.2662
  20   2.0000      -6.034321      -164.2022
  21   2.0000      -6.032796      -164.1607
  22   2.0000      -6.030455      -164.0970
  23   2.0000      -6.028984      -164.0570
  24   2.0000      -1.008999       -27.4563
  25   2.0000      -0.982495       -26.7351
  26   2.0000      -0.919165       -25.0118
  27   2.0000      -0.903744       -24.5921
  28   2.0000      -0.874480       -23.7958
  29   2.0000      -0.847078       -23.0502
  30   2.0000      -0.840814       -22.8797
  31   2.0000      -0.816852       -22.2277
  32   2.0000      -0.783082       -21.3087
  33   2.0000      -0.771114       -20.9831
  34   2.0000      -0.708672       -19.2840
  35   2.0000      -0.706266       -19.2185
  36   2.0000      -0.685255       -18.6467
  37   2.0000      -0.665411       -18.1068
  38   2.0000      -0.642684       -17.4883
  39   2.0000      -0.613574       -16.6962
  40   2.0000      -0.593754       -16.1569
  41   2.0000      -0.581137       -15.8135
  42   2.0000      -0.555455       -15.1147
  43   2.0000      -0.551581       -15.0093
  44   2.0000      -0.547281       -14.8923
  45   2.0000      -0.525286       -14.2937
  46   2.0000      -0.511987       -13.9319
  47   2.0000      -0.505687       -13.7604
  48   2.0000      -0.504434       -13.7264
  49   2.0000      -0.494541       -13.4572
  50   2.0000      -0.492404       -13.3990
  51   2.0000      -0.480894       -13.0858
  52   2.0000      -0.474962       -12.9244
  53   2.0000      -0.465168       -12.6579
  54   2.0000      -0.456750       -12.4288
  55   2.0000      -0.445280       -12.1167
  56   2.0000      -0.439628       -11.9629
  57   2.0000      -0.438476       -11.9315
  58   2.0000      -0.433622       -11.7994
  59   2.0000      -0.424056       -11.5391
  60   2.0000      -0.418311       -11.3828
  61   2.0000      -0.414399       -11.2764
  62   2.0000      -0.408672       -11.1205
  63   2.0000      -0.349203        -9.5023
  64   2.0000      -0.331910        -9.0317
  65   2.0000      -0.328347        -8.9348
  66   2.0000      -0.293056        -7.9745
  67   0.0000       0.026470         0.7203
  68   0.0000       0.065783         1.7900
  69   0.0000       0.102805         2.7975
  70   0.0000       0.112893         3.0720
  71   0.0000       0.129414         3.5215

MULLIKEN ATOMIC CHARGES
-----------------------
   0 S :    0.106929
   1 C :   -0.122765
   2 C :   -0.069611
   3 C :    0.054997
   4 C :   -0.196652
   5 H :    0.006005
   6 C :    0.010853
   7 H :    0.021719
   8 H :    0.037801
   9 C :   -0.000745
  10 H :   -0.000824
  11 H :    0.000524
  12 C :   -0.051792
  13 H :    0.037277
  14 H :    0.053318
  15 H :    0.024117
  16 S :    0.097909
  17 C :   -0.100616
  18 C :   -0.016495
  19 C :   -0.025975
  20 C :   -0.139584
  21 H :    0.009014
  22 C :    0.058492
  23 H :    0.018920
  24 H :    0.023495
  25 C :   -0.115592
  26 H :    0.041671
  27 H :    0.037793
  28 C :   -0.037809
  29 H :    0.036941
  30 H :    0.033687
  31 H :    0.050573
  32 H :    0.050675
  33 H :    0.065748
Sum of atomic charges:    0.0000000

LOEWDIN ATOMIC CHARGES
----------------------
   0 S :    0.390512
   1 C :   -0.189763
   2 C :   -0.064179
   3 C :   -0.061323
   4 C :   -0.189658
   5 H :    0.029287
   6 C :   -0.028726
   7 H :    0.030238
   8 H :    0.033994
   9 C :   -0.029738
  10 H :    0.011221
  11 H :    0.011049
  12 C :   -0.063684
  13 H :    0.022900
  14 H :    0.034545
  15 H :    0.028013
  16 S :    0.395031
  17 C :   -0.169572
  18 C :   -0.064825
  19 C :   -0.055204
  20 C :   -0.205454
  21 H :    0.028268
  22 C :   -0.046977
  23 H :    0.033449
  24 H :    0.034904
  25 C :   -0.048637
  26 H :    0.032400
  27 H :    0.027265
  28 C :   -0.065400
  29 H :    0.024959
  30 H :    0.026629
  31 H :    0.027725
  32 H :    0.030914
  33 H :    0.029836

  Mayer bond orders larger than 0.100000
B(  0-S ,  1-C ) :   1.1177 B(  0-S ,  4-C ) :   1.1354 B(  1-C ,  2-C ) :   1.6430
B(  1-C , 32-H ) :   0.9632 B(  2-C ,  3-C ) :   1.1980 B(  2-C ,  6-C ) :   1.0196
B(  3-C ,  4-C ) :   1.6282 B(  3-C ,  5-H ) :   0.9941 B(  4-C , 20-C ) :   1.0307
B(  6-C ,  7-H ) :   0.9473 B(  6-C ,  8-H ) :   0.9422 B(  6-C ,  9-C ) :   1.0742
B(  9-C , 10-H ) :   0.9539 B(  9-C , 11-H ) :   0.9511 B(  9-C , 12-C ) :   1.0650
B( 12-C , 13-H ) :   0.9765 B( 12-C , 14-H ) :   0.9735 B( 12-C , 15-H ) :   0.9727
B( 16-S , 17-C ) :   1.1466 B( 16-S , 20-C ) :   1.1524 B( 17-C , 18-C ) :   1.6041
B( 17-C , 20-C ) :   0.1030 B( 17-C , 33-H ) :   0.9679 B( 18-C , 19-C ) :   1.2360
B( 18-C , 21-H ) :   0.9969 B( 19-C , 20-C ) :   1.5668 B( 19-C , 22-C ) :   1.0597
B( 22-C , 23-H ) :   0.9270 B( 22-C , 24-H ) :   0.9269 B( 22-C , 25-C ) :   1.0579
B( 25-C , 26-H ) :   0.9540 B( 25-C , 27-H ) :   0.9573 B( 25-C , 28-C ) :   1.0687
B( 28-C , 29-H ) :   0.9733 B( 28-C , 30-H ) :   0.9728 B( 28-C , 31-H ) :   0.9746

Dispersion correction           -0.015873853
FINAL SINGLE POINT ENERGY     -1339.879682303109

DIPOLE MOMENT
-------------
                                X             Y             Z
Electronic contribution:    -20.33487      11.82211     -14.10572
Nuclear contribution   :     20.41914     -12.26711      14.55946
                        -----------------------------------------
Total Dipole Moment    :      0.08426      -0.44500       0.45374
                        -----------------------------------------
Magnitude (a.u.)       :      0.64110
Magnitude (Debye)      :      1.62954

Rotational constants in cm-1:     0.021332     0.009409     0.007513
Rotational constants in MHz :   639.521971   282.078329   225.242693

                             ****ORCA TERMINATED NORMALLY****
TOTAL RUN TIME: 0 days 0 hours 0 minutes 22 seconds 983 msec
