                         Program Version 4.2.1 -  RELEASE  -
|  1> ! wB97X-D3 SP def2-SVP
|  2> %pal
|  3> nprocs 24
|  4> end
|  5>
|  6> * xyz 0 1
|  7> S 	 -43.5095 	 15.935 	 -101.207
|  8> C 	 -43.5451 	 14.2185 	 -101.147
|  9> C 	 -44.8258 	 13.6908 	 -101.333
| 10> C 	 -45.8063 	 14.6858 	 -101.688
| 11> C 	 -45.2532 	 15.9732 	 -101.675
| 12> H 	 -46.8686 	 14.4921 	 -101.796
| 13> C 	 -45.0574 	 12.1762 	 -101.221
| 14> H 	 -44.1337 	 11.7414 	 -101.355
| 15> H 	 -45.6536 	 11.8629 	 -102.118
| 16> C 	 -45.7035 	 11.795 	 -99.8844
| 17> H 	 -46.7436 	 12.0258 	 -99.8063
| 18> H 	 -45.8037 	 10.7689 	 -99.7806
| 19> C 	 -44.9304 	 12.4484 	 -98.7284
| 20> H 	 -43.8187 	 12.4559 	 -98.8543
| 21> H 	 -45.2232 	 13.4707 	 -98.648
| 22> H 	 -45.1116 	 11.9342 	 -97.8079
| 23> S 	 -46.6271 	 17.9856 	 -100.417
| 24> C 	 -47.4561 	 19.1226 	 -101.458
| 25> C 	 -47.2939 	 18.849 	 -102.8
| 26> C 	 -46.4938 	 17.7064 	 -103.057
| 27> C 	 -46.1077 	 17.1358 	 -101.867
| 28> H 	 -47.9007 	 19.3198 	 -103.517
| 29> C 	 -46.2392 	 17.2178 	 -104.446
| 30> H 	 -45.2375 	 16.8148 	 -104.543
| 31> H 	 -46.35 	 18.0706 	 -105.049
| 32> C 	 -47.2143 	 16.0695 	 -104.954
| 33> H 	 -48.0425 	 16.6325 	 -105.394
| 34> H 	 -47.5945 	 15.5291 	 -104.08
| 35> C 	 -46.6706 	 15.0131 	 -105.88
| 36> H 	 -46.033 	 14.2521 	 -105.369
| 37> H 	 -46.0143 	 15.4643 	 -106.641
| 38> H 	 -47.4849 	 14.7402 	 -106.505
| 39> H 	 -42.609 	 13.7123 	 -100.976
| 40> H 	 -47.9628 	 20.0129 	 -101.116
| 41> *
| 42>
| 43>                          ****END OF INPUT****

CARTESIAN COORDINATES (ANGSTROEM)
---------------------------------
  S    -43.509500   15.935000  -101.207000
  C    -43.545100   14.218500  -101.147000
  C    -44.825800   13.690800  -101.333000
  C    -45.806300   14.685800  -101.688000
  C    -45.253200   15.973200  -101.675000
  H    -46.868600   14.492100  -101.796000
  C    -45.057400   12.176200  -101.221000
  H    -44.133700   11.741400  -101.355000
  H    -45.653600   11.862900  -102.118000
  C    -45.703500   11.795000  -99.884400
  H    -46.743600   12.025800  -99.806300
  H    -45.803700   10.768900  -99.780600
  C    -44.930400   12.448400  -98.728400
  H    -43.818700   12.455900  -98.854300
  H    -45.223200   13.470700  -98.648000
  H    -45.111600   11.934200  -97.807900
  S    -46.627100   17.985600  -100.417000
  C    -47.456100   19.122600  -101.458000
  C    -47.293900   18.849000  -102.800000
  C    -46.493800   17.706400  -103.057000
  C    -46.107700   17.135800  -101.867000
  H    -47.900700   19.319800  -103.517000
  C    -46.239200   17.217800  -104.446000
  H    -45.237500   16.814800  -104.543000
  H    -46.350000   18.070600  -105.049000
  C    -47.214300   16.069500  -104.954000
  H    -48.042500   16.632500  -105.394000
  H    -47.594500   15.529100  -104.080000
  C    -46.670600   15.013100  -105.880000
  H    -46.033000   14.252100  -105.369000
  H    -46.014300   15.464300  -106.641000
  H    -47.484900   14.740200  -106.505000
  H    -42.609000   13.712300  -100.976000
  H    -47.962800   20.012900  -101.116000

 Total Charge           Charge          ....    0
 Multiplicity           Mult            ....    1
 Number of Electrons    NEL             ....  134
 Basis Dimension        Dim             ....  322

ORBITAL ENERGIES
----------------

  NO   OCC          E(Eh)            E(eV)
   0   2.0000     -88.966888     -2420.9121
   1   2.0000     -88.966227     -2420.8941
   2   2.0000     -10.329370      -281.0765
   3   2.0000     -10.318671      -280.7853
   4   2.0000     -10.313844      -280.6540
   5   2.0000     -10.312211      -280.6095
   6   2.0000     -10.301286      -280.3122
   7   2.0000     -10.298114      -280.2259
   8   2.0000     -10.296001      -280.1684
   9   2.0000     -10.288293      -279.9587
  10   2.0000     -10.285202      -279.8746
  11   2.0000     -10.284546      -279.8567
  12   2.0000     -10.284342      -279.8512
  13   2.0000     -10.277287      -279.6592
  14   2.0000     -10.276328      -279.6331
  15   2.0000     -10.270134      -279.4645
  16   2.0000      -8.081174      -219.8999
  17   2.0000      -8.080842      -219.8909
  18   2.0000      -6.039607      -164.3461
  19   2.0000      -6.039217      -164.3355
  20   2.0000      -6.035749      -164.2411
  21   2.0000      -6.035473      -164.2336
  22   2.0000      -6.032058      -164.1407
  23   2.0000      -6.031665      -164.1299
  24   2.0000      -1.002069       -27.2677
  25   2.0000      -0.979801       -26.6617
  26   2.0000      -0.909854       -24.7584
  27   2.0000      -0.905440       -24.6383
  28   2.0000      -0.866967       -23.5914
  29   2.0000      -0.855693       -23.2846
  30   2.0000      -0.843649       -22.9569
  31   2.0000      -0.810295       -22.0492
  32   2.0000      -0.783439       -21.3185
  33   2.0000      -0.768511       -20.9122
  34   2.0000      -0.710584       -19.3360
  35   2.0000      -0.697924       -18.9915
  36   2.0000      -0.688304       -18.7297
  37   2.0000      -0.663599       -18.0574
  38   2.0000      -0.645241       -17.5579
  39   2.0000      -0.614303       -16.7160
  40   2.0000      -0.593068       -16.1382
  41   2.0000      -0.571195       -15.5430
  42   2.0000      -0.560758       -15.2590
  43   2.0000      -0.547184       -14.8896
  44   2.0000      -0.542853       -14.7718
  45   2.0000      -0.521712       -14.1965
  46   2.0000      -0.517609       -14.0849
  47   2.0000      -0.511599       -13.9213
  48   2.0000      -0.501886       -13.6570
  49   2.0000      -0.489239       -13.3129
  50   2.0000      -0.487443       -13.2640
  51   2.0000      -0.482621       -13.1328
  52   2.0000      -0.473684       -12.8896
  53   2.0000      -0.460599       -12.5335
  54   2.0000      -0.457623       -12.4526
  55   2.0000      -0.453864       -12.3503
  56   2.0000      -0.442852       -12.0506
  57   2.0000      -0.433433       -11.7943
  58   2.0000      -0.431501       -11.7417
  59   2.0000      -0.423591       -11.5265
  60   2.0000      -0.422108       -11.4861
  61   2.0000      -0.414483       -11.2787
  62   2.0000      -0.412973       -11.2376
  63   2.0000      -0.338241        -9.2040
  64   2.0000      -0.330223        -8.9858
  65   2.0000      -0.316124        -8.6022
  66   2.0000      -0.302645        -8.2354
  67   0.0000       0.042518         1.1570
  68   0.0000       0.052497         1.4285
  69   0.0000       0.115994         3.1564
  70   0.0000       0.120271         3.2727
  71   0.0000       0.122682         3.3384

MULLIKEN ATOMIC CHARGES
-----------------------
   0 S :    0.117497
   1 C :   -0.139557
   2 C :   -0.112404
   3 C :    0.032497
   4 C :   -0.166680
   5 H :    0.030753
   6 C :    0.101602
   7 H :    0.000021
   8 H :    0.030631
   9 C :   -0.022288
  10 H :    0.014672
  11 H :    0.006448
  12 C :   -0.048351
  13 H :    0.026519
  14 H :    0.043436
  15 H :    0.025014
  16 S :    0.122062
  17 C :   -0.091350
  18 C :   -0.021689
  19 C :   -0.033056
  20 C :   -0.216229
  21 H :    0.002203
  22 C :    0.126482
  23 H :    0.023375
  24 H :    0.008592
  25 C :   -0.090022
  26 H :    0.023739
  27 H :    0.029041
  28 C :   -0.031828
  29 H :    0.057667
  30 H :    0.015730
  31 H :    0.027879
  32 H :    0.055401
  33 H :    0.052190
Sum of atomic charges:    0.0000000

LOEWDIN ATOMIC CHARGES
----------------------
   0 S :    0.397827
   1 C :   -0.204932
   2 C :   -0.062634
   3 C :   -0.053716
   4 C :   -0.188087
   5 H :    0.034932
   6 C :   -0.022292
   7 H :    0.017299
   8 H :    0.033899
   9 C :   -0.037102
  10 H :    0.023183
  11 H :    0.014543
  12 C :   -0.059757
  13 H :    0.026658
  14 H :    0.025740
  15 H :    0.020959
  16 S :    0.404630
  17 C :   -0.181642
  18 C :   -0.068190
  19 C :   -0.050299
  20 C :   -0.200951
  21 H :    0.023335
  22 C :   -0.024035
  23 H :    0.031439
  24 H :    0.023515
  25 C :   -0.038872
  26 H :    0.022632
  27 H :    0.023225
  28 C :   -0.071430
  29 H :    0.036049
  30 H :    0.024539
  31 H :    0.028831
  32 H :    0.023889
  33 H :    0.026817

  Mayer bond orders larger than 0.100000
B(  0-S ,  1-C ) :   1.1540 B(  0-S ,  4-C ) :   1.1385 B(  1-C ,  2-C ) :   1.5855
B(  1-C , 32-H ) :   0.9677 B(  2-C ,  3-C ) :   1.2471 B(  2-C ,  6-C ) :   1.0232
B(  3-C ,  4-C ) :   1.5748 B(  3-C ,  5-H ) :   0.9870 B(  4-C , 20-C ) :   1.0380
B(  6-C ,  7-H ) :   0.9394 B(  6-C ,  8-H ) :   0.9437 B(  6-C ,  9-C ) :   1.0667
B(  9-C , 10-H ) :   0.9526 B(  9-C , 11-H ) :   0.9572 B(  9-C , 12-C ) :   1.0693
B( 12-C , 13-H ) :   0.9781 B( 12-C , 14-H ) :   0.9705 B( 12-C , 15-H ) :   0.9728
B( 16-S , 17-C ) :   1.1509 B( 16-S , 20-C ) :   1.1436 B( 17-C , 18-C ) :   1.6266
B( 17-C , 33-H ) :   0.9645 B( 18-C , 19-C ) :   1.2413 B( 18-C , 21-H ) :   0.9876
B( 19-C , 20-C ) :   1.6127 B( 19-C , 22-C ) :   1.0594 B( 22-C , 23-H ) :   0.9258
B( 22-C , 24-H ) :   0.9277 B( 22-C , 25-C ) :   1.0419 B( 25-C , 26-H ) :   0.9577
B( 25-C , 27-H ) :   0.9616 B( 25-C , 28-C ) :   1.0900 B( 28-C , 29-H ) :   0.9727
B( 28-C , 30-H ) :   0.9704 B( 28-C , 31-H ) :   0.9676

Dispersion correction           -0.015482852
FINAL SINGLE POINT ENERGY     -1339.870411544532

DIPOLE MOMENT
-------------
                                X             Y             Z
Electronic contribution:      5.42903      18.95722       9.56881
Nuclear contribution   :     -5.71104     -19.31783      -9.86464
                        -----------------------------------------
Total Dipole Moment    :     -0.28201      -0.36060      -0.29584
                        -----------------------------------------
Magnitude (a.u.)       :      0.54505
Magnitude (Debye)      :      1.38541

Rotational constants in cm-1:     0.018301     0.009354     0.007582
Rotational constants in MHz :   548.639490   280.426384   227.315621

                             ****ORCA TERMINATED NORMALLY****
TOTAL RUN TIME: 0 days 0 hours 0 minutes 20 seconds 983 msec
