                         Program Version 4.2.1 -  RELEASE  -
|  1> ! wB97X-D3 SP def2-SVP
|  2> %pal
|  3> nprocs 24
|  4> end
|  5>
|  6> * xyz 0 1
|  7> S 	 -44.8063 	 27.2826 	 28.0503
|  8> C 	 -46.1854 	 26.4572 	 27.3348
|  9> C 	 -47.2812 	 26.4939 	 28.1449
| 10> C 	 -46.9942 	 27.0053 	 29.4636
| 11> C 	 -45.6575 	 27.3553 	 29.5402
| 12> H 	 -47.7239 	 27.2282 	 30.2234
| 13> C 	 -48.6307 	 25.9254 	 27.7476
| 14> H 	 -48.7137 	 25.8572 	 26.7002
| 15> H 	 -49.443 	 26.6172 	 27.9957
| 16> C 	 -49.0562 	 24.5266 	 28.3017
| 17> H 	 -48.2366 	 23.7926 	 28.2215
| 18> H 	 -49.3364 	 24.71 	 29.3481
| 19> C 	 -50.3244 	 24.0403 	 27.6324
| 20> H 	 -51.0807 	 24.818 	 27.7288
| 21> H 	 -50.2558 	 23.9073 	 26.6096
| 22> H 	 -50.7016 	 23.0916 	 28.0248
| 23> S 	 -45.113 	 29.809 	 30.7549
| 24> C 	 -44.1648 	 29.8733 	 32.2028
| 25> C 	 -43.9458 	 28.5861 	 32.7245
| 26> C 	 -44.3706 	 27.5833 	 31.8357
| 27> C 	 -45.0055 	 28.0662 	 30.7086
| 28> H 	 -43.4391 	 28.4256 	 33.6069
| 29> C 	 -44.1185 	 26.1404 	 32.1715
| 30> H 	 -43.1541 	 25.8726 	 32.643
| 31> H 	 -44.0421 	 25.5821 	 31.1768
| 32> C 	 -45.2596 	 25.5786 	 33.0508
| 33> H 	 -46.1692 	 26.1001 	 32.6703
| 34> H 	 -45.182 	 26.0015 	 34.0601
| 35> C 	 -45.4624 	 24.049 	 33.0848
| 36> H 	 -44.5286 	 23.5289 	 33.3006
| 37> H 	 -45.7914 	 23.7662 	 32.0345
| 38> H 	 -46.1681 	 23.6595 	 33.774
| 39> H 	 -46.2133 	 25.8977 	 26.4344
| 40> H 	 -43.8276 	 30.7646 	 32.685
| 41> *
| 42>
| 43>                          ****END OF INPUT****

CARTESIAN COORDINATES (ANGSTROEM)
---------------------------------
  S    -44.806300   27.282600   28.050300
  C    -46.185400   26.457200   27.334800
  C    -47.281200   26.493900   28.144900
  C    -46.994200   27.005300   29.463600
  C    -45.657500   27.355300   29.540200
  H    -47.723900   27.228200   30.223400
  C    -48.630700   25.925400   27.747600
  H    -48.713700   25.857200   26.700200
  H    -49.443000   26.617200   27.995700
  C    -49.056200   24.526600   28.301700
  H    -48.236600   23.792600   28.221500
  H    -49.336400   24.710000   29.348100
  C    -50.324400   24.040300   27.632400
  H    -51.080700   24.818000   27.728800
  H    -50.255800   23.907300   26.609600
  H    -50.701600   23.091600   28.024800
  S    -45.113000   29.809000   30.754900
  C    -44.164800   29.873300   32.202800
  C    -43.945800   28.586100   32.724500
  C    -44.370600   27.583300   31.835700
  C    -45.005500   28.066200   30.708600
  H    -43.439100   28.425600   33.606900
  C    -44.118500   26.140400   32.171500
  H    -43.154100   25.872600   32.643000
  H    -44.042100   25.582100   31.176800
  C    -45.259600   25.578600   33.050800
  H    -46.169200   26.100100   32.670300
  H    -45.182000   26.001500   34.060100
  C    -45.462400   24.049000   33.084800
  H    -44.528600   23.528900   33.300600
  H    -45.791400   23.766200   32.034500
  H    -46.168100   23.659500   33.774000
  H    -46.213300   25.897700   26.434400
  H    -43.827600   30.764600   32.685000

 Total Charge           Charge          ....    0
 Multiplicity           Mult            ....    1
 Number of Electrons    NEL             ....  134
 Basis Dimension        Dim             ....  322

ORBITAL ENERGIES
----------------

  NO   OCC          E(Eh)            E(eV)
   0   2.0000     -88.968864     -2420.9659
   1   2.0000     -88.966083     -2420.8902
   2   2.0000     -10.331406      -281.1318
   3   2.0000     -10.324466      -280.9430
   4   2.0000     -10.315771      -280.7064
   5   2.0000     -10.309143      -280.5261
   6   2.0000     -10.300173      -280.2820
   7   2.0000     -10.298480      -280.2359
   8   2.0000     -10.296791      -280.1899
   9   2.0000     -10.293365      -280.0967
  10   2.0000     -10.289310      -279.9864
  11   2.0000     -10.289245      -279.9846
  12   2.0000     -10.286157      -279.9006
  13   2.0000     -10.285768      -279.8900
  14   2.0000     -10.278546      -279.6935
  15   2.0000     -10.272637      -279.5327
  16   2.0000      -8.083937      -219.9751
  17   2.0000      -8.081045      -219.8964
  18   2.0000      -6.042435      -164.4230
  19   2.0000      -6.039423      -164.3411
  20   2.0000      -6.038510      -164.3162
  21   2.0000      -6.035440      -164.2327
  22   2.0000      -6.034567      -164.2089
  23   2.0000      -6.032025      -164.1397
  24   2.0000      -1.007779       -27.4231
  25   2.0000      -0.987512       -26.8716
  26   2.0000      -0.911952       -24.8155
  27   2.0000      -0.903580       -24.5877
  28   2.0000      -0.866472       -23.5779
  29   2.0000      -0.850104       -23.1325
  30   2.0000      -0.847456       -23.0604
  31   2.0000      -0.814480       -22.1631
  32   2.0000      -0.782539       -21.2940
  33   2.0000      -0.770937       -20.9783
  34   2.0000      -0.703815       -19.1518
  35   2.0000      -0.696391       -18.9498
  36   2.0000      -0.689960       -18.7748
  37   2.0000      -0.666680       -18.1413
  38   2.0000      -0.643626       -17.5140
  39   2.0000      -0.620678       -16.8895
  40   2.0000      -0.597904       -16.2698
  41   2.0000      -0.576977       -15.7004
  42   2.0000      -0.562996       -15.3199
  43   2.0000      -0.551857       -15.0168
  44   2.0000      -0.526124       -14.3166
  45   2.0000      -0.521480       -14.1902
  46   2.0000      -0.516446       -14.0532
  47   2.0000      -0.512347       -13.9417
  48   2.0000      -0.508284       -13.8311
  49   2.0000      -0.495774       -13.4907
  50   2.0000      -0.489045       -13.3076
  51   2.0000      -0.475953       -12.9513
  52   2.0000      -0.472690       -12.8625
  53   2.0000      -0.468156       -12.7392
  54   2.0000      -0.460199       -12.5227
  55   2.0000      -0.448492       -12.2041
  56   2.0000      -0.441790       -12.0217
  57   2.0000      -0.436510       -11.8780
  58   2.0000      -0.431573       -11.7437
  59   2.0000      -0.429616       -11.6904
  60   2.0000      -0.424500       -11.5512
  61   2.0000      -0.420016       -11.4292
  62   2.0000      -0.404401       -11.0043
  63   2.0000      -0.337387        -9.1808
  64   2.0000      -0.328694        -8.9442
  65   2.0000      -0.320635        -8.7249
  66   2.0000      -0.311930        -8.4880
  67   0.0000       0.047104         1.2818
  68   0.0000       0.052096         1.4176
  69   0.0000       0.108937         2.9643
  70   0.0000       0.126595         3.4448
  71   0.0000       0.132168         3.5965

MULLIKEN ATOMIC CHARGES
-----------------------
   0 S :    0.128767
   1 C :   -0.099240
   2 C :   -0.079167
   3 C :    0.051019
   4 C :   -0.161313
   5 H :    0.020526
   6 C :    0.047651
   7 H :   -0.001436
   8 H :    0.023522
   9 C :   -0.065760
  10 H :    0.038045
  11 H :    0.030607
  12 C :   -0.021906
  13 H :    0.017153
  14 H :    0.009256
  15 H :    0.036538
  16 S :    0.125024
  17 C :   -0.088587
  18 C :   -0.002830
  19 C :   -0.012610
  20 C :   -0.194735
  21 H :   -0.012674
  22 C :    0.039860
  23 H :    0.029513
  24 H :    0.033935
  25 C :   -0.090699
  26 H :    0.028286
  27 H :    0.022320
  28 C :   -0.030253
  29 H :    0.026614
  30 H :    0.039731
  31 H :    0.031650
  32 H :    0.031192
  33 H :    0.050003
Sum of atomic charges:    0.0000000

LOEWDIN ATOMIC CHARGES
----------------------
   0 S :    0.420926
   1 C :   -0.189839
   2 C :   -0.059724
   3 C :   -0.055898
   4 C :   -0.200068
   5 H :    0.033786
   6 C :   -0.033813
   7 H :    0.018912
   8 H :    0.032774
   9 C :   -0.036061
  10 H :    0.024788
  11 H :    0.025356
  12 C :   -0.061855
  13 H :    0.025582
  14 H :    0.012257
  15 H :    0.029818
  16 S :    0.421896
  17 C :   -0.184175
  18 C :   -0.060102
  19 C :   -0.057170
  20 C :   -0.212722
  21 H :    0.018223
  22 C :   -0.037131
  23 H :    0.029089
  24 H :    0.036504
  25 C :   -0.046930
  26 H :    0.025494
  27 H :    0.020080
  28 C :   -0.066446
  29 H :    0.023539
  30 H :    0.034495
  31 H :    0.021376
  32 H :    0.023052
  33 H :    0.023989

  Mayer bond orders larger than 0.100000
B(  0-S ,  1-C ) :   1.1227 B(  0-S ,  4-C ) :   1.1750 B(  1-C ,  2-C ) :   1.6439
B(  1-C , 32-H ) :   0.9681 B(  2-C ,  3-C ) :   1.2120 B(  2-C ,  6-C ) :   1.0379
B(  3-C ,  4-C ) :   1.5911 B(  3-C ,  5-H ) :   0.9986 B(  4-C , 20-C ) :   0.9648
B(  6-C ,  7-H ) :   0.9442 B(  6-C ,  8-H ) :   0.9337 B(  6-C ,  9-C ) :   1.0550
B(  9-C , 10-H ) :   0.9592 B(  9-C , 11-H ) :   0.9548 B(  9-C , 12-C ) :   1.0827
B( 12-C , 13-H ) :   0.9709 B( 12-C , 14-H ) :   0.9743 B( 12-C , 15-H ) :   0.9719
B( 16-S , 17-C ) :   1.1779 B( 16-S , 20-C ) :   1.1589 B( 17-C , 18-C ) :   1.5671
B( 17-C , 20-C ) :   0.1031 B( 17-C , 33-H ) :   0.9716 B( 18-C , 19-C ) :   1.2682
B( 18-C , 21-H ) :   1.0036 B( 19-C , 20-C ) :   1.5991 B( 19-C , 22-C ) :   1.0497
B( 22-C , 23-H ) :   0.9403 B( 22-C , 24-H ) :   0.9348 B( 22-C , 25-C ) :   1.0416
B( 25-C , 26-H ) :   0.9586 B( 25-C , 27-H ) :   0.9544 B( 25-C , 28-C ) :   1.0757
B( 28-C , 29-H ) :   0.9740 B( 28-C , 30-H ) :   0.9758 B( 28-C , 31-H ) :   0.9756

Dispersion correction           -0.014138415
FINAL SINGLE POINT ENERGY     -1339.881019605916

DIPOLE MOMENT
-------------
                                X             Y             Z
Electronic contribution:     16.16450      24.25251      -5.54991
Nuclear contribution   :    -16.49337     -24.61112       5.72533
                        -----------------------------------------
Total Dipole Moment    :     -0.32887      -0.35861       0.17541
                        -----------------------------------------
Magnitude (a.u.)       :      0.51723
Magnitude (Debye)      :      1.31470

Rotational constants in cm-1:     0.018332     0.008362     0.006668
Rotational constants in MHz :   549.583826   250.696655   199.893822

                             ****ORCA TERMINATED NORMALLY****
TOTAL RUN TIME: 0 days 0 hours 0 minutes 21 seconds 385 msec
