                         Program Version 4.2.1 -  RELEASE  -
|  1> ! wB97X-D3 SP def2-SVP
|  2> %pal
|  3> nprocs 24
|  4> end
|  5>
|  6> * xyz 0 1
|  7> S 	 -142.012 	 9.34447 	 1.67106
|  8> C 	 -141.266 	 9.1275 	 0.109763
|  9> C 	 -139.942 	 8.70406 	 0.176042
| 10> C 	 -139.583 	 8.37173 	 1.52941
| 11> C 	 -140.616 	 8.54121 	 2.41836
| 12> H 	 -138.699 	 7.98535 	 1.99225
| 13> C 	 -138.936 	 8.79796 	 -0.912744
| 14> H 	 -139.436 	 8.50364 	 -1.82495
| 15> H 	 -138.225 	 7.94741 	 -0.773815
| 16> C 	 -138.307 	 10.1717 	 -0.854374
| 17> H 	 -139.006 	 10.9703 	 -0.956739
| 18> H 	 -137.887 	 10.2567 	 0.212617
| 19> C 	 -137.022 	 10.1588 	 -1.6998
| 20> H 	 -136.496 	 11.1092 	 -1.3897
| 21> H 	 -136.365 	 9.32595 	 -1.55006
| 22> H 	 -137.297 	 10.2234 	 -2.79855
| 23> S 	 -140.527 	 6.63229 	 4.35654
| 24> C 	 -140.599 	 7.08986 	 6.06589
| 25> C 	 -141.021 	 8.3945 	 6.17578
| 26> C 	 -140.901 	 9.14212 	 4.90632
| 27> C 	 -140.656 	 8.24753 	 3.83
| 28> H 	 -141.181 	 8.83077 	 7.16367
| 29> C 	 -141.059 	 10.6345 	 4.78778
| 30> H 	 -142.117 	 10.8627 	 4.60389
| 31> H 	 -140.456 	 10.9726 	 3.89761
| 32> C 	 -140.632 	 11.473 	 5.95972
| 33> H 	 -139.579 	 11.3108 	 6.18492
| 34> H 	 -141.25 	 11.2384 	 6.89101
| 35> C 	 -140.921 	 12.9397 	 5.7058
| 36> H 	 -140.256 	 13.2651 	 4.83932
| 37> H 	 -140.632 	 13.4736 	 6.56384
| 38> H 	 -141.903 	 13.1899 	 5.36514
| 39> H 	 -141.718 	 9.64788 	 -0.693721
| 40> H 	 -140.736 	 6.47048 	 6.99569
| 41> *
| 42>
| 43>                          ****END OF INPUT****

CARTESIAN COORDINATES (ANGSTROEM)
---------------------------------
  S    -142.012000    9.344470    1.671060
  C    -141.266000    9.127500    0.109763
  C    -139.942000    8.704060    0.176042
  C    -139.583000    8.371730    1.529410
  C    -140.616000    8.541210    2.418360
  H    -138.699000    7.985350    1.992250
  C    -138.936000    8.797960   -0.912744
  H    -139.436000    8.503640   -1.824950
  H    -138.225000    7.947410   -0.773815
  C    -138.307000   10.171700   -0.854374
  H    -139.006000   10.970300   -0.956739
  H    -137.887000   10.256700    0.212617
  C    -137.022000   10.158800   -1.699800
  H    -136.496000   11.109200   -1.389700
  H    -136.365000    9.325950   -1.550060
  H    -137.297000   10.223400   -2.798550
  S    -140.527000    6.632290    4.356540
  C    -140.599000    7.089860    6.065890
  C    -141.021000    8.394500    6.175780
  C    -140.901000    9.142120    4.906320
  C    -140.656000    8.247530    3.830000
  H    -141.181000    8.830770    7.163670
  C    -141.059000   10.634500    4.787780
  H    -142.117000   10.862700    4.603890
  H    -140.456000   10.972600    3.897610
  C    -140.632000   11.473000    5.959720
  H    -139.579000   11.310800    6.184920
  H    -141.250000   11.238400    6.891010
  C    -140.921000   12.939700    5.705800
  H    -140.256000   13.265100    4.839320
  H    -140.632000   13.473600    6.563840
  H    -141.903000   13.189900    5.365140
  H    -141.718000    9.647880   -0.693721
  H    -140.736000    6.470480    6.995690

 Total Charge           Charge          ....    0
 Multiplicity           Mult            ....    1
 Number of Electrons    NEL             ....  134
 Basis Dimension        Dim             ....  322

ORBITAL ENERGIES
----------------

  NO   OCC          E(Eh)            E(eV)
   0   2.0000     -88.966432     -2420.8997
   1   2.0000     -88.962481     -2420.7922
   2   2.0000     -10.325523      -280.9718
   3   2.0000     -10.321946      -280.8744
   4   2.0000     -10.317969      -280.7662
   5   2.0000     -10.309862      -280.5456
   6   2.0000     -10.305594      -280.4295
   7   2.0000     -10.302799      -280.3534
   8   2.0000     -10.296266      -280.1757
   9   2.0000     -10.293307      -280.0951
  10   2.0000     -10.292561      -280.0748
  11   2.0000     -10.290663      -280.0232
  12   2.0000     -10.290076      -280.0072
  13   2.0000     -10.287288      -279.9313
  14   2.0000     -10.285996      -279.8962
  15   2.0000     -10.274717      -279.5893
  16   2.0000      -8.081207      -219.9008
  17   2.0000      -8.077066      -219.7882
  18   2.0000      -6.039856      -164.3528
  19   2.0000      -6.035655      -164.2385
  20   2.0000      -6.035493      -164.2341
  21   2.0000      -6.031850      -164.1350
  22   2.0000      -6.031759      -164.1325
  23   2.0000      -6.027776      -164.0241
  24   2.0000      -1.005098       -27.3501
  25   2.0000      -0.981054       -26.6958
  26   2.0000      -0.918446       -24.9922
  27   2.0000      -0.913881       -24.8680
  28   2.0000      -0.870104       -23.6767
  29   2.0000      -0.850991       -23.1566
  30   2.0000      -0.844549       -22.9813
  31   2.0000      -0.817719       -22.2513
  32   2.0000      -0.779936       -21.2231
  33   2.0000      -0.762583       -20.7509
  34   2.0000      -0.703622       -19.1465
  35   2.0000      -0.700741       -19.0681
  36   2.0000      -0.690520       -18.7900
  37   2.0000      -0.657399       -17.8887
  38   2.0000      -0.641242       -17.4491
  39   2.0000      -0.615107       -16.7379
  40   2.0000      -0.592638       -16.1265
  41   2.0000      -0.572176       -15.5697
  42   2.0000      -0.569368       -15.4933
  43   2.0000      -0.556370       -15.1396
  44   2.0000      -0.531888       -14.4734
  45   2.0000      -0.526296       -14.3212
  46   2.0000      -0.515639       -14.0312
  47   2.0000      -0.514443       -13.9987
  48   2.0000      -0.508257       -13.8304
  49   2.0000      -0.502939       -13.6857
  50   2.0000      -0.483126       -13.1465
  51   2.0000      -0.475548       -12.9403
  52   2.0000      -0.468143       -12.7388
  53   2.0000      -0.461684       -12.5631
  54   2.0000      -0.454253       -12.3608
  55   2.0000      -0.453393       -12.3374
  56   2.0000      -0.449131       -12.2215
  57   2.0000      -0.442786       -12.0488
  58   2.0000      -0.432822       -11.7777
  59   2.0000      -0.422300       -11.4914
  60   2.0000      -0.416573       -11.3355
  61   2.0000      -0.410570       -11.1722
  62   2.0000      -0.408639       -11.1196
  63   2.0000      -0.342032        -9.3072
  64   2.0000      -0.332626        -9.0512
  65   2.0000      -0.320085        -8.7100
  66   2.0000      -0.293708        -7.9922
  67   0.0000       0.032058         0.8724
  68   0.0000       0.066696         1.8149
  69   0.0000       0.103034         2.8037
  70   0.0000       0.121712         3.3119
  71   0.0000       0.128562         3.4983

MULLIKEN ATOMIC CHARGES
-----------------------
   0 S :    0.100338
   1 C :   -0.104461
   2 C :   -0.096517
   3 C :    0.046295
   4 C :   -0.195656
   5 H :    0.004245
   6 C :    0.078112
   7 H :    0.021200
   8 H :    0.026269
   9 C :   -0.074646
  10 H :    0.030750
  11 H :    0.035120
  12 C :   -0.047381
  13 H :    0.041015
  14 H :    0.037552
  15 H :    0.039477
  16 S :    0.123889
  17 C :   -0.108758
  18 C :   -0.047220
  19 C :   -0.051217
  20 C :   -0.144355
  21 H :    0.030024
  22 C :    0.049161
  23 H :    0.037477
  24 H :    0.040906
  25 C :   -0.121301
  26 H :    0.037126
  27 H :    0.035241
  28 C :   -0.012756
  29 H :    0.022499
  30 H :    0.027920
  31 H :    0.025057
  32 H :    0.038015
  33 H :    0.076580
Sum of atomic charges:    0.0000000

LOEWDIN ATOMIC CHARGES
----------------------
   0 S :    0.395980
   1 C :   -0.194027
   2 C :   -0.056648
   3 C :   -0.056989
   4 C :   -0.183914
   5 H :    0.031731
   6 C :   -0.038381
   7 H :    0.028085
   8 H :    0.035103
   9 C :   -0.037062
  10 H :    0.023465
  11 H :    0.035698
  12 C :   -0.068600
  13 H :    0.031912
  14 H :    0.022352
  15 H :    0.028874
  16 S :    0.424240
  17 C :   -0.205062
  18 C :   -0.069186
  19 C :   -0.057923
  20 C :   -0.225094
  21 H :    0.031178
  22 C :   -0.047355
  23 H :    0.033992
  24 H :    0.037682
  25 C :   -0.046042
  26 H :    0.025795
  27 H :    0.026747
  28 C :   -0.059158
  29 H :    0.029519
  30 H :    0.020267
  31 H :    0.020866
  32 H :    0.015427
  33 H :    0.046528

  Mayer bond orders larger than 0.100000
B(  0-S ,  1-C ) :   1.1434 B(  0-S ,  4-C ) :   1.1357 B(  1-C ,  2-C ) :   1.6145
B(  1-C , 32-H ) :   0.9710 B(  2-C ,  3-C ) :   1.1993 B(  2-C ,  6-C ) :   1.0342
B(  3-C ,  4-C ) :   1.6109 B(  3-C ,  5-H ) :   0.9969 B(  4-C , 20-C ) :   1.0352
B(  6-C ,  7-H ) :   0.9308 B(  6-C ,  8-H ) :   0.9399 B(  6-C ,  9-C ) :   1.0484
B(  9-C , 10-H ) :   0.9592 B(  9-C , 11-H ) :   0.9576 B(  9-C , 12-C ) :   1.0672
B( 12-C , 13-H ) :   0.9766 B( 12-C , 14-H ) :   0.9755 B( 12-C , 15-H ) :   0.9736
B( 16-S , 17-C ) :   1.1363 B( 16-S , 20-C ) :   1.1567 B( 17-C , 18-C ) :   1.6432
B( 17-C , 33-H ) :   0.9542 B( 18-C , 19-C ) :   1.2333 B( 18-C , 21-H ) :   0.9752
B( 19-C , 20-C ) :   1.5672 B( 19-C , 22-C ) :   1.0479 B( 22-C , 23-H ) :   0.9241
B( 22-C , 24-H ) :   0.9305 B( 22-C , 25-C ) :   1.0823 B( 25-C , 26-H ) :   0.9557
B( 25-C , 27-H ) :   0.9440 B( 25-C , 28-C ) :   1.0915 B( 28-C , 29-H ) :   0.9700
B( 28-C , 30-H ) :   0.9722 B( 28-C , 31-H ) :   0.9728

Dispersion correction           -0.013938529
FINAL SINGLE POINT ENERGY     -1339.867007846119

DIPOLE MOMENT
-------------
                                X             Y             Z
Electronic contribution:    -12.33179     -19.76634       5.05920
Nuclear contribution   :     12.60831      20.26925      -5.06678
                        -----------------------------------------
Total Dipole Moment    :      0.27652       0.50292      -0.00759
                        -----------------------------------------
Magnitude (a.u.)       :      0.57397
Magnitude (Debye)      :      1.45892

Rotational constants in cm-1:     0.018317     0.007970     0.006684
Rotational constants in MHz :   549.123291   238.948549   200.370682

                             ****ORCA TERMINATED NORMALLY****
TOTAL RUN TIME: 0 days 0 hours 0 minutes 22 seconds 195 msec
