                         Program Version 4.2.1 -  RELEASE  -
|  1> ! wB97X-D3 SP def2-SVP
|  2> %pal
|  3> nprocs 24
|  4> end
|  5>
|  6> * xyz 0 1
|  7> S 	 -60.6593 	 22.4807 	 21.2333
|  8> C 	 -61.7879 	 21.4569 	 22.0533
|  9> C 	 -61.22 	 20.1883 	 22.2743
| 10> C 	 -59.8705 	 20.0089 	 21.8801
| 11> C 	 -59.4053 	 21.1425 	 21.2523
| 12> H 	 -59.3305 	 19.0906 	 21.9621
| 13> C 	 -61.9812 	 18.9806 	 22.845
| 14> H 	 -62.8341 	 19.175 	 23.4679
| 15> H 	 -61.3176 	 18.3214 	 23.4004
| 16> C 	 -62.5576 	 18.0111 	 21.7629
| 17> H 	 -63.2691 	 17.2653 	 22.2471
| 18> H 	 -63.2246 	 18.5829 	 21.1045
| 19> C 	 -61.5686 	 17.4677 	 20.8335
| 20> H 	 -62.1901 	 16.9692 	 20.1369
| 21> H 	 -61.035 	 18.2125 	 20.3026
| 22> H 	 -60.8559 	 16.8022 	 21.2624
| 23> S 	 -58.0762 	 20.9137 	 18.9094
| 24> C 	 -56.3999 	 21.1109 	 18.9558
| 25> C 	 -55.8604 	 21.4773 	 20.1895
| 26> C 	 -56.85 	 21.5692 	 21.1891
| 27> C 	 -58.1223 	 21.3225 	 20.6431
| 28> H 	 -54.7256 	 21.6646 	 20.21
| 29> C 	 -56.5583 	 21.7869 	 22.6503
| 30> H 	 -57.375 	 22.3484 	 23.0921
| 31> H 	 -55.7056 	 22.488 	 22.6697
| 32> C 	 -56.1574 	 20.5155 	 23.4749
| 33> H 	 -55.1393 	 20.3176 	 23.286
| 34> H 	 -56.7538 	 19.6766 	 23.2416
| 35> C 	 -56.4139 	 20.7348 	 24.9939
| 36> H 	 -55.8285 	 21.5892 	 25.4232
| 37> H 	 -56.0938 	 19.9207 	 25.5622
| 38> H 	 -57.5457 	 20.8448 	 25.1551
| 39> H 	 -62.8689 	 21.6954 	 22.2737
| 40> H 	 -55.7885 	 20.8713 	 18.1008
| 41> *
| 42>
| 43>                          ****END OF INPUT****

CARTESIAN COORDINATES (ANGSTROEM)
---------------------------------
  S    -60.659300   22.480700   21.233300
  C    -61.787900   21.456900   22.053300
  C    -61.220000   20.188300   22.274300
  C    -59.870500   20.008900   21.880100
  C    -59.405300   21.142500   21.252300
  H    -59.330500   19.090600   21.962100
  C    -61.981200   18.980600   22.845000
  H    -62.834100   19.175000   23.467900
  H    -61.317600   18.321400   23.400400
  C    -62.557600   18.011100   21.762900
  H    -63.269100   17.265300   22.247100
  H    -63.224600   18.582900   21.104500
  C    -61.568600   17.467700   20.833500
  H    -62.190100   16.969200   20.136900
  H    -61.035000   18.212500   20.302600
  H    -60.855900   16.802200   21.262400
  S    -58.076200   20.913700   18.909400
  C    -56.399900   21.110900   18.955800
  C    -55.860400   21.477300   20.189500
  C    -56.850000   21.569200   21.189100
  C    -58.122300   21.322500   20.643100
  H    -54.725600   21.664600   20.210000
  C    -56.558300   21.786900   22.650300
  H    -57.375000   22.348400   23.092100
  H    -55.705600   22.488000   22.669700
  C    -56.157400   20.515500   23.474900
  H    -55.139300   20.317600   23.286000
  H    -56.753800   19.676600   23.241600
  C    -56.413900   20.734800   24.993900
  H    -55.828500   21.589200   25.423200
  H    -56.093800   19.920700   25.562200
  H    -57.545700   20.844800   25.155100
  H    -62.868900   21.695400   22.273700
  H    -55.788500   20.871300   18.100800

 Total Charge           Charge          ....    0
 Multiplicity           Mult            ....    1
 Number of Electrons    NEL             ....  134
 Basis Dimension        Dim             ....  322

ORBITAL ENERGIES
----------------

  NO   OCC          E(Eh)            E(eV)
   0   2.0000     -88.967134     -2420.9188
   1   2.0000     -88.966045     -2420.8892
   2   2.0000     -10.330131      -281.0972
   3   2.0000     -10.320905      -280.8461
   4   2.0000     -10.319821      -280.8166
   5   2.0000     -10.312733      -280.6237
   6   2.0000     -10.306445      -280.4526
   7   2.0000     -10.301757      -280.3251
   8   2.0000     -10.297980      -280.2223
   9   2.0000     -10.295083      -280.1435
  10   2.0000     -10.291767      -280.0532
  11   2.0000     -10.286227      -279.9025
  12   2.0000     -10.283619      -279.8315
  13   2.0000     -10.283252      -279.8215
  14   2.0000     -10.281148      -279.7643
  15   2.0000     -10.259866      -279.1851
  16   2.0000      -8.082700      -219.9414
  17   2.0000      -8.079809      -219.8628
  18   2.0000      -6.040788      -164.3782
  19   2.0000      -6.038314      -164.3109
  20   2.0000      -6.037212      -164.2809
  21   2.0000      -6.034405      -164.2045
  22   2.0000      -6.033735      -164.1863
  23   2.0000      -6.030675      -164.1030
  24   2.0000      -1.004395       -27.3310
  25   2.0000      -0.980613       -26.6838
  26   2.0000      -0.911060       -24.7912
  27   2.0000      -0.906560       -24.6687
  28   2.0000      -0.868577       -23.6352
  29   2.0000      -0.854927       -23.2637
  30   2.0000      -0.850113       -23.1328
  31   2.0000      -0.810677       -22.0596
  32   2.0000      -0.784240       -21.3403
  33   2.0000      -0.765059       -20.8183
  34   2.0000      -0.706452       -19.2235
  35   2.0000      -0.695241       -18.9185
  36   2.0000      -0.688700       -18.7405
  37   2.0000      -0.655277       -17.8310
  38   2.0000      -0.641354       -17.4521
  39   2.0000      -0.617355       -16.7991
  40   2.0000      -0.594698       -16.1826
  41   2.0000      -0.568845       -15.4791
  42   2.0000      -0.564317       -15.3559
  43   2.0000      -0.546079       -14.8596
  44   2.0000      -0.539783       -14.6882
  45   2.0000      -0.520127       -14.1534
  46   2.0000      -0.519175       -14.1275
  47   2.0000      -0.513969       -13.9858
  48   2.0000      -0.506063       -13.7707
  49   2.0000      -0.496601       -13.5132
  50   2.0000      -0.487480       -13.2650
  51   2.0000      -0.478253       -13.0139
  52   2.0000      -0.470726       -12.8091
  53   2.0000      -0.465330       -12.6623
  54   2.0000      -0.456456       -12.4208
  55   2.0000      -0.446784       -12.1576
  56   2.0000      -0.439201       -11.9513
  57   2.0000      -0.435837       -11.8597
  58   2.0000      -0.433347       -11.7920
  59   2.0000      -0.429077       -11.6758
  60   2.0000      -0.424444       -11.5497
  61   2.0000      -0.414924       -11.2907
  62   2.0000      -0.406759       -11.0685
  63   2.0000      -0.343221        -9.3395
  64   2.0000      -0.332567        -9.0496
  65   2.0000      -0.312408        -8.5011
  66   2.0000      -0.301701        -8.2097
  67   0.0000       0.041597         1.1319
  68   0.0000       0.047598         1.2952
  69   0.0000       0.111284         3.0282
  70   0.0000       0.116400         3.1674
  71   0.0000       0.126614         3.4453

MULLIKEN ATOMIC CHARGES
-----------------------
   0 S :    0.109500
   1 C :   -0.130981
   2 C :   -0.093399
   3 C :    0.067095
   4 C :   -0.178002
   5 H :    0.018097
   6 C :    0.072998
   7 H :    0.016013
   8 H :    0.015559
   9 C :   -0.110967
  10 H :    0.036895
  11 H :    0.012186
  12 C :   -0.004204
  13 H :    0.019339
  14 H :    0.035813
  15 H :    0.017073
  16 S :    0.131161
  17 C :   -0.094093
  18 C :   -0.080570
  19 C :    0.010434
  20 C :   -0.213628
  21 H :    0.047615
  22 C :    0.067718
  23 H :    0.028455
  24 H :    0.022159
  25 C :   -0.015278
  26 H :    0.020933
  27 H :    0.020958
  28 C :   -0.080272
  29 H :    0.035533
  30 H :    0.020326
  31 H :    0.052159
  32 H :    0.072179
  33 H :    0.051196
Sum of atomic charges:   -0.0000000

LOEWDIN ATOMIC CHARGES
----------------------
   0 S :    0.382104
   1 C :   -0.214694
   2 C :   -0.065694
   3 C :   -0.049006
   4 C :   -0.177396
   5 H :    0.033992
   6 C :   -0.034579
   7 H :    0.024880
   8 H :    0.024797
   9 C :   -0.044621
  10 H :    0.028560
  11 H :    0.020846
  12 C :   -0.061254
  13 H :    0.027877
  14 H :    0.024813
  15 H :    0.016136
  16 S :    0.429426
  17 C :   -0.200103
  18 C :   -0.089315
  19 C :   -0.044574
  20 C :   -0.207704
  21 H :    0.047546
  22 C :   -0.029674
  23 H :    0.030964
  24 H :    0.034302
  25 C :   -0.023735
  26 H :    0.018131
  27 H :    0.018697
  28 C :   -0.067096
  29 H :    0.027555
  30 H :    0.014200
  31 H :    0.037142
  32 H :    0.043850
  33 H :    0.023630

  Mayer bond orders larger than 0.100000
B(  0-S ,  1-C ) :   1.1400 B(  0-S ,  4-C ) :   1.1351 B(  1-C ,  2-C ) :   1.6093
B(  1-C ,  4-C ) :   0.1025 B(  1-C , 32-H ) :   0.9596 B(  2-C ,  3-C ) :   1.2328
B(  2-C ,  6-C ) :   1.0300 B(  3-C ,  4-C ) :   1.5795 B(  3-C ,  5-H ) :   0.9934
B(  4-C , 20-C ) :   1.0386 B(  6-C ,  7-H ) :   0.9452 B(  6-C ,  8-H ) :   0.9447
B(  6-C ,  9-C ) :   1.0641 B(  9-C , 10-H ) :   0.9564 B(  9-C , 11-H ) :   0.9515
B(  9-C , 12-C ) :   1.0925 B( 12-C , 13-H ) :   0.9661 B( 12-C , 14-H ) :   0.9609
B( 12-C , 15-H ) :   0.9732 B( 16-S , 17-C ) :   1.1882 B( 16-S , 20-C ) :   1.1544
B( 17-C , 18-C ) :   1.5970 B( 17-C , 20-C ) :   0.1076 B( 17-C , 33-H ) :   0.9641
B( 18-C , 19-C ) :   1.2454 B( 18-C , 21-H ) :   0.9794 B( 19-C , 20-C ) :   1.5751
B( 19-C , 22-C ) :   1.0538 B( 22-C , 23-H ) :   0.9351 B( 22-C , 24-H ) :   0.9287
B( 22-C , 25-C ) :   1.0493 B( 25-C , 26-H ) :   0.9544 B( 25-C , 27-H ) :   0.9608
B( 25-C , 28-C ) :   1.0859 B( 28-C , 29-H ) :   0.9752 B( 28-C , 30-H ) :   0.9743
B( 28-C , 31-H ) :   0.9767

Dispersion correction           -0.015077238
FINAL SINGLE POINT ENERGY     -1339.868771949087

DIPOLE MOMENT
-------------
                                X             Y             Z
Electronic contribution:     -0.49618      15.23030     -16.62622
Nuclear contribution   :      0.70272     -15.69656      16.85026
                        -----------------------------------------
Total Dipole Moment    :      0.20654      -0.46626       0.22404
                        -----------------------------------------
Magnitude (a.u.)       :      0.55701
Magnitude (Debye)      :      1.41579

Rotational constants in cm-1:     0.016840     0.009445     0.008063
Rotational constants in MHz :   504.859277   283.167712   241.730771

                             ****ORCA TERMINATED NORMALLY****
TOTAL RUN TIME: 0 days 0 hours 0 minutes 22 seconds 115 msec
