                         Program Version 4.2.1 -  RELEASE  -
|  1> ! wB97X-D3 SP def2-SVP
|  2> %pal
|  3> nprocs 24
|  4> end
|  5>
|  6> * xyz 0 1
|  7> S 	 -113.428 	 61.7087 	 -71.4842
|  8> C 	 -112.799 	 60.11 	 -71.727
|  9> C 	 -112.491 	 59.3814 	 -70.5958
| 10> C 	 -112.624 	 60.263 	 -69.4445
| 11> C 	 -113.032 	 61.5261 	 -69.7776
| 12> H 	 -112.325 	 60.0115 	 -68.4342
| 13> C 	 -112.099 	 57.9455 	 -70.5385
| 14> H 	 -112.19 	 57.5737 	 -71.5522
| 15> H 	 -112.897 	 57.497 	 -69.8151
| 16> C 	 -110.649 	 57.6727 	 -69.997
| 17> H 	 -110.208 	 56.8245 	 -70.5157
| 18> H 	 -110.12 	 58.5383 	 -70.3912
| 19> C 	 -110.332 	 57.4541 	 -68.5039
| 20> H 	 -110.925 	 58.1485 	 -67.8909
| 21> H 	 -110.651 	 56.5013 	 -68.1437
| 22> H 	 -109.248 	 57.5188 	 -68.2507
| 23> S 	 -111.859 	 63.7029 	 -68.5597
| 24> C 	 -112.873 	 64.8762 	 -67.8127
| 25> C 	 -114.182 	 64.3842 	 -67.7366
| 26> C 	 -114.319 	 63.0857 	 -68.3035
| 27> C 	 -113.139 	 62.6015 	 -68.8156
| 28> H 	 -114.93 	 64.9585 	 -67.2847
| 29> C 	 -115.624 	 62.3639 	 -68.4568
| 30> H 	 -115.513 	 61.4625 	 -67.8629
| 31> H 	 -115.679 	 62.1224 	 -69.4975
| 32> C 	 -116.974 	 62.8883 	 -68.0589
| 33> H 	 -116.891 	 63.1563 	 -67.0653
| 34> H 	 -117.738 	 62.0778 	 -68.1116
| 35> C 	 -117.582 	 64.1312 	 -68.6767
| 36> H 	 -116.922 	 65.0122 	 -68.8253
| 37> H 	 -118.433 	 64.5576 	 -68.1196
| 38> H 	 -117.979 	 63.9999 	 -69.6783
| 39> H 	 -112.767 	 59.789 	 -72.7746
| 40> H 	 -112.591 	 65.8529 	 -67.4898
| 41> *
| 42>
| 43>                          ****END OF INPUT****

CARTESIAN COORDINATES (ANGSTROEM)
---------------------------------
  S    -113.428000   61.708700  -71.484200
  C    -112.799000   60.110000  -71.727000
  C    -112.491000   59.381400  -70.595800
  C    -112.624000   60.263000  -69.444500
  C    -113.032000   61.526100  -69.777600
  H    -112.325000   60.011500  -68.434200
  C    -112.099000   57.945500  -70.538500
  H    -112.190000   57.573700  -71.552200
  H    -112.897000   57.497000  -69.815100
  C    -110.649000   57.672700  -69.997000
  H    -110.208000   56.824500  -70.515700
  H    -110.120000   58.538300  -70.391200
  C    -110.332000   57.454100  -68.503900
  H    -110.925000   58.148500  -67.890900
  H    -110.651000   56.501300  -68.143700
  H    -109.248000   57.518800  -68.250700
  S    -111.859000   63.702900  -68.559700
  C    -112.873000   64.876200  -67.812700
  C    -114.182000   64.384200  -67.736600
  C    -114.319000   63.085700  -68.303500
  C    -113.139000   62.601500  -68.815600
  H    -114.930000   64.958500  -67.284700
  C    -115.624000   62.363900  -68.456800
  H    -115.513000   61.462500  -67.862900
  H    -115.679000   62.122400  -69.497500
  C    -116.974000   62.888300  -68.058900
  H    -116.891000   63.156300  -67.065300
  H    -117.738000   62.077800  -68.111600
  C    -117.582000   64.131200  -68.676700
  H    -116.922000   65.012200  -68.825300
  H    -118.433000   64.557600  -68.119600
  H    -117.979000   63.999900  -69.678300
  H    -112.767000   59.789000  -72.774600
  H    -112.591000   65.852900  -67.489800

 Total Charge           Charge          ....    0
 Multiplicity           Mult            ....    1
 Number of Electrons    NEL             ....  134
 Basis Dimension        Dim             ....  322

ORBITAL ENERGIES
----------------

  NO   OCC          E(Eh)            E(eV)
   0   2.0000     -88.965739     -2420.8808
   1   2.0000     -88.963287     -2420.8141
   2   2.0000     -10.322838      -280.8987
   3   2.0000     -10.313842      -280.6539
   4   2.0000     -10.313225      -280.6371
   5   2.0000     -10.310681      -280.5679
   6   2.0000     -10.303308      -280.3673
   7   2.0000     -10.301414      -280.3157
   8   2.0000     -10.296210      -280.1741
   9   2.0000     -10.293495      -280.1002
  10   2.0000     -10.289190      -279.9831
  11   2.0000     -10.287383      -279.9339
  12   2.0000     -10.283173      -279.8194
  13   2.0000     -10.280713      -279.7524
  14   2.0000     -10.280531      -279.7475
  15   2.0000     -10.275161      -279.6013
  16   2.0000      -8.080666      -219.8861
  17   2.0000      -8.079057      -219.8423
  18   2.0000      -6.039047      -164.3308
  19   2.0000      -6.037414      -164.2864
  20   2.0000      -6.035422      -164.2322
  21   2.0000      -6.033203      -164.1718
  22   2.0000      -6.031280      -164.1195
  23   2.0000      -6.030141      -164.0885
  24   2.0000      -1.010493       -27.4969
  25   2.0000      -0.985793       -26.8248
  26   2.0000      -0.913414       -24.8553
  27   2.0000      -0.907944       -24.7064
  28   2.0000      -0.869686       -23.6654
  29   2.0000      -0.850026       -23.1304
  30   2.0000      -0.849135       -23.1062
  31   2.0000      -0.816723       -22.2242
  32   2.0000      -0.788112       -21.4456
  33   2.0000      -0.772865       -21.0307
  34   2.0000      -0.705344       -19.1934
  35   2.0000      -0.702788       -19.1238
  36   2.0000      -0.693643       -18.8750
  37   2.0000      -0.656868       -17.8743
  38   2.0000      -0.645096       -17.5539
  39   2.0000      -0.616852       -16.7854
  40   2.0000      -0.596940       -16.2436
  41   2.0000      -0.567303       -15.4371
  42   2.0000      -0.557443       -15.1688
  43   2.0000      -0.547461       -14.8972
  44   2.0000      -0.538301       -14.6479
  45   2.0000      -0.535733       -14.5780
  46   2.0000      -0.521397       -14.1879
  47   2.0000      -0.517470       -14.0811
  48   2.0000      -0.502667       -13.6783
  49   2.0000      -0.494728       -13.4622
  50   2.0000      -0.492862       -13.4115
  51   2.0000      -0.484691       -13.1891
  52   2.0000      -0.472377       -12.8540
  53   2.0000      -0.463755       -12.6194
  54   2.0000      -0.457859       -12.4590
  55   2.0000      -0.449008       -12.2181
  56   2.0000      -0.439233       -11.9521
  57   2.0000      -0.436657       -11.8820
  58   2.0000      -0.435436       -11.8488
  59   2.0000      -0.427041       -11.6204
  60   2.0000      -0.420641       -11.4462
  61   2.0000      -0.412872       -11.2348
  62   2.0000      -0.406868       -11.0714
  63   2.0000      -0.333299        -9.0695
  64   2.0000      -0.330787        -9.0012
  65   2.0000      -0.316069        -8.6007
  66   2.0000      -0.307389        -8.3645
  67   0.0000       0.050084         1.3628
  68   0.0000       0.054046         1.4707
  69   0.0000       0.105937         2.8827
  70   0.0000       0.129527         3.5246
  71   0.0000       0.135282         3.6812

MULLIKEN ATOMIC CHARGES
-----------------------
   0 S :    0.123828
   1 C :   -0.152221
   2 C :   -0.071888
   3 C :    0.026774
   4 C :   -0.168070
   5 H :    0.012487
   6 C :    0.062602
   7 H :    0.021189
   8 H :    0.056423
   9 C :   -0.082920
  10 H :    0.029997
  11 H :    0.033912
  12 C :   -0.036009
  13 H :    0.019766
  14 H :    0.020311
  15 H :    0.049515
  16 S :    0.128524
  17 C :   -0.090176
  18 C :   -0.030387
  19 C :   -0.064777
  20 C :   -0.174945
  21 H :   -0.003521
  22 C :    0.127147
  23 H :    0.032517
  24 H :    0.019402
  25 C :   -0.027404
  26 H :    0.004037
  27 H :    0.036507
  28 C :   -0.076839
  29 H :    0.026679
  30 H :    0.030481
  31 H :    0.020583
  32 H :    0.050558
  33 H :    0.045921
Sum of atomic charges:   -0.0000000

LOEWDIN ATOMIC CHARGES
----------------------
   0 S :    0.401128
   1 C :   -0.197779
   2 C :   -0.068270
   3 C :   -0.051325
   4 C :   -0.188479
   5 H :    0.030312
   6 C :   -0.032974
   7 H :    0.033393
   8 H :    0.046352
   9 C :   -0.047321
  10 H :    0.025202
  11 H :    0.027050
  12 C :   -0.066277
  13 H :    0.021462
  14 H :    0.019546
  15 H :    0.037078
  16 S :    0.443909
  17 C :   -0.190974
  18 C :   -0.070132
  19 C :   -0.050771
  20 C :   -0.232530
  21 H :    0.019534
  22 C :   -0.033023
  23 H :    0.042493
  24 H :    0.025654
  25 C :   -0.042930
  26 H :    0.014914
  27 H :    0.037603
  28 C :   -0.077365
  29 H :    0.025856
  30 H :    0.029495
  31 H :    0.020371
  32 H :    0.023447
  33 H :    0.025352

  Mayer bond orders larger than 0.100000
B(  0-S ,  1-C ) :   1.1422 B(  0-S ,  4-C ) :   1.1240 B(  1-C ,  2-C ) :   1.6291
B(  1-C , 32-H ) :   0.9627 B(  2-C ,  3-C ) :   1.1856 B(  2-C ,  6-C ) :   1.0401
B(  3-C ,  4-C ) :   1.6338 B(  3-C ,  5-H ) :   0.9911 B(  4-C , 20-C ) :   1.0302
B(  6-C ,  7-H ) :   0.9323 B(  6-C ,  8-H ) :   0.9423 B(  6-C ,  9-C ) :   1.0418
B(  9-C , 10-H ) :   0.9604 B(  9-C , 11-H ) :   0.9614 B(  9-C , 12-C ) :   1.0708
B( 12-C , 13-H ) :   0.9776 B( 12-C , 14-H ) :   0.9722 B( 12-C , 15-H ) :   0.9724
B( 16-S , 17-C ) :   1.1895 B( 16-S , 20-C ) :   1.1599 B( 17-C , 18-C ) :   1.5566
B( 17-C , 33-H ) :   0.9711 B( 18-C , 19-C ) :   1.2794 B( 18-C , 21-H ) :   0.9978
B( 19-C , 20-C ) :   1.5680 B( 19-C , 22-C ) :   1.0265 B( 22-C , 23-H ) :   0.9207
B( 22-C , 24-H ) :   0.9129 B( 22-C , 25-C ) :   1.0978 B( 25-C , 26-H ) :   0.9435
B( 25-C , 27-H ) :   0.9470 B( 25-C , 28-C ) :   1.0772 B( 28-C , 29-H ) :   0.9734
B( 28-C , 30-H ) :   0.9735 B( 28-C , 31-H ) :   0.9726

Dispersion correction           -0.014459600
FINAL SINGLE POINT ENERGY     -1339.871292426531

DIPOLE MOMENT
-------------
                                X             Y             Z
Electronic contribution:      8.14033      12.98574      -6.57977
Nuclear contribution   :     -8.32548     -13.31678       6.69486
                        -----------------------------------------
Total Dipole Moment    :     -0.18515      -0.33104       0.11508
                        -----------------------------------------
Magnitude (a.u.)       :      0.39638
Magnitude (Debye)      :      1.00751

Rotational constants in cm-1:     0.021019     0.007681     0.006928
Rotational constants in MHz :   630.128079   230.262386   207.706237

                             ****ORCA TERMINATED NORMALLY****
TOTAL RUN TIME: 0 days 0 hours 0 minutes 21 seconds 212 msec
