                         Program Version 4.2.1 -  RELEASE  -
|  1> ! wB97X-D3 SP def2-SVP
|  2> %pal
|  3> nprocs 24
|  4> end
|  5>
|  6> * xyz 0 1
|  7> S 	 -109.994 	 52.8939 	 -78.3858
|  8> C 	 -111.196 	 52.5577 	 -79.5772
|  9> C 	 -112.129 	 51.6863 	 -79.1429
| 10> C 	 -111.979 	 51.4019 	 -77.7504
| 11> C 	 -110.885 	 52.023 	 -77.2016
| 12> H 	 -112.703 	 50.8582 	 -77.2008
| 13> C 	 -113.366 	 51.1874 	 -79.906
| 14> H 	 -113.831 	 51.9657 	 -80.5426
| 15> H 	 -114.148 	 50.9485 	 -79.2118
| 16> C 	 -113.208 	 49.8676 	 -80.6719
| 17> H 	 -112.829 	 49.0725 	 -80.0836
| 18> H 	 -114.138 	 49.5513 	 -81.1409
| 19> C 	 -112.268 	 49.9324 	 -81.8458
| 20> H 	 -112.73 	 50.4889 	 -82.7382
| 21> H 	 -111.412 	 50.4671 	 -81.6605
| 22> H 	 -111.872 	 48.9742 	 -82.1708
| 23> S 	 -108.721 	 51.364 	 -75.7312
| 24> C 	 -108.779 	 51.4173 	 -73.9904
| 25> C 	 -110.04 	 51.7331 	 -73.5449
| 26> C 	 -110.816 	 52.2314 	 -74.6048
| 27> C 	 -110.303 	 51.9711 	 -75.8486
| 28> H 	 -110.218 	 51.7517 	 -72.5016
| 29> C 	 -112.109 	 52.9291 	 -74.3207
| 30> H 	 -112.712 	 52.29 	 -73.7273
| 31> H 	 -112.594 	 53.0363 	 -75.2801
| 32> C 	 -111.988 	 54.3485 	 -73.7188
| 33> H 	 -111.171 	 54.6841 	 -74.3131
| 34> H 	 -111.713 	 54.392 	 -72.699
| 35> C 	 -113.375 	 55.1467 	 -73.8932
| 36> H 	 -113.814 	 55.0173 	 -74.9343
| 37> H 	 -113.391 	 56.1789 	 -73.6004
| 38> H 	 -114.109 	 54.6669 	 -73.1946
| 39> H 	 -111.139 	 52.8896 	 -80.5902
| 40> H 	 -108.073 	 51.0501 	 -73.2795
| 41> *
| 42>
| 43>                          ****END OF INPUT****

CARTESIAN COORDINATES (ANGSTROEM)
---------------------------------
  S    -109.994000   52.893900  -78.385800
  C    -111.196000   52.557700  -79.577200
  C    -112.129000   51.686300  -79.142900
  C    -111.979000   51.401900  -77.750400
  C    -110.885000   52.023000  -77.201600
  H    -112.703000   50.858200  -77.200800
  C    -113.366000   51.187400  -79.906000
  H    -113.831000   51.965700  -80.542600
  H    -114.148000   50.948500  -79.211800
  C    -113.208000   49.867600  -80.671900
  H    -112.829000   49.072500  -80.083600
  H    -114.138000   49.551300  -81.140900
  C    -112.268000   49.932400  -81.845800
  H    -112.730000   50.488900  -82.738200
  H    -111.412000   50.467100  -81.660500
  H    -111.872000   48.974200  -82.170800
  S    -108.721000   51.364000  -75.731200
  C    -108.779000   51.417300  -73.990400
  C    -110.040000   51.733100  -73.544900
  C    -110.816000   52.231400  -74.604800
  C    -110.303000   51.971100  -75.848600
  H    -110.218000   51.751700  -72.501600
  C    -112.109000   52.929100  -74.320700
  H    -112.712000   52.290000  -73.727300
  H    -112.594000   53.036300  -75.280100
  C    -111.988000   54.348500  -73.718800
  H    -111.171000   54.684100  -74.313100
  H    -111.713000   54.392000  -72.699000
  C    -113.375000   55.146700  -73.893200
  H    -113.814000   55.017300  -74.934300
  H    -113.391000   56.178900  -73.600400
  H    -114.109000   54.666900  -73.194600
  H    -111.139000   52.889600  -80.590200
  H    -108.073000   51.050100  -73.279500

 Total Charge           Charge          ....    0
 Multiplicity           Mult            ....    1
 Number of Electrons    NEL             ....  134
 Basis Dimension        Dim             ....  322

ORBITAL ENERGIES
----------------

  NO   OCC          E(Eh)            E(eV)
   0   2.0000     -88.965612     -2420.8774
   1   2.0000     -88.965326     -2420.8696
   2   2.0000     -10.328740      -281.0593
   3   2.0000     -10.320339      -280.8307
   4   2.0000     -10.311929      -280.6019
   5   2.0000     -10.308266      -280.5022
   6   2.0000     -10.299032      -280.2509
   7   2.0000     -10.294892      -280.1383
   8   2.0000     -10.294411      -280.1252
   9   2.0000     -10.292353      -280.0692
  10   2.0000     -10.287076      -279.9256
  11   2.0000     -10.286728      -279.9161
  12   2.0000     -10.284044      -279.8431
  13   2.0000     -10.280390      -279.7436
  14   2.0000     -10.280099      -279.7357
  15   2.0000     -10.267474      -279.3922
  16   2.0000      -8.081444      -219.9073
  17   2.0000      -8.081417      -219.9065
  18   2.0000      -6.039876      -164.3534
  19   2.0000      -6.039826      -164.3520
  20   2.0000      -6.035764      -164.2415
  21   2.0000      -6.035715      -164.2402
  22   2.0000      -6.032228      -164.1453
  23   2.0000      -6.032220      -164.1451
  24   2.0000      -1.019138       -27.7322
  25   2.0000      -0.996201       -27.1080
  26   2.0000      -0.914401       -24.8821
  27   2.0000      -0.906298       -24.6616
  28   2.0000      -0.874602       -23.7991
  29   2.0000      -0.852248       -23.1909
  30   2.0000      -0.844624       -22.9834
  31   2.0000      -0.818249       -22.2657
  32   2.0000      -0.786836       -21.4109
  33   2.0000      -0.770682       -20.9713
  34   2.0000      -0.709379       -19.3032
  35   2.0000      -0.701030       -19.0760
  36   2.0000      -0.695906       -18.9366
  37   2.0000      -0.666831       -18.1454
  38   2.0000      -0.646408       -17.5897
  39   2.0000      -0.627394       -17.0722
  40   2.0000      -0.593659       -16.1543
  41   2.0000      -0.576905       -15.6984
  42   2.0000      -0.567270       -15.4362
  43   2.0000      -0.554049       -15.0764
  44   2.0000      -0.544688       -14.8217
  45   2.0000      -0.526077       -14.3153
  46   2.0000      -0.511845       -13.9280
  47   2.0000      -0.511086       -13.9074
  48   2.0000      -0.505497       -13.7553
  49   2.0000      -0.499935       -13.6039
  50   2.0000      -0.487683       -13.2705
  51   2.0000      -0.484765       -13.1911
  52   2.0000      -0.468240       -12.7415
  53   2.0000      -0.462914       -12.5965
  54   2.0000      -0.459499       -12.5036
  55   2.0000      -0.451384       -12.2828
  56   2.0000      -0.446506       -12.1500
  57   2.0000      -0.435430       -11.8487
  58   2.0000      -0.430939       -11.7264
  59   2.0000      -0.422566       -11.4986
  60   2.0000      -0.421221       -11.4620
  61   2.0000      -0.418595       -11.3906
  62   2.0000      -0.417257       -11.3542
  63   2.0000      -0.347202        -9.4478
  64   2.0000      -0.335048        -9.1171
  65   2.0000      -0.330192        -8.9850
  66   2.0000      -0.298456        -8.1214
  67   0.0000       0.039932         1.0866
  68   0.0000       0.067564         1.8385
  69   0.0000       0.114970         3.1285
  70   0.0000       0.118942         3.2366
  71   0.0000       0.135257         3.6805

MULLIKEN ATOMIC CHARGES
-----------------------
   0 S :    0.114336
   1 C :   -0.105492
   2 C :   -0.083303
   3 C :    0.064674
   4 C :   -0.165907
   5 H :   -0.002636
   6 C :    0.063317
   7 H :    0.034779
   8 H :    0.014394
   9 C :   -0.038872
  10 H :    0.020864
  11 H :    0.030251
  12 C :   -0.052235
  13 H :    0.024124
  14 H :   -0.001319
  15 H :    0.026954
  16 S :    0.120379
  17 C :   -0.080926
  18 C :   -0.026064
  19 C :   -0.074734
  20 C :   -0.135354
  21 H :    0.010352
  22 C :    0.095410
  23 H :    0.012337
  24 H :    0.008279
  25 C :   -0.044237
  26 H :    0.031601
  27 H :    0.024545
  28 C :   -0.084848
  29 H :    0.045691
  30 H :    0.039951
  31 H :    0.030649
  32 H :    0.037869
  33 H :    0.045172
Sum of atomic charges:   -0.0000000

LOEWDIN ATOMIC CHARGES
----------------------
   0 S :    0.427640
   1 C :   -0.194581
   2 C :   -0.064901
   3 C :   -0.054159
   4 C :   -0.199114
   5 H :    0.026523
   6 C :   -0.027488
   7 H :    0.034808
   8 H :    0.028985
   9 C :   -0.038612
  10 H :    0.021680
  11 H :    0.027708
  12 C :   -0.068356
  13 H :    0.028234
  14 H :    0.006698
  15 H :    0.025763
  16 S :    0.432726
  17 C :   -0.184046
  18 C :   -0.061942
  19 C :   -0.064047
  20 C :   -0.222602
  21 H :    0.027991
  22 C :   -0.027231
  23 H :    0.020597
  24 H :    0.027159
  25 C :   -0.027902
  26 H :    0.022918
  27 H :    0.016680
  28 C :   -0.072491
  29 H :    0.032185
  30 H :    0.021419
  31 H :    0.028704
  32 H :    0.023182
  33 H :    0.025871

  Mayer bond orders larger than 0.100000
B(  0-S ,  1-C ) :   1.1384 B(  0-S ,  4-C ) :   1.1716 B(  1-C ,  2-C ) :   1.6328
B(  1-C , 32-H ) :   0.9684 B(  2-C ,  3-C ) :   1.2384 B(  2-C ,  6-C ) :   1.0091
B(  3-C ,  4-C ) :   1.5811 B(  3-C ,  5-H ) :   1.0063 B(  4-C , 20-C ) :   0.9824
B(  6-C ,  7-H ) :   0.9503 B(  6-C ,  8-H ) :   0.9386 B(  6-C ,  9-C ) :   1.0758
B(  9-C , 10-H ) :   0.9543 B(  9-C , 11-H ) :   0.9561 B(  9-C , 12-C ) :   1.0802
B( 12-C , 13-H ) :   0.9746 B( 12-C , 14-H ) :   0.9731 B( 12-C , 15-H ) :   0.9730
B( 16-S , 17-C ) :   1.1576 B( 16-S , 20-C ) :   1.1551 B( 17-C , 18-C ) :   1.6183
B( 17-C , 33-H ) :   0.9660 B( 18-C , 19-C ) :   1.2392 B( 18-C , 21-H ) :   0.9955
B( 19-C , 20-C ) :   1.6050 B( 19-C , 22-C ) :   1.0612 B( 22-C , 23-H ) :   0.9263
B( 22-C , 24-H ) :   0.9302 B( 22-C , 25-C ) :   1.0481 B( 25-C , 26-H ) :   0.9609
B( 25-C , 27-H ) :   0.9587 B( 25-C , 28-C ) :   1.0688 B( 28-C , 29-H ) :   0.9775
B( 28-C , 30-H ) :   0.9787 B( 28-C , 31-H ) :   0.9754

Dispersion correction           -0.013928827
FINAL SINGLE POINT ENERGY     -1339.868655952414

DIPOLE MOMENT
-------------
                                X             Y             Z
Electronic contribution:     21.25525      -1.19264       4.02955
Nuclear contribution   :    -21.76943       1.07441      -3.84257
                        -----------------------------------------
Total Dipole Moment    :     -0.51418      -0.11823       0.18698
                        -----------------------------------------
Magnitude (a.u.)       :      0.55975
Magnitude (Debye)      :      1.42276

Rotational constants in cm-1:     0.020486     0.007822     0.006566
Rotational constants in MHz :   614.156731   234.505742   196.858656

                             ****ORCA TERMINATED NORMALLY****
TOTAL RUN TIME: 0 days 0 hours 0 minutes 21 seconds 339 msec
