                         Program Version 4.2.1 -  RELEASE  -
|  1> ! wB97X-D3 SP def2-SVP
|  2> %pal
|  3> nprocs 24
|  4> end
|  5>
|  6> * xyz 0 1
|  7> S 	 -76.8675 	 9.44179 	 -112.512
|  8> C 	 -77.8638 	 8.36778 	 -111.6
|  9> C 	 -77.2421 	 7.94291 	 -110.398
| 10> C 	 -76.0301 	 8.68141 	 -110.232
| 11> C 	 -75.6524 	 9.548 	 -111.294
| 12> H 	 -75.4559 	 8.66021 	 -109.243
| 13> C 	 -77.8704 	 7.07671 	 -109.317
| 14> H 	 -77.1173 	 6.29801 	 -109.225
| 15> H 	 -78.6983 	 6.44816 	 -109.635
| 16> C 	 -78.2463 	 7.75931 	 -107.965
| 17> H 	 -78.8399 	 7.01153 	 -107.441
| 18> H 	 -77.3869 	 8.02126 	 -107.322
| 19> C 	 -79.0899 	 9.01974 	 -108.144
| 20> H 	 -79.9039 	 8.89208 	 -108.832
| 21> H 	 -79.3799 	 9.50921 	 -107.181
| 22> H 	 -78.5582 	 9.75756 	 -108.723
| 23> S 	 -73.434 	 10.1202 	 -112.854
| 24> C 	 -72.209 	 11.1646 	 -112.316
| 25> C 	 -72.3694 	 11.4272 	 -110.971
| 26> C 	 -73.7152 	 11.0982 	 -110.52
| 27> C 	 -74.3754 	 10.2574 	 -111.393
| 28> H 	 -71.6456 	 12.0329 	 -110.496
| 29> C 	 -74.195 	 11.6064 	 -109.198
| 30> H 	 -73.2779 	 11.9759 	 -108.676
| 31> H 	 -74.6775 	 10.8666 	 -108.477
| 32> C 	 -75.2606 	 12.7242 	 -109.233
| 33> H 	 -75.6916 	 12.706 	 -108.204
| 34> H 	 -76.1148 	 12.5134 	 -109.903
| 35> C 	 -74.6447 	 14.1266 	 -109.506
| 36> H 	 -73.6637 	 14.0478 	 -110.084
| 37> H 	 -74.3949 	 14.7162 	 -108.578
| 38> H 	 -75.2915 	 14.6871 	 -110.123
| 39> H 	 -78.7924 	 8.03313 	 -112.038
| 40> H 	 -71.2334 	 11.4266 	 -112.761
| 41> *
| 42>
| 43>                          ****END OF INPUT****

CARTESIAN COORDINATES (ANGSTROEM)
---------------------------------
  S    -76.867500    9.441790  -112.512000
  C    -77.863800    8.367780  -111.600000
  C    -77.242100    7.942910  -110.398000
  C    -76.030100    8.681410  -110.232000
  C    -75.652400    9.548000  -111.294000
  H    -75.455900    8.660210  -109.243000
  C    -77.870400    7.076710  -109.317000
  H    -77.117300    6.298010  -109.225000
  H    -78.698300    6.448160  -109.635000
  C    -78.246300    7.759310  -107.965000
  H    -78.839900    7.011530  -107.441000
  H    -77.386900    8.021260  -107.322000
  C    -79.089900    9.019740  -108.144000
  H    -79.903900    8.892080  -108.832000
  H    -79.379900    9.509210  -107.181000
  H    -78.558200    9.757560  -108.723000
  S    -73.434000   10.120200  -112.854000
  C    -72.209000   11.164600  -112.316000
  C    -72.369400   11.427200  -110.971000
  C    -73.715200   11.098200  -110.520000
  C    -74.375400   10.257400  -111.393000
  H    -71.645600   12.032900  -110.496000
  C    -74.195000   11.606400  -109.198000
  H    -73.277900   11.975900  -108.676000
  H    -74.677500   10.866600  -108.477000
  C    -75.260600   12.724200  -109.233000
  H    -75.691600   12.706000  -108.204000
  H    -76.114800   12.513400  -109.903000
  C    -74.644700   14.126600  -109.506000
  H    -73.663700   14.047800  -110.084000
  H    -74.394900   14.716200  -108.578000
  H    -75.291500   14.687100  -110.123000
  H    -78.792400    8.033130  -112.038000
  H    -71.233400   11.426600  -112.761000

 Total Charge           Charge          ....    0
 Multiplicity           Mult            ....    1
 Number of Electrons    NEL             ....  134
 Basis Dimension        Dim             ....  322

ORBITAL ENERGIES
----------------

  NO   OCC          E(Eh)            E(eV)
   0   2.0000     -88.970196     -2421.0021
   1   2.0000     -88.964910     -2420.8583
   2   2.0000     -10.333855      -281.1985
   3   2.0000     -10.327262      -281.0191
   4   2.0000     -10.318896      -280.7914
   5   2.0000     -10.314549      -280.6732
   6   2.0000     -10.309192      -280.5274
   7   2.0000     -10.303715      -280.3783
   8   2.0000     -10.303118      -280.3621
   9   2.0000     -10.297535      -280.2102
  10   2.0000     -10.295407      -280.1523
  11   2.0000     -10.293703      -280.1059
  12   2.0000     -10.290797      -280.0268
  13   2.0000     -10.288680      -279.9692
  14   2.0000     -10.278305      -279.6869
  15   2.0000     -10.274317      -279.5784
  16   2.0000      -8.085454      -220.0164
  17   2.0000      -8.080664      -219.8860
  18   2.0000      -6.043784      -164.4597
  19   2.0000      -6.039582      -164.3454
  20   2.0000      -6.039122      -164.3329
  21   2.0000      -6.036699      -164.2669
  22   2.0000      -6.034933      -164.2189
  23   2.0000      -6.031477      -164.1248
  24   2.0000      -1.010216       -27.4894
  25   2.0000      -0.989089       -26.9145
  26   2.0000      -0.911005       -24.7897
  27   2.0000      -0.904522       -24.6133
  28   2.0000      -0.869178       -23.6515
  29   2.0000      -0.848597       -23.0915
  30   2.0000      -0.842375       -22.9222
  31   2.0000      -0.811597       -22.0847
  32   2.0000      -0.785163       -21.3654
  33   2.0000      -0.772009       -21.0074
  34   2.0000      -0.709740       -19.3130
  35   2.0000      -0.700989       -19.0749
  36   2.0000      -0.683971       -18.6118
  37   2.0000      -0.661592       -18.0028
  38   2.0000      -0.637664       -17.3517
  39   2.0000      -0.621941       -16.9239
  40   2.0000      -0.590867       -16.0783
  41   2.0000      -0.570611       -15.5271
  42   2.0000      -0.554375       -15.0853
  43   2.0000      -0.542543       -14.7633
  44   2.0000      -0.537195       -14.6178
  45   2.0000      -0.534387       -14.5414
  46   2.0000      -0.518673       -14.1138
  47   2.0000      -0.507519       -13.8103
  48   2.0000      -0.506501       -13.7826
  49   2.0000      -0.493375       -13.4254
  50   2.0000      -0.485972       -13.2240
  51   2.0000      -0.478355       -13.0167
  52   2.0000      -0.471602       -12.8329
  53   2.0000      -0.467911       -12.7325
  54   2.0000      -0.463276       -12.6064
  55   2.0000      -0.447084       -12.1658
  56   2.0000      -0.441795       -12.0219
  57   2.0000      -0.438644       -11.9361
  58   2.0000      -0.428141       -11.6503
  59   2.0000      -0.418487       -11.3876
  60   2.0000      -0.417711       -11.3665
  61   2.0000      -0.414147       -11.2695
  62   2.0000      -0.409430       -11.1412
  63   2.0000      -0.348005        -9.4697
  64   2.0000      -0.332057        -9.0357
  65   2.0000      -0.327092        -8.9006
  66   2.0000      -0.291539        -7.9332
  67   0.0000       0.027605         0.7512
  68   0.0000       0.071774         1.9531
  69   0.0000       0.109554         2.9811
  70   0.0000       0.122620         3.3367
  71   0.0000       0.125732         3.4213

MULLIKEN ATOMIC CHARGES
-----------------------
   0 S :    0.127293
   1 C :   -0.135303
   2 C :   -0.088757
   3 C :   -0.006402
   4 C :   -0.161199
   5 H :    0.039771
   6 C :    0.063484
   7 H :    0.032200
   8 H :    0.019062
   9 C :   -0.064080
  10 H :    0.033867
  11 H :    0.036105
  12 C :   -0.043412
  13 H :    0.014746
  14 H :    0.046006
  15 H :    0.025739
  16 S :    0.117511
  17 C :   -0.096135
  18 C :   -0.034014
  19 C :   -0.032268
  20 C :   -0.129313
  21 H :    0.011691
  22 C :    0.000789
  23 H :    0.027310
  24 H :    0.036693
  25 C :   -0.074228
  26 H :    0.030055
  27 H :    0.047647
  28 C :   -0.069877
  29 H :    0.034503
  30 H :    0.043801
  31 H :    0.026281
  32 H :    0.052897
  33 H :    0.067538
Sum of atomic charges:    0.0000000

LOEWDIN ATOMIC CHARGES
----------------------
   0 S :    0.438219
   1 C :   -0.203889
   2 C :   -0.066596
   3 C :   -0.065649
   4 C :   -0.218113
   5 H :    0.040050
   6 C :   -0.037560
   7 H :    0.037488
   8 H :    0.032250
   9 C :   -0.037816
  10 H :    0.026641
  11 H :    0.025581
  12 C :   -0.071757
  13 H :    0.021628
  14 H :    0.032590
  15 H :    0.024956
  16 S :    0.430738
  17 C :   -0.208767
  18 C :   -0.071177
  19 C :   -0.059837
  20 C :   -0.200939
  21 H :    0.022605
  22 C :   -0.043269
  23 H :    0.033498
  24 H :    0.034771
  25 C :   -0.042238
  26 H :    0.027564
  27 H :    0.029310
  28 C :   -0.075957
  29 H :    0.030408
  30 H :    0.031222
  31 H :    0.018214
  32 H :    0.024493
  33 H :    0.041337

  Mayer bond orders larger than 0.100000
B(  0-S ,  1-C ) :   1.1808 B(  0-S ,  4-C ) :   1.1697 B(  1-C ,  2-C ) :   1.5266
B(  1-C ,  4-C ) :   0.1081 B(  1-C , 32-H ) :   0.9724 B(  2-C ,  3-C ) :   1.3014
B(  2-C ,  6-C ) :   1.0250 B(  3-C ,  4-C ) :   1.5185 B(  3-C ,  5-H ) :   0.9770
B(  4-C , 20-C ) :   1.0547 B(  6-C ,  7-H ) :   0.9321 B(  6-C ,  8-H ) :   0.9443
B(  6-C ,  9-C ) :   1.0638 B(  9-C , 10-H ) :   0.9566 B(  9-C , 11-H ) :   0.9562
B(  9-C , 12-C ) :   1.0782 B( 12-C , 13-H ) :   0.9721 B( 12-C , 14-H ) :   0.9743
B( 12-C , 15-H ) :   0.9665 B( 16-S , 17-C ) :   1.1714 B( 16-S , 20-C ) :   1.1371
B( 17-C , 18-C ) :   1.6162 B( 17-C , 33-H ) :   0.9591 B( 18-C , 19-C ) :   1.2416
B( 18-C , 21-H ) :   0.9845 B( 19-C , 20-C ) :   1.5937 B( 19-C , 22-C ) :   1.0519
B( 22-C , 23-H ) :   0.9386 B( 22-C , 24-H ) :   0.9413 B( 22-C , 25-C ) :   1.0607
B( 25-C , 26-H ) :   0.9609 B( 25-C , 27-H ) :   0.9645 B( 25-C , 28-C ) :   1.0541
B( 28-C , 29-H ) :   0.9802 B( 28-C , 30-H ) :   0.9769 B( 28-C , 31-H ) :   0.9773

Dispersion correction           -0.015080381
FINAL SINGLE POINT ENERGY     -1339.873051740593

DIPOLE MOMENT
-------------
                                X             Y             Z
Electronic contribution:      9.67474      -6.94634     -24.19228
Nuclear contribution   :     -9.78342       6.92876      24.76759
                        -----------------------------------------
Total Dipole Moment    :     -0.10869      -0.01758       0.57531
                        -----------------------------------------
Magnitude (a.u.)       :      0.58575
Magnitude (Debye)      :      1.48885

Rotational constants in cm-1:     0.019378     0.009133     0.007221
Rotational constants in MHz :   580.927192   273.808119   216.493287

                             ****ORCA TERMINATED NORMALLY****
TOTAL RUN TIME: 0 days 0 hours 0 minutes 22 seconds 105 msec
