                         Program Version 4.2.1 -  RELEASE  -
|  1> ! wB97X-D3 SP def2-SVP
|  2> %pal
|  3> nprocs 24
|  4> end
|  5>
|  6> * xyz 0 1
|  7> S 	 -34.4049 	 -39.2836 	 -86.6397
|  8> C 	 -32.6352 	 -39.3512 	 -86.3801
|  9> C 	 -31.9303 	 -38.3892 	 -87.1182
| 10> C 	 -32.8292 	 -37.5959 	 -87.8763
| 11> C 	 -34.1558 	 -38.0098 	 -87.8511
| 12> H 	 -32.3835 	 -36.801 	 -88.5261
| 13> C 	 -30.391 	 -38.1306 	 -86.9797
| 14> H 	 -29.941 	 -38.822 	 -87.7459
| 15> H 	 -30.08 	 -38.5127 	 -86.0366
| 16> C 	 -29.8025 	 -36.7377 	 -87.2691
| 17> H 	 -29.8185 	 -36.616 	 -88.3147
| 18> H 	 -30.4225 	 -36.0095 	 -86.8528
| 19> C 	 -28.3818 	 -36.4588 	 -86.5938
| 20> H 	 -27.6106 	 -36.8802 	 -87.2804
| 21> H 	 -28.4983 	 -35.3667 	 -86.4685
| 22> H 	 -28.2683 	 -37.0246 	 -85.6746
| 23> S 	 -35.8517 	 -35.929 	 -88.69
| 24> C 	 -36.9938 	 -36.2892 	 -89.9394
| 25> C 	 -36.8 	 -37.5525 	 -90.4885
| 26> C 	 -35.8047 	 -38.2968 	 -89.8479
| 27> C 	 -35.244 	 -37.5995 	 -88.7667
| 28> H 	 -37.3036 	 -37.8169 	 -91.4561
| 29> C 	 -35.4148 	 -39.7005 	 -90.2594
| 30> H 	 -34.3376 	 -39.7627 	 -90.1087
| 31> H 	 -35.6697 	 -39.8526 	 -91.3153
| 32> C 	 -36.159 	 -40.8584 	 -89.5641
| 33> H 	 -37.2206 	 -40.8906 	 -89.8275
| 34> H 	 -35.9631 	 -40.7101 	 -88.5192
| 35> C 	 -35.5503 	 -42.2562 	 -89.9705
| 36> H 	 -35.799 	 -43.1158 	 -89.2826
| 37> H 	 -34.4887 	 -42.2122 	 -89.8158
| 38> H 	 -35.7123 	 -42.5171 	 -91.0429
| 39> H 	 -32.0551 	 -40.0868 	 -85.7693
| 40> H 	 -37.318 	 -35.4799 	 -90.6063
| 41> *
| 42>
| 43>                          ****END OF INPUT****

CARTESIAN COORDINATES (ANGSTROEM)
---------------------------------
  S    -34.404900  -39.283600  -86.639700
  C    -32.635200  -39.351200  -86.380100
  C    -31.930300  -38.389200  -87.118200
  C    -32.829200  -37.595900  -87.876300
  C    -34.155800  -38.009800  -87.851100
  H    -32.383500  -36.801000  -88.526100
  C    -30.391000  -38.130600  -86.979700
  H    -29.941000  -38.822000  -87.745900
  H    -30.080000  -38.512700  -86.036600
  C    -29.802500  -36.737700  -87.269100
  H    -29.818500  -36.616000  -88.314700
  H    -30.422500  -36.009500  -86.852800
  C    -28.381800  -36.458800  -86.593800
  H    -27.610600  -36.880200  -87.280400
  H    -28.498300  -35.366700  -86.468500
  H    -28.268300  -37.024600  -85.674600
  S    -35.851700  -35.929000  -88.690000
  C    -36.993800  -36.289200  -89.939400
  C    -36.800000  -37.552500  -90.488500
  C    -35.804700  -38.296800  -89.847900
  C    -35.244000  -37.599500  -88.766700
  H    -37.303600  -37.816900  -91.456100
  C    -35.414800  -39.700500  -90.259400
  H    -34.337600  -39.762700  -90.108700
  H    -35.669700  -39.852600  -91.315300
  C    -36.159000  -40.858400  -89.564100
  H    -37.220600  -40.890600  -89.827500
  H    -35.963100  -40.710100  -88.519200
  C    -35.550300  -42.256200  -89.970500
  H    -35.799000  -43.115800  -89.282600
  H    -34.488700  -42.212200  -89.815800
  H    -35.712300  -42.517100  -91.042900
  H    -32.055100  -40.086800  -85.769300
  H    -37.318000  -35.479900  -90.606300

 Total Charge           Charge          ....    0
 Multiplicity           Mult            ....    1
 Number of Electrons    NEL             ....  134
 Basis Dimension        Dim             ....  322

ORBITAL ENERGIES
----------------

  NO   OCC          E(Eh)            E(eV)
   0   2.0000     -88.974152     -2421.1098
   1   2.0000     -88.966363     -2420.8978
   2   2.0000     -10.335369      -281.2397
   3   2.0000     -10.330018      -281.0941
   4   2.0000     -10.322236      -280.8823
   5   2.0000     -10.312843      -280.6267
   6   2.0000     -10.306268      -280.4478
   7   2.0000     -10.302366      -280.3416
   8   2.0000     -10.301197      -280.3098
   9   2.0000     -10.299350      -280.2596
  10   2.0000     -10.295777      -280.1623
  11   2.0000     -10.291967      -280.0587
  12   2.0000     -10.288960      -279.9768
  13   2.0000     -10.285639      -279.8865
  14   2.0000     -10.283495      -279.8281
  15   2.0000     -10.279688      -279.7245
  16   2.0000      -8.086958      -220.0573
  17   2.0000      -8.080899      -219.8924
  18   2.0000      -6.045505      -164.5065
  19   2.0000      -6.041768      -164.4049
  20   2.0000      -6.039194      -164.3348
  21   2.0000      -6.037733      -164.2951
  22   2.0000      -6.035493      -164.2341
  23   2.0000      -6.031841      -164.1347
  24   2.0000      -1.001156       -27.2428
  25   2.0000      -0.979968       -26.6663
  26   2.0000      -0.907742       -24.7009
  27   2.0000      -0.903633       -24.5891
  28   2.0000      -0.863370       -23.4935
  29   2.0000      -0.847816       -23.0703
  30   2.0000      -0.845107       -22.9965
  31   2.0000      -0.808407       -21.9979
  32   2.0000      -0.781393       -21.2628
  33   2.0000      -0.767829       -20.8937
  34   2.0000      -0.712223       -19.3806
  35   2.0000      -0.695312       -18.9204
  36   2.0000      -0.687693       -18.7131
  37   2.0000      -0.659606       -17.9488
  38   2.0000      -0.627713       -17.0809
  39   2.0000      -0.619114       -16.8470
  40   2.0000      -0.590984       -16.0815
  41   2.0000      -0.575747       -15.6669
  42   2.0000      -0.569329       -15.4922
  43   2.0000      -0.558324       -15.1928
  44   2.0000      -0.533279       -14.5112
  45   2.0000      -0.510443       -13.8898
  46   2.0000      -0.507908       -13.8209
  47   2.0000      -0.505130       -13.7453
  48   2.0000      -0.503206       -13.6929
  49   2.0000      -0.492243       -13.3946
  50   2.0000      -0.484017       -13.1708
  51   2.0000      -0.476133       -12.9562
  52   2.0000      -0.471781       -12.8378
  53   2.0000      -0.467060       -12.7093
  54   2.0000      -0.451912       -12.2972
  55   2.0000      -0.450030       -12.2460
  56   2.0000      -0.443515       -12.0687
  57   2.0000      -0.439661       -11.9638
  58   2.0000      -0.433930       -11.8078
  59   2.0000      -0.427544       -11.6341
  60   2.0000      -0.423951       -11.5363
  61   2.0000      -0.415477       -11.3057
  62   2.0000      -0.411894       -11.2082
  63   2.0000      -0.339268        -9.2320
  64   2.0000      -0.333850        -9.0845
  65   2.0000      -0.322211        -8.7678
  66   2.0000      -0.300843        -8.1864
  67   0.0000       0.026389         0.7181
  68   0.0000       0.056171         1.5285
  69   0.0000       0.105418         2.8686
  70   0.0000       0.109502         2.9797
  71   0.0000       0.131338         3.5739

MULLIKEN ATOMIC CHARGES
-----------------------
   0 S :    0.125525
   1 C :   -0.144588
   2 C :   -0.114617
   3 C :    0.037205
   4 C :   -0.170960
   5 H :    0.029488
   6 C :    0.061022
   7 H :    0.044197
   8 H :    0.010429
   9 C :   -0.084823
  10 H :    0.031196
  11 H :    0.022038
  12 C :   -0.057659
  13 H :    0.048415
  14 H :    0.056848
  15 H :    0.037102
  16 S :    0.110346
  17 C :   -0.090975
  18 C :   -0.077312
  19 C :   -0.006682
  20 C :   -0.183314
  21 H :    0.040056
  22 C :    0.056899
  23 H :    0.036526
  24 H :    0.015671
  25 C :   -0.045007
  26 H :    0.038201
  27 H :    0.018242
  28 C :   -0.074204
  29 H :    0.043215
  30 H :    0.016702
  31 H :    0.039071
  32 H :    0.058311
  33 H :    0.073437
Sum of atomic charges:   -0.0000000

LOEWDIN ATOMIC CHARGES
----------------------
   0 S :    0.401939
   1 C :   -0.199206
   2 C :   -0.064620
   3 C :   -0.064771
   4 C :   -0.194024
   5 H :    0.039635
   6 C :   -0.031259
   7 H :    0.040235
   8 H :    0.020150
   9 C :   -0.036980
  10 H :    0.018613
  11 H :    0.014312
  12 C :   -0.059291
  13 H :    0.032237
  14 H :    0.038397
  15 H :    0.024462
  16 S :    0.410339
  17 C :   -0.210190
  18 C :   -0.073786
  19 C :   -0.054950
  20 C :   -0.196111
  21 H :    0.041090
  22 C :   -0.031978
  23 H :    0.033036
  24 H :    0.030017
  25 C :   -0.033589
  26 H :    0.025385
  27 H :    0.008188
  28 C :   -0.076403
  29 H :    0.033716
  30 H :    0.019341
  31 H :    0.026215
  32 H :    0.035662
  33 H :    0.034188

  Mayer bond orders larger than 0.100000
B(  0-S ,  1-C ) :   1.1362 B(  0-S ,  4-C ) :   1.1447 B(  1-C ,  2-C ) :   1.6274
B(  1-C ,  4-C ) :   0.1009 B(  1-C , 32-H ) :   0.9572 B(  2-C ,  3-C ) :   1.2765
B(  2-C ,  6-C ) :   0.9969 B(  3-C ,  4-C ) :   1.5686 B(  3-C ,  5-H ) :   0.9791
B(  4-C , 20-C ) :   1.0165 B(  6-C ,  7-H ) :   0.9345 B(  6-C ,  8-H ) :   0.9502
B(  6-C ,  9-C ) :   1.0683 B(  9-C , 10-H ) :   0.9498 B(  9-C , 11-H ) :   0.9702
B(  9-C , 12-C ) :   1.0610 B( 12-C , 13-H ) :   0.9785 B( 12-C , 14-H ) :   0.9817
B( 12-C , 15-H ) :   0.9795 B( 16-S , 17-C ) :   1.1713 B( 16-S , 20-C ) :   1.1579
B( 17-C , 18-C ) :   1.5878 B( 17-C , 20-C ) :   0.1063 B( 17-C , 33-H ) :   0.9513
B( 18-C , 19-C ) :   1.2947 B( 18-C , 21-H ) :   0.9753 B( 19-C , 20-C ) :   1.5479
B( 19-C , 22-C ) :   1.0500 B( 22-C , 23-H ) :   0.9268 B( 22-C , 24-H ) :   0.9326
B( 22-C , 25-C ) :   1.0700 B( 25-C , 26-H ) :   0.9580 B( 25-C , 27-H ) :   0.9471
B( 25-C , 28-C ) :   1.0757 B( 28-C , 29-H ) :   0.9747 B( 28-C , 30-H ) :   0.9738
B( 28-C , 31-H ) :   0.9772

Dispersion correction           -0.014200613
FINAL SINGLE POINT ENERGY     -1339.858528082568

DIPOLE MOMENT
-------------
                                X             Y             Z
Electronic contribution:    -17.67004      10.00589       4.79842
Nuclear contribution   :     18.40681     -10.10229      -5.15438
                        -----------------------------------------
Total Dipole Moment    :      0.73677      -0.09640      -0.35596
                        -----------------------------------------
Magnitude (a.u.)       :      0.82391
Magnitude (Debye)      :      2.09422

Rotational constants in cm-1:     0.018354     0.008051     0.006441
Rotational constants in MHz :   550.244239   241.372727   193.103181

                             ****ORCA TERMINATED NORMALLY****
TOTAL RUN TIME: 0 days 0 hours 0 minutes 21 seconds 124 msec
