                         Program Version 4.2.1 -  RELEASE  -
|  1> ! wB97X-D3 SP def2-SVP
|  2> %pal
|  3> nprocs 24
|  4> end
|  5>
|  6> * xyz 0 1
|  7> S 	 -63.557 	 19.7361 	 -73.5196
|  8> C 	 -63.7775 	 18.1504 	 -74.2203
|  9> C 	 -65.0012 	 17.5835 	 -73.8459
| 10> C 	 -65.736 	 18.4202 	 -72.9993
| 11> C 	 -65.1333 	 19.6464 	 -72.7945
| 12> H 	 -66.71 	 18.2248 	 -72.6437
| 13> C 	 -65.6273 	 16.1809 	 -74.3161
| 14> H 	 -65.911 	 16.3276 	 -75.3826
| 15> H 	 -66.5626 	 15.8965 	 -73.8483
| 16> C 	 -64.6827 	 14.9604 	 -74.1493
| 17> H 	 -63.7698 	 15.0763 	 -74.7585
| 18> H 	 -64.1679 	 14.9965 	 -73.2056
| 19> C 	 -65.4504 	 13.6292 	 -74.3345
| 20> H 	 -65.8789 	 13.5717 	 -75.3901
| 21> H 	 -64.8638 	 12.8234 	 -74.0963
| 22> H 	 -66.2545 	 13.4831 	 -73.6402
| 23> S 	 -64.8845 	 21.0969 	 -70.5129
| 24> C 	 -65.7858 	 22.6085 	 -70.4289
| 25> C 	 -66.8023 	 22.6123 	 -71.3307
| 26> C 	 -66.6646 	 21.5766 	 -72.2823
| 27> C 	 -65.6128 	 20.7357 	 -72.0248
| 28> H 	 -67.4283 	 23.4396 	 -71.2994
| 29> C 	 -67.7107 	 21.363 	 -73.3426
| 30> H 	 -67.7469 	 20.3132 	 -73.7193
| 31> H 	 -67.4993 	 21.9975 	 -74.2291
| 32> C 	 -69.1802 	 21.7782 	 -72.9919
| 33> H 	 -69.8507 	 21.7162 	 -73.8169
| 34> H 	 -69.0093 	 22.8704 	 -72.8485
| 35> C 	 -69.867 	 21.1121 	 -71.7754
| 36> H 	 -70.6348 	 21.8073 	 -71.3756
| 37> H 	 -69.1384 	 21.0389 	 -71.0184
| 38> H 	 -70.1996 	 20.1599 	 -72.149
| 39> H 	 -63.1107 	 17.539 	 -74.8617
| 40> H 	 -65.7 	 23.3567 	 -69.6488
| 41> *
| 42>
| 43>                          ****END OF INPUT****

CARTESIAN COORDINATES (ANGSTROEM)
---------------------------------
  S    -63.557000   19.736100  -73.519600
  C    -63.777500   18.150400  -74.220300
  C    -65.001200   17.583500  -73.845900
  C    -65.736000   18.420200  -72.999300
  C    -65.133300   19.646400  -72.794500
  H    -66.710000   18.224800  -72.643700
  C    -65.627300   16.180900  -74.316100
  H    -65.911000   16.327600  -75.382600
  H    -66.562600   15.896500  -73.848300
  C    -64.682700   14.960400  -74.149300
  H    -63.769800   15.076300  -74.758500
  H    -64.167900   14.996500  -73.205600
  C    -65.450400   13.629200  -74.334500
  H    -65.878900   13.571700  -75.390100
  H    -64.863800   12.823400  -74.096300
  H    -66.254500   13.483100  -73.640200
  S    -64.884500   21.096900  -70.512900
  C    -65.785800   22.608500  -70.428900
  C    -66.802300   22.612300  -71.330700
  C    -66.664600   21.576600  -72.282300
  C    -65.612800   20.735700  -72.024800
  H    -67.428300   23.439600  -71.299400
  C    -67.710700   21.363000  -73.342600
  H    -67.746900   20.313200  -73.719300
  H    -67.499300   21.997500  -74.229100
  C    -69.180200   21.778200  -72.991900
  H    -69.850700   21.716200  -73.816900
  H    -69.009300   22.870400  -72.848500
  C    -69.867000   21.112100  -71.775400
  H    -70.634800   21.807300  -71.375600
  H    -69.138400   21.038900  -71.018400
  H    -70.199600   20.159900  -72.149000
  H    -63.110700   17.539000  -74.861700
  H    -65.700000   23.356700  -69.648800

 Total Charge           Charge          ....    0
 Multiplicity           Mult            ....    1
 Number of Electrons    NEL             ....  134
 Basis Dimension        Dim             ....  322

ORBITAL ENERGIES
----------------

  NO   OCC          E(Eh)            E(eV)
   0   2.0000     -88.970909     -2421.0215
   1   2.0000     -88.963120     -2420.8096
   2   2.0000     -10.321254      -280.8556
   3   2.0000     -10.316375      -280.7228
   4   2.0000     -10.315647      -280.7030
   5   2.0000     -10.314136      -280.6619
   6   2.0000     -10.303013      -280.3592
   7   2.0000     -10.300688      -280.2960
   8   2.0000     -10.298462      -280.2354
   9   2.0000     -10.291635      -280.0496
  10   2.0000     -10.288171      -279.9554
  11   2.0000     -10.287029      -279.9243
  12   2.0000     -10.285467      -279.8818
  13   2.0000     -10.284611      -279.8585
  14   2.0000     -10.278540      -279.6933
  15   2.0000     -10.273165      -279.5470
  16   2.0000      -8.085417      -220.0154
  17   2.0000      -8.078571      -219.8291
  18   2.0000      -6.043833      -164.4611
  19   2.0000      -6.039950      -164.3554
  20   2.0000      -6.036995      -164.2750
  21   2.0000      -6.036289      -164.2558
  22   2.0000      -6.033135      -164.1699
  23   2.0000      -6.029215      -164.0633
  24   2.0000      -1.014325       -27.6012
  25   2.0000      -0.987523       -26.8719
  26   2.0000      -0.904850       -24.6222
  27   2.0000      -0.902785       -24.5660
  28   2.0000      -0.874401       -23.7937
  29   2.0000      -0.852051       -23.1855
  30   2.0000      -0.846317       -23.0295
  31   2.0000      -0.813847       -22.1459
  32   2.0000      -0.784487       -21.3470
  33   2.0000      -0.772474       -21.0201
  34   2.0000      -0.710342       -19.3294
  35   2.0000      -0.704570       -19.1723
  36   2.0000      -0.691300       -18.8112
  37   2.0000      -0.659867       -17.9559
  38   2.0000      -0.640905       -17.4399
  39   2.0000      -0.619752       -16.8643
  40   2.0000      -0.595173       -16.1955
  41   2.0000      -0.573184       -15.5971
  42   2.0000      -0.553301       -15.0561
  43   2.0000      -0.549703       -14.9582
  44   2.0000      -0.543310       -14.7842
  45   2.0000      -0.532347       -14.4859
  46   2.0000      -0.518668       -14.1137
  47   2.0000      -0.510645       -13.8953
  48   2.0000      -0.499755       -13.5990
  49   2.0000      -0.495794       -13.4912
  50   2.0000      -0.488193       -13.2844
  51   2.0000      -0.475455       -12.9378
  52   2.0000      -0.474409       -12.9093
  53   2.0000      -0.470806       -12.8113
  54   2.0000      -0.458348       -12.4723
  55   2.0000      -0.454091       -12.3565
  56   2.0000      -0.447970       -12.1899
  57   2.0000      -0.441363       -12.0101
  58   2.0000      -0.430892       -11.7252
  59   2.0000      -0.427464       -11.6319
  60   2.0000      -0.423260       -11.5175
  61   2.0000      -0.406116       -11.0510
  62   2.0000      -0.403444       -10.9783
  63   2.0000      -0.341512        -9.2930
  64   2.0000      -0.331936        -9.0324
  65   2.0000      -0.324650        -8.8342
  66   2.0000      -0.298797        -8.1307
  67   0.0000       0.035866         0.9760
  68   0.0000       0.061947         1.6857
  69   0.0000       0.110671         3.0115
  70   0.0000       0.119081         3.2404
  71   0.0000       0.135452         3.6858

MULLIKEN ATOMIC CHARGES
-----------------------
   0 S :    0.143498
   1 C :   -0.130264
   2 C :   -0.082830
   3 C :    0.068488
   4 C :   -0.190280
   5 H :   -0.005608
   6 C :    0.055866
   7 H :    0.045591
   8 H :    0.017011
   9 C :   -0.090372
  10 H :    0.023677
  11 H :    0.023616
  12 C :   -0.024549
  13 H :    0.044771
  14 H :    0.014805
  15 H :    0.024338
  16 S :    0.118896
  17 C :   -0.096607
  18 C :   -0.022515
  19 C :    0.010145
  20 C :   -0.185091
  21 H :   -0.001895
  22 C :    0.062609
  23 H :    0.027024
  24 H :    0.039203
  25 C :   -0.132926
  26 H :    0.024218
  27 H :    0.021844
  28 C :   -0.004662
  29 H :    0.040657
  30 H :    0.024855
  31 H :    0.034486
  32 H :    0.051119
  33 H :    0.050883
Sum of atomic charges:   -0.0000000

LOEWDIN ATOMIC CHARGES
----------------------
   0 S :    0.431561
   1 C :   -0.214665
   2 C :   -0.060296
   3 C :   -0.053655
   4 C :   -0.201273
   5 H :    0.025012
   6 C :   -0.027256
   7 H :    0.035908
   8 H :    0.025392
   9 C :   -0.048442
  10 H :    0.023009
  11 H :    0.023003
  12 C :   -0.061747
  13 H :    0.035950
  14 H :    0.015975
  15 H :    0.024127
  16 S :    0.412981
  17 C :   -0.172545
  18 C :   -0.066878
  19 C :   -0.056467
  20 C :   -0.218688
  21 H :    0.022854
  22 C :   -0.036072
  23 H :    0.027141
  24 H :    0.039334
  25 C :   -0.044517
  26 H :    0.018965
  27 H :    0.019625
  28 C :   -0.059707
  29 H :    0.034728
  30 H :    0.018184
  31 H :    0.025087
  32 H :    0.034916
  33 H :    0.028455

  Mayer bond orders larger than 0.100000
B(  0-S ,  1-C ) :   1.1475 B(  0-S ,  4-C ) :   1.1639 B(  1-C ,  2-C ) :   1.6026
B(  1-C ,  4-C ) :   0.1084 B(  1-C , 32-H ) :   0.9627 B(  2-C ,  3-C ) :   1.2779
B(  2-C ,  6-C ) :   0.9937 B(  3-C ,  4-C ) :   1.5535 B(  3-C ,  5-H ) :   1.0000
B(  4-C , 20-C ) :   1.0408 B(  6-C ,  7-H ) :   0.9419 B(  6-C ,  8-H ) :   0.9575
B(  6-C ,  9-C ) :   1.0486 B(  9-C , 10-H ) :   0.9527 B(  9-C , 11-H ) :   0.9591
B(  9-C , 12-C ) :   1.0836 B( 12-C , 13-H ) :   0.9752 B( 12-C , 14-H ) :   0.9714
B( 12-C , 15-H ) :   0.9721 B( 16-S , 17-C ) :   1.1514 B( 16-S , 20-C ) :   1.1543
B( 17-C , 18-C ) :   1.6283 B( 17-C , 33-H ) :   0.9643 B( 18-C , 19-C ) :   1.2186
B( 18-C , 21-H ) :   0.9993 B( 19-C , 20-C ) :   1.6019 B( 19-C , 22-C ) :   1.0424
B( 22-C , 23-H ) :   0.9415 B( 22-C , 24-H ) :   0.9244 B( 22-C , 25-C ) :   1.0692
B( 25-C , 26-H ) :   0.9588 B( 25-C , 27-H ) :   0.9521 B( 25-C , 28-C ) :   1.0669
B( 28-C , 29-H ) :   0.9729 B( 28-C , 30-H ) :   0.9764 B( 28-C , 31-H ) :   0.9771

Dispersion correction           -0.014130850
FINAL SINGLE POINT ENERGY     -1339.859530127531

DIPOLE MOMENT
-------------
                                X             Y             Z
Electronic contribution:     19.11796      15.89899       8.51073
Nuclear contribution   :    -19.62973     -16.11084      -8.65782
                        -----------------------------------------
Total Dipole Moment    :     -0.51178      -0.21184      -0.14709
                        -----------------------------------------
Magnitude (a.u.)       :      0.57309
Magnitude (Debye)      :      1.45667

Rotational constants in cm-1:     0.020869     0.007493     0.006221
Rotational constants in MHz :   625.629766   224.631117   186.510471

                             ****ORCA TERMINATED NORMALLY****
TOTAL RUN TIME: 0 days 0 hours 0 minutes 20 seconds 136 msec
