                         Program Version 4.2.1 -  RELEASE  -
|  1> ! wB97X-D3 SP def2-SVP
|  2> %pal
|  3> nprocs 24
|  4> end
|  5>
|  6> * xyz 0 1
|  7> S 	 -63.9906 	 10.5199 	 -77.415
|  8> C 	 -63.4404 	 12.1655 	 -77.1093
|  9> C 	 -64.478 	 13.1073 	 -77.2656
| 10> C 	 -65.702 	 12.4221 	 -77.4989
| 11> C 	 -65.6481 	 11.0255 	 -77.5569
| 12> H 	 -66.6928 	 12.8544 	 -77.5131
| 13> C 	 -64.3843 	 14.5624 	 -76.9677
| 14> H 	 -64.5924 	 15.0274 	 -77.9075
| 15> H 	 -63.3821 	 14.7937 	 -76.6234
| 16> C 	 -65.2154 	 15.1632 	 -75.8055
| 17> H 	 -65.2151 	 16.2843 	 -75.9791
| 18> H 	 -66.3002 	 14.9494 	 -75.854
| 19> C 	 -64.7513 	 14.8578 	 -74.4437
| 20> H 	 -63.6516 	 14.9234 	 -74.5298
| 21> H 	 -65.2442 	 15.5801 	 -73.7849
| 22> H 	 -65.0648 	 13.8864 	 -74.09
| 23> S 	 -66.6404 	 9.10585 	 -79.2547
| 24> C 	 -68.1846 	 8.31304 	 -78.8926
| 25> C 	 -68.8831 	 9.08272 	 -77.9744
| 26> C 	 -68.071 	 10.0646 	 -77.3814
| 27> C 	 -66.7817 	 10.136 	 -77.8305
| 28> H 	 -69.9243 	 8.81789 	 -77.758
| 29> C 	 -68.6034 	 10.8286 	 -76.1926
| 30> H 	 -69.4997 	 11.4052 	 -76.4721
| 31> H 	 -67.8301 	 11.5136 	 -75.8726
| 32> C 	 -69.0351 	 10.0792 	 -74.8934
| 33> H 	 -68.6688 	 10.6328 	 -74.0317
| 34> H 	 -68.5974 	 9.11216 	 -74.8528
| 35> C 	 -70.5807 	 10.0646 	 -74.7476
| 36> H 	 -71.0151 	 9.35336 	 -75.4282
| 37> H 	 -71.0373 	 11.043 	 -74.9248
| 38> H 	 -70.7615 	 9.65106 	 -73.7982
| 39> H 	 -62.4304 	 12.4031 	 -77.0052
| 40> H 	 -68.6006 	 7.4415 	 -79.4206
| 41> *
| 42>
| 43>                          ****END OF INPUT****

CARTESIAN COORDINATES (ANGSTROEM)
---------------------------------
  S    -63.990600   10.519900  -77.415000
  C    -63.440400   12.165500  -77.109300
  C    -64.478000   13.107300  -77.265600
  C    -65.702000   12.422100  -77.498900
  C    -65.648100   11.025500  -77.556900
  H    -66.692800   12.854400  -77.513100
  C    -64.384300   14.562400  -76.967700
  H    -64.592400   15.027400  -77.907500
  H    -63.382100   14.793700  -76.623400
  C    -65.215400   15.163200  -75.805500
  H    -65.215100   16.284300  -75.979100
  H    -66.300200   14.949400  -75.854000
  C    -64.751300   14.857800  -74.443700
  H    -63.651600   14.923400  -74.529800
  H    -65.244200   15.580100  -73.784900
  H    -65.064800   13.886400  -74.090000
  S    -66.640400    9.105850  -79.254700
  C    -68.184600    8.313040  -78.892600
  C    -68.883100    9.082720  -77.974400
  C    -68.071000   10.064600  -77.381400
  C    -66.781700   10.136000  -77.830500
  H    -69.924300    8.817890  -77.758000
  C    -68.603400   10.828600  -76.192600
  H    -69.499700   11.405200  -76.472100
  H    -67.830100   11.513600  -75.872600
  C    -69.035100   10.079200  -74.893400
  H    -68.668800   10.632800  -74.031700
  H    -68.597400    9.112160  -74.852800
  C    -70.580700   10.064600  -74.747600
  H    -71.015100    9.353360  -75.428200
  H    -71.037300   11.043000  -74.924800
  H    -70.761500    9.651060  -73.798200
  H    -62.430400   12.403100  -77.005200
  H    -68.600600    7.441500  -79.420600

 Total Charge           Charge          ....    0
 Multiplicity           Mult            ....    1
 Number of Electrons    NEL             ....  134
 Basis Dimension        Dim             ....  322

ORBITAL ENERGIES
----------------

  NO   OCC          E(Eh)            E(eV)
   0   2.0000     -88.968733     -2420.9623
   1   2.0000     -88.961372     -2420.7620
   2   2.0000     -10.331126      -281.1242
   3   2.0000     -10.326867      -281.0083
   4   2.0000     -10.321090      -280.8511
   5   2.0000     -10.315676      -280.7038
   6   2.0000     -10.304170      -280.3907
   7   2.0000     -10.299458      -280.2625
   8   2.0000     -10.293933      -280.1121
   9   2.0000     -10.293699      -280.1058
  10   2.0000     -10.292148      -280.0636
  11   2.0000     -10.290148      -280.0092
  12   2.0000     -10.285193      -279.8743
  13   2.0000     -10.281818      -279.7825
  14   2.0000     -10.276703      -279.6433
  15   2.0000     -10.273600      -279.5589
  16   2.0000      -8.083180      -219.9545
  17   2.0000      -8.075887      -219.7561
  18   2.0000      -6.041621      -164.4009
  19   2.0000      -6.037620      -164.2920
  20   2.0000      -6.034422      -164.2050
  21   2.0000      -6.034134      -164.1971
  22   2.0000      -6.030536      -164.0992
  23   2.0000      -6.026504      -163.9895
  24   2.0000      -1.006131       -27.3782
  25   2.0000      -0.984388       -26.7866
  26   2.0000      -0.919520       -25.0214
  27   2.0000      -0.904216       -24.6050
  28   2.0000      -0.871969       -23.7275
  29   2.0000      -0.853713       -23.2307
  30   2.0000      -0.846829       -23.0434
  31   2.0000      -0.815163       -22.1817
  32   2.0000      -0.784740       -21.3539
  33   2.0000      -0.772800       -21.0290
  34   2.0000      -0.708014       -19.2661
  35   2.0000      -0.695532       -18.9264
  36   2.0000      -0.693320       -18.8662
  37   2.0000      -0.661671       -18.0050
  38   2.0000      -0.643697       -17.5159
  39   2.0000      -0.622088       -16.9279
  40   2.0000      -0.597067       -16.2470
  41   2.0000      -0.574744       -15.6396
  42   2.0000      -0.565481       -15.3875
  43   2.0000      -0.550429       -14.9779
  44   2.0000      -0.540691       -14.7129
  45   2.0000      -0.538181       -14.6447
  46   2.0000      -0.521373       -14.1873
  47   2.0000      -0.517282       -14.0760
  48   2.0000      -0.503966       -13.7136
  49   2.0000      -0.497878       -13.5480
  50   2.0000      -0.490860       -13.3570
  51   2.0000      -0.479636       -13.0516
  52   2.0000      -0.471348       -12.8260
  53   2.0000      -0.470239       -12.7959
  54   2.0000      -0.461756       -12.5650
  55   2.0000      -0.450331       -12.2541
  56   2.0000      -0.442390       -12.0380
  57   2.0000      -0.436234       -11.8705
  58   2.0000      -0.432993       -11.7823
  59   2.0000      -0.423489       -11.5237
  60   2.0000      -0.415781       -11.3140
  61   2.0000      -0.411108       -11.1868
  62   2.0000      -0.409746       -11.1498
  63   2.0000      -0.343430        -9.3452
  64   2.0000      -0.331039        -9.0080
  65   2.0000      -0.327543        -8.9129
  66   2.0000      -0.293966        -7.9992
  67   0.0000       0.026108         0.7104
  68   0.0000       0.068613         1.8670
  69   0.0000       0.107366         2.9216
  70   0.0000       0.123506         3.3608
  71   0.0000       0.127600         3.4722

MULLIKEN ATOMIC CHARGES
-----------------------
   0 S :    0.120471
   1 C :   -0.103361
   2 C :   -0.084598
   3 C :    0.035707
   4 C :   -0.177148
   5 H :    0.011323
   6 C :    0.098180
   7 H :    0.035946
   8 H :    0.006939
   9 C :   -0.123083
  10 H :    0.033587
  11 H :    0.023254
  12 C :   -0.013718
  13 H :    0.025759
  14 H :    0.037820
  15 H :    0.037512
  16 S :    0.089966
  17 C :   -0.102901
  18 C :   -0.041937
  19 C :   -0.025274
  20 C :   -0.133711
  21 H :    0.027487
  22 C :    0.049709
  23 H :    0.025122
  24 H :    0.015469
  25 C :   -0.059653
  26 H :    0.026607
  27 H :    0.028561
  28 C :   -0.042446
  29 H :    0.019993
  30 H :    0.040439
  31 H :    0.021241
  32 H :    0.030038
  33 H :    0.066702
Sum of atomic charges:   -0.0000000

LOEWDIN ATOMIC CHARGES
----------------------
   0 S :    0.415514
   1 C :   -0.183488
   2 C :   -0.063087
   3 C :   -0.058447
   4 C :   -0.206556
   5 H :    0.028402
   6 C :   -0.029945
   7 H :    0.034785
   8 H :    0.027717
   9 C :   -0.049432
  10 H :    0.030977
  11 H :    0.020196
  12 C :   -0.062172
  13 H :    0.026565
  14 H :    0.033041
  15 H :    0.025644
  16 S :    0.385830
  17 C :   -0.173848
  18 C :   -0.073045
  19 C :   -0.064994
  20 C :   -0.190457
  21 H :    0.036246
  22 C :   -0.035497
  23 H :    0.031565
  24 H :    0.026450
  25 C :   -0.031249
  26 H :    0.025312
  27 H :    0.020775
  28 C :   -0.060885
  29 H :    0.018853
  30 H :    0.026136
  31 H :    0.020296
  32 H :    0.014191
  33 H :    0.034606

  Mayer bond orders larger than 0.100000
B(  0-S ,  1-C ) :   1.1552 B(  0-S ,  4-C ) :   1.1598 B(  1-C ,  2-C ) :   1.5670
B(  1-C ,  4-C ) :   0.1055 B(  1-C , 32-H ) :   0.9753 B(  2-C ,  3-C ) :   1.2579
B(  2-C ,  6-C ) :   1.0334 B(  3-C ,  4-C ) :   1.5508 B(  3-C ,  5-H ) :   0.9918
B(  4-C , 20-C ) :   1.0324 B(  6-C ,  7-H ) :   0.9253 B(  6-C ,  8-H ) :   0.9421
B(  6-C ,  9-C ) :   1.0737 B(  9-C , 10-H ) :   0.9536 B(  9-C , 11-H ) :   0.9503
B(  9-C , 12-C ) :   1.0780 B( 12-C , 13-H ) :   0.9724 B( 12-C , 14-H ) :   0.9683
B( 12-C , 15-H ) :   0.9741 B( 16-S , 17-C ) :   1.1504 B( 16-S , 20-C ) :   1.1330
B( 17-C , 18-C ) :   1.6058 B( 17-C , 20-C ) :   0.1039 B( 17-C , 33-H ) :   0.9665
B( 18-C , 19-C ) :   1.2231 B( 18-C , 21-H ) :   0.9936 B( 19-C , 20-C ) :   1.6103
B( 19-C , 22-C ) :   1.0670 B( 22-C , 23-H ) :   0.9373 B( 22-C , 24-H ) :   0.9329
B( 22-C , 25-C ) :   1.0483 B( 25-C , 26-H ) :   0.9629 B( 25-C , 27-H ) :   0.9604
B( 25-C , 28-C ) :   1.0808 B( 28-C , 29-H ) :   0.9776 B( 28-C , 30-H ) :   0.9750
B( 28-C , 31-H ) :   0.9708

Dispersion correction           -0.014074626
FINAL SINGLE POINT ENERGY     -1339.869383705571

DIPOLE MOMENT
-------------
                                X             Y             Z
Electronic contribution:     12.55577     -17.22639     -20.21998
Nuclear contribution   :    -12.96296      17.69427      20.59543
                        -----------------------------------------
Total Dipole Moment    :     -0.40719       0.46788       0.37545
                        -----------------------------------------
Magnitude (a.u.)       :      0.72503
Magnitude (Debye)      :      1.84289

Rotational constants in cm-1:     0.017451     0.009107     0.006601
Rotational constants in MHz :   523.171274   273.009285   197.897359

                             ****ORCA TERMINATED NORMALLY****
TOTAL RUN TIME: 0 days 0 hours 0 minutes 21 seconds 603 msec
