                         Program Version 4.2.1 -  RELEASE  -
|  1> ! wB97X-D3 SP def2-SVP
|  2> %pal
|  3> nprocs 24
|  4> end
|  5>
|  6> * xyz 0 1
|  7> S 	 -60.2759 	 12.237 	 -89.9433
|  8> C 	 -59.873 	 13.1657 	 -91.318
|  9> C 	 -59.1037 	 14.2637 	 -91.0674
| 10> C 	 -58.8178 	 14.323 	 -89.6661
| 11> C 	 -59.2231 	 13.2038 	 -88.9632
| 12> H 	 -58.2737 	 15.0869 	 -89.1618
| 13> C 	 -58.8114 	 15.4062 	 -92.0098
| 14> H 	 -59.6668 	 15.4485 	 -92.6723
| 15> H 	 -57.8614 	 15.1315 	 -92.522
| 16> C 	 -58.7775 	 16.8295 	 -91.45
| 17> H 	 -58.1372 	 17.0175 	 -90.6905
| 18> H 	 -58.3745 	 17.4894 	 -92.1704
| 19> C 	 -60.1174 	 17.4152 	 -91.0209
| 20> H 	 -60.6341 	 16.7231 	 -90.4744
| 21> H 	 -60.0326 	 18.3675 	 -90.402
| 22> H 	 -60.5938 	 17.6103 	 -91.9658
| 23> S 	 -60.132 	 12.3097 	 -86.4789
| 24> C 	 -59.0512 	 11.9829 	 -85.1988
| 25> C 	 -57.7712 	 12.352 	 -85.5529
| 26> C 	 -57.6223 	 12.7575 	 -86.9221
| 27> C 	 -58.8798 	 12.8614 	 -87.5971
| 28> H 	 -56.9607 	 12.2618 	 -84.8035
| 29> C 	 -56.2149 	 13.1458 	 -87.4713
| 30> H 	 -55.593 	 13.4756 	 -86.6959
| 31> H 	 -56.437 	 14.0862 	 -88.0944
| 32> C 	 -55.5042 	 12.0808 	 -88.339
| 33> H 	 -56.0525 	 11.761 	 -89.192
| 34> H 	 -55.6008 	 11.1145 	 -87.7989
| 35> C 	 -54.1485 	 12.5061 	 -88.8212
| 36> H 	 -53.5336 	 12.5772 	 -87.9151
| 37> H 	 -54.1251 	 13.3984 	 -89.4134
| 38> H 	 -53.7731 	 11.641 	 -89.41
| 39> H 	 -60.2873 	 13.0674 	 -92.2625
| 40> H 	 -59.2854 	 11.4084 	 -84.328
| 41> *
| 42>
| 43>                          ****END OF INPUT****

CARTESIAN COORDINATES (ANGSTROEM)
---------------------------------
  S    -60.275900   12.237000  -89.943300
  C    -59.873000   13.165700  -91.318000
  C    -59.103700   14.263700  -91.067400
  C    -58.817800   14.323000  -89.666100
  C    -59.223100   13.203800  -88.963200
  H    -58.273700   15.086900  -89.161800
  C    -58.811400   15.406200  -92.009800
  H    -59.666800   15.448500  -92.672300
  H    -57.861400   15.131500  -92.522000
  C    -58.777500   16.829500  -91.450000
  H    -58.137200   17.017500  -90.690500
  H    -58.374500   17.489400  -92.170400
  C    -60.117400   17.415200  -91.020900
  H    -60.634100   16.723100  -90.474400
  H    -60.032600   18.367500  -90.402000
  H    -60.593800   17.610300  -91.965800
  S    -60.132000   12.309700  -86.478900
  C    -59.051200   11.982900  -85.198800
  C    -57.771200   12.352000  -85.552900
  C    -57.622300   12.757500  -86.922100
  C    -58.879800   12.861400  -87.597100
  H    -56.960700   12.261800  -84.803500
  C    -56.214900   13.145800  -87.471300
  H    -55.593000   13.475600  -86.695900
  H    -56.437000   14.086200  -88.094400
  C    -55.504200   12.080800  -88.339000
  H    -56.052500   11.761000  -89.192000
  H    -55.600800   11.114500  -87.798900
  C    -54.148500   12.506100  -88.821200
  H    -53.533600   12.577200  -87.915100
  H    -54.125100   13.398400  -89.413400
  H    -53.773100   11.641000  -89.410000
  H    -60.287300   13.067400  -92.262500
  H    -59.285400   11.408400  -84.328000

 Total Charge           Charge          ....    0
 Multiplicity           Mult            ....    1
 Number of Electrons    NEL             ....  134
 Basis Dimension        Dim             ....  322

ORBITAL ENERGIES
----------------

  NO   OCC          E(Eh)            E(eV)
   0   2.0000     -88.967037     -2420.9162
   1   2.0000     -88.963917     -2420.8313
   2   2.0000     -10.330720      -281.1132
   3   2.0000     -10.326305      -280.9930
   4   2.0000     -10.312791      -280.6253
   5   2.0000     -10.310295      -280.5574
   6   2.0000     -10.303305      -280.3672
   7   2.0000     -10.297276      -280.2031
   8   2.0000     -10.296773      -280.1894
   9   2.0000     -10.294456      -280.1264
  10   2.0000     -10.294234      -280.1203
  11   2.0000     -10.290028      -280.0059
  12   2.0000     -10.279050      -279.7072
  13   2.0000     -10.276860      -279.6476
  14   2.0000     -10.273666      -279.5607
  15   2.0000     -10.271610      -279.5047
  16   2.0000      -8.082827      -219.9449
  17   2.0000      -8.079150      -219.8448
  18   2.0000      -6.041245      -164.3906
  19   2.0000      -6.037619      -164.2920
  20   2.0000      -6.037254      -164.2820
  21   2.0000      -6.033550      -164.1812
  22   2.0000      -6.033359      -164.1760
  23   2.0000      -6.030160      -164.0890
  24   2.0000      -1.010370       -27.4936
  25   2.0000      -0.987288       -26.8655
  26   2.0000      -0.918916       -25.0050
  27   2.0000      -0.905283       -24.6340
  28   2.0000      -0.873809       -23.7776
  29   2.0000      -0.853939       -23.2369
  30   2.0000      -0.846945       -23.0466
  31   2.0000      -0.815765       -22.1981
  32   2.0000      -0.784335       -21.3428
  33   2.0000      -0.772137       -21.0109
  34   2.0000      -0.715137       -19.4599
  35   2.0000      -0.702347       -19.1118
  36   2.0000      -0.693762       -18.8782
  37   2.0000      -0.657143       -17.8818
  38   2.0000      -0.642143       -17.4736
  39   2.0000      -0.625435       -17.0189
  40   2.0000      -0.593528       -16.1507
  41   2.0000      -0.572134       -15.5685
  42   2.0000      -0.561693       -15.2844
  43   2.0000      -0.557228       -15.1630
  44   2.0000      -0.546897       -14.8818
  45   2.0000      -0.525019       -14.2865
  46   2.0000      -0.518416       -14.1068
  47   2.0000      -0.514006       -13.9868
  48   2.0000      -0.505532       -13.7562
  49   2.0000      -0.499157       -13.5828
  50   2.0000      -0.493956       -13.4412
  51   2.0000      -0.486509       -13.2386
  52   2.0000      -0.474965       -12.9245
  53   2.0000      -0.467407       -12.7188
  54   2.0000      -0.461134       -12.5481
  55   2.0000      -0.451331       -12.2813
  56   2.0000      -0.439933       -11.9712
  57   2.0000      -0.438160       -11.9229
  58   2.0000      -0.431787       -11.7495
  59   2.0000      -0.429325       -11.6825
  60   2.0000      -0.417508       -11.3610
  61   2.0000      -0.414898       -11.2899
  62   2.0000      -0.402894       -10.9633
  63   2.0000      -0.344837        -9.3835
  64   2.0000      -0.332017        -9.0346
  65   2.0000      -0.329244        -8.9592
  66   2.0000      -0.289563        -7.8794
  67   0.0000       0.025294         0.6883
  68   0.0000       0.075160         2.0452
  69   0.0000       0.112745         3.0680
  70   0.0000       0.128262         3.4902
  71   0.0000       0.136442         3.7128

MULLIKEN ATOMIC CHARGES
-----------------------
   0 S :    0.134677
   1 C :   -0.084129
   2 C :   -0.111539
   3 C :    0.024321
   4 C :   -0.145940
   5 H :    0.006448
   6 C :    0.085822
   7 H :    0.017442
   8 H :    0.055244
   9 C :   -0.032768
  10 H :   -0.008962
  11 H :    0.009255
  12 C :   -0.046618
  13 H :    0.024085
  14 H :    0.045944
  15 H :    0.025725
  16 S :    0.101363
  17 C :   -0.087022
  18 C :   -0.053832
  19 C :   -0.041179
  20 C :   -0.164820
  21 H :    0.029575
  22 C :    0.070752
  23 H :    0.006594
  24 H :    0.022900
  25 C :   -0.072462
  26 H :    0.016655
  27 H :    0.022894
  28 C :   -0.024973
  29 H :    0.028433
  30 H :    0.039335
  31 H :    0.038159
  32 H :    0.010195
  33 H :    0.058427
Sum of atomic charges:   -0.0000000

LOEWDIN ATOMIC CHARGES
----------------------
   0 S :    0.432772
   1 C :   -0.198545
   2 C :   -0.067819
   3 C :   -0.054777
   4 C :   -0.203193
   5 H :    0.024170
   6 C :   -0.026092
   7 H :    0.030939
   8 H :    0.043406
   9 C :   -0.038828
  10 H :    0.005346
  11 H :    0.024301
  12 C :   -0.053283
  13 H :    0.011472
  14 H :    0.038013
  15 H :    0.023096
  16 S :    0.416758
  17 C :   -0.200033
  18 C :   -0.081462
  19 C :   -0.050628
  20 C :   -0.202441
  21 H :    0.035244
  22 C :   -0.028736
  23 H :    0.019006
  24 H :    0.034966
  25 C :   -0.050288
  26 H :    0.021070
  27 H :    0.028930
  28 C :   -0.061284
  29 H :    0.025500
  30 H :    0.024437
  31 H :    0.034617
  32 H :    0.013092
  33 H :    0.030272

  Mayer bond orders larger than 0.100000
B(  0-S ,  1-C ) :   1.1534 B(  0-S ,  4-C ) :   1.1505 B(  1-C ,  2-C ) :   1.6208
B(  1-C , 32-H ) :   0.9690 B(  2-C ,  3-C ) :   1.2468 B(  2-C ,  6-C ) :   1.0044
B(  3-C ,  4-C ) :   1.5620 B(  3-C ,  5-H ) :   0.9957 B(  4-C , 20-C ) :   1.0658
B(  6-C ,  7-H ) :   0.9479 B(  6-C ,  8-H ) :   0.9263 B(  6-C ,  9-C ) :   1.0842
B(  9-C , 10-H ) :   0.9462 B(  9-C , 11-H ) :   0.9475 B(  9-C , 12-C ) :   1.0705
B( 12-C , 13-H ) :   0.9810 B( 12-C , 14-H ) :   0.9738 B( 12-C , 15-H ) :   0.9777
B( 16-S , 17-C ) :   1.1762 B( 16-S , 20-C ) :   1.1485 B( 17-C , 18-C ) :   1.5743
B( 17-C , 20-C ) :   0.1047 B( 17-C , 33-H ) :   0.9693 B( 18-C , 19-C ) :   1.2798
B( 18-C , 21-H ) :   0.9845 B( 19-C , 20-C ) :   1.5460 B( 19-C , 22-C ) :   1.0280
B( 22-C , 23-H ) :   0.9407 B( 22-C , 24-H ) :   0.9371 B( 22-C , 25-C ) :   1.0543
B( 25-C , 26-H ) :   0.9512 B( 25-C , 27-H ) :   0.9506 B( 25-C , 28-C ) :   1.0825
B( 28-C , 29-H ) :   0.9751 B( 28-C , 30-H ) :   0.9741 B( 28-C , 31-H ) :   0.9717

Dispersion correction           -0.014204643
FINAL SINGLE POINT ENERGY     -1339.858805000929

DIPOLE MOMENT
-------------
                                X             Y             Z
Electronic contribution:    -18.32181     -15.15409      10.68762
Nuclear contribution   :     18.81153      15.46424     -10.87116
                        -----------------------------------------
Total Dipole Moment    :      0.48972       0.31016      -0.18354
                        -----------------------------------------
Magnitude (a.u.)       :      0.60804
Magnitude (Debye)      :      1.54550

Rotational constants in cm-1:     0.016739     0.009145     0.007375
Rotational constants in MHz :   501.825512   274.161002   221.100975

                             ****ORCA TERMINATED NORMALLY****
TOTAL RUN TIME: 0 days 0 hours 0 minutes 21 seconds 952 msec
