                         Program Version 4.2.1 -  RELEASE  -
|  1> ! wB97X-D3 SP def2-SVP
|  2> %pal
|  3> nprocs 24
|  4> end
|  5>
|  6> * xyz 0 1
|  7> S 	 -121.422 	 65.0518 	 -38.9929
|  8> C 	 -121.479 	 66.7793 	 -39.0031
|  9> C 	 -122.362 	 67.3217 	 -38.0547
| 10> C 	 -123.001 	 66.2752 	 -37.3446
| 11> C 	 -122.561 	 64.9673 	 -37.6844
| 12> H 	 -123.774 	 66.4085 	 -36.6564
| 13> C 	 -122.615 	 68.7662 	 -37.8273
| 14> H 	 -123.622 	 68.9802 	 -38.1111
| 15> H 	 -121.969 	 69.3468 	 -38.4899
| 16> C 	 -122.291 	 69.3266 	 -36.3469
| 17> H 	 -122.707 	 70.3202 	 -36.1775
| 18> H 	 -122.767 	 68.7874 	 -35.5248
| 19> C 	 -120.809 	 69.27 	 -36.1566
| 20> H 	 -120.409 	 68.2408 	 -36.0189
| 21> H 	 -120.236 	 69.9173 	 -36.7911
| 22> H 	 -120.607 	 69.6228 	 -35.1651
| 23> S 	 -123.759 	 62.5509 	 -38.4806
| 24> C 	 -124.512 	 61.5382 	 -37.2819
| 25> C 	 -124.206 	 61.9597 	 -35.9991
| 26> C 	 -123.494 	 63.1968 	 -36.0172
| 27> C 	 -123.188 	 63.6927 	 -37.2605
| 28> H 	 -124.554 	 61.4902 	 -35.1428
| 29> C 	 -123.224 	 63.9614 	 -34.7804
| 30> H 	 -122.528 	 64.782 	 -34.9232
| 31> H 	 -122.584 	 63.2533 	 -34.155
| 32> C 	 -124.499 	 64.4925 	 -34.0215
| 33> H 	 -125.096 	 63.6884 	 -33.6531
| 34> H 	 -125.126 	 65.0532 	 -34.6412
| 35> C 	 -124.172 	 65.4187 	 -32.8699
| 36> H 	 -125.078 	 65.9529 	 -32.7134
| 37> H 	 -123.449 	 66.2053 	 -33.2095
| 38> H 	 -123.933 	 64.9677 	 -31.9024
| 39> H 	 -120.924 	 67.3794 	 -39.7455
| 40> H 	 -124.947 	 60.5837 	 -37.5645
| 41> *
| 42>
| 43>                          ****END OF INPUT****

CARTESIAN COORDINATES (ANGSTROEM)
---------------------------------
  S    -121.422000   65.051800  -38.992900
  C    -121.479000   66.779300  -39.003100
  C    -122.362000   67.321700  -38.054700
  C    -123.001000   66.275200  -37.344600
  C    -122.561000   64.967300  -37.684400
  H    -123.774000   66.408500  -36.656400
  C    -122.615000   68.766200  -37.827300
  H    -123.622000   68.980200  -38.111100
  H    -121.969000   69.346800  -38.489900
  C    -122.291000   69.326600  -36.346900
  H    -122.707000   70.320200  -36.177500
  H    -122.767000   68.787400  -35.524800
  C    -120.809000   69.270000  -36.156600
  H    -120.409000   68.240800  -36.018900
  H    -120.236000   69.917300  -36.791100
  H    -120.607000   69.622800  -35.165100
  S    -123.759000   62.550900  -38.480600
  C    -124.512000   61.538200  -37.281900
  C    -124.206000   61.959700  -35.999100
  C    -123.494000   63.196800  -36.017200
  C    -123.188000   63.692700  -37.260500
  H    -124.554000   61.490200  -35.142800
  C    -123.224000   63.961400  -34.780400
  H    -122.528000   64.782000  -34.923200
  H    -122.584000   63.253300  -34.155000
  C    -124.499000   64.492500  -34.021500
  H    -125.096000   63.688400  -33.653100
  H    -125.126000   65.053200  -34.641200
  C    -124.172000   65.418700  -32.869900
  H    -125.078000   65.952900  -32.713400
  H    -123.449000   66.205300  -33.209500
  H    -123.933000   64.967700  -31.902400
  H    -120.924000   67.379400  -39.745500
  H    -124.947000   60.583700  -37.564500

 Total Charge           Charge          ....    0
 Multiplicity           Mult            ....    1
 Number of Electrons    NEL             ....  134
 Basis Dimension        Dim             ....  322

ORBITAL ENERGIES
----------------

  NO   OCC          E(Eh)            E(eV)
   0   2.0000     -88.969677     -2420.9880
   1   2.0000     -88.961047     -2420.7531
   2   2.0000     -10.332548      -281.1629
   3   2.0000     -10.324623      -280.9473
   4   2.0000     -10.318612      -280.7837
   5   2.0000     -10.316052      -280.7141
   6   2.0000     -10.301441      -280.3164
   7   2.0000     -10.296088      -280.1708
   8   2.0000     -10.293675      -280.1051
   9   2.0000     -10.292430      -280.0713
  10   2.0000     -10.291976      -280.0589
  11   2.0000     -10.290135      -280.0088
  12   2.0000     -10.290097      -280.0078
  13   2.0000     -10.282013      -279.7878
  14   2.0000     -10.277029      -279.6522
  15   2.0000     -10.271490      -279.5015
  16   2.0000      -8.084620      -219.9937
  17   2.0000      -8.076009      -219.7594
  18   2.0000      -6.042950      -164.4370
  19   2.0000      -6.038990      -164.3293
  20   2.0000      -6.035702      -164.2398
  21   2.0000      -6.034493      -164.2069
  22   2.0000      -6.030445      -164.0968
  23   2.0000      -6.026816      -163.9980
  24   2.0000      -1.005061       -27.3491
  25   2.0000      -0.984942       -26.8016
  26   2.0000      -0.910920       -24.7874
  27   2.0000      -0.908073       -24.7099
  28   2.0000      -0.866969       -23.5914
  29   2.0000      -0.857577       -23.3359
  30   2.0000      -0.850143       -23.1336
  31   2.0000      -0.813748       -22.1432
  32   2.0000      -0.781222       -21.2581
  33   2.0000      -0.767693       -20.8900
  34   2.0000      -0.709278       -19.3004
  35   2.0000      -0.702576       -19.1181
  36   2.0000      -0.692260       -18.8374
  37   2.0000      -0.664208       -18.0740
  38   2.0000      -0.641647       -17.4601
  39   2.0000      -0.622431       -16.9372
  40   2.0000      -0.598645       -16.2899
  41   2.0000      -0.568792       -15.4776
  42   2.0000      -0.564712       -15.3666
  43   2.0000      -0.556804       -15.1514
  44   2.0000      -0.543450       -14.7880
  45   2.0000      -0.526181       -14.3181
  46   2.0000      -0.517668       -14.0865
  47   2.0000      -0.513500       -13.9730
  48   2.0000      -0.507805       -13.8181
  49   2.0000      -0.491442       -13.3728
  50   2.0000      -0.487221       -13.2580
  51   2.0000      -0.473494       -12.8844
  52   2.0000      -0.472166       -12.8483
  53   2.0000      -0.462558       -12.5868
  54   2.0000      -0.460356       -12.5269
  55   2.0000      -0.454940       -12.3795
  56   2.0000      -0.446770       -12.1572
  57   2.0000      -0.437074       -11.8934
  58   2.0000      -0.433155       -11.7868
  59   2.0000      -0.427602       -11.6357
  60   2.0000      -0.426935       -11.6175
  61   2.0000      -0.416213       -11.3257
  62   2.0000      -0.409741       -11.1496
  63   2.0000      -0.345956        -9.4139
  64   2.0000      -0.330379        -8.9901
  65   2.0000      -0.326915        -8.8958
  66   2.0000      -0.289601        -7.8804
  67   0.0000       0.031134         0.8472
  68   0.0000       0.070647         1.9224
  69   0.0000       0.118475         3.2239
  70   0.0000       0.121125         3.2960
  71   0.0000       0.122402         3.3307

MULLIKEN ATOMIC CHARGES
-----------------------
   0 S :    0.124124
   1 C :   -0.139342
   2 C :   -0.079685
   3 C :    0.049178
   4 C :   -0.159597
   5 H :   -0.018660
   6 C :    0.089198
   7 H :    0.031742
   8 H :    0.012341
   9 C :   -0.077449
  10 H :    0.026958
  11 H :    0.023975
  12 C :   -0.035923
  13 H :    0.047785
  14 H :    0.030360
  15 H :    0.007551
  16 S :    0.093986
  17 C :   -0.097053
  18 C :    0.010808
  19 C :   -0.040519
  20 C :   -0.135914
  21 H :   -0.006073
  22 C :    0.029911
  23 H :    0.015467
  24 H :    0.034483
  25 C :   -0.039340
  26 H :    0.018726
  27 H :    0.015134
  28 C :   -0.042934
  29 H :    0.015683
  30 H :    0.031754
  31 H :    0.041361
  32 H :    0.057539
  33 H :    0.064428
Sum of atomic charges:   -0.0000000

LOEWDIN ATOMIC CHARGES
----------------------
   0 S :    0.429708
   1 C :   -0.208991
   2 C :   -0.064512
   3 C :   -0.049443
   4 C :   -0.200108
   5 H :    0.018119
   6 C :   -0.026660
   7 H :    0.028275
   8 H :    0.029755
   9 C :   -0.038274
  10 H :    0.024620
  11 H :    0.022750
  12 C :   -0.069948
  13 H :    0.036698
  14 H :    0.021611
  15 H :    0.023073
  16 S :    0.395961
  17 C :   -0.178302
  18 C :   -0.061387
  19 C :   -0.061654
  20 C :   -0.198423
  21 H :    0.020778
  22 C :   -0.038841
  23 H :    0.024652
  24 H :    0.039518
  25 C :   -0.030564
  26 H :    0.020904
  27 H :    0.017219
  28 C :   -0.065084
  29 H :    0.022879
  30 H :    0.029213
  31 H :    0.025825
  32 H :    0.031344
  33 H :    0.029288

  Mayer bond orders larger than 0.100000
B(  0-S ,  1-C ) :   1.1651 B(  0-S ,  4-C ) :   1.1708 B(  1-C ,  2-C ) :   1.5608
B(  1-C ,  4-C ) :   0.1008 B(  1-C , 32-H ) :   0.9609 B(  2-C ,  3-C ) :   1.2775
B(  2-C ,  6-C ) :   1.0344 B(  3-C ,  4-C ) :   1.5184 B(  3-C ,  5-H ) :   1.0041
B(  4-C , 20-C ) :   1.0351 B(  6-C ,  7-H ) :   0.9342 B(  6-C ,  8-H ) :   0.9423
B(  6-C ,  9-C ) :   1.0559 B(  9-C , 10-H ) :   0.9576 B(  9-C , 11-H ) :   0.9576
B(  9-C , 12-C ) :   1.0855 B( 12-C , 13-H ) :   0.9706 B( 12-C , 14-H ) :   0.9758
B( 12-C , 15-H ) :   0.9640 B( 16-S , 17-C ) :   1.1712 B( 16-S , 20-C ) :   1.1218
B( 17-C , 18-C ) :   1.5802 B( 17-C , 33-H ) :   0.9665 B( 18-C , 19-C ) :   1.2386
B( 18-C , 21-H ) :   1.0066 B( 19-C , 20-C ) :   1.6095 B( 19-C , 22-C ) :   1.0680
B( 22-C , 23-H ) :   0.9329 B( 22-C , 24-H ) :   0.9283 B( 22-C , 25-C ) :   1.0508
B( 25-C , 26-H ) :   0.9500 B( 25-C , 27-H ) :   0.9587 B( 25-C , 28-C ) :   1.0955
B( 28-C , 29-H ) :   0.9735 B( 28-C , 30-H ) :   0.9706 B( 28-C , 31-H ) :   0.9761

Dispersion correction           -0.014680083
FINAL SINGLE POINT ENERGY     -1339.881620358302

DIPOLE MOMENT
-------------
                                X             Y             Z
Electronic contribution:      1.45773     -20.91482     -23.22539
Nuclear contribution   :     -1.72478      21.35494      23.77181
                        -----------------------------------------
Total Dipole Moment    :     -0.26705       0.44012       0.54642
                        -----------------------------------------
Magnitude (a.u.)       :      0.75073
Magnitude (Debye)      :      1.90820

Rotational constants in cm-1:     0.017574     0.009892     0.006800
Rotational constants in MHz :   526.852398   296.553277   203.855082

                             ****ORCA TERMINATED NORMALLY****
TOTAL RUN TIME: 0 days 0 hours 0 minutes 22 seconds 153 msec
