                         Program Version 4.2.1 -  RELEASE  -
|  1> ! wB97X-D3 SP def2-SVP
|  2> %pal
|  3> nprocs 24
|  4> end
|  5>
|  6> * xyz 0 1
|  7> S 	 -81.6621 	 -19.025 	 -53.9601
|  8> C 	 -83.141 	 -18.5655 	 -53.2151
|  9> C 	 -83.2838 	 -19.1359 	 -51.9675
| 10> C 	 -82.1481 	 -19.9935 	 -51.6784
| 11> C 	 -81.1433 	 -20.0476 	 -52.6093
| 12> H 	 -81.9253 	 -20.644 	 -50.8249
| 13> C 	 -84.5533 	 -18.9336 	 -51.1729
| 14> H 	 -84.657 	 -19.7343 	 -50.4112
| 15> H 	 -85.3523 	 -19.0403 	 -51.7876
| 16> C 	 -84.5879 	 -17.6442 	 -50.2376
| 17> H 	 -84.3729 	 -16.722 	 -50.7738
| 18> H 	 -85.625 	 -17.7206 	 -49.8031
| 19> C 	 -83.6704 	 -17.7775 	 -49.122
| 20> H 	 -84.1325 	 -18.4947 	 -48.4311
| 21> H 	 -82.7221 	 -18.2255 	 -49.4577
| 22> H 	 -83.5843 	 -16.8735 	 -48.5851
| 23> S 	 -79.849 	 -22.2976 	 -51.465
| 24> C 	 -78.2723 	 -22.7517 	 -52.0185
| 25> C 	 -77.731 	 -21.8473 	 -52.8036
| 26> C 	 -78.706 	 -20.8491 	 -53.266
| 27> C 	 -79.9563 	 -20.9401 	 -52.6356
| 28> H 	 -76.6293 	 -21.9693 	 -52.9239
| 29> C 	 -78.2465 	 -19.6515 	 -54.1564
| 30> H 	 -77.1926 	 -19.5012 	 -53.885
| 31> H 	 -78.751 	 -18.6627 	 -53.8321
| 32> C 	 -78.5693 	 -19.7174 	 -55.7272
| 33> H 	 -78.0687 	 -18.9158 	 -56.2648
| 34> H 	 -79.6637 	 -19.6445 	 -55.8386
| 35> C 	 -78.1171 	 -21.0334 	 -56.4328
| 36> H 	 -77.0174 	 -21.108 	 -56.4446
| 37> H 	 -78.4073 	 -21.0145 	 -57.4845
| 38> H 	 -78.565 	 -21.944 	 -56.0859
| 39> H 	 -83.8999 	 -17.9771 	 -53.6944
| 40> H 	 -77.5901 	 -23.4733 	 -51.5033
| 41> *
| 42>
| 43>                          ****END OF INPUT****

CARTESIAN COORDINATES (ANGSTROEM)
---------------------------------
  S    -81.662100  -19.025000  -53.960100
  C    -83.141000  -18.565500  -53.215100
  C    -83.283800  -19.135900  -51.967500
  C    -82.148100  -19.993500  -51.678400
  C    -81.143300  -20.047600  -52.609300
  H    -81.925300  -20.644000  -50.824900
  C    -84.553300  -18.933600  -51.172900
  H    -84.657000  -19.734300  -50.411200
  H    -85.352300  -19.040300  -51.787600
  C    -84.587900  -17.644200  -50.237600
  H    -84.372900  -16.722000  -50.773800
  H    -85.625000  -17.720600  -49.803100
  C    -83.670400  -17.777500  -49.122000
  H    -84.132500  -18.494700  -48.431100
  H    -82.722100  -18.225500  -49.457700
  H    -83.584300  -16.873500  -48.585100
  S    -79.849000  -22.297600  -51.465000
  C    -78.272300  -22.751700  -52.018500
  C    -77.731000  -21.847300  -52.803600
  C    -78.706000  -20.849100  -53.266000
  C    -79.956300  -20.940100  -52.635600
  H    -76.629300  -21.969300  -52.923900
  C    -78.246500  -19.651500  -54.156400
  H    -77.192600  -19.501200  -53.885000
  H    -78.751000  -18.662700  -53.832100
  C    -78.569300  -19.717400  -55.727200
  H    -78.068700  -18.915800  -56.264800
  H    -79.663700  -19.644500  -55.838600
  C    -78.117100  -21.033400  -56.432800
  H    -77.017400  -21.108000  -56.444600
  H    -78.407300  -21.014500  -57.484500
  H    -78.565000  -21.944000  -56.085900
  H    -83.899900  -17.977100  -53.694400
  H    -77.590100  -23.473300  -51.503300

 Total Charge           Charge          ....    0
 Multiplicity           Mult            ....    1
 Number of Electrons    NEL             ....  134
 Basis Dimension        Dim             ....  322

ORBITAL ENERGIES
----------------

  NO   OCC          E(Eh)            E(eV)
   0   2.0000     -88.967828     -2420.9377
   1   2.0000     -88.964694     -2420.8524
   2   2.0000     -10.341208      -281.3986
   3   2.0000     -10.336929      -281.2821
   4   2.0000     -10.316086      -280.7150
   5   2.0000     -10.314450      -280.6704
   6   2.0000     -10.314310      -280.6666
   7   2.0000     -10.306890      -280.4647
   8   2.0000     -10.303074      -280.3609
   9   2.0000     -10.299619      -280.2669
  10   2.0000     -10.296474      -280.1813
  11   2.0000     -10.291400      -280.0432
  12   2.0000     -10.289901      -280.0024
  13   2.0000     -10.286641      -279.9137
  14   2.0000     -10.271077      -279.4902
  15   2.0000     -10.267207      -279.3849
  16   2.0000      -8.082137      -219.9261
  17   2.0000      -8.079215      -219.8466
  18   2.0000      -6.040683      -164.3753
  19   2.0000      -6.037961      -164.3013
  20   2.0000      -6.036582      -164.2638
  21   2.0000      -6.033913      -164.1911
  22   2.0000      -6.032996      -164.1662
  23   2.0000      -6.029584      -164.0733
  24   2.0000      -1.006965       -27.4009
  25   2.0000      -0.988726       -26.9046
  26   2.0000      -0.917584       -24.9687
  27   2.0000      -0.890530       -24.2326
  28   2.0000      -0.878319       -23.9003
  29   2.0000      -0.851376       -23.1671
  30   2.0000      -0.838863       -22.8266
  31   2.0000      -0.825301       -22.4576
  32   2.0000      -0.782473       -21.2922
  33   2.0000      -0.769734       -20.9455
  34   2.0000      -0.708273       -19.2731
  35   2.0000      -0.692989       -18.8572
  36   2.0000      -0.685926       -18.6650
  37   2.0000      -0.663149       -18.0452
  38   2.0000      -0.633075       -17.2268
  39   2.0000      -0.614715       -16.7273
  40   2.0000      -0.588044       -16.0015
  41   2.0000      -0.579320       -15.7641
  42   2.0000      -0.563925       -15.3452
  43   2.0000      -0.552787       -15.0421
  44   2.0000      -0.546455       -14.8698
  45   2.0000      -0.531492       -14.4626
  46   2.0000      -0.516247       -14.0478
  47   2.0000      -0.512328       -13.9411
  48   2.0000      -0.499001       -13.5785
  49   2.0000      -0.495879       -13.4936
  50   2.0000      -0.485727       -13.2173
  51   2.0000      -0.476497       -12.9661
  52   2.0000      -0.474378       -12.9085
  53   2.0000      -0.465953       -12.6792
  54   2.0000      -0.461464       -12.5571
  55   2.0000      -0.450136       -12.2488
  56   2.0000      -0.444504       -12.0956
  57   2.0000      -0.427717       -11.6388
  58   2.0000      -0.424852       -11.5608
  59   2.0000      -0.419193       -11.4068
  60   2.0000      -0.417923       -11.3723
  61   2.0000      -0.411681       -11.2024
  62   2.0000      -0.407881       -11.0990
  63   2.0000      -0.369136       -10.0447
  64   2.0000      -0.330153        -8.9839
  65   2.0000      -0.328702        -8.9444
  66   2.0000      -0.290876        -7.9151
  67   0.0000       0.020383         0.5546
  68   0.0000       0.080038         2.1779
  69   0.0000       0.102412         2.7868
  70   0.0000       0.116689         3.1753
  71   0.0000       0.132301         3.6001

MULLIKEN ATOMIC CHARGES
-----------------------
   0 S :    0.093320
   1 C :   -0.098339
   2 C :   -0.084132
   3 C :   -0.015623
   4 C :   -0.115842
   5 H :    0.018788
   6 C :    0.077871
   7 H :    0.014032
   8 H :    0.008417
   9 C :   -0.075246
  10 H :    0.032831
  11 H :    0.035386
  12 C :   -0.027785
  13 H :    0.015446
  14 H :    0.040089
  15 H :    0.029745
  16 S :    0.065516
  17 C :   -0.083665
  18 C :   -0.051275
  19 C :   -0.058962
  20 C :   -0.099840
  21 H :    0.042749
  22 C :   -0.005456
  23 H :    0.030999
  24 H :    0.046090
  25 C :   -0.058276
  26 H :    0.037002
  27 H :    0.040728
  28 C :   -0.065016
  29 H :    0.027968
  30 H :    0.025329
  31 H :    0.037928
  32 H :    0.048305
  33 H :    0.070918
Sum of atomic charges:    0.0000000

LOEWDIN ATOMIC CHARGES
----------------------
   0 S :    0.421779
   1 C :   -0.194239
   2 C :   -0.065341
   3 C :   -0.074784
   4 C :   -0.182890
   5 H :    0.027154
   6 C :   -0.023521
   7 H :    0.033914
   8 H :    0.015187
   9 C :   -0.036770
  10 H :    0.019670
  11 H :    0.031161
  12 C :   -0.065480
  13 H :    0.025284
  14 H :    0.028874
  15 H :    0.022477
  16 S :    0.381127
  17 C :   -0.194266
  18 C :   -0.081393
  19 C :   -0.055470
  20 C :   -0.174599
  21 H :    0.046277
  22 C :   -0.045235
  23 H :    0.029329
  24 H :    0.034152
  25 C :   -0.037228
  26 H :    0.026366
  27 H :    0.016855
  28 C :   -0.073019
  29 H :    0.023446
  30 H :    0.025868
  31 H :    0.022055
  32 H :    0.029255
  33 H :    0.044006

  Mayer bond orders larger than 0.100000
B(  0-S ,  1-C ) :   1.1536 B(  0-S ,  4-C ) :   1.1323 B(  1-C ,  2-C ) :   1.6022
B(  1-C , 32-H ) :   0.9695 B(  2-C ,  3-C ) :   1.2273 B(  2-C ,  6-C ) :   1.0241
B(  3-C ,  4-C ) :   1.5977 B(  3-C ,  5-H ) :   0.9823 B(  4-C , 20-C ) :   1.0722
B(  6-C ,  7-H ) :   0.9417 B(  6-C ,  8-H ) :   0.9452 B(  6-C ,  9-C ) :   1.0572
B(  9-C , 10-H ) :   0.9597 B(  9-C , 11-H ) :   0.9577 B(  9-C , 12-C ) :   1.0832
B( 12-C , 13-H ) :   0.9703 B( 12-C , 14-H ) :   0.9743 B( 12-C , 15-H ) :   0.9689
B( 16-S , 17-C ) :   1.1320 B( 16-S , 20-C ) :   1.1156 B( 17-C , 18-C ) :   1.7007
B( 17-C , 33-H ) :   0.9498 B( 18-C , 19-C ) :   1.1931 B( 18-C , 21-H ) :   0.9792
B( 19-C , 20-C ) :   1.6046 B( 19-C , 22-C ) :   1.0241 B( 22-C , 23-H ) :   0.9469
B( 22-C , 24-H ) :   0.9432 B( 22-C , 25-C ) :   1.0501 B( 25-C , 26-H ) :   0.9580
B( 25-C , 27-H ) :   0.9540 B( 25-C , 28-C ) :   1.0813 B( 28-C , 29-H ) :   0.9780
B( 28-C , 30-H ) :   0.9735 B( 28-C , 31-H ) :   0.9743

Dispersion correction           -0.014231893
FINAL SINGLE POINT ENERGY     -1339.858736949143

DIPOLE MOMENT
-------------
                                X             Y             Z
Electronic contribution:      2.73691      -9.04891       0.20647
Nuclear contribution   :     -2.71611       9.24539      -0.06157
                        -----------------------------------------
Total Dipole Moment    :      0.02081       0.19648       0.14490
                        -----------------------------------------
Magnitude (a.u.)       :      0.24501
Magnitude (Debye)      :      0.62277

Rotational constants in cm-1:     0.022818     0.007958     0.006376
Rotational constants in MHz :   684.053177   238.589791   191.141138

                             ****ORCA TERMINATED NORMALLY****
TOTAL RUN TIME: 0 days 0 hours 0 minutes 21 seconds 142 msec
