                         Program Version 4.2.1 -  RELEASE  -
|  1> ! wB97X-D3 SP def2-SVP
|  2> %pal
|  3> nprocs 24
|  4> end
|  5>
|  6> * xyz 0 1
|  7> S 	 -68.1818 	 8.47872 	 -110.338
|  8> C 	 -68.9485 	 8.66053 	 -108.814
|  9> C 	 -70.1677 	 7.96696 	 -108.868
| 10> C 	 -70.4386 	 7.37447 	 -110.125
| 11> C 	 -69.5425 	 7.65076 	 -111.089
| 12> H 	 -71.3789 	 6.87617 	 -110.398
| 13> C 	 -71.0082 	 7.80327 	 -107.704
| 14> H 	 -70.721 	 8.54966 	 -107.001
| 15> H 	 -70.7224 	 6.84853 	 -107.256
| 16> C 	 -72.5333 	 7.88371 	 -107.883
| 17> H 	 -72.8092 	 8.70496 	 -108.66
| 18> H 	 -72.967 	 7.03283 	 -108.394
| 19> C 	 -73.3228 	 8.07349 	 -106.566
| 20> H 	 -73.3197 	 9.13267 	 -106.307
| 21> H 	 -74.3847 	 7.81676 	 -106.712
| 22> H 	 -72.8815 	 7.47513 	 -105.83
| 23> S 	 -71.2082 	 7.54552 	 -113.325
| 24> C 	 -70.6054 	 6.66152 	 -114.751
| 25> C 	 -69.2723 	 6.37529 	 -114.63
| 26> C 	 -68.6806 	 6.80961 	 -113.375
| 27> C 	 -69.6227 	 7.37485 	 -112.526
| 28> H 	 -68.7528 	 5.85518 	 -115.397
| 29> C 	 -67.2545 	 6.44142 	 -113.012
| 30> H 	 -66.7175 	 7.26852 	 -112.557
| 31> H 	 -66.7653 	 6.4635 	 -113.912
| 32> C 	 -67.0505 	 5.19793 	 -112.132
| 33> H 	 -67.5651 	 5.48331 	 -111.257
| 34> H 	 -65.943 	 5.19964 	 -111.906
| 35> C 	 -67.4773 	 3.83879 	 -112.817
| 36> H 	 -67.2959 	 3.93551 	 -113.859
| 37> H 	 -68.5414 	 3.68627 	 -112.757
| 38> H 	 -66.8421 	 2.94072 	 -112.465
| 39> H 	 -68.5265 	 9.0263 	 -107.907
| 40> H 	 -71.1757 	 6.38231 	 -115.662
| 41> *
| 42>
| 43>                          ****END OF INPUT****

CARTESIAN COORDINATES (ANGSTROEM)
---------------------------------
  S    -68.181800    8.478720  -110.338000
  C    -68.948500    8.660530  -108.814000
  C    -70.167700    7.966960  -108.868000
  C    -70.438600    7.374470  -110.125000
  C    -69.542500    7.650760  -111.089000
  H    -71.378900    6.876170  -110.398000
  C    -71.008200    7.803270  -107.704000
  H    -70.721000    8.549660  -107.001000
  H    -70.722400    6.848530  -107.256000
  C    -72.533300    7.883710  -107.883000
  H    -72.809200    8.704960  -108.660000
  H    -72.967000    7.032830  -108.394000
  C    -73.322800    8.073490  -106.566000
  H    -73.319700    9.132670  -106.307000
  H    -74.384700    7.816760  -106.712000
  H    -72.881500    7.475130  -105.830000
  S    -71.208200    7.545520  -113.325000
  C    -70.605400    6.661520  -114.751000
  C    -69.272300    6.375290  -114.630000
  C    -68.680600    6.809610  -113.375000
  C    -69.622700    7.374850  -112.526000
  H    -68.752800    5.855180  -115.397000
  C    -67.254500    6.441420  -113.012000
  H    -66.717500    7.268520  -112.557000
  H    -66.765300    6.463500  -113.912000
  C    -67.050500    5.197930  -112.132000
  H    -67.565100    5.483310  -111.257000
  H    -65.943000    5.199640  -111.906000
  C    -67.477300    3.838790  -112.817000
  H    -67.295900    3.935510  -113.859000
  H    -68.541400    3.686270  -112.757000
  H    -66.842100    2.940720  -112.465000
  H    -68.526500    9.026300  -107.907000
  H    -71.175700    6.382310  -115.662000

 Total Charge           Charge          ....    0
 Multiplicity           Mult            ....    1
 Number of Electrons    NEL             ....  134
 Basis Dimension        Dim             ....  322

ORBITAL ENERGIES
----------------

  NO   OCC          E(Eh)            E(eV)
   0   2.0000     -88.969237     -2420.9760
   1   2.0000     -88.963449     -2420.8185
   2   2.0000     -10.331733      -281.1408
   3   2.0000     -10.328956      -281.0652
   4   2.0000     -10.323396      -280.9139
   5   2.0000     -10.310731      -280.5693
   6   2.0000     -10.305443      -280.4254
   7   2.0000     -10.295574      -280.1568
   8   2.0000     -10.294952      -280.1399
   9   2.0000     -10.290798      -280.0268
  10   2.0000     -10.288764      -279.9715
  11   2.0000     -10.287360      -279.9333
  12   2.0000     -10.283940      -279.8402
  13   2.0000     -10.281026      -279.7609
  14   2.0000     -10.280434      -279.7448
  15   2.0000     -10.276330      -279.6331
  16   2.0000      -8.082677      -219.9408
  17   2.0000      -8.078212      -219.8193
  18   2.0000      -6.041389      -164.3945
  19   2.0000      -6.037423      -164.2866
  20   2.0000      -6.036794      -164.2695
  21   2.0000      -6.033241      -164.1728
  22   2.0000      -6.032565      -164.1545
  23   2.0000      -6.029036      -164.0584
  24   2.0000      -1.008845       -27.4521
  25   2.0000      -0.983507       -26.7626
  26   2.0000      -0.914452       -24.8835
  27   2.0000      -0.905389       -24.6369
  28   2.0000      -0.872453       -23.7406
  29   2.0000      -0.850379       -23.1400
  30   2.0000      -0.839298       -22.8385
  31   2.0000      -0.821831       -22.3632
  32   2.0000      -0.785127       -21.3644
  33   2.0000      -0.769581       -20.9414
  34   2.0000      -0.716725       -19.5031
  35   2.0000      -0.700336       -19.0571
  36   2.0000      -0.688170       -18.7261
  37   2.0000      -0.667022       -18.1506
  38   2.0000      -0.636150       -17.3105
  39   2.0000      -0.622432       -16.9372
  40   2.0000      -0.594784       -16.1849
  41   2.0000      -0.571665       -15.5558
  42   2.0000      -0.563398       -15.3308
  43   2.0000      -0.547970       -14.9110
  44   2.0000      -0.539084       -14.6692
  45   2.0000      -0.530508       -14.4359
  46   2.0000      -0.518294       -14.1035
  47   2.0000      -0.512280       -13.9398
  48   2.0000      -0.505283       -13.7495
  49   2.0000      -0.493750       -13.4356
  50   2.0000      -0.489129       -13.3099
  51   2.0000      -0.480400       -13.0723
  52   2.0000      -0.475622       -12.9423
  53   2.0000      -0.469508       -12.7760
  54   2.0000      -0.460717       -12.5367
  55   2.0000      -0.448098       -12.1934
  56   2.0000      -0.442972       -12.0539
  57   2.0000      -0.435200       -11.8424
  58   2.0000      -0.431086       -11.7304
  59   2.0000      -0.424838       -11.5604
  60   2.0000      -0.417203       -11.3527
  61   2.0000      -0.414605       -11.2820
  62   2.0000      -0.406554       -11.0629
  63   2.0000      -0.353807        -9.6276
  64   2.0000      -0.334220        -9.0946
  65   2.0000      -0.326855        -8.8942
  66   2.0000      -0.289497        -7.8776
  67   0.0000       0.024359         0.6629
  68   0.0000       0.076170         2.0727
  69   0.0000       0.105495         2.8707
  70   0.0000       0.121586         3.3085
  71   0.0000       0.134511         3.6602

MULLIKEN ATOMIC CHARGES
-----------------------
   0 S :    0.097981
   1 C :   -0.090586
   2 C :   -0.131487
   3 C :    0.011297
   4 C :   -0.144184
   5 H :    0.020576
   6 C :    0.113017
   7 H :    0.003267
   8 H :    0.041054
   9 C :   -0.145973
  10 H :    0.038970
  11 H :    0.028197
  12 C :   -0.021606
  13 H :    0.036593
  14 H :    0.035639
  15 H :    0.025738
  16 S :    0.102306
  17 C :   -0.105040
  18 C :   -0.023530
  19 C :   -0.061918
  20 C :   -0.126384
  21 H :    0.010294
  22 C :    0.079705
  23 H :    0.018920
  24 H :   -0.011403
  25 C :   -0.035920
  26 H :    0.027196
  27 H :    0.037311
  28 C :   -0.051857
  29 H :    0.012957
  30 H :    0.044805
  31 H :    0.052042
  32 H :    0.041234
  33 H :    0.070787
Sum of atomic charges:   -0.0000000

LOEWDIN ATOMIC CHARGES
----------------------
   0 S :    0.416986
   1 C :   -0.206431
   2 C :   -0.064003
   3 C :   -0.074091
   4 C :   -0.184202
   5 H :    0.033360
   6 C :   -0.038425
   7 H :    0.027039
   8 H :    0.038898
   9 C :   -0.050231
  10 H :    0.031883
  11 H :    0.017656
  12 C :   -0.058553
  13 H :    0.027286
  14 H :    0.031213
  15 H :    0.017211
  16 S :    0.381474
  17 C :   -0.180927
  18 C :   -0.066848
  19 C :   -0.051601
  20 C :   -0.181875
  21 H :    0.026532
  22 C :   -0.039364
  23 H :    0.029370
  24 H :    0.016190
  25 C :   -0.029428
  26 H :    0.016721
  27 H :    0.032712
  28 C :   -0.069571
  29 H :    0.016670
  30 H :    0.027314
  31 H :    0.039304
  32 H :    0.026765
  33 H :    0.040968

  Mayer bond orders larger than 0.100000
B(  0-S ,  1-C ) :   1.1385 B(  0-S ,  4-C ) :   1.1514 B(  1-C ,  2-C ) :   1.5803
B(  1-C , 32-H ) :   0.9737 B(  2-C ,  3-C ) :   1.2487 B(  2-C ,  6-C ) :   1.0555
B(  3-C ,  4-C ) :   1.5751 B(  3-C ,  5-H ) :   0.9877 B(  4-C , 20-C ) :   1.0339
B(  6-C ,  7-H ) :   0.9362 B(  6-C ,  8-H ) :   0.9134 B(  6-C ,  9-C ) :   1.0534
B(  9-C , 10-H ) :   0.9629 B(  9-C , 11-H ) :   0.9518 B(  9-C , 12-C ) :   1.0809
B( 12-C , 13-H ) :   0.9767 B( 12-C , 14-H ) :   0.9752 B( 12-C , 15-H ) :   0.9750
B( 16-S , 17-C ) :   1.1304 B( 16-S , 20-C ) :   1.1249 B( 17-C , 18-C ) :   1.6426
B( 17-C , 33-H ) :   0.9607 B( 18-C , 19-C ) :   1.2267 B( 18-C , 21-H ) :   0.9900
B( 19-C , 20-C ) :   1.5949 B( 19-C , 22-C ) :   1.0454 B( 22-C , 23-H ) :   0.9271
B( 22-C , 24-H ) :   0.9165 B( 22-C , 25-C ) :   1.0655 B( 25-C , 26-H ) :   0.9581
B( 25-C , 27-H ) :   0.9543 B( 25-C , 28-C ) :   1.0563 B( 28-C , 29-H ) :   0.9773
B( 28-C , 30-H ) :   0.9757 B( 28-C , 31-H ) :   0.9766

Dispersion correction           -0.014774577
FINAL SINGLE POINT ENERGY     -1339.872167266990

DIPOLE MOMENT
-------------
                                X             Y             Z
Electronic contribution:      2.26757      10.49805     -12.23142
Nuclear contribution   :     -2.27963     -10.88423      12.36496
                        -----------------------------------------
Total Dipole Moment    :     -0.01206      -0.38618       0.13355
                        -----------------------------------------
Magnitude (a.u.)       :      0.40880
Magnitude (Debye)      :      1.03909

Rotational constants in cm-1:     0.021016     0.008016     0.006864
Rotational constants in MHz :   630.030952   240.300346   205.773467

                             ****ORCA TERMINATED NORMALLY****
TOTAL RUN TIME: 0 days 0 hours 0 minutes 20 seconds 394 msec
