                         Program Version 4.2.1 -  RELEASE  -
|  1> ! wB97X-D3 SP def2-SVP
|  2> %pal
|  3> nprocs 24
|  4> end
|  5>
|  6> * xyz 0 1
|  7> S 	 -36.7908 	 -31.9172 	 -98.9708
|  8> C 	 -37.0912 	 -31.3001 	 -100.558
|  9> C 	 -36.1755 	 -31.7356 	 -101.514
| 10> C 	 -35.0542 	 -32.4148 	 -100.879
| 11> C 	 -35.2439 	 -32.5808 	 -99.5355
| 12> H 	 -34.1453 	 -32.7674 	 -101.34
| 13> C 	 -36.2138 	 -31.3571 	 -102.942
| 14> H 	 -35.1559 	 -31.2921 	 -103.279
| 15> H 	 -36.7086 	 -30.4063 	 -102.993
| 16> C 	 -36.995 	 -32.3492 	 -103.807
| 17> H 	 -38.0551 	 -32.4019 	 -103.37
| 18> H 	 -37.2093 	 -31.9887 	 -104.852
| 19> C 	 -36.2639 	 -33.7269 	 -103.918
| 20> H 	 -35.268 	 -33.6438 	 -104.403
| 21> H 	 -36.0122 	 -34.1672 	 -102.939
| 22> H 	 -36.8049 	 -34.4239 	 -104.662
| 23> S 	 -35.3491 	 -34.3529 	 -97.5292
| 24> C 	 -33.9167 	 -34.634 	 -96.5187
| 25> C 	 -32.7703 	 -34.2611 	 -97.2818
| 26> C 	 -33.0386 	 -33.4283 	 -98.4388
| 27> C 	 -34.3886 	 -33.3282 	 -98.6399
| 28> H 	 -31.7694 	 -34.5457 	 -96.9039
| 29> C 	 -31.9622 	 -32.8307 	 -99.3335
| 30> H 	 -31.2249 	 -32.5972 	 -98.6413
| 31> H 	 -32.3154 	 -31.9179 	 -99.6322
| 32> C 	 -31.2627 	 -33.7734 	 -100.346
| 33> H 	 -32.1314 	 -34.1533 	 -100.93
| 34> H 	 -30.8475 	 -34.672 	 -99.8476
| 35> C 	 -30.1317 	 -33.1621 	 -101.213
| 36> H 	 -29.382 	 -32.4774 	 -100.773
| 37> H 	 -30.5949 	 -32.6543 	 -102.031
| 38> H 	 -29.6559 	 -34.0143 	 -101.679
| 39> H 	 -38.0247 	 -30.8509 	 -100.837
| 40> H 	 -33.8073 	 -35.3343 	 -95.7558
| 41> *
| 42>
| 43>                          ****END OF INPUT****

CARTESIAN COORDINATES (ANGSTROEM)
---------------------------------
  S    -36.790800  -31.917200  -98.970800
  C    -37.091200  -31.300100  -100.558000
  C    -36.175500  -31.735600  -101.514000
  C    -35.054200  -32.414800  -100.879000
  C    -35.243900  -32.580800  -99.535500
  H    -34.145300  -32.767400  -101.340000
  C    -36.213800  -31.357100  -102.942000
  H    -35.155900  -31.292100  -103.279000
  H    -36.708600  -30.406300  -102.993000
  C    -36.995000  -32.349200  -103.807000
  H    -38.055100  -32.401900  -103.370000
  H    -37.209300  -31.988700  -104.852000
  C    -36.263900  -33.726900  -103.918000
  H    -35.268000  -33.643800  -104.403000
  H    -36.012200  -34.167200  -102.939000
  H    -36.804900  -34.423900  -104.662000
  S    -35.349100  -34.352900  -97.529200
  C    -33.916700  -34.634000  -96.518700
  C    -32.770300  -34.261100  -97.281800
  C    -33.038600  -33.428300  -98.438800
  C    -34.388600  -33.328200  -98.639900
  H    -31.769400  -34.545700  -96.903900
  C    -31.962200  -32.830700  -99.333500
  H    -31.224900  -32.597200  -98.641300
  H    -32.315400  -31.917900  -99.632200
  C    -31.262700  -33.773400  -100.346000
  H    -32.131400  -34.153300  -100.930000
  H    -30.847500  -34.672000  -99.847600
  C    -30.131700  -33.162100  -101.213000
  H    -29.382000  -32.477400  -100.773000
  H    -30.594900  -32.654300  -102.031000
  H    -29.655900  -34.014300  -101.679000
  H    -38.024700  -30.850900  -100.837000
  H    -33.807300  -35.334300  -95.755800

 Total Charge           Charge          ....    0
 Multiplicity           Mult            ....    1
 Number of Electrons    NEL             ....  134
 Basis Dimension        Dim             ....  322

ORBITAL ENERGIES
----------------

  NO   OCC          E(Eh)            E(eV)
   0   2.0000     -88.968464     -2420.9550
   1   2.0000     -88.963364     -2420.8162
   2   2.0000     -10.328344      -281.0485
   3   2.0000     -10.327161      -281.0163
   4   2.0000     -10.316566      -280.7280
   5   2.0000     -10.312063      -280.6055
   6   2.0000     -10.304806      -280.4080
   7   2.0000     -10.303099      -280.3616
   8   2.0000     -10.302640      -280.3491
   9   2.0000     -10.299096      -280.2526
  10   2.0000     -10.298693      -280.2417
  11   2.0000     -10.296473      -280.1813
  12   2.0000     -10.291125      -280.0357
  13   2.0000     -10.288718      -279.9703
  14   2.0000     -10.283233      -279.8210
  15   2.0000     -10.282444      -279.7995
  16   2.0000      -8.082970      -219.9488
  17   2.0000      -8.077182      -219.7913
  18   2.0000      -6.041472      -164.3968
  19   2.0000      -6.037568      -164.2906
  20   2.0000      -6.035866      -164.2443
  21   2.0000      -6.033660      -164.1842
  22   2.0000      -6.031925      -164.1370
  23   2.0000      -6.027679      -164.0215
  24   2.0000      -1.005458       -27.3599
  25   2.0000      -0.978079       -26.6149
  26   2.0000      -0.913870       -24.8677
  27   2.0000      -0.908315       -24.7165
  28   2.0000      -0.867125       -23.5957
  29   2.0000      -0.852401       -23.1950
  30   2.0000      -0.843206       -22.9448
  31   2.0000      -0.812557       -22.1108
  32   2.0000      -0.787572       -21.4309
  33   2.0000      -0.770554       -20.9678
  34   2.0000      -0.708177       -19.2705
  35   2.0000      -0.702302       -19.1106
  36   2.0000      -0.697596       -18.9826
  37   2.0000      -0.666430       -18.1345
  38   2.0000      -0.642148       -17.4737
  39   2.0000      -0.613193       -16.6858
  40   2.0000      -0.588927       -16.0255
  41   2.0000      -0.566267       -15.4089
  42   2.0000      -0.565369       -15.3845
  43   2.0000      -0.551614       -15.0102
  44   2.0000      -0.538252       -14.6466
  45   2.0000      -0.534269       -14.5382
  46   2.0000      -0.514757       -14.0073
  47   2.0000      -0.507611       -13.8128
  48   2.0000      -0.503722       -13.7070
  49   2.0000      -0.499422       -13.5900
  50   2.0000      -0.491902       -13.3853
  51   2.0000      -0.478000       -13.0070
  52   2.0000      -0.472581       -12.8596
  53   2.0000      -0.463382       -12.6093
  54   2.0000      -0.460206       -12.5228
  55   2.0000      -0.449502       -12.2316
  56   2.0000      -0.443778       -12.0758
  57   2.0000      -0.441135       -12.0039
  58   2.0000      -0.434641       -11.8272
  59   2.0000      -0.429941       -11.6993
  60   2.0000      -0.418468       -11.3871
  61   2.0000      -0.415514       -11.3067
  62   2.0000      -0.410128       -11.1601
  63   2.0000      -0.353299        -9.6137
  64   2.0000      -0.331066        -9.0088
  65   2.0000      -0.324188        -8.8216
  66   2.0000      -0.287674        -7.8280
  67   0.0000       0.022702         0.6178
  68   0.0000       0.066530         1.8104
  69   0.0000       0.095282         2.5928
  70   0.0000       0.112752         3.0682
  71   0.0000       0.128578         3.4988

MULLIKEN ATOMIC CHARGES
-----------------------
   0 S :    0.124977
   1 C :   -0.100454
   2 C :   -0.101739
   3 C :    0.020815
   4 C :   -0.131115
   5 H :    0.004327
   6 C :    0.076689
   7 H :    0.030581
   8 H :    0.024498
   9 C :   -0.083277
  10 H :    0.036046
  11 H :    0.036176
  12 C :   -0.097368
  13 H :    0.025157
  14 H :    0.053249
  15 H :    0.050840
  16 S :    0.082480
  17 C :   -0.062549
  18 C :   -0.074046
  19 C :   -0.073443
  20 C :   -0.154585
  21 H :    0.029538
  22 C :    0.156921
  23 H :   -0.008254
  24 H :    0.004344
  25 C :   -0.098639
  26 H :    0.031603
  27 H :    0.032889
  28 C :   -0.023909
  29 H :    0.049528
  30 H :    0.023373
  31 H :    0.032553
  32 H :    0.040656
  33 H :    0.042137
Sum of atomic charges:    0.0000000

LOEWDIN ATOMIC CHARGES
----------------------
   0 S :    0.407165
   1 C :   -0.200066
   2 C :   -0.058697
   3 C :   -0.059510
   4 C :   -0.188743
   5 H :    0.029328
   6 C :   -0.036033
   7 H :    0.033892
   8 H :    0.032080
   9 C :   -0.047119
  10 H :    0.029774
  11 H :    0.026370
  12 C :   -0.082290
  13 H :    0.024950
  14 H :    0.028098
  15 H :    0.037035
  16 S :    0.373118
  17 C :   -0.180668
  18 C :   -0.060739
  19 C :   -0.059341
  20 C :   -0.170864
  21 H :    0.031577
  22 C :   -0.025936
  23 H :    0.023917
  24 H :    0.019934
  25 C :   -0.037877
  26 H :    0.025269
  27 H :    0.027485
  28 C :   -0.066808
  29 H :    0.032341
  30 H :    0.022924
  31 H :    0.030320
  32 H :    0.022647
  33 H :    0.016469

  Mayer bond orders larger than 0.100000
B(  0-S ,  1-C ) :   1.1353 B(  0-S ,  4-C ) :   1.1368 B(  1-C ,  2-C ) :   1.6291
B(  1-C , 32-H ) :   0.9614 B(  2-C ,  3-C ) :   1.2077 B(  2-C ,  6-C ) :   1.0240
B(  3-C ,  4-C ) :   1.5849 B(  3-C ,  5-H ) :   0.9934 B(  4-C , 20-C ) :   1.0560
B(  6-C ,  7-H ) :   0.9455 B(  6-C ,  8-H ) :   0.9362 B(  6-C ,  9-C ) :   1.0682
B(  9-C , 10-H ) :   0.9544 B(  9-C , 11-H ) :   0.9574 B(  9-C , 12-C ) :   1.0610
B( 12-C , 13-H ) :   0.9724 B( 12-C , 14-H ) :   0.9748 B( 12-C , 15-H ) :   0.9742
B( 16-S , 17-C ) :   1.1240 B( 16-S , 20-C ) :   1.1311 B( 17-C , 18-C ) :   1.6325
B( 17-C , 20-C ) :   0.1009 B( 17-C , 33-H ) :   0.9706 B( 18-C , 19-C ) :   1.2156
B( 18-C , 21-H ) :   0.9771 B( 19-C , 20-C ) :   1.6190 B( 19-C , 22-C ) :   1.0455
B( 22-C , 23-H ) :   0.9077 B( 22-C , 24-H ) :   0.9277 B( 22-C , 25-C ) :   1.0506
B( 25-C , 26-H ) :   0.9575 B( 25-C , 27-H ) :   0.9584 B( 25-C , 28-C ) :   1.0685
B( 28-C , 29-H ) :   0.9770 B( 28-C , 30-H ) :   0.9748 B( 28-C , 31-H ) :   0.9734

Dispersion correction           -0.014436105
FINAL SINGLE POINT ENERGY     -1339.860653291431

DIPOLE MOMENT
-------------
                                X             Y             Z
Electronic contribution:    -14.68461       0.58212      24.71120
Nuclear contribution   :     15.19190      -0.58105     -25.31341
                        -----------------------------------------
Total Dipole Moment    :      0.50729       0.00107      -0.60222
                        -----------------------------------------
Magnitude (a.u.)       :      0.78741
Magnitude (Debye)      :      2.00143

Rotational constants in cm-1:     0.016300     0.009799     0.006962
Rotational constants in MHz :   488.660863   293.758687   208.702975

                             ****ORCA TERMINATED NORMALLY****
TOTAL RUN TIME: 0 days 0 hours 0 minutes 21 seconds 569 msec
