                         Program Version 4.2.1 -  RELEASE  -
|  1> ! wB97X-D3 SP def2-SVP
|  2> %pal
|  3> nprocs 24
|  4> end
|  5>
|  6> * xyz 0 1
|  7> S 	 -146.764 	 10.469 	 -9.67732
|  8> C 	 -145.464 	 9.341 	 -9.61935
|  9> C 	 -145.145 	 8.97335 	 -8.28837
| 10> C 	 -146.109 	 9.54592 	 -7.33234
| 11> C 	 -146.961 	 10.4041 	 -7.92421
| 12> H 	 -146.095 	 9.33572 	 -6.27832
| 13> C 	 -144.08 	 8.02595 	 -7.9191
| 14> H 	 -143.955 	 7.20206 	 -8.57221
| 15> H 	 -144.331 	 7.42221 	 -7.00798
| 16> C 	 -142.688 	 8.70647 	 -7.95604
| 17> H 	 -142.487 	 9.2013 	 -8.90156
| 18> H 	 -142.749 	 9.5414 	 -7.21414
| 19> C 	 -141.586 	 7.72907 	 -7.65654
| 20> H 	 -140.626 	 8.11991 	 -8.04762
| 21> H 	 -141.553 	 7.55717 	 -6.54414
| 22> H 	 -141.718 	 6.75833 	 -8.19339
| 23> S 	 -149.552 	 10.3437 	 -7.22797
| 24> C 	 -150.264 	 11.6786 	 -6.35623
| 25> C 	 -149.342 	 12.6701 	 -6.13029
| 26> C 	 -148.042 	 12.3984 	 -6.6693
| 27> C 	 -148.008 	 11.1321 	 -7.19399
| 28> H 	 -149.744 	 13.5173 	 -5.64052
| 29> C 	 -146.968 	 13.4727 	 -6.66701
| 30> H 	 -147.667 	 14.3223 	 -6.59011
| 31> H 	 -146.479 	 13.3028 	 -7.62698
| 32> C 	 -145.968 	 13.4512 	 -5.55267
| 33> H 	 -145.472 	 12.4202 	 -5.50723
| 34> H 	 -146.452 	 13.6024 	 -4.56627
| 35> C 	 -144.94 	 14.5188 	 -5.70397
| 36> H 	 -145.455 	 15.518 	 -5.77652
| 37> H 	 -144.287 	 14.3391 	 -6.57205
| 38> H 	 -144.164 	 14.5032 	 -4.91244
| 39> H 	 -144.842 	 9.13155 	 -10.4469
| 40> H 	 -151.311 	 11.8735 	 -6.21828
| 41> *
| 42>
| 43>                          ****END OF INPUT****

CARTESIAN COORDINATES (ANGSTROEM)
---------------------------------
  S    -146.764000   10.469000   -9.677320
  C    -145.464000    9.341000   -9.619350
  C    -145.145000    8.973350   -8.288370
  C    -146.109000    9.545920   -7.332340
  C    -146.961000   10.404100   -7.924210
  H    -146.095000    9.335720   -6.278320
  C    -144.080000    8.025950   -7.919100
  H    -143.955000    7.202060   -8.572210
  H    -144.331000    7.422210   -7.007980
  C    -142.688000    8.706470   -7.956040
  H    -142.487000    9.201300   -8.901560
  H    -142.749000    9.541400   -7.214140
  C    -141.586000    7.729070   -7.656540
  H    -140.626000    8.119910   -8.047620
  H    -141.553000    7.557170   -6.544140
  H    -141.718000    6.758330   -8.193390
  S    -149.552000   10.343700   -7.227970
  C    -150.264000   11.678600   -6.356230
  C    -149.342000   12.670100   -6.130290
  C    -148.042000   12.398400   -6.669300
  C    -148.008000   11.132100   -7.193990
  H    -149.744000   13.517300   -5.640520
  C    -146.968000   13.472700   -6.667010
  H    -147.667000   14.322300   -6.590110
  H    -146.479000   13.302800   -7.626980
  C    -145.968000   13.451200   -5.552670
  H    -145.472000   12.420200   -5.507230
  H    -146.452000   13.602400   -4.566270
  C    -144.940000   14.518800   -5.703970
  H    -145.455000   15.518000   -5.776520
  H    -144.287000   14.339100   -6.572050
  H    -144.164000   14.503200   -4.912440
  H    -144.842000    9.131550  -10.446900
  H    -151.311000   11.873500   -6.218280

 Total Charge           Charge          ....    0
 Multiplicity           Mult            ....    1
 Number of Electrons    NEL             ....  134
 Basis Dimension        Dim             ....  322

ORBITAL ENERGIES
----------------

  NO   OCC          E(Eh)            E(eV)
   0   2.0000     -88.967107     -2420.9181
   1   2.0000     -88.961945     -2420.7776
   2   2.0000     -10.324688      -280.9490
   3   2.0000     -10.319317      -280.8029
   4   2.0000     -10.312493      -280.6172
   5   2.0000     -10.310081      -280.5516
   6   2.0000     -10.304116      -280.3893
   7   2.0000     -10.300433      -280.2890
   8   2.0000     -10.293895      -280.1111
   9   2.0000     -10.290493      -280.0186
  10   2.0000     -10.287884      -279.9476
  11   2.0000     -10.287404      -279.9345
  12   2.0000     -10.287160      -279.9279
  13   2.0000     -10.286504      -279.9100
  14   2.0000     -10.284876      -279.8657
  15   2.0000     -10.279767      -279.7267
  16   2.0000      -8.081861      -219.9186
  17   2.0000      -8.077195      -219.7916
  18   2.0000      -6.040366      -164.3667
  19   2.0000      -6.036296      -164.2560
  20   2.0000      -6.035689      -164.2394
  21   2.0000      -6.032708      -164.1583
  22   2.0000      -6.031616      -164.1286
  23   2.0000      -6.027953      -164.0289
  24   2.0000      -1.007431       -27.4136
  25   2.0000      -0.983859       -26.7722
  26   2.0000      -0.915831       -24.9210
  27   2.0000      -0.914646       -24.8888
  28   2.0000      -0.870394       -23.6846
  29   2.0000      -0.853566       -23.2267
  30   2.0000      -0.850340       -23.1389
  31   2.0000      -0.818109       -22.2619
  32   2.0000      -0.779284       -21.2054
  33   2.0000      -0.765822       -20.8391
  34   2.0000      -0.701584       -19.0911
  35   2.0000      -0.697956       -18.9924
  36   2.0000      -0.686524       -18.6813
  37   2.0000      -0.663378       -18.0514
  38   2.0000      -0.649973       -17.6867
  39   2.0000      -0.622146       -16.9295
  40   2.0000      -0.591304       -16.0902
  41   2.0000      -0.573601       -15.6085
  42   2.0000      -0.567814       -15.4510
  43   2.0000      -0.559128       -15.2146
  44   2.0000      -0.527205       -14.3460
  45   2.0000      -0.523970       -14.2579
  46   2.0000      -0.519663       -14.1407
  47   2.0000      -0.513872       -13.9832
  48   2.0000      -0.506893       -13.7933
  49   2.0000      -0.500178       -13.6105
  50   2.0000      -0.491307       -13.3691
  51   2.0000      -0.478737       -13.0271
  52   2.0000      -0.470852       -12.8125
  53   2.0000      -0.460478       -12.5302
  54   2.0000      -0.458864       -12.4863
  55   2.0000      -0.447194       -12.1688
  56   2.0000      -0.440138       -11.9768
  57   2.0000      -0.437237       -11.8978
  58   2.0000      -0.433151       -11.7866
  59   2.0000      -0.428056       -11.6480
  60   2.0000      -0.418592       -11.3905
  61   2.0000      -0.413016       -11.2387
  62   2.0000      -0.407349       -11.0845
  63   2.0000      -0.339102        -9.2274
  64   2.0000      -0.329403        -8.9635
  65   2.0000      -0.316114        -8.6019
  66   2.0000      -0.309684        -8.4269
  67   0.0000       0.049597         1.3496
  68   0.0000       0.054548         1.4843
  69   0.0000       0.115631         3.1465
  70   0.0000       0.122324         3.3286
  71   0.0000       0.123931         3.3723

MULLIKEN ATOMIC CHARGES
-----------------------
   0 S :    0.124995
   1 C :   -0.098806
   2 C :   -0.087056
   3 C :    0.052156
   4 C :   -0.157351
   5 H :    0.015556
   6 C :    0.049183
   7 H :    0.003628
   8 H :    0.029360
   9 C :   -0.095117
  10 H :    0.027577
  11 H :    0.030684
  12 C :   -0.047788
  13 H :    0.036170
  14 H :    0.045572
  15 H :    0.032200
  16 S :    0.114669
  17 C :   -0.086815
  18 C :   -0.055880
  19 C :   -0.012805
  20 C :   -0.212414
  21 H :    0.003313
  22 C :    0.109401
  23 H :    0.022858
  24 H :    0.027891
  25 C :   -0.077643
  26 H :    0.036080
  27 H :    0.026564
  28 C :   -0.043955
  29 H :    0.038925
  30 H :    0.027010
  31 H :    0.032183
  32 H :    0.039518
  33 H :    0.050137
Sum of atomic charges:    0.0000000

LOEWDIN ATOMIC CHARGES
----------------------
   0 S :    0.410112
   1 C :   -0.199130
   2 C :   -0.055226
   3 C :   -0.051428
   4 C :   -0.202421
   5 H :    0.033488
   6 C :   -0.045752
   7 H :    0.022896
   8 H :    0.037333
   9 C :   -0.042318
  10 H :    0.022221
  11 H :    0.026190
  12 C :   -0.073035
  13 H :    0.028598
  14 H :    0.033075
  15 H :    0.026878
  16 S :    0.415353
  17 C :   -0.187204
  18 C :   -0.074507
  19 C :   -0.052295
  20 C :   -0.207651
  21 H :    0.025507
  22 C :   -0.028565
  23 H :    0.036841
  24 H :    0.034941
  25 C :   -0.050881
  26 H :    0.031868
  27 H :    0.026011
  28 C :   -0.072995
  29 H :    0.031113
  30 H :    0.025451
  31 H :    0.028047
  32 H :    0.019537
  33 H :    0.027946

  Mayer bond orders larger than 0.100000
B(  0-S ,  1-C ) :   1.1449 B(  0-S ,  4-C ) :   1.1391 B(  1-C ,  2-C ) :   1.6074
B(  1-C , 32-H ) :   0.9698 B(  2-C ,  3-C ) :   1.2203 B(  2-C ,  6-C ) :   1.0421
B(  3-C ,  4-C ) :   1.6085 B(  3-C ,  5-H ) :   0.9948 B(  4-C , 20-C ) :   0.9969
B(  6-C ,  7-H ) :   0.9351 B(  6-C ,  8-H ) :   0.9459 B(  6-C ,  9-C ) :   1.0381
B(  9-C , 10-H ) :   0.9610 B(  9-C , 11-H ) :   0.9564 B(  9-C , 12-C ) :   1.0814
B( 12-C , 13-H ) :   0.9738 B( 12-C , 14-H ) :   0.9739 B( 12-C , 15-H ) :   0.9706
B( 16-S , 17-C ) :   1.1491 B( 16-S , 20-C ) :   1.1584 B( 17-C , 18-C ) :   1.6475
B( 17-C , 33-H ) :   0.9640 B( 18-C , 19-C ) :   1.2180 B( 18-C , 21-H ) :   0.9917
B( 19-C , 20-C ) :   1.6212 B( 19-C , 22-C ) :   1.0133 B( 22-C , 23-H ) :   0.9265
B( 22-C , 24-H ) :   0.9219 B( 22-C , 25-C ) :   1.0914 B( 25-C , 26-H ) :   0.9482
B( 25-C , 27-H ) :   0.9481 B( 25-C , 28-C ) :   1.0951 B( 28-C , 29-H ) :   0.9696
B( 28-C , 30-H ) :   0.9712 B( 28-C , 31-H ) :   0.9710

Dispersion correction           -0.013912108
FINAL SINGLE POINT ENERGY     -1339.876112409407

DIPOLE MOMENT
-------------
                                X             Y             Z
Electronic contribution:    -26.45681      -3.75628      -9.74745
Nuclear contribution   :     26.88878       3.87976       9.94480
                        -----------------------------------------
Total Dipole Moment    :      0.43197       0.12347       0.19735
                        -----------------------------------------
Magnitude (a.u.)       :      0.49070
Magnitude (Debye)      :      1.24726

Rotational constants in cm-1:     0.018269     0.008346     0.006619
Rotational constants in MHz :   547.683335   250.211089   198.419260

                             ****ORCA TERMINATED NORMALLY****
TOTAL RUN TIME: 0 days 0 hours 0 minutes 20 seconds 156 msec
