                         Program Version 4.2.1 -  RELEASE  -
|  1> ! wB97X-D3 SP def2-SVP
|  2> %pal
|  3> nprocs 24
|  4> end
|  5>
|  6> * xyz 0 1
|  7> S 	 -38.9892 	 12.755 	 -5.5761
|  8> C 	 -38.7694 	 11.1026 	 -5.93913
|  9> C 	 -37.5166 	 10.6251 	 -5.56419
| 10> C 	 -36.8289 	 11.6424 	 -4.83927
| 11> C 	 -37.4217 	 12.8648 	 -4.8037
| 12> H 	 -35.8535 	 11.5328 	 -4.36805
| 13> C 	 -37.0772 	 9.21529 	 -5.61222
| 14> H 	 -37.9 	 8.54952 	 -5.47369
| 15> H 	 -36.5462 	 9.09282 	 -4.66228
| 16> C 	 -36.0822 	 8.94377 	 -6.81571
| 17> H 	 -36.5922 	 8.32245 	 -7.51246
| 18> H 	 -35.8078 	 9.81005 	 -7.38426
| 19> C 	 -34.7386 	 8.26706 	 -6.39892
| 20> H 	 -34.9185 	 7.35154 	 -5.74789
| 21> H 	 -34.1682 	 7.96222 	 -7.31607
| 22> H 	 -34.2398 	 8.93107 	 -5.81445
| 23> S 	 -38.1151 	 15.1953 	 -3.64783
| 24> C 	 -36.9676 	 16.4179 	 -3.39446
| 25> C 	 -35.7083 	 15.9985 	 -3.5721
| 26> C 	 -35.6314 	 14.6922 	 -4.14239
| 27> C 	 -36.8631 	 14.0534 	 -4.10931
| 28> H 	 -34.8746 	 16.7571 	 -3.49396
| 29> C 	 -34.3791 	 14.1748 	 -4.79157
| 30> H 	 -34.157 	 13.234 	 -4.35475
| 31> H 	 -33.5968 	 14.8676 	 -4.50037
| 32> C 	 -34.4408 	 14.0842 	 -6.30803
| 33> H 	 -34.6947 	 15.1898 	 -6.66516
| 34> H 	 -35.2488 	 13.4246 	 -6.72828
| 35> C 	 -33.1469 	 13.4535 	 -6.97137
| 36> H 	 -32.8571 	 12.47 	 -6.55463
| 37> H 	 -32.3562 	 14.2398 	 -6.89959
| 38> H 	 -33.3149 	 13.339 	 -8.03905
| 39> H 	 -39.5648 	 10.5208 	 -6.44856
| 40> H 	 -37.1583 	 17.4059 	 -3.04361
| 41> *
| 42>
| 43>                          ****END OF INPUT****

CARTESIAN COORDINATES (ANGSTROEM)
---------------------------------
  S    -38.989200   12.755000   -5.576100
  C    -38.769400   11.102600   -5.939130
  C    -37.516600   10.625100   -5.564190
  C    -36.828900   11.642400   -4.839270
  C    -37.421700   12.864800   -4.803700
  H    -35.853500   11.532800   -4.368050
  C    -37.077200    9.215290   -5.612220
  H    -37.900000    8.549520   -5.473690
  H    -36.546200    9.092820   -4.662280
  C    -36.082200    8.943770   -6.815710
  H    -36.592200    8.322450   -7.512460
  H    -35.807800    9.810050   -7.384260
  C    -34.738600    8.267060   -6.398920
  H    -34.918500    7.351540   -5.747890
  H    -34.168200    7.962220   -7.316070
  H    -34.239800    8.931070   -5.814450
  S    -38.115100   15.195300   -3.647830
  C    -36.967600   16.417900   -3.394460
  C    -35.708300   15.998500   -3.572100
  C    -35.631400   14.692200   -4.142390
  C    -36.863100   14.053400   -4.109310
  H    -34.874600   16.757100   -3.493960
  C    -34.379100   14.174800   -4.791570
  H    -34.157000   13.234000   -4.354750
  H    -33.596800   14.867600   -4.500370
  C    -34.440800   14.084200   -6.308030
  H    -34.694700   15.189800   -6.665160
  H    -35.248800   13.424600   -6.728280
  C    -33.146900   13.453500   -6.971370
  H    -32.857100   12.470000   -6.554630
  H    -32.356200   14.239800   -6.899590
  H    -33.314900   13.339000   -8.039050
  H    -39.564800   10.520800   -6.448560
  H    -37.158300   17.405900   -3.043610

 Total Charge           Charge          ....    0
 Multiplicity           Mult            ....    1
 Number of Electrons    NEL             ....  134
 Basis Dimension        Dim             ....  322

ORBITAL ENERGIES
----------------

  NO   OCC          E(Eh)            E(eV)
   0   2.0000     -88.964502     -2420.8472
   1   2.0000     -88.961722     -2420.7715
   2   2.0000     -10.325923      -280.9827
   3   2.0000     -10.325462      -280.9701
   4   2.0000     -10.311771      -280.5976
   5   2.0000     -10.308031      -280.4958
   6   2.0000     -10.303668      -280.3771
   7   2.0000     -10.298780      -280.2440
   8   2.0000     -10.297347      -280.2051
   9   2.0000     -10.292006      -280.0597
  10   2.0000     -10.290871      -280.0288
  11   2.0000     -10.288066      -279.9525
  12   2.0000     -10.286723      -279.9160
  13   2.0000     -10.286445      -279.9084
  14   2.0000     -10.285998      -279.8962
  15   2.0000     -10.281165      -279.7647
  16   2.0000      -8.079908      -219.8655
  17   2.0000      -8.077915      -219.8112
  18   2.0000      -6.038433      -164.3141
  19   2.0000      -6.036349      -164.2574
  20   2.0000      -6.034244      -164.2001
  21   2.0000      -6.032215      -164.1449
  22   2.0000      -6.030681      -164.1032
  23   2.0000      -6.028661      -164.0482
  24   2.0000      -1.013324       -27.5739
  25   2.0000      -0.992609       -27.0103
  26   2.0000      -0.909495       -24.7486
  27   2.0000      -0.908849       -24.7310
  28   2.0000      -0.869517       -23.6607
  29   2.0000      -0.851933       -23.1823
  30   2.0000      -0.845692       -23.0124
  31   2.0000      -0.818622       -22.2758
  32   2.0000      -0.782376       -21.2895
  33   2.0000      -0.770576       -20.9684
  34   2.0000      -0.708696       -19.2846
  35   2.0000      -0.701078       -19.0773
  36   2.0000      -0.684894       -18.6369
  37   2.0000      -0.663298       -18.0493
  38   2.0000      -0.639672       -17.4064
  39   2.0000      -0.622346       -16.9349
  40   2.0000      -0.596076       -16.2201
  41   2.0000      -0.566669       -15.4198
  42   2.0000      -0.562372       -15.3029
  43   2.0000      -0.554353       -15.0847
  44   2.0000      -0.526968       -14.3395
  45   2.0000      -0.519815       -14.1449
  46   2.0000      -0.518758       -14.1161
  47   2.0000      -0.513112       -13.9625
  48   2.0000      -0.502470       -13.6729
  49   2.0000      -0.499715       -13.5979
  50   2.0000      -0.494013       -13.4428
  51   2.0000      -0.489749       -13.3268
  52   2.0000      -0.468398       -12.7458
  53   2.0000      -0.468008       -12.7352
  54   2.0000      -0.463165       -12.6033
  55   2.0000      -0.447125       -12.1669
  56   2.0000      -0.440077       -11.9751
  57   2.0000      -0.438384       -11.9290
  58   2.0000      -0.432832       -11.7780
  59   2.0000      -0.426469       -11.6048
  60   2.0000      -0.423226       -11.5166
  61   2.0000      -0.415137       -11.2965
  62   2.0000      -0.406752       -11.0683
  63   2.0000      -0.356583        -9.7031
  64   2.0000      -0.332810        -9.0562
  65   2.0000      -0.326941        -8.8965
  66   2.0000      -0.287030        -7.8105
  67   0.0000       0.028740         0.7821
  68   0.0000       0.083869         2.2822
  69   0.0000       0.110544         3.0081
  70   0.0000       0.122434         3.3316
  71   0.0000       0.126098         3.4313

MULLIKEN ATOMIC CHARGES
-----------------------
   0 S :    0.115320
   1 C :   -0.148009
   2 C :   -0.070577
   3 C :   -0.014645
   4 C :   -0.110870
   5 H :    0.005644
   6 C :    0.061121
   7 H :    0.024620
   8 H :    0.022608
   9 C :   -0.042995
  10 H :    0.022892
  11 H :    0.035328
  12 C :   -0.068483
  13 H :    0.038155
  14 H :    0.047830
  15 H :    0.015871
  16 S :    0.090620
  17 C :   -0.068609
  18 C :   -0.045470
  19 C :   -0.088436
  20 C :   -0.131549
  21 H :    0.036204
  22 C :    0.130553
  23 H :    0.013524
  24 H :    0.010478
  25 C :   -0.149989
  26 H :    0.044847
  27 H :    0.057396
  28 C :   -0.053994
  29 H :    0.043944
  30 H :    0.034758
  31 H :    0.036959
  32 H :    0.062691
  33 H :    0.042259
Sum of atomic charges:   -0.0000000

LOEWDIN ATOMIC CHARGES
----------------------
   0 S :    0.416179
   1 C :   -0.215288
   2 C :   -0.066912
   3 C :   -0.071130
   4 C :   -0.199404
   5 H :    0.028919
   6 C :   -0.029558
   7 H :    0.029755
   8 H :    0.034170
   9 C :   -0.031443
  10 H :    0.019233
  11 H :    0.024030
  12 C :   -0.061205
  13 H :    0.030218
  14 H :    0.033609
  15 H :    0.005858
  16 S :    0.419014
  17 C :   -0.190693
  18 C :   -0.085669
  19 C :   -0.051114
  20 C :   -0.189173
  21 H :    0.041483
  22 C :   -0.031944
  23 H :    0.022285
  24 H :    0.030705
  25 C :   -0.049425
  26 H :    0.036309
  27 H :    0.030057
  28 C :   -0.071067
  29 H :    0.028143
  30 H :    0.026924
  31 H :    0.026420
  32 H :    0.034224
  33 H :    0.026492

  Mayer bond orders larger than 0.100000
B(  0-S ,  1-C ) :   1.1563 B(  0-S ,  4-C ) :   1.1391 B(  1-C ,  2-C ) :   1.5781
B(  1-C , 32-H ) :   0.9641 B(  2-C ,  3-C ) :   1.2500 B(  2-C ,  6-C ) :   1.0279
B(  3-C ,  4-C ) :   1.5835 B(  3-C ,  5-H ) :   0.9940 B(  4-C , 20-C ) :   1.0484
B(  6-C ,  7-H ) :   0.9470 B(  6-C ,  8-H ) :   0.9549 B(  6-C ,  9-C ) :   1.0109
B(  9-C , 10-H ) :   0.9581 B(  9-C , 11-H ) :   0.9677 B(  9-C , 12-C ) :   1.0756
B( 12-C , 13-H ) :   0.9780 B( 12-C , 14-H ) :   0.9747 B( 12-C , 15-H ) :   0.9796
B( 16-S , 17-C ) :   1.1719 B( 16-S , 20-C ) :   1.1241 B( 17-C , 18-C ) :   1.6323
B( 17-C , 33-H ) :   0.9611 B( 18-C , 19-C ) :   1.2508 B( 18-C , 21-H ) :   0.9764
B( 19-C , 20-C ) :   1.5965 B( 19-C , 22-C ) :   1.0393 B( 22-C , 23-H ) :   0.9276
B( 22-C , 24-H ) :   0.9282 B( 22-C , 25-C ) :   1.0547 B( 25-C , 26-H ) :   0.9539
B( 25-C , 27-H ) :   0.9572 B( 25-C , 28-C ) :   1.0684 B( 28-C , 29-H ) :   0.9735
B( 28-C , 30-H ) :   0.9767 B( 28-C , 31-H ) :   0.9770

Dispersion correction           -0.014689060
FINAL SINGLE POINT ENERGY     -1339.869692037850

DIPOLE MOMENT
-------------
                                X             Y             Z
Electronic contribution:    -24.21156      17.10890      11.90016
Nuclear contribution   :     24.73132     -17.31862     -12.12390
                        -----------------------------------------
Total Dipole Moment    :      0.51977      -0.20973      -0.22374
                        -----------------------------------------
Magnitude (a.u.)       :      0.60349
Magnitude (Debye)      :      1.53395

Rotational constants in cm-1:     0.018793     0.009585     0.006953
Rotational constants in MHz :   563.408859   287.342401   208.438657

                             ****ORCA TERMINATED NORMALLY****
TOTAL RUN TIME: 0 days 0 hours 0 minutes 22 seconds 214 msec
