                         Program Version 4.2.1 -  RELEASE  -
|  1> ! wB97X-D3 SP def2-SVP
|  2> %pal
|  3> nprocs 24
|  4> end
|  5>
|  6> * xyz 0 1
|  7> S 	 -52.54 	 17.7763 	 25.0989
|  8> C 	 -52.0294 	 16.3856 	 24.0977
|  9> C 	 -51.0644 	 15.6591 	 24.7482
| 10> C 	 -50.5689 	 16.2839 	 25.9447
| 11> C 	 -51.2569 	 17.4332 	 26.2162
| 12> H 	 -49.7845 	 15.9777 	 26.5838
| 13> C 	 -50.4464 	 14.398 	 24.2517
| 14> H 	 -49.4983 	 14.3148 	 24.6645
| 15> H 	 -50.3482 	 14.4152 	 23.1494
| 16> C 	 -51.0959 	 13.0056 	 24.5587
| 17> H 	 -52.2072 	 13.0182 	 24.146
| 18> H 	 -50.5699 	 12.1204 	 24.1117
| 19> C 	 -51.1956 	 12.5355 	 26.029
| 20> H 	 -50.2589 	 12.2726 	 26.4327
| 21> H 	 -51.6555 	 13.2889 	 26.5933
| 22> H 	 -51.7259 	 11.6598 	 26.1802
| 23> S 	 -50.6724 	 19.901 	 27.2707
| 24> C 	 -50.3976 	 19.9724 	 29.0175
| 25> C 	 -50.5306 	 18.7379 	 29.6122
| 26> C 	 -50.9605 	 17.7102 	 28.7184
| 27> C 	 -51.0416 	 18.1859 	 27.4154
| 28> H 	 -50.2441 	 18.7647 	 30.6767
| 29> C 	 -51.3353 	 16.331 	 29.2983
| 30> H 	 -52.061 	 15.8783 	 28.5751
| 31> H 	 -52.0091 	 16.5129 	 30.1382
| 32> C 	 -50.204 	 15.3843 	 29.7366
| 33> H 	 -49.6861 	 15.841 	 30.615
| 34> H 	 -49.4345 	 15.5231 	 28.8671
| 35> C 	 -50.4291 	 13.897 	 30.0215
| 36> H 	 -51.046 	 13.6317 	 29.0863
| 37> H 	 -51.0765 	 13.7311 	 30.9036
| 38> H 	 -49.4565 	 13.3188 	 30.0605
| 39> H 	 -52.4374 	 16.205 	 23.1293
| 40> H 	 -49.9757 	 20.7924 	 29.5514
| 41> *
| 42>
| 43>                          ****END OF INPUT****

CARTESIAN COORDINATES (ANGSTROEM)
---------------------------------
  S    -52.540000   17.776300   25.098900
  C    -52.029400   16.385600   24.097700
  C    -51.064400   15.659100   24.748200
  C    -50.568900   16.283900   25.944700
  C    -51.256900   17.433200   26.216200
  H    -49.784500   15.977700   26.583800
  C    -50.446400   14.398000   24.251700
  H    -49.498300   14.314800   24.664500
  H    -50.348200   14.415200   23.149400
  C    -51.095900   13.005600   24.558700
  H    -52.207200   13.018200   24.146000
  H    -50.569900   12.120400   24.111700
  C    -51.195600   12.535500   26.029000
  H    -50.258900   12.272600   26.432700
  H    -51.655500   13.288900   26.593300
  H    -51.725900   11.659800   26.180200
  S    -50.672400   19.901000   27.270700
  C    -50.397600   19.972400   29.017500
  C    -50.530600   18.737900   29.612200
  C    -50.960500   17.710200   28.718400
  C    -51.041600   18.185900   27.415400
  H    -50.244100   18.764700   30.676700
  C    -51.335300   16.331000   29.298300
  H    -52.061000   15.878300   28.575100
  H    -52.009100   16.512900   30.138200
  C    -50.204000   15.384300   29.736600
  H    -49.686100   15.841000   30.615000
  H    -49.434500   15.523100   28.867100
  C    -50.429100   13.897000   30.021500
  H    -51.046000   13.631700   29.086300
  H    -51.076500   13.731100   30.903600
  H    -49.456500   13.318800   30.060500
  H    -52.437400   16.205000   23.129300
  H    -49.975700   20.792400   29.551400

 Total Charge           Charge          ....    0
 Multiplicity           Mult            ....    1
 Number of Electrons    NEL             ....  134
 Basis Dimension        Dim             ....  322

ORBITAL ENERGIES
----------------

  NO   OCC          E(Eh)            E(eV)
   0   2.0000     -88.967236     -2420.9216
   1   2.0000     -88.966665     -2420.9060
   2   2.0000     -10.326668      -281.0029
   3   2.0000     -10.323632      -280.9203
   4   2.0000     -10.315272      -280.6928
   5   2.0000     -10.314548      -280.6731
   6   2.0000     -10.309151      -280.5263
   7   2.0000     -10.302802      -280.3535
   8   2.0000     -10.300131      -280.2808
   9   2.0000     -10.299025      -280.2507
  10   2.0000     -10.298680      -280.2413
  11   2.0000     -10.294863      -280.1375
  12   2.0000     -10.294417      -280.1253
  13   2.0000     -10.290654      -280.0229
  14   2.0000     -10.289601      -279.9943
  15   2.0000     -10.262525      -279.2575
  16   2.0000      -8.081584      -219.9111
  17   2.0000      -8.081288      -219.9030
  18   2.0000      -6.040088      -164.3591
  19   2.0000      -6.039782      -164.3508
  20   2.0000      -6.036250      -164.2547
  21   2.0000      -6.035950      -164.2465
  22   2.0000      -6.032273      -164.1465
  23   2.0000      -6.031934      -164.1373
  24   2.0000      -1.008590       -27.4451
  25   2.0000      -0.982410       -26.7327
  26   2.0000      -0.908651       -24.7257
  27   2.0000      -0.903155       -24.5761
  28   2.0000      -0.871511       -23.7150
  29   2.0000      -0.853120       -23.2146
  30   2.0000      -0.847507       -23.0618
  31   2.0000      -0.817464       -22.2443
  32   2.0000      -0.788174       -21.4473
  33   2.0000      -0.774989       -21.0885
  34   2.0000      -0.706611       -19.2279
  35   2.0000      -0.698346       -19.0030
  36   2.0000      -0.687544       -18.7090
  37   2.0000      -0.659659       -17.9502
  38   2.0000      -0.644606       -17.5406
  39   2.0000      -0.614262       -16.7149
  40   2.0000      -0.592173       -16.1139
  41   2.0000      -0.571378       -15.5480
  42   2.0000      -0.560179       -15.2432
  43   2.0000      -0.550971       -14.9927
  44   2.0000      -0.543558       -14.7910
  45   2.0000      -0.526850       -14.3363
  46   2.0000      -0.518423       -14.1070
  47   2.0000      -0.516286       -14.0489
  48   2.0000      -0.506872       -13.7927
  49   2.0000      -0.495454       -13.4820
  50   2.0000      -0.493907       -13.4399
  51   2.0000      -0.486460       -13.2372
  52   2.0000      -0.469457       -12.7746
  53   2.0000      -0.465514       -12.6673
  54   2.0000      -0.462190       -12.5768
  55   2.0000      -0.449604       -12.2344
  56   2.0000      -0.442894       -12.0518
  57   2.0000      -0.436195       -11.8695
  58   2.0000      -0.432991       -11.7823
  59   2.0000      -0.420386       -11.4393
  60   2.0000      -0.414893       -11.2898
  61   2.0000      -0.410522       -11.1709
  62   2.0000      -0.404058       -10.9950
  63   2.0000      -0.342994        -9.3333
  64   2.0000      -0.334282        -9.0963
  65   2.0000      -0.330972        -9.0062
  66   2.0000      -0.297929        -8.1071
  67   0.0000       0.029289         0.7970
  68   0.0000       0.069062         1.8793
  69   0.0000       0.109076         2.9681
  70   0.0000       0.116551         3.1715
  71   0.0000       0.119282         3.2458

MULLIKEN ATOMIC CHARGES
-----------------------
   0 S :    0.107376
   1 C :   -0.119994
   2 C :   -0.060294
   3 C :    0.036989
   4 C :   -0.136865
   5 H :   -0.005884
   6 C :    0.111582
   7 H :   -0.000069
   8 H :    0.035232
   9 C :   -0.137270
  10 H :    0.037400
  11 H :    0.041201
  12 C :   -0.009073
  13 H :    0.009285
  14 H :    0.028296
  15 H :    0.014209
  16 S :    0.109931
  17 C :   -0.090801
  18 C :   -0.056063
  19 C :   -0.012855
  20 C :   -0.177412
  21 H :    0.033183
  22 C :    0.066129
  23 H :    0.030083
  24 H :    0.027707
  25 C :   -0.120803
  26 H :    0.030421
  27 H :    0.034169
  28 C :   -0.061794
  29 H :    0.038840
  30 H :    0.046571
  31 H :    0.062094
  32 H :    0.041219
  33 H :    0.047259
Sum of atomic charges:   -0.0000000

LOEWDIN ATOMIC CHARGES
----------------------
   0 S :    0.392975
   1 C :   -0.176286
   2 C :   -0.058714
   3 C :   -0.052898
   4 C :   -0.195081
   5 H :    0.026763
   6 C :   -0.031407
   7 H :    0.020255
   8 H :    0.039369
   9 C :   -0.044362
  10 H :    0.029591
  11 H :    0.029595
  12 C :   -0.061909
  13 H :    0.017222
  14 H :    0.015614
  15 H :    0.020822
  16 S :    0.393378
  17 C :   -0.177953
  18 C :   -0.072458
  19 C :   -0.053171
  20 C :   -0.194372
  21 H :    0.039931
  22 C :   -0.039620
  23 H :    0.033528
  24 H :    0.030844
  25 C :   -0.058134
  26 H :    0.021906
  27 H :    0.028383
  28 C :   -0.076295
  29 H :    0.036284
  30 H :    0.028069
  31 H :    0.040150
  32 H :    0.023595
  33 H :    0.024386

  Mayer bond orders larger than 0.100000
B(  0-S ,  1-C ) :   1.1137 B(  0-S ,  4-C ) :   1.1539 B(  1-C ,  2-C ) :   1.6226
B(  1-C , 32-H ) :   0.9781 B(  2-C ,  3-C ) :   1.1969 B(  2-C ,  6-C ) :   1.0364
B(  3-C ,  4-C ) :   1.5857 B(  3-C ,  5-H ) :   1.0077 B(  4-C , 20-C ) :   1.0367
B(  6-C ,  7-H ) :   0.9340 B(  6-C ,  8-H ) :   0.9388 B(  6-C ,  9-C ) :   1.0574
B(  9-C , 10-H ) :   0.9571 B(  9-C , 11-H ) :   0.9592 B(  9-C , 12-C ) :   1.0796
B( 12-C , 13-H ) :   0.9722 B( 12-C , 14-H ) :   0.9734 B( 12-C , 15-H ) :   0.9681
B( 16-S , 17-C ) :   1.1339 B( 16-S , 20-C ) :   1.1412 B( 17-C , 18-C ) :   1.6615
B( 17-C , 33-H ) :   0.9662 B( 18-C , 19-C ) :   1.2014 B( 18-C , 21-H ) :   0.9841
B( 19-C , 20-C ) :   1.6083 B( 19-C , 22-C ) :   1.0407 B( 22-C , 23-H ) :   0.9310
B( 22-C , 24-H ) :   0.9345 B( 22-C , 25-C ) :   1.0453 B( 25-C , 26-H ) :   0.9495
B( 25-C , 27-H ) :   0.9556 B( 25-C , 28-C ) :   1.0736 B( 28-C , 29-H ) :   0.9726
B( 28-C , 30-H ) :   0.9722 B( 28-C , 31-H ) :   0.9704

Dispersion correction           -0.015494964
FINAL SINGLE POINT ENERGY     -1339.862975929891

DIPOLE MOMENT
-------------
                                X             Y             Z
Electronic contribution:     -5.13050      31.41214      -8.37671
Nuclear contribution   :      5.42034     -31.99312       8.71278
                        -----------------------------------------
Total Dipole Moment    :      0.28984      -0.58098       0.33607
                        -----------------------------------------
Magnitude (a.u.)       :      0.73109
Magnitude (Debye)      :      1.85828

Rotational constants in cm-1:     0.016964     0.010621     0.007030
Rotational constants in MHz :   508.563425   318.405999   210.753643

                             ****ORCA TERMINATED NORMALLY****
TOTAL RUN TIME: 0 days 0 hours 0 minutes 21 seconds 440 msec
