                         Program Version 4.2.1 -  RELEASE  -
|  1> ! wB97X-D3 SP def2-SVP
|  2> %pal
|  3> nprocs 24
|  4> end
|  5>
|  6> * xyz 0 1
|  7> S 	 -78.5006 	 2.44258 	 -115.679
|  8> C 	 -78.6872 	 0.791179 	 -115.03
|  9> C 	 -80.0521 	 0.570918 	 -114.679
| 10> C 	 -80.8226 	 1.74454 	 -115.036
| 11> C 	 -80.1467 	 2.89037 	 -115.487
| 12> H 	 -81.9267 	 1.8721 	 -114.868
| 13> C 	 -80.5851 	 -0.701831 	 -114.09
| 14> H 	 -79.7676 	 -1.34849 	 -114.184
| 15> H 	 -81.3993 	 -1.11634 	 -114.73
| 16> C 	 -80.9402 	 -0.74372 	 -112.575
| 17> H 	 -80.9189 	 -1.73041 	 -112.193
| 18> H 	 -80.2275 	 -0.179799 	 -112.018
| 19> C 	 -82.2837 	 -0.186794 	 -112.221
| 20> H 	 -83.071 	 -0.739414 	 -112.688
| 21> H 	 -82.3807 	 -0.461475 	 -111.169
| 22> H 	 -82.3809 	 0.920631 	 -112.393
| 23> S 	 -79.7944 	 5.13625 	 -117.148
| 24> C 	 -80.937 	 6.38735 	 -117.1
| 25> C 	 -81.8463 	 6.22855 	 -116.05
| 26> C 	 -81.7827 	 4.96926 	 -115.444
| 27> C 	 -80.6078 	 4.25855 	 -115.778
| 28> H 	 -82.4936 	 7.02951 	 -115.867
| 29> C 	 -82.7909 	 4.49569 	 -114.419
| 30> H 	 -83.1232 	 3.50908 	 -114.741
| 31> H 	 -83.6531 	 5.22923 	 -114.464
| 32> C 	 -82.3918 	 4.447 	 -112.995
| 33> H 	 -81.6421 	 3.69362 	 -112.815
| 34> H 	 -83.2382 	 4.15533 	 -112.435
| 35> C 	 -81.9415 	 5.77219 	 -112.321
| 36> H 	 -82.7196 	 6.58982 	 -112.338
| 37> H 	 -81.105 	 6.26879 	 -112.775
| 38> H 	 -81.6344 	 5.64821 	 -111.328
| 39> H 	 -77.856 	 0.146803 	 -114.855
| 40> H 	 -80.7856 	 7.33139 	 -117.638
| 41> *
| 42>
| 43>                          ****END OF INPUT****

CARTESIAN COORDINATES (ANGSTROEM)
---------------------------------
  S    -78.500600    2.442580  -115.679000
  C    -78.687200    0.791179  -115.030000
  C    -80.052100    0.570918  -114.679000
  C    -80.822600    1.744540  -115.036000
  C    -80.146700    2.890370  -115.487000
  H    -81.926700    1.872100  -114.868000
  C    -80.585100   -0.701831  -114.090000
  H    -79.767600   -1.348490  -114.184000
  H    -81.399300   -1.116340  -114.730000
  C    -80.940200   -0.743720  -112.575000
  H    -80.918900   -1.730410  -112.193000
  H    -80.227500   -0.179799  -112.018000
  C    -82.283700   -0.186794  -112.221000
  H    -83.071000   -0.739414  -112.688000
  H    -82.380700   -0.461475  -111.169000
  H    -82.380900    0.920631  -112.393000
  S    -79.794400    5.136250  -117.148000
  C    -80.937000    6.387350  -117.100000
  C    -81.846300    6.228550  -116.050000
  C    -81.782700    4.969260  -115.444000
  C    -80.607800    4.258550  -115.778000
  H    -82.493600    7.029510  -115.867000
  C    -82.790900    4.495690  -114.419000
  H    -83.123200    3.509080  -114.741000
  H    -83.653100    5.229230  -114.464000
  C    -82.391800    4.447000  -112.995000
  H    -81.642100    3.693620  -112.815000
  H    -83.238200    4.155330  -112.435000
  C    -81.941500    5.772190  -112.321000
  H    -82.719600    6.589820  -112.338000
  H    -81.105000    6.268790  -112.775000
  H    -81.634400    5.648210  -111.328000
  H    -77.856000    0.146803  -114.855000
  H    -80.785600    7.331390  -117.638000

 Total Charge           Charge          ....    0
 Multiplicity           Mult            ....    1
 Number of Electrons    NEL             ....  134
 Basis Dimension        Dim             ....  322

ORBITAL ENERGIES
----------------

  NO   OCC          E(Eh)            E(eV)
   0   2.0000     -88.968325     -2420.9512
   1   2.0000     -88.964480     -2420.8466
   2   2.0000     -10.336969      -281.2832
   3   2.0000     -10.334463      -281.2150
   4   2.0000     -10.320647      -280.8391
   5   2.0000     -10.319086      -280.7966
   6   2.0000     -10.311339      -280.5858
   7   2.0000     -10.308581      -280.5108
   8   2.0000     -10.299314      -280.2586
   9   2.0000     -10.296081      -280.1706
  10   2.0000     -10.291619      -280.0492
  11   2.0000     -10.291177      -280.0372
  12   2.0000     -10.280830      -279.7556
  13   2.0000     -10.280554      -279.7481
  14   2.0000     -10.275620      -279.6138
  15   2.0000     -10.272918      -279.5403
  16   2.0000      -8.082993      -219.9494
  17   2.0000      -8.079222      -219.8468
  18   2.0000      -6.041404      -164.3950
  19   2.0000      -6.037779      -164.2963
  20   2.0000      -6.037347      -164.2846
  21   2.0000      -6.034025      -164.1942
  22   2.0000      -6.033546      -164.1811
  23   2.0000      -6.030114      -164.0877
  24   2.0000      -1.004478       -27.3332
  25   2.0000      -0.982524       -26.7358
  26   2.0000      -0.916835       -24.9484
  27   2.0000      -0.915628       -24.9155
  28   2.0000      -0.870198       -23.6793
  29   2.0000      -0.853781       -23.2326
  30   2.0000      -0.841960       -22.9109
  31   2.0000      -0.812101       -22.0984
  32   2.0000      -0.791593       -21.5403
  33   2.0000      -0.776283       -21.1237
  34   2.0000      -0.712544       -19.3893
  35   2.0000      -0.700926       -19.0732
  36   2.0000      -0.690603       -18.7923
  37   2.0000      -0.662939       -18.0395
  38   2.0000      -0.640557       -17.4304
  39   2.0000      -0.615706       -16.7542
  40   2.0000      -0.592798       -16.1309
  41   2.0000      -0.577468       -15.7137
  42   2.0000      -0.565740       -15.3946
  43   2.0000      -0.552096       -15.0233
  44   2.0000      -0.548040       -14.9129
  45   2.0000      -0.542903       -14.7732
  46   2.0000      -0.516832       -14.0637
  47   2.0000      -0.509523       -13.8648
  48   2.0000      -0.506480       -13.7820
  49   2.0000      -0.495747       -13.4900
  50   2.0000      -0.491992       -13.3878
  51   2.0000      -0.481211       -13.0944
  52   2.0000      -0.477550       -12.9948
  53   2.0000      -0.465708       -12.6726
  54   2.0000      -0.459852       -12.5132
  55   2.0000      -0.449132       -12.2215
  56   2.0000      -0.441700       -12.0193
  57   2.0000      -0.435598       -11.8532
  58   2.0000      -0.433663       -11.8006
  59   2.0000      -0.424939       -11.5632
  60   2.0000      -0.420699       -11.4478
  61   2.0000      -0.416802       -11.3418
  62   2.0000      -0.407639       -11.0924
  63   2.0000      -0.354496        -9.6463
  64   2.0000      -0.336644        -9.1605
  65   2.0000      -0.326945        -8.8966
  66   2.0000      -0.282041        -7.6747
  67   0.0000       0.016271         0.4427
  68   0.0000       0.073522         2.0006
  69   0.0000       0.106145         2.8883
  70   0.0000       0.114086         3.1044
  71   0.0000       0.123875         3.3708

MULLIKEN ATOMIC CHARGES
-----------------------
   0 S :    0.090172
   1 C :   -0.115460
   2 C :   -0.110482
   3 C :   -0.004990
   4 C :   -0.128458
   5 H :    0.006892
   6 C :    0.095444
   7 H :   -0.002760
   8 H :    0.042463
   9 C :   -0.042376
  10 H :    0.020050
  11 H :    0.019497
  12 C :   -0.056425
  13 H :    0.018135
  14 H :    0.027338
  15 H :    0.048770
  16 S :    0.101104
  17 C :   -0.095980
  18 C :   -0.025837
  19 C :   -0.048037
  20 C :   -0.112505
  21 H :   -0.000030
  22 C :    0.047544
  23 H :    0.038863
  24 H :    0.021618
  25 C :   -0.031031
  26 H :    0.035806
  27 H :    0.022033
  28 C :   -0.053029
  29 H :    0.021869
  30 H :    0.028482
  31 H :    0.021867
  32 H :    0.048564
  33 H :    0.070892
Sum of atomic charges:    0.0000000

LOEWDIN ATOMIC CHARGES
----------------------
   0 S :    0.407223
   1 C :   -0.188438
   2 C :   -0.055909
   3 C :   -0.086298
   4 C :   -0.203870
   5 H :    0.029287
   6 C :   -0.032348
   7 H :    0.024871
   8 H :    0.038945
   9 C :   -0.033039
  10 H :    0.021852
  11 H :    0.023545
  12 C :   -0.066995
  13 H :    0.017794
  14 H :    0.029430
  15 H :    0.029504
  16 S :    0.409819
  17 C :   -0.197850
  18 C :   -0.070688
  19 C :   -0.047503
  20 C :   -0.183227
  21 H :    0.024020
  22 C :   -0.031406
  23 H :    0.031644
  24 H :    0.036890
  25 C :   -0.036787
  26 H :    0.023488
  27 H :    0.023847
  28 C :   -0.065086
  29 H :    0.026394
  30 H :    0.022659
  31 H :    0.020258
  32 H :    0.023427
  33 H :    0.034544

  Mayer bond orders larger than 0.100000
B(  0-S ,  1-C ) :   1.1486 B(  0-S ,  4-C ) :   1.1631 B(  1-C ,  2-C ) :   1.5676
B(  1-C ,  4-C ) :   0.1047 B(  1-C , 32-H ) :   0.9722 B(  2-C ,  3-C ) :   1.2609
B(  2-C ,  6-C ) :   1.0375 B(  3-C ,  4-C ) :   1.5458 B(  3-C ,  5-H ) :   0.9780
B(  4-C , 20-C ) :   1.0555 B(  6-C ,  7-H ) :   0.9247 B(  6-C ,  8-H ) :   0.9411
B(  6-C ,  9-C ) :   1.0670 B(  9-C , 10-H ) :   0.9553 B(  9-C , 11-H ) :   0.9504
B(  9-C , 12-C ) :   1.0954 B( 12-C , 13-H ) :   0.9724 B( 12-C , 14-H ) :   0.9705
B( 12-C , 15-H ) :   0.9724 B( 16-S , 17-C ) :   1.1966 B( 16-S , 20-C ) :   1.1341
B( 17-C , 18-C ) :   1.5677 B( 17-C , 20-C ) :   0.1127 B( 17-C , 33-H ) :   0.9584
B( 18-C , 19-C ) :   1.2711 B( 18-C , 21-H ) :   1.0000 B( 19-C , 20-C ) :   1.5463
B( 19-C , 22-C ) :   1.0386 B( 22-C , 23-H ) :   0.9242 B( 22-C , 24-H ) :   0.9296
B( 22-C , 25-C ) :   1.0985 B( 25-C , 26-H ) :   0.9455 B( 25-C , 27-H ) :   0.9485
B( 25-C , 28-C ) :   1.0750 B( 28-C , 29-H ) :   0.9742 B( 28-C , 30-H ) :   0.9745
B( 28-C , 31-H ) :   0.9732

Dispersion correction           -0.015063297
FINAL SINGLE POINT ENERGY     -1339.870149399339

DIPOLE MOMENT
-------------
                                X             Y             Z
Electronic contribution:     16.89787       8.68973     -23.26304
Nuclear contribution   :    -17.35115      -8.82923      23.77147
                        -----------------------------------------
Total Dipole Moment    :     -0.45329      -0.13950       0.50843
                        -----------------------------------------
Magnitude (a.u.)       :      0.69529
Magnitude (Debye)      :      1.76729

Rotational constants in cm-1:     0.018950     0.009691     0.007032
Rotational constants in MHz :   568.118280   290.514170   210.816420

                             ****ORCA TERMINATED NORMALLY****
TOTAL RUN TIME: 0 days 0 hours 0 minutes 22 seconds 486 msec
