                         Program Version 4.2.1 -  RELEASE  -
|  1> ! wB97X-D3 SP def2-SVP
|  2> %pal
|  3> nprocs 24
|  4> end
|  5>
|  6> * xyz 0 1
|  7> S 	 -89.2678 	 -4.62436 	 -112.12
|  8> C 	 -88.3564 	 -4.34099 	 -113.629
|  9> C 	 -89.2589 	 -3.85151 	 -114.629
| 10> C 	 -90.5939 	 -4.03913 	 -114.301
| 11> C 	 -90.8221 	 -4.39745 	 -112.999
| 12> H 	 -91.5205 	 -3.85362 	 -114.83
| 13> C 	 -88.979 	 -3.40521 	 -116.09
| 14> H 	 -88.7928 	 -2.32602 	 -116.147
| 15> H 	 -89.8561 	 -3.58353 	 -116.652
| 16> C 	 -87.8655 	 -4.05692 	 -116.859
| 17> H 	 -87.095 	 -4.2031 	 -116.102
| 18> H 	 -88.1586 	 -5.12985 	 -117.069
| 19> C 	 -87.2988 	 -3.29065 	 -118.067
| 20> H 	 -88.0983 	 -3.23539 	 -118.776
| 21> H 	 -87.0081 	 -2.31092 	 -117.943
| 22> H 	 -86.3626 	 -3.69285 	 -118.416
| 23> S 	 -92.5122 	 -6.08465 	 -111.653
| 24> C 	 -93.9739 	 -5.45346 	 -110.91
| 25> C 	 -94.198 	 -4.15139 	 -111.311
| 26> C 	 -93.1188 	 -3.60467 	 -112.017
| 27> C 	 -92.1111 	 -4.49787 	 -112.298
| 28> H 	 -95.086 	 -3.57826 	 -111.123
| 29> C 	 -93.285 	 -2.17548 	 -112.48
| 30> H 	 -92.3162 	 -1.6516 	 -112.516
| 31> H 	 -93.8399 	 -1.68694 	 -111.734
| 32> C 	 -93.8971 	 -1.99851 	 -113.914
| 33> H 	 -93.3239 	 -2.77473 	 -114.508
| 34> H 	 -93.7107 	 -1.02015 	 -114.293
| 35> C 	 -95.3902 	 -2.30051 	 -114.052
| 36> H 	 -95.7715 	 -1.95949 	 -115.065
| 37> H 	 -95.9626 	 -1.74321 	 -113.291
| 38> H 	 -95.748 	 -3.32507 	 -113.833
| 39> H 	 -87.3253 	 -4.2711 	 -113.79
| 40> H 	 -94.7773 	 -5.99283 	 -110.415
| 41> *
| 42>
| 43>                          ****END OF INPUT****

CARTESIAN COORDINATES (ANGSTROEM)
---------------------------------
  S    -89.267800   -4.624360  -112.120000
  C    -88.356400   -4.340990  -113.629000
  C    -89.258900   -3.851510  -114.629000
  C    -90.593900   -4.039130  -114.301000
  C    -90.822100   -4.397450  -112.999000
  H    -91.520500   -3.853620  -114.830000
  C    -88.979000   -3.405210  -116.090000
  H    -88.792800   -2.326020  -116.147000
  H    -89.856100   -3.583530  -116.652000
  C    -87.865500   -4.056920  -116.859000
  H    -87.095000   -4.203100  -116.102000
  H    -88.158600   -5.129850  -117.069000
  C    -87.298800   -3.290650  -118.067000
  H    -88.098300   -3.235390  -118.776000
  H    -87.008100   -2.310920  -117.943000
  H    -86.362600   -3.692850  -118.416000
  S    -92.512200   -6.084650  -111.653000
  C    -93.973900   -5.453460  -110.910000
  C    -94.198000   -4.151390  -111.311000
  C    -93.118800   -3.604670  -112.017000
  C    -92.111100   -4.497870  -112.298000
  H    -95.086000   -3.578260  -111.123000
  C    -93.285000   -2.175480  -112.480000
  H    -92.316200   -1.651600  -112.516000
  H    -93.839900   -1.686940  -111.734000
  C    -93.897100   -1.998510  -113.914000
  H    -93.323900   -2.774730  -114.508000
  H    -93.710700   -1.020150  -114.293000
  C    -95.390200   -2.300510  -114.052000
  H    -95.771500   -1.959490  -115.065000
  H    -95.962600   -1.743210  -113.291000
  H    -95.748000   -3.325070  -113.833000
  H    -87.325300   -4.271100  -113.790000
  H    -94.777300   -5.992830  -110.415000

 Total Charge           Charge          ....    0
 Multiplicity           Mult            ....    1
 Number of Electrons    NEL             ....  134
 Basis Dimension        Dim             ....  322

ORBITAL ENERGIES
----------------

  NO   OCC          E(Eh)            E(eV)
   0   2.0000     -88.970549     -2421.0117
   1   2.0000     -88.967144     -2420.9191
   2   2.0000     -10.331058      -281.1224
   3   2.0000     -10.327235      -281.0183
   4   2.0000     -10.321371      -280.8588
   5   2.0000     -10.319420      -280.8057
   6   2.0000     -10.307141      -280.4716
   7   2.0000     -10.299017      -280.2505
   8   2.0000     -10.294404      -280.1250
   9   2.0000     -10.290396      -280.0159
  10   2.0000     -10.289569      -279.9934
  11   2.0000     -10.288961      -279.9769
  12   2.0000     -10.287864      -279.9470
  13   2.0000     -10.287303      -279.9317
  14   2.0000     -10.285861      -279.8925
  15   2.0000     -10.272868      -279.5389
  16   2.0000      -8.083465      -219.9623
  17   2.0000      -8.081589      -219.9112
  18   2.0000      -6.042063      -164.4129
  19   2.0000      -6.040121      -164.3601
  20   2.0000      -6.038245      -164.3090
  21   2.0000      -6.036068      -164.2498
  22   2.0000      -6.034204      -164.1990
  23   2.0000      -6.032390      -164.1497
  24   2.0000      -1.005548       -27.3623
  25   2.0000      -0.982018       -26.7221
  26   2.0000      -0.911775       -24.8107
  27   2.0000      -0.907293       -24.6887
  28   2.0000      -0.867402       -23.6032
  29   2.0000      -0.852293       -23.1921
  30   2.0000      -0.848934       -23.1007
  31   2.0000      -0.815258       -22.1843
  32   2.0000      -0.786620       -21.4050
  33   2.0000      -0.774701       -21.0807
  34   2.0000      -0.714409       -19.4401
  35   2.0000      -0.703765       -19.1504
  36   2.0000      -0.689547       -18.7635
  37   2.0000      -0.667118       -18.1532
  38   2.0000      -0.648309       -17.6414
  39   2.0000      -0.611749       -16.6465
  40   2.0000      -0.594989       -16.1905
  41   2.0000      -0.575763       -15.6673
  42   2.0000      -0.559976       -15.2377
  43   2.0000      -0.552311       -15.0292
  44   2.0000      -0.539026       -14.6677
  45   2.0000      -0.526507       -14.3270
  46   2.0000      -0.518526       -14.1098
  47   2.0000      -0.516113       -14.0441
  48   2.0000      -0.507743       -13.8164
  49   2.0000      -0.495684       -13.4883
  50   2.0000      -0.490941       -13.3592
  51   2.0000      -0.485522       -13.2117
  52   2.0000      -0.475907       -12.9501
  53   2.0000      -0.467352       -12.7173
  54   2.0000      -0.462703       -12.5908
  55   2.0000      -0.445072       -12.1110
  56   2.0000      -0.438289       -11.9265
  57   2.0000      -0.431352       -11.7377
  58   2.0000      -0.428703       -11.6656
  59   2.0000      -0.427352       -11.6288
  60   2.0000      -0.425954       -11.5908
  61   2.0000      -0.415882       -11.3167
  62   2.0000      -0.409204       -11.1350
  63   2.0000      -0.342745        -9.3266
  64   2.0000      -0.331556        -9.0221
  65   2.0000      -0.330494        -8.9932
  66   2.0000      -0.299161        -8.1406
  67   0.0000       0.027401         0.7456
  68   0.0000       0.056661         1.5418
  69   0.0000       0.110199         2.9987
  70   0.0000       0.116595         3.1727
  71   0.0000       0.131770         3.5856

MULLIKEN ATOMIC CHARGES
-----------------------
   0 S :    0.117453
   1 C :   -0.092791
   2 C :   -0.087650
   3 C :    0.034635
   4 C :   -0.148701
   5 H :    0.011444
   6 C :    0.084787
   7 H :    0.032141
   8 H :    0.014339
   9 C :   -0.113713
  10 H :    0.009171
  11 H :    0.039078
  12 C :    0.008438
  13 H :    0.026861
  14 H :    0.004271
  15 H :    0.029858
  16 S :    0.114435
  17 C :   -0.074698
  18 C :   -0.044816
  19 C :   -0.023752
  20 C :   -0.205100
  21 H :    0.012865
  22 C :    0.078104
  23 H :    0.031615
  24 H :    0.006870
  25 C :   -0.051324
  26 H :    0.031714
  27 H :    0.032767
  28 C :   -0.083330
  29 H :    0.046731
  30 H :    0.018993
  31 H :    0.042580
  32 H :    0.037773
  33 H :    0.058954
Sum of atomic charges:   -0.0000000

LOEWDIN ATOMIC CHARGES
----------------------
   0 S :    0.384955
   1 C :   -0.184352
   2 C :   -0.055574
   3 C :   -0.063792
   4 C :   -0.179670
   5 H :    0.033702
   6 C :   -0.031133
   7 H :    0.033588
   8 H :    0.022390
   9 C :   -0.047761
  10 H :    0.016033
  11 H :    0.031906
  12 C :   -0.057900
  13 H :    0.025328
  14 H :    0.016317
  15 H :    0.031431
  16 S :    0.409751
  17 C :   -0.182516
  18 C :   -0.070776
  19 C :   -0.056848
  20 C :   -0.203323
  21 H :    0.029071
  22 C :   -0.026939
  23 H :    0.036598
  24 H :    0.018890
  25 C :   -0.034497
  26 H :    0.028382
  27 H :    0.022507
  28 C :   -0.079744
  29 H :    0.034445
  30 H :    0.021335
  31 H :    0.027614
  32 H :    0.017329
  33 H :    0.033251

  Mayer bond orders larger than 0.100000
B(  0-S ,  1-C ) :   1.1409 B(  0-S ,  4-C ) :   1.1391 B(  1-C ,  2-C ) :   1.5895
B(  1-C ,  4-C ) :   0.1135 B(  1-C , 32-H ) :   0.9703 B(  2-C ,  3-C ) :   1.2406
B(  2-C ,  6-C ) :   1.0149 B(  3-C ,  4-C ) :   1.6000 B(  3-C ,  5-H ) :   0.9882
B(  4-C , 20-C ) :   1.0187 B(  6-C ,  7-H ) :   0.9306 B(  6-C ,  8-H ) :   0.9494
B(  6-C ,  9-C ) :   1.0643 B(  9-C , 10-H ) :   0.9571 B(  9-C , 11-H ) :   0.9561
B(  9-C , 12-C ) :   1.0766 B( 12-C , 13-H ) :   0.9772 B( 12-C , 14-H ) :   0.9693
B( 12-C , 15-H ) :   0.9704 B( 16-S , 17-C ) :   1.1595 B( 16-S , 20-C ) :   1.1458
B( 17-C , 18-C ) :   1.5901 B( 17-C , 20-C ) :   0.1021 B( 17-C , 33-H ) :   0.9630
B( 18-C , 19-C ) :   1.2716 B( 18-C , 21-H ) :   0.9836 B( 19-C , 20-C ) :   1.5933
B( 19-C , 22-C ) :   1.0525 B( 22-C , 23-H ) :   0.9280 B( 22-C , 24-H ) :   0.9350
B( 22-C , 25-C ) :   1.0638 B( 25-C , 26-H ) :   0.9500 B( 25-C , 27-H ) :   0.9566
B( 25-C , 28-C ) :   1.0789 B( 28-C , 29-H ) :   0.9732 B( 28-C , 30-H ) :   0.9729
B( 28-C , 31-H ) :   0.9722

Dispersion correction           -0.014335235
FINAL SINGLE POINT ENERGY     -1339.856998165462

DIPOLE MOMENT
-------------
                                X             Y             Z
Electronic contribution:      1.91254     -15.40015      23.36128
Nuclear contribution   :     -2.20276      15.96645     -23.82649
                        -----------------------------------------
Total Dipole Moment    :     -0.29021       0.56630      -0.46521
                        -----------------------------------------
Magnitude (a.u.)       :      0.78825
Magnitude (Debye)      :      2.00357

Rotational constants in cm-1:     0.020520     0.007729     0.006147
Rotational constants in MHz :   615.169697   231.710736   184.295285

                             ****ORCA TERMINATED NORMALLY****
TOTAL RUN TIME: 0 days 0 hours 0 minutes 21 seconds 392 msec
