                         Program Version 4.2.1 -  RELEASE  -
|  1> ! wB97X-D3 SP def2-SVP
|  2> %pal
|  3> nprocs 24
|  4> end
|  5>
|  6> * xyz 0 1
|  7> S 	 -102.431 	 22.5295 	 -119.004
|  8> C 	 -102.054 	 21.7985 	 -117.417
|  9> C 	 -103.063 	 20.9354 	 -117.035
| 10> C 	 -104.105 	 20.7972 	 -118.046
| 11> C 	 -103.827 	 21.5415 	 -119.157
| 12> H 	 -104.946 	 20.1364 	 -117.982
| 13> C 	 -103.123 	 20.1538 	 -115.756
| 14> H 	 -103.287 	 19.0552 	 -115.986
| 15> H 	 -104.104 	 20.4863 	 -115.317
| 16> C 	 -101.955 	 20.2313 	 -114.831
| 17> H 	 -101.701 	 21.265 	 -114.572
| 18> H 	 -102.242 	 19.8007 	 -113.896
| 19> C 	 -100.73 	 19.3939 	 -115.228
| 20> H 	 -99.9124 	 19.4194 	 -114.449
| 21> H 	 -100.918 	 18.3317 	 -115.313
| 22> H 	 -100.336 	 19.8071 	 -116.178
| 23> S 	 -103.839 	 21.0772 	 -121.84
| 24> C 	 -105.269 	 21.2634 	 -122.729
| 25> C 	 -106.377 	 21.5948 	 -121.939
| 26> C 	 -106.098 	 21.6899 	 -120.587
| 27> C 	 -104.698 	 21.5632 	 -120.378
| 28> H 	 -107.393 	 21.7002 	 -122.327
| 29> C 	 -107.194 	 21.7105 	 -119.546
| 30> H 	 -107.878 	 22.4798 	 -119.87
| 31> H 	 -106.696 	 22.0019 	 -118.585
| 32> C 	 -108.133 	 20.412 	 -119.476
| 33> H 	 -107.456 	 19.5413 	 -119.482
| 34> H 	 -108.792 	 20.3847 	 -120.332
| 35> C 	 -109.196 	 20.3154 	 -118.39
| 36> H 	 -108.782 	 20.4784 	 -117.368
| 37> H 	 -109.781 	 19.3703 	 -118.465
| 38> H 	 -109.89 	 21.1247 	 -118.575
| 39> H 	 -101.191 	 22.0346 	 -116.815
| 40> H 	 -105.401 	 21.1429 	 -123.806
| 41> *
| 42>
| 43>                          ****END OF INPUT****

CARTESIAN COORDINATES (ANGSTROEM)
---------------------------------
  S    -102.431000   22.529500  -119.004000
  C    -102.054000   21.798500  -117.417000
  C    -103.063000   20.935400  -117.035000
  C    -104.105000   20.797200  -118.046000
  C    -103.827000   21.541500  -119.157000
  H    -104.946000   20.136400  -117.982000
  C    -103.123000   20.153800  -115.756000
  H    -103.287000   19.055200  -115.986000
  H    -104.104000   20.486300  -115.317000
  C    -101.955000   20.231300  -114.831000
  H    -101.701000   21.265000  -114.572000
  H    -102.242000   19.800700  -113.896000
  C    -100.730000   19.393900  -115.228000
  H    -99.912400   19.419400  -114.449000
  H    -100.918000   18.331700  -115.313000
  H    -100.336000   19.807100  -116.178000
  S    -103.839000   21.077200  -121.840000
  C    -105.269000   21.263400  -122.729000
  C    -106.377000   21.594800  -121.939000
  C    -106.098000   21.689900  -120.587000
  C    -104.698000   21.563200  -120.378000
  H    -107.393000   21.700200  -122.327000
  C    -107.194000   21.710500  -119.546000
  H    -107.878000   22.479800  -119.870000
  H    -106.696000   22.001900  -118.585000
  C    -108.133000   20.412000  -119.476000
  H    -107.456000   19.541300  -119.482000
  H    -108.792000   20.384700  -120.332000
  C    -109.196000   20.315400  -118.390000
  H    -108.782000   20.478400  -117.368000
  H    -109.781000   19.370300  -118.465000
  H    -109.890000   21.124700  -118.575000
  H    -101.191000   22.034600  -116.815000
  H    -105.401000   21.142900  -123.806000

 Total Charge           Charge          ....    0
 Multiplicity           Mult            ....    1
 Number of Electrons    NEL             ....  134
 Basis Dimension        Dim             ....  322

ORBITAL ENERGIES
----------------

  NO   OCC          E(Eh)            E(eV)
   0   2.0000     -88.970094     -2420.9993
   1   2.0000     -88.964444     -2420.8456
   2   2.0000     -10.328685      -281.0578
   3   2.0000     -10.327107      -281.0149
   4   2.0000     -10.313539      -280.6457
   5   2.0000     -10.312675      -280.6221
   6   2.0000     -10.302735      -280.3517
   7   2.0000     -10.302008      -280.3319
   8   2.0000     -10.299599      -280.2663
   9   2.0000     -10.297608      -280.2121
  10   2.0000     -10.293520      -280.1009
  11   2.0000     -10.290240      -280.0117
  12   2.0000     -10.288559      -279.9659
  13   2.0000     -10.285393      -279.8798
  14   2.0000     -10.284752      -279.8623
  15   2.0000     -10.283479      -279.8277
  16   2.0000      -8.085243      -220.0107
  17   2.0000      -8.079186      -219.8458
  18   2.0000      -6.043451      -164.4507
  19   2.0000      -6.039700      -164.3486
  20   2.0000      -6.037796      -164.2968
  21   2.0000      -6.036292      -164.2559
  22   2.0000      -6.033755      -164.1868
  23   2.0000      -6.029779      -164.0786
  24   2.0000      -1.006344       -27.3840
  25   2.0000      -0.984818       -26.7983
  26   2.0000      -0.917153       -24.9570
  27   2.0000      -0.906353       -24.6631
  28   2.0000      -0.861823       -23.4514
  29   2.0000      -0.859432       -23.3863
  30   2.0000      -0.846681       -23.0394
  31   2.0000      -0.807865       -21.9831
  32   2.0000      -0.784336       -21.3429
  33   2.0000      -0.772609       -21.0238
  34   2.0000      -0.707585       -19.2544
  35   2.0000      -0.698713       -19.0129
  36   2.0000      -0.687547       -18.7091
  37   2.0000      -0.660285       -17.9673
  38   2.0000      -0.637370       -17.3437
  39   2.0000      -0.609608       -16.5883
  40   2.0000      -0.591375       -16.0921
  41   2.0000      -0.576568       -15.6892
  42   2.0000      -0.568821       -15.4784
  43   2.0000      -0.554568       -15.0906
  44   2.0000      -0.534884       -14.5549
  45   2.0000      -0.524251       -14.2656
  46   2.0000      -0.518012       -14.0958
  47   2.0000      -0.513410       -13.9706
  48   2.0000      -0.505539       -13.7564
  49   2.0000      -0.492048       -13.3893
  50   2.0000      -0.486390       -13.2353
  51   2.0000      -0.483630       -13.1602
  52   2.0000      -0.466588       -12.6965
  53   2.0000      -0.463925       -12.6240
  54   2.0000      -0.461589       -12.5605
  55   2.0000      -0.453378       -12.3370
  56   2.0000      -0.443151       -12.0587
  57   2.0000      -0.441160       -12.0046
  58   2.0000      -0.436323       -11.8729
  59   2.0000      -0.426053       -11.5935
  60   2.0000      -0.422462       -11.4958
  61   2.0000      -0.421454       -11.4684
  62   2.0000      -0.409821       -11.1518
  63   2.0000      -0.340359        -9.2616
  64   2.0000      -0.332598        -9.0504
  65   2.0000      -0.324514        -8.8305
  66   2.0000      -0.292586        -7.9617
  67   0.0000       0.035109         0.9554
  68   0.0000       0.072640         1.9766
  69   0.0000       0.114139         3.1059
  70   0.0000       0.115908         3.1540
  71   0.0000       0.124525         3.3885

MULLIKEN ATOMIC CHARGES
-----------------------
   0 S :    0.112199
   1 C :   -0.135604
   2 C :   -0.085423
   3 C :    0.023684
   4 C :   -0.124730
   5 H :    0.004873
   6 C :    0.032242
   7 H :    0.038332
   8 H :    0.043975
   9 C :   -0.043218
  10 H :    0.027288
  11 H :    0.014543
  12 C :   -0.070964
  13 H :    0.039775
  14 H :    0.031686
  15 H :    0.036367
  16 S :    0.136127
  17 C :   -0.086099
  18 C :   -0.060221
  19 C :   -0.010076
  20 C :   -0.203398
  21 H :    0.015652
  22 C :    0.067192
  23 H :    0.019071
  24 H :    0.041356
  25 C :   -0.087384
  26 H :    0.038963
  27 H :    0.023783
  28 C :   -0.053913
  29 H :    0.035590
  30 H :    0.050393
  31 H :    0.023709
  32 H :    0.046656
  33 H :    0.057572
Sum of atomic charges:   -0.0000000

LOEWDIN ATOMIC CHARGES
----------------------
   0 S :    0.398874
   1 C :   -0.198823
   2 C :   -0.056220
   3 C :   -0.066689
   4 C :   -0.203048
   5 H :    0.028313
   6 C :   -0.042091
   7 H :    0.039772
   8 H :    0.042059
   9 C :   -0.049608
  10 H :    0.024593
  11 H :    0.025410
  12 C :   -0.066826
  13 H :    0.032314
  14 H :    0.023740
  15 H :    0.024549
  16 S :    0.442144
  17 C :   -0.209168
  18 C :   -0.075123
  19 C :   -0.057734
  20 C :   -0.198171
  21 H :    0.031637
  22 C :   -0.032262
  23 H :    0.029424
  24 H :    0.035608
  25 C :   -0.040741
  26 H :    0.021870
  27 H :    0.024006
  28 C :   -0.067651
  29 H :    0.024675
  30 H :    0.035793
  31 H :    0.022689
  32 H :    0.025480
  33 H :    0.031205

  Mayer bond orders larger than 0.100000
B(  0-S ,  1-C ) :   1.0983 B(  0-S ,  4-C ) :   1.1654 B(  1-C ,  2-C ) :   1.6519
B(  1-C , 32-H ) :   0.9613 B(  2-C ,  3-C ) :   1.2043 B(  2-C ,  6-C ) :   1.0126
B(  3-C ,  4-C ) :   1.5909 B(  3-C ,  5-H ) :   1.0053 B(  4-C , 20-C ) :   0.9896
B(  6-C ,  7-H ) :   0.9381 B(  6-C ,  8-H ) :   0.9301 B(  6-C ,  9-C ) :   1.0934
B(  9-C , 10-H ) :   0.9474 B(  9-C , 11-H ) :   0.9431 B(  9-C , 12-C ) :   1.0758
B( 12-C , 13-H ) :   0.9744 B( 12-C , 14-H ) :   0.9721 B( 12-C , 15-H ) :   0.9781
B( 16-S , 17-C ) :   1.1814 B( 16-S , 20-C ) :   1.1797 B( 17-C , 18-C ) :   1.5630
B( 17-C , 20-C ) :   0.1129 B( 17-C , 33-H ) :   0.9647 B( 18-C , 19-C ) :   1.2901
B( 18-C , 21-H ) :   0.9873 B( 19-C , 20-C ) :   1.5444 B( 19-C , 22-C ) :   1.0596
B( 22-C , 23-H ) :   0.9228 B( 22-C , 24-H ) :   0.9365 B( 22-C , 25-C ) :   1.0482
B( 25-C , 26-H ) :   0.9624 B( 25-C , 27-H ) :   0.9542 B( 25-C , 28-C ) :   1.0799
B( 28-C , 29-H ) :   0.9761 B( 28-C , 30-H ) :   0.9728 B( 28-C , 31-H ) :   0.9750

Dispersion correction           -0.013951982
FINAL SINGLE POINT ENERGY     -1339.880987328308

DIPOLE MOMENT
-------------
                                X             Y             Z
Electronic contribution:     11.59286      10.85005     -21.13417
Nuclear contribution   :    -12.13192     -11.24099      21.52568
                        -----------------------------------------
Total Dipole Moment    :     -0.53906      -0.39094       0.39151
                        -----------------------------------------
Magnitude (a.u.)       :      0.77246
Magnitude (Debye)      :      1.96345

Rotational constants in cm-1:     0.018847     0.008120     0.006185
Rotational constants in MHz :   565.020337   243.424357   185.409498

                             ****ORCA TERMINATED NORMALLY****
TOTAL RUN TIME: 0 days 0 hours 0 minutes 21 seconds 261 msec
