                         Program Version 4.2.1 -  RELEASE  -
|  1> ! wB97X-D3 SP def2-SVP
|  2> %pal
|  3> nprocs 24
|  4> end
|  5>
|  6> * xyz 0 1
|  7> S 	 -108.158 	 49.212 	 -95.0028
|  8> C 	 -106.406 	 49.2569 	 -94.6862
|  9> C 	 -105.708 	 50.1519 	 -95.5054
| 10> C 	 -106.557 	 50.6637 	 -96.5561
| 11> C 	 -107.886 	 50.2272 	 -96.4504
| 12> H 	 -106.244 	 51.4151 	 -97.2458
| 13> C 	 -104.239 	 50.4266 	 -95.5026
| 14> H 	 -103.764 	 50.0922 	 -96.4113
| 15> H 	 -103.833 	 49.8816 	 -94.5932
| 16> C 	 -103.942 	 51.9987 	 -95.3288
| 17> H 	 -102.836 	 52.2477 	 -95.375
| 18> H 	 -104.35 	 52.6108 	 -96.1263
| 19> C 	 -104.506 	 52.5565 	 -94.0111
| 20> H 	 -104.285 	 51.9279 	 -93.1528
| 21> H 	 -104.101 	 53.4895 	 -93.6969
| 22> H 	 -105.531 	 52.7133 	 -94.0173
| 23> S 	 -110.457 	 51.2671 	 -96.3797
| 24> C 	 -110.93 	 52.026 	 -97.9236
| 25> C 	 -110.137 	 51.6796 	 -98.9726
| 26> C 	 -109.016 	 50.9176 	 -98.5914
| 27> C 	 -108.995 	 50.7355 	 -97.2265
| 28> H 	 -110.444 	 51.9014 	 -99.9802
| 29> C 	 -108.075 	 50.302 	 -99.5876
| 30> H 	 -108.567 	 49.4413 	 -99.9402
| 31> H 	 -107.21 	 49.8643 	 -99.1216
| 32> C 	 -107.642 	 51.3057 	 -100.69
| 33> H 	 -106.667 	 51.6431 	 -100.434
| 34> H 	 -108.178 	 52.2181 	 -100.939
| 35> C 	 -107.638 	 50.4739 	 -101.975
| 36> H 	 -108.528 	 49.8786 	 -102.107
| 37> H 	 -106.791 	 49.8278 	 -102.102
| 38> H 	 -107.561 	 51.0707 	 -102.903
| 39> H 	 -105.853 	 48.9582 	 -93.758
| 40> H 	 -111.844 	 52.544 	 -98.0524
| 41> *
| 42>
| 43>                          ****END OF INPUT****

CARTESIAN COORDINATES (ANGSTROEM)
---------------------------------
  S    -108.158000   49.212000  -95.002800
  C    -106.406000   49.256900  -94.686200
  C    -105.708000   50.151900  -95.505400
  C    -106.557000   50.663700  -96.556100
  C    -107.886000   50.227200  -96.450400
  H    -106.244000   51.415100  -97.245800
  C    -104.239000   50.426600  -95.502600
  H    -103.764000   50.092200  -96.411300
  H    -103.833000   49.881600  -94.593200
  C    -103.942000   51.998700  -95.328800
  H    -102.836000   52.247700  -95.375000
  H    -104.350000   52.610800  -96.126300
  C    -104.506000   52.556500  -94.011100
  H    -104.285000   51.927900  -93.152800
  H    -104.101000   53.489500  -93.696900
  H    -105.531000   52.713300  -94.017300
  S    -110.457000   51.267100  -96.379700
  C    -110.930000   52.026000  -97.923600
  C    -110.137000   51.679600  -98.972600
  C    -109.016000   50.917600  -98.591400
  C    -108.995000   50.735500  -97.226500
  H    -110.444000   51.901400  -99.980200
  C    -108.075000   50.302000  -99.587600
  H    -108.567000   49.441300  -99.940200
  H    -107.210000   49.864300  -99.121600
  C    -107.642000   51.305700  -100.690000
  H    -106.667000   51.643100  -100.434000
  H    -108.178000   52.218100  -100.939000
  C    -107.638000   50.473900  -101.975000
  H    -108.528000   49.878600  -102.107000
  H    -106.791000   49.827800  -102.102000
  H    -107.561000   51.070700  -102.903000
  H    -105.853000   48.958200  -93.758000
  H    -111.844000   52.544000  -98.052400

 Total Charge           Charge          ....    0
 Multiplicity           Mult            ....    1
 Number of Electrons    NEL             ....  134
 Basis Dimension        Dim             ....  322

ORBITAL ENERGIES
----------------

  NO   OCC          E(Eh)            E(eV)
   0   2.0000     -88.969756     -2420.9901
   1   2.0000     -88.966865     -2420.9115
   2   2.0000     -10.331961      -281.1470
   3   2.0000     -10.321863      -280.8722
   4   2.0000     -10.317688      -280.7586
   5   2.0000     -10.314408      -280.6693
   6   2.0000     -10.302541      -280.3464
   7   2.0000     -10.301691      -280.3233
   8   2.0000     -10.297404      -280.2066
   9   2.0000     -10.296906      -280.1931
  10   2.0000     -10.293494      -280.1002
  11   2.0000     -10.289675      -279.9963
  12   2.0000     -10.287034      -279.9244
  13   2.0000     -10.286785      -279.9177
  14   2.0000     -10.274348      -279.5792
  15   2.0000     -10.265179      -279.3297
  16   2.0000      -8.083129      -219.9531
  17   2.0000      -8.080976      -219.8945
  18   2.0000      -6.041781      -164.4052
  19   2.0000      -6.039433      -164.3413
  20   2.0000      -6.038049      -164.3037
  21   2.0000      -6.036010      -164.2482
  22   2.0000      -6.033612      -164.1829
  23   2.0000      -6.031399      -164.1227
  24   2.0000      -1.003062       -27.2947
  25   2.0000      -0.976217       -26.5642
  26   2.0000      -0.913608       -24.8605
  27   2.0000      -0.905065       -24.6281
  28   2.0000      -0.865785       -23.5592
  29   2.0000      -0.854184       -23.2435
  30   2.0000      -0.843068       -22.9410
  31   2.0000      -0.811956       -22.0944
  32   2.0000      -0.782727       -21.2991
  33   2.0000      -0.769749       -20.9459
  34   2.0000      -0.715119       -19.4594
  35   2.0000      -0.707743       -19.2587
  36   2.0000      -0.696422       -18.9506
  37   2.0000      -0.660841       -17.9824
  38   2.0000      -0.629446       -17.1281
  39   2.0000      -0.618862       -16.8401
  40   2.0000      -0.603681       -16.4270
  41   2.0000      -0.563765       -15.3408
  42   2.0000      -0.561333       -15.2747
  43   2.0000      -0.548271       -14.9192
  44   2.0000      -0.536207       -14.5909
  45   2.0000      -0.532332       -14.4855
  46   2.0000      -0.515867       -14.0374
  47   2.0000      -0.513018       -13.9599
  48   2.0000      -0.498470       -13.5641
  49   2.0000      -0.488786       -13.3006
  50   2.0000      -0.483585       -13.1590
  51   2.0000      -0.476174       -12.9573
  52   2.0000      -0.469316       -12.7707
  53   2.0000      -0.461939       -12.5700
  54   2.0000      -0.453953       -12.3527
  55   2.0000      -0.452466       -12.3122
  56   2.0000      -0.451064       -12.2741
  57   2.0000      -0.444893       -12.1061
  58   2.0000      -0.440178       -11.9779
  59   2.0000      -0.426512       -11.6060
  60   2.0000      -0.422352       -11.4928
  61   2.0000      -0.419464       -11.4142
  62   2.0000      -0.411576       -11.1995
  63   2.0000      -0.349078        -9.4989
  64   2.0000      -0.334613        -9.1053
  65   2.0000      -0.327418        -8.9095
  66   2.0000      -0.282224        -7.6797
  67   0.0000       0.023367         0.6358
  68   0.0000       0.066474         1.8089
  69   0.0000       0.097454         2.6519
  70   0.0000       0.117213         3.1895
  71   0.0000       0.128979         3.5097

MULLIKEN ATOMIC CHARGES
-----------------------
   0 S :    0.096317
   1 C :   -0.108384
   2 C :   -0.117320
   3 C :    0.028724
   4 C :   -0.150799
   5 H :    0.010324
   6 C :    0.060034
   7 H :    0.045979
   8 H :    0.031710
   9 C :   -0.109557
  10 H :    0.039549
  11 H :    0.032104
  12 C :   -0.020604
  13 H :    0.015136
  14 H :    0.016264
  15 H :    0.028931
  16 S :    0.101487
  17 C :   -0.074126
  18 C :   -0.023830
  19 C :   -0.042040
  20 C :   -0.144386
  21 H :    0.013438
  22 C :    0.108543
  23 H :    0.031580
  24 H :    0.019556
  25 C :   -0.046156
  26 H :    0.019584
  27 H :    0.041375
  28 C :   -0.076641
  29 H :    0.031341
  30 H :    0.025313
  31 H :    0.018655
  32 H :    0.058901
  33 H :    0.039000
Sum of atomic charges:    0.0000000

LOEWDIN ATOMIC CHARGES
----------------------
   0 S :    0.373416
   1 C :   -0.207688
   2 C :   -0.062784
   3 C :   -0.058799
   4 C :   -0.171056
   5 H :    0.026225
   6 C :   -0.026886
   7 H :    0.032273
   8 H :    0.036182
   9 C :   -0.042126
  10 H :    0.029850
  11 H :    0.020550
  12 C :   -0.064348
  13 H :    0.023398
  14 H :    0.023261
  15 H :    0.019073
  16 S :    0.373460
  17 C :   -0.160839
  18 C :   -0.063594
  19 C :   -0.054071
  20 C :   -0.193034
  21 H :    0.031436
  22 C :   -0.017076
  23 H :    0.030984
  24 H :    0.032532
  25 C :   -0.034006
  26 H :    0.021728
  27 H :    0.027500
  28 C :   -0.068506
  29 H :    0.021585
  30 H :    0.021533
  31 H :    0.022973
  32 H :    0.037367
  33 H :    0.019485

  Mayer bond orders larger than 0.100000
B(  0-S ,  1-C ) :   1.1128 B(  0-S ,  4-C ) :   1.1282 B(  1-C ,  2-C ) :   1.6497
B(  1-C , 32-H ) :   0.9466 B(  2-C ,  3-C ) :   1.2169 B(  2-C ,  6-C ) :   1.0302
B(  3-C ,  4-C ) :   1.5812 B(  3-C ,  5-H ) :   0.9913 B(  4-C , 20-C ) :   1.0665
B(  6-C ,  7-H ) :   0.9474 B(  6-C ,  8-H ) :   0.9447 B(  6-C ,  9-C ) :   1.0483
B(  9-C , 10-H ) :   0.9629 B(  9-C , 11-H ) :   0.9600 B(  9-C , 12-C ) :   1.0682
B( 12-C , 13-H ) :   0.9759 B( 12-C , 14-H ) :   0.9722 B( 12-C , 15-H ) :   0.9739
B( 16-S , 17-C ) :   1.1294 B( 16-S , 20-C ) :   1.1151 B( 17-C , 18-C ) :   1.6427
B( 17-C , 33-H ) :   0.9689 B( 18-C , 19-C ) :   1.2177 B( 18-C , 21-H ) :   0.9901
B( 19-C , 20-C ) :   1.6122 B( 19-C , 22-C ) :   1.0364 B( 22-C , 23-H ) :   0.9476
B( 22-C , 24-H ) :   0.9207 B( 22-C , 25-C ) :   1.0229 B( 25-C , 26-H ) :   0.9562
B( 25-C , 27-H ) :   0.9737 B( 25-C , 28-C ) :   1.0683 B( 28-C , 29-H ) :   0.9819
B( 28-C , 30-H ) :   0.9753 B( 28-C , 31-H ) :   0.9735

Dispersion correction           -0.014414885
FINAL SINGLE POINT ENERGY     -1339.860079980222

DIPOLE MOMENT
-------------
                                X             Y             Z
Electronic contribution:    -20.83359      -7.28245      13.29859
Nuclear contribution   :     21.23846       7.59558     -13.82130
                        -----------------------------------------
Total Dipole Moment    :      0.40487       0.31313      -0.52271
                        -----------------------------------------
Magnitude (a.u.)       :      0.73157
Magnitude (Debye)      :      1.85951

Rotational constants in cm-1:     0.017121     0.008985     0.007100
Rotational constants in MHz :   513.285090   269.372455   212.861823

                             ****ORCA TERMINATED NORMALLY****
TOTAL RUN TIME: 0 days 0 hours 0 minutes 21 seconds 864 msec
