                         Program Version 4.2.1 -  RELEASE  -
|  1> ! wB97X-D3 SP def2-SVP
|  2> %pal
|  3> nprocs 24
|  4> end
|  5>
|  6> * xyz 0 1
|  7> S 	 -112.758 	 21.9922 	 -110.187
|  8> C 	 -113.415 	 23.3701 	 -111.07
|  9> C 	 -114.387 	 22.9192 	 -111.911
| 10> C 	 -114.398 	 21.5057 	 -112.006
| 11> C 	 -113.563 	 20.8585 	 -111.139
| 12> H 	 -114.936 	 20.9326 	 -112.723
| 13> C 	 -115.303 	 23.8211 	 -112.828
| 14> H 	 -115.51 	 24.7781 	 -112.333
| 15> H 	 -116.193 	 23.122 	 -112.88
| 16> C 	 -114.619 	 24.04 	 -114.266
| 17> H 	 -113.691 	 24.5085 	 -114.14
| 18> H 	 -114.418 	 23.0499 	 -114.742
| 19> C 	 -115.339 	 24.9314 	 -115.241
| 20> H 	 -115.462 	 25.9832 	 -114.843
| 21> H 	 -114.828 	 24.9781 	 -116.176
| 22> H 	 -116.353 	 24.66 	 -115.448
| 23> S 	 -114.144 	 18.9219 	 -109.23
| 24> C 	 -114.25 	 17.2136 	 -109.669
| 25> C 	 -113.686 	 17.0799 	 -110.92
| 26> C 	 -113.237 	 18.2891 	 -111.626
| 27> C 	 -113.505 	 19.411 	 -110.821
| 28> H 	 -113.566 	 16.0229 	 -111.281
| 29> C 	 -112.822 	 18.4081 	 -113.039
| 30> H 	 -112.545 	 19.4375 	 -113.209
| 31> H 	 -113.662 	 18.2957 	 -113.735
| 32> C 	 -111.9 	 17.3019 	 -113.548
| 33> H 	 -111.505 	 17.5134 	 -114.577
| 34> H 	 -112.356 	 16.3598 	 -113.607
| 35> C 	 -110.678 	 17.0919 	 -112.591
| 36> H 	 -109.942 	 17.939 	 -112.638
| 37> H 	 -110.152 	 16.1341 	 -112.634
| 38> H 	 -111.117 	 16.9531 	 -111.583
| 39> H 	 -113.13 	 24.3779 	 -110.982
| 40> H 	 -114.59 	 16.3407 	 -109.085
| 41> *
| 42>
| 43>                          ****END OF INPUT****

CARTESIAN COORDINATES (ANGSTROEM)
---------------------------------
  S    -112.758000   21.992200  -110.187000
  C    -113.415000   23.370100  -111.070000
  C    -114.387000   22.919200  -111.911000
  C    -114.398000   21.505700  -112.006000
  C    -113.563000   20.858500  -111.139000
  H    -114.936000   20.932600  -112.723000
  C    -115.303000   23.821100  -112.828000
  H    -115.510000   24.778100  -112.333000
  H    -116.193000   23.122000  -112.880000
  C    -114.619000   24.040000  -114.266000
  H    -113.691000   24.508500  -114.140000
  H    -114.418000   23.049900  -114.742000
  C    -115.339000   24.931400  -115.241000
  H    -115.462000   25.983200  -114.843000
  H    -114.828000   24.978100  -116.176000
  H    -116.353000   24.660000  -115.448000
  S    -114.144000   18.921900  -109.230000
  C    -114.250000   17.213600  -109.669000
  C    -113.686000   17.079900  -110.920000
  C    -113.237000   18.289100  -111.626000
  C    -113.505000   19.411000  -110.821000
  H    -113.566000   16.022900  -111.281000
  C    -112.822000   18.408100  -113.039000
  H    -112.545000   19.437500  -113.209000
  H    -113.662000   18.295700  -113.735000
  C    -111.900000   17.301900  -113.548000
  H    -111.505000   17.513400  -114.577000
  H    -112.356000   16.359800  -113.607000
  C    -110.678000   17.091900  -112.591000
  H    -109.942000   17.939000  -112.638000
  H    -110.152000   16.134100  -112.634000
  H    -111.117000   16.953100  -111.583000
  H    -113.130000   24.377900  -110.982000
  H    -114.590000   16.340700  -109.085000

 Total Charge           Charge          ....    0
 Multiplicity           Mult            ....    1
 Number of Electrons    NEL             ....  134
 Basis Dimension        Dim             ....  322

ORBITAL ENERGIES
----------------

  NO   OCC          E(Eh)            E(eV)
   0   2.0000     -88.963805     -2420.8282
   1   2.0000     -88.963615     -2420.8230
   2   2.0000     -10.334089      -281.2049
   3   2.0000     -10.326530      -280.9992
   4   2.0000     -10.323627      -280.9202
   5   2.0000     -10.311278      -280.5841
   6   2.0000     -10.310565      -280.5647
   7   2.0000     -10.308623      -280.5119
   8   2.0000     -10.302444      -280.3437
   9   2.0000     -10.301800      -280.3262
  10   2.0000     -10.291186      -280.0374
  11   2.0000     -10.290563      -280.0204
  12   2.0000     -10.289671      -279.9962
  13   2.0000     -10.288369      -279.9608
  14   2.0000     -10.276663      -279.6422
  15   2.0000     -10.275373      -279.6071
  16   2.0000      -8.079513      -219.8547
  17   2.0000      -8.077751      -219.8068
  18   2.0000      -6.038018      -164.3028
  19   2.0000      -6.036475      -164.2608
  20   2.0000      -6.033679      -164.1848
  21   2.0000      -6.032330      -164.1480
  22   2.0000      -6.030369      -164.0947
  23   2.0000      -6.028323      -164.0390
  24   2.0000      -1.012404       -27.5489
  25   2.0000      -0.982636       -26.7389
  26   2.0000      -0.911852       -24.8128
  27   2.0000      -0.904578       -24.6148
  28   2.0000      -0.871457       -23.7135
  29   2.0000      -0.850090       -23.1321
  30   2.0000      -0.836484       -22.7619
  31   2.0000      -0.817138       -22.2355
  32   2.0000      -0.782701       -21.2984
  33   2.0000      -0.774271       -21.0690
  34   2.0000      -0.706746       -19.2315
  35   2.0000      -0.701398       -19.0860
  36   2.0000      -0.697536       -18.9809
  37   2.0000      -0.649854       -17.6834
  38   2.0000      -0.645412       -17.5626
  39   2.0000      -0.620699       -16.8901
  40   2.0000      -0.597983       -16.2719
  41   2.0000      -0.564939       -15.3728
  42   2.0000      -0.560129       -15.2419
  43   2.0000      -0.553329       -15.0568
  44   2.0000      -0.534973       -14.5574
  45   2.0000      -0.530343       -14.4314
  46   2.0000      -0.525166       -14.2905
  47   2.0000      -0.515846       -14.0369
  48   2.0000      -0.507485       -13.8094
  49   2.0000      -0.500763       -13.6264
  50   2.0000      -0.492597       -13.4042
  51   2.0000      -0.480020       -13.0620
  52   2.0000      -0.467667       -12.7259
  53   2.0000      -0.465041       -12.6544
  54   2.0000      -0.461975       -12.5710
  55   2.0000      -0.444666       -12.1000
  56   2.0000      -0.436951       -11.8900
  57   2.0000      -0.434251       -11.8166
  58   2.0000      -0.426483       -11.6052
  59   2.0000      -0.425678       -11.5833
  60   2.0000      -0.419919       -11.4266
  61   2.0000      -0.414898       -11.2899
  62   2.0000      -0.411387       -11.1944
  63   2.0000      -0.344191        -9.3659
  64   2.0000      -0.331609        -9.0235
  65   2.0000      -0.322533        -8.7766
  66   2.0000      -0.301651        -8.2083
  67   0.0000       0.037563         1.0221
  68   0.0000       0.061273         1.6673
  69   0.0000       0.111189         3.0256
  70   0.0000       0.121734         3.3126
  71   0.0000       0.131665         3.5828

MULLIKEN ATOMIC CHARGES
-----------------------
   0 S :    0.108603
   1 C :   -0.105879
   2 C :   -0.086489
   3 C :    0.040346
   4 C :   -0.168141
   5 H :   -0.004115
   6 C :    0.047525
   7 H :    0.035201
   8 H :    0.045756
   9 C :   -0.062348
  10 H :    0.018242
  11 H :    0.031788
  12 C :   -0.031660
  13 H :    0.027210
  14 H :    0.033546
  15 H :    0.018248
  16 S :    0.099598
  17 C :   -0.101425
  18 C :   -0.064785
  19 C :   -0.047677
  20 C :   -0.143992
  21 H :    0.036175
  22 C :    0.102271
  23 H :    0.027582
  24 H :    0.039118
  25 C :   -0.074370
  26 H :    0.037148
  27 H :    0.020214
  28 C :   -0.088982
  29 H :    0.048384
  30 H :    0.026080
  31 H :    0.035293
  32 H :    0.028744
  33 H :    0.072792
Sum of atomic charges:   -0.0000000

LOEWDIN ATOMIC CHARGES
----------------------
   0 S :    0.429660
   1 C :   -0.185633
   2 C :   -0.063749
   3 C :   -0.065787
   4 C :   -0.218713
   5 H :    0.025001
   6 C :   -0.024291
   7 H :    0.029720
   8 H :    0.039523
   9 C :   -0.038931
  10 H :    0.018363
  11 H :    0.028816
  12 C :   -0.068354
  13 H :    0.029513
  14 H :    0.025534
  15 H :    0.018262
  16 S :    0.383569
  17 C :   -0.189840
  18 C :   -0.081950
  19 C :   -0.054774
  20 C :   -0.184093
  21 H :    0.034859
  22 C :   -0.037003
  23 H :    0.033395
  24 H :    0.040380
  25 C :   -0.037845
  26 H :    0.031131
  27 H :    0.016435
  28 C :   -0.080447
  29 H :    0.029956
  30 H :    0.023324
  31 H :    0.028637
  32 H :    0.021096
  33 H :    0.044233

  Mayer bond orders larger than 0.100000
B(  0-S ,  1-C ) :   1.1407 B(  0-S ,  4-C ) :   1.1743 B(  1-C ,  2-C ) :   1.6051
B(  1-C , 32-H ) :   0.9816 B(  2-C ,  3-C ) :   1.2534 B(  2-C ,  6-C ) :   1.0046
B(  3-C ,  4-C ) :   1.5652 B(  3-C ,  5-H ) :   1.0013 B(  4-C , 20-C ) :   0.9955
B(  6-C ,  7-H ) :   0.9471 B(  6-C ,  8-H ) :   0.9439 B(  6-C ,  9-C ) :   1.0535
B(  9-C , 10-H ) :   0.9567 B(  9-C , 11-H ) :   0.9567 B(  9-C , 12-C ) :   1.0926
B( 12-C , 13-H ) :   0.9715 B( 12-C , 14-H ) :   0.9718 B( 12-C , 15-H ) :   0.9739
B( 16-S , 17-C ) :   1.1301 B( 16-S , 20-C ) :   1.1399 B( 17-C , 18-C ) :   1.6577
B( 17-C , 33-H ) :   0.9629 B( 18-C , 19-C ) :   1.1876 B( 18-C , 21-H ) :   0.9735
B( 19-C , 20-C ) :   1.6045 B( 19-C , 22-C ) :   1.0692 B( 22-C , 23-H ) :   0.9263
B( 22-C , 24-H ) :   0.9266 B( 22-C , 25-C ) :   1.0556 B( 25-C , 26-H ) :   0.9573
B( 25-C , 27-H ) :   0.9529 B( 25-C , 28-C ) :   1.0795 B( 28-C , 29-H ) :   0.9783
B( 28-C , 30-H ) :   0.9751 B( 28-C , 31-H ) :   0.9655

Dispersion correction           -0.014049719
FINAL SINGLE POINT ENERGY     -1339.863619217810

DIPOLE MOMENT
-------------
                                X             Y             Z
Electronic contribution:     -0.86786      -2.91152      25.08663
Nuclear contribution   :      0.65061       2.87711     -25.79275
                        -----------------------------------------
Total Dipole Moment    :     -0.21726      -0.03440      -0.70612
                        -----------------------------------------
Magnitude (a.u.)       :      0.73959
Magnitude (Debye)      :      1.87988

Rotational constants in cm-1:     0.020155     0.007568     0.006393
Rotational constants in MHz :   604.240860   226.872409   191.670097

                             ****ORCA TERMINATED NORMALLY****
TOTAL RUN TIME: 0 days 0 hours 0 minutes 21 seconds 238 msec
