                         Program Version 4.2.1 -  RELEASE  -
|  1> ! wB97X-D3 SP def2-SVP
|  2> %pal
|  3> nprocs 24
|  4> end
|  5>
|  6> * xyz 0 1
|  7> S 	 -111.295 	 63.1783 	 -74.2325
|  8> C 	 -110.017 	 62.0387 	 -74.7321
|  9> C 	 -110.618 	 60.8992 	 -75.2554
| 10> C 	 -112.051 	 60.9297 	 -75.3195
| 11> C 	 -112.602 	 62.1432 	 -74.8935
| 12> H 	 -112.593 	 60.1089 	 -75.6871
| 13> C 	 -109.864 	 59.6052 	 -75.4707
| 14> H 	 -109.162 	 60.0229 	 -76.2101
| 15> H 	 -110.533 	 58.8919 	 -75.9653
| 16> C 	 -109.204 	 58.9404 	 -74.1668
| 17> H 	 -108.583 	 58.0686 	 -74.5269
| 18> H 	 -108.465 	 59.6243 	 -73.6972
| 19> C 	 -110.314 	 58.4495 	 -73.1845
| 20> H 	 -109.807 	 57.7752 	 -72.4668
| 21> H 	 -110.724 	 59.3267 	 -72.6664
| 22> H 	 -111.062 	 57.7542 	 -73.6311
| 23> S 	 -114.497 	 63.4607 	 -73.2186
| 24> C 	 -116.16 	 63.4071 	 -73.7624
| 25> C 	 -116.338 	 62.607 	 -74.8684
| 26> C 	 -115.129 	 62.032 	 -75.3737
| 27> C 	 -114.008 	 62.466 	 -74.6182
| 28> H 	 -117.261 	 62.4554 	 -75.2924
| 29> C 	 -115.148 	 61.1162 	 -76.5624
| 30> H 	 -114.992 	 60.1561 	 -76.0795
| 31> H 	 -114.252 	 61.2339 	 -77.1819
| 32> C 	 -116.382 	 61.0756 	 -77.4652
| 33> H 	 -117.351 	 60.7642 	 -76.9989
| 34> H 	 -116.196 	 60.3055 	 -78.1984
| 35> C 	 -116.586 	 62.3357 	 -78.3256
| 36> H 	 -116.978 	 63.189 	 -77.7446
| 37> H 	 -117.398 	 62.099 	 -78.9515
| 38> H 	 -115.68 	 62.6841 	 -78.7586
| 39> H 	 -108.952 	 62.2082 	 -74.5869
| 40> H 	 -117.061 	 63.934 	 -73.319
| 41> *
| 42>
| 43>                          ****END OF INPUT****

CARTESIAN COORDINATES (ANGSTROEM)
---------------------------------
  S    -111.295000   63.178300  -74.232500
  C    -110.017000   62.038700  -74.732100
  C    -110.618000   60.899200  -75.255400
  C    -112.051000   60.929700  -75.319500
  C    -112.602000   62.143200  -74.893500
  H    -112.593000   60.108900  -75.687100
  C    -109.864000   59.605200  -75.470700
  H    -109.162000   60.022900  -76.210100
  H    -110.533000   58.891900  -75.965300
  C    -109.204000   58.940400  -74.166800
  H    -108.583000   58.068600  -74.526900
  H    -108.465000   59.624300  -73.697200
  C    -110.314000   58.449500  -73.184500
  H    -109.807000   57.775200  -72.466800
  H    -110.724000   59.326700  -72.666400
  H    -111.062000   57.754200  -73.631100
  S    -114.497000   63.460700  -73.218600
  C    -116.160000   63.407100  -73.762400
  C    -116.338000   62.607000  -74.868400
  C    -115.129000   62.032000  -75.373700
  C    -114.008000   62.466000  -74.618200
  H    -117.261000   62.455400  -75.292400
  C    -115.148000   61.116200  -76.562400
  H    -114.992000   60.156100  -76.079500
  H    -114.252000   61.233900  -77.181900
  C    -116.382000   61.075600  -77.465200
  H    -117.351000   60.764200  -76.998900
  H    -116.196000   60.305500  -78.198400
  C    -116.586000   62.335700  -78.325600
  H    -116.978000   63.189000  -77.744600
  H    -117.398000   62.099000  -78.951500
  H    -115.680000   62.684100  -78.758600
  H    -108.952000   62.208200  -74.586900
  H    -117.061000   63.934000  -73.319000

 Total Charge           Charge          ....    0
 Multiplicity           Mult            ....    1
 Number of Electrons    NEL             ....  134
 Basis Dimension        Dim             ....  322

ORBITAL ENERGIES
----------------

  NO   OCC          E(Eh)            E(eV)
   0   2.0000     -88.970957     -2421.0228
   1   2.0000     -88.964221     -2420.8395
   2   2.0000     -10.337342      -281.2934
   3   2.0000     -10.331157      -281.1251
   4   2.0000     -10.320747      -280.8418
   5   2.0000     -10.316188      -280.7177
   6   2.0000     -10.305243      -280.4199
   7   2.0000     -10.301612      -280.3211
   8   2.0000     -10.299649      -280.2677
   9   2.0000     -10.294711      -280.1333
  10   2.0000     -10.294530      -280.1284
  11   2.0000     -10.293317      -280.0954
  12   2.0000     -10.292928      -280.0848
  13   2.0000     -10.286102      -279.8991
  14   2.0000     -10.284697      -279.8608
  15   2.0000     -10.273026      -279.5433
  16   2.0000      -8.084568      -219.9923
  17   2.0000      -8.077704      -219.8055
  18   2.0000      -6.043255      -164.4453
  19   2.0000      -6.039314      -164.3381
  20   2.0000      -6.036468      -164.2607
  21   2.0000      -6.035135      -164.2244
  22   2.0000      -6.032342      -164.1484
  23   2.0000      -6.028327      -164.0391
  24   2.0000      -0.997450       -27.1420
  25   2.0000      -0.976007       -26.5585
  26   2.0000      -0.913350       -24.8535
  27   2.0000      -0.899984       -24.4898
  28   2.0000      -0.862398       -23.4671
  29   2.0000      -0.852880       -23.2080
  30   2.0000      -0.840213       -22.8633
  31   2.0000      -0.814164       -22.1545
  32   2.0000      -0.786259       -21.3952
  33   2.0000      -0.765526       -20.8310
  34   2.0000      -0.708446       -19.2778
  35   2.0000      -0.701743       -19.0954
  36   2.0000      -0.692786       -18.8517
  37   2.0000      -0.657671       -17.8961
  38   2.0000      -0.636107       -17.3093
  39   2.0000      -0.615540       -16.7497
  40   2.0000      -0.593842       -16.1593
  41   2.0000      -0.567352       -15.4384
  42   2.0000      -0.562837       -15.3156
  43   2.0000      -0.546442       -14.8694
  44   2.0000      -0.542034       -14.7495
  45   2.0000      -0.529023       -14.3955
  46   2.0000      -0.519766       -14.1436
  47   2.0000      -0.512422       -13.9437
  48   2.0000      -0.498402       -13.5622
  49   2.0000      -0.493858       -13.4386
  50   2.0000      -0.490088       -13.3360
  51   2.0000      -0.475686       -12.9441
  52   2.0000      -0.472542       -12.8585
  53   2.0000      -0.463243       -12.6055
  54   2.0000      -0.460942       -12.5429
  55   2.0000      -0.448175       -12.1955
  56   2.0000      -0.442209       -12.0331
  57   2.0000      -0.437685       -11.9100
  58   2.0000      -0.430889       -11.7251
  59   2.0000      -0.425556       -11.5800
  60   2.0000      -0.423838       -11.5332
  61   2.0000      -0.414824       -11.2879
  62   2.0000      -0.409466       -11.1421
  63   2.0000      -0.353915        -9.6305
  64   2.0000      -0.331976        -9.0335
  65   2.0000      -0.325096        -8.8463
  66   2.0000      -0.278273        -7.5722
  67   0.0000       0.018048         0.4911
  68   0.0000       0.076628         2.0851
  69   0.0000       0.101694         2.7672
  70   0.0000       0.126475         3.4416
  71   0.0000       0.132356         3.6016

MULLIKEN ATOMIC CHARGES
-----------------------
   0 S :    0.077246
   1 C :   -0.136934
   2 C :   -0.094401
   3 C :    0.023165
   4 C :   -0.123006
   5 H :   -0.010728
   6 C :    0.036502
   7 H :    0.042980
   8 H :    0.019606
   9 C :   -0.082793
  10 H :    0.039387
  11 H :    0.037114
  12 C :   -0.071967
  13 H :    0.034342
  14 H :    0.065383
  15 H :    0.038586
  16 S :    0.119771
  17 C :   -0.100567
  18 C :   -0.005465
  19 C :   -0.059193
  20 C :   -0.138635
  21 H :   -0.018221
  22 C :    0.052494
  23 H :    0.046254
  24 H :    0.035783
  25 C :   -0.081959
  26 H :    0.034919
  27 H :    0.024236
  28 C :   -0.019797
  29 H :    0.024614
  30 H :    0.026626
  31 H :    0.033676
  32 H :    0.056011
  33 H :    0.074973
Sum of atomic charges:    0.0000000

LOEWDIN ATOMIC CHARGES
----------------------
   0 S :    0.371036
   1 C :   -0.195474
   2 C :   -0.065854
   3 C :   -0.065713
   4 C :   -0.166622
   5 H :    0.020346
   6 C :   -0.040270
   7 H :    0.038065
   8 H :    0.025410
   9 C :   -0.039348
  10 H :    0.027643
  11 H :    0.025369
  12 C :   -0.072780
  13 H :    0.029231
  14 H :    0.034369
  15 H :    0.029618
  16 S :    0.394845
  17 C :   -0.194922
  18 C :   -0.065682
  19 C :   -0.045609
  20 C :   -0.197577
  21 H :    0.015692
  22 C :   -0.038905
  23 H :    0.038253
  24 H :    0.035654
  25 C :   -0.043571
  26 H :    0.027580
  27 H :    0.027691
  28 C :   -0.058411
  29 H :    0.025820
  30 H :    0.022979
  31 H :    0.023761
  32 H :    0.031164
  33 H :    0.046213

  Mayer bond orders larger than 0.100000
B(  0-S ,  1-C ) :   1.1217 B(  0-S ,  4-C ) :   1.1447 B(  1-C ,  2-C ) :   1.5890
B(  1-C , 32-H ) :   0.9742 B(  2-C ,  3-C ) :   1.2617 B(  2-C ,  6-C ) :   1.0039
B(  3-C ,  4-C ) :   1.5219 B(  3-C ,  5-H ) :   0.9957 B(  4-C , 20-C ) :   1.0902
B(  6-C ,  7-H ) :   0.9390 B(  6-C ,  8-H ) :   0.9497 B(  6-C ,  9-C ) :   1.0563
B(  9-C , 10-H ) :   0.9596 B(  9-C , 11-H ) :   0.9581 B(  9-C , 12-C ) :   1.0622
B( 12-C , 13-H ) :   0.9741 B( 12-C , 14-H ) :   0.9760 B( 12-C , 15-H ) :   0.9758
B( 16-S , 17-C ) :   1.1436 B( 16-S , 20-C ) :   1.1247 B( 17-C , 18-C ) :   1.6101
B( 17-C , 33-H ) :   0.9532 B( 18-C , 19-C ) :   1.2653 B( 18-C , 21-H ) :   0.9939
B( 19-C , 20-C ) :   1.5674 B( 19-C , 22-C ) :   1.0315 B( 22-C , 23-H ) :   0.9172
B( 22-C , 24-H ) :   0.9268 B( 22-C , 25-C ) :   1.0916 B( 25-C , 26-H ) :   0.9455
B( 25-C , 27-H ) :   0.9475 B( 25-C , 28-C ) :   1.0804 B( 28-C , 29-H ) :   0.9735
B( 28-C , 30-H ) :   0.9729 B( 28-C , 31-H ) :   0.9733

Dispersion correction           -0.014434200
FINAL SINGLE POINT ENERGY     -1339.871596625507

DIPOLE MOMENT
-------------
                                X             Y             Z
Electronic contribution:      0.95342      19.15188      12.40636
Nuclear contribution   :     -1.15478     -19.83431     -12.75077
                        -----------------------------------------
Total Dipole Moment    :     -0.20136      -0.68243      -0.34441
                        -----------------------------------------
Magnitude (a.u.)       :      0.79049
Magnitude (Debye)      :      2.00926

Rotational constants in cm-1:     0.020088     0.008014     0.006737
Rotational constants in MHz :   602.234825   240.251864   201.960369

                             ****ORCA TERMINATED NORMALLY****
TOTAL RUN TIME: 0 days 0 hours 0 minutes 21 seconds 534 msec
