                         Program Version 4.2.1 -  RELEASE  -
|  1> ! wB97X-D3 SP def2-SVP
|  2> %pal
|  3> nprocs 24
|  4> end
|  5>
|  6> * xyz 0 1
|  7> S 	 -87.9199 	 -1.8967 	 -64.4732
|  8> C 	 -87.8438 	 -0.198162 	 -64.775
|  9> C 	 -87.2295 	 0.479075 	 -63.7073
| 10> C 	 -86.9139 	 -0.46572 	 -62.6543
| 11> C 	 -87.3136 	 -1.74077 	 -62.8747
| 12> H 	 -86.4404 	 -0.222891 	 -61.7058
| 13> C 	 -86.854 	 1.97228 	 -63.4471
| 14> H 	 -87.1669 	 2.28107 	 -62.4705
| 15> H 	 -87.527 	 2.70245 	 -63.9499
| 16> C 	 -85.352 	 2.19247 	 -63.7597
| 17> H 	 -85.0734 	 3.03969 	 -63.1166
| 18> H 	 -84.6945 	 1.31618 	 -63.528
| 19> C 	 -85.1468 	 2.28801 	 -65.3086
| 20> H 	 -85.4472 	 3.31244 	 -65.6945
| 21> H 	 -84.0697 	 2.1541 	 -65.6634
| 22> H 	 -85.6634 	 1.44382 	 -65.7791
| 23> S 	 -86.0569 	 -4.21623 	 -62.8987
| 24> C 	 -85.987 	 -5.16344 	 -61.3968
| 25> C 	 -86.3763 	 -4.3648 	 -60.3313
| 26> C 	 -86.778 	 -3.07498 	 -60.6677
| 27> C 	 -86.8831 	 -2.87379 	 -62.057
| 28> H 	 -86.2062 	 -4.72918 	 -59.3162
| 29> C 	 -87.313 	 -2.11925 	 -59.5852
| 30> H 	 -87.951 	 -2.74122 	 -59.0136
| 31> H 	 -87.8721 	 -1.29173 	 -59.9105
| 32> C 	 -86.1998 	 -1.58679 	 -58.722
| 33> H 	 -85.6175 	 -0.923758 	 -59.331
| 34> H 	 -85.569 	 -2.37831 	 -58.4692
| 35> C 	 -86.74 	 -0.776868 	 -57.4628
| 36> H 	 -87.1991 	 -1.43151 	 -56.7681
| 37> H 	 -87.5543 	 -0.0915956 	 -57.7839
| 38> H 	 -85.9855 	 -0.183156 	 -56.895
| 39> H 	 -88.366 	 0.311025 	 -65.5881
| 40> H 	 -85.7429 	 -6.2232 	 -61.2333
| 41> *
| 42>
| 43>                          ****END OF INPUT****

CARTESIAN COORDINATES (ANGSTROEM)
---------------------------------
  S    -87.919900   -1.896700  -64.473200
  C    -87.843800   -0.198162  -64.775000
  C    -87.229500    0.479075  -63.707300
  C    -86.913900   -0.465720  -62.654300
  C    -87.313600   -1.740770  -62.874700
  H    -86.440400   -0.222891  -61.705800
  C    -86.854000    1.972280  -63.447100
  H    -87.166900    2.281070  -62.470500
  H    -87.527000    2.702450  -63.949900
  C    -85.352000    2.192470  -63.759700
  H    -85.073400    3.039690  -63.116600
  H    -84.694500    1.316180  -63.528000
  C    -85.146800    2.288010  -65.308600
  H    -85.447200    3.312440  -65.694500
  H    -84.069700    2.154100  -65.663400
  H    -85.663400    1.443820  -65.779100
  S    -86.056900   -4.216230  -62.898700
  C    -85.987000   -5.163440  -61.396800
  C    -86.376300   -4.364800  -60.331300
  C    -86.778000   -3.074980  -60.667700
  C    -86.883100   -2.873790  -62.057000
  H    -86.206200   -4.729180  -59.316200
  C    -87.313000   -2.119250  -59.585200
  H    -87.951000   -2.741220  -59.013600
  H    -87.872100   -1.291730  -59.910500
  C    -86.199800   -1.586790  -58.722000
  H    -85.617500   -0.923758  -59.331000
  H    -85.569000   -2.378310  -58.469200
  C    -86.740000   -0.776868  -57.462800
  H    -87.199100   -1.431510  -56.768100
  H    -87.554300   -0.091596  -57.783900
  H    -85.985500   -0.183156  -56.895000
  H    -88.366000    0.311025  -65.588100
  H    -85.742900   -6.223200  -61.233300

 Total Charge           Charge          ....    0
 Multiplicity           Mult            ....    1
 Number of Electrons    NEL             ....  134
 Basis Dimension        Dim             ....  322

ORBITAL ENERGIES
----------------

  NO   OCC          E(Eh)            E(eV)
   0   2.0000     -88.968462     -2420.9549
   1   2.0000     -88.966248     -2420.8947
   2   2.0000     -10.332367      -281.1580
   3   2.0000     -10.324978      -280.9569
   4   2.0000     -10.320842      -280.8444
   5   2.0000     -10.319811      -280.8163
   6   2.0000     -10.311303      -280.5848
   7   2.0000     -10.302783      -280.3530
   8   2.0000     -10.301125      -280.3079
   9   2.0000     -10.296613      -280.1851
  10   2.0000     -10.292212      -280.0653
  11   2.0000     -10.292111      -280.0626
  12   2.0000     -10.288087      -279.9531
  13   2.0000     -10.284305      -279.8502
  14   2.0000     -10.283511      -279.8286
  15   2.0000     -10.282251      -279.7943
  16   2.0000      -8.084092      -219.9793
  17   2.0000      -8.079801      -219.8626
  18   2.0000      -6.042643      -164.4287
  19   2.0000      -6.038444      -164.3144
  20   2.0000      -6.038403      -164.3133
  21   2.0000      -6.034802      -164.2153
  22   2.0000      -6.034520      -164.2076
  23   2.0000      -6.030429      -164.0963
  24   2.0000      -1.010629       -27.5006
  25   2.0000      -0.983774       -26.7698
  26   2.0000      -0.912373       -24.8269
  27   2.0000      -0.906940       -24.6791
  28   2.0000      -0.869213       -23.6525
  29   2.0000      -0.847948       -23.0738
  30   2.0000      -0.840282       -22.8652
  31   2.0000      -0.809457       -22.0264
  32   2.0000      -0.781482       -21.2652
  33   2.0000      -0.774837       -21.0844
  34   2.0000      -0.708785       -19.2870
  35   2.0000      -0.699581       -19.0366
  36   2.0000      -0.695014       -18.9123
  37   2.0000      -0.661501       -18.0003
  38   2.0000      -0.645449       -17.5636
  39   2.0000      -0.622025       -16.9262
  40   2.0000      -0.599331       -16.3086
  41   2.0000      -0.572138       -15.5687
  42   2.0000      -0.566011       -15.4020
  43   2.0000      -0.547354       -14.8943
  44   2.0000      -0.532031       -14.4773
  45   2.0000      -0.517371       -14.0784
  46   2.0000      -0.513206       -13.9651
  47   2.0000      -0.511023       -13.9057
  48   2.0000      -0.504011       -13.7148
  49   2.0000      -0.500610       -13.6223
  50   2.0000      -0.488055       -13.2807
  51   2.0000      -0.485714       -13.2169
  52   2.0000      -0.470693       -12.8082
  53   2.0000      -0.464382       -12.6365
  54   2.0000      -0.458081       -12.4650
  55   2.0000      -0.448727       -12.2105
  56   2.0000      -0.444082       -12.0841
  57   2.0000      -0.439096       -11.9484
  58   2.0000      -0.434140       -11.8136
  59   2.0000      -0.431850       -11.7512
  60   2.0000      -0.419377       -11.4118
  61   2.0000      -0.411876       -11.2077
  62   2.0000      -0.411185       -11.1889
  63   2.0000      -0.353762        -9.6264
  64   2.0000      -0.332463        -9.0468
  65   2.0000      -0.329139        -8.9563
  66   2.0000      -0.288794        -7.8585
  67   0.0000       0.024559         0.6683
  68   0.0000       0.070929         1.9301
  69   0.0000       0.108129         2.9423
  70   0.0000       0.121397         3.3034
  71   0.0000       0.130168         3.5421

MULLIKEN ATOMIC CHARGES
-----------------------
   0 S :    0.114000
   1 C :   -0.123724
   2 C :   -0.097335
   3 C :    0.011322
   4 C :   -0.124761
   5 H :    0.009971
   6 C :    0.059217
   7 H :    0.017665
   8 H :    0.022619
   9 C :   -0.073789
  10 H :    0.039238
  11 H :    0.051217
  12 C :   -0.093569
  13 H :    0.041895
  14 H :    0.041597
  15 H :    0.043420
  16 S :    0.094130
  17 C :   -0.101169
  18 C :   -0.043873
  19 C :   -0.032126
  20 C :   -0.144446
  21 H :    0.024933
  22 C :    0.087329
  23 H :    0.015982
  24 H :    0.008426
  25 C :   -0.053708
  26 H :    0.018322
  27 H :    0.011958
  28 C :   -0.050746
  29 H :    0.022641
  30 H :    0.029322
  31 H :    0.045366
  32 H :    0.062599
  33 H :    0.066077
Sum of atomic charges:    0.0000000

LOEWDIN ATOMIC CHARGES
----------------------
   0 S :    0.430344
   1 C :   -0.209791
   2 C :   -0.057478
   3 C :   -0.057119
   4 C :   -0.213336
   5 H :    0.029893
   6 C :   -0.035741
   7 H :    0.026067
   8 H :    0.033379
   9 C :   -0.043518
  10 H :    0.026084
  11 H :    0.034753
  12 C :   -0.076706
  13 H :    0.027159
  14 H :    0.030457
  15 H :    0.027819
  16 S :    0.379637
  17 C :   -0.186773
  18 C :   -0.074847
  19 C :   -0.059947
  20 C :   -0.175506
  21 H :    0.033756
  22 C :   -0.019402
  23 H :    0.025542
  24 H :    0.019906
  25 C :   -0.028993
  26 H :    0.018708
  27 H :    0.013236
  28 C :   -0.066733
  29 H :    0.017770
  30 H :    0.027958
  31 H :    0.030929
  32 H :    0.034151
  33 H :    0.038341

  Mayer bond orders larger than 0.100000
B(  0-S ,  1-C ) :   1.1516 B(  0-S ,  4-C ) :   1.1491 B(  1-C ,  2-C ) :   1.5922
B(  1-C , 32-H ) :   0.9666 B(  2-C ,  3-C ) :   1.2523 B(  2-C ,  6-C ) :   1.0155
B(  3-C ,  4-C ) :   1.5678 B(  3-C ,  5-H ) :   0.9890 B(  4-C , 20-C ) :   1.0444
B(  6-C ,  7-H ) :   0.9484 B(  6-C ,  8-H ) :   0.9448 B(  6-C ,  9-C ) :   1.0417
B(  9-C , 10-H ) :   0.9599 B(  9-C , 11-H ) :   0.9645 B(  9-C , 12-C ) :   1.0538
B( 12-C , 13-H ) :   0.9776 B( 12-C , 14-H ) :   0.9777 B( 12-C , 15-H ) :   0.9718
B( 16-S , 17-C ) :   1.1394 B( 16-S , 20-C ) :   1.1407 B( 17-C , 18-C ) :   1.6137
B( 17-C , 20-C ) :   0.1101 B( 17-C , 33-H ) :   0.9634 B( 18-C , 19-C ) :   1.2636
B( 18-C , 21-H ) :   0.9801 B( 19-C , 20-C ) :   1.5772 B( 19-C , 22-C ) :   1.0325
B( 22-C , 23-H ) :   0.9429 B( 22-C , 24-H ) :   0.9405 B( 22-C , 25-C ) :   1.0557
B( 25-C , 26-H ) :   0.9531 B( 25-C , 27-H ) :   0.9594 B( 25-C , 28-C ) :   1.0686
B( 28-C , 29-H ) :   0.9777 B( 28-C , 30-H ) :   0.9740 B( 28-C , 31-H ) :   0.9777

Dispersion correction           -0.014183993
FINAL SINGLE POINT ENERGY     -1339.862818533926

DIPOLE MOMENT
-------------
                                X             Y             Z
Electronic contribution:     -6.10999     -22.12155     -14.34841
Nuclear contribution   :      6.17554      22.62292      14.86897
                        -----------------------------------------
Total Dipole Moment    :      0.06555       0.50137       0.52057
                        -----------------------------------------
Magnitude (a.u.)       :      0.72571
Magnitude (Debye)      :      1.84462

Rotational constants in cm-1:     0.017063     0.009089     0.006762
Rotational constants in MHz :   511.529796   272.486770   202.730090

                             ****ORCA TERMINATED NORMALLY****
TOTAL RUN TIME: 0 days 0 hours 0 minutes 21 seconds 451 msec
