                         Program Version 4.2.1 -  RELEASE  -
|  1> ! wB97X-D3 SP def2-SVP
|  2> %pal
|  3> nprocs 24
|  4> end
|  5>
|  6> * xyz 0 1
|  7> S 	 -35.3899 	 5.49264 	 5.22809
|  8> C 	 -35.6075 	 4.05189 	 4.17913
|  9> C 	 -34.5157 	 3.22951 	 4.27129
| 10> C 	 -33.4317 	 3.82585 	 4.99887
| 11> C 	 -33.7713 	 5.08018 	 5.52872
| 12> H 	 -32.4599 	 3.32683 	 5.15864
| 13> C 	 -34.3394 	 1.95489 	 3.51166
| 14> H 	 -33.7319 	 2.16397 	 2.62323
| 15> H 	 -35.3313 	 1.78596 	 3.06507
| 16> C 	 -33.7968 	 0.661413 	 4.19402
| 17> H 	 -32.8306 	 0.798043 	 4.60456
| 18> H 	 -34.332 	 0.451063 	 5.06978
| 19> C 	 -33.8284 	 -0.630575 	 3.26668
| 20> H 	 -33.9309 	 -0.424715 	 2.23751
| 21> H 	 -32.9731 	 -1.33101 	 3.37384
| 22> H 	 -34.6681 	 -1.22785 	 3.55005
| 23> S 	 -31.4198 	 6.52421 	 5.6104
| 24> C 	 -31.1145 	 7.54554 	 6.95973
| 25> C 	 -32.2091 	 7.55478 	 7.82899
| 26> C 	 -33.2085 	 6.61956 	 7.52671
| 27> C 	 -32.9473 	 5.97419 	 6.32501
| 28> H 	 -32.1545 	 8.17744 	 8.72209
| 29> C 	 -34.2811 	 6.40446 	 8.48696
| 30> H 	 -35.0232 	 5.82327 	 8.01818
| 31> H 	 -34.7556 	 7.39894 	 8.55337
| 32> C 	 -33.8124 	 5.78425 	 9.8676
| 33> H 	 -34.6265 	 5.97405 	 10.6739
| 34> H 	 -32.8812 	 6.19699 	 10.2456
| 35> C 	 -33.5213 	 4.29734 	 9.83149
| 36> H 	 -33.6692 	 3.86458 	 10.739
| 37> H 	 -32.4552 	 4.06704 	 9.54391
| 38> H 	 -34.2238 	 3.91742 	 9.10289
| 39> H 	 -36.5177 	 3.80592 	 3.65602
| 40> H 	 -30.2296 	 8.20333 	 7.23955
| 41> *
| 42>
| 43>                          ****END OF INPUT****

CARTESIAN COORDINATES (ANGSTROEM)
---------------------------------
  S    -35.389900    5.492640    5.228090
  C    -35.607500    4.051890    4.179130
  C    -34.515700    3.229510    4.271290
  C    -33.431700    3.825850    4.998870
  C    -33.771300    5.080180    5.528720
  H    -32.459900    3.326830    5.158640
  C    -34.339400    1.954890    3.511660
  H    -33.731900    2.163970    2.623230
  H    -35.331300    1.785960    3.065070
  C    -33.796800    0.661413    4.194020
  H    -32.830600    0.798043    4.604560
  H    -34.332000    0.451063    5.069780
  C    -33.828400   -0.630575    3.266680
  H    -33.930900   -0.424715    2.237510
  H    -32.973100   -1.331010    3.373840
  H    -34.668100   -1.227850    3.550050
  S    -31.419800    6.524210    5.610400
  C    -31.114500    7.545540    6.959730
  C    -32.209100    7.554780    7.828990
  C    -33.208500    6.619560    7.526710
  C    -32.947300    5.974190    6.325010
  H    -32.154500    8.177440    8.722090
  C    -34.281100    6.404460    8.486960
  H    -35.023200    5.823270    8.018180
  H    -34.755600    7.398940    8.553370
  C    -33.812400    5.784250    9.867600
  H    -34.626500    5.974050   10.673900
  H    -32.881200    6.196990   10.245600
  C    -33.521300    4.297340    9.831490
  H    -33.669200    3.864580   10.739000
  H    -32.455200    4.067040    9.543910
  H    -34.223800    3.917420    9.102890
  H    -36.517700    3.805920    3.656020
  H    -30.229600    8.203330    7.239550

 Total Charge           Charge          ....    0
 Multiplicity           Mult            ....    1
 Number of Electrons    NEL             ....  134
 Basis Dimension        Dim             ....  322

ORBITAL ENERGIES
----------------

  NO   OCC          E(Eh)            E(eV)
   0   2.0000     -88.967659     -2420.9331
   1   2.0000     -88.967379     -2420.9255
   2   2.0000     -10.328416      -281.0505
   3   2.0000     -10.324475      -280.9432
   4   2.0000     -10.318560      -280.7823
   5   2.0000     -10.314008      -280.6584
   6   2.0000     -10.300235      -280.2836
   7   2.0000     -10.295321      -280.1499
   8   2.0000     -10.295206      -280.1468
   9   2.0000     -10.294246      -280.1207
  10   2.0000     -10.293331      -280.0958
  11   2.0000     -10.287291      -279.9314
  12   2.0000     -10.286951      -279.9222
  13   2.0000     -10.286810      -279.9183
  14   2.0000     -10.278855      -279.7019
  15   2.0000     -10.266672      -279.3703
  16   2.0000      -8.082088      -219.9248
  17   2.0000      -8.082084      -219.9247
  18   2.0000      -6.040559      -164.3720
  19   2.0000      -6.040543      -164.3715
  20   2.0000      -6.036608      -164.2644
  21   2.0000      -6.036598      -164.2642
  22   2.0000      -6.032924      -164.1642
  23   2.0000      -6.032894      -164.1634
  24   2.0000      -1.008658       -27.4470
  25   2.0000      -0.985216       -26.8091
  26   2.0000      -0.911136       -24.7933
  27   2.0000      -0.908650       -24.7256
  28   2.0000      -0.867075       -23.5943
  29   2.0000      -0.855872       -23.2895
  30   2.0000      -0.843337       -22.9484
  31   2.0000      -0.809297       -22.0221
  32   2.0000      -0.786530       -21.4026
  33   2.0000      -0.772759       -21.0278
  34   2.0000      -0.718194       -19.5431
  35   2.0000      -0.701057       -19.0767
  36   2.0000      -0.690981       -18.8025
  37   2.0000      -0.660311       -17.9680
  38   2.0000      -0.633840       -17.2477
  39   2.0000      -0.617064       -16.7912
  40   2.0000      -0.595621       -16.2077
  41   2.0000      -0.568935       -15.4815
  42   2.0000      -0.558579       -15.1997
  43   2.0000      -0.551803       -15.0153
  44   2.0000      -0.534628       -14.5480
  45   2.0000      -0.524343       -14.2681
  46   2.0000      -0.520123       -14.1533
  47   2.0000      -0.509842       -13.8735
  48   2.0000      -0.505522       -13.7560
  49   2.0000      -0.494303       -13.4507
  50   2.0000      -0.486481       -13.2378
  51   2.0000      -0.481444       -13.1007
  52   2.0000      -0.467257       -12.7147
  53   2.0000      -0.463911       -12.6237
  54   2.0000      -0.460290       -12.5251
  55   2.0000      -0.452081       -12.3017
  56   2.0000      -0.445320       -12.1178
  57   2.0000      -0.439966       -11.9721
  58   2.0000      -0.436782       -11.8854
  59   2.0000      -0.426804       -11.6139
  60   2.0000      -0.418689       -11.3931
  61   2.0000      -0.416599       -11.3362
  62   2.0000      -0.412906       -11.2357
  63   2.0000      -0.341267        -9.2864
  64   2.0000      -0.331357        -9.0167
  65   2.0000      -0.328874        -8.9491
  66   2.0000      -0.290688        -7.9100
  67   0.0000       0.031388         0.8541
  68   0.0000       0.072275         1.9667
  69   0.0000       0.105098         2.8599
  70   0.0000       0.118976         3.2375
  71   0.0000       0.128415         3.4944

MULLIKEN ATOMIC CHARGES
-----------------------
   0 S :    0.114932
   1 C :   -0.139180
   2 C :   -0.060001
   3 C :    0.009362
   4 C :   -0.151132
   5 H :    0.025956
   6 C :    0.042238
   7 H :    0.046163
   8 H :    0.008246
   9 C :   -0.034377
  10 H :    0.018191
  11 H :    0.015735
  12 C :   -0.054234
  13 H :    0.025959
  14 H :    0.037162
  15 H :    0.028764
  16 S :    0.126771
  17 C :   -0.111063
  18 C :   -0.066696
  19 C :   -0.041396
  20 C :   -0.160327
  21 H :    0.020354
  22 C :    0.111363
  23 H :   -0.005989
  24 H :    0.036066
  25 C :   -0.109364
  26 H :    0.043172
  27 H :    0.030218
  28 C :   -0.011104
  29 H :    0.013233
  30 H :    0.043194
  31 H :    0.026390
  32 H :    0.044016
  33 H :    0.077379
Sum of atomic charges:    0.0000000

LOEWDIN ATOMIC CHARGES
----------------------
   0 S :    0.420209
   1 C :   -0.188953
   2 C :   -0.062107
   3 C :   -0.070333
   4 C :   -0.206138
   5 H :    0.035658
   6 C :   -0.035360
   7 H :    0.037300
   8 H :    0.029040
   9 C :   -0.031447
  10 H :    0.018081
  11 H :    0.019444
  12 C :   -0.063218
  13 H :    0.018845
  14 H :    0.032397
  15 H :    0.024986
  16 S :    0.417999
  17 C :   -0.212919
  18 C :   -0.074698
  19 C :   -0.064906
  20 C :   -0.199304
  21 H :    0.030394
  22 C :   -0.034278
  23 H :    0.012387
  24 H :    0.042543
  25 C :   -0.038465
  26 H :    0.032928
  27 H :    0.021444
  28 C :   -0.058153
  29 H :    0.012020
  30 H :    0.033892
  31 H :    0.025705
  32 H :    0.026144
  33 H :    0.048863

  Mayer bond orders larger than 0.100000
B(  0-S ,  1-C ) :   1.1211 B(  0-S ,  4-C ) :   1.1701 B(  1-C ,  2-C ) :   1.6147
B(  1-C , 32-H ) :   0.9687 B(  2-C ,  3-C ) :   1.2297 B(  2-C ,  6-C ) :   1.0359
B(  3-C ,  4-C ) :   1.5488 B(  3-C ,  5-H ) :   0.9925 B(  4-C , 20-C ) :   1.0366
B(  6-C ,  7-H ) :   0.9363 B(  6-C ,  8-H ) :   0.9393 B(  6-C ,  9-C ) :   1.0517
B(  9-C , 10-H ) :   0.9588 B(  9-C , 11-H ) :   0.9625 B(  9-C , 12-C ) :   1.0621
B( 12-C , 13-H ) :   0.9817 B( 12-C , 14-H ) :   0.9789 B( 12-C , 15-H ) :   0.9798
B( 16-S , 17-C ) :   1.1590 B( 16-S , 20-C ) :   1.1425 B( 17-C , 18-C ) :   1.6043
B( 17-C , 33-H ) :   0.9561 B( 18-C , 19-C ) :   1.2549 B( 18-C , 21-H ) :   0.9847
B( 19-C , 20-C ) :   1.5546 B( 19-C , 22-C ) :   1.0560 B( 22-C , 23-H ) :   0.9228
B( 22-C , 24-H ) :   0.9231 B( 22-C , 25-C ) :   1.0552 B( 25-C , 26-H ) :   0.9592
B( 25-C , 27-H ) :   0.9637 B( 25-C , 28-C ) :   1.0672 B( 28-C , 29-H ) :   0.9717
B( 28-C , 30-H ) :   0.9757 B( 28-C , 31-H ) :   0.9774

Dispersion correction           -0.014193451
FINAL SINGLE POINT ENERGY     -1339.866498225723

DIPOLE MOMENT
-------------
                                X             Y             Z
Electronic contribution:      2.58568      21.38371      -7.14671
Nuclear contribution   :     -2.60025     -21.75818       7.41243
                        -----------------------------------------
Total Dipole Moment    :     -0.01457      -0.37447       0.26572
                        -----------------------------------------
Magnitude (a.u.)       :      0.45940
Magnitude (Debye)      :      1.16769

Rotational constants in cm-1:     0.020394     0.007434     0.007001
Rotational constants in MHz :   611.383593   222.854598   209.891706

                             ****ORCA TERMINATED NORMALLY****
TOTAL RUN TIME: 0 days 0 hours 0 minutes 20 seconds 98 msec
