                         Program Version 4.2.1 -  RELEASE  -
|  1> ! wB97X-D3 SP def2-SVP
|  2> %pal
|  3> nprocs 24
|  4> end
|  5>
|  6> * xyz 0 1
|  7> S 	 -93.0589 	 13.3479 	 -116.839
|  8> C 	 -91.3385 	 13.2911 	 -116.595
|  9> C 	 -90.6071 	 13.825 	 -117.64
| 10> C 	 -91.4751 	 14.395 	 -118.638
| 11> C 	 -92.8216 	 14.1627 	 -118.39
| 12> H 	 -91.1566 	 14.8876 	 -119.512
| 13> C 	 -89.1034 	 13.8987 	 -117.701
| 14> H 	 -88.7165 	 13.9341 	 -116.712
| 15> H 	 -88.7844 	 14.6752 	 -118.338
| 16> C 	 -88.4821 	 12.5805 	 -118.193
| 17> H 	 -87.4295 	 12.654 	 -118.019
| 18> H 	 -88.9059 	 11.7711 	 -117.612
| 19> C 	 -88.7186 	 12.2596 	 -119.681
| 20> H 	 -88.3883 	 11.2875 	 -120.043
| 21> H 	 -89.7906 	 12.2153 	 -119.937
| 22> H 	 -88.2367 	 13.0253 	 -120.297
| 23> S 	 -95.1003 	 13.4775 	 -119.785
| 24> C 	 -95.8913 	 14.7207 	 -120.636
| 25> C 	 -95.3498 	 15.9922 	 -120.404
| 26> C 	 -94.2344 	 15.9739 	 -119.568
| 27> C 	 -93.9383 	 14.6724 	 -119.151
| 28> H 	 -95.8497 	 16.8053 	 -120.903
| 29> C 	 -93.4087 	 17.2278 	 -119.113
| 30> H 	 -92.4306 	 17.2554 	 -119.687
| 31> H 	 -93.2881 	 16.9688 	 -118.054
| 32> C 	 -94.1242 	 18.6475 	 -119.104
| 33> H 	 -94.8453 	 18.5738 	 -118.339
| 34> H 	 -94.4731 	 18.8921 	 -120.046
| 35> C 	 -93.2129 	 19.798 	 -118.694
| 36> H 	 -92.1902 	 19.6306 	 -118.826
| 37> H 	 -93.3618 	 20.0229 	 -117.676
| 38> H 	 -93.5235 	 20.6766 	 -119.317
| 39> H 	 -90.7821 	 12.7915 	 -115.744
| 40> H 	 -96.6569 	 14.6284 	 -121.384
| 41> *
| 42>
| 43>                          ****END OF INPUT****

CARTESIAN COORDINATES (ANGSTROEM)
---------------------------------
  S    -93.058900   13.347900  -116.839000
  C    -91.338500   13.291100  -116.595000
  C    -90.607100   13.825000  -117.640000
  C    -91.475100   14.395000  -118.638000
  C    -92.821600   14.162700  -118.390000
  H    -91.156600   14.887600  -119.512000
  C    -89.103400   13.898700  -117.701000
  H    -88.716500   13.934100  -116.712000
  H    -88.784400   14.675200  -118.338000
  C    -88.482100   12.580500  -118.193000
  H    -87.429500   12.654000  -118.019000
  H    -88.905900   11.771100  -117.612000
  C    -88.718600   12.259600  -119.681000
  H    -88.388300   11.287500  -120.043000
  H    -89.790600   12.215300  -119.937000
  H    -88.236700   13.025300  -120.297000
  S    -95.100300   13.477500  -119.785000
  C    -95.891300   14.720700  -120.636000
  C    -95.349800   15.992200  -120.404000
  C    -94.234400   15.973900  -119.568000
  C    -93.938300   14.672400  -119.151000
  H    -95.849700   16.805300  -120.903000
  C    -93.408700   17.227800  -119.113000
  H    -92.430600   17.255400  -119.687000
  H    -93.288100   16.968800  -118.054000
  C    -94.124200   18.647500  -119.104000
  H    -94.845300   18.573800  -118.339000
  H    -94.473100   18.892100  -120.046000
  C    -93.212900   19.798000  -118.694000
  H    -92.190200   19.630600  -118.826000
  H    -93.361800   20.022900  -117.676000
  H    -93.523500   20.676600  -119.317000
  H    -90.782100   12.791500  -115.744000
  H    -96.656900   14.628400  -121.384000

 Total Charge           Charge          ....    0
 Multiplicity           Mult            ....    1
 Number of Electrons    NEL             ....  134
 Basis Dimension        Dim             ....  322

ORBITAL ENERGIES
----------------

  NO   OCC          E(Eh)            E(eV)
   0   2.0000     -88.968124     -2420.9457
   1   2.0000     -88.967190     -2420.9203
   2   2.0000     -10.326308      -280.9931
   3   2.0000     -10.322742      -280.8961
   4   2.0000     -10.314813      -280.6803
   5   2.0000     -10.311776      -280.5977
   6   2.0000     -10.305324      -280.4221
   7   2.0000     -10.300875      -280.3010
   8   2.0000     -10.298441      -280.2348
   9   2.0000     -10.291391      -280.0430
  10   2.0000     -10.288268      -279.9580
  11   2.0000     -10.285981      -279.8958
  12   2.0000     -10.282408      -279.7986
  13   2.0000     -10.279675      -279.7242
  14   2.0000     -10.274494      -279.5832
  15   2.0000     -10.270519      -279.4750
  16   2.0000      -8.083023      -219.9502
  17   2.0000      -8.081641      -219.9126
  18   2.0000      -6.041234      -164.3903
  19   2.0000      -6.040165      -164.3612
  20   2.0000      -6.037522      -164.2893
  21   2.0000      -6.036245      -164.2546
  22   2.0000      -6.034079      -164.1956
  23   2.0000      -6.032361      -164.1489
  24   2.0000      -1.004348       -27.3297
  25   2.0000      -0.982535       -26.7361
  26   2.0000      -0.914444       -24.8833
  27   2.0000      -0.903808       -24.5939
  28   2.0000      -0.866124       -23.5684
  29   2.0000      -0.856529       -23.3073
  30   2.0000      -0.843967       -22.9655
  31   2.0000      -0.810458       -22.0537
  32   2.0000      -0.784801       -21.3555
  33   2.0000      -0.769873       -20.9493
  34   2.0000      -0.705040       -19.1851
  35   2.0000      -0.700438       -19.0599
  36   2.0000      -0.696625       -18.9561
  37   2.0000      -0.652153       -17.7460
  38   2.0000      -0.635774       -17.3003
  39   2.0000      -0.616048       -16.7635
  40   2.0000      -0.589484       -16.0407
  41   2.0000      -0.581112       -15.8129
  42   2.0000      -0.578680       -15.7467
  43   2.0000      -0.548977       -14.9384
  44   2.0000      -0.541050       -14.7227
  45   2.0000      -0.524133       -14.2624
  46   2.0000      -0.515404       -14.0249
  47   2.0000      -0.510832       -13.9004
  48   2.0000      -0.504306       -13.7229
  49   2.0000      -0.491939       -13.3863
  50   2.0000      -0.485834       -13.2202
  51   2.0000      -0.475421       -12.9369
  52   2.0000      -0.470892       -12.8136
  53   2.0000      -0.467685       -12.7264
  54   2.0000      -0.461243       -12.5511
  55   2.0000      -0.447225       -12.1696
  56   2.0000      -0.442445       -12.0395
  57   2.0000      -0.435999       -11.8641
  58   2.0000      -0.435122       -11.8403
  59   2.0000      -0.426559       -11.6073
  60   2.0000      -0.421182       -11.4609
  61   2.0000      -0.419484       -11.4147
  62   2.0000      -0.414505       -11.2792
  63   2.0000      -0.339830        -9.2472
  64   2.0000      -0.335737        -9.1359
  65   2.0000      -0.328667        -8.9435
  66   2.0000      -0.288029        -7.8377
  67   0.0000       0.033528         0.9124
  68   0.0000       0.062687         1.7058
  69   0.0000       0.115570         3.1448
  70   0.0000       0.124955         3.4002
  71   0.0000       0.135501         3.6872

MULLIKEN ATOMIC CHARGES
-----------------------
   0 S :    0.118727
   1 C :   -0.138005
   2 C :   -0.114847
   3 C :    0.051883
   4 C :   -0.159506
   5 H :   -0.006963
   6 C :    0.130471
   7 H :    0.015807
   8 H :    0.011099
   9 C :   -0.065804
  10 H :    0.026641
  11 H :    0.022317
  12 C :   -0.069745
  13 H :    0.030236
  14 H :    0.038678
  15 H :    0.024839
  16 S :    0.129113
  17 C :   -0.077513
  18 C :   -0.075900
  19 C :    0.013271
  20 C :   -0.199410
  21 H :    0.012703
  22 C :    0.016949
  23 H :    0.053475
  24 H :    0.047972
  25 C :   -0.040771
  26 H :    0.027147
  27 H :    0.019699
  28 C :   -0.024768
  29 H :    0.018281
  30 H :    0.023219
  31 H :    0.033767
  32 H :    0.061527
  33 H :    0.045411
Sum of atomic charges:   -0.0000000

LOEWDIN ATOMIC CHARGES
----------------------
   0 S :    0.403287
   1 C :   -0.215034
   2 C :   -0.062440
   3 C :   -0.050917
   4 C :   -0.194398
   5 H :    0.023154
   6 C :   -0.019510
   7 H :    0.031219
   8 H :    0.023761
   9 C :   -0.032279
  10 H :    0.019220
  11 H :    0.021249
  12 C :   -0.073471
  13 H :    0.025198
  14 H :    0.028703
  15 H :    0.021824
  16 S :    0.422699
  17 C :   -0.199251
  18 C :   -0.078595
  19 C :   -0.051854
  20 C :   -0.203452
  21 H :    0.029979
  22 C :   -0.031464
  23 H :    0.035431
  24 H :    0.038269
  25 C :   -0.028300
  26 H :    0.023941
  27 H :    0.010770
  28 C :   -0.055208
  29 H :    0.015875
  30 H :    0.020608
  31 H :    0.035134
  32 H :    0.039609
  33 H :    0.026244

  Mayer bond orders larger than 0.100000
B(  0-S ,  1-C ) :   1.1369 B(  0-S ,  4-C ) :   1.1453 B(  1-C ,  2-C ) :   1.6290
B(  1-C , 32-H ) :   0.9510 B(  2-C ,  3-C ) :   1.2291 B(  2-C ,  6-C ) :   1.0361
B(  3-C ,  4-C ) :   1.5736 B(  3-C ,  5-H ) :   1.0049 B(  4-C , 20-C ) :   1.0415
B(  6-C ,  7-H ) :   0.9308 B(  6-C ,  8-H ) :   0.9399 B(  6-C ,  9-C ) :   1.0710
B(  9-C , 10-H ) :   0.9587 B(  9-C , 11-H ) :   0.9561 B(  9-C , 12-C ) :   1.0756
B( 12-C , 13-H ) :   0.9743 B( 12-C , 14-H ) :   0.9744 B( 12-C , 15-H ) :   0.9760
B( 16-S , 17-C ) :   1.1776 B( 16-S , 20-C ) :   1.1512 B( 17-C , 18-C ) :   1.5895
B( 17-C , 20-C ) :   0.1115 B( 17-C , 33-H ) :   0.9635 B( 18-C , 19-C ) :   1.2608
B( 18-C , 21-H ) :   0.9947 B( 19-C , 20-C ) :   1.5721 B( 19-C , 22-C ) :   1.0040
B( 22-C , 23-H ) :   0.9368 B( 22-C , 24-H ) :   0.9438 B( 22-C , 25-C ) :   1.0776
B( 25-C , 26-H ) :   0.9626 B( 25-C , 27-H ) :   0.9606 B( 25-C , 28-C ) :   1.0796
B( 28-C , 29-H ) :   0.9758 B( 28-C , 30-H ) :   0.9788 B( 28-C , 31-H ) :   0.9791

Dispersion correction           -0.014064034
FINAL SINGLE POINT ENERGY     -1339.871423873731

DIPOLE MOMENT
-------------
                                X             Y             Z
Electronic contribution:    -18.73704     -14.60625       3.48175
Nuclear contribution   :     19.13901      15.07509      -3.66342
                        -----------------------------------------
Total Dipole Moment    :      0.40197       0.46884      -0.18167
                        -----------------------------------------
Magnitude (a.u.)       :      0.64374
Magnitude (Debye)      :      1.63625

Rotational constants in cm-1:     0.017214     0.008316     0.006833
Rotational constants in MHz :   516.063083   249.293492   204.845763

                             ****ORCA TERMINATED NORMALLY****
TOTAL RUN TIME: 0 days 0 hours 0 minutes 21 seconds 327 msec
