                         Program Version 4.2.1 -  RELEASE  -
|  1> ! wB97X-D3 SP def2-SVP
|  2> %pal
|  3> nprocs 24
|  4> end
|  5>
|  6> * xyz 0 1
|  7> S 	 -48.0224 	 21.098 	 27.9812
|  8> C 	 -46.4349 	 20.3311 	 28.242
|  9> C 	 -45.7789 	 20.9452 	 29.2791
| 10> C 	 -46.5808 	 21.8821 	 30.0227
| 11> C 	 -47.7962 	 22.2094 	 29.4338
| 12> H 	 -46.1232 	 22.5147 	 30.7739
| 13> C 	 -44.3129 	 20.7947 	 29.7197
| 14> H 	 -44.0701 	 19.6575 	 29.6635
| 15> H 	 -44.2119 	 21.0316 	 30.8195
| 16> C 	 -43.3473 	 21.5312 	 28.7799
| 17> H 	 -43.7235 	 21.3465 	 27.737
| 18> H 	 -43.5412 	 22.5819 	 28.8712
| 19> C 	 -41.8877 	 21.1208 	 28.996
| 20> H 	 -41.7967 	 20.0458 	 28.914
| 21> H 	 -41.0851 	 21.4835 	 28.346
| 22> H 	 -41.5359 	 21.4509 	 30.0221
| 23> S 	 -49.3641 	 22.7629 	 31.5513
| 24> C 	 -50.7272 	 23.8046 	 31.4936
| 25> C 	 -50.6308 	 24.5926 	 30.3405
| 26> C 	 -49.6124 	 24.1045 	 29.4397
| 27> C 	 -48.821 	 23.0807 	 29.9317
| 28> H 	 -51.2461 	 25.4773 	 30.0729
| 29> C 	 -49.4882 	 24.7673 	 28.101
| 30> H 	 -50.4639 	 24.6873 	 27.6071
| 31> H 	 -48.708 	 24.2494 	 27.5686
| 32> C 	 -49.0751 	 26.2292 	 28.1907
| 33> H 	 -49.8841 	 26.8415 	 28.6052
| 34> H 	 -49.0072 	 26.7308 	 27.2163
| 35> C 	 -47.7067 	 26.3439 	 28.9062
| 36> H 	 -46.9442 	 26.2017 	 28.1444
| 37> H 	 -47.525 	 25.6662 	 29.753
| 38> H 	 -47.627 	 27.2911 	 29.4816
| 39> H 	 -45.9313 	 19.5482 	 27.6823
| 40> H 	 -51.2924 	 24.1679 	 32.3383
| 41> *
| 42>
| 43>                          ****END OF INPUT****

CARTESIAN COORDINATES (ANGSTROEM)
---------------------------------
  S    -48.022400   21.098000   27.981200
  C    -46.434900   20.331100   28.242000
  C    -45.778900   20.945200   29.279100
  C    -46.580800   21.882100   30.022700
  C    -47.796200   22.209400   29.433800
  H    -46.123200   22.514700   30.773900
  C    -44.312900   20.794700   29.719700
  H    -44.070100   19.657500   29.663500
  H    -44.211900   21.031600   30.819500
  C    -43.347300   21.531200   28.779900
  H    -43.723500   21.346500   27.737000
  H    -43.541200   22.581900   28.871200
  C    -41.887700   21.120800   28.996000
  H    -41.796700   20.045800   28.914000
  H    -41.085100   21.483500   28.346000
  H    -41.535900   21.450900   30.022100
  S    -49.364100   22.762900   31.551300
  C    -50.727200   23.804600   31.493600
  C    -50.630800   24.592600   30.340500
  C    -49.612400   24.104500   29.439700
  C    -48.821000   23.080700   29.931700
  H    -51.246100   25.477300   30.072900
  C    -49.488200   24.767300   28.101000
  H    -50.463900   24.687300   27.607100
  H    -48.708000   24.249400   27.568600
  C    -49.075100   26.229200   28.190700
  H    -49.884100   26.841500   28.605200
  H    -49.007200   26.730800   27.216300
  C    -47.706700   26.343900   28.906200
  H    -46.944200   26.201700   28.144400
  H    -47.525000   25.666200   29.753000
  H    -47.627000   27.291100   29.481600
  H    -45.931300   19.548200   27.682300
  H    -51.292400   24.167900   32.338300

 Total Charge           Charge          ....    0
 Multiplicity           Mult            ....    1
 Number of Electrons    NEL             ....  134
 Basis Dimension        Dim             ....  322

ORBITAL ENERGIES
----------------

  NO   OCC          E(Eh)            E(eV)
   0   2.0000     -88.969636     -2420.9869
   1   2.0000     -88.963539     -2420.8210
   2   2.0000     -10.341604      -281.4093
   3   2.0000     -10.327173      -281.0167
   4   2.0000     -10.319504      -280.8080
   5   2.0000     -10.319039      -280.7953
   6   2.0000     -10.305341      -280.4226
   7   2.0000     -10.302613      -280.3484
   8   2.0000     -10.302450      -280.3439
   9   2.0000     -10.299408      -280.2611
  10   2.0000     -10.297865      -280.2192
  11   2.0000     -10.291900      -280.0568
  12   2.0000     -10.287016      -279.9239
  13   2.0000     -10.285624      -279.8861
  14   2.0000     -10.285353      -279.8787
  15   2.0000     -10.276046      -279.6254
  16   2.0000      -8.082100      -219.9251
  17   2.0000      -8.079058      -219.8423
  18   2.0000      -6.040934      -164.3822
  19   2.0000      -6.037649      -164.2928
  20   2.0000      -6.036927      -164.2731
  21   2.0000      -6.033234      -164.1727
  22   2.0000      -6.032617      -164.1559
  23   2.0000      -6.029855      -164.0807
  24   2.0000      -1.007929       -27.4271
  25   2.0000      -0.979796       -26.6616
  26   2.0000      -0.913033       -24.8449
  27   2.0000      -0.907859       -24.7041
  28   2.0000      -0.873917       -23.7805
  29   2.0000      -0.845168       -22.9982
  30   2.0000      -0.840312       -22.8661
  31   2.0000      -0.812965       -22.1219
  32   2.0000      -0.778542       -21.1852
  33   2.0000      -0.769957       -20.9516
  34   2.0000      -0.712656       -19.3924
  35   2.0000      -0.702716       -19.1219
  36   2.0000      -0.699002       -19.0208
  37   2.0000      -0.664766       -18.0892
  38   2.0000      -0.633934       -17.2502
  39   2.0000      -0.614021       -16.7084
  40   2.0000      -0.594175       -16.1683
  41   2.0000      -0.570696       -15.5294
  42   2.0000      -0.558948       -15.2098
  43   2.0000      -0.554536       -15.0897
  44   2.0000      -0.541881       -14.7453
  45   2.0000      -0.524246       -14.2655
  46   2.0000      -0.517820       -14.0906
  47   2.0000      -0.512397       -13.9430
  48   2.0000      -0.503314       -13.6959
  49   2.0000      -0.499969       -13.6049
  50   2.0000      -0.495139       -13.4734
  51   2.0000      -0.475552       -12.9404
  52   2.0000      -0.468791       -12.7565
  53   2.0000      -0.462359       -12.5814
  54   2.0000      -0.457364       -12.4455
  55   2.0000      -0.447268       -12.1708
  56   2.0000      -0.443141       -12.0585
  57   2.0000      -0.433315       -11.7911
  58   2.0000      -0.425960       -11.5910
  59   2.0000      -0.421268       -11.4633
  60   2.0000      -0.418463       -11.3870
  61   2.0000      -0.414448       -11.2777
  62   2.0000      -0.407281       -11.0827
  63   2.0000      -0.349891        -9.5210
  64   2.0000      -0.331852        -9.0302
  65   2.0000      -0.325211        -8.8495
  66   2.0000      -0.296528        -8.0689
  67   0.0000       0.024663         0.6711
  68   0.0000       0.058633         1.5955
  69   0.0000       0.097505         2.6532
  70   0.0000       0.115164         3.1338
  71   0.0000       0.121610         3.3092

MULLIKEN ATOMIC CHARGES
-----------------------
   0 S :    0.103153
   1 C :   -0.111067
   2 C :   -0.100536
   3 C :    0.024234
   4 C :   -0.127809
   5 H :    0.023696
   6 C :   -0.014718
   7 H :    0.035702
   8 H :    0.042618
   9 C :   -0.041114
  10 H :    0.030500
  11 H :    0.022514
  12 C :   -0.045906
  13 H :    0.027001
  14 H :    0.037858
  15 H :    0.034565
  16 S :    0.110451
  17 C :   -0.070211
  18 C :   -0.060789
  19 C :   -0.086218
  20 C :   -0.148752
  21 H :    0.036433
  22 C :    0.096193
  23 H :    0.037759
  24 H :    0.012310
  25 C :   -0.081225
  26 H :    0.017643
  27 H :    0.030036
  28 C :   -0.066019
  29 H :    0.041539
  30 H :    0.042093
  31 H :    0.031684
  32 H :    0.048875
  33 H :    0.067506
Sum of atomic charges:    0.0000000

LOEWDIN ATOMIC CHARGES
----------------------
   0 S :    0.361981
   1 C :   -0.188375
   2 C :   -0.066772
   3 C :   -0.064093
   4 C :   -0.164742
   5 H :    0.032316
   6 C :   -0.038871
   7 H :    0.035127
   8 H :    0.033591
   9 C :   -0.045976
  10 H :    0.030010
  11 H :    0.021788
  12 C :   -0.072736
  13 H :    0.023463
  14 H :    0.028329
  15 H :    0.032310
  16 S :    0.436569
  17 C :   -0.198485
  18 C :   -0.072530
  19 C :   -0.056281
  20 C :   -0.213451
  21 H :    0.036126
  22 C :   -0.031379
  23 H :    0.034704
  24 H :    0.023567
  25 C :   -0.045172
  26 H :    0.017436
  27 H :    0.027650
  28 C :   -0.071860
  29 H :    0.027825
  30 H :    0.028456
  31 H :    0.031239
  32 H :    0.034803
  33 H :    0.033433

  Mayer bond orders larger than 0.100000
B(  0-S ,  1-C ) :   1.1181 B(  0-S ,  4-C ) :   1.1048 B(  1-C ,  2-C ) :   1.6450
B(  1-C , 32-H ) :   0.9632 B(  2-C ,  3-C ) :   1.2377 B(  2-C ,  6-C ) :   1.0178
B(  3-C ,  4-C ) :   1.5819 B(  3-C ,  5-H ) :   0.9833 B(  4-C , 20-C ) :   1.0724
B(  6-C ,  7-H ) :   0.9445 B(  6-C ,  8-H ) :   0.9469 B(  6-C ,  9-C ) :   1.0428
B(  9-C , 10-H ) :   0.9569 B(  9-C , 11-H ) :   0.9539 B(  9-C , 12-C ) :   1.0670
B( 12-C , 13-H ) :   0.9757 B( 12-C , 14-H ) :   0.9761 B( 12-C , 15-H ) :   0.9736
B( 16-S , 17-C ) :   1.1799 B( 16-S , 20-C ) :   1.1339 B( 17-C , 18-C ) :   1.5644
B( 17-C , 33-H ) :   0.9625 B( 18-C , 19-C ) :   1.2691 B( 18-C , 21-H ) :   0.9815
B( 19-C , 20-C ) :   1.5567 B( 19-C , 22-C ) :   1.0523 B( 22-C , 23-H ) :   0.9310
B( 22-C , 24-H ) :   0.9334 B( 22-C , 25-C ) :   1.0779 B( 25-C , 26-H ) :   0.9567
B( 25-C , 27-H ) :   0.9569 B( 25-C , 28-C ) :   1.0523 B( 28-C , 29-H ) :   0.9782
B( 28-C , 30-H ) :   0.9782 B( 28-C , 31-H ) :   0.9730

Dispersion correction           -0.014622429
FINAL SINGLE POINT ENERGY     -1339.869606030524

DIPOLE MOMENT
-------------
                                X             Y             Z
Electronic contribution:    -20.21635     -10.50240       5.83733
Nuclear contribution   :     20.60612      10.95308      -5.87523
                        -----------------------------------------
Total Dipole Moment    :      0.38977       0.45068      -0.03790
                        -----------------------------------------
Magnitude (a.u.)       :      0.59705
Magnitude (Debye)      :      1.51758

Rotational constants in cm-1:     0.021393     0.007499     0.006915
Rotational constants in MHz :   641.354477   224.808757   207.306618

                             ****ORCA TERMINATED NORMALLY****
TOTAL RUN TIME: 0 days 0 hours 0 minutes 20 seconds 271 msec
