                         Program Version 4.2.1 -  RELEASE  -
|  1> ! wB97X-D3 SP def2-SVP
|  2> %pal
|  3> nprocs 24
|  4> end
|  5>
|  6> * xyz 0 1
|  7> S 	 -141.19 	 7.17774 	 -7.67617
|  8> C 	 -141.671 	 8.76554 	 -7.74526
|  9> C 	 -141.947 	 9.21287 	 -6.43824
| 10> C 	 -141.56 	 8.24703 	 -5.39523
| 11> C 	 -141.139 	 7.05046 	 -5.93244
| 12> H 	 -141.631 	 8.39712 	 -4.27862
| 13> C 	 -142.276 	 10.6395 	 -6.2176
| 14> H 	 -141.561 	 11.1395 	 -6.9116
| 15> H 	 -141.996 	 10.9637 	 -5.20258
| 16> C 	 -143.759 	 10.9453 	 -6.49867
| 17> H 	 -143.934 	 10.6761 	 -7.49413
| 18> H 	 -144.411 	 10.3956 	 -5.80362
| 19> C 	 -143.919 	 12.3921 	 -6.22504
| 20> H 	 -143.878 	 12.5562 	 -5.15572
| 21> H 	 -143.239 	 13.0401 	 -6.69523
| 22> H 	 -144.961 	 12.7162 	 -6.42258
| 23> S 	 -141.667 	 4.38197 	 -5.64132
| 24> C 	 -140.932 	 3.52133 	 -4.36468
| 25> C 	 -140.078 	 4.38164 	 -3.63165
| 26> C 	 -140.018 	 5.73002 	 -4.05666
| 27> C 	 -140.744 	 5.88095 	 -5.27023
| 28> H 	 -139.595 	 3.99432 	 -2.74798
| 29> C 	 -139.19 	 6.73832 	 -3.27448
| 30> H 	 -139.534 	 6.75729 	 -2.28056
| 31> H 	 -139.286 	 7.77665 	 -3.65467
| 32> C 	 -137.718 	 6.68642 	 -3.34174
| 33> H 	 -137.378 	 5.74755 	 -3.03351
| 34> H 	 -137.302 	 7.39082 	 -2.59421
| 35> C 	 -137.122 	 6.99711 	 -4.73057
| 36> H 	 -137.455 	 6.37434 	 -5.56363
| 37> H 	 -136.074 	 6.75771 	 -4.69325
| 38> H 	 -137.09 	 8.07223 	 -4.91837
| 39> H 	 -141.768 	 9.40449 	 -8.64923
| 40> H 	 -141.035 	 2.50729 	 -4.12167
| 41> *
| 42>
| 43>                          ****END OF INPUT****

CARTESIAN COORDINATES (ANGSTROEM)
---------------------------------
  S    -141.190000    7.177740   -7.676170
  C    -141.671000    8.765540   -7.745260
  C    -141.947000    9.212870   -6.438240
  C    -141.560000    8.247030   -5.395230
  C    -141.139000    7.050460   -5.932440
  H    -141.631000    8.397120   -4.278620
  C    -142.276000   10.639500   -6.217600
  H    -141.561000   11.139500   -6.911600
  H    -141.996000   10.963700   -5.202580
  C    -143.759000   10.945300   -6.498670
  H    -143.934000   10.676100   -7.494130
  H    -144.411000   10.395600   -5.803620
  C    -143.919000   12.392100   -6.225040
  H    -143.878000   12.556200   -5.155720
  H    -143.239000   13.040100   -6.695230
  H    -144.961000   12.716200   -6.422580
  S    -141.667000    4.381970   -5.641320
  C    -140.932000    3.521330   -4.364680
  C    -140.078000    4.381640   -3.631650
  C    -140.018000    5.730020   -4.056660
  C    -140.744000    5.880950   -5.270230
  H    -139.595000    3.994320   -2.747980
  C    -139.190000    6.738320   -3.274480
  H    -139.534000    6.757290   -2.280560
  H    -139.286000    7.776650   -3.654670
  C    -137.718000    6.686420   -3.341740
  H    -137.378000    5.747550   -3.033510
  H    -137.302000    7.390820   -2.594210
  C    -137.122000    6.997110   -4.730570
  H    -137.455000    6.374340   -5.563630
  H    -136.074000    6.757710   -4.693250
  H    -137.090000    8.072230   -4.918370
  H    -141.768000    9.404490   -8.649230
  H    -141.035000    2.507290   -4.121670

 Total Charge           Charge          ....    0
 Multiplicity           Mult            ....    1
 Number of Electrons    NEL             ....  134
 Basis Dimension        Dim             ....  322

ORBITAL ENERGIES
----------------

  NO   OCC          E(Eh)            E(eV)
   0   2.0000     -88.968061     -2420.9440
   1   2.0000     -88.960803     -2420.7465
   2   2.0000     -10.328227      -281.0453
   3   2.0000     -10.321563      -280.8640
   4   2.0000     -10.314796      -280.6799
   5   2.0000     -10.310748      -280.5697
   6   2.0000     -10.308168      -280.4995
   7   2.0000     -10.299745      -280.2703
   8   2.0000     -10.298407      -280.2339
   9   2.0000     -10.292708      -280.0788
  10   2.0000     -10.286671      -279.9146
  11   2.0000     -10.286329      -279.9052
  12   2.0000     -10.279867      -279.7294
  13   2.0000     -10.278475      -279.6915
  14   2.0000     -10.271066      -279.4899
  15   2.0000     -10.268615      -279.4232
  16   2.0000      -8.082573      -219.9380
  17   2.0000      -8.077238      -219.7928
  18   2.0000      -6.041043      -164.3851
  19   2.0000      -6.036945      -164.2736
  20   2.0000      -6.035591      -164.2368
  21   2.0000      -6.033537      -164.1809
  22   2.0000      -6.031302      -164.1201
  23   2.0000      -6.028246      -164.0369
  24   2.0000      -1.009223       -27.4624
  25   2.0000      -0.984258       -26.7830
  26   2.0000      -0.919937       -25.0328
  27   2.0000      -0.917979       -24.9795
  28   2.0000      -0.877226       -23.8705
  29   2.0000      -0.852550       -23.1991
  30   2.0000      -0.846558       -23.0360
  31   2.0000      -0.810332       -22.0502
  32   2.0000      -0.788647       -21.4602
  33   2.0000      -0.762417       -20.7464
  34   2.0000      -0.708713       -19.2851
  35   2.0000      -0.701812       -19.0973
  36   2.0000      -0.694455       -18.8971
  37   2.0000      -0.658720       -17.9247
  38   2.0000      -0.638785       -17.3822
  39   2.0000      -0.616041       -16.7633
  40   2.0000      -0.601755       -16.3746
  41   2.0000      -0.575832       -15.6692
  42   2.0000      -0.563199       -15.3254
  43   2.0000      -0.560773       -15.2594
  44   2.0000      -0.545987       -14.8571
  45   2.0000      -0.525509       -14.2998
  46   2.0000      -0.520094       -14.1525
  47   2.0000      -0.512619       -13.9491
  48   2.0000      -0.503197       -13.6927
  49   2.0000      -0.501888       -13.6571
  50   2.0000      -0.496042       -13.4980
  51   2.0000      -0.475485       -12.9386
  52   2.0000      -0.468036       -12.7359
  53   2.0000      -0.464673       -12.6444
  54   2.0000      -0.456031       -12.4092
  55   2.0000      -0.448119       -12.1939
  56   2.0000      -0.441689       -12.0190
  57   2.0000      -0.440568       -11.9885
  58   2.0000      -0.437683       -11.9100
  59   2.0000      -0.424220       -11.5436
  60   2.0000      -0.415145       -11.2967
  61   2.0000      -0.410108       -11.1596
  62   2.0000      -0.405250       -11.0274
  63   2.0000      -0.352494        -9.5919
  64   2.0000      -0.333899        -9.0859
  65   2.0000      -0.319069        -8.6823
  66   2.0000      -0.282609        -7.6902
  67   0.0000       0.027886         0.7588
  68   0.0000       0.067305         1.8315
  69   0.0000       0.112741         3.0678
  70   0.0000       0.119733         3.2581
  71   0.0000       0.136612         3.7174

MULLIKEN ATOMIC CHARGES
-----------------------
   0 S :    0.122844
   1 C :   -0.118738
   2 C :   -0.118438
   3 C :    0.025937
   4 C :   -0.163188
   5 H :    0.039282
   6 C :   -0.008218
   7 H :    0.038754
   8 H :    0.013592
   9 C :   -0.025857
  10 H :    0.010625
  11 H :    0.033935
  12 C :   -0.005290
  13 H :    0.015773
  14 H :    0.019368
  15 H :    0.022691
  16 S :    0.118153
  17 C :   -0.070381
  18 C :   -0.055289
  19 C :   -0.023397
  20 C :   -0.146186
  21 H :    0.013196
  22 C :    0.084185
  23 H :    0.020254
  24 H :    0.015198
  25 C :   -0.045552
  26 H :   -0.000700
  27 H :    0.027804
  28 C :   -0.050754
  29 H :    0.050578
  30 H :    0.015118
  31 H :    0.032564
  32 H :    0.070565
  33 H :    0.041571
Sum of atomic charges:   -0.0000000

LOEWDIN ATOMIC CHARGES
----------------------
   0 S :    0.443780
   1 C :   -0.237047
   2 C :   -0.069103
   3 C :   -0.066109
   4 C :   -0.210529
   5 H :    0.042184
   6 C :   -0.039390
   7 H :    0.036712
   8 H :    0.025774
   9 C :   -0.029359
  10 H :    0.013521
  11 H :    0.031964
  12 C :   -0.062013
  13 H :    0.024784
  14 H :    0.016246
  15 H :    0.025988
  16 S :    0.419763
  17 C :   -0.196167
  18 C :   -0.070957
  19 C :   -0.046084
  20 C :   -0.191254
  21 H :    0.026269
  22 C :   -0.035838
  23 H :    0.027089
  24 H :    0.035715
  25 C :   -0.035175
  26 H :    0.007760
  27 H :    0.031766
  28 C :   -0.067346
  29 H :    0.032193
  30 H :    0.025273
  31 H :    0.026631
  32 H :    0.041265
  33 H :    0.021696

  Mayer bond orders larger than 0.100000
B(  0-S ,  1-C ) :   1.1686 B(  0-S ,  4-C ) :   1.1566 B(  1-C ,  2-C ) :   1.5581
B(  1-C , 32-H ) :   0.9650 B(  2-C ,  3-C ) :   1.2637 B(  2-C ,  6-C ) :   1.0220
B(  3-C ,  4-C ) :   1.5471 B(  3-C ,  5-H ) :   0.9828 B(  4-C , 20-C ) :   1.0688
B(  6-C ,  7-H ) :   0.9495 B(  6-C ,  8-H ) :   0.9496 B(  6-C ,  9-C ) :   1.0566
B(  9-C , 10-H ) :   0.9557 B(  9-C , 11-H ) :   0.9524 B(  9-C , 12-C ) :   1.0965
B( 12-C , 13-H ) :   0.9689 B( 12-C , 14-H ) :   0.9714 B( 12-C , 15-H ) :   0.9687
B( 16-S , 17-C ) :   1.1746 B( 16-S , 20-C ) :   1.1505 B( 17-C , 18-C ) :   1.5643
B( 17-C , 20-C ) :   0.1156 B( 17-C , 33-H ) :   0.9754 B( 18-C , 19-C ) :   1.2729
B( 18-C , 21-H ) :   0.9894 B( 19-C , 20-C ) :   1.5382 B( 19-C , 22-C ) :   1.0414
B( 22-C , 23-H ) :   0.9267 B( 22-C , 24-H ) :   0.9333 B( 22-C , 25-C ) :   1.0856
B( 25-C , 26-H ) :   0.9521 B( 25-C , 27-H ) :   0.9478 B( 25-C , 28-C ) :   1.0856
B( 28-C , 29-H ) :   0.9742 B( 28-C , 30-H ) :   0.9692 B( 28-C , 31-H ) :   0.9727

Dispersion correction           -0.014024649
FINAL SINGLE POINT ENERGY     -1339.862382656690

DIPOLE MOMENT
-------------
                                X             Y             Z
Electronic contribution:     -5.25944     -22.44118      -9.06169
Nuclear contribution   :      5.42701      22.86438       9.57181
                        -----------------------------------------
Total Dipole Moment    :      0.16757       0.42320       0.51011
                        -----------------------------------------
Magnitude (a.u.)       :      0.68366
Magnitude (Debye)      :      1.73772

Rotational constants in cm-1:     0.020865     0.007706     0.006710
Rotational constants in MHz :   625.512364   231.018528   201.149710

                             ****ORCA TERMINATED NORMALLY****
TOTAL RUN TIME: 0 days 0 hours 0 minutes 21 seconds 460 msec
