                         Program Version 4.2.1 -  RELEASE  -
|  1> ! wB97X-D3 SP def2-SVP
|  2> %pal
|  3> nprocs 24
|  4> end
|  5>
|  6> * xyz 0 1
|  7> S 	 -113.578 	 33.4316 	 -120.597
|  8> C 	 -112.698 	 32.0045 	 -120.976
|  9> C 	 -112.42 	 31.2363 	 -119.871
| 10> C 	 -113.167 	 31.7143 	 -118.714
| 11> C 	 -113.794 	 32.9315 	 -118.921
| 12> H 	 -113.137 	 31.3424 	 -117.708
| 13> C 	 -111.509 	 30.0187 	 -119.895
| 14> H 	 -111.504 	 29.6627 	 -118.875
| 15> H 	 -110.49 	 30.3029 	 -120.079
| 16> C 	 -112.002 	 28.9474 	 -120.929
| 17> H 	 -113.057 	 28.7624 	 -120.635
| 18> H 	 -111.857 	 29.4114 	 -121.938
| 19> C 	 -111.364 	 27.5978 	 -120.999
| 20> H 	 -111.993 	 27.0408 	 -121.639
| 21> H 	 -110.405 	 27.6173 	 -121.466
| 22> H 	 -111.343 	 27.1326 	 -120.022
| 23> S 	 -113.717 	 35.2091 	 -117.453
| 24> C 	 -114.822 	 35.4135 	 -116.152
| 25> C 	 -115.591 	 34.2506 	 -115.975
| 26> C 	 -115.346 	 33.2702 	 -116.936
| 27> C 	 -114.426 	 33.6615 	 -117.827
| 28> H 	 -116.29 	 34.2663 	 -115.12
| 29> C 	 -116.178 	 32.0135 	 -117.167
| 30> H 	 -115.745 	 31.1745 	 -116.622
| 31> H 	 -115.996 	 31.771 	 -118.205
| 32> C 	 -117.704 	 32.2683 	 -117.1
| 33> H 	 -117.961 	 33.2147 	 -117.654
| 34> H 	 -117.881 	 32.4383 	 -116.019
| 35> C 	 -118.509 	 30.9795 	 -117.457
| 36> H 	 -118.264 	 30.592 	 -118.447
| 37> H 	 -119.541 	 31.1778 	 -117.349
| 38> H 	 -118.444 	 30.2412 	 -116.694
| 39> H 	 -112.245 	 31.7609 	 -121.927
| 40> H 	 -114.766 	 36.1125 	 -115.333
| 41> *
| 42>
| 43>                          ****END OF INPUT****

CARTESIAN COORDINATES (ANGSTROEM)
---------------------------------
  S    -113.578000   33.431600  -120.597000
  C    -112.698000   32.004500  -120.976000
  C    -112.420000   31.236300  -119.871000
  C    -113.167000   31.714300  -118.714000
  C    -113.794000   32.931500  -118.921000
  H    -113.137000   31.342400  -117.708000
  C    -111.509000   30.018700  -119.895000
  H    -111.504000   29.662700  -118.875000
  H    -110.490000   30.302900  -120.079000
  C    -112.002000   28.947400  -120.929000
  H    -113.057000   28.762400  -120.635000
  H    -111.857000   29.411400  -121.938000
  C    -111.364000   27.597800  -120.999000
  H    -111.993000   27.040800  -121.639000
  H    -110.405000   27.617300  -121.466000
  H    -111.343000   27.132600  -120.022000
  S    -113.717000   35.209100  -117.453000
  C    -114.822000   35.413500  -116.152000
  C    -115.591000   34.250600  -115.975000
  C    -115.346000   33.270200  -116.936000
  C    -114.426000   33.661500  -117.827000
  H    -116.290000   34.266300  -115.120000
  C    -116.178000   32.013500  -117.167000
  H    -115.745000   31.174500  -116.622000
  H    -115.996000   31.771000  -118.205000
  C    -117.704000   32.268300  -117.100000
  H    -117.961000   33.214700  -117.654000
  H    -117.881000   32.438300  -116.019000
  C    -118.509000   30.979500  -117.457000
  H    -118.264000   30.592000  -118.447000
  H    -119.541000   31.177800  -117.349000
  H    -118.444000   30.241200  -116.694000
  H    -112.245000   31.760900  -121.927000
  H    -114.766000   36.112500  -115.333000

 Total Charge           Charge          ....    0
 Multiplicity           Mult            ....    1
 Number of Electrons    NEL             ....  134
 Basis Dimension        Dim             ....  322

ORBITAL ENERGIES
----------------

  NO   OCC          E(Eh)            E(eV)
   0   2.0000     -88.967890     -2420.9394
   1   2.0000     -88.963835     -2420.8290
   2   2.0000     -10.326805      -281.0067
   3   2.0000     -10.318167      -280.7716
   4   2.0000     -10.311514      -280.5906
   5   2.0000     -10.308577      -280.5106
   6   2.0000     -10.300159      -280.2816
   7   2.0000     -10.293755      -280.1073
   8   2.0000     -10.292919      -280.0846
   9   2.0000     -10.292867      -280.0832
  10   2.0000     -10.291831      -280.0550
  11   2.0000     -10.291461      -280.0449
  12   2.0000     -10.290355      -280.0148
  13   2.0000     -10.285448      -279.8813
  14   2.0000     -10.273575      -279.5582
  15   2.0000     -10.270426      -279.4725
  16   2.0000      -8.082554      -219.9375
  17   2.0000      -8.079313      -219.8493
  18   2.0000      -6.041096      -164.3866
  19   2.0000      -6.037601      -164.2915
  20   2.0000      -6.037041      -164.2762
  21   2.0000      -6.033719      -164.1859
  22   2.0000      -6.033323      -164.1751
  23   2.0000      -6.030261      -164.0918
  24   2.0000      -1.011922       -27.5358
  25   2.0000      -0.987216       -26.8635
  26   2.0000      -0.910463       -24.7750
  27   2.0000      -0.905410       -24.6375
  28   2.0000      -0.871703       -23.7202
  29   2.0000      -0.854814       -23.2607
  30   2.0000      -0.848938       -23.1008
  31   2.0000      -0.813722       -22.1425
  32   2.0000      -0.783864       -21.3300
  33   2.0000      -0.773885       -21.0585
  34   2.0000      -0.702985       -19.1292
  35   2.0000      -0.701527       -19.0895
  36   2.0000      -0.691504       -18.8168
  37   2.0000      -0.655698       -17.8424
  38   2.0000      -0.641530       -17.4569
  39   2.0000      -0.612095       -16.6560
  40   2.0000      -0.591264       -16.0891
  41   2.0000      -0.573653       -15.6099
  42   2.0000      -0.565023       -15.3750
  43   2.0000      -0.564889       -15.3714
  44   2.0000      -0.528463       -14.3802
  45   2.0000      -0.523966       -14.2578
  46   2.0000      -0.519282       -14.1304
  47   2.0000      -0.512502       -13.9459
  48   2.0000      -0.507319       -13.8049
  49   2.0000      -0.498453       -13.5636
  50   2.0000      -0.493697       -13.4342
  51   2.0000      -0.478158       -13.0113
  52   2.0000      -0.474495       -12.9117
  53   2.0000      -0.467273       -12.7151
  54   2.0000      -0.462661       -12.5896
  55   2.0000      -0.444771       -12.1028
  56   2.0000      -0.443098       -12.0573
  57   2.0000      -0.435521       -11.8511
  58   2.0000      -0.430261       -11.7080
  59   2.0000      -0.424735       -11.5576
  60   2.0000      -0.419850       -11.4247
  61   2.0000      -0.415712       -11.3121
  62   2.0000      -0.408828       -11.1248
  63   2.0000      -0.344660        -9.3787
  64   2.0000      -0.335455        -9.1282
  65   2.0000      -0.326714        -8.8903
  66   2.0000      -0.293767        -7.9938
  67   0.0000       0.036999         1.0068
  68   0.0000       0.067361         1.8330
  69   0.0000       0.120745         3.2856
  70   0.0000       0.132564         3.6073
  71   0.0000       0.135432         3.6853

MULLIKEN ATOMIC CHARGES
-----------------------
   0 S :    0.126619
   1 C :   -0.116604
   2 C :   -0.111469
   3 C :    0.031635
   4 C :   -0.163041
   5 H :    0.010988
   6 C :    0.117793
   7 H :    0.004064
   8 H :    0.028680
   9 C :   -0.148673
  10 H :    0.041523
  11 H :    0.035360
  12 C :    0.018615
  13 H :    0.022792
  14 H :    0.023109
  15 H :    0.027307
  16 S :    0.117730
  17 C :   -0.085331
  18 C :   -0.094685
  19 C :   -0.007457
  20 C :   -0.176817
  21 H :    0.026424
  22 C :    0.072954
  23 H :    0.030973
  24 H :    0.026348
  25 C :   -0.115950
  26 H :    0.056897
  27 H :    0.028237
  28 C :   -0.001730
  29 H :    0.041463
  30 H :    0.017802
  31 H :    0.015665
  32 H :    0.045360
  33 H :    0.053416
Sum of atomic charges:    0.0000000

LOEWDIN ATOMIC CHARGES
----------------------
   0 S :    0.414474
   1 C :   -0.205694
   2 C :   -0.062413
   3 C :   -0.056851
   4 C :   -0.200428
   5 H :    0.028573
   6 C :   -0.031781
   7 H :    0.024773
   8 H :    0.027651
   9 C :   -0.042387
  10 H :    0.030983
  11 H :    0.027021
  12 C :   -0.059231
  13 H :    0.025885
  14 H :    0.020970
  15 H :    0.024835
  16 S :    0.423945
  17 C :   -0.202591
  18 C :   -0.073315
  19 C :   -0.067933
  20 C :   -0.194882
  21 H :    0.034465
  22 C :   -0.032297
  23 H :    0.029897
  24 H :    0.028723
  25 C :   -0.039066
  26 H :    0.035353
  27 H :    0.022563
  28 C :   -0.061765
  29 H :    0.026413
  30 H :    0.023629
  31 H :    0.024095
  32 H :    0.027639
  33 H :    0.028748

  Mayer bond orders larger than 0.100000
B(  0-S ,  1-C ) :   1.1440 B(  0-S ,  4-C ) :   1.1412 B(  1-C ,  2-C ) :   1.6162
B(  1-C , 32-H ) :   0.9666 B(  2-C ,  3-C ) :   1.2390 B(  2-C ,  6-C ) :   1.0254
B(  3-C ,  4-C ) :   1.5776 B(  3-C ,  5-H ) :   0.9918 B(  4-C , 20-C ) :   1.0219
B(  6-C ,  7-H ) :   0.9370 B(  6-C ,  8-H ) :   0.9339 B(  6-C ,  9-C ) :   1.0576
B(  9-C , 10-H ) :   0.9610 B(  9-C , 11-H ) :   0.9530 B(  9-C , 12-C ) :   1.1008
B( 12-C , 13-H ) :   0.9694 B( 12-C , 14-H ) :   0.9698 B( 12-C , 15-H ) :   0.9705
B( 16-S , 17-C ) :   1.1646 B( 16-S , 20-C ) :   1.1538 B( 17-C , 18-C ) :   1.6048
B( 17-C , 20-C ) :   0.1024 B( 17-C , 33-H ) :   0.9640 B( 18-C , 19-C ) :   1.2371
B( 18-C , 21-H ) :   0.9897 B( 19-C , 20-C ) :   1.6228 B( 19-C , 22-C ) :   1.0202
B( 22-C , 23-H ) :   0.9290 B( 22-C , 24-H ) :   0.9387 B( 22-C , 25-C ) :   1.0560
B( 25-C , 26-H ) :   0.9596 B( 25-C , 27-H ) :   0.9519 B( 25-C , 28-C ) :   1.0830
B( 28-C , 29-H ) :   0.9778 B( 28-C , 30-H ) :   0.9697 B( 28-C , 31-H ) :   0.9696

Dispersion correction           -0.013696895
FINAL SINGLE POINT ENERGY     -1339.872958255278

DIPOLE MOMENT
-------------
                                X             Y             Z
Electronic contribution:      6.47814      27.22797       0.38696
Nuclear contribution   :     -6.45339     -27.89768      -0.15070
                        -----------------------------------------
Total Dipole Moment    :      0.02475      -0.66972       0.23626
                        -----------------------------------------
Magnitude (a.u.)       :      0.71060
Magnitude (Debye)      :      1.80620

Rotational constants in cm-1:     0.018490     0.007819     0.006258
Rotational constants in MHz :   554.302914   234.421787   187.603090

                             ****ORCA TERMINATED NORMALLY****
TOTAL RUN TIME: 0 days 0 hours 0 minutes 19 seconds 863 msec
