                         Program Version 4.2.1 -  RELEASE  -
|  1> ! wB97X-D3 SP def2-SVP
|  2> %pal
|  3> nprocs 24
|  4> end
|  5>
|  6> * xyz 0 1
|  7> S 	 -35.679 	 -38.3614 	 -91.4762
|  8> C 	 -34.1323 	 -38.0072 	 -90.7622
|  9> C 	 -34.1081 	 -36.7245 	 -90.2093
| 10> C 	 -35.2751 	 -35.999 	 -90.5829
| 11> C 	 -36.2318 	 -36.6965 	 -91.3244
| 12> H 	 -35.499 	 -34.9786 	 -90.2625
| 13> C 	 -32.9423 	 -36.1057 	 -89.4262
| 14> H 	 -32.6764 	 -35.162 	 -89.9048
| 15> H 	 -32.0393 	 -36.6869 	 -89.6427
| 16> C 	 -33.0867 	 -35.894 	 -87.9232
| 17> H 	 -33.7624 	 -36.4538 	 -87.3792
| 18> H 	 -32.0801 	 -35.9861 	 -87.4513
| 19> C 	 -33.4833 	 -34.4864 	 -87.6144
| 20> H 	 -32.7824 	 -33.8398 	 -88.1024
| 21> H 	 -34.4175 	 -34.3484 	 -88.0068
| 22> H 	 -33.5531 	 -34.231 	 -86.5722
| 23> S 	 -38.8523 	 -37.0367 	 -91.9766
| 24> C 	 -39.7774 	 -35.7174 	 -92.7452
| 25> C 	 -38.9204 	 -34.7123 	 -93.0005
| 26> C 	 -37.5498 	 -34.9533 	 -92.6132
| 27> C 	 -37.3504 	 -36.188 	 -92.0073
| 28> H 	 -39.2512 	 -33.838 	 -93.521
| 29> C 	 -36.5532 	 -33.8627 	 -92.7643
| 30> H 	 -36.3891 	 -33.5894 	 -93.8465
| 31> H 	 -35.5744 	 -34.2101 	 -92.4507
| 32> C 	 -36.934 	 -32.5092 	 -92.0251
| 33> H 	 -37.2124 	 -32.8267 	 -90.9869
| 34> H 	 -37.8392 	 -32.0669 	 -92.4068
| 35> C 	 -35.7147 	 -31.5695 	 -92.0933
| 36> H 	 -35.3641 	 -31.3421 	 -93.1382
| 37> H 	 -34.9104 	 -31.9482 	 -91.5439
| 38> H 	 -35.8537 	 -30.5653 	 -91.7113
| 39> H 	 -33.3378 	 -38.7597 	 -90.6165
| 40> H 	 -40.8174 	 -35.6826 	 -93.0022
| 41> *
| 42>
| 43>                          ****END OF INPUT****

CARTESIAN COORDINATES (ANGSTROEM)
---------------------------------
  S    -35.679000  -38.361400  -91.476200
  C    -34.132300  -38.007200  -90.762200
  C    -34.108100  -36.724500  -90.209300
  C    -35.275100  -35.999000  -90.582900
  C    -36.231800  -36.696500  -91.324400
  H    -35.499000  -34.978600  -90.262500
  C    -32.942300  -36.105700  -89.426200
  H    -32.676400  -35.162000  -89.904800
  H    -32.039300  -36.686900  -89.642700
  C    -33.086700  -35.894000  -87.923200
  H    -33.762400  -36.453800  -87.379200
  H    -32.080100  -35.986100  -87.451300
  C    -33.483300  -34.486400  -87.614400
  H    -32.782400  -33.839800  -88.102400
  H    -34.417500  -34.348400  -88.006800
  H    -33.553100  -34.231000  -86.572200
  S    -38.852300  -37.036700  -91.976600
  C    -39.777400  -35.717400  -92.745200
  C    -38.920400  -34.712300  -93.000500
  C    -37.549800  -34.953300  -92.613200
  C    -37.350400  -36.188000  -92.007300
  H    -39.251200  -33.838000  -93.521000
  C    -36.553200  -33.862700  -92.764300
  H    -36.389100  -33.589400  -93.846500
  H    -35.574400  -34.210100  -92.450700
  C    -36.934000  -32.509200  -92.025100
  H    -37.212400  -32.826700  -90.986900
  H    -37.839200  -32.066900  -92.406800
  C    -35.714700  -31.569500  -92.093300
  H    -35.364100  -31.342100  -93.138200
  H    -34.910400  -31.948200  -91.543900
  H    -35.853700  -30.565300  -91.711300
  H    -33.337800  -38.759700  -90.616500
  H    -40.817400  -35.682600  -93.002200

 Total Charge           Charge          ....    0
 Multiplicity           Mult            ....    1
 Number of Electrons    NEL             ....  134
 Basis Dimension        Dim             ....  322

ORBITAL ENERGIES
----------------

  NO   OCC          E(Eh)            E(eV)
   0   2.0000     -88.967334     -2420.9242
   1   2.0000     -88.961442     -2420.7639
   2   2.0000     -10.329965      -281.0926
   3   2.0000     -10.324998      -280.9575
   4   2.0000     -10.320260      -280.8285
   5   2.0000     -10.317834      -280.7625
   6   2.0000     -10.306360      -280.4503
   7   2.0000     -10.301105      -280.3073
   8   2.0000     -10.297910      -280.2204
   9   2.0000     -10.296653      -280.1862
  10   2.0000     -10.295192      -280.1464
  11   2.0000     -10.291457      -280.0448
  12   2.0000     -10.290097      -280.0078
  13   2.0000     -10.279706      -279.7250
  14   2.0000     -10.279133      -279.7094
  15   2.0000     -10.262995      -279.2703
  16   2.0000      -8.082129      -219.9259
  17   2.0000      -8.076488      -219.7724
  18   2.0000      -6.040669      -164.3749
  19   2.0000      -6.036572      -164.2635
  20   2.0000      -6.035264      -164.2279
  21   2.0000      -6.032909      -164.1638
  22   2.0000      -6.030890      -164.1089
  23   2.0000      -6.026979      -164.0024
  24   2.0000      -1.010929       -27.5088
  25   2.0000      -0.985327       -26.8121
  26   2.0000      -0.919900       -25.0317
  27   2.0000      -0.904494       -24.6125
  28   2.0000      -0.882090       -24.0029
  29   2.0000      -0.853144       -23.2152
  30   2.0000      -0.845320       -23.0023
  31   2.0000      -0.819568       -22.3016
  32   2.0000      -0.784430       -21.3454
  33   2.0000      -0.768088       -20.9007
  34   2.0000      -0.712643       -19.3920
  35   2.0000      -0.704149       -19.1609
  36   2.0000      -0.703102       -19.1324
  37   2.0000      -0.663448       -18.0533
  38   2.0000      -0.641675       -17.4609
  39   2.0000      -0.622961       -16.9516
  40   2.0000      -0.598829       -16.2950
  41   2.0000      -0.581146       -15.8138
  42   2.0000      -0.561286       -15.2734
  43   2.0000      -0.554156       -15.0793
  44   2.0000      -0.545745       -14.8505
  45   2.0000      -0.526911       -14.3380
  46   2.0000      -0.520325       -14.1588
  47   2.0000      -0.516728       -14.0609
  48   2.0000      -0.509916       -13.8755
  49   2.0000      -0.500049       -13.6070
  50   2.0000      -0.491619       -13.3776
  51   2.0000      -0.483469       -13.1558
  52   2.0000      -0.473177       -12.8758
  53   2.0000      -0.463388       -12.6094
  54   2.0000      -0.461229       -12.5507
  55   2.0000      -0.453467       -12.3395
  56   2.0000      -0.442660       -12.0454
  57   2.0000      -0.440362       -11.9828
  58   2.0000      -0.433236       -11.7890
  59   2.0000      -0.423475       -11.5233
  60   2.0000      -0.419330       -11.4105
  61   2.0000      -0.416237       -11.3264
  62   2.0000      -0.412567       -11.2265
  63   2.0000      -0.359909        -9.7936
  64   2.0000      -0.333594        -9.0775
  65   2.0000      -0.324620        -8.8333
  66   2.0000      -0.287382        -7.8201
  67   0.0000       0.022424         0.6102
  68   0.0000       0.073893         2.0107
  69   0.0000       0.110264         3.0004
  70   0.0000       0.119043         3.2393
  71   0.0000       0.122071         3.3217

MULLIKEN ATOMIC CHARGES
-----------------------
   0 S :    0.115370
   1 C :   -0.133291
   2 C :   -0.073851
   3 C :   -0.005416
   4 C :   -0.143751
   5 H :    0.021540
   6 C :    0.057433
   7 H :    0.022974
   8 H :    0.016260
   9 C :   -0.029646
  10 H :    0.020437
  11 H :    0.028910
  12 C :   -0.020322
  13 H :    0.015222
  14 H :    0.000172
  15 H :    0.028125
  16 S :    0.083391
  17 C :   -0.072334
  18 C :   -0.023093
  19 C :   -0.045622
  20 C :   -0.101586
  21 H :    0.013694
  22 C :    0.023835
  23 H :    0.034337
  24 H :    0.015885
  25 C :   -0.079989
  26 H :    0.035625
  27 H :    0.029536
  28 C :   -0.025865
  29 H :    0.030922
  30 H :    0.019324
  31 H :    0.026551
  32 H :    0.061682
  33 H :    0.053541
Sum of atomic charges:    0.0000000

LOEWDIN ATOMIC CHARGES
----------------------
   0 S :    0.410167
   1 C :   -0.198223
   2 C :   -0.065505
   3 C :   -0.063019
   4 C :   -0.193189
   5 H :    0.030690
   6 C :   -0.029410
   7 H :    0.032458
   8 H :    0.033069
   9 C :   -0.034454
  10 H :    0.017197
  11 H :    0.030615
  12 C :   -0.052337
  13 H :    0.018359
  14 H :    0.009177
  15 H :    0.024381
  16 S :    0.392628
  17 C :   -0.167062
  18 C :   -0.066631
  19 C :   -0.059346
  20 C :   -0.206539
  21 H :    0.028790
  22 C :   -0.037964
  23 H :    0.035354
  24 H :    0.024648
  25 C :   -0.034908
  26 H :    0.026814
  27 H :    0.018948
  28 C :   -0.066702
  29 H :    0.031999
  30 H :    0.017524
  31 H :    0.024793
  32 H :    0.034715
  33 H :    0.032963

  Mayer bond orders larger than 0.100000
B(  0-S ,  1-C ) :   1.1575 B(  0-S ,  4-C ) :   1.1418 B(  1-C ,  2-C ) :   1.5861
B(  1-C ,  4-C ) :   0.1074 B(  1-C , 32-H ) :   0.9630 B(  2-C ,  3-C ) :   1.2611
B(  2-C ,  6-C ) :   1.0264 B(  3-C ,  4-C ) :   1.5496 B(  3-C ,  5-H ) :   0.9894
B(  4-C , 20-C ) :   1.0741 B(  6-C ,  7-H ) :   0.9431 B(  6-C ,  8-H ) :   0.9404
B(  6-C ,  9-C ) :   1.0485 B(  9-C , 10-H ) :   0.9629 B(  9-C , 11-H ) :   0.9567
B(  9-C , 12-C ) :   1.0833 B( 12-C , 13-H ) :   0.9754 B( 12-C , 14-H ) :   0.9749
B( 12-C , 15-H ) :   0.9698 B( 16-S , 17-C ) :   1.1285 B( 16-S , 20-C ) :   1.1199
B( 17-C , 18-C ) :   1.6329 B( 17-C , 33-H ) :   0.9708 B( 18-C , 19-C ) :   1.2223
B( 18-C , 21-H ) :   0.9926 B( 19-C , 20-C ) :   1.5827 B( 19-C , 22-C ) :   1.0703
B( 22-C , 23-H ) :   0.9244 B( 22-C , 24-H ) :   0.9411 B( 22-C , 25-C ) :   1.0390
B( 25-C , 26-H ) :   0.9583 B( 25-C , 27-H ) :   0.9551 B( 25-C , 28-C ) :   1.0784
B( 28-C , 29-H ) :   0.9720 B( 28-C , 30-H ) :   0.9753 B( 28-C , 31-H ) :   0.9736

Dispersion correction           -0.014274252
FINAL SINGLE POINT ENERGY     -1339.873791561832

DIPOLE MOMENT
-------------
                                X             Y             Z
Electronic contribution:    -16.35964     -25.58356     -10.39360
Nuclear contribution   :     16.70405      26.28942      10.54159
                        -----------------------------------------
Total Dipole Moment    :      0.34441       0.70587       0.14800
                        -----------------------------------------
Magnitude (a.u.)       :      0.79923
Magnitude (Debye)      :      2.03148

Rotational constants in cm-1:     0.016486     0.009851     0.006879
Rotational constants in MHz :   494.229330   295.323505   206.231519

                             ****ORCA TERMINATED NORMALLY****
TOTAL RUN TIME: 0 days 0 hours 0 minutes 21 seconds 983 msec
