                         Program Version 4.2.1 -  RELEASE  -
|  1> ! wB97X-D3 SP def2-SVP
|  2> %pal
|  3> nprocs 24
|  4> end
|  5>
|  6> * xyz 0 1
|  7> S 	 -93.4902 	 -39.5308 	 -60.8213
|  8> C 	 -93.3431 	 -40.8827 	 -59.7091
|  9> C 	 -93.7554 	 -40.5416 	 -58.4252
| 10> C 	 -94.3002 	 -39.1798 	 -58.4241
| 11> C 	 -94.2728 	 -38.5209 	 -59.6394
| 12> H 	 -94.6693 	 -38.7336 	 -57.5278
| 13> C 	 -93.5116 	 -41.236 	 -57.1699
| 14> H 	 -94.3733 	 -41.0152 	 -56.5372
| 15> H 	 -92.5924 	 -40.8688 	 -56.6712
| 16> C 	 -93.2045 	 -42.7434 	 -57.2753
| 17> H 	 -94.1012 	 -43.1851 	 -57.6238
| 18> H 	 -92.4147 	 -42.8322 	 -58.0342
| 19> C 	 -92.923 	 -43.3543 	 -55.9245
| 20> H 	 -91.9285 	 -43.0862 	 -55.4849
| 21> H 	 -93.7167 	 -42.9589 	 -55.2622
| 22> H 	 -93.0016 	 -44.4655 	 -55.8677
| 23> S 	 -93.5916 	 -36.2109 	 -60.9361
| 24> C 	 -94.7569 	 -34.9526 	 -61.0426
| 25> C 	 -95.9706 	 -35.2683 	 -60.4505
| 26> C 	 -95.887 	 -36.5302 	 -59.7684
| 27> C 	 -94.6607 	 -37.148 	 -59.9643
| 28> H 	 -96.8482 	 -34.6144 	 -60.5714
| 29> C 	 -97.1038 	 -37.1115 	 -59.0453
| 30> H 	 -96.8685 	 -38.0793 	 -58.5696
| 31> H 	 -97.9071 	 -37.3329 	 -59.7932
| 32> C 	 -97.6617 	 -36.2649 	 -57.8841
| 33> H 	 -98.4986 	 -36.8899 	 -57.7056
| 34> H 	 -98.0772 	 -35.3007 	 -58.2511
| 35> C 	 -96.8158 	 -36.1053 	 -56.588
| 36> H 	 -96.3731 	 -37.0413 	 -56.3039
| 37> H 	 -97.4345 	 -35.6203 	 -55.7437
| 38> H 	 -95.9803 	 -35.5424 	 -56.8898
| 39> H 	 -92.8449 	 -41.8404 	 -59.9239
| 40> H 	 -94.5937 	 -34.0685 	 -61.6385
| 41> *
| 42>
| 43>                          ****END OF INPUT****

CARTESIAN COORDINATES (ANGSTROEM)
---------------------------------
  S    -93.490200  -39.530800  -60.821300
  C    -93.343100  -40.882700  -59.709100
  C    -93.755400  -40.541600  -58.425200
  C    -94.300200  -39.179800  -58.424100
  C    -94.272800  -38.520900  -59.639400
  H    -94.669300  -38.733600  -57.527800
  C    -93.511600  -41.236000  -57.169900
  H    -94.373300  -41.015200  -56.537200
  H    -92.592400  -40.868800  -56.671200
  C    -93.204500  -42.743400  -57.275300
  H    -94.101200  -43.185100  -57.623800
  H    -92.414700  -42.832200  -58.034200
  C    -92.923000  -43.354300  -55.924500
  H    -91.928500  -43.086200  -55.484900
  H    -93.716700  -42.958900  -55.262200
  H    -93.001600  -44.465500  -55.867700
  S    -93.591600  -36.210900  -60.936100
  C    -94.756900  -34.952600  -61.042600
  C    -95.970600  -35.268300  -60.450500
  C    -95.887000  -36.530200  -59.768400
  C    -94.660700  -37.148000  -59.964300
  H    -96.848200  -34.614400  -60.571400
  C    -97.103800  -37.111500  -59.045300
  H    -96.868500  -38.079300  -58.569600
  H    -97.907100  -37.332900  -59.793200
  C    -97.661700  -36.264900  -57.884100
  H    -98.498600  -36.889900  -57.705600
  H    -98.077200  -35.300700  -58.251100
  C    -96.815800  -36.105300  -56.588000
  H    -96.373100  -37.041300  -56.303900
  H    -97.434500  -35.620300  -55.743700
  H    -95.980300  -35.542400  -56.889800
  H    -92.844900  -41.840400  -59.923900
  H    -94.593700  -34.068500  -61.638500

 Total Charge           Charge          ....    0
 Multiplicity           Mult            ....    1
 Number of Electrons    NEL             ....  134
 Basis Dimension        Dim             ....  322

ORBITAL ENERGIES
----------------

  NO   OCC          E(Eh)            E(eV)
   0   2.0000     -88.967592     -2420.9313
   1   2.0000     -88.964596     -2420.8497
   2   2.0000     -10.329624      -281.0834
   3   2.0000     -10.324675      -280.9487
   4   2.0000     -10.315766      -280.7063
   5   2.0000     -10.314771      -280.6792
   6   2.0000     -10.303865      -280.3824
   7   2.0000     -10.300183      -280.2822
   8   2.0000     -10.297708      -280.2149
   9   2.0000     -10.296241      -280.1750
  10   2.0000     -10.291955      -280.0583
  11   2.0000     -10.291039      -280.0334
  12   2.0000     -10.286815      -279.9185
  13   2.0000     -10.285704      -279.8882
  14   2.0000     -10.285498      -279.8826
  15   2.0000     -10.281371      -279.7703
  16   2.0000      -8.083465      -219.9623
  17   2.0000      -8.079280      -219.8484
  18   2.0000      -6.041787      -164.4054
  19   2.0000      -6.037962      -164.3013
  20   2.0000      -6.037823      -164.2975
  21   2.0000      -6.034359      -164.2033
  22   2.0000      -6.033743      -164.1865
  23   2.0000      -6.029921      -164.0825
  24   2.0000      -1.010060       -27.4851
  25   2.0000      -0.984728       -26.7958
  26   2.0000      -0.921064       -25.0634
  27   2.0000      -0.907485       -24.6939
  28   2.0000      -0.869155       -23.6509
  29   2.0000      -0.851388       -23.1674
  30   2.0000      -0.846795       -23.0425
  31   2.0000      -0.812406       -22.1067
  32   2.0000      -0.784711       -21.3531
  33   2.0000      -0.771556       -20.9951
  34   2.0000      -0.712583       -19.3904
  35   2.0000      -0.701107       -19.0781
  36   2.0000      -0.687695       -18.7131
  37   2.0000      -0.659001       -17.9323
  38   2.0000      -0.634960       -17.2782
  39   2.0000      -0.617124       -16.7928
  40   2.0000      -0.599400       -16.3105
  41   2.0000      -0.580749       -15.8030
  42   2.0000      -0.569497       -15.4968
  43   2.0000      -0.546998       -14.8846
  44   2.0000      -0.539844       -14.6899
  45   2.0000      -0.522508       -14.2182
  46   2.0000      -0.516654       -14.0589
  47   2.0000      -0.510883       -13.9018
  48   2.0000      -0.503339       -13.6966
  49   2.0000      -0.498663       -13.5693
  50   2.0000      -0.495907       -13.4943
  51   2.0000      -0.478342       -13.0163
  52   2.0000      -0.470089       -12.7918
  53   2.0000      -0.465107       -12.6562
  54   2.0000      -0.460094       -12.5198
  55   2.0000      -0.453729       -12.3466
  56   2.0000      -0.448666       -12.2088
  57   2.0000      -0.442707       -12.0467
  58   2.0000      -0.431999       -11.7553
  59   2.0000      -0.427928       -11.6445
  60   2.0000      -0.420979       -11.4554
  61   2.0000      -0.415645       -11.3103
  62   2.0000      -0.408501       -11.1159
  63   2.0000      -0.349904        -9.5214
  64   2.0000      -0.333071        -9.0633
  65   2.0000      -0.323274        -8.7967
  66   2.0000      -0.290963        -7.9175
  67   0.0000       0.033788         0.9194
  68   0.0000       0.071320         1.9407
  69   0.0000       0.115720         3.1489
  70   0.0000       0.119345         3.2476
  71   0.0000       0.124109         3.3772

MULLIKEN ATOMIC CHARGES
-----------------------
   0 S :    0.104470
   1 C :   -0.141084
   2 C :   -0.076202
   3 C :    0.032775
   4 C :   -0.132076
   5 H :   -0.012193
   6 C :    0.018707
   7 H :    0.027577
   8 H :    0.049334
   9 C :   -0.071395
  10 H :    0.021916
  11 H :    0.034711
  12 C :   -0.058288
  13 H :    0.039181
  14 H :    0.029200
  15 H :    0.042853
  16 S :    0.119831
  17 C :   -0.095941
  18 C :   -0.041957
  19 C :   -0.030737
  20 C :   -0.149247
  21 H :    0.033240
  22 C :    0.029175
  23 H :    0.017484
  24 H :    0.049467
  25 C :   -0.079775
  26 H :    0.017348
  27 H :    0.028482
  28 C :   -0.031364
  29 H :    0.018900
  30 H :    0.061736
  31 H :    0.031765
  32 H :    0.056852
  33 H :    0.055256
Sum of atomic charges:   -0.0000000

LOEWDIN ATOMIC CHARGES
----------------------
   0 S :    0.402399
   1 C :   -0.208066
   2 C :   -0.063631
   3 C :   -0.063718
   4 C :   -0.190011
   5 H :    0.020542
   6 C :   -0.038506
   7 H :    0.030361
   8 H :    0.041731
   9 C :   -0.040227
  10 H :    0.020683
  11 H :    0.023047
  12 C :   -0.070719
  13 H :    0.027572
  14 H :    0.029637
  15 H :    0.030672
  16 S :    0.430864
  17 C :   -0.191837
  18 C :   -0.070963
  19 C :   -0.057264
  20 C :   -0.214154
  21 H :    0.037783
  22 C :   -0.033307
  23 H :    0.029310
  24 H :    0.041314
  25 C :   -0.042522
  26 H :    0.019288
  27 H :    0.021014
  28 C :   -0.063823
  29 H :    0.019418
  30 H :    0.043278
  31 H :    0.022279
  32 H :    0.031266
  33 H :    0.026289

  Mayer bond orders larger than 0.100000
B(  0-S ,  1-C ) :   1.1247 B(  0-S ,  4-C ) :   1.1471 B(  1-C ,  2-C ) :   1.6139
B(  1-C , 32-H ) :   0.9612 B(  2-C ,  3-C ) :   1.2352 B(  2-C ,  6-C ) :   1.0403
B(  3-C ,  4-C ) :   1.5777 B(  3-C ,  5-H ) :   0.9986 B(  4-C , 20-C ) :   1.0351
B(  6-C ,  7-H ) :   0.9312 B(  6-C ,  8-H ) :   0.9334 B(  6-C ,  9-C ) :   1.0721
B(  9-C , 10-H ) :   0.9557 B(  9-C , 11-H ) :   0.9478 B(  9-C , 12-C ) :   1.0865
B( 12-C , 13-H ) :   0.9736 B( 12-C , 14-H ) :   0.9701 B( 12-C , 15-H ) :   0.9740
B( 16-S , 17-C ) :   1.1702 B( 16-S , 20-C ) :   1.1467 B( 17-C , 18-C ) :   1.6002
B( 17-C , 33-H ) :   0.9683 B( 18-C , 19-C ) :   1.2399 B( 18-C , 21-H ) :   0.9899
B( 19-C , 20-C ) :   1.5858 B( 19-C , 22-C ) :   1.0413 B( 22-C , 23-H ) :   0.9332
B( 22-C , 24-H ) :   0.9374 B( 22-C , 25-C ) :   1.0694 B( 25-C , 26-H ) :   0.9557
B( 25-C , 27-H ) :   0.9554 B( 25-C , 28-C ) :   1.0628 B( 28-C , 29-H ) :   0.9702
B( 28-C , 30-H ) :   0.9725 B( 28-C , 31-H ) :   0.9766

Dispersion correction           -0.013959902
FINAL SINGLE POINT ENERGY     -1339.885576342410

DIPOLE MOMENT
-------------
                                X             Y             Z
Electronic contribution:      9.46165      11.11656     -24.51785
Nuclear contribution   :     -9.78717     -11.18822      24.96173
                        -----------------------------------------
Total Dipole Moment    :     -0.32551      -0.07165       0.44387
                        -----------------------------------------
Magnitude (a.u.)       :      0.55508
Magnitude (Debye)      :      1.41091

Rotational constants in cm-1:     0.020936     0.007818     0.006093
Rotational constants in MHz :   627.659832   234.367768   182.652058

                             ****ORCA TERMINATED NORMALLY****
TOTAL RUN TIME: 0 days 0 hours 0 minutes 21 seconds 401 msec
