                         Program Version 4.2.1 -  RELEASE  -
|  1> ! wB97X-D3 SP def2-SVP
|  2> %pal
|  3> nprocs 24
|  4> end
|  5>
|  6> * xyz 0 1
|  7> S 	 -129.206 	 60.0647 	 -58.9437
|  8> C 	 -127.773 	 60.4978 	 -59.8569
|  9> C 	 -126.959 	 61.4009 	 -59.1051
| 10> C 	 -127.413 	 61.4631 	 -57.7503
| 11> C 	 -128.508 	 60.6491 	 -57.5085
| 12> H 	 -127.013 	 62.016 	 -56.9427
| 13> C 	 -125.703 	 62.1053 	 -59.5689
| 14> H 	 -125.213 	 61.4008 	 -60.2539
| 15> H 	 -124.958 	 62.1948 	 -58.8037
| 16> C 	 -126.013 	 63.4301 	 -60.2447
| 17> H 	 -126.776 	 63.3613 	 -61.0729
| 18> H 	 -126.527 	 64.0317 	 -59.5801
| 19> C 	 -124.793 	 64.1068 	 -60.8697
| 20> H 	 -123.969 	 63.9197 	 -60.1606
| 21> H 	 -124.517 	 63.7292 	 -61.9142
| 22> H 	 -124.952 	 65.2182 	 -60.9275
| 23> S 	 -130.834 	 60.7783 	 -56.0685
| 24> C 	 -130.788 	 60.6817 	 -54.3521
| 25> C 	 -129.519 	 60.3052 	 -53.9154
| 26> C 	 -128.556 	 60.2347 	 -55.0108
| 27> C 	 -129.153 	 60.44 	 -56.2247
| 28> H 	 -129.349 	 60.3593 	 -52.8251
| 29> C 	 -127.1 	 60.0067 	 -54.809
| 30> H 	 -126.878 	 60.5797 	 -53.9146
| 31> H 	 -126.468 	 60.5571 	 -55.4895
| 32> C 	 -126.626 	 58.5285 	 -54.7726
| 33> H 	 -126.824 	 58.0691 	 -55.8231
| 34> H 	 -127.278 	 58.1357 	 -53.9741
| 35> C 	 -125.253 	 58.4405 	 -54.2151
| 36> H 	 -124.877 	 57.4218 	 -54.008
| 37> H 	 -125.091 	 58.877 	 -53.1904
| 38> H 	 -124.552 	 58.8346 	 -54.9171
| 39> H 	 -127.46 	 60.0695 	 -60.7697
| 40> H 	 -131.528 	 61.0292 	 -53.6947
| 41> *
| 42>
| 43>                          ****END OF INPUT****

CARTESIAN COORDINATES (ANGSTROEM)
---------------------------------
  S    -129.206000   60.064700  -58.943700
  C    -127.773000   60.497800  -59.856900
  C    -126.959000   61.400900  -59.105100
  C    -127.413000   61.463100  -57.750300
  C    -128.508000   60.649100  -57.508500
  H    -127.013000   62.016000  -56.942700
  C    -125.703000   62.105300  -59.568900
  H    -125.213000   61.400800  -60.253900
  H    -124.958000   62.194800  -58.803700
  C    -126.013000   63.430100  -60.244700
  H    -126.776000   63.361300  -61.072900
  H    -126.527000   64.031700  -59.580100
  C    -124.793000   64.106800  -60.869700
  H    -123.969000   63.919700  -60.160600
  H    -124.517000   63.729200  -61.914200
  H    -124.952000   65.218200  -60.927500
  S    -130.834000   60.778300  -56.068500
  C    -130.788000   60.681700  -54.352100
  C    -129.519000   60.305200  -53.915400
  C    -128.556000   60.234700  -55.010800
  C    -129.153000   60.440000  -56.224700
  H    -129.349000   60.359300  -52.825100
  C    -127.100000   60.006700  -54.809000
  H    -126.878000   60.579700  -53.914600
  H    -126.468000   60.557100  -55.489500
  C    -126.626000   58.528500  -54.772600
  H    -126.824000   58.069100  -55.823100
  H    -127.278000   58.135700  -53.974100
  C    -125.253000   58.440500  -54.215100
  H    -124.877000   57.421800  -54.008000
  H    -125.091000   58.877000  -53.190400
  H    -124.552000   58.834600  -54.917100
  H    -127.460000   60.069500  -60.769700
  H    -131.528000   61.029200  -53.694700

 Total Charge           Charge          ....    0
 Multiplicity           Mult            ....    1
 Number of Electrons    NEL             ....  134
 Basis Dimension        Dim             ....  322

ORBITAL ENERGIES
----------------

  NO   OCC          E(Eh)            E(eV)
   0   2.0000     -88.967605     -2420.9316
   1   2.0000     -88.964152     -2420.8376
   2   2.0000     -10.324147      -280.9343
   3   2.0000     -10.320176      -280.8263
   4   2.0000     -10.313468      -280.6437
   5   2.0000     -10.313114      -280.6341
   6   2.0000     -10.307076      -280.4698
   7   2.0000     -10.301440      -280.3164
   8   2.0000     -10.299332      -280.2591
   9   2.0000     -10.292180      -280.0645
  10   2.0000     -10.291984      -280.0591
  11   2.0000     -10.289398      -279.9888
  12   2.0000     -10.287887      -279.9476
  13   2.0000     -10.283587      -279.8306
  14   2.0000     -10.282085      -279.7897
  15   2.0000     -10.277169      -279.6560
  16   2.0000      -8.083141      -219.9534
  17   2.0000      -8.080114      -219.8711
  18   2.0000      -6.041523      -164.3982
  19   2.0000      -6.038551      -164.3173
  20   2.0000      -6.037636      -164.2924
  21   2.0000      -6.034438      -164.2054
  22   2.0000      -6.033908      -164.1910
  23   2.0000      -6.030893      -164.1090
  24   2.0000      -1.013644       -27.5827
  25   2.0000      -0.986856       -26.8537
  26   2.0000      -0.915627       -24.9155
  27   2.0000      -0.912753       -24.8373
  28   2.0000      -0.869429       -23.6584
  29   2.0000      -0.856729       -23.3128
  30   2.0000      -0.846740       -23.0410
  31   2.0000      -0.813481       -22.1359
  32   2.0000      -0.782181       -21.2842
  33   2.0000      -0.771127       -20.9834
  34   2.0000      -0.703768       -19.1505
  35   2.0000      -0.700977       -19.0746
  36   2.0000      -0.693898       -18.8819
  37   2.0000      -0.663742       -18.0613
  38   2.0000      -0.645619       -17.5682
  39   2.0000      -0.621874       -16.9220
  40   2.0000      -0.597617       -16.2620
  41   2.0000      -0.571869       -15.5614
  42   2.0000      -0.564924       -15.3724
  43   2.0000      -0.556146       -15.1335
  44   2.0000      -0.528503       -14.3813
  45   2.0000      -0.525830       -14.3086
  46   2.0000      -0.521559       -14.1923
  47   2.0000      -0.512077       -13.9343
  48   2.0000      -0.505661       -13.7597
  49   2.0000      -0.502701       -13.6792
  50   2.0000      -0.499813       -13.6006
  51   2.0000      -0.476415       -12.9639
  52   2.0000      -0.473154       -12.8752
  53   2.0000      -0.466080       -12.6827
  54   2.0000      -0.455653       -12.3990
  55   2.0000      -0.450658       -12.2630
  56   2.0000      -0.446217       -12.1422
  57   2.0000      -0.437947       -11.9171
  58   2.0000      -0.429867       -11.6973
  59   2.0000      -0.424760       -11.5583
  60   2.0000      -0.421460       -11.4685
  61   2.0000      -0.409609       -11.1460
  62   2.0000      -0.405658       -11.0385
  63   2.0000      -0.348986        -9.4964
  64   2.0000      -0.331732        -9.0269
  65   2.0000      -0.328345        -8.9347
  66   2.0000      -0.284440        -7.7400
  67   0.0000       0.030362         0.8262
  68   0.0000       0.063939         1.7399
  69   0.0000       0.107296         2.9197
  70   0.0000       0.115066         3.1311
  71   0.0000       0.138662         3.7732

MULLIKEN ATOMIC CHARGES
-----------------------
   0 S :    0.120937
   1 C :   -0.103935
   2 C :   -0.101077
   3 C :    0.035708
   4 C :   -0.162583
   5 H :    0.006013
   6 C :    0.076516
   7 H :    0.018369
   8 H :    0.016798
   9 C :   -0.054134
  10 H :    0.030956
  11 H :    0.007393
  12 C :   -0.068258
  13 H :    0.027515
  14 H :    0.051969
  15 H :    0.043702
  16 S :    0.108631
  17 C :   -0.089147
  18 C :   -0.040208
  19 C :   -0.066270
  20 C :   -0.104966
  21 H :    0.032585
  22 C :    0.049828
  23 H :    0.008326
  24 H :   -0.002951
  25 C :   -0.054953
  26 H :    0.065484
  27 H :    0.027286
  28 C :   -0.048513
  29 H :    0.029157
  30 H :    0.034712
  31 H :    0.023593
  32 H :    0.035903
  33 H :    0.045614
Sum of atomic charges:   -0.0000000

LOEWDIN ATOMIC CHARGES
----------------------
   0 S :    0.428219
   1 C :   -0.199656
   2 C :   -0.046929
   3 C :   -0.063640
   4 C :   -0.202585
   5 H :    0.024354
   6 C :   -0.032707
   7 H :    0.032577
   8 H :    0.025588
   9 C :   -0.043442
  10 H :    0.032105
  11 H :    0.014077
  12 C :   -0.073469
  13 H :    0.022723
  14 H :    0.033808
  15 H :    0.032659
  16 S :    0.423133
  17 C :   -0.190409
  18 C :   -0.071973
  19 C :   -0.059688
  20 C :   -0.208422
  21 H :    0.036479
  22 C :   -0.040858
  23 H :    0.029422
  24 H :    0.021603
  25 C :   -0.042367
  26 H :    0.044440
  27 H :    0.027954
  28 C :   -0.075254
  29 H :    0.027789
  30 H :    0.033674
  31 H :    0.019390
  32 H :    0.018954
  33 H :    0.022451

  Mayer bond orders larger than 0.100000
B(  0-S ,  1-C ) :   1.1444 B(  0-S ,  4-C ) :   1.1729 B(  1-C ,  2-C ) :   1.5743
B(  1-C ,  4-C ) :   0.1101 B(  1-C , 32-H ) :   0.9773 B(  2-C ,  3-C ) :   1.2500
B(  2-C ,  6-C ) :   1.0308 B(  3-C ,  4-C ) :   1.5487 B(  3-C ,  5-H ) :   0.9970
B(  4-C , 20-C ) :   1.0211 B(  6-C ,  7-H ) :   0.9379 B(  6-C ,  8-H ) :   0.9394
B(  6-C ,  9-C ) :   1.0560 B(  9-C , 10-H ) :   0.9551 B(  9-C , 11-H ) :   0.9546
B(  9-C , 12-C ) :   1.0727 B( 12-C , 13-H ) :   0.9741 B( 12-C , 14-H ) :   0.9762
B( 12-C , 15-H ) :   0.9742 B( 16-S , 17-C ) :   1.1634 B( 16-S , 20-C ) :   1.1397
B( 17-C , 18-C ) :   1.6182 B( 17-C , 33-H ) :   0.9732 B( 18-C , 19-C ) :   1.2243
B( 18-C , 21-H ) :   0.9838 B( 19-C , 20-C ) :   1.6174 B( 19-C , 22-C ) :   1.0553
B( 22-C , 23-H ) :   0.9277 B( 22-C , 24-H ) :   0.9245 B( 22-C , 25-C ) :   1.0520
B( 25-C , 26-H ) :   0.9513 B( 25-C , 27-H ) :   0.9540 B( 25-C , 28-C ) :   1.0860
B( 28-C , 29-H ) :   0.9704 B( 28-C , 30-H ) :   0.9697 B( 28-C , 31-H ) :   0.9726

Dispersion correction           -0.013827749
FINAL SINGLE POINT ENERGY     -1339.860439504695

DIPOLE MOMENT
-------------
                                X             Y             Z
Electronic contribution:    -27.77551      -5.17788      -0.13074
Nuclear contribution   :     28.40346       5.47720       0.40584
                        -----------------------------------------
Total Dipole Moment    :      0.62795       0.29933       0.27510
                        -----------------------------------------
Magnitude (a.u.)       :      0.74806
Magnitude (Debye)      :      1.90143

Rotational constants in cm-1:     0.018109     0.008186     0.006613
Rotational constants in MHz :   542.884710   245.407549   198.250002

                             ****ORCA TERMINATED NORMALLY****
TOTAL RUN TIME: 0 days 0 hours 0 minutes 20 seconds 420 msec
