                         Program Version 4.2.1 -  RELEASE  -
|  1> ! wB97X-D3 SP def2-SVP
|  2> %pal
|  3> nprocs 24
|  4> end
|  5>
|  6> * xyz 0 1
|  7> S 	 -49.1402 	 19.4085 	 31.2198
|  8> C 	 -48.7993 	 18.0977 	 30.123
|  9> C 	 -48.8477 	 18.5025 	 28.7875
| 10> C 	 -49.2351 	 19.8866 	 28.6734
| 11> C 	 -49.3415 	 20.5824 	 29.9083
| 12> H 	 -49.4475 	 20.3881 	 27.743
| 13> C 	 -48.477 	 17.69 	 27.6136
| 14> H 	 -47.5186 	 17.2784 	 27.8052
| 15> H 	 -48.2871 	 18.3919 	 26.8224
| 16> C 	 -49.4551 	 16.5843 	 27.3379
| 17> H 	 -49.1322 	 15.8864 	 26.5499
| 18> H 	 -49.3941 	 15.931 	 28.2512
| 19> C 	 -50.9233 	 16.9923 	 27.0818
| 20> H 	 -50.8696 	 17.7497 	 26.3272
| 21> H 	 -51.7291 	 16.1618 	 26.9041
| 22> H 	 -51.3118 	 17.5371 	 27.8896
| 23> S 	 -51.4349 	 22.485 	 30.4723
| 24> C 	 -50.9583 	 24.1205 	 30.3704
| 25> C 	 -49.5659 	 24.2696 	 30.3982
| 26> C 	 -48.873 	 23.0736 	 30.297
| 27> C 	 -49.7299 	 22.0149 	 30.1616
| 28> H 	 -49.1453 	 25.2239 	 30.5161
| 29> C 	 -47.3792 	 23.0407 	 30.1419
| 30> H 	 -47.1251 	 23.7835 	 29.3928
| 31> H 	 -47.1555 	 22.1997 	 29.6241
| 32> C 	 -46.5043 	 23.0871 	 31.414
| 33> H 	 -45.5479 	 22.6136 	 31.1255
| 34> H 	 -46.9657 	 22.4575 	 32.1068
| 35> C 	 -46.2499 	 24.4679 	 31.9415
| 36> H 	 -47.029 	 25.1193 	 32.2478
| 37> H 	 -45.8395 	 25.0448 	 31.0858
| 38> H 	 -45.5169 	 24.355 	 32.6978
| 39> H 	 -48.3729 	 17.0855 	 30.2754
| 40> H 	 -51.5407 	 24.9967 	 30.6117
| 41> *
| 42>
| 43>                          ****END OF INPUT****

CARTESIAN COORDINATES (ANGSTROEM)
---------------------------------
  S    -49.140200   19.408500   31.219800
  C    -48.799300   18.097700   30.123000
  C    -48.847700   18.502500   28.787500
  C    -49.235100   19.886600   28.673400
  C    -49.341500   20.582400   29.908300
  H    -49.447500   20.388100   27.743000
  C    -48.477000   17.690000   27.613600
  H    -47.518600   17.278400   27.805200
  H    -48.287100   18.391900   26.822400
  C    -49.455100   16.584300   27.337900
  H    -49.132200   15.886400   26.549900
  H    -49.394100   15.931000   28.251200
  C    -50.923300   16.992300   27.081800
  H    -50.869600   17.749700   26.327200
  H    -51.729100   16.161800   26.904100
  H    -51.311800   17.537100   27.889600
  S    -51.434900   22.485000   30.472300
  C    -50.958300   24.120500   30.370400
  C    -49.565900   24.269600   30.398200
  C    -48.873000   23.073600   30.297000
  C    -49.729900   22.014900   30.161600
  H    -49.145300   25.223900   30.516100
  C    -47.379200   23.040700   30.141900
  H    -47.125100   23.783500   29.392800
  H    -47.155500   22.199700   29.624100
  C    -46.504300   23.087100   31.414000
  H    -45.547900   22.613600   31.125500
  H    -46.965700   22.457500   32.106800
  C    -46.249900   24.467900   31.941500
  H    -47.029000   25.119300   32.247800
  H    -45.839500   25.044800   31.085800
  H    -45.516900   24.355000   32.697800
  H    -48.372900   17.085500   30.275400
  H    -51.540700   24.996700   30.611700

 Total Charge           Charge          ....    0
 Multiplicity           Mult            ....    1
 Number of Electrons    NEL             ....  134
 Basis Dimension        Dim             ....  322

ORBITAL ENERGIES
----------------

  NO   OCC          E(Eh)            E(eV)
   0   2.0000     -88.969593     -2420.9857
   1   2.0000     -88.969407     -2420.9806
   2   2.0000     -10.335570      -281.2452
   3   2.0000     -10.327826      -281.0344
   4   2.0000     -10.315805      -280.7073
   5   2.0000     -10.313965      -280.6573
   6   2.0000     -10.298310      -280.2313
   7   2.0000     -10.298041      -280.2239
   8   2.0000     -10.295574      -280.1568
   9   2.0000     -10.290521      -280.0193
  10   2.0000     -10.285666      -279.8872
  11   2.0000     -10.283900      -279.8391
  12   2.0000     -10.281521      -279.7744
  13   2.0000     -10.276493      -279.6376
  14   2.0000     -10.276181      -279.6291
  15   2.0000     -10.270706      -279.4801
  16   2.0000      -8.084132      -219.9804
  17   2.0000      -8.083213      -219.9554
  18   2.0000      -6.042511      -164.4251
  19   2.0000      -6.041859      -164.4073
  20   2.0000      -6.038838      -164.3251
  21   2.0000      -6.037622      -164.2920
  22   2.0000      -6.034861      -164.2169
  23   2.0000      -6.034107      -164.1964
  24   2.0000      -1.003493       -27.3064
  25   2.0000      -0.983723       -26.7685
  26   2.0000      -0.918530       -24.9945
  27   2.0000      -0.913885       -24.8681
  28   2.0000      -0.862275       -23.4637
  29   2.0000      -0.855212       -23.2715
  30   2.0000      -0.842735       -22.9320
  31   2.0000      -0.811234       -22.0748
  32   2.0000      -0.791030       -21.5250
  33   2.0000      -0.776136       -21.1197
  34   2.0000      -0.708623       -19.2826
  35   2.0000      -0.705795       -19.2057
  36   2.0000      -0.694051       -18.8861
  37   2.0000      -0.660386       -17.9700
  38   2.0000      -0.632815       -17.2198
  39   2.0000      -0.612540       -16.6681
  40   2.0000      -0.599597       -16.3159
  41   2.0000      -0.576252       -15.6806
  42   2.0000      -0.553112       -15.0510
  43   2.0000      -0.551258       -15.0005
  44   2.0000      -0.548122       -14.9152
  45   2.0000      -0.540561       -14.7094
  46   2.0000      -0.521808       -14.1991
  47   2.0000      -0.508163       -13.8278
  48   2.0000      -0.501278       -13.6405
  49   2.0000      -0.489949       -13.3322
  50   2.0000      -0.488810       -13.3012
  51   2.0000      -0.477594       -12.9960
  52   2.0000      -0.469818       -12.7844
  53   2.0000      -0.467793       -12.7293
  54   2.0000      -0.461106       -12.5473
  55   2.0000      -0.448991       -12.2177
  56   2.0000      -0.443807       -12.0766
  57   2.0000      -0.435342       -11.8462
  58   2.0000      -0.432567       -11.7707
  59   2.0000      -0.425551       -11.5798
  60   2.0000      -0.424025       -11.5383
  61   2.0000      -0.417044       -11.3483
  62   2.0000      -0.409362       -11.1393
  63   2.0000      -0.336661        -9.1610
  64   2.0000      -0.330234        -8.9861
  65   2.0000      -0.316975        -8.6253
  66   2.0000      -0.309786        -8.4297
  67   0.0000       0.041962         1.1418
  68   0.0000       0.044157         1.2016
  69   0.0000       0.113387         3.0854
  70   0.0000       0.121324         3.3014
  71   0.0000       0.129304         3.5185

MULLIKEN ATOMIC CHARGES
-----------------------
   0 S :    0.122918
   1 C :   -0.109100
   2 C :   -0.159284
   3 C :    0.053627
   4 C :   -0.197616
   5 H :    0.010009
   6 C :    0.119469
   7 H :    0.020261
   8 H :    0.012458
   9 C :   -0.079960
  10 H :    0.031954
  11 H :    0.019249
  12 C :   -0.043290
  13 H :    0.016182
  14 H :    0.057175
  15 H :    0.025913
  16 S :    0.133118
  17 C :   -0.075062
  18 C :   -0.049801
  19 C :    0.009119
  20 C :   -0.199739
  21 H :   -0.005695
  22 C :    0.110136
  23 H :    0.014775
  24 H :   -0.016915
  25 C :   -0.026686
  26 H :    0.031280
  27 H :    0.014275
  28 C :   -0.020713
  29 H :    0.028819
  30 H :    0.014538
  31 H :    0.029675
  32 H :    0.055185
  33 H :    0.053726
Sum of atomic charges:    0.0000000

LOEWDIN ATOMIC CHARGES
----------------------
   0 S :    0.409646
   1 C :   -0.213323
   2 C :   -0.066004
   3 C :   -0.057461
   4 C :   -0.194812
   5 H :    0.028592
   6 C :   -0.032456
   7 H :    0.033589
   8 H :    0.027455
   9 C :   -0.041928
  10 H :    0.024071
  11 H :    0.024118
  12 C :   -0.071839
  13 H :    0.020657
  14 H :    0.043167
  15 H :    0.018848
  16 S :    0.413606
  17 C :   -0.196791
  18 C :   -0.068463
  19 C :   -0.047902
  20 C :   -0.197987
  21 H :    0.020625
  22 C :   -0.024743
  23 H :    0.031245
  24 H :    0.017001
  25 C :   -0.024919
  26 H :    0.032809
  27 H :    0.016598
  28 C :   -0.063687
  29 H :    0.019891
  30 H :    0.028461
  31 H :    0.024064
  32 H :    0.038309
  33 H :    0.029563

  Mayer bond orders larger than 0.100000
B(  0-S ,  1-C ) :   1.1486 B(  0-S ,  4-C ) :   1.1570 B(  1-C ,  2-C ) :   1.6007
B(  1-C ,  4-C ) :   0.1028 B(  1-C , 32-H ) :   0.9532 B(  2-C ,  3-C ) :   1.2572
B(  2-C ,  6-C ) :   1.0180 B(  3-C ,  4-C ) :   1.5658 B(  3-C ,  5-H ) :   0.9915
B(  4-C , 20-C ) :   1.0098 B(  6-C ,  7-H ) :   0.9289 B(  6-C ,  8-H ) :   0.9393
B(  6-C ,  9-C ) :   1.0723 B(  9-C , 10-H ) :   0.9579 B(  9-C , 11-H ) :   0.9535
B(  9-C , 12-C ) :   1.0627 B( 12-C , 13-H ) :   0.9739 B( 12-C , 14-H ) :   0.9743
B( 12-C , 15-H ) :   0.9703 B( 16-S , 17-C ) :   1.1725 B( 16-S , 20-C ) :   1.1396
B( 17-C , 18-C ) :   1.5912 B( 17-C , 20-C ) :   0.1006 B( 17-C , 33-H ) :   0.9608
B( 18-C , 19-C ) :   1.2667 B( 18-C , 21-H ) :   0.9971 B( 19-C , 20-C ) :   1.5864
B( 19-C , 22-C ) :   1.0343 B( 22-C , 23-H ) :   0.9367 B( 22-C , 24-H ) :   0.9057
B( 22-C , 25-C ) :   1.0736 B( 25-C , 26-H ) :   0.9534 B( 25-C , 27-H ) :   0.9500
B( 25-C , 28-C ) :   1.0812 B( 28-C , 29-H ) :   0.9759 B( 28-C , 30-H ) :   0.9711
B( 28-C , 31-H ) :   0.9716

Dispersion correction           -0.014772320
FINAL SINGLE POINT ENERGY     -1339.856017373563

DIPOLE MOMENT
-------------
                                X             Y             Z
Electronic contribution:    -12.58271       3.61976       9.25258
Nuclear contribution   :     13.04904      -3.52922      -9.51921
                        -----------------------------------------
Total Dipole Moment    :      0.46633       0.09054      -0.26663
                        -----------------------------------------
Magnitude (a.u.)       :      0.54475
Magnitude (Debye)      :      1.38465

Rotational constants in cm-1:     0.022455     0.007672     0.006595
Rotational constants in MHz :   673.197113   230.002833   197.709055

                             ****ORCA TERMINATED NORMALLY****
TOTAL RUN TIME: 0 days 0 hours 0 minutes 21 seconds 486 msec
