                         Program Version 4.2.1 -  RELEASE  -
|  1> ! wB97X-D3 SP def2-SVP
|  2> %pal
|  3> nprocs 24
|  4> end
|  5>
|  6> * xyz 0 1
|  7> S 	 41.7071 	 -13.4631 	 -123.644
|  8> C 	 40.0267 	 -13.242 	 -124.025
|  9> C 	 39.789 	 -13.8717 	 -125.241
| 10> C 	 40.935 	 -14.5139 	 -125.812
| 11> C 	 42.0906 	 -14.3021 	 -125.169
| 12> H 	 41.12 	 -15.0807 	 -126.772
| 13> C 	 38.447 	 -13.8934 	 -125.948
| 14> H 	 37.5571 	 -13.6506 	 -125.377
| 15> H 	 38.1329 	 -14.8179 	 -126.423
| 16> C 	 38.4938 	 -12.8804 	 -127.156
| 17> H 	 39.4472 	 -12.9359 	 -127.61
| 18> H 	 37.7116 	 -13.0041 	 -127.88
| 19> C 	 38.2964 	 -11.4278 	 -126.618
| 20> H 	 39.0719 	 -11.0728 	 -125.945
| 21> H 	 38.321 	 -10.7069 	 -127.467
| 22> H 	 37.3468 	 -11.2494 	 -126.132
| 23> S 	 44.4947 	 -15.2504 	 -124.313
| 24> C 	 45.7478 	 -15.7148 	 -125.45
| 25> C 	 45.2262 	 -15.5327 	 -126.741
| 26> C 	 44.0354 	 -14.8467 	 -126.868
| 27> C 	 43.454 	 -14.6306 	 -125.62
| 28> H 	 45.8707 	 -15.7875 	 -127.567
| 29> C 	 43.4052 	 -14.3502 	 -128.212
| 30> H 	 42.4415 	 -14.7953 	 -128.5
| 31> H 	 44.1424 	 -14.5195 	 -129.027
| 32> C 	 43.2667 	 -12.8172 	 -128.305
| 33> H 	 44.2669 	 -12.4036 	 -127.987
| 34> H 	 42.509 	 -12.3557 	 -127.637
| 35> C 	 43.0263 	 -12.3185 	 -129.689
| 36> H 	 43.869 	 -12.5983 	 -130.307
| 37> H 	 42.787 	 -11.2671 	 -129.646
| 38> H 	 42.2237 	 -12.916 	 -130.014
| 39> H 	 39.3397 	 -12.7698 	 -123.34
| 40> H 	 46.7431 	 -16.051 	 -125.208
| 41> *
| 42>
| 43>                          ****END OF INPUT****

CARTESIAN COORDINATES (ANGSTROEM)
---------------------------------
  S     41.707100  -13.463100  -123.644000
  C     40.026700  -13.242000  -124.025000
  C     39.789000  -13.871700  -125.241000
  C     40.935000  -14.513900  -125.812000
  C     42.090600  -14.302100  -125.169000
  H     41.120000  -15.080700  -126.772000
  C     38.447000  -13.893400  -125.948000
  H     37.557100  -13.650600  -125.377000
  H     38.132900  -14.817900  -126.423000
  C     38.493800  -12.880400  -127.156000
  H     39.447200  -12.935900  -127.610000
  H     37.711600  -13.004100  -127.880000
  C     38.296400  -11.427800  -126.618000
  H     39.071900  -11.072800  -125.945000
  H     38.321000  -10.706900  -127.467000
  H     37.346800  -11.249400  -126.132000
  S     44.494700  -15.250400  -124.313000
  C     45.747800  -15.714800  -125.450000
  C     45.226200  -15.532700  -126.741000
  C     44.035400  -14.846700  -126.868000
  C     43.454000  -14.630600  -125.620000
  H     45.870700  -15.787500  -127.567000
  C     43.405200  -14.350200  -128.212000
  H     42.441500  -14.795300  -128.500000
  H     44.142400  -14.519500  -129.027000
  C     43.266700  -12.817200  -128.305000
  H     44.266900  -12.403600  -127.987000
  H     42.509000  -12.355700  -127.637000
  C     43.026300  -12.318500  -129.689000
  H     43.869000  -12.598300  -130.307000
  H     42.787000  -11.267100  -129.646000
  H     42.223700  -12.916000  -130.014000
  H     39.339700  -12.769800  -123.340000
  H     46.743100  -16.051000  -125.208000

 Total Charge           Charge          ....    0
 Multiplicity           Mult            ....    1
 Number of Electrons    NEL             ....  134
 Basis Dimension        Dim             ....  322

ORBITAL ENERGIES
----------------

  NO   OCC          E(Eh)            E(eV)
   0   2.0000     -88.968429     -2420.9540
   1   2.0000     -88.960595     -2420.7409
   2   2.0000     -10.334983      -281.2292
   3   2.0000     -10.330247      -281.1003
   4   2.0000     -10.323769      -280.9240
   5   2.0000     -10.319731      -280.8142
   6   2.0000     -10.311174      -280.5813
   7   2.0000     -10.309615      -280.5389
   8   2.0000     -10.306209      -280.4462
   9   2.0000     -10.295981      -280.1679
  10   2.0000     -10.295822      -280.1636
  11   2.0000     -10.291474      -280.0452
  12   2.0000     -10.285144      -279.8730
  13   2.0000     -10.284018      -279.8423
  14   2.0000     -10.273655      -279.5604
  15   2.0000     -10.270435      -279.4727
  16   2.0000      -8.082615      -219.9391
  17   2.0000      -8.075516      -219.7460
  18   2.0000      -6.041061      -164.3856
  19   2.0000      -6.037045      -164.2763
  20   2.0000      -6.034096      -164.1961
  21   2.0000      -6.033609      -164.1829
  22   2.0000      -6.029976      -164.0840
  23   2.0000      -6.026185      -163.9808
  24   2.0000      -1.009074       -27.4583
  25   2.0000      -0.987511       -26.8715
  26   2.0000      -0.915078       -24.9005
  27   2.0000      -0.906412       -24.6647
  28   2.0000      -0.871481       -23.7142
  29   2.0000      -0.859239       -23.3811
  30   2.0000      -0.840137       -22.8613
  31   2.0000      -0.815230       -22.1835
  32   2.0000      -0.783958       -21.3326
  33   2.0000      -0.771787       -21.0014
  34   2.0000      -0.707000       -19.2385
  35   2.0000      -0.697138       -18.9701
  36   2.0000      -0.685949       -18.6656
  37   2.0000      -0.666304       -18.1311
  38   2.0000      -0.651565       -17.7300
  39   2.0000      -0.619031       -16.8447
  40   2.0000      -0.602331       -16.3903
  41   2.0000      -0.576098       -15.6764
  42   2.0000      -0.573716       -15.6116
  43   2.0000      -0.541152       -14.7255
  44   2.0000      -0.535733       -14.5780
  45   2.0000      -0.532280       -14.4841
  46   2.0000      -0.521215       -14.1830
  47   2.0000      -0.520230       -14.1562
  48   2.0000      -0.508732       -13.8433
  49   2.0000      -0.499538       -13.5931
  50   2.0000      -0.490404       -13.3446
  51   2.0000      -0.485132       -13.2011
  52   2.0000      -0.475745       -12.9457
  53   2.0000      -0.463357       -12.6086
  54   2.0000      -0.459762       -12.5108
  55   2.0000      -0.442599       -12.0437
  56   2.0000      -0.439990       -11.9727
  57   2.0000      -0.434614       -11.8264
  58   2.0000      -0.433199       -11.7879
  59   2.0000      -0.422264       -11.4904
  60   2.0000      -0.416296       -11.3280
  61   2.0000      -0.414050       -11.2669
  62   2.0000      -0.408526       -11.1166
  63   2.0000      -0.356280        -9.6949
  64   2.0000      -0.339878        -9.2485
  65   2.0000      -0.326924        -8.8960
  66   2.0000      -0.290276        -7.8988
  67   0.0000       0.017840         0.4854
  68   0.0000       0.075458         2.0533
  69   0.0000       0.103377         2.8130
  70   0.0000       0.119422         3.2496
  71   0.0000       0.126916         3.4536

MULLIKEN ATOMIC CHARGES
-----------------------
   0 S :    0.082498
   1 C :   -0.104722
   2 C :   -0.064117
   3 C :   -0.005758
   4 C :   -0.121490
   5 H :    0.027297
   6 C :    0.066228
   7 H :    0.015506
   8 H :    0.024617
   9 C :   -0.059502
  10 H :    0.023210
  11 H :    0.028484
  12 C :   -0.082275
  13 H :    0.035897
  14 H :    0.027422
  15 H :    0.023347
  16 S :    0.098471
  17 C :   -0.090318
  18 C :   -0.050888
  19 C :   -0.012394
  20 C :   -0.130140
  21 H :    0.013885
  22 C :    0.045508
  23 H :    0.041863
  24 H :    0.015835
  25 C :   -0.129783
  26 H :    0.030432
  27 H :    0.046803
  28 C :    0.005471
  29 H :    0.025609
  30 H :    0.045166
  31 H :    0.006761
  32 H :    0.059026
  33 H :    0.062050
Sum of atomic charges:    0.0000000

LOEWDIN ATOMIC CHARGES
----------------------
   0 S :    0.382469
   1 C :   -0.189305
   2 C :   -0.061263
   3 C :   -0.075724
   4 C :   -0.184274
   5 H :    0.045819
   6 C :   -0.032198
   7 H :    0.026258
   8 H :    0.029758
   9 C :   -0.028245
  10 H :    0.016625
  11 H :    0.020513
  12 C :   -0.072318
  13 H :    0.022139
  14 H :    0.025806
  15 H :    0.018684
  16 S :    0.404293
  17 C :   -0.182978
  18 C :   -0.071451
  19 C :   -0.060410
  20 C :   -0.175816
  21 H :    0.028871
  22 C :   -0.029154
  23 H :    0.025704
  24 H :    0.033759
  25 C :   -0.047958
  26 H :    0.026208
  27 H :    0.024769
  28 C :   -0.057728
  29 H :    0.023515
  30 H :    0.031869
  31 H :    0.016868
  32 H :    0.033341
  33 H :    0.031558

  Mayer bond orders larger than 0.100000
B(  0-S ,  1-C ) :   1.1356 B(  0-S ,  4-C ) :   1.1275 B(  1-C ,  2-C ) :   1.6013
B(  1-C , 32-H ) :   0.9778 B(  2-C ,  3-C ) :   1.2031 B(  2-C ,  6-C ) :   1.0345
B(  3-C ,  4-C ) :   1.6251 B(  3-C ,  5-H ) :   0.9829 B(  4-C , 20-C ) :   1.0306
B(  6-C ,  7-H ) :   0.9514 B(  6-C ,  8-H ) :   0.9467 B(  6-C ,  9-C ) :   1.0572
B(  9-C , 10-H ) :   0.9596 B(  9-C , 11-H ) :   0.9593 B(  9-C , 12-C ) :   1.0731
B( 12-C , 13-H ) :   0.9771 B( 12-C , 14-H ) :   0.9749 B( 12-C , 15-H ) :   0.9770
B( 16-S , 17-C ) :   1.1643 B( 16-S , 20-C ) :   1.1617 B( 17-C , 18-C ) :   1.5582
B( 17-C , 20-C ) :   0.1198 B( 17-C , 33-H ) :   0.9736 B( 18-C , 19-C ) :   1.3063
B( 18-C , 21-H ) :   0.9853 B( 19-C , 20-C ) :   1.5391 B( 19-C , 22-C ) :   1.0272
B( 22-C , 23-H ) :   0.9367 B( 22-C , 24-H ) :   0.9366 B( 22-C , 25-C ) :   1.0562
B( 25-C , 26-H ) :   0.9541 B( 25-C , 27-H ) :   0.9518 B( 25-C , 28-C ) :   1.0918
B( 28-C , 29-H ) :   0.9712 B( 28-C , 30-H ) :   0.9705 B( 28-C , 31-H ) :   0.9695

Dispersion correction           -0.015005964
FINAL SINGLE POINT ENERGY     -1339.867931973511

DIPOLE MOMENT
-------------
                                X             Y             Z
Electronic contribution:     14.62692     -12.38893      24.23926
Nuclear contribution   :    -14.78850      12.42128     -24.91621
                        -----------------------------------------
Total Dipole Moment    :     -0.16158       0.03235      -0.67695
                        -----------------------------------------
Magnitude (a.u.)       :      0.69672
Magnitude (Debye)      :      1.77092

Rotational constants in cm-1:     0.018485     0.010050     0.007183
Rotational constants in MHz :   554.155754   301.300041   215.333253

                             ****ORCA TERMINATED NORMALLY****
TOTAL RUN TIME: 0 days 0 hours 0 minutes 21 seconds 254 msec
