                         Program Version 4.2.1 -  RELEASE  -
|  1> ! wB97X-D3 SP def2-SVP
|  2> %pal
|  3> nprocs 24
|  4> end
|  5>
|  6> * xyz 0 1
|  7> S 	 -119.683 	 18.1679 	 -114.009
|  8> C 	 -119.742 	 19.9709 	 -114.127
|  9> C 	 -118.636 	 20.4681 	 -113.433
| 10> C 	 -117.715 	 19.4578 	 -112.916
| 11> C 	 -118.185 	 18.168 	 -113.238
| 12> H 	 -116.749 	 19.6566 	 -112.388
| 13> C 	 -118.263 	 21.8944 	 -113.389
| 14> H 	 -117.97 	 22.1372 	 -112.302
| 15> H 	 -119.143 	 22.5826 	 -113.646
| 16> C 	 -117.111 	 22.4046 	 -114.293
| 17> H 	 -116.802 	 23.3904 	 -113.992
| 18> H 	 -116.252 	 21.7782 	 -114.037
| 19> C 	 -117.432 	 22.4773 	 -115.793
| 20> H 	 -117.347 	 21.5248 	 -116.219
| 21> H 	 -118.478 	 22.744 	 -116.03
| 22> H 	 -116.725 	 23.1905 	 -116.261
| 23> S 	 -118.649 	 15.8948 	 -111.763
| 24> C 	 -117.282 	 14.9439 	 -111.202
| 25> C 	 -116.082 	 15.3744 	 -111.702
| 26> C 	 -116.246 	 16.4652 	 -112.642
| 27> C 	 -117.526 	 16.9488 	 -112.655
| 28> H 	 -115.079 	 14.9713 	 -111.405
| 29> C 	 -115.105 	 17.1392 	 -113.351
| 30> H 	 -115.008 	 18.1527 	 -112.843
| 31> H 	 -115.421 	 17.5251 	 -114.291
| 32> C 	 -113.728 	 16.3727 	 -113.334
| 33> H 	 -113.736 	 15.3855 	 -113.772
| 34> H 	 -113.529 	 16.2271 	 -112.272
| 35> C 	 -112.655 	 17.2396 	 -113.963
| 36> H 	 -111.621 	 16.8701 	 -113.831
| 37> H 	 -112.534 	 18.2015 	 -113.539
| 38> H 	 -112.927 	 17.374 	 -115.073
| 39> H 	 -120.459 	 20.556 	 -114.669
| 40> H 	 -117.399 	 14.1659 	 -110.431
| 41> *
| 42>
| 43>                          ****END OF INPUT****

CARTESIAN COORDINATES (ANGSTROEM)
---------------------------------
  S    -119.683000   18.167900  -114.009000
  C    -119.742000   19.970900  -114.127000
  C    -118.636000   20.468100  -113.433000
  C    -117.715000   19.457800  -112.916000
  C    -118.185000   18.168000  -113.238000
  H    -116.749000   19.656600  -112.388000
  C    -118.263000   21.894400  -113.389000
  H    -117.970000   22.137200  -112.302000
  H    -119.143000   22.582600  -113.646000
  C    -117.111000   22.404600  -114.293000
  H    -116.802000   23.390400  -113.992000
  H    -116.252000   21.778200  -114.037000
  C    -117.432000   22.477300  -115.793000
  H    -117.347000   21.524800  -116.219000
  H    -118.478000   22.744000  -116.030000
  H    -116.725000   23.190500  -116.261000
  S    -118.649000   15.894800  -111.763000
  C    -117.282000   14.943900  -111.202000
  C    -116.082000   15.374400  -111.702000
  C    -116.246000   16.465200  -112.642000
  C    -117.526000   16.948800  -112.655000
  H    -115.079000   14.971300  -111.405000
  C    -115.105000   17.139200  -113.351000
  H    -115.008000   18.152700  -112.843000
  H    -115.421000   17.525100  -114.291000
  C    -113.728000   16.372700  -113.334000
  H    -113.736000   15.385500  -113.772000
  H    -113.529000   16.227100  -112.272000
  C    -112.655000   17.239600  -113.963000
  H    -111.621000   16.870100  -113.831000
  H    -112.534000   18.201500  -113.539000
  H    -112.927000   17.374000  -115.073000
  H    -120.459000   20.556000  -114.669000
  H    -117.399000   14.165900  -110.431000

 Total Charge           Charge          ....    0
 Multiplicity           Mult            ....    1
 Number of Electrons    NEL             ....  134
 Basis Dimension        Dim             ....  322

ORBITAL ENERGIES
----------------

  NO   OCC          E(Eh)            E(eV)
   0   2.0000     -88.970273     -2421.0042
   1   2.0000     -88.962373     -2420.7892
   2   2.0000     -10.335263      -281.2368
   3   2.0000     -10.327210      -281.0177
   4   2.0000     -10.320946      -280.8472
   5   2.0000     -10.318670      -280.7853
   6   2.0000     -10.306928      -280.4658
   7   2.0000     -10.303390      -280.3695
   8   2.0000     -10.302707      -280.3509
   9   2.0000     -10.299442      -280.2621
  10   2.0000     -10.299361      -280.2599
  11   2.0000     -10.296502      -280.1821
  12   2.0000     -10.293350      -280.0963
  13   2.0000     -10.287035      -279.9244
  14   2.0000     -10.283721      -279.8343
  15   2.0000     -10.276211      -279.6299
  16   2.0000      -8.085119      -220.0073
  17   2.0000      -8.076922      -219.7842
  18   2.0000      -6.043688      -164.4571
  19   2.0000      -6.039517      -164.3436
  20   2.0000      -6.035880      -164.2446
  21   2.0000      -6.035452      -164.2330
  22   2.0000      -6.031588      -164.1278
  23   2.0000      -6.027530      -164.0174
  24   2.0000      -1.004806       -27.3422
  25   2.0000      -0.981484       -26.7075
  26   2.0000      -0.911879       -24.8135
  27   2.0000      -0.908188       -24.7130
  28   2.0000      -0.864690       -23.5294
  29   2.0000      -0.853998       -23.2385
  30   2.0000      -0.843089       -22.9416
  31   2.0000      -0.811596       -22.0846
  32   2.0000      -0.780204       -21.2304
  33   2.0000      -0.771931       -21.0053
  34   2.0000      -0.713644       -19.4192
  35   2.0000      -0.702219       -19.1083
  36   2.0000      -0.694518       -18.8988
  37   2.0000      -0.651612       -17.7313
  38   2.0000      -0.635484       -17.2924
  39   2.0000      -0.616220       -16.7682
  40   2.0000      -0.598530       -16.2868
  41   2.0000      -0.566107       -15.4046
  42   2.0000      -0.564008       -15.3474
  43   2.0000      -0.550073       -14.9683
  44   2.0000      -0.539114       -14.6700
  45   2.0000      -0.526580       -14.3290
  46   2.0000      -0.519236       -14.1291
  47   2.0000      -0.512531       -13.9467
  48   2.0000      -0.500971       -13.6321
  49   2.0000      -0.494059       -13.4440
  50   2.0000      -0.492908       -13.4127
  51   2.0000      -0.474522       -12.9124
  52   2.0000      -0.470155       -12.7936
  53   2.0000      -0.469393       -12.7728
  54   2.0000      -0.461147       -12.5485
  55   2.0000      -0.450287       -12.2529
  56   2.0000      -0.447571       -12.1790
  57   2.0000      -0.437822       -11.9137
  58   2.0000      -0.434832       -11.8324
  59   2.0000      -0.423537       -11.5250
  60   2.0000      -0.421311       -11.4644
  61   2.0000      -0.415468       -11.3054
  62   2.0000      -0.411457       -11.1963
  63   2.0000      -0.344937        -9.3862
  64   2.0000      -0.329301        -8.9607
  65   2.0000      -0.327722        -8.9178
  66   2.0000      -0.292966        -7.9720
  67   0.0000       0.031673         0.8619
  68   0.0000       0.068713         1.8698
  69   0.0000       0.102342         2.7849
  70   0.0000       0.113669         3.0931
  71   0.0000       0.124756         3.3948

MULLIKEN ATOMIC CHARGES
-----------------------
   0 S :    0.109586
   1 C :   -0.121339
   2 C :   -0.039663
   3 C :   -0.012765
   4 C :   -0.122981
   5 H :    0.042290
   6 C :   -0.029823
   7 H :    0.043806
   8 H :    0.029916
   9 C :   -0.047699
  10 H :    0.021258
  11 H :    0.017892
  12 C :   -0.038148
  13 H :    0.028769
  14 H :    0.023617
  15 H :    0.042346
  16 S :    0.092412
  17 C :   -0.090098
  18 C :   -0.053574
  19 C :   -0.036549
  20 C :   -0.152487
  21 H :    0.041134
  22 C :    0.032480
  23 H :    0.029636
  24 H :    0.016221
  25 C :   -0.061677
  26 H :    0.044186
  27 H :    0.029784
  28 C :   -0.046239
  29 H :    0.034401
  30 H :    0.016573
  31 H :    0.045306
  32 H :    0.047163
  33 H :    0.064268
Sum of atomic charges:    0.0000000

LOEWDIN ATOMIC CHARGES
----------------------
   0 S :    0.415136
   1 C :   -0.187622
   2 C :   -0.060753
   3 C :   -0.073877
   4 C :   -0.210433
   5 H :    0.039317
   6 C :   -0.047546
   7 H :    0.040581
   8 H :    0.031921
   9 C :   -0.039147
  10 H :    0.020961
  11 H :    0.021084
  12 C :   -0.064509
  13 H :    0.019969
  14 H :    0.026237
  15 H :    0.032771
  16 S :    0.381587
  17 C :   -0.181124
  18 C :   -0.078763
  19 C :   -0.060324
  20 C :   -0.183181
  21 H :    0.040424
  22 C :   -0.035141
  23 H :    0.040700
  24 H :    0.025627
  25 C :   -0.038398
  26 H :    0.027053
  27 H :    0.023179
  28 C :   -0.070467
  29 H :    0.029143
  30 H :    0.017726
  31 H :    0.036699
  32 H :    0.028448
  33 H :    0.032720

  Mayer bond orders larger than 0.100000
B(  0-S ,  1-C ) :   1.1063 B(  0-S ,  4-C ) :   1.1876 B(  1-C ,  2-C ) :   1.5972
B(  1-C , 32-H ) :   0.9777 B(  2-C ,  3-C ) :   1.2271 B(  2-C ,  6-C ) :   1.0498
B(  3-C ,  4-C ) :   1.5378 B(  3-C ,  5-H ) :   0.9825 B(  4-C , 20-C ) :   1.0083
B(  6-C ,  7-H ) :   0.9340 B(  6-C ,  8-H ) :   0.9452 B(  6-C ,  9-C ) :   1.0740
B(  9-C , 10-H ) :   0.9578 B(  9-C , 11-H ) :   0.9525 B(  9-C , 12-C ) :   1.0655
B( 12-C , 13-H ) :   0.9766 B( 12-C , 14-H ) :   0.9747 B( 12-C , 15-H ) :   0.9760
B( 16-S , 17-C ) :   1.1475 B( 16-S , 20-C ) :   1.1212 B( 17-C , 18-C ) :   1.6374
B( 17-C , 33-H ) :   0.9616 B( 18-C , 19-C ) :   1.2107 B( 18-C , 21-H ) :   0.9762
B( 19-C , 20-C ) :   1.6540 B( 19-C , 22-C ) :   1.0447 B( 22-C , 23-H ) :   0.9282
B( 22-C , 24-H ) :   0.9287 B( 22-C , 25-C ) :   1.0541 B( 25-C , 26-H ) :   0.9611
B( 25-C , 27-H ) :   0.9430 B( 25-C , 28-C ) :   1.0912 B( 28-C , 29-H ) :   0.9718
B( 28-C , 30-H ) :   0.9718 B( 28-C , 31-H ) :   0.9733

Dispersion correction           -0.013969854
FINAL SINGLE POINT ENERGY     -1339.872702303894

DIPOLE MOMENT
-------------
                                X             Y             Z
Electronic contribution:    -23.30493     -17.41907       8.58359
Nuclear contribution   :     23.99141      17.84441      -8.55490
                        -----------------------------------------
Total Dipole Moment    :      0.68648       0.42534       0.02869
                        -----------------------------------------
Magnitude (a.u.)       :      0.80808
Magnitude (Debye)      :      2.05397

Rotational constants in cm-1:     0.016782     0.009169     0.006424
Rotational constants in MHz :   503.114955   274.882586   192.575044

                             ****ORCA TERMINATED NORMALLY****
TOTAL RUN TIME: 0 days 0 hours 0 minutes 21 seconds 320 msec
