                         Program Version 4.2.1 -  RELEASE  -
|  1> ! wB97X-D3 SP def2-SVP
|  2> %pal
|  3> nprocs 24
|  4> end
|  5>
|  6> * xyz 0 1
|  7> S 	 -64.5605 	 14.7653 	 -105.595
|  8> C 	 -65.4392 	 16.2355 	 -105.04
|  9> C 	 -64.7767 	 16.8099 	 -103.99
| 10> C 	 -63.536 	 16.1514 	 -103.704
| 11> C 	 -63.2565 	 15.1125 	 -104.572
| 12> H 	 -62.8684 	 16.3591 	 -102.863
| 13> C 	 -65.1811 	 18.042 	 -103.257
| 14> H 	 -65.1983 	 17.8071 	 -102.181
| 15> H 	 -66.1646 	 18.4515 	 -103.561
| 16> C 	 -64.2078 	 19.2718 	 -103.418
| 17> H 	 -63.1613 	 19.0102 	 -103.225
| 18> H 	 -64.2326 	 19.5244 	 -104.474
| 19> C 	 -64.6225 	 20.3898 	 -102.449
| 20> H 	 -65.6292 	 20.6357 	 -102.715
| 21> H 	 -64.5412 	 19.9896 	 -101.41
| 22> H 	 -63.9876 	 21.2527 	 -102.506
| 23> S 	 -62.3088 	 12.5543 	 -104.115
| 24> C 	 -60.6364 	 12.1592 	 -104.176
| 25> C 	 -59.9174 	 13.3144 	 -104.369
| 26> C 	 -60.7024 	 14.4917 	 -104.632
| 27> C 	 -62.0798 	 14.2243 	 -104.473
| 28> H 	 -58.8258 	 13.2615 	 -104.38
| 29> C 	 -60.1542 	 15.8785 	 -104.909
| 30> H 	 -60.9831 	 16.4082 	 -105.262
| 31> H 	 -59.3957 	 15.7766 	 -105.77
| 32> C 	 -59.6005 	 16.66 	 -103.725
| 33> H 	 -58.8225 	 16.1613 	 -103.164
| 34> H 	 -60.4359 	 16.7921 	 -103.046
| 35> C 	 -58.9498 	 18.0566 	 -103.992
| 36> H 	 -58.0473 	 18.0538 	 -104.672
| 37> H 	 -58.6614 	 18.673 	 -103.147
| 38> H 	 -59.7368 	 18.5509 	 -104.575
| 39> H 	 -66.3935 	 16.4765 	 -105.505
| 40> H 	 -60.0416 	 11.2857 	 -103.929
| 41> *
| 42>
| 43>                          ****END OF INPUT****

CARTESIAN COORDINATES (ANGSTROEM)
---------------------------------
  S    -64.560500   14.765300  -105.595000
  C    -65.439200   16.235500  -105.040000
  C    -64.776700   16.809900  -103.990000
  C    -63.536000   16.151400  -103.704000
  C    -63.256500   15.112500  -104.572000
  H    -62.868400   16.359100  -102.863000
  C    -65.181100   18.042000  -103.257000
  H    -65.198300   17.807100  -102.181000
  H    -66.164600   18.451500  -103.561000
  C    -64.207800   19.271800  -103.418000
  H    -63.161300   19.010200  -103.225000
  H    -64.232600   19.524400  -104.474000
  C    -64.622500   20.389800  -102.449000
  H    -65.629200   20.635700  -102.715000
  H    -64.541200   19.989600  -101.410000
  H    -63.987600   21.252700  -102.506000
  S    -62.308800   12.554300  -104.115000
  C    -60.636400   12.159200  -104.176000
  C    -59.917400   13.314400  -104.369000
  C    -60.702400   14.491700  -104.632000
  C    -62.079800   14.224300  -104.473000
  H    -58.825800   13.261500  -104.380000
  C    -60.154200   15.878500  -104.909000
  H    -60.983100   16.408200  -105.262000
  H    -59.395700   15.776600  -105.770000
  C    -59.600500   16.660000  -103.725000
  H    -58.822500   16.161300  -103.164000
  H    -60.435900   16.792100  -103.046000
  C    -58.949800   18.056600  -103.992000
  H    -58.047300   18.053800  -104.672000
  H    -58.661400   18.673000  -103.147000
  H    -59.736800   18.550900  -104.575000
  H    -66.393500   16.476500  -105.505000
  H    -60.041600   11.285700  -103.929000

 Total Charge           Charge          ....    0
 Multiplicity           Mult            ....    1
 Number of Electrons    NEL             ....  134
 Basis Dimension        Dim             ....  322

ORBITAL ENERGIES
----------------

  NO   OCC          E(Eh)            E(eV)
   0   2.0000     -88.966787     -2420.9094
   1   2.0000     -88.965685     -2420.8794
   2   2.0000     -10.330244      -281.1002
   3   2.0000     -10.327933      -281.0373
   4   2.0000     -10.319734      -280.8142
   5   2.0000     -10.313200      -280.6364
   6   2.0000     -10.305143      -280.4172
   7   2.0000     -10.304978      -280.4127
   8   2.0000     -10.297764      -280.2164
   9   2.0000     -10.296781      -280.1897
  10   2.0000     -10.292366      -280.0695
  11   2.0000     -10.291830      -280.0549
  12   2.0000     -10.288988      -279.9776
  13   2.0000     -10.286686      -279.9149
  14   2.0000     -10.283161      -279.8190
  15   2.0000     -10.280770      -279.7540
  16   2.0000      -8.082083      -219.9247
  17   2.0000      -8.081083      -219.8974
  18   2.0000      -6.040652      -164.3745
  19   2.0000      -6.039540      -164.3442
  20   2.0000      -6.036289      -164.2558
  21   2.0000      -6.035516      -164.2347
  22   2.0000      -6.032946      -164.1648
  23   2.0000      -6.031815      -164.1340
  24   2.0000      -1.011851       -27.5339
  25   2.0000      -0.989055       -26.9135
  26   2.0000      -0.914176       -24.8760
  27   2.0000      -0.907592       -24.6968
  28   2.0000      -0.871613       -23.7178
  29   2.0000      -0.850002       -23.1297
  30   2.0000      -0.845420       -23.0050
  31   2.0000      -0.816990       -22.2314
  32   2.0000      -0.782168       -21.2839
  33   2.0000      -0.771814       -21.0021
  34   2.0000      -0.706909       -19.2360
  35   2.0000      -0.699109       -19.0237
  36   2.0000      -0.695634       -18.9292
  37   2.0000      -0.654613       -17.8129
  38   2.0000      -0.645695       -17.5703
  39   2.0000      -0.624683       -16.9985
  40   2.0000      -0.592764       -16.1299
  41   2.0000      -0.572170       -15.5695
  42   2.0000      -0.567658       -15.4468
  43   2.0000      -0.560747       -15.2587
  44   2.0000      -0.528190       -14.3728
  45   2.0000      -0.523211       -14.2373
  46   2.0000      -0.519247       -14.1294
  47   2.0000      -0.513607       -13.9760
  48   2.0000      -0.508977       -13.8500
  49   2.0000      -0.502919       -13.6851
  50   2.0000      -0.491662       -13.3788
  51   2.0000      -0.480639       -13.0788
  52   2.0000      -0.467925       -12.7329
  53   2.0000      -0.464311       -12.6346
  54   2.0000      -0.457730       -12.4555
  55   2.0000      -0.456392       -12.4191
  56   2.0000      -0.452687       -12.3182
  57   2.0000      -0.433721       -11.8021
  58   2.0000      -0.430937       -11.7264
  59   2.0000      -0.427024       -11.6199
  60   2.0000      -0.423267       -11.5177
  61   2.0000      -0.418209       -11.3800
  62   2.0000      -0.408141       -11.1061
  63   2.0000      -0.342667        -9.3244
  64   2.0000      -0.333188        -9.0665
  65   2.0000      -0.326306        -8.8792
  66   2.0000      -0.302326        -8.2267
  67   0.0000       0.036310         0.9880
  68   0.0000       0.068342         1.8597
  69   0.0000       0.110395         3.0040
  70   0.0000       0.124092         3.3767
  71   0.0000       0.125751         3.4219

MULLIKEN ATOMIC CHARGES
-----------------------
   0 S :    0.106139
   1 C :   -0.146843
   2 C :   -0.022011
   3 C :    0.011635
   4 C :   -0.153465
   5 H :    0.027080
   6 C :    0.038819
   7 H :    0.032625
   8 H :    0.022577
   9 C :   -0.102449
  10 H :    0.026494
  11 H :    0.031167
  12 C :   -0.023510
  13 H :    0.025980
  14 H :    0.036053
  15 H :    0.035829
  16 S :    0.123166
  17 C :   -0.079905
  18 C :   -0.059360
  19 C :   -0.048529
  20 C :   -0.170028
  21 H :    0.020627
  22 C :    0.090675
  23 H :    0.012418
  24 H :    0.039030
  25 C :   -0.056197
  26 H :    0.023549
  27 H :    0.016847
  28 C :   -0.074621
  29 H :    0.036361
  30 H :    0.043491
  31 H :    0.024743
  32 H :    0.054431
  33 H :    0.057180
Sum of atomic charges:   -0.0000000

LOEWDIN ATOMIC CHARGES
----------------------
   0 S :    0.409192
   1 C :   -0.178448
   2 C :   -0.062958
   3 C :   -0.063088
   4 C :   -0.210698
   5 H :    0.033748
   6 C :   -0.032051
   7 H :    0.033207
   8 H :    0.030478
   9 C :   -0.039036
  10 H :    0.018255
  11 H :    0.022020
  12 C :   -0.059047
  13 H :    0.021125
  14 H :    0.031396
  15 H :    0.024196
  16 S :    0.434754
  17 C :   -0.208553
  18 C :   -0.073907
  19 C :   -0.056354
  20 C :   -0.211861
  21 H :    0.030770
  22 C :   -0.031151
  23 H :    0.023024
  24 H :    0.039414
  25 C :   -0.039804
  26 H :    0.019041
  27 H :    0.021365
  28 C :   -0.073374
  29 H :    0.028925
  30 H :    0.026979
  31 H :    0.023334
  32 H :    0.029138
  33 H :    0.039968

  Mayer bond orders larger than 0.100000
B(  0-S ,  1-C ) :   1.1205 B(  0-S ,  4-C ) :   1.1741 B(  1-C ,  2-C ) :   1.6070
B(  1-C , 32-H ) :   0.9759 B(  2-C ,  3-C ) :   1.2179 B(  2-C ,  6-C ) :   1.0390
B(  3-C ,  4-C ) :   1.5699 B(  3-C ,  5-H ) :   0.9907 B(  4-C , 20-C ) :   1.0059
B(  6-C ,  7-H ) :   0.9348 B(  6-C ,  8-H ) :   0.9464 B(  6-C ,  9-C ) :   1.0502
B(  9-C , 10-H ) :   0.9581 B(  9-C , 11-H ) :   0.9577 B(  9-C , 12-C ) :   1.0753
B( 12-C , 13-H ) :   0.9757 B( 12-C , 14-H ) :   0.9745 B( 12-C , 15-H ) :   0.9742
B( 16-S , 17-C ) :   1.1549 B( 16-S , 20-C ) :   1.1662 B( 17-C , 18-C ) :   1.6111
B( 17-C , 33-H ) :   0.9639 B( 18-C , 19-C ) :   1.2590 B( 18-C , 21-H ) :   0.9843
B( 19-C , 20-C ) :   1.5675 B( 19-C , 22-C ) :   1.0602 B( 22-C , 23-H ) :   0.9170
B( 22-C , 24-H ) :   0.9323 B( 22-C , 25-C ) :   1.0627 B( 25-C , 26-H ) :   0.9604
B( 25-C , 27-H ) :   0.9496 B( 25-C , 28-C ) :   1.0712 B( 28-C , 29-H ) :   0.9757
B( 28-C , 30-H ) :   0.9763 B( 28-C , 31-H ) :   0.9766

Dispersion correction           -0.014238794
FINAL SINGLE POINT ENERGY     -1339.886304304850

DIPOLE MOMENT
-------------
                                X             Y             Z
Electronic contribution:     -9.16446     -30.42048      -8.88887
Nuclear contribution   :      9.36906      31.00190       9.19121
                        -----------------------------------------
Total Dipole Moment    :      0.20460       0.58142       0.30234
                        -----------------------------------------
Magnitude (a.u.)       :      0.68653
Magnitude (Debye)      :      1.74502

Rotational constants in cm-1:     0.016927     0.009508     0.006636
Rotational constants in MHz :   507.468731   285.037562   198.928731

                             ****ORCA TERMINATED NORMALLY****
TOTAL RUN TIME: 0 days 0 hours 0 minutes 21 seconds 694 msec
