                         Program Version 4.2.1 -  RELEASE  -
|  1> ! wB97X-D3 SP def2-SVP
|  2> %pal
|  3> nprocs 24
|  4> end
|  5>
|  6> * xyz 0 1
|  7> S 	 -116.849 	 38.1149 	 -120.697
|  8> C 	 -116.57 	 37.7984 	 -122.474
|  9> C 	 -117.728 	 37.5251 	 -123.11
| 10> C 	 -118.914 	 37.6654 	 -122.312
| 11> C 	 -118.566 	 37.9427 	 -120.968
| 12> H 	 -119.942 	 37.5647 	 -122.651
| 13> C 	 -117.82 	 36.9138 	 -124.44
| 14> H 	 -117.271 	 37.4626 	 -125.229
| 15> H 	 -118.881 	 36.8079 	 -124.653
| 16> C 	 -117.334 	 35.4792 	 -124.485
| 17> H 	 -117.275 	 35.0811 	 -125.517
| 18> H 	 -116.26 	 35.5666 	 -124.201
| 19> C 	 -118.103 	 34.5242 	 -123.618
| 20> H 	 -117.713 	 33.54 	 -123.645
| 21> H 	 -118.083 	 34.8141 	 -122.599
| 22> H 	 -119.109 	 34.4299 	 -123.966
| 23> S 	 -120.908 	 39.0383 	 -120.28
| 24> C 	 -121.76 	 38.5069 	 -118.849
| 25> C 	 -120.935 	 37.7079 	 -118.09
| 26> C 	 -119.613 	 37.4901 	 -118.614
| 27> C 	 -119.553 	 37.9997 	 -119.914
| 28> H 	 -121.195 	 37.1763 	 -117.22
| 29> C 	 -118.532 	 36.7127 	 -117.818
| 30> H 	 -118.81 	 36.8746 	 -116.78
| 31> H 	 -117.49 	 37.0585 	 -118.047
| 32> C 	 -118.495 	 35.1681 	 -118.038
| 33> H 	 -117.863 	 34.7025 	 -117.327
| 34> H 	 -118.056 	 34.9236 	 -119.028
| 35> C 	 -119.844 	 34.5241 	 -118.084
| 36> H 	 -120.546 	 35.059 	 -118.769
| 37> H 	 -120.337 	 34.567 	 -117.189
| 38> H 	 -119.836 	 33.5327 	 -118.455
| 39> H 	 -115.594 	 37.7234 	 -122.878
| 40> H 	 -122.563 	 39.0077 	 -118.445
| 41> *
| 42>
| 43>                          ****END OF INPUT****

CARTESIAN COORDINATES (ANGSTROEM)
---------------------------------
  S    -116.849000   38.114900  -120.697000
  C    -116.570000   37.798400  -122.474000
  C    -117.728000   37.525100  -123.110000
  C    -118.914000   37.665400  -122.312000
  C    -118.566000   37.942700  -120.968000
  H    -119.942000   37.564700  -122.651000
  C    -117.820000   36.913800  -124.440000
  H    -117.271000   37.462600  -125.229000
  H    -118.881000   36.807900  -124.653000
  C    -117.334000   35.479200  -124.485000
  H    -117.275000   35.081100  -125.517000
  H    -116.260000   35.566600  -124.201000
  C    -118.103000   34.524200  -123.618000
  H    -117.713000   33.540000  -123.645000
  H    -118.083000   34.814100  -122.599000
  H    -119.109000   34.429900  -123.966000
  S    -120.908000   39.038300  -120.280000
  C    -121.760000   38.506900  -118.849000
  C    -120.935000   37.707900  -118.090000
  C    -119.613000   37.490100  -118.614000
  C    -119.553000   37.999700  -119.914000
  H    -121.195000   37.176300  -117.220000
  C    -118.532000   36.712700  -117.818000
  H    -118.810000   36.874600  -116.780000
  H    -117.490000   37.058500  -118.047000
  C    -118.495000   35.168100  -118.038000
  H    -117.863000   34.702500  -117.327000
  H    -118.056000   34.923600  -119.028000
  C    -119.844000   34.524100  -118.084000
  H    -120.546000   35.059000  -118.769000
  H    -120.337000   34.567000  -117.189000
  H    -119.836000   33.532700  -118.455000
  H    -115.594000   37.723400  -122.878000
  H    -122.563000   39.007700  -118.445000

 Total Charge           Charge          ....    0
 Multiplicity           Mult            ....    1
 Number of Electrons    NEL             ....  134
 Basis Dimension        Dim             ....  322

ORBITAL ENERGIES
----------------

  NO   OCC          E(Eh)            E(eV)
   0   2.0000     -88.970572     -2421.0124
   1   2.0000     -88.965445     -2420.8728
   2   2.0000     -10.334300      -281.2106
   3   2.0000     -10.327362      -281.0218
   4   2.0000     -10.313121      -280.6343
   5   2.0000     -10.310322      -280.5581
   6   2.0000     -10.306077      -280.4426
   7   2.0000     -10.300897      -280.3017
   8   2.0000     -10.298075      -280.2249
   9   2.0000     -10.296621      -280.1853
  10   2.0000     -10.292567      -280.0750
  11   2.0000     -10.286105      -279.8991
  12   2.0000     -10.284495      -279.8553
  13   2.0000     -10.281587      -279.7762
  14   2.0000     -10.264306      -279.3060
  15   2.0000     -10.261241      -279.2226
  16   2.0000      -8.083909      -219.9743
  17   2.0000      -8.080236      -219.8744
  18   2.0000      -6.042538      -164.4258
  19   2.0000      -6.038789      -164.3238
  20   2.0000      -6.038766      -164.3232
  21   2.0000      -6.034670      -164.2117
  22   2.0000      -6.034485      -164.2067
  23   2.0000      -6.030998      -164.1118
  24   2.0000      -1.006382       -27.3850
  25   2.0000      -0.982548       -26.7365
  26   2.0000      -0.921123       -25.0650
  27   2.0000      -0.908409       -24.7191
  28   2.0000      -0.870924       -23.6990
  29   2.0000      -0.852445       -23.1962
  30   2.0000      -0.844329       -22.9754
  31   2.0000      -0.811500       -22.0820
  32   2.0000      -0.788567       -21.4580
  33   2.0000      -0.778752       -21.1909
  34   2.0000      -0.712643       -19.3920
  35   2.0000      -0.703177       -19.1344
  36   2.0000      -0.691307       -18.8114
  37   2.0000      -0.670435       -18.2435
  38   2.0000      -0.640055       -17.4168
  39   2.0000      -0.604404       -16.4467
  40   2.0000      -0.592761       -16.1298
  41   2.0000      -0.574814       -15.6415
  42   2.0000      -0.561482       -15.2787
  43   2.0000      -0.559916       -15.2361
  44   2.0000      -0.545845       -14.8532
  45   2.0000      -0.543371       -14.7859
  46   2.0000      -0.524880       -14.2827
  47   2.0000      -0.516541       -14.0558
  48   2.0000      -0.502445       -13.6722
  49   2.0000      -0.496628       -13.5139
  50   2.0000      -0.486188       -13.2299
  51   2.0000      -0.483339       -13.1523
  52   2.0000      -0.472538       -12.8584
  53   2.0000      -0.468180       -12.7398
  54   2.0000      -0.453147       -12.3308
  55   2.0000      -0.449888       -12.2421
  56   2.0000      -0.443409       -12.0658
  57   2.0000      -0.434776       -11.8309
  58   2.0000      -0.430817       -11.7231
  59   2.0000      -0.427073       -11.6212
  60   2.0000      -0.424755       -11.5582
  61   2.0000      -0.412778       -11.2323
  62   2.0000      -0.408275       -11.1097
  63   2.0000      -0.349184        -9.5018
  64   2.0000      -0.333429        -9.0731
  65   2.0000      -0.330393        -8.9905
  66   2.0000      -0.286946        -7.8082
  67   0.0000       0.021822         0.5938
  68   0.0000       0.073359         1.9962
  69   0.0000       0.098617         2.6835
  70   0.0000       0.106475         2.8973
  71   0.0000       0.123539         3.3617

MULLIKEN ATOMIC CHARGES
-----------------------
   0 S :    0.097490
   1 C :   -0.131916
   2 C :   -0.046051
   3 C :   -0.006848
   4 C :   -0.120212
   5 H :    0.028689
   6 C :    0.082318
   7 H :    0.039124
   8 H :    0.006948
   9 C :   -0.096555
  10 H :    0.029193
  11 H :    0.014848
  12 C :   -0.006203
  13 H :    0.019989
  14 H :    0.037696
  15 H :    0.017979
  16 S :    0.104745
  17 C :   -0.044104
  18 C :   -0.036235
  19 C :   -0.064793
  20 C :   -0.173082
  21 H :    0.001090
  22 C :    0.066990
  23 H :    0.026029
  24 H :    0.043360
  25 C :   -0.049601
  26 H :    0.024850
  27 H :    0.029804
  28 C :   -0.037859
  29 H :    0.040001
  30 H :    0.002426
  31 H :    0.024924
  32 H :    0.036514
  33 H :    0.038451
Sum of atomic charges:    0.0000000

LOEWDIN ATOMIC CHARGES
----------------------
   0 S :    0.380639
   1 C :   -0.168642
   2 C :   -0.062391
   3 C :   -0.066321
   4 C :   -0.188190
   5 H :    0.032268
   6 C :   -0.033370
   7 H :    0.037259
   8 H :    0.025925
   9 C :   -0.041066
  10 H :    0.024834
  11 H :    0.019376
  12 C :   -0.058498
  13 H :    0.024475
  14 H :    0.024976
  15 H :    0.022936
  16 S :    0.419291
  17 C :   -0.185151
  18 C :   -0.057711
  19 C :   -0.060786
  20 C :   -0.190838
  21 H :    0.020586
  22 C :   -0.028976
  23 H :    0.030700
  24 H :    0.032633
  25 C :   -0.036483
  26 H :    0.019083
  27 H :    0.027603
  28 C :   -0.064463
  29 H :    0.034136
  30 H :    0.007111
  31 H :    0.023202
  32 H :    0.019887
  33 H :    0.015965

  Mayer bond orders larger than 0.100000
B(  0-S ,  1-C ) :   1.0944 B(  0-S ,  4-C ) :   1.1548 B(  1-C ,  2-C ) :   1.6336
B(  1-C , 32-H ) :   0.9765 B(  2-C ,  3-C ) :   1.2173 B(  2-C ,  6-C ) :   1.0374
B(  3-C ,  4-C ) :   1.5415 B(  3-C ,  5-H ) :   0.9904 B(  4-C , 20-C ) :   1.0570
B(  6-C ,  7-H ) :   0.9309 B(  6-C ,  8-H ) :   0.9377 B(  6-C ,  9-C ) :   1.0760
B(  9-C , 10-H ) :   0.9555 B(  9-C , 11-H ) :   0.9518 B(  9-C , 12-C ) :   1.0840
B( 12-C , 13-H ) :   0.9678 B( 12-C , 14-H ) :   0.9725 B( 12-C , 15-H ) :   0.9698
B( 16-S , 17-C ) :   1.1371 B( 16-S , 20-C ) :   1.1686 B( 17-C , 18-C ) :   1.5954
B( 17-C , 33-H ) :   0.9767 B( 18-C , 19-C ) :   1.2565 B( 18-C , 21-H ) :   0.9869
B( 19-C , 20-C ) :   1.5592 B( 19-C , 22-C ) :   1.0351 B( 22-C , 23-H ) :   0.9309
B( 22-C , 24-H ) :   0.9414 B( 22-C , 25-C ) :   1.0682 B( 25-C , 26-H ) :   0.9566
B( 25-C , 27-H ) :   0.9552 B( 25-C , 28-C ) :   1.0932 B( 28-C , 29-H ) :   0.9618
B( 28-C , 30-H ) :   0.9735 B( 28-C , 31-H ) :   0.9703

Dispersion correction           -0.015599285
FINAL SINGLE POINT ENERGY     -1339.869691130948

DIPOLE MOMENT
-------------
                                X             Y             Z
Electronic contribution:     -2.12859      22.24421       3.56711
Nuclear contribution   :      2.17230     -22.73958      -3.58600
                        -----------------------------------------
Total Dipole Moment    :      0.04371      -0.49537      -0.01889
                        -----------------------------------------
Magnitude (a.u.)       :      0.49766
Magnitude (Debye)      :      1.26494

Rotational constants in cm-1:     0.019459     0.009313     0.008244
Rotational constants in MHz :   583.370743   279.194445   247.150264

                             ****ORCA TERMINATED NORMALLY****
TOTAL RUN TIME: 0 days 0 hours 0 minutes 22 seconds 978 msec
