                         Program Version 4.2.1 -  RELEASE  -
|  1> ! wB97X-D3 SP def2-SVP
|  2> %pal
|  3> nprocs 24
|  4> end
|  5>
|  6> * xyz 0 1
|  7> S 	 -99.4058 	 6.27814 	 -122.294
|  8> C 	 -99.7638 	 5.48778 	 -123.883
|  9> C 	 -100.858 	 4.63295 	 -123.838
| 10> C 	 -101.404 	 4.55992 	 -122.525
| 11> C 	 -100.763 	 5.39586 	 -121.554
| 12> H 	 -102.192 	 3.92788 	 -122.211
| 13> C 	 -101.441 	 4.01338 	 -125.104
| 14> H 	 -100.65 	 3.85556 	 -125.792
| 15> H 	 -102.18 	 4.6408 	 -125.604
| 16> C 	 -101.937 	 2.61374 	 -125.056
| 17> H 	 -101.156 	 1.91775 	 -124.686
| 18> H 	 -102.655 	 2.51772 	 -124.246
| 19> C 	 -102.674 	 2.07256 	 -126.334
| 20> H 	 -103.671 	 2.5573 	 -126.375
| 21> H 	 -102.024 	 2.23734 	 -127.259
| 22> H 	 -102.825 	 0.997432 	 -126.208
| 23> S 	 -102.669 	 5.80013 	 -119.74
| 24> C 	 -102.345 	 6.07147 	 -118
| 25> C 	 -101.056 	 5.80205 	 -117.769
| 26> C 	 -100.272 	 5.64326 	 -118.933
| 27> C 	 -101.033 	 5.55322 	 -120.099
| 28> H 	 -100.709 	 5.93576 	 -116.801
| 29> C 	 -98.7919 	 5.40565 	 -118.885
| 30> H 	 -98.4243 	 5.63837 	 -117.872
| 31> H 	 -98.3584 	 6.03345 	 -119.747
| 32> C 	 -98.5076 	 3.91315 	 -119.03
| 33> H 	 -99.1121 	 3.59057 	 -119.955
| 34> H 	 -99.0535 	 3.32182 	 -118.283
| 35> C 	 -97.0602 	 3.46834 	 -118.997
| 36> H 	 -96.3298 	 3.84716 	 -119.745
| 37> H 	 -97.2197 	 2.4203 	 -119.314
| 38> H 	 -96.7868 	 3.6115 	 -117.952
| 39> H 	 -99.3892 	 5.89256 	 -124.822
| 40> H 	 -103.013 	 6.10087 	 -117.174
| 41> *
| 42>
| 43>                          ****END OF INPUT****

CARTESIAN COORDINATES (ANGSTROEM)
---------------------------------
  S    -99.405800    6.278140  -122.294000
  C    -99.763800    5.487780  -123.883000
  C    -100.858000    4.632950  -123.838000
  C    -101.404000    4.559920  -122.525000
  C    -100.763000    5.395860  -121.554000
  H    -102.192000    3.927880  -122.211000
  C    -101.441000    4.013380  -125.104000
  H    -100.650000    3.855560  -125.792000
  H    -102.180000    4.640800  -125.604000
  C    -101.937000    2.613740  -125.056000
  H    -101.156000    1.917750  -124.686000
  H    -102.655000    2.517720  -124.246000
  C    -102.674000    2.072560  -126.334000
  H    -103.671000    2.557300  -126.375000
  H    -102.024000    2.237340  -127.259000
  H    -102.825000    0.997432  -126.208000
  S    -102.669000    5.800130  -119.740000
  C    -102.345000    6.071470  -118.000000
  C    -101.056000    5.802050  -117.769000
  C    -100.272000    5.643260  -118.933000
  C    -101.033000    5.553220  -120.099000
  H    -100.709000    5.935760  -116.801000
  C    -98.791900    5.405650  -118.885000
  H    -98.424300    5.638370  -117.872000
  H    -98.358400    6.033450  -119.747000
  C    -98.507600    3.913150  -119.030000
  H    -99.112100    3.590570  -119.955000
  H    -99.053500    3.321820  -118.283000
  C    -97.060200    3.468340  -118.997000
  H    -96.329800    3.847160  -119.745000
  H    -97.219700    2.420300  -119.314000
  H    -96.786800    3.611500  -117.952000
  H    -99.389200    5.892560  -124.822000
  H    -103.013000    6.100870  -117.174000

 Total Charge           Charge          ....    0
 Multiplicity           Mult            ....    1
 Number of Electrons    NEL             ....  134
 Basis Dimension        Dim             ....  322

ORBITAL ENERGIES
----------------

  NO   OCC          E(Eh)            E(eV)
   0   2.0000     -88.972597     -2421.0675
   1   2.0000     -88.962779     -2420.8003
   2   2.0000     -10.345636      -281.5191
   3   2.0000     -10.327474      -281.0249
   4   2.0000     -10.320831      -280.8441
   5   2.0000     -10.310741      -280.5695
   6   2.0000     -10.309459      -280.5346
   7   2.0000     -10.302598      -280.3479
   8   2.0000     -10.298743      -280.2431
   9   2.0000     -10.292500      -280.0732
  10   2.0000     -10.291172      -280.0370
  11   2.0000     -10.290212      -280.0109
  12   2.0000     -10.286668      -279.9145
  13   2.0000     -10.283963      -279.8409
  14   2.0000     -10.283596      -279.8309
  15   2.0000     -10.278038      -279.6796
  16   2.0000      -8.085414      -220.0153
  17   2.0000      -8.077984      -219.8131
  18   2.0000      -6.043969      -164.4648
  19   2.0000      -6.040187      -164.3618
  20   2.0000      -6.036575      -164.2636
  21   2.0000      -6.036257      -164.2549
  22   2.0000      -6.032315      -164.1476
  23   2.0000      -6.028705      -164.0494
  24   2.0000      -1.009137       -27.4600
  25   2.0000      -0.980256       -26.6741
  26   2.0000      -0.916294       -24.9336
  27   2.0000      -0.908996       -24.7350
  28   2.0000      -0.875571       -23.8255
  29   2.0000      -0.851355       -23.1666
  30   2.0000      -0.841636       -22.9021
  31   2.0000      -0.818724       -22.2786
  32   2.0000      -0.784921       -21.3588
  33   2.0000      -0.767226       -20.8773
  34   2.0000      -0.711547       -19.3622
  35   2.0000      -0.689084       -18.7509
  36   2.0000      -0.680038       -18.5048
  37   2.0000      -0.671899       -18.2833
  38   2.0000      -0.639508       -17.4019
  39   2.0000      -0.623804       -16.9746
  40   2.0000      -0.590331       -16.0637
  41   2.0000      -0.576635       -15.6910
  42   2.0000      -0.572230       -15.5712
  43   2.0000      -0.563892       -15.3443
  44   2.0000      -0.526621       -14.3301
  45   2.0000      -0.520413       -14.1611
  46   2.0000      -0.518747       -14.1158
  47   2.0000      -0.511395       -13.9158
  48   2.0000      -0.503368       -13.6973
  49   2.0000      -0.501522       -13.6471
  50   2.0000      -0.487210       -13.2577
  51   2.0000      -0.483564       -13.1584
  52   2.0000      -0.482049       -13.1172
  53   2.0000      -0.470432       -12.8011
  54   2.0000      -0.455545       -12.3960
  55   2.0000      -0.452368       -12.3096
  56   2.0000      -0.437142       -11.8952
  57   2.0000      -0.434796       -11.8314
  58   2.0000      -0.427481       -11.6323
  59   2.0000      -0.424170       -11.5423
  60   2.0000      -0.412046       -11.2123
  61   2.0000      -0.408185       -11.1073
  62   2.0000      -0.402769       -10.9599
  63   2.0000      -0.354298        -9.6409
  64   2.0000      -0.337789        -9.1917
  65   2.0000      -0.325706        -8.8629
  66   2.0000      -0.289975        -7.8906
  67   0.0000       0.021165         0.5759
  68   0.0000       0.069838         1.9004
  69   0.0000       0.101779         2.7695
  70   0.0000       0.114109         3.1051
  71   0.0000       0.133918         3.6441

MULLIKEN ATOMIC CHARGES
-----------------------
   0 S :    0.098136
   1 C :   -0.120712
   2 C :   -0.070724
   3 C :    0.039864
   4 C :   -0.140804
   5 H :    0.002852
   6 C :    0.111103
   7 H :    0.010668
   8 H :    0.043215
   9 C :   -0.138783
  10 H :    0.031366
  11 H :    0.015163
  12 C :   -0.067679
  13 H :    0.048213
  14 H :    0.046573
  15 H :    0.042665
  16 S :    0.094258
  17 C :   -0.062771
  18 C :   -0.022284
  19 C :   -0.066533
  20 C :   -0.148683
  21 H :   -0.003760
  22 C :    0.081199
  23 H :    0.008974
  24 H :    0.047420
  25 C :   -0.139374
  26 H :    0.031807
  27 H :    0.020813
  28 C :   -0.015917
  29 H :    0.046126
  30 H :    0.038517
  31 H :    0.039134
  32 H :    0.056532
  33 H :    0.043425
Sum of atomic charges:    0.0000000

LOEWDIN ATOMIC CHARGES
----------------------
   0 S :    0.384091
   1 C :   -0.178263
   2 C :   -0.056313
   3 C :   -0.060858
   4 C :   -0.177290
   5 H :    0.023109
   6 C :   -0.033793
   7 H :    0.029487
   8 H :    0.035413
   9 C :   -0.052114
  10 H :    0.026059
  11 H :    0.014289
  12 C :   -0.066623
  13 H :    0.031111
  14 H :    0.031284
  15 H :    0.029923
  16 S :    0.419967
  17 C :   -0.172448
  18 C :   -0.063265
  19 C :   -0.065012
  20 C :   -0.217799
  21 H :    0.023105
  22 C :   -0.042120
  23 H :    0.026859
  24 H :    0.032965
  25 C :   -0.054836
  26 H :    0.026928
  27 H :    0.025410
  28 C :   -0.071136
  29 H :    0.030334
  30 H :    0.037327
  31 H :    0.027438
  32 H :    0.028972
  33 H :    0.027798

  Mayer bond orders larger than 0.100000
B(  0-S ,  1-C ) :   1.1280 B(  0-S ,  4-C ) :   1.1541 B(  1-C ,  2-C ) :   1.6265
B(  1-C ,  4-C ) :   0.1048 B(  1-C , 32-H ) :   0.9619 B(  2-C ,  3-C ) :   1.2445
B(  2-C ,  6-C ) :   1.0154 B(  3-C ,  4-C ) :   1.5547 B(  3-C ,  5-H ) :   0.9940
B(  4-C , 20-C ) :   1.0172 B(  6-C ,  7-H ) :   0.9368 B(  6-C ,  8-H ) :   0.9380
B(  6-C ,  9-C ) :   1.0559 B(  9-C , 10-H ) :   0.9587 B(  9-C , 11-H ) :   0.9524
B(  9-C , 12-C ) :   1.0787 B( 12-C , 13-H ) :   0.9744 B( 12-C , 14-H ) :   0.9762
B( 12-C , 15-H ) :   0.9738 B( 16-S , 17-C ) :   1.1374 B( 16-S , 20-C ) :   1.1647
B( 17-C , 18-C ) :   1.6379 B( 17-C , 33-H ) :   0.9618 B( 18-C , 19-C ) :   1.2593
B( 18-C , 21-H ) :   0.9900 B( 19-C , 20-C ) :   1.5560 B( 19-C , 22-C ) :   1.0536
B( 22-C , 23-H ) :   0.9238 B( 22-C , 24-H ) :   0.9273 B( 22-C , 25-C ) :   1.0660
B( 25-C , 26-H ) :   0.9566 B( 25-C , 27-H ) :   0.9494 B( 25-C , 28-C ) :   1.0622
B( 28-C , 29-H ) :   0.9756 B( 28-C , 30-H ) :   0.9712 B( 28-C , 31-H ) :   0.9728

Dispersion correction           -0.013931534
FINAL SINGLE POINT ENERGY     -1339.855024141990

DIPOLE MOMENT
-------------
                                X             Y             Z
Electronic contribution:     -5.93583      18.05738       8.98729
Nuclear contribution   :      5.90854     -18.44671      -9.04392
                        -----------------------------------------
Total Dipole Moment    :     -0.02729      -0.38933      -0.05663
                        -----------------------------------------
Magnitude (a.u.)       :      0.39437
Magnitude (Debye)      :      1.00242

Rotational constants in cm-1:     0.019307     0.007707     0.006658
Rotational constants in MHz :   578.804237   231.038343   199.597758

                             ****ORCA TERMINATED NORMALLY****
TOTAL RUN TIME: 0 days 0 hours 0 minutes 21 seconds 219 msec
