                         Program Version 4.2.1 -  RELEASE  -
|  1> ! wB97X-D3 SP def2-SVP
|  2> %pal
|  3> nprocs 24
|  4> end
|  5>
|  6> * xyz 0 1
|  7> S 	 -46.3771 	 25.2855 	 27.6134
|  8> C 	 -47.0554 	 26.5489 	 26.5807
|  9> C 	 -48.4039 	 26.7145 	 26.6964
| 10> C 	 -48.9248 	 26.0354 	 27.8674
| 11> C 	 -47.8443 	 25.4259 	 28.5507
| 12> H 	 -49.8952 	 26.0823 	 28.3453
| 13> C 	 -49.3197 	 27.6673 	 26.0252
| 14> H 	 -48.6873 	 28.3507 	 25.4469
| 15> H 	 -49.8526 	 28.2785 	 26.7632
| 16> C 	 -50.2515 	 27.0996 	 24.9636
| 17> H 	 -50.3366 	 27.753 	 24.0816
| 18> H 	 -49.8904 	 26.186 	 24.5333
| 19> C 	 -51.6195 	 26.6674 	 25.4995
| 20> H 	 -51.519 	 25.9122 	 26.2781
| 21> H 	 -52.1921 	 27.4822 	 25.7798
| 22> H 	 -52.1643 	 26.3319 	 24.6053
| 23> S 	 -47.2564 	 23.353 	 30.2844
| 24> C 	 -47.6618 	 23.5436 	 31.9874
| 25> C 	 -48.1908 	 24.7734 	 32.2196
| 26> C 	 -48.4641 	 25.549 	 31.0399
| 27> C 	 -47.966 	 24.9246 	 29.8957
| 28> H 	 -48.4223 	 25.0611 	 33.2167
| 29> C 	 -49.0625 	 26.9129 	 31.0753
| 30> H 	 -49.6094 	 27.0946 	 32.0153
| 31> H 	 -49.8585 	 27.0114 	 30.3084
| 32> C 	 -48.0379 	 28.1071 	 30.9108
| 33> H 	 -47.3417 	 27.9147 	 30.0808
| 34> H 	 -47.4555 	 28.2829 	 31.8039
| 35> C 	 -48.7504 	 29.4369 	 30.7473
| 36> H 	 -48.0073 	 30.1547 	 30.9275
| 37> H 	 -49.5162 	 29.507 	 31.5465
| 38> H 	 -49.1421 	 29.6741 	 29.6755
| 39> H 	 -46.5593 	 27.0771 	 25.7334
| 40> H 	 -47.3441 	 22.8571 	 32.782
| 41> *
| 42>
| 43>                          ****END OF INPUT****

CARTESIAN COORDINATES (ANGSTROEM)
---------------------------------
  S    -46.377100   25.285500   27.613400
  C    -47.055400   26.548900   26.580700
  C    -48.403900   26.714500   26.696400
  C    -48.924800   26.035400   27.867400
  C    -47.844300   25.425900   28.550700
  H    -49.895200   26.082300   28.345300
  C    -49.319700   27.667300   26.025200
  H    -48.687300   28.350700   25.446900
  H    -49.852600   28.278500   26.763200
  C    -50.251500   27.099600   24.963600
  H    -50.336600   27.753000   24.081600
  H    -49.890400   26.186000   24.533300
  C    -51.619500   26.667400   25.499500
  H    -51.519000   25.912200   26.278100
  H    -52.192100   27.482200   25.779800
  H    -52.164300   26.331900   24.605300
  S    -47.256400   23.353000   30.284400
  C    -47.661800   23.543600   31.987400
  C    -48.190800   24.773400   32.219600
  C    -48.464100   25.549000   31.039900
  C    -47.966000   24.924600   29.895700
  H    -48.422300   25.061100   33.216700
  C    -49.062500   26.912900   31.075300
  H    -49.609400   27.094600   32.015300
  H    -49.858500   27.011400   30.308400
  C    -48.037900   28.107100   30.910800
  H    -47.341700   27.914700   30.080800
  H    -47.455500   28.282900   31.803900
  C    -48.750400   29.436900   30.747300
  H    -48.007300   30.154700   30.927500
  H    -49.516200   29.507000   31.546500
  H    -49.142100   29.674100   29.675500
  H    -46.559300   27.077100   25.733400
  H    -47.344100   22.857100   32.782000

 Total Charge           Charge          ....    0
 Multiplicity           Mult            ....    1
 Number of Electrons    NEL             ....  134
 Basis Dimension        Dim             ....  322

ORBITAL ENERGIES
----------------

  NO   OCC          E(Eh)            E(eV)
   0   2.0000     -88.972049     -2421.0525
   1   2.0000     -88.962372     -2420.7892
   2   2.0000     -10.329995      -281.0934
   3   2.0000     -10.324607      -280.9468
   4   2.0000     -10.316021      -280.7132
   5   2.0000     -10.315184      -280.6904
   6   2.0000     -10.302612      -280.3483
   7   2.0000     -10.300229      -280.2835
   8   2.0000     -10.296443      -280.1805
   9   2.0000     -10.294694      -280.1329
  10   2.0000     -10.290389      -280.0157
  11   2.0000     -10.290128      -280.0086
  12   2.0000     -10.284576      -279.8575
  13   2.0000     -10.283061      -279.8163
  14   2.0000     -10.280117      -279.7362
  15   2.0000     -10.271658      -279.5060
  16   2.0000      -8.086479      -220.0443
  17   2.0000      -8.076978      -219.7857
  18   2.0000      -6.045005      -164.4929
  19   2.0000      -6.041510      -164.3978
  20   2.0000      -6.036748      -164.2683
  21   2.0000      -6.035553      -164.2357
  22   2.0000      -6.031556      -164.1270
  23   2.0000      -6.027652      -164.0208
  24   2.0000      -1.005871       -27.3711
  25   2.0000      -0.982067       -26.7234
  26   2.0000      -0.916939       -24.9512
  27   2.0000      -0.905228       -24.6325
  28   2.0000      -0.870889       -23.6981
  29   2.0000      -0.855194       -23.2710
  30   2.0000      -0.848174       -23.0800
  31   2.0000      -0.812516       -22.1097
  32   2.0000      -0.785044       -21.3621
  33   2.0000      -0.768578       -20.9141
  34   2.0000      -0.704656       -19.1747
  35   2.0000      -0.702013       -19.1027
  36   2.0000      -0.687526       -18.7085
  37   2.0000      -0.662843       -18.0369
  38   2.0000      -0.635337       -17.2884
  39   2.0000      -0.617574       -16.8050
  40   2.0000      -0.596669       -16.2362
  41   2.0000      -0.570557       -15.5256
  42   2.0000      -0.561283       -15.2733
  43   2.0000      -0.554769       -15.0960
  44   2.0000      -0.534984       -14.5577
  45   2.0000      -0.526512       -14.3271
  46   2.0000      -0.521019       -14.1777
  47   2.0000      -0.507182       -13.8011
  48   2.0000      -0.504546       -13.7294
  49   2.0000      -0.499976       -13.6050
  50   2.0000      -0.490329       -13.3425
  51   2.0000      -0.487447       -13.2641
  52   2.0000      -0.470018       -12.7899
  53   2.0000      -0.463648       -12.6165
  54   2.0000      -0.459221       -12.4960
  55   2.0000      -0.451088       -12.2747
  56   2.0000      -0.440324       -11.9818
  57   2.0000      -0.438108       -11.9215
  58   2.0000      -0.430296       -11.7090
  59   2.0000      -0.424344       -11.5470
  60   2.0000      -0.420921       -11.4538
  61   2.0000      -0.416400       -11.3308
  62   2.0000      -0.408284       -11.1100
  63   2.0000      -0.347422        -9.4538
  64   2.0000      -0.333103        -9.0642
  65   2.0000      -0.328273        -8.9328
  66   2.0000      -0.284176        -7.7328
  67   0.0000       0.021462         0.5840
  68   0.0000       0.066761         1.8167
  69   0.0000       0.100156         2.7254
  70   0.0000       0.114684         3.1207
  71   0.0000       0.134171         3.6510

MULLIKEN ATOMIC CHARGES
-----------------------
   0 S :    0.129083
   1 C :   -0.121737
   2 C :   -0.065658
   3 C :    0.006700
   4 C :   -0.150893
   5 H :    0.028060
   6 C :    0.066099
   7 H :    0.008230
   8 H :    0.036077
   9 C :   -0.077478
  10 H :    0.028457
  11 H :    0.021600
  12 C :   -0.031535
  13 H :    0.045003
  14 H :    0.011246
  15 H :    0.027516
  16 S :    0.084889
  17 C :   -0.093382
  18 C :   -0.017991
  19 C :   -0.019920
  20 C :   -0.158614
  21 H :    0.004097
  22 C :    0.045397
  23 H :    0.015495
  24 H :    0.023560
  25 C :   -0.076904
  26 H :    0.046906
  27 H :    0.025526
  28 C :   -0.053300
  29 H :    0.020763
  30 H :    0.031661
  31 H :    0.046810
  32 H :    0.048208
  33 H :    0.066030
Sum of atomic charges:    0.0000000

LOEWDIN ATOMIC CHARGES
----------------------
   0 S :    0.396548
   1 C :   -0.201629
   2 C :   -0.059433
   3 C :   -0.056845
   4 C :   -0.185610
   5 H :    0.031237
   6 C :   -0.035362
   7 H :    0.031513
   8 H :    0.032543
   9 C :   -0.040212
  10 H :    0.025630
  11 H :    0.024407
  12 C :   -0.059642
  13 H :    0.026829
  14 H :    0.010569
  15 H :    0.031539
  16 S :    0.381006
  17 C :   -0.184291
  18 C :   -0.065262
  19 C :   -0.058198
  20 C :   -0.190009
  21 H :    0.026540
  22 C :   -0.038248
  23 H :    0.030218
  24 H :    0.029554
  25 C :   -0.034979
  26 H :    0.028503
  27 H :    0.023764
  28 C :   -0.068561
  29 H :    0.018274
  30 H :    0.026395
  31 H :    0.032743
  32 H :    0.034623
  33 H :    0.035849

  Mayer bond orders larger than 0.100000
B(  0-S ,  1-C ) :   1.1010 B(  0-S ,  4-C ) :   1.1359 B(  1-C ,  2-C ) :   1.6782
B(  1-C , 32-H ) :   0.9520 B(  2-C ,  3-C ) :   1.1702 B(  2-C ,  6-C ) :   1.0428
B(  3-C ,  4-C ) :   1.5763 B(  3-C ,  5-H ) :   0.9936 B(  4-C , 20-C ) :   1.0845
B(  6-C ,  7-H ) :   0.9316 B(  6-C ,  8-H ) :   0.9491 B(  6-C ,  9-C ) :   1.0495
B(  9-C , 10-H ) :   0.9594 B(  9-C , 11-H ) :   0.9561 B(  9-C , 12-C ) :   1.0846
B( 12-C , 13-H ) :   0.9739 B( 12-C , 14-H ) :   0.9761 B( 12-C , 15-H ) :   0.9705
B( 16-S , 17-C ) :   1.1353 B( 16-S , 20-C ) :   1.1281 B( 17-C , 18-C ) :   1.6326
B( 17-C , 33-H ) :   0.9630 B( 18-C , 19-C ) :   1.2347 B( 18-C , 21-H ) :   0.9929
B( 19-C , 20-C ) :   1.5836 B( 19-C , 22-C ) :   1.0600 B( 22-C , 23-H ) :   0.9241
B( 22-C , 24-H ) :   0.9380 B( 22-C , 25-C ) :   1.0538 B( 25-C , 26-H ) :   0.9585
B( 25-C , 27-H ) :   0.9574 B( 25-C , 28-C ) :   1.0824 B( 28-C , 29-H ) :   0.9746
B( 28-C , 30-H ) :   0.9706 B( 28-C , 31-H ) :   0.9720

Dispersion correction           -0.015125963
FINAL SINGLE POINT ENERGY     -1339.863289122088

DIPOLE MOMENT
-------------
                                X             Y             Z
Electronic contribution:     17.84009     -22.38582       5.31315
Nuclear contribution   :    -18.16753      23.00583      -5.24054
                        -----------------------------------------
Total Dipole Moment    :     -0.32744       0.62001       0.07261
                        -----------------------------------------
Magnitude (a.u.)       :      0.70491
Magnitude (Debye)      :      1.79175

Rotational constants in cm-1:     0.018125     0.009331     0.007717
Rotational constants in MHz :   543.380169   279.721828   231.337823

                             ****ORCA TERMINATED NORMALLY****
TOTAL RUN TIME: 0 days 0 hours 0 minutes 22 seconds 598 msec
