                         Program Version 4.2.1 -  RELEASE  -
|  1> ! wB97X-D3 SP def2-SVP
|  2> %pal
|  3> nprocs 24
|  4> end
|  5>
|  6> * xyz 0 1
|  7> S 	 -91.9341 	 -2.80166 	 -120.284
|  8> C 	 -90.7788 	 -3.16507 	 -121.56
|  9> C 	 -90.5088 	 -4.55858 	 -121.605
| 10> C 	 -91.1077 	 -5.29541 	 -120.528
| 11> C 	 -91.8951 	 -4.47735 	 -119.715
| 12> H 	 -90.8761 	 -6.29918 	 -120.233
| 13> C 	 -89.5482 	 -5.12101 	 -122.551
| 14> H 	 -89.0124 	 -5.91149 	 -122.031
| 15> H 	 -88.7344 	 -4.40246 	 -122.624
| 16> C 	 -90.0256 	 -5.45792 	 -124.007
| 17> H 	 -90.9687 	 -5.9378 	 -123.86
| 18> H 	 -90.1361 	 -4.56993 	 -124.551
| 19> C 	 -88.9685 	 -6.34114 	 -124.6
| 20> H 	 -88.9392 	 -7.28398 	 -124.076
| 21> H 	 -89.3206 	 -6.64318 	 -125.584
| 22> H 	 -87.998 	 -5.89814 	 -124.631
| 23> S 	 -92.8879 	 -3.47673 	 -117.243
| 24> C 	 -93.3898 	 -4.58865 	 -116.079
| 25> C 	 -93.4431 	 -5.92441 	 -116.614
| 26> C 	 -93.1016 	 -6.01491 	 -117.967
| 27> C 	 -92.5573 	 -4.78441 	 -118.421
| 28> H 	 -93.8959 	 -6.64592 	 -115.887
| 29> C 	 -93.3902 	 -7.26433 	 -118.799
| 30> H 	 -93.0724 	 -7.17256 	 -119.793
| 31> H 	 -94.4631 	 -7.28773 	 -119.047
| 32> C 	 -92.6283 	 -8.53968 	 -118.446
| 33> H 	 -92.9826 	 -8.81964 	 -117.446
| 34> H 	 -91.5225 	 -8.3516 	 -118.33
| 35> C 	 -92.8984 	 -9.70835 	 -119.425
| 36> H 	 -92.188 	 -10.5657 	 -119.216
| 37> H 	 -92.756 	 -9.41018 	 -120.487
| 38> H 	 -93.8411 	 -10.2254 	 -119.375
| 39> H 	 -90.4592 	 -2.37851 	 -122.173
| 40> H 	 -93.8447 	 -4.37091 	 -115.066
| 41> *
| 42>
| 43>                          ****END OF INPUT****

CARTESIAN COORDINATES (ANGSTROEM)
---------------------------------
  S    -91.934100   -2.801660  -120.284000
  C    -90.778800   -3.165070  -121.560000
  C    -90.508800   -4.558580  -121.605000
  C    -91.107700   -5.295410  -120.528000
  C    -91.895100   -4.477350  -119.715000
  H    -90.876100   -6.299180  -120.233000
  C    -89.548200   -5.121010  -122.551000
  H    -89.012400   -5.911490  -122.031000
  H    -88.734400   -4.402460  -122.624000
  C    -90.025600   -5.457920  -124.007000
  H    -90.968700   -5.937800  -123.860000
  H    -90.136100   -4.569930  -124.551000
  C    -88.968500   -6.341140  -124.600000
  H    -88.939200   -7.283980  -124.076000
  H    -89.320600   -6.643180  -125.584000
  H    -87.998000   -5.898140  -124.631000
  S    -92.887900   -3.476730  -117.243000
  C    -93.389800   -4.588650  -116.079000
  C    -93.443100   -5.924410  -116.614000
  C    -93.101600   -6.014910  -117.967000
  C    -92.557300   -4.784410  -118.421000
  H    -93.895900   -6.645920  -115.887000
  C    -93.390200   -7.264330  -118.799000
  H    -93.072400   -7.172560  -119.793000
  H    -94.463100   -7.287730  -119.047000
  C    -92.628300   -8.539680  -118.446000
  H    -92.982600   -8.819640  -117.446000
  H    -91.522500   -8.351600  -118.330000
  C    -92.898400   -9.708350  -119.425000
  H    -92.188000  -10.565700  -119.216000
  H    -92.756000   -9.410180  -120.487000
  H    -93.841100  -10.225400  -119.375000
  H    -90.459200   -2.378510  -122.173000
  H    -93.844700   -4.370910  -115.066000

 Total Charge           Charge          ....    0
 Multiplicity           Mult            ....    1
 Number of Electrons    NEL             ....  134
 Basis Dimension        Dim             ....  322

ORBITAL ENERGIES
----------------

  NO   OCC          E(Eh)            E(eV)
   0   2.0000     -88.972685     -2421.0698
   1   2.0000     -88.963535     -2420.8209
   2   2.0000     -10.334659      -281.2204
   3   2.0000     -10.334002      -281.2025
   4   2.0000     -10.321415      -280.8600
   5   2.0000     -10.311807      -280.5985
   6   2.0000     -10.309321      -280.5309
   7   2.0000     -10.302138      -280.3354
   8   2.0000     -10.298107      -280.2258
   9   2.0000     -10.296538      -280.1830
  10   2.0000     -10.295445      -280.1533
  11   2.0000     -10.288884      -279.9748
  12   2.0000     -10.287202      -279.9290
  13   2.0000     -10.281906      -279.7849
  14   2.0000     -10.280047      -279.7343
  15   2.0000     -10.272344      -279.5247
  16   2.0000      -8.087268      -220.0657
  17   2.0000      -8.077992      -219.8133
  18   2.0000      -6.045624      -164.5098
  19   2.0000      -6.041743      -164.4042
  20   2.0000      -6.038251      -164.3092
  21   2.0000      -6.036419      -164.2593
  22   2.0000      -6.032566      -164.1545
  23   2.0000      -6.028864      -164.0537
  24   2.0000      -1.001228       -27.2448
  25   2.0000      -0.979401       -26.6509
  26   2.0000      -0.914980       -24.8979
  27   2.0000      -0.911298       -24.7977
  28   2.0000      -0.863926       -23.5086
  29   2.0000      -0.856531       -23.3074
  30   2.0000      -0.846295       -23.0289
  31   2.0000      -0.809817       -22.0362
  32   2.0000      -0.786224       -21.3942
  33   2.0000      -0.763336       -20.7714
  34   2.0000      -0.710008       -19.3203
  35   2.0000      -0.704153       -19.1610
  36   2.0000      -0.694060       -18.8863
  37   2.0000      -0.655777       -17.8446
  38   2.0000      -0.638319       -17.3695
  39   2.0000      -0.622933       -16.9509
  40   2.0000      -0.599637       -16.3170
  41   2.0000      -0.570868       -15.5341
  42   2.0000      -0.560511       -15.2523
  43   2.0000      -0.558428       -15.1956
  44   2.0000      -0.525942       -14.3116
  45   2.0000      -0.524494       -14.2722
  46   2.0000      -0.521371       -14.1872
  47   2.0000      -0.510828       -13.9003
  48   2.0000      -0.507420       -13.8076
  49   2.0000      -0.496918       -13.5218
  50   2.0000      -0.489841       -13.3293
  51   2.0000      -0.480080       -13.0636
  52   2.0000      -0.466517       -12.6946
  53   2.0000      -0.464786       -12.6475
  54   2.0000      -0.458724       -12.4825
  55   2.0000      -0.451838       -12.2951
  56   2.0000      -0.445151       -12.1132
  57   2.0000      -0.440119       -11.9762
  58   2.0000      -0.438065       -11.9204
  59   2.0000      -0.429134       -11.6773
  60   2.0000      -0.425082       -11.5671
  61   2.0000      -0.409685       -11.1481
  62   2.0000      -0.402393       -10.9497
  63   2.0000      -0.351988        -9.5781
  64   2.0000      -0.335441        -9.1278
  65   2.0000      -0.327285        -8.9059
  66   2.0000      -0.274571        -7.4715
  67   0.0000       0.015300         0.4163
  68   0.0000       0.077522         2.1095
  69   0.0000       0.097845         2.6625
  70   0.0000       0.116666         3.1746
  71   0.0000       0.134533         3.6608

MULLIKEN ATOMIC CHARGES
-----------------------
   0 S :    0.082046
   1 C :   -0.109917
   2 C :   -0.070351
   3 C :    0.025250
   4 C :   -0.129384
   5 H :    0.008116
   6 C :    0.007590
   7 H :    0.011616
   8 H :    0.015963
   9 C :   -0.009061
  10 H :    0.025728
  11 H :    0.020230
  12 C :   -0.020449
  13 H :    0.022527
  14 H :    0.023491
  15 H :    0.032300
  16 S :    0.132547
  17 C :   -0.129828
  18 C :   -0.073222
  19 C :   -0.025637
  20 C :   -0.139189
  21 H :    0.037385
  22 C :    0.092406
  23 H :   -0.024582
  24 H :    0.044749
  25 C :   -0.081957
  26 H :    0.026853
  27 H :    0.049029
  28 C :   -0.071631
  29 H :    0.038957
  30 H :    0.034600
  31 H :    0.035555
  32 H :    0.035908
  33 H :    0.082364
Sum of atomic charges:    0.0000000

LOEWDIN ATOMIC CHARGES
----------------------
   0 S :    0.385991
   1 C :   -0.188134
   2 C :   -0.057686
   3 C :   -0.068363
   4 C :   -0.171782
   5 H :    0.029783
   6 C :   -0.044386
   7 H :    0.028242
   8 H :    0.031214
   9 C :   -0.022127
  10 H :    0.022932
  11 H :    0.018021
  12 C :   -0.058201
  13 H :    0.024944
  14 H :    0.025210
  15 H :    0.023334
  16 S :    0.429647
  17 C :   -0.225510
  18 C :   -0.082717
  19 C :   -0.052848
  20 C :   -0.193586
  21 H :    0.038752
  22 C :   -0.041468
  23 H :    0.019244
  24 H :    0.044129
  25 C :   -0.039934
  26 H :    0.020686
  27 H :    0.034553
  28 C :   -0.074998
  29 H :    0.035063
  30 H :    0.025747
  31 H :    0.024413
  32 H :    0.014778
  33 H :    0.045056

  Mayer bond orders larger than 0.100000
B(  0-S ,  1-C ) :   1.1349 B(  0-S ,  4-C ) :   1.1564 B(  1-C ,  2-C ) :   1.5671
B(  1-C , 32-H ) :   0.9840 B(  2-C ,  3-C ) :   1.2487 B(  2-C ,  6-C ) :   1.0399
B(  3-C ,  4-C ) :   1.5534 B(  3-C ,  5-H ) :   0.9907 B(  4-C , 20-C ) :   1.0731
B(  6-C ,  7-H ) :   0.9479 B(  6-C ,  8-H ) :   0.9339 B(  6-C ,  9-C ) :   1.0402
B(  9-C , 10-H ) :   0.9587 B(  9-C , 11-H ) :   0.9520 B(  9-C , 12-C ) :   1.0936
B( 12-C , 13-H ) :   0.9742 B( 12-C , 14-H ) :   0.9697 B( 12-C , 15-H ) :   0.9730
B( 16-S , 17-C ) :   1.1928 B( 16-S , 20-C ) :   1.1540 B( 17-C , 18-C ) :   1.5543
B( 17-C , 20-C ) :   0.1129 B( 17-C , 33-H ) :   0.9584 B( 18-C , 19-C ) :   1.2880
B( 18-C , 21-H ) :   0.9849 B( 19-C , 20-C ) :   1.5155 B( 19-C , 22-C ) :   1.0447
B( 22-C , 23-H ) :   0.9194 B( 22-C , 24-H ) :   0.9307 B( 22-C , 25-C ) :   1.0417
B( 25-C , 26-H ) :   0.9565 B( 25-C , 27-H ) :   0.9552 B( 25-C , 28-C ) :   1.0774
B( 28-C , 29-H ) :   0.9742 B( 28-C , 30-H ) :   0.9743 B( 28-C , 31-H ) :   0.9761

Dispersion correction           -0.013484481
FINAL SINGLE POINT ENERGY     -1339.857175838042

DIPOLE MOMENT
-------------
                                X             Y             Z
Electronic contribution:     -8.27383      26.48094      17.47898
Nuclear contribution   :      8.32614     -27.05800     -17.68695
                        -----------------------------------------
Total Dipole Moment    :      0.05230      -0.57707      -0.20797
                        -----------------------------------------
Magnitude (a.u.)       :      0.61562
Magnitude (Debye)      :      1.56479

Rotational constants in cm-1:     0.017118     0.008723     0.005970
Rotational constants in MHz :   513.196339   261.521481   178.967363

                             ****ORCA TERMINATED NORMALLY****
TOTAL RUN TIME: 0 days 0 hours 0 minutes 19 seconds 923 msec
