                         Program Version 4.2.1 -  RELEASE  -
|  1> ! wB97X-D3 SP def2-SVP
|  2> %pal
|  3> nprocs 24
|  4> end
|  5>
|  6> * xyz 0 1
|  7> S 	 -98.0818 	 49.07 	 -93.0252
|  8> C 	 -97.476 	 47.522 	 -92.6502
|  9> C 	 -96.7514 	 46.9757 	 -93.6391
| 10> C 	 -96.5882 	 47.9246 	 -94.7696
| 11> C 	 -97.2838 	 49.1191 	 -94.5833
| 12> H 	 -95.9203 	 47.7158 	 -95.5706
| 13> C 	 -96.1411 	 45.5886 	 -93.7327
| 14> H 	 -96.5475 	 45.1219 	 -94.6297
| 15> H 	 -96.5514 	 45.0397 	 -92.9106
| 16> C 	 -94.5975 	 45.6069 	 -93.9111
| 17> H 	 -94.2381 	 46.4089 	 -94.6177
| 18> H 	 -94.0815 	 45.8954 	 -92.9829
| 19> C 	 -94.1088 	 44.1568 	 -94.3272
| 20> H 	 -94.3535 	 43.477 	 -93.5493
| 21> H 	 -94.5578 	 43.7456 	 -95.2924
| 22> H 	 -93.016 	 44.0841 	 -94.4404
| 23> S 	 -97.6381 	 51.8038 	 -94.7269
| 24> C 	 -97.6632 	 52.7005 	 -96.2579
| 25> C 	 -97.3936 	 51.8501 	 -97.2691
| 26> C 	 -97.19 	 50.4812 	 -96.8262
| 27> C 	 -97.3277 	 50.2858 	 -95.4855
| 28> H 	 -97.2749 	 52.1274 	 -98.3264
| 29> C 	 -96.9145 	 49.3385 	 -97.8143
| 30> H 	 -96.147 	 48.5628 	 -97.4972
| 31> H 	 -96.5605 	 49.7662 	 -98.748
| 32> C 	 -98.1886 	 48.558 	 -98.2653
| 33> H 	 -98.6782 	 49.2516 	 -98.9617
| 34> H 	 -98.9347 	 48.4687 	 -97.4229
| 35> C 	 -97.8978 	 47.2284 	 -98.9651
| 36> H 	 -97.1853 	 47.3436 	 -99.7496
| 37> H 	 -98.9007 	 47.0161 	 -99.3645
| 38> H 	 -97.5276 	 46.5027 	 -98.3042
| 39> H 	 -97.8097 	 47.052 	 -91.7773
| 40> H 	 -97.9423 	 53.7218 	 -96.3762
| 41> *
| 42>
| 43>                          ****END OF INPUT****

CARTESIAN COORDINATES (ANGSTROEM)
---------------------------------
  S    -98.081800   49.070000  -93.025200
  C    -97.476000   47.522000  -92.650200
  C    -96.751400   46.975700  -93.639100
  C    -96.588200   47.924600  -94.769600
  C    -97.283800   49.119100  -94.583300
  H    -95.920300   47.715800  -95.570600
  C    -96.141100   45.588600  -93.732700
  H    -96.547500   45.121900  -94.629700
  H    -96.551400   45.039700  -92.910600
  C    -94.597500   45.606900  -93.911100
  H    -94.238100   46.408900  -94.617700
  H    -94.081500   45.895400  -92.982900
  C    -94.108800   44.156800  -94.327200
  H    -94.353500   43.477000  -93.549300
  H    -94.557800   43.745600  -95.292400
  H    -93.016000   44.084100  -94.440400
  S    -97.638100   51.803800  -94.726900
  C    -97.663200   52.700500  -96.257900
  C    -97.393600   51.850100  -97.269100
  C    -97.190000   50.481200  -96.826200
  C    -97.327700   50.285800  -95.485500
  H    -97.274900   52.127400  -98.326400
  C    -96.914500   49.338500  -97.814300
  H    -96.147000   48.562800  -97.497200
  H    -96.560500   49.766200  -98.748000
  C    -98.188600   48.558000  -98.265300
  H    -98.678200   49.251600  -98.961700
  H    -98.934700   48.468700  -97.422900
  C    -97.897800   47.228400  -98.965100
  H    -97.185300   47.343600  -99.749600
  H    -98.900700   47.016100  -99.364500
  H    -97.527600   46.502700  -98.304200
  H    -97.809700   47.052000  -91.777300
  H    -97.942300   53.721800  -96.376200

 Total Charge           Charge          ....    0
 Multiplicity           Mult            ....    1
 Number of Electrons    NEL             ....  134
 Basis Dimension        Dim             ....  322

ORBITAL ENERGIES
----------------

  NO   OCC          E(Eh)            E(eV)
   0   2.0000     -88.963690     -2420.8251
   1   2.0000     -88.960404     -2420.7357
   2   2.0000     -10.335949      -281.2555
   3   2.0000     -10.326609      -281.0013
   4   2.0000     -10.316665      -280.7307
   5   2.0000     -10.305870      -280.4370
   6   2.0000     -10.302303      -280.3399
   7   2.0000     -10.300754      -280.2978
   8   2.0000     -10.300350      -280.2868
   9   2.0000     -10.297265      -280.2028
  10   2.0000     -10.296132      -280.1720
  11   2.0000     -10.295029      -280.1420
  12   2.0000     -10.294125      -280.1174
  13   2.0000     -10.286890      -279.9205
  14   2.0000     -10.286062      -279.8980
  15   2.0000     -10.273244      -279.5492
  16   2.0000      -8.079546      -219.8556
  17   2.0000      -8.075679      -219.7504
  18   2.0000      -6.038190      -164.3075
  19   2.0000      -6.034367      -164.2035
  20   2.0000      -6.033864      -164.1898
  21   2.0000      -6.030119      -164.0879
  22   2.0000      -6.030069      -164.0865
  23   2.0000      -6.026239      -163.9823
  24   2.0000      -1.010378       -27.4938
  25   2.0000      -0.988869       -26.9085
  26   2.0000      -0.908409       -24.7191
  27   2.0000      -0.903135       -24.5755
  28   2.0000      -0.874434       -23.7946
  29   2.0000      -0.849242       -23.1090
  30   2.0000      -0.840830       -22.8801
  31   2.0000      -0.821070       -22.3425
  32   2.0000      -0.778109       -21.1734
  33   2.0000      -0.773016       -21.0348
  34   2.0000      -0.711490       -19.3606
  35   2.0000      -0.699839       -19.0436
  36   2.0000      -0.687780       -18.7154
  37   2.0000      -0.669954       -18.2304
  38   2.0000      -0.646253       -17.5854
  39   2.0000      -0.623322       -16.9615
  40   2.0000      -0.596538       -16.2326
  41   2.0000      -0.569408       -15.4944
  42   2.0000      -0.561349       -15.2751
  43   2.0000      -0.554481       -15.0882
  44   2.0000      -0.527331       -14.3494
  45   2.0000      -0.525108       -14.2889
  46   2.0000      -0.513689       -13.9782
  47   2.0000      -0.510865       -13.9014
  48   2.0000      -0.510113       -13.8809
  49   2.0000      -0.504495       -13.7280
  50   2.0000      -0.495886       -13.4937
  51   2.0000      -0.486480       -13.2378
  52   2.0000      -0.474935       -12.9236
  53   2.0000      -0.462063       -12.5734
  54   2.0000      -0.458919       -12.4878
  55   2.0000      -0.450788       -12.2666
  56   2.0000      -0.446156       -12.1405
  57   2.0000      -0.440371       -11.9831
  58   2.0000      -0.429106       -11.6766
  59   2.0000      -0.425223       -11.5709
  60   2.0000      -0.418391       -11.3850
  61   2.0000      -0.414831       -11.2881
  62   2.0000      -0.406386       -11.0583
  63   2.0000      -0.365159        -9.9365
  64   2.0000      -0.329473        -8.9654
  65   2.0000      -0.323609        -8.8058
  66   2.0000      -0.292818        -7.9680
  67   0.0000       0.026922         0.7326
  68   0.0000       0.090807         2.4710
  69   0.0000       0.105634         2.8744
  70   0.0000       0.113630         3.0920
  71   0.0000       0.138429         3.7668

MULLIKEN ATOMIC CHARGES
-----------------------
   0 S :    0.103171
   1 C :   -0.112786
   2 C :   -0.077000
   3 C :   -0.004958
   4 C :   -0.089923
   5 H :   -0.004693
   6 C :    0.104134
   7 H :    0.029907
   8 H :    0.014175
   9 C :   -0.104842
  10 H :    0.046553
  11 H :    0.036444
  12 C :   -0.067969
  13 H :    0.028738
  14 H :    0.041895
  15 H :    0.037554
  16 S :    0.075431
  17 C :   -0.072478
  18 C :   -0.012211
  19 C :   -0.077121
  20 C :   -0.107159
  21 H :    0.026003
  22 C :    0.025521
  23 H :    0.036125
  24 H :    0.009703
  25 C :   -0.118779
  26 H :    0.019521
  27 H :    0.045283
  28 C :    0.001848
  29 H :    0.020731
  30 H :    0.041015
  31 H :    0.027427
  32 H :    0.026178
  33 H :    0.052563
Sum of atomic charges:   -0.0000000

LOEWDIN ATOMIC CHARGES
----------------------
   0 S :    0.413931
   1 C :   -0.198761
   2 C :   -0.060900
   3 C :   -0.058586
   4 C :   -0.187221
   5 H :    0.019132
   6 C :   -0.028238
   7 H :    0.033623
   8 H :    0.027140
   9 C :   -0.040641
  10 H :    0.029924
  11 H :    0.027905
  12 C :   -0.072448
  13 H :    0.020070
  14 H :    0.030821
  15 H :    0.027017
  16 S :    0.395257
  17 C :   -0.170829
  18 C :   -0.068870
  19 C :   -0.065738
  20 C :   -0.193346
  21 H :    0.036371
  22 C :   -0.039701
  23 H :    0.029012
  24 H :    0.025067
  25 C :   -0.044408
  26 H :    0.020432
  27 H :    0.028642
  28 C :   -0.056150
  29 H :    0.020231
  30 H :    0.036545
  31 H :    0.017910
  32 H :    0.017862
  33 H :    0.028945

  Mayer bond orders larger than 0.100000
B(  0-S ,  1-C ) :   1.1301 B(  0-S ,  4-C ) :   1.1469 B(  1-C ,  2-C ) :   1.6447
B(  1-C , 32-H ) :   0.9734 B(  2-C ,  3-C ) :   1.2108 B(  2-C ,  6-C ) :   1.0248
B(  3-C ,  4-C ) :   1.5781 B(  3-C ,  5-H ) :   0.9978 B(  4-C , 20-C ) :   1.0514
B(  6-C ,  7-H ) :   0.9421 B(  6-C ,  8-H ) :   0.9403 B(  6-C ,  9-C ) :   1.0383
B(  9-C , 10-H ) :   0.9630 B(  9-C , 11-H ) :   0.9542 B(  9-C , 12-C ) :   1.0673
B( 12-C , 13-H ) :   0.9756 B( 12-C , 14-H ) :   0.9779 B( 12-C , 15-H ) :   0.9766
B( 16-S , 17-C ) :   1.1361 B( 16-S , 20-C ) :   1.1294 B( 17-C , 18-C ) :   1.6188
B( 17-C , 33-H ) :   0.9730 B( 18-C , 19-C ) :   1.2427 B( 18-C , 21-H ) :   0.9842
B( 19-C , 20-C ) :   1.6246 B( 19-C , 22-C ) :   1.0437 B( 22-C , 23-H ) :   0.9514
B( 22-C , 24-H ) :   0.9276 B( 22-C , 25-C ) :   1.0449 B( 25-C , 26-H ) :   0.9576
B( 25-C , 27-H ) :   0.9622 B( 25-C , 28-C ) :   1.0737 B( 28-C , 29-H ) :   0.9722
B( 28-C , 30-H ) :   0.9729 B( 28-C , 31-H ) :   0.9761

Dispersion correction           -0.013974691
FINAL SINGLE POINT ENERGY     -1339.885145707070

DIPOLE MOMENT
-------------
                                X             Y             Z
Electronic contribution:    -10.06035      25.49727      15.47281
Nuclear contribution   :     10.26214     -26.00285     -15.91264
                        -----------------------------------------
Total Dipole Moment    :      0.20179      -0.50558      -0.43983
                        -----------------------------------------
Magnitude (a.u.)       :      0.69984
Magnitude (Debye)      :      1.77885

Rotational constants in cm-1:     0.017823     0.008932     0.006724
Rotational constants in MHz :   534.318818   267.787554   201.590250

                             ****ORCA TERMINATED NORMALLY****
TOTAL RUN TIME: 0 days 0 hours 0 minutes 21 seconds 670 msec
