                         Program Version 4.2.1 -  RELEASE  -
|  1> ! wB97X-D3 SP def2-SVP
|  2> %pal
|  3> nprocs 24
|  4> end
|  5>
|  6> * xyz 0 1
|  7> S 	 -88.4625 	 -7.98121 	 -116.144
|  8> C 	 -90.0851 	 -8.6357 	 -116.184
|  9> C 	 -91.0842 	 -7.70594 	 -116.568
| 10> C 	 -90.4945 	 -6.42415 	 -116.925
| 11> C 	 -89.1083 	 -6.37786 	 -116.674
| 12> H 	 -91.0443 	 -5.55449 	 -117.283
| 13> C 	 -92.4806 	 -8.07619 	 -116.864
| 14> H 	 -92.6973 	 -9.10255 	 -116.441
| 15> H 	 -92.5877 	 -8.33663 	 -117.917
| 16> C 	 -93.6653 	 -7.15029 	 -116.415
| 17> H 	 -93.4051 	 -6.09564 	 -116.483
| 18> H 	 -94.5808 	 -7.18007 	 -116.957
| 19> C 	 -94.0233 	 -7.45185 	 -114.956
| 20> H 	 -94.8332 	 -8.20242 	 -114.823
| 21> H 	 -93.1431 	 -7.83938 	 -114.469
| 22> H 	 -94.2268 	 -6.52379 	 -114.51
| 23> S 	 -86.924 	 -5.43309 	 -118.076
| 24> C 	 -86.6089 	 -3.71516 	 -118.234
| 25> C 	 -87.567 	 -2.96983 	 -117.54
| 26> C 	 -88.5075 	 -3.83286 	 -116.853
| 27> C 	 -88.2658 	 -5.21467 	 -117.004
| 28> H 	 -87.6369 	 -1.89818 	 -117.653
| 29> C 	 -89.6599 	 -3.23298 	 -116.095
| 30> H 	 -90.5996 	 -3.51502 	 -116.508
| 31> H 	 -89.673 	 -2.21084 	 -116.356
| 32> C 	 -89.7245 	 -3.50451 	 -114.636
| 33> H 	 -89.7503 	 -4.52646 	 -114.462
| 34> H 	 -90.6896 	 -3.14855 	 -114.24
| 35> C 	 -88.5858 	 -2.81154 	 -113.79
| 36> H 	 -87.5901 	 -3.28267 	 -114.063
| 37> H 	 -88.6645 	 -3.14349 	 -112.796
| 38> H 	 -88.4009 	 -1.75324 	 -113.903
| 39> H 	 -90.1494 	 -9.73177 	 -116.048
| 40> H 	 -85.837 	 -3.36489 	 -118.861
| 41> *
| 42>
| 43>                          ****END OF INPUT****

CARTESIAN COORDINATES (ANGSTROEM)
---------------------------------
  S    -88.462500   -7.981210  -116.144000
  C    -90.085100   -8.635700  -116.184000
  C    -91.084200   -7.705940  -116.568000
  C    -90.494500   -6.424150  -116.925000
  C    -89.108300   -6.377860  -116.674000
  H    -91.044300   -5.554490  -117.283000
  C    -92.480600   -8.076190  -116.864000
  H    -92.697300   -9.102550  -116.441000
  H    -92.587700   -8.336630  -117.917000
  C    -93.665300   -7.150290  -116.415000
  H    -93.405100   -6.095640  -116.483000
  H    -94.580800   -7.180070  -116.957000
  C    -94.023300   -7.451850  -114.956000
  H    -94.833200   -8.202420  -114.823000
  H    -93.143100   -7.839380  -114.469000
  H    -94.226800   -6.523790  -114.510000
  S    -86.924000   -5.433090  -118.076000
  C    -86.608900   -3.715160  -118.234000
  C    -87.567000   -2.969830  -117.540000
  C    -88.507500   -3.832860  -116.853000
  C    -88.265800   -5.214670  -117.004000
  H    -87.636900   -1.898180  -117.653000
  C    -89.659900   -3.232980  -116.095000
  H    -90.599600   -3.515020  -116.508000
  H    -89.673000   -2.210840  -116.356000
  C    -89.724500   -3.504510  -114.636000
  H    -89.750300   -4.526460  -114.462000
  H    -90.689600   -3.148550  -114.240000
  C    -88.585800   -2.811540  -113.790000
  H    -87.590100   -3.282670  -114.063000
  H    -88.664500   -3.143490  -112.796000
  H    -88.400900   -1.753240  -113.903000
  H    -90.149400   -9.731770  -116.048000
  H    -85.837000   -3.364890  -118.861000

 Total Charge           Charge          ....    0
 Multiplicity           Mult            ....    1
 Number of Electrons    NEL             ....  134
 Basis Dimension        Dim             ....  322

ORBITAL ENERGIES
----------------

  NO   OCC          E(Eh)            E(eV)
   0   2.0000     -88.971873     -2421.0477
   1   2.0000     -88.964434     -2420.8453
   2   2.0000     -10.340329      -281.3747
   3   2.0000     -10.327707      -281.0312
   4   2.0000     -10.323772      -280.9241
   5   2.0000     -10.318665      -280.7852
   6   2.0000     -10.312091      -280.6063
   7   2.0000     -10.305011      -280.4136
   8   2.0000     -10.304571      -280.4016
   9   2.0000     -10.299504      -280.2638
  10   2.0000     -10.297208      -280.2013
  11   2.0000     -10.286582      -279.9121
  12   2.0000     -10.278367      -279.6886
  13   2.0000     -10.278076      -279.6807
  14   2.0000     -10.271249      -279.4949
  15   2.0000     -10.270157      -279.4652
  16   2.0000      -8.085591      -220.0201
  17   2.0000      -8.079518      -219.8549
  18   2.0000      -6.044109      -164.4686
  19   2.0000      -6.040305      -164.3651
  20   2.0000      -6.037910      -164.2999
  21   2.0000      -6.036352      -164.2575
  22   2.0000      -6.033824      -164.1887
  23   2.0000      -6.030525      -164.0989
  24   2.0000      -1.000351       -27.2209
  25   2.0000      -0.977388       -26.5961
  26   2.0000      -0.911588       -24.8056
  27   2.0000      -0.910115       -24.7655
  28   2.0000      -0.867378       -23.6026
  29   2.0000      -0.851811       -23.1789
  30   2.0000      -0.841481       -22.8979
  31   2.0000      -0.812918       -22.1206
  32   2.0000      -0.782878       -21.3032
  33   2.0000      -0.768326       -20.9072
  34   2.0000      -0.713372       -19.4118
  35   2.0000      -0.703014       -19.1300
  36   2.0000      -0.687289       -18.7021
  37   2.0000      -0.666356       -18.1325
  38   2.0000      -0.642423       -17.4812
  39   2.0000      -0.622508       -16.9393
  40   2.0000      -0.595331       -16.1998
  41   2.0000      -0.566023       -15.4023
  42   2.0000      -0.556555       -15.1446
  43   2.0000      -0.551021       -14.9940
  44   2.0000      -0.543186       -14.7808
  45   2.0000      -0.537636       -14.6298
  46   2.0000      -0.521821       -14.1995
  47   2.0000      -0.508377       -13.8336
  48   2.0000      -0.496420       -13.5083
  49   2.0000      -0.494664       -13.4605
  50   2.0000      -0.490876       -13.3574
  51   2.0000      -0.473705       -12.8902
  52   2.0000      -0.472688       -12.8625
  53   2.0000      -0.463509       -12.6127
  54   2.0000      -0.461843       -12.5674
  55   2.0000      -0.449845       -12.2409
  56   2.0000      -0.445922       -12.1341
  57   2.0000      -0.434174       -11.8145
  58   2.0000      -0.429980       -11.7004
  59   2.0000      -0.424488       -11.5509
  60   2.0000      -0.422048       -11.4845
  61   2.0000      -0.416150       -11.3240
  62   2.0000      -0.406892       -11.0721
  63   2.0000      -0.349349        -9.5063
  64   2.0000      -0.331280        -9.0146
  65   2.0000      -0.325849        -8.8668
  66   2.0000      -0.289002        -7.8641
  67   0.0000       0.022588         0.6147
  68   0.0000       0.067619         1.8400
  69   0.0000       0.105524         2.8714
  70   0.0000       0.109567         2.9815
  71   0.0000       0.125483         3.4146

MULLIKEN ATOMIC CHARGES
-----------------------
   0 S :    0.108530
   1 C :   -0.141653
   2 C :   -0.043042
   3 C :    0.022183
   4 C :   -0.157135
   5 H :    0.027651
   6 C :    0.010495
   7 H :    0.022999
   8 H :    0.043793
   9 C :   -0.059865
  10 H :    0.019643
  11 H :    0.022545
  12 C :   -0.043243
  13 H :    0.043144
  14 H :    0.026508
  15 H :    0.018918
  16 S :    0.100936
  17 C :   -0.091635
  18 C :   -0.017605
  19 C :   -0.086350
  20 C :   -0.124226
  21 H :    0.025643
  22 C :    0.125029
  23 H :    0.002388
  24 H :   -0.013586
  25 C :   -0.032646
  26 H :    0.021650
  27 H :    0.018300
  28 C :   -0.056487
  29 H :    0.031115
  30 H :    0.022063
  31 H :    0.035046
  32 H :    0.069533
  33 H :    0.049359
Sum of atomic charges:    0.0000000

LOEWDIN ATOMIC CHARGES
----------------------
   0 S :    0.385980
   1 C :   -0.197259
   2 C :   -0.063398
   3 C :   -0.050663
   4 C :   -0.179602
   5 H :    0.033762
   6 C :   -0.043568
   7 H :    0.036480
   8 H :    0.036346
   9 C :   -0.040085
  10 H :    0.020816
  11 H :    0.022626
  12 C :   -0.061458
  13 H :    0.028892
  14 H :    0.023079
  15 H :    0.019083
  16 S :    0.418368
  17 C :   -0.175828
  18 C :   -0.069301
  19 C :   -0.052127
  20 C :   -0.212937
  21 H :    0.033050
  22 C :   -0.034021
  23 H :    0.025110
  24 H :    0.023104
  25 C :   -0.027688
  26 H :    0.018626
  27 H :    0.024904
  28 C :   -0.069088
  29 H :    0.032941
  30 H :    0.019206
  31 H :    0.022528
  32 H :    0.031861
  33 H :    0.020259

  Mayer bond orders larger than 0.100000
B(  0-S ,  1-C ) :   1.1454 B(  0-S ,  4-C ) :   1.1405 B(  1-C ,  2-C ) :   1.5838
B(  1-C , 32-H ) :   0.9632 B(  2-C ,  3-C ) :   1.2311 B(  2-C ,  6-C ) :   1.0413
B(  3-C ,  4-C ) :   1.5724 B(  3-C ,  5-H ) :   0.9840 B(  4-C , 20-C ) :   1.0502
B(  6-C ,  7-H ) :   0.9467 B(  6-C ,  8-H ) :   0.9351 B(  6-C ,  9-C ) :   1.0510
B(  9-C , 10-H ) :   0.9680 B(  9-C , 11-H ) :   0.9579 B(  9-C , 12-C ) :   1.0688
B( 12-C , 13-H ) :   0.9771 B( 12-C , 14-H ) :   0.9811 B( 12-C , 15-H ) :   0.9757
B( 16-S , 17-C ) :   1.1794 B( 16-S , 20-C ) :   1.1517 B( 17-C , 18-C ) :   1.5621
B( 17-C , 33-H ) :   0.9760 B( 18-C , 19-C ) :   1.2725 B( 18-C , 21-H ) :   0.9919
B( 19-C , 20-C ) :   1.5534 B( 19-C , 22-C ) :   1.0439 B( 22-C , 23-H ) :   0.9216
B( 22-C , 24-H ) :   0.9205 B( 22-C , 25-C ) :   1.0826 B( 25-C , 26-H ) :   0.9525
B( 25-C , 27-H ) :   0.9508 B( 25-C , 28-C ) :   1.0739 B( 28-C , 29-H ) :   0.9727
B( 28-C , 30-H ) :   0.9739 B( 28-C , 31-H ) :   0.9793

Dispersion correction           -0.014819410
FINAL SINGLE POINT ENERGY     -1339.867692389076

DIPOLE MOMENT
-------------
                                X             Y             Z
Electronic contribution:     23.08687      -8.24925     -12.53182
Nuclear contribution   :    -23.68626       8.48006      12.35126
                        -----------------------------------------
Total Dipole Moment    :     -0.59939       0.23081      -0.18055
                        -----------------------------------------
Magnitude (a.u.)       :      0.66719
Magnitude (Debye)      :      1.69586

Rotational constants in cm-1:     0.018960     0.008958     0.007227
Rotational constants in MHz :   568.395855   268.555424   216.648598

                             ****ORCA TERMINATED NORMALLY****
TOTAL RUN TIME: 0 days 0 hours 0 minutes 22 seconds 223 msec
