                         Program Version 4.2.1 -  RELEASE  -
|  1> ! wB97X-D3 SP def2-SVP
|  2> %pal
|  3> nprocs 24
|  4> end
|  5>
|  6> * xyz 0 1
|  7> S 	 -75.7448 	 1.06462 	 -59.5957
|  8> C 	 -77.0566 	 1.44937 	 -58.5405
|  9> C 	 -78.0045 	 0.505725 	 -58.5631
| 10> C 	 -77.6314 	 -0.608193 	 -59.5036
| 11> C 	 -76.3764 	 -0.473778 	 -60.0528
| 12> H 	 -78.2723 	 -1.39047 	 -59.6808
| 13> C 	 -79.2781 	 0.421595 	 -57.7587
| 14> H 	 -79.0685 	 0.139696 	 -56.7108
| 15> H 	 -79.6264 	 -0.555817 	 -58.1046
| 16> C 	 -80.2062 	 1.59677 	 -57.8787
| 17> H 	 -79.7166 	 2.47074 	 -57.4589
| 18> H 	 -80.4213 	 1.8422 	 -58.9547
| 19> C 	 -81.6175 	 1.48316 	 -57.2557
| 20> H 	 -81.6116 	 1.28671 	 -56.2104
| 21> H 	 -82.1567 	 2.43419 	 -57.4998
| 22> H 	 -82.1168 	 0.65668 	 -57.6673
| 23> S 	 -75.6026 	 -0.66508 	 -62.6477
| 24> C 	 -74.8441 	 -2.14108 	 -63.2002
| 25> C 	 -74.8064 	 -3.10394 	 -62.2282
| 26> C 	 -75.3952 	 -2.69514 	 -61.0252
| 27> C 	 -75.811 	 -1.37024 	 -61.0293
| 28> H 	 -74.5646 	 -4.17085 	 -62.3678
| 29> C 	 -75.4289 	 -3.60115 	 -59.8468
| 30> H 	 -75.6974 	 -4.63103 	 -60.0514
| 31> H 	 -76.2773 	 -3.3404 	 -59.2752
| 32> C 	 -74.1699 	 -3.48239 	 -58.9371
| 33> H 	 -74.0093 	 -2.45791 	 -58.4598
| 34> H 	 -73.2422 	 -3.83809 	 -59.4614
| 35> C 	 -74.3385 	 -4.4678 	 -57.7507
| 36> H 	 -75.3068 	 -4.30695 	 -57.1569
| 37> H 	 -73.5063 	 -4.32199 	 -57.1024
| 38> H 	 -74.3917 	 -5.49575 	 -58.1185
| 39> H 	 -77.099 	 2.32041 	 -57.8709
| 40> H 	 -74.649 	 -2.39507 	 -64.2447
| 41> *
| 42>
| 43>                          ****END OF INPUT****

CARTESIAN COORDINATES (ANGSTROEM)
---------------------------------
  S    -75.744800    1.064620  -59.595700
  C    -77.056600    1.449370  -58.540500
  C    -78.004500    0.505725  -58.563100
  C    -77.631400   -0.608193  -59.503600
  C    -76.376400   -0.473778  -60.052800
  H    -78.272300   -1.390470  -59.680800
  C    -79.278100    0.421595  -57.758700
  H    -79.068500    0.139696  -56.710800
  H    -79.626400   -0.555817  -58.104600
  C    -80.206200    1.596770  -57.878700
  H    -79.716600    2.470740  -57.458900
  H    -80.421300    1.842200  -58.954700
  C    -81.617500    1.483160  -57.255700
  H    -81.611600    1.286710  -56.210400
  H    -82.156700    2.434190  -57.499800
  H    -82.116800    0.656680  -57.667300
  S    -75.602600   -0.665080  -62.647700
  C    -74.844100   -2.141080  -63.200200
  C    -74.806400   -3.103940  -62.228200
  C    -75.395200   -2.695140  -61.025200
  C    -75.811000   -1.370240  -61.029300
  H    -74.564600   -4.170850  -62.367800
  C    -75.428900   -3.601150  -59.846800
  H    -75.697400   -4.631030  -60.051400
  H    -76.277300   -3.340400  -59.275200
  C    -74.169900   -3.482390  -58.937100
  H    -74.009300   -2.457910  -58.459800
  H    -73.242200   -3.838090  -59.461400
  C    -74.338500   -4.467800  -57.750700
  H    -75.306800   -4.306950  -57.156900
  H    -73.506300   -4.321990  -57.102400
  H    -74.391700   -5.495750  -58.118500
  H    -77.099000    2.320410  -57.870900
  H    -74.649000   -2.395070  -64.244700

 Total Charge           Charge          ....    0
 Multiplicity           Mult            ....    1
 Number of Electrons    NEL             ....  134
 Basis Dimension        Dim             ....  322

ORBITAL ENERGIES
----------------

  NO   OCC          E(Eh)            E(eV)
   0   2.0000     -88.965017     -2420.8612
   1   2.0000     -88.962385     -2420.7896
   2   2.0000     -10.326747      -281.0051
   3   2.0000     -10.325997      -280.9847
   4   2.0000     -10.316696      -280.7316
   5   2.0000     -10.309439      -280.5341
   6   2.0000     -10.298172      -280.2275
   7   2.0000     -10.297961      -280.2218
   8   2.0000     -10.294955      -280.1400
   9   2.0000     -10.292442      -280.0716
  10   2.0000     -10.290680      -280.0236
  11   2.0000     -10.290030      -280.0059
  12   2.0000     -10.289485      -279.9911
  13   2.0000     -10.285019      -279.8696
  14   2.0000     -10.278359      -279.6884
  15   2.0000     -10.276082      -279.6264
  16   2.0000      -8.079472      -219.8536
  17   2.0000      -8.078139      -219.8173
  18   2.0000      -6.037975      -164.3017
  19   2.0000      -6.036784      -164.2692
  20   2.0000      -6.034037      -164.1945
  21   2.0000      -6.032408      -164.1502
  22   2.0000      -6.030233      -164.0910
  23   2.0000      -6.028760      -164.0509
  24   2.0000      -1.009327       -27.4652
  25   2.0000      -0.986846       -26.8535
  26   2.0000      -0.914375       -24.8814
  27   2.0000      -0.906907       -24.6782
  28   2.0000      -0.874110       -23.7857
  29   2.0000      -0.850635       -23.1470
  30   2.0000      -0.846982       -23.0475
  31   2.0000      -0.814130       -22.1536
  32   2.0000      -0.783342       -21.3158
  33   2.0000      -0.771448       -20.9922
  34   2.0000      -0.709846       -19.3159
  35   2.0000      -0.700047       -19.0493
  36   2.0000      -0.689787       -18.7701
  37   2.0000      -0.665618       -18.1124
  38   2.0000      -0.644089       -17.5266
  39   2.0000      -0.616166       -16.7667
  40   2.0000      -0.599769       -16.3205
  41   2.0000      -0.567869       -15.4525
  42   2.0000      -0.560839       -15.2612
  43   2.0000      -0.556766       -15.1504
  44   2.0000      -0.536556       -14.6004
  45   2.0000      -0.528407       -14.3787
  46   2.0000      -0.519111       -14.1257
  47   2.0000      -0.507590       -13.8122
  48   2.0000      -0.505592       -13.7579
  49   2.0000      -0.503241       -13.6939
  50   2.0000      -0.496588       -13.5128
  51   2.0000      -0.478596       -13.0233
  52   2.0000      -0.471457       -12.8290
  53   2.0000      -0.456253       -12.4153
  54   2.0000      -0.452091       -12.3020
  55   2.0000      -0.448215       -12.1965
  56   2.0000      -0.442330       -12.0364
  57   2.0000      -0.440488       -11.9863
  58   2.0000      -0.439389       -11.9564
  59   2.0000      -0.421235       -11.4624
  60   2.0000      -0.418802       -11.3962
  61   2.0000      -0.415310       -11.3012
  62   2.0000      -0.410666       -11.1748
  63   2.0000      -0.344754        -9.3812
  64   2.0000      -0.333457        -9.0738
  65   2.0000      -0.323089        -8.7917
  66   2.0000      -0.298984        -8.1358
  67   0.0000       0.038262         1.0412
  68   0.0000       0.065153         1.7729
  69   0.0000       0.113093         3.0774
  70   0.0000       0.124671         3.3925
  71   0.0000       0.133632         3.6363

MULLIKEN ATOMIC CHARGES
-----------------------
   0 S :    0.113179
   1 C :   -0.135975
   2 C :   -0.106883
   3 C :    0.058667
   4 C :   -0.141167
   5 H :   -0.016925
   6 C :    0.102559
   7 H :    0.035672
   8 H :   -0.004639
   9 C :   -0.097805
  10 H :    0.028208
  11 H :    0.039989
  12 C :   -0.023727
  13 H :    0.021262
  14 H :    0.046742
  15 H :    0.017871
  16 S :    0.107063
  17 C :   -0.080946
  18 C :   -0.038090
  19 C :   -0.021300
  20 C :   -0.178289
  21 H :    0.025101
  22 C :    0.096762
  23 H :    0.012240
  24 H :   -0.010152
  25 C :   -0.102186
  26 H :    0.056220
  27 H :    0.040529
  28 C :   -0.058657
  29 H :    0.035355
  30 H :    0.033295
  31 H :    0.027870
  32 H :    0.055923
  33 H :    0.062236
Sum of atomic charges:    0.0000000

LOEWDIN ATOMIC CHARGES
----------------------
   0 S :    0.417872
   1 C :   -0.203673
   2 C :   -0.063519
   3 C :   -0.049760
   4 C :   -0.210457
   5 H :    0.012212
   6 C :   -0.042348
   7 H :    0.036366
   8 H :    0.028034
   9 C :   -0.043835
  10 H :    0.022192
  11 H :    0.033510
  12 C :   -0.059574
  13 H :    0.017931
  14 H :    0.036399
  15 H :    0.017413
  16 S :    0.400875
  17 C :   -0.183762
  18 C :   -0.076301
  19 C :   -0.054702
  20 C :   -0.187557
  21 H :    0.037404
  22 C :   -0.036313
  23 H :    0.030073
  24 H :    0.024234
  25 C :   -0.036880
  26 H :    0.036800
  27 H :    0.028776
  28 C :   -0.070723
  29 H :    0.029171
  30 H :    0.020202
  31 H :    0.020889
  32 H :    0.036182
  33 H :    0.032869

  Mayer bond orders larger than 0.100000
B(  0-S ,  1-C ) :   1.1261 B(  0-S ,  4-C ) :   1.1438 B(  1-C ,  2-C ) :   1.6532
B(  1-C , 32-H ) :   0.9652 B(  2-C ,  3-C ) :   1.2218 B(  2-C ,  6-C ) :   1.0145
B(  3-C ,  4-C ) :   1.5876 B(  3-C ,  5-H ) :   0.9994 B(  4-C , 20-C ) :   1.0310
B(  6-C ,  7-H ) :   0.9284 B(  6-C ,  8-H ) :   0.9331 B(  6-C ,  9-C ) :   1.0595
B(  9-C , 10-H ) :   0.9532 B(  9-C , 11-H ) :   0.9594 B(  9-C , 12-C ) :   1.0862
B( 12-C , 13-H ) :   0.9737 B( 12-C , 14-H ) :   0.9754 B( 12-C , 15-H ) :   0.9752
B( 16-S , 17-C ) :   1.1584 B( 16-S , 20-C ) :   1.1419 B( 17-C , 18-C ) :   1.5949
B( 17-C , 20-C ) :   0.1054 B( 17-C , 33-H ) :   0.9618 B( 18-C , 19-C ) :   1.2712
B( 18-C , 21-H ) :   0.9807 B( 19-C , 20-C ) :   1.5951 B( 19-C , 22-C ) :   1.0591
B( 22-C , 23-H ) :   0.9325 B( 22-C , 24-H ) :   0.9144 B( 22-C , 25-C ) :   1.0588
B( 25-C , 26-H ) :   0.9574 B( 25-C , 27-H ) :   0.9564 B( 25-C , 28-C ) :   1.0761
B( 28-C , 29-H ) :   0.9745 B( 28-C , 30-H ) :   0.9753 B( 28-C , 31-H ) :   0.9753

Dispersion correction           -0.013624363
FINAL SINGLE POINT ENERGY     -1339.875216070449

DIPOLE MOMENT
-------------
                                X             Y             Z
Electronic contribution:     12.81181       9.52921     -19.89144
Nuclear contribution   :    -13.23302      -9.98099      20.25422
                        -----------------------------------------
Total Dipole Moment    :     -0.42121      -0.45178       0.36277
                        -----------------------------------------
Magnitude (a.u.)       :      0.71633
Magnitude (Debye)      :      1.82076

Rotational constants in cm-1:     0.019475     0.007494     0.006333
Rotational constants in MHz :   583.838016   224.661898   189.864348

                             ****ORCA TERMINATED NORMALLY****
TOTAL RUN TIME: 0 days 0 hours 0 minutes 21 seconds 58 msec
