                         Program Version 4.2.1 -  RELEASE  -
|  1> ! wB97X-D3 SP def2-SVP
|  2> %pal
|  3> nprocs 24
|  4> end
|  5>
|  6> * xyz 0 1
|  7> S 	 -146.639 	 2.45637 	 13.7422
|  8> C 	 -145.607 	 1.07541 	 14.0109
|  9> C 	 -144.397 	 1.55112 	 14.4271
| 10> C 	 -144.33 	 3.02506 	 14.5725
| 11> C 	 -145.486 	 3.63711 	 14.2672
| 12> H 	 -143.371 	 3.60251 	 14.8922
| 13> C 	 -143.092 	 0.751188 	 14.6984
| 14> H 	 -142.284 	 1.04784 	 14.0255
| 15> H 	 -143.186 	 -0.312066 	 14.3513
| 16> C 	 -142.542 	 0.632607 	 16.1236
| 17> H 	 -141.551 	 0.157027 	 16.1971
| 18> H 	 -142.42 	 1.57876 	 16.5423
| 19> C 	 -143.527 	 -0.0797418 	 17.0638
| 20> H 	 -143.064 	 -0.350603 	 17.9857
| 21> H 	 -144.343 	 0.528587 	 17.3793
| 22> H 	 -143.942 	 -1.0224 	 16.691
| 23> S 	 -146.635 	 5.54631 	 15.919
| 24> C 	 -146.641 	 7.18979 	 15.3943
| 25> C 	 -146.28 	 7.24751 	 14.0521
| 26> C 	 -145.751 	 6.0349 	 13.5219
| 27> C 	 -145.867 	 5.01873 	 14.4468
| 28> H 	 -146.319 	 8.16319 	 13.551
| 29> C 	 -145.303 	 5.86978 	 11.9913
| 30> H 	 -145.618 	 4.85755 	 11.6805
| 31> H 	 -144.322 	 5.96906 	 11.8694
| 32> C 	 -145.971 	 6.88135 	 11.0173
| 33> H 	 -145.631 	 7.8844 	 11.2996
| 34> H 	 -147.11 	 6.89991 	 10.9315
| 35> C 	 -145.458 	 6.74211 	 9.59156
| 36> H 	 -145.814 	 5.82184 	 9.05775
| 37> H 	 -144.396 	 6.94952 	 9.5532
| 38> H 	 -145.871 	 7.54542 	 8.90566
| 39> H 	 -145.668 	 0.093059 	 13.5572
| 40> H 	 -146.926 	 8.01921 	 16.0333
| 41> *
| 42>
| 43>                          ****END OF INPUT****

CARTESIAN COORDINATES (ANGSTROEM)
---------------------------------
  S    -146.639000    2.456370   13.742200
  C    -145.607000    1.075410   14.010900
  C    -144.397000    1.551120   14.427100
  C    -144.330000    3.025060   14.572500
  C    -145.486000    3.637110   14.267200
  H    -143.371000    3.602510   14.892200
  C    -143.092000    0.751188   14.698400
  H    -142.284000    1.047840   14.025500
  H    -143.186000   -0.312066   14.351300
  C    -142.542000    0.632607   16.123600
  H    -141.551000    0.157027   16.197100
  H    -142.420000    1.578760   16.542300
  C    -143.527000   -0.079742   17.063800
  H    -143.064000   -0.350603   17.985700
  H    -144.343000    0.528587   17.379300
  H    -143.942000   -1.022400   16.691000
  S    -146.635000    5.546310   15.919000
  C    -146.641000    7.189790   15.394300
  C    -146.280000    7.247510   14.052100
  C    -145.751000    6.034900   13.521900
  C    -145.867000    5.018730   14.446800
  H    -146.319000    8.163190   13.551000
  C    -145.303000    5.869780   11.991300
  H    -145.618000    4.857550   11.680500
  H    -144.322000    5.969060   11.869400
  C    -145.971000    6.881350   11.017300
  H    -145.631000    7.884400   11.299600
  H    -147.110000    6.899910   10.931500
  C    -145.458000    6.742110    9.591560
  H    -145.814000    5.821840    9.057750
  H    -144.396000    6.949520    9.553200
  H    -145.871000    7.545420    8.905660
  H    -145.668000    0.093059   13.557200
  H    -146.926000    8.019210   16.033300

 Total Charge           Charge          ....    0
 Multiplicity           Mult            ....    1
 Number of Electrons    NEL             ....  134
 Basis Dimension        Dim             ....  322

ORBITAL ENERGIES
----------------

  NO   OCC          E(Eh)            E(eV)
   0   2.0000     -88.966405     -2420.8990
   1   2.0000     -88.960310     -2420.7331
   2   2.0000     -10.324127      -280.9338
   3   2.0000     -10.322413      -280.8871
   4   2.0000     -10.317829      -280.7624
   5   2.0000     -10.314439      -280.6701
   6   2.0000     -10.307598      -280.4840
   7   2.0000     -10.307102      -280.4705
   8   2.0000     -10.300573      -280.2928
   9   2.0000     -10.295214      -280.1470
  10   2.0000     -10.294001      -280.1140
  11   2.0000     -10.293866      -280.1103
  12   2.0000     -10.289559      -279.9931
  13   2.0000     -10.283974      -279.8412
  14   2.0000     -10.282332      -279.7965
  15   2.0000     -10.265519      -279.3390
  16   2.0000      -8.081701      -219.9143
  17   2.0000      -8.075720      -219.7515
  18   2.0000      -6.040093      -164.3593
  19   2.0000      -6.036111      -164.2509
  20   2.0000      -6.034490      -164.2068
  21   2.0000      -6.032566      -164.1545
  22   2.0000      -6.029970      -164.0838
  23   2.0000      -6.026276      -163.9833
  24   2.0000      -1.011023       -27.5113
  25   2.0000      -0.987392       -26.8683
  26   2.0000      -0.906428       -24.6652
  27   2.0000      -0.905727       -24.6461
  28   2.0000      -0.873836       -23.7783
  29   2.0000      -0.849314       -23.1110
  30   2.0000      -0.837610       -22.7925
  31   2.0000      -0.815456       -22.1897
  32   2.0000      -0.783796       -21.3282
  33   2.0000      -0.775891       -21.1131
  34   2.0000      -0.705352       -19.1936
  35   2.0000      -0.695754       -18.9324
  36   2.0000      -0.695226       -18.9181
  37   2.0000      -0.656303       -17.8589
  38   2.0000      -0.639548       -17.4030
  39   2.0000      -0.615121       -16.7383
  40   2.0000      -0.600327       -16.3357
  41   2.0000      -0.575106       -15.6494
  42   2.0000      -0.568340       -15.4653
  43   2.0000      -0.548478       -14.9248
  44   2.0000      -0.538375       -14.6499
  45   2.0000      -0.522903       -14.2289
  46   2.0000      -0.517292       -14.0762
  47   2.0000      -0.510335       -13.8869
  48   2.0000      -0.506554       -13.7840
  49   2.0000      -0.497512       -13.5380
  50   2.0000      -0.485624       -13.2145
  51   2.0000      -0.476801       -12.9744
  52   2.0000      -0.470875       -12.8132
  53   2.0000      -0.463706       -12.6181
  54   2.0000      -0.456743       -12.4286
  55   2.0000      -0.450285       -12.2529
  56   2.0000      -0.440754       -11.9935
  57   2.0000      -0.433082       -11.7848
  58   2.0000      -0.431716       -11.7476
  59   2.0000      -0.421878       -11.4799
  60   2.0000      -0.415427       -11.3044
  61   2.0000      -0.412987       -11.2380
  62   2.0000      -0.410081       -11.1589
  63   2.0000      -0.337859        -9.1936
  64   2.0000      -0.331640        -9.0244
  65   2.0000      -0.322517        -8.7761
  66   2.0000      -0.315118        -8.5748
  67   0.0000       0.047607         1.2954
  68   0.0000       0.055559         1.5118
  69   0.0000       0.115635         3.1466
  70   0.0000       0.121309         3.3010
  71   0.0000       0.137421         3.7394

MULLIKEN ATOMIC CHARGES
-----------------------
   0 S :    0.096142
   1 C :   -0.095058
   2 C :   -0.108783
   3 C :    0.013555
   4 C :   -0.173248
   5 H :    0.053240
   6 C :    0.024262
   7 H :    0.033174
   8 H :    0.013276
   9 C :   -0.035955
  10 H :    0.033675
  11 H :    0.010411
  12 C :   -0.044959
  13 H :    0.014226
  14 H :    0.032961
  15 H :    0.018881
  16 S :    0.134228
  17 C :   -0.102792
  18 C :   -0.019414
  19 C :   -0.015258
  20 C :   -0.182743
  21 H :   -0.004420
  22 C :    0.170657
  23 H :    0.034196
  24 H :   -0.003638
  25 C :   -0.130731
  26 H :    0.028569
  27 H :    0.052060
  28 C :   -0.082158
  29 H :    0.045259
  30 H :    0.032266
  31 H :    0.032762
  32 H :    0.061473
  33 H :    0.063884
Sum of atomic charges:   -0.0000000

LOEWDIN ATOMIC CHARGES
----------------------
   0 S :    0.405973
   1 C :   -0.202860
   2 C :   -0.060604
   3 C :   -0.070615
   4 C :   -0.202691
   5 H :    0.049984
   6 C :   -0.041705
   7 H :    0.031238
   8 H :    0.028656
   9 C :   -0.037155
  10 H :    0.030201
  11 H :    0.014484
  12 C :   -0.064217
  13 H :    0.021214
  14 H :    0.024233
  15 H :    0.021704
  16 S :    0.428154
  17 C :   -0.190785
  18 C :   -0.068654
  19 C :   -0.045629
  20 C :   -0.214486
  21 H :    0.019149
  22 C :   -0.006202
  23 H :    0.034205
  24 H :    0.011597
  25 C :   -0.048612
  26 H :    0.021527
  27 H :    0.034157
  28 C :   -0.076636
  29 H :    0.029063
  30 H :    0.022024
  31 H :    0.032457
  32 H :    0.038672
  33 H :    0.032157

  Mayer bond orders larger than 0.100000
B(  0-S ,  1-C ) :   1.1187 B(  0-S ,  4-C ) :   1.1441 B(  1-C ,  2-C ) :   1.6602
B(  1-C , 32-H ) :   0.9596 B(  2-C ,  3-C ) :   1.1991 B(  2-C ,  6-C ) :   1.0145
B(  3-C ,  4-C ) :   1.6387 B(  3-C ,  5-H ) :   0.9796 B(  4-C , 20-C ) :   0.9988
B(  6-C ,  7-H ) :   0.9454 B(  6-C ,  8-H ) :   0.9460 B(  6-C ,  9-C ) :   1.0747
B(  9-C , 10-H ) :   0.9559 B(  9-C , 11-H ) :   0.9538 B(  9-C , 12-C ) :   1.0759
B( 12-C , 13-H ) :   0.9723 B( 12-C , 14-H ) :   0.9755 B( 12-C , 15-H ) :   0.9775
B( 16-S , 17-C ) :   1.1710 B( 16-S , 20-C ) :   1.1612 B( 17-C , 18-C ) :   1.5785
B( 17-C , 20-C ) :   0.1023 B( 17-C , 33-H ) :   0.9692 B( 18-C , 19-C ) :   1.2678
B( 18-C , 21-H ) :   0.9963 B( 19-C , 20-C ) :   1.6081 B( 19-C , 22-C ) :   1.0077
B( 22-C , 23-H ) :   0.9390 B( 22-C , 24-H ) :   0.9261 B( 22-C , 25-C ) :   1.0715
B( 25-C , 26-H ) :   0.9456 B( 25-C , 27-H ) :   0.9594 B( 25-C , 28-C ) :   1.0921
B( 28-C , 29-H ) :   0.9740 B( 28-C , 30-H ) :   0.9726 B( 28-C , 31-H ) :   0.9715

Dispersion correction           -0.013804122
FINAL SINGLE POINT ENERGY     -1339.861934687770

DIPOLE MOMENT
-------------
                                X             Y             Z
Electronic contribution:    -13.95168       3.85733       9.20385
Nuclear contribution   :     14.45852      -3.63978      -9.48958
                        -----------------------------------------
Total Dipole Moment    :      0.50684       0.21755      -0.28574
                        -----------------------------------------
Magnitude (a.u.)       :      0.62118
Magnitude (Debye)      :      1.57891

Rotational constants in cm-1:     0.020607     0.007546     0.006413
Rotational constants in MHz :   617.795102   226.221183   192.256965

                             ****ORCA TERMINATED NORMALLY****
TOTAL RUN TIME: 0 days 0 hours 0 minutes 20 seconds 900 msec
