                         Program Version 4.2.1 -  RELEASE  -
|  1> ! wB97X-D3 SP def2-SVP
|  2> %pal
|  3> nprocs 24
|  4> end
|  5>
|  6> * xyz 0 1
|  7> S 	 -53.9309 	 -48.3967 	 -80.8719
|  8> C 	 -54.1064 	 -46.6468 	 -80.6523
|  9> C 	 -54.8627 	 -46.1398 	 -81.6966
| 10> C 	 -55.2172 	 -47.0778 	 -82.7521
| 11> C 	 -54.6959 	 -48.3468 	 -82.4685
| 12> H 	 -55.9088 	 -46.9717 	 -83.5707
| 13> C 	 -55.5428 	 -44.8565 	 -81.7219
| 14> H 	 -56.2778 	 -44.8447 	 -82.5613
| 15> H 	 -54.6774 	 -44.2402 	 -82.1314
| 16> C 	 -56.3145 	 -44.3355 	 -80.4625
| 17> H 	 -55.6891 	 -44.0355 	 -79.6113
| 18> H 	 -56.7538 	 -43.3689 	 -80.7589
| 19> C 	 -57.4851 	 -45.2909 	 -79.9452
| 20> H 	 -58.0788 	 -44.8058 	 -79.1623
| 21> H 	 -58.0591 	 -45.7507 	 -80.6793
| 22> H 	 -57.0653 	 -46.1776 	 -79.5115
| 23> S 	 -56.5781 	 -50.1616 	 -83.3521
| 24> C 	 -56.0036 	 -51.6589 	 -84.1423
| 25> C 	 -54.6244 	 -51.7495 	 -84.1571
| 26> C 	 -54.0053 	 -50.5247 	 -83.6985
| 27> C 	 -54.8867 	 -49.5855 	 -83.2461
| 28> H 	 -54.1 	 -52.65 	 -84.5268
| 29> C 	 -52.4804 	 -50.3921 	 -83.6394
| 30> H 	 -52.1023 	 -51.4187 	 -84.0091
| 31> H 	 -52.3266 	 -50.3696 	 -82.5542
| 32> C 	 -51.6704 	 -49.2774 	 -84.3361
| 33> H 	 -50.7315 	 -49.2072 	 -83.7704
| 34> H 	 -52.0521 	 -48.3006 	 -84.1847
| 35> C 	 -51.4606 	 -49.6029 	 -85.8049
| 36> H 	 -51.4525 	 -50.723 	 -86.0018
| 37> H 	 -50.502 	 -49.1778 	 -86.0819
| 38> H 	 -52.2445 	 -49.1294 	 -86.363
| 39> H 	 -54.007 	 -46.0688 	 -79.7309
| 40> H 	 -56.6572 	 -52.3689 	 -84.6609
| 41> *
| 42>
| 43>                          ****END OF INPUT****

CARTESIAN COORDINATES (ANGSTROEM)
---------------------------------
  S    -53.930900  -48.396700  -80.871900
  C    -54.106400  -46.646800  -80.652300
  C    -54.862700  -46.139800  -81.696600
  C    -55.217200  -47.077800  -82.752100
  C    -54.695900  -48.346800  -82.468500
  H    -55.908800  -46.971700  -83.570700
  C    -55.542800  -44.856500  -81.721900
  H    -56.277800  -44.844700  -82.561300
  H    -54.677400  -44.240200  -82.131400
  C    -56.314500  -44.335500  -80.462500
  H    -55.689100  -44.035500  -79.611300
  H    -56.753800  -43.368900  -80.758900
  C    -57.485100  -45.290900  -79.945200
  H    -58.078800  -44.805800  -79.162300
  H    -58.059100  -45.750700  -80.679300
  H    -57.065300  -46.177600  -79.511500
  S    -56.578100  -50.161600  -83.352100
  C    -56.003600  -51.658900  -84.142300
  C    -54.624400  -51.749500  -84.157100
  C    -54.005300  -50.524700  -83.698500
  C    -54.886700  -49.585500  -83.246100
  H    -54.100000  -52.650000  -84.526800
  C    -52.480400  -50.392100  -83.639400
  H    -52.102300  -51.418700  -84.009100
  H    -52.326600  -50.369600  -82.554200
  C    -51.670400  -49.277400  -84.336100
  H    -50.731500  -49.207200  -83.770400
  H    -52.052100  -48.300600  -84.184700
  C    -51.460600  -49.602900  -85.804900
  H    -51.452500  -50.723000  -86.001800
  H    -50.502000  -49.177800  -86.081900
  H    -52.244500  -49.129400  -86.363000
  H    -54.007000  -46.068800  -79.730900
  H    -56.657200  -52.368900  -84.660900

 Total Charge           Charge          ....    0
 Multiplicity           Mult            ....    1
 Number of Electrons    NEL             ....  134
 Basis Dimension        Dim             ....  322

ORBITAL ENERGIES
----------------

  NO   OCC          E(Eh)            E(eV)
   0   2.0000     -88.967948     -2420.9409
   1   2.0000     -88.964753     -2420.8540
   2   2.0000     -10.334974      -281.2289
   3   2.0000     -10.324964      -280.9566
   4   2.0000     -10.322932      -280.9013
   5   2.0000     -10.314172      -280.6629
   6   2.0000     -10.304493      -280.3995
   7   2.0000     -10.300975      -280.3038
   8   2.0000     -10.299893      -280.2743
   9   2.0000     -10.299081      -280.2522
  10   2.0000     -10.298107      -280.2257
  11   2.0000     -10.296731      -280.1883
  12   2.0000     -10.295193      -280.1464
  13   2.0000     -10.279982      -279.7325
  14   2.0000     -10.275210      -279.6027
  15   2.0000     -10.274773      -279.5908
  16   2.0000      -8.081428      -219.9068
  17   2.0000      -8.078400      -219.8244
  18   2.0000      -6.040128      -164.3602
  19   2.0000      -6.037068      -164.2770
  20   2.0000      -6.036142      -164.2518
  21   2.0000      -6.033168      -164.1709
  22   2.0000      -6.032020      -164.1396
  23   2.0000      -6.028949      -164.0560
  24   2.0000      -0.999121       -27.1875
  25   2.0000      -0.977358       -26.5953
  26   2.0000      -0.907049       -24.6821
  27   2.0000      -0.902419       -24.5561
  28   2.0000      -0.862561       -23.4715
  29   2.0000      -0.849107       -23.1054
  30   2.0000      -0.844573       -22.9820
  31   2.0000      -0.812394       -22.1064
  32   2.0000      -0.779261       -21.2048
  33   2.0000      -0.768361       -20.9082
  34   2.0000      -0.715081       -19.4583
  35   2.0000      -0.707937       -19.2639
  36   2.0000      -0.686413       -18.6783
  37   2.0000      -0.661842       -18.0096
  38   2.0000      -0.637271       -17.3410
  39   2.0000      -0.597961       -16.2714
  40   2.0000      -0.583762       -15.8850
  41   2.0000      -0.570839       -15.5333
  42   2.0000      -0.554127       -15.0786
  43   2.0000      -0.551441       -15.0055
  44   2.0000      -0.542032       -14.7494
  45   2.0000      -0.531052       -14.4507
  46   2.0000      -0.514871       -14.0103
  47   2.0000      -0.512417       -13.9436
  48   2.0000      -0.495490       -13.4830
  49   2.0000      -0.490178       -13.3384
  50   2.0000      -0.488269       -13.2865
  51   2.0000      -0.477890       -13.0040
  52   2.0000      -0.471983       -12.8433
  53   2.0000      -0.467102       -12.7105
  54   2.0000      -0.458079       -12.4650
  55   2.0000      -0.443852       -12.0778
  56   2.0000      -0.440914       -11.9979
  57   2.0000      -0.436598       -11.8804
  58   2.0000      -0.430311       -11.7094
  59   2.0000      -0.426815       -11.6142
  60   2.0000      -0.418499       -11.3879
  61   2.0000      -0.414094       -11.2681
  62   2.0000      -0.405013       -11.0210
  63   2.0000      -0.336746        -9.1633
  64   2.0000      -0.330343        -8.9891
  65   2.0000      -0.321161        -8.7392
  66   2.0000      -0.299917        -8.1611
  67   0.0000       0.029689         0.8079
  68   0.0000       0.060426         1.6443
  69   0.0000       0.098665         2.6848
  70   0.0000       0.111267         3.0277
  71   0.0000       0.124778         3.3954

MULLIKEN ATOMIC CHARGES
-----------------------
   0 S :    0.106715
   1 C :   -0.114237
   2 C :   -0.099693
   3 C :    0.021128
   4 C :   -0.150075
   5 H :    0.021773
   6 C :    0.009765
   7 H :    0.030183
   8 H :    0.058068
   9 C :   -0.069662
  10 H :    0.030935
  11 H :    0.031915
  12 C :   -0.028443
  13 H :    0.043682
  14 H :    0.016771
  15 H :    0.023039
  16 S :    0.091391
  17 C :   -0.101156
  18 C :   -0.041882
  19 C :   -0.039662
  20 C :   -0.156900
  21 H :    0.036476
  22 C :    0.010281
  23 H :    0.022266
  24 H :    0.036765
  25 C :   -0.025574
  26 H :    0.024213
  27 H :    0.024923
  28 C :   -0.042710
  29 H :    0.033905
  30 H :    0.031065
  31 H :    0.041311
  32 H :    0.057070
  33 H :    0.066357
Sum of atomic charges:    0.0000000

LOEWDIN ATOMIC CHARGES
----------------------
   0 S :    0.394923
   1 C :   -0.210373
   2 C :   -0.065085
   3 C :   -0.063352
   4 C :   -0.182005
   5 H :    0.032850
   6 C :   -0.049614
   7 H :    0.033851
   8 H :    0.051595
   9 C :   -0.039051
  10 H :    0.022339
  11 H :    0.027236
  12 C :   -0.062308
  13 H :    0.031398
  14 H :    0.017690
  15 H :    0.025628
  16 S :    0.370167
  17 C :   -0.170776
  18 C :   -0.074257
  19 C :   -0.057531
  20 C :   -0.196803
  21 H :    0.038823
  22 C :   -0.037567
  23 H :    0.032820
  24 H :    0.030300
  25 C :   -0.040280
  26 H :    0.028871
  27 H :    0.023250
  28 C :   -0.062814
  29 H :    0.029845
  30 H :    0.025947
  31 H :    0.026327
  32 H :    0.035045
  33 H :    0.032912

  Mayer bond orders larger than 0.100000
B(  0-S ,  1-C ) :   1.1091 B(  0-S ,  4-C ) :   1.1573 B(  1-C ,  2-C ) :   1.6293
B(  1-C , 32-H ) :   0.9642 B(  2-C ,  3-C ) :   1.2123 B(  2-C ,  6-C ) :   1.0171
B(  3-C ,  4-C ) :   1.5784 B(  3-C ,  5-H ) :   0.9951 B(  4-C , 20-C ) :   1.0292
B(  6-C ,  7-H ) :   0.9517 B(  6-C ,  8-H ) :   0.9252 B(  6-C ,  9-C ) :   1.0628
B(  9-C , 10-H ) :   0.9580 B(  9-C , 11-H ) :   0.9574 B(  9-C , 12-C ) :   1.0600
B( 12-C , 13-H ) :   0.9778 B( 12-C , 14-H ) :   0.9772 B( 12-C , 15-H ) :   0.9722
B( 16-S , 17-C ) :   1.1432 B( 16-S , 20-C ) :   1.1100 B( 17-C , 18-C ) :   1.6354
B( 17-C , 33-H ) :   0.9622 B( 18-C , 19-C ) :   1.2211 B( 18-C , 21-H ) :   0.9814
B( 19-C , 20-C ) :   1.6367 B( 19-C , 22-C ) :   1.0164 B( 22-C , 23-H ) :   0.9434
B( 22-C , 24-H ) :   0.9271 B( 22-C , 25-C ) :   1.0746 B( 25-C , 26-H ) :   0.9534
B( 25-C , 27-H ) :   0.9540 B( 25-C , 28-C ) :   1.0614 B( 28-C , 29-H ) :   0.9792
B( 28-C , 30-H ) :   0.9750 B( 28-C , 31-H ) :   0.9790

Dispersion correction           -0.014991227
FINAL SINGLE POINT ENERGY     -1339.857937301308

DIPOLE MOMENT
-------------
                                X             Y             Z
Electronic contribution:     -5.59174     -12.00533       2.81913
Nuclear contribution   :      5.59667      12.22128      -2.92819
                        -----------------------------------------
Total Dipole Moment    :      0.00493       0.21595      -0.10906
                        -----------------------------------------
Magnitude (a.u.)       :      0.24198
Magnitude (Debye)      :      0.61505

Rotational constants in cm-1:     0.021731     0.008270     0.006909
Rotational constants in MHz :   651.488241   247.914785   207.123364

                             ****ORCA TERMINATED NORMALLY****
TOTAL RUN TIME: 0 days 0 hours 0 minutes 20 seconds 428 msec
