                         Program Version 4.2.1 -  RELEASE  -
|  1> ! wB97X-D3 SP def2-SVP
|  2> %pal
|  3> nprocs 24
|  4> end
|  5>
|  6> * xyz 0 1
|  7> S 	 -43.5509 	 -49.3566 	 -69.0603
|  8> C 	 -42.0534 	 -48.965 	 -68.3384
|  9> C 	 -41.1211 	 -49.9708 	 -68.4955
| 10> C 	 -41.6573 	 -50.996 	 -69.326
| 11> C 	 -42.8955 	 -50.8305 	 -69.7184
| 12> H 	 -41.1296 	 -51.9539 	 -69.4997
| 13> C 	 -39.7485 	 -50.0507 	 -67.9522
| 14> H 	 -39.4866 	 -49.3784 	 -67.1515
| 15> H 	 -39.0472 	 -49.853 	 -68.8037
| 16> C 	 -39.2942 	 -51.4097 	 -67.2893
| 17> H 	 -40.1554 	 -51.8083 	 -66.6463
| 18> H 	 -39.1091 	 -52.1598 	 -68.0478
| 19> C 	 -38.0826 	 -51.2725 	 -66.3624
| 20> H 	 -37.1662 	 -51.0965 	 -66.9393
| 21> H 	 -38.1166 	 -50.5758 	 -65.5675
| 22> H 	 -37.965 	 -52.1982 	 -65.761
| 23> S 	 -43.9543 	 -51.7045 	 -72.1527
| 24> C 	 -44.9586 	 -53.1399 	 -72.1595
| 25> C 	 -45.1787 	 -53.6988 	 -70.9466
| 26> C 	 -44.5474 	 -52.893 	 -69.9377
| 27> C 	 -43.7481 	 -51.8052 	 -70.3949
| 28> H 	 -45.8729 	 -54.5386 	 -70.7557
| 29> C 	 -44.7259 	 -53.2816 	 -68.4536
| 30> H 	 -45.812 	 -53.2109 	 -68.1785
| 31> H 	 -44.3019 	 -52.5092 	 -67.8179
| 32> C 	 -43.9633 	 -54.5867 	 -67.9427
| 33> H 	 -42.9063 	 -54.4529 	 -68.2023
| 34> H 	 -44.407 	 -55.4411 	 -68.472
| 35> C 	 -44.0596 	 -54.633 	 -66.4031
| 36> H 	 -45.1227 	 -54.4977 	 -66.1332
| 37> H 	 -43.4375 	 -53.7927 	 -65.952
| 38> H 	 -43.7676 	 -55.6988 	 -66.0954
| 39> H 	 -41.9093 	 -48.004 	 -67.9265
| 40> H 	 -45.3663 	 -53.6267 	 -73.039
| 41> *
| 42>
| 43>                          ****END OF INPUT****

CARTESIAN COORDINATES (ANGSTROEM)
---------------------------------
  S    -43.550900  -49.356600  -69.060300
  C    -42.053400  -48.965000  -68.338400
  C    -41.121100  -49.970800  -68.495500
  C    -41.657300  -50.996000  -69.326000
  C    -42.895500  -50.830500  -69.718400
  H    -41.129600  -51.953900  -69.499700
  C    -39.748500  -50.050700  -67.952200
  H    -39.486600  -49.378400  -67.151500
  H    -39.047200  -49.853000  -68.803700
  C    -39.294200  -51.409700  -67.289300
  H    -40.155400  -51.808300  -66.646300
  H    -39.109100  -52.159800  -68.047800
  C    -38.082600  -51.272500  -66.362400
  H    -37.166200  -51.096500  -66.939300
  H    -38.116600  -50.575800  -65.567500
  H    -37.965000  -52.198200  -65.761000
  S    -43.954300  -51.704500  -72.152700
  C    -44.958600  -53.139900  -72.159500
  C    -45.178700  -53.698800  -70.946600
  C    -44.547400  -52.893000  -69.937700
  C    -43.748100  -51.805200  -70.394900
  H    -45.872900  -54.538600  -70.755700
  C    -44.725900  -53.281600  -68.453600
  H    -45.812000  -53.210900  -68.178500
  H    -44.301900  -52.509200  -67.817900
  C    -43.963300  -54.586700  -67.942700
  H    -42.906300  -54.452900  -68.202300
  H    -44.407000  -55.441100  -68.472000
  C    -44.059600  -54.633000  -66.403100
  H    -45.122700  -54.497700  -66.133200
  H    -43.437500  -53.792700  -65.952000
  H    -43.767600  -55.698800  -66.095400
  H    -41.909300  -48.004000  -67.926500
  H    -45.366300  -53.626700  -73.039000

 Total Charge           Charge          ....    0
 Multiplicity           Mult            ....    1
 Number of Electrons    NEL             ....  134
 Basis Dimension        Dim             ....  322

ORBITAL ENERGIES
----------------

  NO   OCC          E(Eh)            E(eV)
   0   2.0000     -88.964407     -2420.8446
   1   2.0000     -88.960626     -2420.7417
   2   2.0000     -10.328530      -281.0536
   3   2.0000     -10.320237      -280.8279
   4   2.0000     -10.315334      -280.6945
   5   2.0000     -10.309533      -280.5367
   6   2.0000     -10.308035      -280.4959
   7   2.0000     -10.298779      -280.2440
   8   2.0000     -10.296542      -280.1832
   9   2.0000     -10.293946      -280.1125
  10   2.0000     -10.293259      -280.0938
  11   2.0000     -10.290873      -280.0289
  12   2.0000     -10.290848      -280.0282
  13   2.0000     -10.290758      -280.0258
  14   2.0000     -10.287720      -279.9431
  15   2.0000     -10.281019      -279.7608
  16   2.0000      -8.078754      -219.8341
  17   2.0000      -8.076777      -219.7803
  18   2.0000      -6.037287      -164.2829
  19   2.0000      -6.035131      -164.2243
  20   2.0000      -6.033280      -164.1739
  21   2.0000      -6.031106      -164.1147
  22   2.0000      -6.029550      -164.0724
  23   2.0000      -6.027580      -164.0188
  24   2.0000      -1.012698       -27.5569
  25   2.0000      -0.984565       -26.7914
  26   2.0000      -0.910120       -24.7656
  27   2.0000      -0.896323       -24.3902
  28   2.0000      -0.873697       -23.7745
  29   2.0000      -0.853082       -23.2135
  30   2.0000      -0.843245       -22.9459
  31   2.0000      -0.819678       -22.3046
  32   2.0000      -0.780066       -21.2267
  33   2.0000      -0.759517       -20.6675
  34   2.0000      -0.707013       -19.2388
  35   2.0000      -0.694844       -18.9077
  36   2.0000      -0.688280       -18.7290
  37   2.0000      -0.655535       -17.8380
  38   2.0000      -0.648281       -17.6406
  39   2.0000      -0.627241       -17.0681
  40   2.0000      -0.591932       -16.1073
  41   2.0000      -0.569955       -15.5093
  42   2.0000      -0.567378       -15.4392
  43   2.0000      -0.560394       -15.2491
  44   2.0000      -0.524714       -14.2782
  45   2.0000      -0.517710       -14.0876
  46   2.0000      -0.514302       -13.9949
  47   2.0000      -0.510313       -13.8863
  48   2.0000      -0.503793       -13.7089
  49   2.0000      -0.494919       -13.4674
  50   2.0000      -0.490618       -13.3504
  51   2.0000      -0.475895       -12.9498
  52   2.0000      -0.472792       -12.8653
  53   2.0000      -0.464132       -12.6297
  54   2.0000      -0.461835       -12.5672
  55   2.0000      -0.452169       -12.3041
  56   2.0000      -0.443288       -12.0625
  57   2.0000      -0.432625       -11.7723
  58   2.0000      -0.428602       -11.6628
  59   2.0000      -0.421803       -11.4778
  60   2.0000      -0.420485       -11.4420
  61   2.0000      -0.417501       -11.3608
  62   2.0000      -0.407835       -11.0978
  63   2.0000      -0.340079        -9.2540
  64   2.0000      -0.333878        -9.0853
  65   2.0000      -0.315606        -8.5881
  66   2.0000      -0.310849        -8.4586
  67   0.0000       0.050810         1.3826
  68   0.0000       0.057043         1.5522
  69   0.0000       0.114433         3.1139
  70   0.0000       0.121578         3.3083
  71   0.0000       0.129283         3.5180

MULLIKEN ATOMIC CHARGES
-----------------------
   0 S :    0.114955
   1 C :   -0.116695
   2 C :   -0.059031
   3 C :    0.026247
   4 C :   -0.145770
   5 H :    0.024265
   6 C :    0.066415
   7 H :    0.013499
   8 H :    0.047567
   9 C :   -0.125443
  10 H :    0.041167
  11 H :    0.037098
  12 C :   -0.047442
  13 H :    0.037469
  14 H :    0.023122
  15 H :    0.032946
  16 S :    0.107430
  17 C :   -0.076361
  18 C :   -0.034174
  19 C :   -0.026288
  20 C :   -0.181016
  21 H :    0.038044
  22 C :    0.006523
  23 H :    0.040199
  24 H :    0.008607
  25 C :   -0.071373
  26 H :    0.037046
  27 H :    0.035043
  28 C :   -0.082712
  29 H :    0.034372
  30 H :    0.057375
  31 H :    0.049859
  32 H :    0.034736
  33 H :    0.052322
Sum of atomic charges:    0.0000000

LOEWDIN ATOMIC CHARGES
----------------------
   0 S :    0.420669
   1 C :   -0.191844
   2 C :   -0.069750
   3 C :   -0.057515
   4 C :   -0.205972
   5 H :    0.039815
   6 C :   -0.038531
   7 H :    0.027257
   8 H :    0.040622
   9 C :   -0.043279
  10 H :    0.030738
  11 H :    0.019593
  12 C :   -0.070406
  13 H :    0.027362
  14 H :    0.018668
  15 H :    0.034440
  16 S :    0.397898
  17 C :   -0.177260
  18 C :   -0.080754
  19 C :   -0.047368
  20 C :   -0.204936
  21 H :    0.042157
  22 C :   -0.045357
  23 H :    0.033763
  24 H :    0.022836
  25 C :   -0.038591
  26 H :    0.026346
  27 H :    0.020393
  28 C :   -0.075485
  29 H :    0.024332
  30 H :    0.036120
  31 H :    0.035142
  32 H :    0.019167
  33 H :    0.029731

  Mayer bond orders larger than 0.100000
B(  0-S ,  1-C ) :   1.1573 B(  0-S ,  4-C ) :   1.1382 B(  1-C ,  2-C ) :   1.5988
B(  1-C , 32-H ) :   0.9775 B(  2-C ,  3-C ) :   1.2259 B(  2-C ,  6-C ) :   1.0416
B(  3-C ,  4-C ) :   1.6397 B(  3-C ,  5-H ) :   0.9895 B(  4-C , 20-C ) :   0.9972
B(  6-C ,  7-H ) :   0.9500 B(  6-C ,  8-H ) :   0.9282 B(  6-C ,  9-C ) :   1.0448
B(  9-C , 10-H ) :   0.9618 B(  9-C , 11-H ) :   0.9504 B(  9-C , 12-C ) :   1.0936
B( 12-C , 13-H ) :   0.9752 B( 12-C , 14-H ) :   0.9719 B( 12-C , 15-H ) :   0.9716
B( 16-S , 17-C ) :   1.1631 B( 16-S , 20-C ) :   1.1286 B( 17-C , 18-C ) :   1.6242
B( 17-C , 33-H ) :   0.9594 B( 18-C , 19-C ) :   1.2380 B( 18-C , 21-H ) :   0.9842
B( 19-C , 20-C ) :   1.6070 B( 19-C , 22-C ) :   1.0464 B( 22-C , 23-H ) :   0.9400
B( 22-C , 24-H ) :   0.9382 B( 22-C , 25-C ) :   1.0453 B( 25-C , 26-H ) :   0.9565
B( 25-C , 27-H ) :   0.9599 B( 25-C , 28-C ) :   1.0743 B( 28-C , 29-H ) :   0.9752
B( 28-C , 30-H ) :   0.9723 B( 28-C , 31-H ) :   0.9732

Dispersion correction           -0.014116224
FINAL SINGLE POINT ENERGY     -1339.876443899398

DIPOLE MOMENT
-------------
                                X             Y             Z
Electronic contribution:    -14.66256      14.06496     -22.99012
Nuclear contribution   :     14.94039     -14.45060      23.46396
                        -----------------------------------------
Total Dipole Moment    :      0.27783      -0.38564       0.47383
                        -----------------------------------------
Magnitude (a.u.)       :      0.67114
Magnitude (Debye)      :      1.70589

Rotational constants in cm-1:     0.016642     0.008865     0.006990
Rotational constants in MHz :   498.924294   265.760433   209.547217

                             ****ORCA TERMINATED NORMALLY****
TOTAL RUN TIME: 0 days 0 hours 0 minutes 21 seconds 621 msec
