                         Program Version 4.2.1 -  RELEASE  -
|  1> ! wB97X-D3 SP def2-SVP
|  2> %pal
|  3> nprocs 24
|  4> end
|  5>
|  6> * xyz 0 1
|  7> S 	 -50.1541 	 9.46148 	 -18.1924
|  8> C 	 -51.0279 	 9.1982 	 -16.6644
|  9> C 	 -50.6185 	 10.1617 	 -15.7309
| 10> C 	 -49.6594 	 11.0592 	 -16.2306
| 11> C 	 -49.4548 	 10.9478 	 -17.5664
| 12> H 	 -49.1966 	 11.8518 	 -15.55
| 13> C 	 -51.1379 	 10.3322 	 -14.3215
| 14> H 	 -52.2533 	 10.329 	 -14.3539
| 15> H 	 -50.9309 	 11.4057 	 -14.1233
| 16> C 	 -50.3944 	 9.48674 	 -13.2685
| 17> H 	 -50.5947 	 8.48102 	 -13.3763
| 18> H 	 -49.3768 	 9.65607 	 -13.4495
| 19> C 	 -50.708 	 9.79901 	 -11.8633
| 20> H 	 -51.6995 	 9.58757 	 -11.5744
| 21> H 	 -49.9515 	 9.3227 	 -11.2116
| 22> H 	 -50.5894 	 10.9365 	 -11.6602
| 23> S 	 -46.8956 	 11.1594 	 -18.5827
| 24> C 	 -46.2914 	 12.765 	 -19.082
| 25> C 	 -47.303 	 13.7016 	 -18.9862
| 26> C 	 -48.599 	 13.1525 	 -18.6762
| 27> C 	 -48.5143 	 11.823 	 -18.3033
| 28> H 	 -47.129 	 14.7356 	 -19.257
| 29> C 	 -49.8778 	 14.0022 	 -18.6586
| 30> H 	 -50.2156 	 14.1609 	 -17.6135
| 31> H 	 -50.6334 	 13.3952 	 -19.0968
| 32> C 	 -49.8666 	 15.4165 	 -19.4094
| 33> H 	 -49.7653 	 15.3261 	 -20.5069
| 34> H 	 -49.018 	 16.0434 	 -19.0823
| 35> C 	 -51.2379 	 16.1251 	 -19.2593
| 36> H 	 -52.0284 	 15.4981 	 -19.5555
| 37> H 	 -51.1669 	 16.9141 	 -19.9356
| 38> H 	 -51.3688 	 16.5404 	 -18.226
| 39> H 	 -51.7142 	 8.42655 	 -16.3024
| 40> H 	 -45.2209 	 12.8771 	 -19.3259
| 41> *
| 42>
| 43>                          ****END OF INPUT****

CARTESIAN COORDINATES (ANGSTROEM)
---------------------------------
  S    -50.154100    9.461480  -18.192400
  C    -51.027900    9.198200  -16.664400
  C    -50.618500   10.161700  -15.730900
  C    -49.659400   11.059200  -16.230600
  C    -49.454800   10.947800  -17.566400
  H    -49.196600   11.851800  -15.550000
  C    -51.137900   10.332200  -14.321500
  H    -52.253300   10.329000  -14.353900
  H    -50.930900   11.405700  -14.123300
  C    -50.394400    9.486740  -13.268500
  H    -50.594700    8.481020  -13.376300
  H    -49.376800    9.656070  -13.449500
  C    -50.708000    9.799010  -11.863300
  H    -51.699500    9.587570  -11.574400
  H    -49.951500    9.322700  -11.211600
  H    -50.589400   10.936500  -11.660200
  S    -46.895600   11.159400  -18.582700
  C    -46.291400   12.765000  -19.082000
  C    -47.303000   13.701600  -18.986200
  C    -48.599000   13.152500  -18.676200
  C    -48.514300   11.823000  -18.303300
  H    -47.129000   14.735600  -19.257000
  C    -49.877800   14.002200  -18.658600
  H    -50.215600   14.160900  -17.613500
  H    -50.633400   13.395200  -19.096800
  C    -49.866600   15.416500  -19.409400
  H    -49.765300   15.326100  -20.506900
  H    -49.018000   16.043400  -19.082300
  C    -51.237900   16.125100  -19.259300
  H    -52.028400   15.498100  -19.555500
  H    -51.166900   16.914100  -19.935600
  H    -51.368800   16.540400  -18.226000
  H    -51.714200    8.426550  -16.302400
  H    -45.220900   12.877100  -19.325900

 Total Charge           Charge          ....    0
 Multiplicity           Mult            ....    1
 Number of Electrons    NEL             ....  134
 Basis Dimension        Dim             ....  322

ORBITAL ENERGIES
----------------

  NO   OCC          E(Eh)            E(eV)
   0   2.0000     -88.970082     -2420.9990
   1   2.0000     -88.960458     -2420.7371
   2   2.0000     -10.328242      -281.0458
   3   2.0000     -10.326088      -280.9871
   4   2.0000     -10.322367      -280.8859
   5   2.0000     -10.316849      -280.7357
   6   2.0000     -10.306185      -280.4456
   7   2.0000     -10.296208      -280.1741
   8   2.0000     -10.295870      -280.1649
   9   2.0000     -10.295409      -280.1523
  10   2.0000     -10.295179      -280.1461
  11   2.0000     -10.294182      -280.1189
  12   2.0000     -10.293290      -280.0947
  13   2.0000     -10.278468      -279.6913
  14   2.0000     -10.274960      -279.5959
  15   2.0000     -10.274539      -279.5844
  16   2.0000      -8.083685      -219.9682
  17   2.0000      -8.074657      -219.7226
  18   2.0000      -6.042369      -164.4212
  19   2.0000      -6.038352      -164.3119
  20   2.0000      -6.034304      -164.2018
  21   2.0000      -6.033192      -164.1715
  22   2.0000      -6.029255      -164.0644
  23   2.0000      -6.025414      -163.9598
  24   2.0000      -1.002085       -27.2681
  25   2.0000      -0.978350       -26.6223
  26   2.0000      -0.916635       -24.9429
  27   2.0000      -0.898584       -24.4517
  28   2.0000      -0.867252       -23.5991
  29   2.0000      -0.852853       -23.2073
  30   2.0000      -0.847369       -23.0581
  31   2.0000      -0.812112       -22.0987
  32   2.0000      -0.778564       -21.1858
  33   2.0000      -0.768219       -20.9043
  34   2.0000      -0.704742       -19.1770
  35   2.0000      -0.703147       -19.1336
  36   2.0000      -0.696410       -18.9503
  37   2.0000      -0.652687       -17.7605
  38   2.0000      -0.630367       -17.1532
  39   2.0000      -0.617236       -16.7959
  40   2.0000      -0.596019       -16.2185
  41   2.0000      -0.571158       -15.5420
  42   2.0000      -0.563578       -15.3357
  43   2.0000      -0.560912       -15.2632
  44   2.0000      -0.534828       -14.5534
  45   2.0000      -0.529412       -14.4060
  46   2.0000      -0.516830       -14.0637
  47   2.0000      -0.506793       -13.7905
  48   2.0000      -0.502266       -13.6674
  49   2.0000      -0.495970       -13.4960
  50   2.0000      -0.491252       -13.3676
  51   2.0000      -0.477058       -12.9814
  52   2.0000      -0.466049       -12.6818
  53   2.0000      -0.462621       -12.5886
  54   2.0000      -0.454610       -12.3706
  55   2.0000      -0.449988       -12.2448
  56   2.0000      -0.446469       -12.1490
  57   2.0000      -0.436179       -11.8690
  58   2.0000      -0.429243       -11.6803
  59   2.0000      -0.426652       -11.6098
  60   2.0000      -0.421792       -11.4776
  61   2.0000      -0.417771       -11.3681
  62   2.0000      -0.414563       -11.2808
  63   2.0000      -0.338636        -9.2148
  64   2.0000      -0.327975        -8.9246
  65   2.0000      -0.320514        -8.7216
  66   2.0000      -0.303804        -8.2669
  67   0.0000       0.038573         1.0496
  68   0.0000       0.055120         1.4999
  69   0.0000       0.112048         3.0490
  70   0.0000       0.123800         3.3688
  71   0.0000       0.127137         3.4596

MULLIKEN ATOMIC CHARGES
-----------------------
   0 S :    0.118117
   1 C :   -0.104767
   2 C :   -0.125378
   3 C :    0.026822
   4 C :   -0.165186
   5 H :    0.044930
   6 C :    0.023225
   7 H :    0.036474
   8 H :    0.011921
   9 C :    0.011747
  10 H :    0.011178
  11 H :    0.012835
  12 C :   -0.048084
  13 H :    0.024870
  14 H :    0.040607
  15 H :    0.022394
  16 S :    0.089850
  17 C :   -0.110119
  18 C :   -0.030116
  19 C :   -0.028664
  20 C :   -0.168078
  21 H :    0.021365
  22 C :    0.081147
  23 H :    0.038294
  24 H :    0.026244
  25 C :   -0.141932
  26 H :    0.037368
  27 H :    0.041295
  28 C :   -0.005956
  29 H :    0.028710
  30 H :    0.017589
  31 H :    0.040472
  32 H :    0.046411
  33 H :    0.074415
Sum of atomic charges:   -0.0000000

LOEWDIN ATOMIC CHARGES
----------------------
   0 S :    0.397499
   1 C :   -0.199948
   2 C :   -0.068992
   3 C :   -0.065999
   4 C :   -0.200404
   5 H :    0.046699
   6 C :   -0.035934
   7 H :    0.033596
   8 H :    0.029777
   9 C :   -0.033462
  10 H :    0.016885
  11 H :    0.023464
  12 C :   -0.062605
  13 H :    0.016488
  14 H :    0.032032
  15 H :    0.028579
  16 S :    0.377373
  17 C :   -0.174413
  18 C :   -0.073602
  19 C :   -0.053982
  20 C :   -0.193272
  21 H :    0.030191
  22 C :   -0.031522
  23 H :    0.036638
  24 H :    0.029942
  25 C :   -0.041032
  26 H :    0.026680
  27 H :    0.022339
  28 C :   -0.053936
  29 H :    0.020797
  30 H :    0.019146
  31 H :    0.030279
  32 H :    0.035990
  33 H :    0.034711

  Mayer bond orders larger than 0.100000
B(  0-S ,  1-C ) :   1.1244 B(  0-S ,  4-C ) :   1.1441 B(  1-C ,  2-C ) :   1.6156
B(  1-C ,  4-C ) :   0.1002 B(  1-C , 32-H ) :   0.9647 B(  2-C ,  3-C ) :   1.2679
B(  2-C ,  6-C ) :   1.0171 B(  3-C ,  4-C ) :   1.5855 B(  3-C ,  5-H ) :   0.9742
B(  4-C , 20-C ) :   1.0051 B(  6-C ,  7-H ) :   0.9428 B(  6-C ,  8-H ) :   0.9408
B(  6-C ,  9-C ) :   1.0562 B(  9-C , 10-H ) :   0.9509 B(  9-C , 11-H ) :   0.9476
B(  9-C , 12-C ) :   1.1003 B( 12-C , 13-H ) :   0.9739 B( 12-C , 14-H ) :   0.9710
B( 12-C , 15-H ) :   0.9712 B( 16-S , 17-C ) :   1.1472 B( 16-S , 20-C ) :   1.1433
B( 17-C , 18-C ) :   1.6099 B( 17-C , 33-H ) :   0.9663 B( 18-C , 19-C ) :   1.2359
B( 18-C , 21-H ) :   0.9845 B( 19-C , 20-C ) :   1.6294 B( 19-C , 22-C ) :   1.0262
B( 22-C , 23-H ) :   0.9352 B( 22-C , 24-H ) :   0.9338 B( 22-C , 25-C ) :   1.0608
B( 25-C , 26-H ) :   0.9616 B( 25-C , 27-H ) :   0.9526 B( 25-C , 28-C ) :   1.0838
B( 28-C , 29-H ) :   0.9747 B( 28-C , 30-H ) :   0.9736 B( 28-C , 31-H ) :   0.9754

Dispersion correction           -0.013365915
FINAL SINGLE POINT ENERGY     -1339.864554307345

DIPOLE MOMENT
-------------
                                X             Y             Z
Electronic contribution:     13.00247     -15.15331     -15.92982
Nuclear contribution   :    -13.21109      15.66054      16.34632
                        -----------------------------------------
Total Dipole Moment    :     -0.20862       0.50724       0.41650
                        -----------------------------------------
Magnitude (a.u.)       :      0.68868
Magnitude (Debye)      :      1.75049

Rotational constants in cm-1:     0.017292     0.007358     0.006368
Rotational constants in MHz :   518.415184   220.597801   190.912989

                             ****ORCA TERMINATED NORMALLY****
TOTAL RUN TIME: 0 days 0 hours 0 minutes 19 seconds 552 msec
