                         Program Version 4.2.1 -  RELEASE  -
|  1> ! wB97X-D3 SP def2-SVP
|  2> %pal
|  3> nprocs 24
|  4> end
|  5>
|  6> * xyz 0 1
|  7> S 	 -73.2628 	 -2.29223 	 -67.1311
|  8> C 	 -73.931 	 -1.47667 	 -65.6968
|  9> C 	 -74.9788 	 -0.572672 	 -66.0203
| 10> C 	 -75.3446 	 -0.645089 	 -67.3694
| 11> C 	 -74.5732 	 -1.53724 	 -68.0762
| 12> H 	 -76.0088 	 -0.0422927 	 -67.8844
| 13> C 	 -75.6291 	 0.425954 	 -65.0056
| 14> H 	 -75.7283 	 1.39927 	 -65.4644
| 15> H 	 -74.8822 	 0.565546 	 -64.185
| 16> C 	 -77.0915 	 0.0930505 	 -64.6051
| 17> H 	 -77.7619 	 -0.162994 	 -65.4601
| 18> H 	 -76.9887 	 -0.760516 	 -63.8991
| 19> C 	 -77.8082 	 1.18849 	 -63.9061
| 20> H 	 -77.2972 	 1.45852 	 -63.0384
| 21> H 	 -77.7871 	 2.05341 	 -64.5387
| 22> H 	 -78.7301 	 0.943308 	 -63.4871
| 23> S 	 -73.2042 	 -1.60282 	 -70.4936
| 24> C 	 -74.044 	 -2.00434 	 -71.9355
| 25> C 	 -75.3678 	 -1.76005 	 -71.7553
| 26> C 	 -75.7747 	 -1.69957 	 -70.3598
| 27> C 	 -74.6753 	 -1.67782 	 -69.5346
| 28> H 	 -76.1003 	 -1.79708 	 -72.5571
| 29> C 	 -77.1833 	 -1.91749 	 -69.8729
| 30> H 	 -77.2361 	 -1.95012 	 -68.7261
| 31> H 	 -77.3137 	 -2.98794 	 -70.1623
| 32> C 	 -78.2181 	 -0.896972 	 -70.3368
| 33> H 	 -78.1367 	 -0.621204 	 -71.3384
| 34> H 	 -77.9893 	 0.0777662 	 -69.8272
| 35> C 	 -79.6606 	 -1.30419 	 -70.1565
| 36> H 	 -79.8451 	 -1.68002 	 -69.1659
| 37> H 	 -80.0256 	 -2.05791 	 -70.8543
| 38> H 	 -80.2696 	 -0.390175 	 -70.2887
| 39> H 	 -73.5682 	 -1.56806 	 -64.6708
| 40> H 	 -73.6469 	 -2.09494 	 -72.9237
| 41> *
| 42>
| 43>                          ****END OF INPUT****

CARTESIAN COORDINATES (ANGSTROEM)
---------------------------------
  S    -73.262800   -2.292230  -67.131100
  C    -73.931000   -1.476670  -65.696800
  C    -74.978800   -0.572672  -66.020300
  C    -75.344600   -0.645089  -67.369400
  C    -74.573200   -1.537240  -68.076200
  H    -76.008800   -0.042293  -67.884400
  C    -75.629100    0.425954  -65.005600
  H    -75.728300    1.399270  -65.464400
  H    -74.882200    0.565546  -64.185000
  C    -77.091500    0.093050  -64.605100
  H    -77.761900   -0.162994  -65.460100
  H    -76.988700   -0.760516  -63.899100
  C    -77.808200    1.188490  -63.906100
  H    -77.297200    1.458520  -63.038400
  H    -77.787100    2.053410  -64.538700
  H    -78.730100    0.943308  -63.487100
  S    -73.204200   -1.602820  -70.493600
  C    -74.044000   -2.004340  -71.935500
  C    -75.367800   -1.760050  -71.755300
  C    -75.774700   -1.699570  -70.359800
  C    -74.675300   -1.677820  -69.534600
  H    -76.100300   -1.797080  -72.557100
  C    -77.183300   -1.917490  -69.872900
  H    -77.236100   -1.950120  -68.726100
  H    -77.313700   -2.987940  -70.162300
  C    -78.218100   -0.896972  -70.336800
  H    -78.136700   -0.621204  -71.338400
  H    -77.989300    0.077766  -69.827200
  C    -79.660600   -1.304190  -70.156500
  H    -79.845100   -1.680020  -69.165900
  H    -80.025600   -2.057910  -70.854300
  H    -80.269600   -0.390175  -70.288700
  H    -73.568200   -1.568060  -64.670800
  H    -73.646900   -2.094940  -72.923700

 Total Charge           Charge          ....    0
 Multiplicity           Mult            ....    1
 Number of Electrons    NEL             ....  134
 Basis Dimension        Dim             ....  322

ORBITAL ENERGIES
----------------

  NO   OCC          E(Eh)            E(eV)
   0   2.0000     -88.974059     -2421.1072
   1   2.0000     -88.959213     -2420.7032
   2   2.0000     -10.330661      -281.1116
   3   2.0000     -10.321803      -280.8705
   4   2.0000     -10.320550      -280.8364
   5   2.0000     -10.310216      -280.5552
   6   2.0000     -10.306637      -280.4578
   7   2.0000     -10.300710      -280.2966
   8   2.0000     -10.299520      -280.2642
   9   2.0000     -10.297315      -280.2042
  10   2.0000     -10.291870      -280.0560
  11   2.0000     -10.289872      -280.0017
  12   2.0000     -10.288094      -279.9533
  13   2.0000     -10.285429      -279.8808
  14   2.0000     -10.277428      -279.6630
  15   2.0000     -10.264218      -279.3036
  16   2.0000      -8.087217      -220.0644
  17   2.0000      -8.074796      -219.7264
  18   2.0000      -6.045738      -164.5129
  19   2.0000      -6.042098      -164.4138
  20   2.0000      -6.037902      -164.2997
  21   2.0000      -6.033386      -164.1768
  22   2.0000      -6.029363      -164.0673
  23   2.0000      -6.025229      -163.9548
  24   2.0000      -1.006652       -27.3924
  25   2.0000      -0.982069       -26.7234
  26   2.0000      -0.912355       -24.8264
  27   2.0000      -0.911609       -24.8061
  28   2.0000      -0.870277       -23.6814
  29   2.0000      -0.858853       -23.3706
  30   2.0000      -0.848064       -23.0770
  31   2.0000      -0.816009       -22.2047
  32   2.0000      -0.782419       -21.2907
  33   2.0000      -0.770607       -20.9693
  34   2.0000      -0.705791       -19.2056
  35   2.0000      -0.699234       -19.0271
  36   2.0000      -0.695464       -18.9245
  37   2.0000      -0.658611       -17.9217
  38   2.0000      -0.641231       -17.4488
  39   2.0000      -0.621234       -16.9046
  40   2.0000      -0.597570       -16.2607
  41   2.0000      -0.579009       -15.7556
  42   2.0000      -0.561443       -15.2776
  43   2.0000      -0.556951       -15.1554
  44   2.0000      -0.533978       -14.5303
  45   2.0000      -0.527981       -14.3671
  46   2.0000      -0.515390       -14.0245
  47   2.0000      -0.514473       -13.9995
  48   2.0000      -0.509462       -13.8632
  49   2.0000      -0.495375       -13.4798
  50   2.0000      -0.491538       -13.3754
  51   2.0000      -0.483530       -13.1575
  52   2.0000      -0.475010       -12.9257
  53   2.0000      -0.463288       -12.6067
  54   2.0000      -0.458944       -12.4885
  55   2.0000      -0.450872       -12.2689
  56   2.0000      -0.448629       -12.2078
  57   2.0000      -0.439622       -11.9627
  58   2.0000      -0.433606       -11.7990
  59   2.0000      -0.425249       -11.5716
  60   2.0000      -0.418316       -11.3829
  61   2.0000      -0.414884       -11.2896
  62   2.0000      -0.411152       -11.1880
  63   2.0000      -0.350866        -9.5476
  64   2.0000      -0.335355        -9.1255
  65   2.0000      -0.322880        -8.7860
  66   2.0000      -0.286423        -7.7940
  67   0.0000       0.024369         0.6631
  68   0.0000       0.074622         2.0306
  69   0.0000       0.100602         2.7375
  70   0.0000       0.123850         3.3701
  71   0.0000       0.127043         3.4570

MULLIKEN ATOMIC CHARGES
-----------------------
   0 S :    0.122794
   1 C :   -0.125777
   2 C :   -0.069022
   3 C :    0.049475
   4 C :   -0.148806
   5 H :   -0.015248
   6 C :    0.056245
   7 H :    0.015863
   8 H :    0.032065
   9 C :   -0.103548
  10 H :    0.041894
  11 H :    0.030929
  12 C :    0.028427
  13 H :   -0.002809
  14 H :    0.019055
  15 H :    0.019966
  16 S :    0.094350
  17 C :   -0.068400
  18 C :   -0.031531
  19 C :   -0.053014
  20 C :   -0.141120
  21 H :    0.016107
  22 C :    0.001675
  23 H :    0.044454
  24 H :    0.049109
  25 C :   -0.059177
  26 H :    0.010812
  27 H :    0.027238
  28 C :   -0.034024
  29 H :    0.020608
  30 H :    0.037222
  31 H :    0.033728
  32 H :    0.048441
  33 H :    0.052019
Sum of atomic charges:   -0.0000000

LOEWDIN ATOMIC CHARGES
----------------------
   0 S :    0.391045
   1 C :   -0.195982
   2 C :   -0.054352
   3 C :   -0.049797
   4 C :   -0.176619
   5 H :    0.021834
   6 C :   -0.030114
   7 H :    0.025673
   8 H :    0.034638
   9 C :   -0.044517
  10 H :    0.029888
  11 H :    0.026328
  12 C :   -0.059104
  13 H :    0.017826
  14 H :    0.022322
  15 H :    0.022708
  16 S :    0.398077
  17 C :   -0.190432
  18 C :   -0.068172
  19 C :   -0.066272
  20 C :   -0.192546
  21 H :    0.026641
  22 C :   -0.041936
  23 H :    0.038944
  24 H :    0.040341
  25 C :   -0.044298
  26 H :    0.014178
  27 H :    0.029946
  28 C :   -0.062096
  29 H :    0.019687
  30 H :    0.026571
  31 H :    0.031710
  32 H :    0.028523
  33 H :    0.029357

  Mayer bond orders larger than 0.100000
B(  0-S ,  1-C ) :   1.1306 B(  0-S ,  4-C ) :   1.1444 B(  1-C ,  2-C ) :   1.6040
B(  1-C ,  4-C ) :   0.1024 B(  1-C , 32-H ) :   0.9651 B(  2-C ,  3-C ) :   1.2487
B(  2-C ,  6-C ) :   1.0198 B(  3-C ,  4-C ) :   1.5596 B(  3-C ,  5-H ) :   1.0027
B(  4-C , 20-C ) :   1.0505 B(  6-C ,  7-H ) :   0.9440 B(  6-C ,  8-H ) :   0.9432
B(  6-C ,  9-C ) :   1.0480 B(  9-C , 10-H ) :   0.9598 B(  9-C , 11-H ) :   0.9539
B(  9-C , 12-C ) :   1.0959 B( 12-C , 13-H ) :   0.9635 B( 12-C , 14-H ) :   0.9699
B( 12-C , 15-H ) :   0.9673 B( 16-S , 17-C ) :   1.1389 B( 16-S , 20-C ) :   1.1304
B( 17-C , 18-C ) :   1.6369 B( 17-C , 33-H ) :   0.9692 B( 18-C , 19-C ) :   1.2199
B( 18-C , 21-H ) :   0.9835 B( 19-C , 20-C ) :   1.6179 B( 19-C , 22-C ) :   1.0326
B( 22-C , 23-H ) :   0.9370 B( 22-C , 24-H ) :   0.9428 B( 22-C , 25-C ) :   1.0462
B( 25-C , 26-H ) :   0.9582 B( 25-C , 27-H ) :   0.9481 B( 25-C , 28-C ) :   1.0892
B( 28-C , 29-H ) :   0.9734 B( 28-C , 30-H ) :   0.9756 B( 28-C , 31-H ) :   0.9720

Dispersion correction           -0.013743467
FINAL SINGLE POINT ENERGY     -1339.862477724315

DIPOLE MOMENT
-------------
                                X             Y             Z
Electronic contribution:     29.73877     -10.91607     -10.36876
Nuclear contribution   :    -30.40931      11.26226      10.48326
                        -----------------------------------------
Total Dipole Moment    :     -0.67054       0.34619       0.11450
                        -----------------------------------------
Magnitude (a.u.)       :      0.76327
Magnitude (Debye)      :      1.94009

Rotational constants in cm-1:     0.016095     0.009385     0.006301
Rotational constants in MHz :   482.526418   281.362600   188.893151

                             ****ORCA TERMINATED NORMALLY****
TOTAL RUN TIME: 0 days 0 hours 0 minutes 20 seconds 254 msec
