                         Program Version 4.2.1 -  RELEASE  -
|  1> ! wB97X-D3 SP def2-SVP
|  2> %pal
|  3> nprocs 24
|  4> end
|  5>
|  6> * xyz 0 1
|  7> S 	 -117.191 	 19.7539 	 -111.122
|  8> C 	 -117.733 	 21.0748 	 -112.119
|  9> C 	 -119.091 	 21.1855 	 -112.102
| 10> C 	 -119.674 	 20.0511 	 -111.418
| 11> C 	 -118.793 	 19.1309 	 -110.905
| 12> H 	 -120.732 	 19.8054 	 -111.257
| 13> C 	 -119.873 	 22.3682 	 -112.526
| 14> H 	 -119.118 	 23.0565 	 -112.913
| 15> H 	 -120.317 	 22.7983 	 -111.689
| 16> C 	 -120.858 	 22.084 	 -113.634
| 17> H 	 -121.073 	 22.9659 	 -114.151
| 18> H 	 -120.595 	 21.2538 	 -114.337
| 19> C 	 -122.158 	 21.7462 	 -112.983
| 20> H 	 -122.83 	 21.2111 	 -113.602
| 21> H 	 -122.187 	 21.158 	 -112.028
| 22> H 	 -122.72 	 22.6762 	 -112.793
| 23> S 	 -118.331 	 16.4879 	 -111.039
| 24> C 	 -119.021 	 15.3554 	 -109.913
| 25> C 	 -119.679 	 15.9956 	 -108.925
| 26> C 	 -119.846 	 17.4035 	 -109.197
| 27> C 	 -119.098 	 17.8059 	 -110.289
| 28> H 	 -120.04 	 15.3834 	 -108.069
| 29> C 	 -120.678 	 18.3905 	 -108.381
| 30> H 	 -121.62 	 18.3601 	 -108.906
| 31> H 	 -120.181 	 19.3241 	 -108.534
| 32> C 	 -120.801 	 18.1055 	 -106.879
| 33> H 	 -119.959 	 17.5049 	 -106.515
| 34> H 	 -121.618 	 17.3833 	 -106.699
| 35> C 	 -121.078 	 19.3722 	 -106.002
| 36> H 	 -122.124 	 19.7593 	 -106.043
| 37> H 	 -120.479 	 20.255 	 -106.268
| 38> H 	 -120.827 	 19.1277 	 -104.962
| 39> H 	 -117.041 	 21.8363 	 -112.453
| 40> H 	 -118.855 	 14.291 	 -109.914
| 41> *
| 42>
| 43>                          ****END OF INPUT****

CARTESIAN COORDINATES (ANGSTROEM)
---------------------------------
  S    -117.191000   19.753900  -111.122000
  C    -117.733000   21.074800  -112.119000
  C    -119.091000   21.185500  -112.102000
  C    -119.674000   20.051100  -111.418000
  C    -118.793000   19.130900  -110.905000
  H    -120.732000   19.805400  -111.257000
  C    -119.873000   22.368200  -112.526000
  H    -119.118000   23.056500  -112.913000
  H    -120.317000   22.798300  -111.689000
  C    -120.858000   22.084000  -113.634000
  H    -121.073000   22.965900  -114.151000
  H    -120.595000   21.253800  -114.337000
  C    -122.158000   21.746200  -112.983000
  H    -122.830000   21.211100  -113.602000
  H    -122.187000   21.158000  -112.028000
  H    -122.720000   22.676200  -112.793000
  S    -118.331000   16.487900  -111.039000
  C    -119.021000   15.355400  -109.913000
  C    -119.679000   15.995600  -108.925000
  C    -119.846000   17.403500  -109.197000
  C    -119.098000   17.805900  -110.289000
  H    -120.040000   15.383400  -108.069000
  C    -120.678000   18.390500  -108.381000
  H    -121.620000   18.360100  -108.906000
  H    -120.181000   19.324100  -108.534000
  C    -120.801000   18.105500  -106.879000
  H    -119.959000   17.504900  -106.515000
  H    -121.618000   17.383300  -106.699000
  C    -121.078000   19.372200  -106.002000
  H    -122.124000   19.759300  -106.043000
  H    -120.479000   20.255000  -106.268000
  H    -120.827000   19.127700  -104.962000
  H    -117.041000   21.836300  -112.453000
  H    -118.855000   14.291000  -109.914000

 Total Charge           Charge          ....    0
 Multiplicity           Mult            ....    1
 Number of Electrons    NEL             ....  134
 Basis Dimension        Dim             ....  322

ORBITAL ENERGIES
----------------

  NO   OCC          E(Eh)            E(eV)
   0   2.0000     -88.961370     -2420.7619
   1   2.0000     -88.960363     -2420.7345
   2   2.0000     -10.327995      -281.0390
   3   2.0000     -10.322433      -280.8877
   4   2.0000     -10.310600      -280.5657
   5   2.0000     -10.310505      -280.5631
   6   2.0000     -10.304090      -280.3885
   7   2.0000     -10.298465      -280.2355
   8   2.0000     -10.294311      -280.1224
   9   2.0000     -10.291617      -280.0491
  10   2.0000     -10.291326      -280.0412
  11   2.0000     -10.287280      -279.9311
  12   2.0000     -10.284954      -279.8678
  13   2.0000     -10.283463      -279.8273
  14   2.0000     -10.280390      -279.7436
  15   2.0000     -10.272461      -279.5279
  16   2.0000      -8.076743      -219.7794
  17   2.0000      -8.076474      -219.7720
  18   2.0000      -6.035220      -164.2267
  19   2.0000      -6.034944      -164.2192
  20   2.0000      -6.031198      -164.1172
  21   2.0000      -6.030728      -164.1045
  22   2.0000      -6.027447      -164.0152
  23   2.0000      -6.027237      -164.0095
  24   2.0000      -1.011886       -27.5348
  25   2.0000      -0.990967       -26.9656
  26   2.0000      -0.925312       -25.1790
  27   2.0000      -0.905325       -24.6352
  28   2.0000      -0.874045       -23.7840
  29   2.0000      -0.847101       -23.0508
  30   2.0000      -0.843875       -22.9630
  31   2.0000      -0.821367       -22.3505
  32   2.0000      -0.782714       -21.2987
  33   2.0000      -0.771612       -20.9966
  34   2.0000      -0.708317       -19.2743
  35   2.0000      -0.703423       -19.1411
  36   2.0000      -0.696333       -18.9482
  37   2.0000      -0.652764       -17.7626
  38   2.0000      -0.643354       -17.5065
  39   2.0000      -0.619315       -16.8524
  40   2.0000      -0.594204       -16.1691
  41   2.0000      -0.581746       -15.8301
  42   2.0000      -0.565275       -15.3819
  43   2.0000      -0.550655       -14.9841
  44   2.0000      -0.541709       -14.7407
  45   2.0000      -0.526393       -14.3239
  46   2.0000      -0.523577       -14.2473
  47   2.0000      -0.515116       -14.0170
  48   2.0000      -0.501917       -13.6579
  49   2.0000      -0.495271       -13.4770
  50   2.0000      -0.489952       -13.3323
  51   2.0000      -0.481719       -13.1082
  52   2.0000      -0.476499       -12.9662
  53   2.0000      -0.467307       -12.7161
  54   2.0000      -0.463991       -12.6258
  55   2.0000      -0.446347       -12.1457
  56   2.0000      -0.440772       -11.9940
  57   2.0000      -0.436842       -11.8871
  58   2.0000      -0.425931       -11.5902
  59   2.0000      -0.424239       -11.5441
  60   2.0000      -0.419480       -11.4146
  61   2.0000      -0.417921       -11.3722
  62   2.0000      -0.411034       -11.1848
  63   2.0000      -0.347831        -9.4650
  64   2.0000      -0.327353        -8.9077
  65   2.0000      -0.323646        -8.8069
  66   2.0000      -0.300206        -8.1690
  67   0.0000       0.041593         1.1318
  68   0.0000       0.073808         2.0084
  69   0.0000       0.114867         3.1257
  70   0.0000       0.129615         3.5270
  71   0.0000       0.136985         3.7276

MULLIKEN ATOMIC CHARGES
-----------------------
   0 S :    0.107708
   1 C :   -0.132007
   2 C :   -0.081425
   3 C :    0.018960
   4 C :   -0.162767
   5 H :    0.013655
   6 C :    0.103561
   7 H :    0.005234
   8 H :    0.027912
   9 C :   -0.015609
  10 H :    0.017489
  11 H :    0.050043
  12 C :   -0.089804
  13 H :    0.014924
  14 H :    0.033632
  15 H :    0.024987
  16 S :    0.113167
  17 C :   -0.084630
  18 C :   -0.058735
  19 C :   -0.072173
  20 C :   -0.172585
  21 H :    0.034817
  22 C :    0.113956
  23 H :    0.044632
  24 H :    0.027021
  25 C :   -0.094014
  26 H :    0.034620
  27 H :    0.028039
  28 C :   -0.065483
  29 H :    0.040939
  30 H :    0.035442
  31 H :    0.037127
  32 H :    0.050838
  33 H :    0.050529
Sum of atomic charges:    0.0000000

LOEWDIN ATOMIC CHARGES
----------------------
   0 S :    0.408126
   1 C :   -0.196140
   2 C :   -0.060087
   3 C :   -0.072088
   4 C :   -0.202892
   5 H :    0.030152
   6 C :   -0.020620
   7 H :    0.029640
   8 H :    0.028010
   9 C :   -0.036194
  10 H :    0.021074
  11 H :    0.035543
  12 C :   -0.072481
  13 H :    0.016957
  14 H :    0.024774
  15 H :    0.026534
  16 S :    0.431243
  17 C :   -0.187241
  18 C :   -0.082712
  19 C :   -0.053941
  20 C :   -0.219226
  21 H :    0.040363
  22 C :   -0.029391
  23 H :    0.035565
  24 H :    0.028777
  25 C :   -0.047514
  26 H :    0.025972
  27 H :    0.027312
  28 C :   -0.070182
  29 H :    0.029819
  30 H :    0.025228
  31 H :    0.028966
  32 H :    0.027789
  33 H :    0.028863

  Mayer bond orders larger than 0.100000
B(  0-S ,  1-C ) :   1.1383 B(  0-S ,  4-C ) :   1.1582 B(  1-C ,  2-C ) :   1.6228
B(  1-C , 32-H ) :   0.9654 B(  2-C ,  3-C ) :   1.2101 B(  2-C ,  6-C ) :   1.0404
B(  3-C ,  4-C ) :   1.6058 B(  3-C ,  5-H ) :   0.9887 B(  4-C , 20-C ) :   0.9965
B(  6-C ,  7-H ) :   0.9290 B(  6-C ,  8-H ) :   0.9363 B(  6-C ,  9-C ) :   1.0593
B(  9-C , 10-H ) :   0.9530 B(  9-C , 11-H ) :   0.9608 B(  9-C , 12-C ) :   1.0705
B( 12-C , 13-H ) :   0.9710 B( 12-C , 14-H ) :   0.9728 B( 12-C , 15-H ) :   0.9750
B( 16-S , 17-C ) :   1.1569 B( 16-S , 20-C ) :   1.1601 B( 17-C , 18-C ) :   1.6294
B( 17-C , 33-H ) :   0.9655 B( 18-C , 19-C ) :   1.2229 B( 18-C , 21-H ) :   0.9855
B( 19-C , 20-C ) :   1.6133 B( 19-C , 22-C ) :   1.0227 B( 22-C , 23-H ) :   0.9241
B( 22-C , 24-H ) :   0.9382 B( 22-C , 25-C ) :   1.0648 B( 25-C , 26-H ) :   0.9655
B( 25-C , 27-H ) :   0.9461 B( 25-C , 28-C ) :   1.0760 B( 28-C , 29-H ) :   0.9766
B( 28-C , 30-H ) :   0.9789 B( 28-C , 31-H ) :   0.9762

Dispersion correction           -0.013844411
FINAL SINGLE POINT ENERGY     -1339.872191969214

DIPOLE MOMENT
-------------
                                X             Y             Z
Electronic contribution:     21.24500     -14.30043      -7.74643
Nuclear contribution   :    -21.80498      14.61214       7.98876
                        -----------------------------------------
Total Dipole Moment    :     -0.55998       0.31171       0.24233
                        -----------------------------------------
Magnitude (a.u.)       :      0.68518
Magnitude (Debye)      :      1.74158

Rotational constants in cm-1:     0.016713     0.008741     0.007075
Rotational constants in MHz :   501.042302   262.055785   212.097943

                             ****ORCA TERMINATED NORMALLY****
TOTAL RUN TIME: 0 days 0 hours 0 minutes 21 seconds 421 msec
