                         Program Version 4.2.1 -  RELEASE  -
|  1> ! wB97X-D3 SP def2-SVP
|  2> %pal
|  3> nprocs 24
|  4> end
|  5>
|  6> * xyz 0 1
|  7> S 	 -94.4445 	 13.9218 	 -116.038
|  8> C 	 -92.7952 	 13.2436 	 -115.938
|  9> C 	 -92.221 	 13.0605 	 -117.183
| 10> C 	 -93.1501 	 13.3104 	 -118.257
| 11> C 	 -94.3105 	 13.8912 	 -117.83
| 12> H 	 -93.018 	 13.178 	 -119.353
| 13> C 	 -90.8599 	 12.6052 	 -117.604
| 14> H 	 -90.2445 	 13.1953 	 -117.03
| 15> H 	 -90.7398 	 12.8568 	 -118.65
| 16> C 	 -90.5287 	 11.0825 	 -117.389
| 17> H 	 -89.5114 	 10.8333 	 -117.781
| 18> H 	 -90.4722 	 10.842 	 -116.318
| 19> C 	 -91.633 	 10.1431 	 -117.921
| 20> H 	 -91.3075 	 9.09615 	 -117.905
| 21> H 	 -92.6618 	 10.127 	 -117.467
| 22> H 	 -91.6452 	 10.1851 	 -118.996
| 23> S 	 -96.9267 	 13.8047 	 -118.438
| 24> C 	 -97.618 	 14.6134 	 -119.847
| 25> C 	 -96.63 	 15.2852 	 -120.507
| 26> C 	 -95.3444 	 15.121 	 -119.927
| 27> C 	 -95.3193 	 14.3571 	 -118.774
| 28> H 	 -96.8815 	 15.8456 	 -121.376
| 29> C 	 -94.2039 	 16.0158 	 -120.49
| 30> H 	 -94.3087 	 15.9998 	 -121.568
| 31> H 	 -93.1926 	 15.5392 	 -120.315
| 32> C 	 -94.2894 	 17.4296 	 -119.941
| 33> H 	 -94.1855 	 17.4962 	 -118.864
| 34> H 	 -95.359 	 17.7179 	 -120.168
| 35> C 	 -93.1829 	 18.3311 	 -120.537
| 36> H 	 -92.2447 	 18.2655 	 -119.976
| 37> H 	 -93.5761 	 19.3026 	 -120.441
| 38> H 	 -92.9858 	 18.0709 	 -121.551
| 39> H 	 -92.2747 	 13.0143 	 -115.021
| 40> H 	 -98.6207 	 14.4832 	 -120.193
| 41> *
| 42>
| 43>                          ****END OF INPUT****

CARTESIAN COORDINATES (ANGSTROEM)
---------------------------------
  S    -94.444500   13.921800  -116.038000
  C    -92.795200   13.243600  -115.938000
  C    -92.221000   13.060500  -117.183000
  C    -93.150100   13.310400  -118.257000
  C    -94.310500   13.891200  -117.830000
  H    -93.018000   13.178000  -119.353000
  C    -90.859900   12.605200  -117.604000
  H    -90.244500   13.195300  -117.030000
  H    -90.739800   12.856800  -118.650000
  C    -90.528700   11.082500  -117.389000
  H    -89.511400   10.833300  -117.781000
  H    -90.472200   10.842000  -116.318000
  C    -91.633000   10.143100  -117.921000
  H    -91.307500    9.096150  -117.905000
  H    -92.661800   10.127000  -117.467000
  H    -91.645200   10.185100  -118.996000
  S    -96.926700   13.804700  -118.438000
  C    -97.618000   14.613400  -119.847000
  C    -96.630000   15.285200  -120.507000
  C    -95.344400   15.121000  -119.927000
  C    -95.319300   14.357100  -118.774000
  H    -96.881500   15.845600  -121.376000
  C    -94.203900   16.015800  -120.490000
  H    -94.308700   15.999800  -121.568000
  H    -93.192600   15.539200  -120.315000
  C    -94.289400   17.429600  -119.941000
  H    -94.185500   17.496200  -118.864000
  H    -95.359000   17.717900  -120.168000
  C    -93.182900   18.331100  -120.537000
  H    -92.244700   18.265500  -119.976000
  H    -93.576100   19.302600  -120.441000
  H    -92.985800   18.070900  -121.551000
  H    -92.274700   13.014300  -115.021000
  H    -98.620700   14.483200  -120.193000

 Total Charge           Charge          ....    0
 Multiplicity           Mult            ....    1
 Number of Electrons    NEL             ....  134
 Basis Dimension        Dim             ....  322

ORBITAL ENERGIES
----------------

  NO   OCC          E(Eh)            E(eV)
   0   2.0000     -88.970266     -2421.0040
   1   2.0000     -88.959206     -2420.7030
   2   2.0000     -10.330190      -281.0988
   3   2.0000     -10.325466      -280.9702
   4   2.0000     -10.317638      -280.7572
   5   2.0000     -10.314741      -280.6784
   6   2.0000     -10.302340      -280.3409
   7   2.0000     -10.301247      -280.3112
   8   2.0000     -10.296358      -280.1781
   9   2.0000     -10.292395      -280.0703
  10   2.0000     -10.292314      -280.0681
  11   2.0000     -10.289615      -279.9947
  12   2.0000     -10.286300      -279.9044
  13   2.0000     -10.285355      -279.8788
  14   2.0000     -10.277270      -279.6587
  15   2.0000     -10.271062      -279.4898
  16   2.0000      -8.083405      -219.9606
  17   2.0000      -8.074456      -219.7171
  18   2.0000      -6.042182      -164.4161
  19   2.0000      -6.038332      -164.3114
  20   2.0000      -6.033775      -164.1874
  21   2.0000      -6.032981      -164.1658
  22   2.0000      -6.028721      -164.0498
  23   2.0000      -6.025334      -163.9577
  24   2.0000      -1.005147       -27.3514
  25   2.0000      -0.980680       -26.6857
  26   2.0000      -0.908880       -24.7319
  27   2.0000      -0.905107       -24.6292
  28   2.0000      -0.869880       -23.6706
  29   2.0000      -0.848284       -23.0830
  30   2.0000      -0.842606       -22.9285
  31   2.0000      -0.815293       -22.1852
  32   2.0000      -0.781479       -21.2651
  33   2.0000      -0.771417       -20.9913
  34   2.0000      -0.708371       -19.2758
  35   2.0000      -0.701049       -19.0765
  36   2.0000      -0.690996       -18.8030
  37   2.0000      -0.666472       -18.1356
  38   2.0000      -0.637288       -17.3415
  39   2.0000      -0.612220       -16.6593
  40   2.0000      -0.592832       -16.1318
  41   2.0000      -0.570602       -15.5269
  42   2.0000      -0.560052       -15.2398
  43   2.0000      -0.550683       -14.9849
  44   2.0000      -0.540334       -14.7032
  45   2.0000      -0.528387       -14.3781
  46   2.0000      -0.515588       -14.0299
  47   2.0000      -0.511567       -13.9204
  48   2.0000      -0.504039       -13.7156
  49   2.0000      -0.499025       -13.5792
  50   2.0000      -0.485361       -13.2073
  51   2.0000      -0.479430       -13.0460
  52   2.0000      -0.469472       -12.7750
  53   2.0000      -0.465465       -12.6660
  54   2.0000      -0.458448       -12.4750
  55   2.0000      -0.446580       -12.1520
  56   2.0000      -0.441568       -12.0157
  57   2.0000      -0.437562       -11.9067
  58   2.0000      -0.431792       -11.7496
  59   2.0000      -0.423881       -11.5344
  60   2.0000      -0.416549       -11.3349
  61   2.0000      -0.413204       -11.2439
  62   2.0000      -0.403765       -10.9870
  63   2.0000      -0.349893        -9.5211
  64   2.0000      -0.330365        -8.9897
  65   2.0000      -0.328024        -8.9260
  66   2.0000      -0.292040        -7.9468
  67   0.0000       0.029600         0.8054
  68   0.0000       0.071417         1.9434
  69   0.0000       0.104224         2.8361
  70   0.0000       0.121715         3.3120
  71   0.0000       0.132102         3.5947

MULLIKEN ATOMIC CHARGES
-----------------------
   0 S :    0.110788
   1 C :   -0.122822
   2 C :   -0.106419
   3 C :   -0.005669
   4 C :   -0.117400
   5 H :    0.037463
   6 C :    0.143560
   7 H :    0.009280
   8 H :    0.019635
   9 C :   -0.076936
  10 H :    0.038918
  11 H :    0.027796
  12 C :   -0.072208
  13 H :    0.018494
  14 H :    0.069451
  15 H :    0.013772
  16 S :    0.081579
  17 C :   -0.082462
  18 C :   -0.034409
  19 C :   -0.043091
  20 C :   -0.160217
  21 H :    0.013225
  22 C :    0.043929
  23 H :    0.019025
  24 H :    0.020206
  25 C :   -0.089524
  26 H :    0.036422
  27 H :    0.028112
  28 C :   -0.001630
  29 H :    0.038700
  30 H :    0.027675
  31 H :    0.019719
  32 H :    0.042803
  33 H :    0.052235
Sum of atomic charges:    0.0000000

LOEWDIN ATOMIC CHARGES
----------------------
   0 S :    0.369744
   1 C :   -0.188670
   2 C :   -0.056335
   3 C :   -0.061374
   4 C :   -0.180908
   5 H :    0.040936
   6 C :   -0.023436
   7 H :    0.022655
   8 H :    0.030334
   9 C :   -0.037605
  10 H :    0.030383
  11 H :    0.022997
  12 C :   -0.084013
  13 H :    0.028451
  14 H :    0.039925
  15 H :    0.020418
  16 S :    0.401988
  17 C :   -0.173976
  18 C :   -0.071594
  19 C :   -0.062610
  20 C :   -0.196832
  21 H :    0.028945
  22 C :   -0.034861
  23 H :    0.024680
  24 H :    0.026815
  25 C :   -0.040302
  26 H :    0.027079
  27 H :    0.027456
  28 C :   -0.056636
  29 H :    0.030137
  30 H :    0.023530
  31 H :    0.018437
  32 H :    0.027283
  33 H :    0.026958

  Mayer bond orders larger than 0.100000
B(  0-S ,  1-C ) :   1.1065 B(  0-S ,  4-C ) :   1.1181 B(  1-C ,  2-C ) :   1.6481
B(  1-C , 32-H ) :   0.9693 B(  2-C ,  3-C ) :   1.1919 B(  2-C ,  6-C ) :   1.0124
B(  3-C ,  4-C ) :   1.6265 B(  3-C ,  5-H ) :   0.9827 B(  4-C , 20-C ) :   1.0378
B(  6-C ,  7-H ) :   0.9269 B(  6-C ,  8-H ) :   0.9427 B(  6-C ,  9-C ) :   1.0673
B(  9-C , 10-H ) :   0.9580 B(  9-C , 11-H ) :   0.9585 B(  9-C , 12-C ) :   1.0771
B( 12-C , 13-H ) :   0.9679 B( 12-C , 14-H ) :   0.9709 B( 12-C , 15-H ) :   0.9722
B( 16-S , 17-C ) :   1.1534 B( 16-S , 20-C ) :   1.1454 B( 17-C , 18-C ) :   1.5996
B( 17-C , 20-C ) :   0.1004 B( 17-C , 33-H ) :   0.9725 B( 18-C , 19-C ) :   1.2431
B( 18-C , 21-H ) :   0.9946 B( 19-C , 20-C ) :   1.5991 B( 19-C , 22-C ) :   1.0404
B( 22-C , 23-H ) :   0.9313 B( 22-C , 24-H ) :   0.9371 B( 22-C , 25-C ) :   1.0681
B( 25-C , 26-H ) :   0.9555 B( 25-C , 27-H ) :   0.9569 B( 25-C , 28-C ) :   1.0678
B( 28-C , 29-H ) :   0.9752 B( 28-C , 30-H ) :   0.9737 B( 28-C , 31-H ) :   0.9769

Dispersion correction           -0.014317025
FINAL SINGLE POINT ENERGY     -1339.870549916614

DIPOLE MOMENT
-------------
                                X             Y             Z
Electronic contribution:    -20.02538      -2.05556      11.19864
Nuclear contribution   :     20.54031       2.11178     -11.65344
                        -----------------------------------------
Total Dipole Moment    :      0.51493       0.05622      -0.45481
                        -----------------------------------------
Magnitude (a.u.)       :      0.68932
Magnitude (Debye)      :      1.75211

Rotational constants in cm-1:     0.018169     0.008472     0.007121
Rotational constants in MHz :   544.706933   253.969392   213.491351

                             ****ORCA TERMINATED NORMALLY****
TOTAL RUN TIME: 0 days 0 hours 0 minutes 21 seconds 556 msec
