                         Program Version 4.2.1 -  RELEASE  -
|  1> ! wB97X-D3 SP def2-SVP
|  2> %pal
|  3> nprocs 24
|  4> end
|  5>
|  6> * xyz 0 1
|  7> S 	 -47.5542 	 16.6768 	 20.1492
|  8> C 	 -48.8309 	 16.4838 	 21.3677
|  9> C 	 -49.8184 	 15.608 	 21.0061
| 10> C 	 -49.4961 	 14.8741 	 19.8316
| 11> C 	 -48.3656 	 15.3612 	 19.2039
| 12> H 	 -49.9461 	 14.0757 	 19.335
| 13> C 	 -51.0211 	 15.3411 	 21.8124
| 14> H 	 -51.6294 	 14.7163 	 21.2151
| 15> H 	 -51.4727 	 16.3043 	 21.8416
| 16> C 	 -50.876 	 14.7511 	 23.2025
| 17> H 	 -50.1866 	 15.343 	 23.8203
| 18> H 	 -51.8751 	 14.8421 	 23.687
| 19> C 	 -50.2666 	 13.3496 	 23.1635
| 20> H 	 -50.9823 	 12.572 	 22.7873
| 21> H 	 -49.4782 	 13.3955 	 22.3724
| 22> H 	 -49.6926 	 13.1083 	 24.0854
| 23> S 	 -47.3954 	 13.3048 	 17.6512
| 24> C 	 -47.168 	 13.6096 	 15.9709
| 25> C 	 -47.4728 	 14.8938 	 15.5634
| 26> C 	 -47.9485 	 15.6709 	 16.6875
| 27> C 	 -48.0258 	 14.9175 	 17.8618
| 28> H 	 -47.1675 	 15.3189 	 14.6523
| 29> C 	 -48.2835 	 17.1702 	 16.5833
| 30> H 	 -47.769 	 17.5481 	 15.7413
| 31> H 	 -47.8948 	 17.7444 	 17.4747
| 32> C 	 -49.7339 	 17.5964 	 16.6443
| 33> H 	 -50.2032 	 17.4019 	 17.5469
| 34> H 	 -50.2293 	 17.0501 	 15.8722
| 35> C 	 -49.8031 	 19.0515 	 16.217
| 36> H 	 -50.8502 	 19.3227 	 15.904
| 37> H 	 -49.1944 	 19.3049 	 15.365
| 38> H 	 -49.4708 	 19.7323 	 16.9948
| 39> H 	 -48.8616 	 17.0212 	 22.3265
| 40> H 	 -46.5167 	 12.9852 	 15.3741
| 41> *
| 42>
| 43>                          ****END OF INPUT****

CARTESIAN COORDINATES (ANGSTROEM)
---------------------------------
  S    -47.554200   16.676800   20.149200
  C    -48.830900   16.483800   21.367700
  C    -49.818400   15.608000   21.006100
  C    -49.496100   14.874100   19.831600
  C    -48.365600   15.361200   19.203900
  H    -49.946100   14.075700   19.335000
  C    -51.021100   15.341100   21.812400
  H    -51.629400   14.716300   21.215100
  H    -51.472700   16.304300   21.841600
  C    -50.876000   14.751100   23.202500
  H    -50.186600   15.343000   23.820300
  H    -51.875100   14.842100   23.687000
  C    -50.266600   13.349600   23.163500
  H    -50.982300   12.572000   22.787300
  H    -49.478200   13.395500   22.372400
  H    -49.692600   13.108300   24.085400
  S    -47.395400   13.304800   17.651200
  C    -47.168000   13.609600   15.970900
  C    -47.472800   14.893800   15.563400
  C    -47.948500   15.670900   16.687500
  C    -48.025800   14.917500   17.861800
  H    -47.167500   15.318900   14.652300
  C    -48.283500   17.170200   16.583300
  H    -47.769000   17.548100   15.741300
  H    -47.894800   17.744400   17.474700
  C    -49.733900   17.596400   16.644300
  H    -50.203200   17.401900   17.546900
  H    -50.229300   17.050100   15.872200
  C    -49.803100   19.051500   16.217000
  H    -50.850200   19.322700   15.904000
  H    -49.194400   19.304900   15.365000
  H    -49.470800   19.732300   16.994800
  H    -48.861600   17.021200   22.326500
  H    -46.516700   12.985200   15.374100

 Total Charge           Charge          ....    0
 Multiplicity           Mult            ....    1
 Number of Electrons    NEL             ....  134
 Basis Dimension        Dim             ....  322

ORBITAL ENERGIES
----------------

  NO   OCC          E(Eh)            E(eV)
   0   2.0000     -88.971656     -2421.0419
   1   2.0000     -88.968013     -2420.9427
   2   2.0000     -10.329038      -281.0674
   3   2.0000     -10.321393      -280.8594
   4   2.0000     -10.315244      -280.6921
   5   2.0000     -10.314114      -280.6613
   6   2.0000     -10.303001      -280.3589
   7   2.0000     -10.296963      -280.1946
   8   2.0000     -10.292946      -280.0853
   9   2.0000     -10.290052      -280.0065
  10   2.0000     -10.289818      -280.0002
  11   2.0000     -10.286246      -279.9030
  12   2.0000     -10.283103      -279.8175
  13   2.0000     -10.280699      -279.7520
  14   2.0000     -10.274149      -279.5738
  15   2.0000     -10.271354      -279.4978
  16   2.0000      -8.084372      -219.9869
  17   2.0000      -8.083229      -219.9558
  18   2.0000      -6.042983      -164.4379
  19   2.0000      -6.041558      -164.3991
  20   2.0000      -6.039254      -164.3364
  21   2.0000      -6.037745      -164.2954
  22   2.0000      -6.035053      -164.2222
  23   2.0000      -6.034077      -164.1956
  24   2.0000      -1.004388       -27.3308
  25   2.0000      -0.982827       -26.7441
  26   2.0000      -0.917833       -24.9755
  27   2.0000      -0.912161       -24.8212
  28   2.0000      -0.869311       -23.6551
  29   2.0000      -0.852162       -23.1885
  30   2.0000      -0.847931       -23.0734
  31   2.0000      -0.813837       -22.1456
  32   2.0000      -0.780668       -21.2430
  33   2.0000      -0.767230       -20.8774
  34   2.0000      -0.709169       -19.2975
  35   2.0000      -0.703414       -19.1409
  36   2.0000      -0.690728       -18.7957
  37   2.0000      -0.665525       -18.1098
  38   2.0000      -0.642989       -17.4966
  39   2.0000      -0.608258       -16.5515
  40   2.0000      -0.595691       -16.2096
  41   2.0000      -0.578008       -15.7284
  42   2.0000      -0.571527       -15.5520
  43   2.0000      -0.556333       -15.1386
  44   2.0000      -0.532315       -14.4850
  45   2.0000      -0.522740       -14.2245
  46   2.0000      -0.517934       -14.0937
  47   2.0000      -0.511853       -13.9282
  48   2.0000      -0.503765       -13.7082
  49   2.0000      -0.495731       -13.4895
  50   2.0000      -0.484291       -13.1782
  51   2.0000      -0.477670       -12.9981
  52   2.0000      -0.470091       -12.7918
  53   2.0000      -0.461514       -12.5584
  54   2.0000      -0.458977       -12.4894
  55   2.0000      -0.455111       -12.3842
  56   2.0000      -0.444783       -12.1031
  57   2.0000      -0.442994       -12.0545
  58   2.0000      -0.432345       -11.7647
  59   2.0000      -0.425426       -11.5764
  60   2.0000      -0.419406       -11.4126
  61   2.0000      -0.417280       -11.3548
  62   2.0000      -0.409256       -11.1364
  63   2.0000      -0.341850        -9.3022
  64   2.0000      -0.333961        -9.0876
  65   2.0000      -0.327669        -8.9163
  66   2.0000      -0.292638        -7.9631
  67   0.0000       0.035070         0.9543
  68   0.0000       0.054440         1.4814
  69   0.0000       0.103695         2.8217
  70   0.0000       0.112848         3.0708
  71   0.0000       0.129278         3.5178

MULLIKEN ATOMIC CHARGES
-----------------------
   0 S :    0.115954
   1 C :   -0.140490
   2 C :   -0.093968
   3 C :    0.040663
   4 C :   -0.140136
   5 H :   -0.006028
   6 C :    0.114198
   7 H :    0.002414
   8 H :    0.026477
   9 C :   -0.053791
  10 H :    0.020807
  11 H :    0.037868
  12 C :   -0.079565
  13 H :    0.042356
  14 H :    0.035713
  15 H :    0.046313
  16 S :    0.123300
  17 C :   -0.087889
  18 C :   -0.013654
  19 C :   -0.032448
  20 C :   -0.199010
  21 H :    0.005502
  22 C :    0.037897
  23 H :    0.002699
  24 H :    0.022801
  25 C :    0.003861
  26 H :    0.025777
  27 H :    0.011641
  28 C :   -0.062920
  29 H :    0.035193
  30 H :    0.018086
  31 H :    0.029404
  32 H :    0.052845
  33 H :    0.058128
Sum of atomic charges:    0.0000000

LOEWDIN ATOMIC CHARGES
----------------------
   0 S :    0.376031
   1 C :   -0.190703
   2 C :   -0.066111
   3 C :   -0.050115
   4 C :   -0.173433
   5 H :    0.023750
   6 C :   -0.032775
   7 H :    0.024711
   8 H :    0.034676
   9 C :   -0.041160
  10 H :    0.022486
  11 H :    0.028362
  12 C :   -0.076493
  13 H :    0.030008
  14 H :    0.031749
  15 H :    0.031908
  16 S :    0.425944
  17 C :   -0.194374
  18 C :   -0.063285
  19 C :   -0.050366
  20 C :   -0.208645
  21 H :    0.024696
  22 C :   -0.034062
  23 H :    0.020064
  24 H :    0.029278
  25 C :   -0.028505
  26 H :    0.018631
  27 H :    0.019389
  28 C :   -0.064034
  29 H :    0.030332
  30 H :    0.020909
  31 H :    0.022894
  32 H :    0.031324
  33 H :    0.026915

  Mayer bond orders larger than 0.100000
B(  0-S ,  1-C ) :   1.1195 B(  0-S ,  4-C ) :   1.1221 B(  1-C ,  2-C ) :   1.6359
B(  1-C , 32-H ) :   0.9639 B(  2-C ,  3-C ) :   1.1922 B(  2-C ,  6-C ) :   1.0177
B(  3-C ,  4-C ) :   1.5939 B(  3-C ,  5-H ) :   1.0034 B(  4-C , 20-C ) :   1.0415
B(  6-C ,  7-H ) :   0.9364 B(  6-C ,  8-H ) :   0.9200 B(  6-C ,  9-C ) :   1.0836
B(  9-C , 10-H ) :   0.9560 B(  9-C , 11-H ) :   0.9530 B(  9-C , 12-C ) :   1.0618
B( 12-C , 13-H ) :   0.9736 B( 12-C , 14-H ) :   0.9750 B( 12-C , 15-H ) :   0.9751
B( 16-S , 17-C ) :   1.1688 B( 16-S , 20-C ) :   1.1487 B( 17-C , 18-C ) :   1.6002
B( 17-C , 33-H ) :   0.9615 B( 18-C , 19-C ) :   1.2547 B( 18-C , 21-H ) :   0.9921
B( 19-C , 20-C ) :   1.5890 B( 19-C , 22-C ) :   1.0391 B( 22-C , 23-H ) :   0.9377
B( 22-C , 24-H ) :   0.9328 B( 22-C , 25-C ) :   1.0667 B( 25-C , 26-H ) :   0.9545
B( 25-C , 27-H ) :   0.9505 B( 25-C , 28-C ) :   1.0845 B( 28-C , 29-H ) :   0.9745
B( 28-C , 30-H ) :   0.9732 B( 28-C , 31-H ) :   0.9748

Dispersion correction           -0.014898376
FINAL SINGLE POINT ENERGY     -1339.869049750622

DIPOLE MOMENT
-------------
                                X             Y             Z
Electronic contribution:     15.46989      -8.31282      -4.96409
Nuclear contribution   :    -15.70521       8.51701       4.97582
                        -----------------------------------------
Total Dipole Moment    :     -0.23532       0.20418       0.01173
                        -----------------------------------------
Magnitude (a.u.)       :      0.31177
Magnitude (Debye)      :      0.79246

Rotational constants in cm-1:     0.018916     0.008924     0.007050
Rotational constants in MHz :   567.087858   267.527169   211.365047

                             ****ORCA TERMINATED NORMALLY****
TOTAL RUN TIME: 0 days 0 hours 0 minutes 22 seconds 46 msec
