                         Program Version 4.2.1 -  RELEASE  -
|  1> ! wB97X-D3 SP def2-SVP
|  2> %pal
|  3> nprocs 24
|  4> end
|  5>
|  6> * xyz 0 1
|  7> S 	 -52.9259 	 9.12818 	 -19.4684
|  8> C 	 -51.6178 	 10.3484 	 -19.4685
|  9> C 	 -52.1994 	 11.6668 	 -19.5407
| 10> C 	 -53.6384 	 11.643 	 -19.8165
| 11> C 	 -54.119 	 10.3426 	 -19.9759
| 12> H 	 -54.3307 	 12.4612 	 -19.7309
| 13> C 	 -51.5029 	 12.9454 	 -19.2751
| 14> H 	 -52.079 	 13.6456 	 -19.8721
| 15> H 	 -50.4624 	 12.8095 	 -19.6776
| 16> C 	 -51.5758 	 13.5441 	 -17.8626
| 17> H 	 -51.1019 	 14.5305 	 -17.8145
| 18> H 	 -52.5907 	 13.5551 	 -17.5953
| 19> C 	 -50.811 	 12.6378 	 -16.9578
| 20> H 	 -49.7996 	 12.5573 	 -17.3187
| 21> H 	 -50.7765 	 12.9645 	 -15.9958
| 22> H 	 -51.0809 	 11.5423 	 -17.0265
| 23> S 	 -56.2444 	 9.32563 	 -18.7117
| 24> C 	 -57.8032 	 9.31829 	 -19.5252
| 25> C 	 -57.8496 	 9.94166 	 -20.7216
| 26> C 	 -56.5236 	 10.3279 	 -21.1405
| 27> C 	 -55.544 	 10.0103 	 -20.1905
| 28> H 	 -58.7467 	 10.1124 	 -21.2324
| 29> C 	 -56.2424 	 11.0621 	 -22.5131
| 30> H 	 -55.5092 	 11.8594 	 -22.36
| 31> H 	 -57.1485 	 11.6584 	 -22.7672
| 32> C 	 -55.8601 	 10.0573 	 -23.6395
| 33> H 	 -56.3882 	 9.11966 	 -23.5384
| 34> H 	 -54.7847 	 9.79471 	 -23.3937
| 35> C 	 -55.9927 	 10.6278 	 -25.0417
| 36> H 	 -55.2011 	 11.3256 	 -25.1739
| 37> H 	 -56.9148 	 11.1492 	 -25.2963
| 38> H 	 -55.8241 	 9.86381 	 -25.7643
| 39> H 	 -50.6682 	 10.2738 	 -19.0424
| 40> H 	 -58.6609 	 9.27258 	 -18.935
| 41> *
| 42>
| 43>                          ****END OF INPUT****

CARTESIAN COORDINATES (ANGSTROEM)
---------------------------------
  S    -52.925900    9.128180  -19.468400
  C    -51.617800   10.348400  -19.468500
  C    -52.199400   11.666800  -19.540700
  C    -53.638400   11.643000  -19.816500
  C    -54.119000   10.342600  -19.975900
  H    -54.330700   12.461200  -19.730900
  C    -51.502900   12.945400  -19.275100
  H    -52.079000   13.645600  -19.872100
  H    -50.462400   12.809500  -19.677600
  C    -51.575800   13.544100  -17.862600
  H    -51.101900   14.530500  -17.814500
  H    -52.590700   13.555100  -17.595300
  C    -50.811000   12.637800  -16.957800
  H    -49.799600   12.557300  -17.318700
  H    -50.776500   12.964500  -15.995800
  H    -51.080900   11.542300  -17.026500
  S    -56.244400    9.325630  -18.711700
  C    -57.803200    9.318290  -19.525200
  C    -57.849600    9.941660  -20.721600
  C    -56.523600   10.327900  -21.140500
  C    -55.544000   10.010300  -20.190500
  H    -58.746700   10.112400  -21.232400
  C    -56.242400   11.062100  -22.513100
  H    -55.509200   11.859400  -22.360000
  H    -57.148500   11.658400  -22.767200
  C    -55.860100   10.057300  -23.639500
  H    -56.388200    9.119660  -23.538400
  H    -54.784700    9.794710  -23.393700
  C    -55.992700   10.627800  -25.041700
  H    -55.201100   11.325600  -25.173900
  H    -56.914800   11.149200  -25.296300
  H    -55.824100    9.863810  -25.764300
  H    -50.668200   10.273800  -19.042400
  H    -58.660900    9.272580  -18.935000

 Total Charge           Charge          ....    0
 Multiplicity           Mult            ....    1
 Number of Electrons    NEL             ....  134
 Basis Dimension        Dim             ....  322

ORBITAL ENERGIES
----------------

  NO   OCC          E(Eh)            E(eV)
   0   2.0000     -88.970520     -2421.0109
   1   2.0000     -88.964264     -2420.8407
   2   2.0000     -10.336486      -281.2701
   3   2.0000     -10.331162      -281.1252
   4   2.0000     -10.317126      -280.7433
   5   2.0000     -10.313168      -280.6356
   6   2.0000     -10.309671      -280.5404
   7   2.0000     -10.309192      -280.5274
   8   2.0000     -10.299009      -280.2503
   9   2.0000     -10.298114      -280.2259
  10   2.0000     -10.293117      -280.0899
  11   2.0000     -10.290555      -280.0203
  12   2.0000     -10.287738      -279.9436
  13   2.0000     -10.283540      -279.8293
  14   2.0000     -10.270489      -279.4742
  15   2.0000     -10.264992      -279.3246
  16   2.0000      -8.083730      -219.9695
  17   2.0000      -8.079039      -219.8418
  18   2.0000      -6.042468      -164.4239
  19   2.0000      -6.038567      -164.3178
  20   2.0000      -6.037514      -164.2891
  21   2.0000      -6.034207      -164.1991
  22   2.0000      -6.033738      -164.1864
  23   2.0000      -6.029614      -164.0741
  24   2.0000      -1.000402       -27.2223
  25   2.0000      -0.975463       -26.5437
  26   2.0000      -0.920574       -25.0501
  27   2.0000      -0.900295       -24.4983
  28   2.0000      -0.869237       -23.6531
  29   2.0000      -0.849677       -23.1209
  30   2.0000      -0.846756       -23.0414
  31   2.0000      -0.814721       -22.1697
  32   2.0000      -0.781072       -21.2540
  33   2.0000      -0.772134       -21.0108
  34   2.0000      -0.708959       -19.2918
  35   2.0000      -0.700533       -19.0625
  36   2.0000      -0.692647       -18.8479
  37   2.0000      -0.665601       -18.1119
  38   2.0000      -0.637045       -17.3349
  39   2.0000      -0.616599       -16.7785
  40   2.0000      -0.595009       -16.1910
  41   2.0000      -0.572140       -15.5687
  42   2.0000      -0.558374       -15.1941
  43   2.0000      -0.553412       -15.0591
  44   2.0000      -0.546129       -14.8609
  45   2.0000      -0.525782       -14.3073
  46   2.0000      -0.524079       -14.2609
  47   2.0000      -0.514885       -14.0107
  48   2.0000      -0.501196       -13.6382
  49   2.0000      -0.496814       -13.5190
  50   2.0000      -0.484947       -13.1961
  51   2.0000      -0.481546       -13.1035
  52   2.0000      -0.465810       -12.6753
  53   2.0000      -0.461144       -12.5484
  54   2.0000      -0.457233       -12.4419
  55   2.0000      -0.449731       -12.2378
  56   2.0000      -0.444805       -12.1038
  57   2.0000      -0.437925       -11.9165
  58   2.0000      -0.432653       -11.7731
  59   2.0000      -0.427104       -11.6221
  60   2.0000      -0.421200       -11.4614
  61   2.0000      -0.416761       -11.3406
  62   2.0000      -0.410070       -11.1586
  63   2.0000      -0.344889        -9.3849
  64   2.0000      -0.330005        -8.9799
  65   2.0000      -0.322909        -8.7868
  66   2.0000      -0.295185        -8.0324
  67   0.0000       0.027067         0.7365
  68   0.0000       0.053508         1.4560
  69   0.0000       0.097237         2.6460
  70   0.0000       0.113146         3.0789
  71   0.0000       0.121941         3.3182

MULLIKEN ATOMIC CHARGES
-----------------------
   0 S :    0.104414
   1 C :   -0.068136
   2 C :   -0.149678
   3 C :    0.046795
   4 C :   -0.146811
   5 H :    0.023170
   6 C :    0.022255
   7 H :    0.020024
   8 H :    0.040378
   9 C :   -0.001722
  10 H :    0.040198
  11 H :    0.016284
  12 C :   -0.033863
  13 H :    0.001868
  14 H :    0.013841
  15 H :    0.036086
  16 S :    0.084797
  17 C :   -0.043226
  18 C :   -0.025183
  19 C :   -0.051992
  20 C :   -0.167456
  21 H :    0.005408
  22 C :    0.053814
  23 H :    0.027396
  24 H :    0.018067
  25 C :   -0.085405
  26 H :    0.033880
  27 H :    0.044964
  28 C :   -0.012005
  29 H :    0.019511
  30 H :    0.031861
  31 H :    0.026708
  32 H :    0.032667
  33 H :    0.041090
Sum of atomic charges:   -0.0000000

LOEWDIN ATOMIC CHARGES
----------------------
   0 S :    0.386219
   1 C :   -0.196596
   2 C :   -0.048363
   3 C :   -0.063220
   4 C :   -0.188936
   5 H :    0.031566
   6 C :   -0.040464
   7 H :    0.030206
   8 H :    0.037353
   9 C :   -0.027126
  10 H :    0.031985
  11 H :    0.018655
  12 C :   -0.064671
  13 H :    0.020006
  14 H :    0.009105
  15 H :    0.032582
  16 S :    0.389390
  17 C :   -0.170329
  18 C :   -0.057922
  19 C :   -0.046944
  20 C :   -0.190103
  21 H :    0.027365
  22 C :   -0.030994
  23 H :    0.027841
  24 H :    0.027006
  25 C :   -0.041705
  26 H :    0.021986
  27 H :    0.036886
  28 C :   -0.063793
  29 H :    0.023230
  30 H :    0.025128
  31 H :    0.025014
  32 H :    0.014597
  33 H :    0.015046

  Mayer bond orders larger than 0.100000
B(  0-S ,  1-C ) :   1.1153 B(  0-S ,  4-C ) :   1.1511 B(  1-C ,  2-C ) :   1.5980
B(  1-C , 32-H ) :   0.9672 B(  2-C ,  3-C ) :   1.2309 B(  2-C ,  6-C ) :   1.0391
B(  3-C ,  4-C ) :   1.5779 B(  3-C ,  5-H ) :   0.9863 B(  4-C , 20-C ) :   1.0126
B(  6-C ,  7-H ) :   0.9331 B(  6-C ,  8-H ) :   0.9417 B(  6-C ,  9-C ) :   1.0722
B(  9-C , 10-H ) :   0.9514 B(  9-C , 11-H ) :   0.9483 B(  9-C , 12-C ) :   1.0868
B( 12-C , 13-H ) :   0.9689 B( 12-C , 14-H ) :   0.9710 B( 12-C , 15-H ) :   0.9699
B( 16-S , 17-C ) :   1.1420 B( 16-S , 20-C ) :   1.1445 B( 17-C , 18-C ) :   1.6477
B( 17-C , 33-H ) :   0.9626 B( 18-C , 19-C ) :   1.2174 B( 18-C , 21-H ) :   1.0018
B( 19-C , 20-C ) :   1.6363 B( 19-C , 22-C ) :   1.0268 B( 22-C , 23-H ) :   0.9413
B( 22-C , 24-H ) :   0.9451 B( 22-C , 25-C ) :   1.0447 B( 25-C , 26-H ) :   0.9645
B( 25-C , 27-H ) :   0.9534 B( 25-C , 28-C ) :   1.0807 B( 28-C , 29-H ) :   0.9721
B( 28-C , 30-H ) :   0.9767 B( 28-C , 31-H ) :   0.9722

Dispersion correction           -0.014171617
FINAL SINGLE POINT ENERGY     -1339.845804454560

DIPOLE MOMENT
-------------
                                X             Y             Z
Electronic contribution:     -6.93119     -15.76085      10.25999
Nuclear contribution   :      6.75803      16.49675     -10.30855
                        -----------------------------------------
Total Dipole Moment    :     -0.17316       0.73590      -0.04856
                        -----------------------------------------
Magnitude (a.u.)       :      0.75756
Magnitude (Debye)      :      1.92556

Rotational constants in cm-1:     0.019448     0.007974     0.006761
Rotational constants in MHz :   583.031088   239.042756   202.688808

                             ****ORCA TERMINATED NORMALLY****
TOTAL RUN TIME: 0 days 0 hours 0 minutes 21 seconds 392 msec
