                         Program Version 4.2.1 -  RELEASE  -
|  1> ! wB97X-D3 SP def2-SVP
|  2> %pal
|  3> nprocs 24
|  4> end
|  5>
|  6> * xyz 0 1
|  7> S 	 -87.7137 	 -2.00035 	 -65.0321
|  8> C 	 -87.8487 	 -0.241333 	 -65.2811
|  9> C 	 -86.7577 	 0.419583 	 -64.6793
| 10> C 	 -85.8335 	 -0.561669 	 -64.1396
| 11> C 	 -86.2697 	 -1.87216 	 -64.0735
| 12> H 	 -84.8939 	 -0.306115 	 -63.7193
| 13> C 	 -86.4885 	 1.90059 	 -64.7173
| 14> H 	 -86.4384 	 2.17172 	 -63.6292
| 15> H 	 -87.3643 	 2.4108 	 -65.1948
| 16> C 	 -85.1703 	 2.40062 	 -65.269
| 17> H 	 -84.9567 	 3.52487 	 -65.2637
| 18> H 	 -84.4198 	 2.01356 	 -64.5589
| 19> C 	 -84.7801 	 1.87403 	 -66.6013
| 20> H 	 -85.4599 	 2.13902 	 -67.3557
| 21> H 	 -83.8517 	 2.25968 	 -67.004
| 22> H 	 -84.6506 	 0.761032 	 -66.5786
| 23> S 	 -85.2442 	 -4.39274 	 -64.3307
| 24> C 	 -84.4066 	 -5.10477 	 -63.0448
| 25> C 	 -84.6012 	 -4.39994 	 -61.8518
| 26> C 	 -85.1355 	 -3.0839 	 -62.0791
| 27> C 	 -85.6548 	 -3.01789 	 -63.369
| 28> H 	 -84.2173 	 -4.82685 	 -60.8922
| 29> C 	 -85.3834 	 -2.15234 	 -60.9238
| 30> H 	 -86.1522 	 -2.56391 	 -60.2928
| 31> H 	 -85.932 	 -1.28832 	 -61.2038
| 32> C 	 -84.192 	 -1.75529 	 -60.025
| 33> H 	 -83.4119 	 -1.27005 	 -60.5377
| 34> H 	 -83.8835 	 -2.73391 	 -59.5902
| 35> C 	 -84.5373 	 -0.880412 	 -58.8542
| 36> H 	 -85.3562 	 -1.31177 	 -58.2993
| 37> H 	 -84.9578 	 0.0560932 	 -59.2713
| 38> H 	 -83.6668 	 -0.565392 	 -58.3513
| 39> H 	 -88.8064 	 0.335809 	 -65.6385
| 40> H 	 -83.8847 	 -6.02914 	 -63.0153
| 41> *
| 42>
| 43>                          ****END OF INPUT****

CARTESIAN COORDINATES (ANGSTROEM)
---------------------------------
  S    -87.713700   -2.000350  -65.032100
  C    -87.848700   -0.241333  -65.281100
  C    -86.757700    0.419583  -64.679300
  C    -85.833500   -0.561669  -64.139600
  C    -86.269700   -1.872160  -64.073500
  H    -84.893900   -0.306115  -63.719300
  C    -86.488500    1.900590  -64.717300
  H    -86.438400    2.171720  -63.629200
  H    -87.364300    2.410800  -65.194800
  C    -85.170300    2.400620  -65.269000
  H    -84.956700    3.524870  -65.263700
  H    -84.419800    2.013560  -64.558900
  C    -84.780100    1.874030  -66.601300
  H    -85.459900    2.139020  -67.355700
  H    -83.851700    2.259680  -67.004000
  H    -84.650600    0.761032  -66.578600
  S    -85.244200   -4.392740  -64.330700
  C    -84.406600   -5.104770  -63.044800
  C    -84.601200   -4.399940  -61.851800
  C    -85.135500   -3.083900  -62.079100
  C    -85.654800   -3.017890  -63.369000
  H    -84.217300   -4.826850  -60.892200
  C    -85.383400   -2.152340  -60.923800
  H    -86.152200   -2.563910  -60.292800
  H    -85.932000   -1.288320  -61.203800
  C    -84.192000   -1.755290  -60.025000
  H    -83.411900   -1.270050  -60.537700
  H    -83.883500   -2.733910  -59.590200
  C    -84.537300   -0.880412  -58.854200
  H    -85.356200   -1.311770  -58.299300
  H    -84.957800    0.056093  -59.271300
  H    -83.666800   -0.565392  -58.351300
  H    -88.806400    0.335809  -65.638500
  H    -83.884700   -6.029140  -63.015300

 Total Charge           Charge          ....    0
 Multiplicity           Mult            ....    1
 Number of Electrons    NEL             ....  134
 Basis Dimension        Dim             ....  322

ORBITAL ENERGIES
----------------

  NO   OCC          E(Eh)            E(eV)
   0   2.0000     -88.970312     -2421.0053
   1   2.0000     -88.964568     -2420.8490
   2   2.0000     -10.331512      -281.1347
   3   2.0000     -10.329152      -281.0705
   4   2.0000     -10.325844      -280.9805
   5   2.0000     -10.314162      -280.6626
   6   2.0000     -10.309189      -280.5273
   7   2.0000     -10.307785      -280.4891
   8   2.0000     -10.299655      -280.2679
   9   2.0000     -10.298653      -280.2406
  10   2.0000     -10.291695      -280.0513
  11   2.0000     -10.290399      -280.0160
  12   2.0000     -10.286688      -279.9150
  13   2.0000     -10.283759      -279.8353
  14   2.0000     -10.274591      -279.5858
  15   2.0000     -10.266421      -279.3635
  16   2.0000      -8.086356      -220.0409
  17   2.0000      -8.078990      -219.8405
  18   2.0000      -6.044728      -164.4854
  19   2.0000      -6.040620      -164.3736
  20   2.0000      -6.037582      -164.2910
  21   2.0000      -6.037231      -164.2814
  22   2.0000      -6.033512      -164.1802
  23   2.0000      -6.029696      -164.0764
  24   2.0000      -1.011260       -27.5178
  25   2.0000      -0.983951       -26.7747
  26   2.0000      -0.916729       -24.9455
  27   2.0000      -0.916003       -24.9257
  28   2.0000      -0.867476       -23.6052
  29   2.0000      -0.860844       -23.4248
  30   2.0000      -0.841792       -22.9063
  31   2.0000      -0.813004       -22.1230
  32   2.0000      -0.787731       -21.4352
  33   2.0000      -0.776059       -21.1176
  34   2.0000      -0.705485       -19.1972
  35   2.0000      -0.699640       -19.0382
  36   2.0000      -0.687727       -18.7140
  37   2.0000      -0.656745       -17.8709
  38   2.0000      -0.632141       -17.2014
  39   2.0000      -0.622220       -16.9315
  40   2.0000      -0.603785       -16.4298
  41   2.0000      -0.574480       -15.6324
  42   2.0000      -0.560808       -15.2604
  43   2.0000      -0.554143       -15.0790
  44   2.0000      -0.545964       -14.8564
  45   2.0000      -0.534275       -14.5384
  46   2.0000      -0.519423       -14.1342
  47   2.0000      -0.513644       -13.9770
  48   2.0000      -0.508719       -13.8430
  49   2.0000      -0.492467       -13.4007
  50   2.0000      -0.490255       -13.3405
  51   2.0000      -0.481101       -13.0914
  52   2.0000      -0.469739       -12.7823
  53   2.0000      -0.463444       -12.6109
  54   2.0000      -0.461755       -12.5650
  55   2.0000      -0.447646       -12.1811
  56   2.0000      -0.443811       -12.0767
  57   2.0000      -0.438205       -11.9242
  58   2.0000      -0.435905       -11.8616
  59   2.0000      -0.429496       -11.6872
  60   2.0000      -0.417312       -11.3556
  61   2.0000      -0.408994       -11.1293
  62   2.0000      -0.407584       -11.0909
  63   2.0000      -0.345359        -9.3977
  64   2.0000      -0.332810        -9.0562
  65   2.0000      -0.325665        -8.8618
  66   2.0000      -0.292551        -7.9607
  67   0.0000       0.033089         0.9004
  68   0.0000       0.064832         1.7642
  69   0.0000       0.107937         2.9371
  70   0.0000       0.118421         3.2224
  71   0.0000       0.124090         3.3767

MULLIKEN ATOMIC CHARGES
-----------------------
   0 S :    0.096810
   1 C :   -0.155691
   2 C :   -0.120969
   3 C :    0.041074
   4 C :   -0.148956
   5 H :   -0.006257
   6 C :    0.078590
   7 H :    0.044203
   8 H :    0.029138
   9 C :   -0.107253
  10 H :    0.044946
  11 H :    0.022068
  12 C :   -0.028979
  13 H :    0.014591
  14 H :    0.019821
  15 H :    0.044188
  16 S :    0.137741
  17 C :   -0.080810
  18 C :   -0.062050
  19 C :   -0.002329
  20 C :   -0.145035
  21 H :    0.039372
  22 C :    0.051755
  23 H :    0.024577
  24 H :   -0.002316
  25 C :   -0.078154
  26 H :    0.022708
  27 H :    0.025628
  28 C :   -0.011609
  29 H :    0.027046
  30 H :    0.013931
  31 H :    0.034029
  32 H :    0.091825
  33 H :    0.046367
Sum of atomic charges:   -0.0000000

LOEWDIN ATOMIC CHARGES
----------------------
   0 S :    0.392812
   1 C :   -0.215572
   2 C :   -0.063114
   3 C :   -0.068218
   4 C :   -0.194444
   5 H :    0.020508
   6 C :   -0.037045
   7 H :    0.043251
   8 H :    0.032368
   9 C :   -0.055778
  10 H :    0.037118
  11 H :    0.023736
  12 C :   -0.069399
  13 H :    0.016268
  14 H :    0.024764
  15 H :    0.033527
  16 S :    0.449532
  17 C :   -0.201774
  18 C :   -0.071945
  19 C :   -0.047869
  20 C :   -0.209956
  21 H :    0.036769
  22 C :   -0.036800
  23 H :    0.036144
  24 H :    0.022038
  25 C :   -0.034384
  26 H :    0.017790
  27 H :    0.024019
  28 C :   -0.058435
  29 H :    0.023922
  30 H :    0.025423
  31 H :    0.024105
  32 H :    0.054727
  33 H :    0.025911

  Mayer bond orders larger than 0.100000
B(  0-S ,  1-C ) :   1.1290 B(  0-S ,  4-C ) :   1.1539 B(  1-C ,  2-C ) :   1.6125
B(  1-C , 32-H ) :   0.9484 B(  2-C ,  3-C ) :   1.2219 B(  2-C ,  6-C ) :   1.0272
B(  3-C ,  4-C ) :   1.5886 B(  3-C ,  5-H ) :   0.9971 B(  4-C , 20-C ) :   1.0051
B(  6-C ,  7-H ) :   0.9334 B(  6-C ,  8-H ) :   0.9430 B(  6-C ,  9-C ) :   1.0666
B(  9-C , 10-H ) :   0.9542 B(  9-C , 11-H ) :   0.9471 B(  9-C , 12-C ) :   1.0961
B( 12-C , 13-H ) :   0.9735 B( 12-C , 14-H ) :   0.9696 B( 12-C , 15-H ) :   0.9663
B( 16-S , 17-C ) :   1.1774 B( 16-S , 20-C ) :   1.1591 B( 17-C , 18-C ) :   1.6004
B( 17-C , 33-H ) :   0.9695 B( 18-C , 19-C ) :   1.2361 B( 18-C , 21-H ) :   0.9779
B( 19-C , 20-C ) :   1.5827 B( 19-C , 22-C ) :   1.0525 B( 22-C , 23-H ) :   0.9331
B( 22-C , 24-H ) :   0.9300 B( 22-C , 25-C ) :   1.0523 B( 25-C , 26-H ) :   0.9589
B( 25-C , 27-H ) :   0.9534 B( 25-C , 28-C ) :   1.0987 B( 28-C , 29-H ) :   0.9721
B( 28-C , 30-H ) :   0.9690 B( 28-C , 31-H ) :   0.9715

Dispersion correction           -0.013965689
FINAL SINGLE POINT ENERGY     -1339.862621518674

DIPOLE MOMENT
-------------
                                X             Y             Z
Electronic contribution:     -9.82539     -22.32087     -12.30937
Nuclear contribution   :     10.15135      22.71182      12.82728
                        -----------------------------------------
Total Dipole Moment    :      0.32595       0.39094       0.51791
                        -----------------------------------------
Magnitude (a.u.)       :      0.72616
Magnitude (Debye)      :      1.84576

Rotational constants in cm-1:     0.016320     0.009050     0.006898
Rotational constants in MHz :   489.248978   271.307189   206.784922

                             ****ORCA TERMINATED NORMALLY****
TOTAL RUN TIME: 0 days 0 hours 0 minutes 21 seconds 161 msec
