                         Program Version 4.2.1 -  RELEASE  -
|  1> ! wB97X-D3 SP def2-SVP
|  2> %pal
|  3> nprocs 24
|  4> end
|  5>
|  6> * xyz 0 1
|  7> S 	 -105.174 	 52.5801 	 -79.8888
|  8> C 	 -104.706 	 52.634 	 -81.5789
|  9> C 	 -105.182 	 51.5303 	 -82.2829
| 10> C 	 -106.109 	 50.7523 	 -81.483
| 11> C 	 -106.214 	 51.1967 	 -80.1798
| 12> H 	 -106.653 	 49.8807 	 -81.774
| 13> C 	 -104.914 	 51.2834 	 -83.773
| 14> H 	 -104.818 	 50.2422 	 -83.9816
| 15> H 	 -103.921 	 51.6929 	 -84.0236
| 16> C 	 -105.919 	 51.7874 	 -84.7399
| 17> H 	 -106.791 	 51.2129 	 -84.4739
| 18> H 	 -106.162 	 52.8273 	 -84.4582
| 19> C 	 -105.587 	 51.5666 	 -86.2001
| 20> H 	 -105.137 	 50.6467 	 -86.4789
| 21> H 	 -106.443 	 51.6875 	 -86.8704
| 22> H 	 -104.9 	 52.3211 	 -86.4629
| 23> S 	 -108.418 	 51.7599 	 -78.6463
| 24> C 	 -109.156 	 50.4681 	 -77.7314
| 25> C 	 -108.402 	 49.3081 	 -77.6895
| 26> C 	 -107.325 	 49.3766 	 -78.5976
| 27> C 	 -107.182 	 50.6595 	 -79.1709
| 28> H 	 -108.782 	 48.4535 	 -77.1796
| 29> C 	 -106.31 	 48.1813 	 -78.7204
| 30> H 	 -106.638 	 47.3977 	 -78.024
| 31> H 	 -105.42 	 48.5678 	 -78.2776
| 32> C 	 -105.981 	 47.5895 	 -80.0685
| 33> H 	 -105.431 	 46.6755 	 -79.8674
| 34> H 	 -105.348 	 48.1872 	 -80.6432
| 35> C 	 -107.209 	 47.1902 	 -80.876
| 36> H 	 -107.691 	 46.457 	 -80.2761
| 37> H 	 -106.871 	 46.6135 	 -81.7477
| 38> H 	 -107.811 	 48.0631 	 -81.1456
| 39> H 	 -103.989 	 53.3298 	 -81.9602
| 40> H 	 -109.958 	 50.6131 	 -77.055
| 41> *
| 42>
| 43>                          ****END OF INPUT****

CARTESIAN COORDINATES (ANGSTROEM)
---------------------------------
  S    -105.174000   52.580100  -79.888800
  C    -104.706000   52.634000  -81.578900
  C    -105.182000   51.530300  -82.282900
  C    -106.109000   50.752300  -81.483000
  C    -106.214000   51.196700  -80.179800
  H    -106.653000   49.880700  -81.774000
  C    -104.914000   51.283400  -83.773000
  H    -104.818000   50.242200  -83.981600
  H    -103.921000   51.692900  -84.023600
  C    -105.919000   51.787400  -84.739900
  H    -106.791000   51.212900  -84.473900
  H    -106.162000   52.827300  -84.458200
  C    -105.587000   51.566600  -86.200100
  H    -105.137000   50.646700  -86.478900
  H    -106.443000   51.687500  -86.870400
  H    -104.900000   52.321100  -86.462900
  S    -108.418000   51.759900  -78.646300
  C    -109.156000   50.468100  -77.731400
  C    -108.402000   49.308100  -77.689500
  C    -107.325000   49.376600  -78.597600
  C    -107.182000   50.659500  -79.170900
  H    -108.782000   48.453500  -77.179600
  C    -106.310000   48.181300  -78.720400
  H    -106.638000   47.397700  -78.024000
  H    -105.420000   48.567800  -78.277600
  C    -105.981000   47.589500  -80.068500
  H    -105.431000   46.675500  -79.867400
  H    -105.348000   48.187200  -80.643200
  C    -107.209000   47.190200  -80.876000
  H    -107.691000   46.457000  -80.276100
  H    -106.871000   46.613500  -81.747700
  H    -107.811000   48.063100  -81.145600
  H    -103.989000   53.329800  -81.960200
  H    -109.958000   50.613100  -77.055000

 Total Charge           Charge          ....    0
 Multiplicity           Mult            ....    1
 Number of Electrons    NEL             ....  134
 Basis Dimension        Dim             ....  322

ORBITAL ENERGIES
----------------

  NO   OCC          E(Eh)            E(eV)
   0   2.0000     -88.968511     -2420.9563
   1   2.0000     -88.967755     -2420.9357
   2   2.0000     -10.330867      -281.1172
   3   2.0000     -10.327893      -281.0362
   4   2.0000     -10.315283      -280.6931
   5   2.0000     -10.312463      -280.6164
   6   2.0000     -10.306827      -280.4630
   7   2.0000     -10.306535      -280.4551
   8   2.0000     -10.294415      -280.1253
   9   2.0000     -10.290766      -280.0260
  10   2.0000     -10.289951      -280.0038
  11   2.0000     -10.287024      -279.9242
  12   2.0000     -10.279710      -279.7251
  13   2.0000     -10.275141      -279.6008
  14   2.0000     -10.272959      -279.5414
  15   2.0000     -10.272318      -279.5240
  16   2.0000      -8.083391      -219.9602
  17   2.0000      -8.082215      -219.9283
  18   2.0000      -6.041710      -164.4033
  19   2.0000      -6.040686      -164.3754
  20   2.0000      -6.037874      -164.2989
  21   2.0000      -6.036788      -164.2693
  22   2.0000      -6.034349      -164.2030
  23   2.0000      -6.033016      -164.1667
  24   2.0000      -1.003423       -27.3045
  25   2.0000      -0.982622       -26.7385
  26   2.0000      -0.918128       -24.9835
  27   2.0000      -0.910609       -24.7789
  28   2.0000      -0.867292       -23.6002
  29   2.0000      -0.850126       -23.1331
  30   2.0000      -0.847517       -23.0621
  31   2.0000      -0.815380       -22.1876
  32   2.0000      -0.786422       -21.3996
  33   2.0000      -0.775554       -21.1039
  34   2.0000      -0.705893       -19.2083
  35   2.0000      -0.699247       -19.0275
  36   2.0000      -0.685707       -18.6590
  37   2.0000      -0.663383       -18.0516
  38   2.0000      -0.647133       -17.6094
  39   2.0000      -0.616886       -16.7863
  40   2.0000      -0.590597       -16.0710
  41   2.0000      -0.576596       -15.6900
  42   2.0000      -0.564672       -15.3655
  43   2.0000      -0.558489       -15.1973
  44   2.0000      -0.550947       -14.9920
  45   2.0000      -0.521806       -14.1991
  46   2.0000      -0.517078       -14.0704
  47   2.0000      -0.510571       -13.8934
  48   2.0000      -0.506523       -13.7832
  49   2.0000      -0.493628       -13.4323
  50   2.0000      -0.485425       -13.2091
  51   2.0000      -0.478557       -13.0222
  52   2.0000      -0.475656       -12.9432
  53   2.0000      -0.464679       -12.6446
  54   2.0000      -0.461173       -12.5491
  55   2.0000      -0.453459       -12.3393
  56   2.0000      -0.447915       -12.1884
  57   2.0000      -0.436035       -11.8651
  58   2.0000      -0.435336       -11.8461
  59   2.0000      -0.425311       -11.5733
  60   2.0000      -0.423095       -11.5130
  61   2.0000      -0.415922       -11.3178
  62   2.0000      -0.409422       -11.1410
  63   2.0000      -0.343703        -9.3526
  64   2.0000      -0.331604        -9.0234
  65   2.0000      -0.328570        -8.9408
  66   2.0000      -0.297143        -8.0857
  67   0.0000       0.035266         0.9596
  68   0.0000       0.062632         1.7043
  69   0.0000       0.113087         3.0773
  70   0.0000       0.117888         3.2079
  71   0.0000       0.132219         3.5979

MULLIKEN ATOMIC CHARGES
-----------------------
   0 S :    0.113756
   1 C :   -0.118654
   2 C :   -0.084697
   3 C :    0.066199
   4 C :   -0.163183
   5 H :   -0.009573
   6 C :    0.064846
   7 H :    0.008573
   8 H :    0.010156
   9 C :   -0.056256
  10 H :    0.012642
  11 H :    0.027893
  12 C :   -0.004707
  13 H :    0.019261
  14 H :    0.034499
  15 H :    0.018126
  16 S :    0.125347
  17 C :   -0.080063
  18 C :   -0.036349
  19 C :   -0.051065
  20 C :   -0.180269
  21 H :    0.017106
  22 C :    0.093925
  23 H :    0.012611
  24 H :    0.033768
  25 C :   -0.059460
  26 H :    0.019642
  27 H :    0.020361
  28 C :   -0.046464
  29 H :    0.015081
  30 H :    0.029229
  31 H :    0.059686
  32 H :    0.045641
  33 H :    0.042388
Sum of atomic charges:    0.0000000

LOEWDIN ATOMIC CHARGES
----------------------
   0 S :    0.400611
   1 C :   -0.190912
   2 C :   -0.055987
   3 C :   -0.055931
   4 C :   -0.197017
   5 H :    0.027342
   6 C :   -0.032990
   7 H :    0.024210
   8 H :    0.025023
   9 C :   -0.042460
  10 H :    0.020088
  11 H :    0.026955
  12 C :   -0.059174
  13 H :    0.021658
  14 H :    0.031877
  15 H :    0.022148
  16 S :    0.425727
  17 C :   -0.180337
  18 C :   -0.070006
  19 C :   -0.053476
  20 C :   -0.211878
  21 H :    0.030497
  22 C :   -0.024355
  23 H :    0.029298
  24 H :    0.033821
  25 C :   -0.040145
  26 H :    0.027785
  27 H :    0.011550
  28 C :   -0.061667
  29 H :    0.020865
  30 H :    0.028398
  31 H :    0.024981
  32 H :    0.024269
  33 H :    0.019234

  Mayer bond orders larger than 0.100000
B(  0-S ,  1-C ) :   1.1384 B(  0-S ,  4-C ) :   1.1552 B(  1-C ,  2-C ) :   1.6112
B(  1-C , 32-H ) :   0.9700 B(  2-C ,  3-C ) :   1.2223 B(  2-C ,  6-C ) :   1.0355
B(  3-C ,  4-C ) :   1.5963 B(  3-C ,  5-H ) :   0.9911 B(  4-C , 20-C ) :   1.0016
B(  6-C ,  7-H ) :   0.9333 B(  6-C ,  8-H ) :   0.9391 B(  6-C ,  9-C ) :   1.0691
B(  9-C , 10-H ) :   0.9520 B(  9-C , 11-H ) :   0.9537 B(  9-C , 12-C ) :   1.0775
B( 12-C , 13-H ) :   0.9731 B( 12-C , 14-H ) :   0.9724 B( 12-C , 15-H ) :   0.9730
B( 16-S , 17-C ) :   1.1710 B( 16-S , 20-C ) :   1.1648 B( 17-C , 18-C ) :   1.6030
B( 17-C , 20-C ) :   0.1052 B( 17-C , 33-H ) :   0.9655 B( 18-C , 19-C ) :   1.2695
B( 18-C , 21-H ) :   0.9874 B( 19-C , 20-C ) :   1.5773 B( 19-C , 22-C ) :   1.0119
B( 22-C , 23-H ) :   0.9397 B( 22-C , 24-H ) :   0.9336 B( 22-C , 25-C ) :   1.0856
B( 25-C , 26-H ) :   0.9469 B( 25-C , 27-H ) :   0.9510 B( 25-C , 28-C ) :   1.0848
B( 28-C , 29-H ) :   0.9733 B( 28-C , 30-H ) :   0.9726 B( 28-C , 31-H ) :   0.9658

Dispersion correction           -0.014871027
FINAL SINGLE POINT ENERGY     -1339.881118513038

DIPOLE MOMENT
-------------
                                X             Y             Z
Electronic contribution:     -4.21995      16.27731      22.54070
Nuclear contribution   :      4.33082     -16.78686     -22.83490
                        -----------------------------------------
Total Dipole Moment    :      0.11088      -0.50955      -0.29420
                        -----------------------------------------
Magnitude (a.u.)       :      0.59874
Magnitude (Debye)      :      1.52186

Rotational constants in cm-1:     0.019389     0.008467     0.007073
Rotational constants in MHz :   581.254590   253.824573   212.054621

                             ****ORCA TERMINATED NORMALLY****
TOTAL RUN TIME: 0 days 0 hours 0 minutes 22 seconds 106 msec
