                         Program Version 4.2.1 -  RELEASE  -
|  1> ! wB97X-D3 SP def2-SVP
|  2> %pal
|  3> nprocs 24
|  4> end
|  5>
|  6> * xyz 0 1
|  7> S 	 -98.7203 	 8.18286 	 0.840253
|  8> C 	 -100.109 	 8.6677 	 -0.145378
|  9> C 	 -101.295 	 7.94466 	 0.149722
| 10> C 	 -101.035 	 7.09066 	 1.27518
| 11> C 	 -99.7685 	 7.13625 	 1.77034
| 12> H 	 -101.79 	 6.68302 	 1.86693
| 13> C 	 -102.634 	 8.26861 	 -0.420173
| 14> H 	 -102.999 	 7.38817 	 -1.00344
| 15> H 	 -102.468 	 9.15584 	 -1.0553
| 16> C 	 -103.812 	 8.72548 	 0.461378
| 17> H 	 -103.978 	 8.06801 	 1.26128
| 18> H 	 -103.51 	 9.66311 	 0.960603
| 19> C 	 -105.115 	 8.96416 	 -0.388742
| 20> H 	 -106.041 	 8.94516 	 0.132263
| 21> H 	 -105.005 	 9.93185 	 -0.9768
| 22> H 	 -105.237 	 8.2089 	 -1.22733
| 23> S 	 -100.014 	 6.51907 	 4.55179
| 24> C 	 -98.6281 	 5.8016 	 5.32208
| 25> C 	 -97.7167 	 5.40021 	 4.40015
| 26> C 	 -98.0978 	 5.67694 	 3.06471
| 27> C 	 -99.2349 	 6.46705 	 2.92803
| 28> H 	 -96.739 	 4.89519 	 4.65695
| 29> C 	 -97.2623 	 5.22941 	 1.92849
| 30> H 	 -96.2328 	 5.06552 	 2.35051
| 31> H 	 -97.151 	 5.97552 	 1.10862
| 32> C 	 -97.6397 	 3.94803 	 1.21463
| 33> H 	 -96.9384 	 3.79291 	 0.342756
| 34> H 	 -98.576 	 4.14827 	 0.710949
| 35> C 	 -97.8452 	 2.66503 	 2.00135
| 36> H 	 -97.0783 	 2.43986 	 2.73116
| 37> H 	 -97.9912 	 1.77356 	 1.4443
| 38> H 	 -98.7562 	 2.75836 	 2.65039
| 39> H 	 -100.055 	 9.38608 	 -0.977941
| 40> H 	 -98.5639 	 5.55784 	 6.32624
| 41> *
| 42>
| 43>                          ****END OF INPUT****

CARTESIAN COORDINATES (ANGSTROEM)
---------------------------------
  S    -98.720300    8.182860    0.840253
  C    -100.109000    8.667700   -0.145378
  C    -101.295000    7.944660    0.149722
  C    -101.035000    7.090660    1.275180
  C    -99.768500    7.136250    1.770340
  H    -101.790000    6.683020    1.866930
  C    -102.634000    8.268610   -0.420173
  H    -102.999000    7.388170   -1.003440
  H    -102.468000    9.155840   -1.055300
  C    -103.812000    8.725480    0.461378
  H    -103.978000    8.068010    1.261280
  H    -103.510000    9.663110    0.960603
  C    -105.115000    8.964160   -0.388742
  H    -106.041000    8.945160    0.132263
  H    -105.005000    9.931850   -0.976800
  H    -105.237000    8.208900   -1.227330
  S    -100.014000    6.519070    4.551790
  C    -98.628100    5.801600    5.322080
  C    -97.716700    5.400210    4.400150
  C    -98.097800    5.676940    3.064710
  C    -99.234900    6.467050    2.928030
  H    -96.739000    4.895190    4.656950
  C    -97.262300    5.229410    1.928490
  H    -96.232800    5.065520    2.350510
  H    -97.151000    5.975520    1.108620
  C    -97.639700    3.948030    1.214630
  H    -96.938400    3.792910    0.342756
  H    -98.576000    4.148270    0.710949
  C    -97.845200    2.665030    2.001350
  H    -97.078300    2.439860    2.731160
  H    -97.991200    1.773560    1.444300
  H    -98.756200    2.758360    2.650390
  H    -100.055000    9.386080   -0.977941
  H    -98.563900    5.557840    6.326240

 Total Charge           Charge          ....    0
 Multiplicity           Mult            ....    1
 Number of Electrons    NEL             ....  134
 Basis Dimension        Dim             ....  322

ORBITAL ENERGIES
----------------

  NO   OCC          E(Eh)            E(eV)
   0   2.0000     -88.971853     -2421.0472
   1   2.0000     -88.964674     -2420.8519
   2   2.0000     -10.328962      -281.0653
   3   2.0000     -10.328191      -281.0444
   4   2.0000     -10.322759      -280.8965
   5   2.0000     -10.312574      -280.6194
   6   2.0000     -10.307527      -280.4821
   7   2.0000     -10.298754      -280.2433
   8   2.0000     -10.298100      -280.2255
   9   2.0000     -10.294419      -280.1254
  10   2.0000     -10.290825      -280.0276
  11   2.0000     -10.290423      -280.0166
  12   2.0000     -10.290369      -280.0152
  13   2.0000     -10.289112      -279.9810
  14   2.0000     -10.282709      -279.8067
  15   2.0000     -10.270730      -279.4808
  16   2.0000      -8.085860      -220.0274
  17   2.0000      -8.078881      -219.8375
  18   2.0000      -6.044334      -164.4747
  19   2.0000      -6.040521      -164.3709
  20   2.0000      -6.037560      -164.2904
  21   2.0000      -6.036640      -164.2653
  22   2.0000      -6.033464      -164.1789
  23   2.0000      -6.029493      -164.0708
  24   2.0000      -1.007307       -27.4102
  25   2.0000      -0.984464       -26.7886
  26   2.0000      -0.913146       -24.8480
  27   2.0000      -0.908335       -24.7171
  28   2.0000      -0.870216       -23.6798
  29   2.0000      -0.851689       -23.1756
  30   2.0000      -0.844837       -22.9892
  31   2.0000      -0.816239       -22.2110
  32   2.0000      -0.784598       -21.3500
  33   2.0000      -0.771714       -20.9994
  34   2.0000      -0.717078       -19.5127
  35   2.0000      -0.700785       -19.0693
  36   2.0000      -0.686998       -18.6942
  37   2.0000      -0.666972       -18.1492
  38   2.0000      -0.639507       -17.4019
  39   2.0000      -0.621939       -16.9238
  40   2.0000      -0.593108       -16.1393
  41   2.0000      -0.571943       -15.5634
  42   2.0000      -0.565471       -15.3873
  43   2.0000      -0.549749       -14.9594
  44   2.0000      -0.545478       -14.8432
  45   2.0000      -0.528560       -14.3828
  46   2.0000      -0.513795       -13.9811
  47   2.0000      -0.502869       -13.6838
  48   2.0000      -0.498845       -13.5743
  49   2.0000      -0.493669       -13.4334
  50   2.0000      -0.489601       -13.3227
  51   2.0000      -0.481493       -13.1021
  52   2.0000      -0.474185       -12.9032
  53   2.0000      -0.469685       -12.7808
  54   2.0000      -0.461460       -12.5570
  55   2.0000      -0.453372       -12.3369
  56   2.0000      -0.445308       -12.1175
  57   2.0000      -0.433757       -11.8031
  58   2.0000      -0.430744       -11.7211
  59   2.0000      -0.424220       -11.5436
  60   2.0000      -0.422511       -11.4971
  61   2.0000      -0.420034       -11.4297
  62   2.0000      -0.400970       -10.9109
  63   2.0000      -0.346320        -9.4239
  64   2.0000      -0.333573        -9.0770
  65   2.0000      -0.329829        -8.9751
  66   2.0000      -0.291547        -7.9334
  67   0.0000       0.025300         0.6884
  68   0.0000       0.063535         1.7289
  69   0.0000       0.104232         2.8363
  70   0.0000       0.111593         3.0366
  71   0.0000       0.128289         3.4909

MULLIKEN ATOMIC CHARGES
-----------------------
   0 S :    0.122571
   1 C :   -0.132940
   2 C :   -0.071383
   3 C :    0.050128
   4 C :   -0.164485
   5 H :   -0.007281
   6 C :    0.027170
   7 H :    0.046472
   8 H :    0.022775
   9 C :   -0.052889
  10 H :    0.019441
  11 H :    0.035001
  12 C :   -0.078777
  13 H :    0.040378
  14 H :    0.041074
  15 H :    0.030893
  16 S :    0.094053
  17 C :   -0.054217
  18 C :   -0.045411
  19 C :   -0.038602
  20 C :   -0.130446
  21 H :    0.040592
  22 C :    0.038609
  23 H :    0.019132
  24 H :    0.033198
  25 C :   -0.070564
  26 H :    0.033943
  27 H :    0.023636
  28 C :   -0.041739
  29 H :    0.014719
  30 H :    0.028847
  31 H :    0.035619
  32 H :    0.056424
  33 H :    0.034057
Sum of atomic charges:    0.0000000

LOEWDIN ATOMIC CHARGES
----------------------
   0 S :    0.415060
   1 C :   -0.191276
   2 C :   -0.060344
   3 C :   -0.054201
   4 C :   -0.187018
   5 H :    0.021018
   6 C :   -0.039226
   7 H :    0.037623
   8 H :    0.034672
   9 C :   -0.036731
  10 H :    0.012084
  11 H :    0.029201
  12 C :   -0.070936
  13 H :    0.022446
  14 H :    0.033492
  15 H :    0.029357
  16 S :    0.384355
  17 C :   -0.171494
  18 C :   -0.076610
  19 C :   -0.063115
  20 C :   -0.185635
  21 H :    0.042413
  22 C :   -0.043179
  23 H :    0.030602
  24 H :    0.027689
  25 C :   -0.045321
  26 H :    0.029753
  27 H :    0.024141
  28 C :   -0.072021
  29 H :    0.018696
  30 H :    0.023402
  31 H :    0.033127
  32 H :    0.029100
  33 H :    0.018875

  Mayer bond orders larger than 0.100000
B(  0-S ,  1-C ) :   1.1430 B(  0-S ,  4-C ) :   1.1382 B(  1-C ,  2-C ) :   1.6112
B(  1-C , 32-H ) :   0.9593 B(  2-C ,  3-C ) :   1.2206 B(  2-C ,  6-C ) :   1.0411
B(  3-C ,  4-C ) :   1.6054 B(  3-C ,  5-H ) :   0.9948 B(  4-C , 20-C ) :   1.0630
B(  6-C ,  7-H ) :   0.9270 B(  6-C ,  8-H ) :   0.9475 B(  6-C ,  9-C ) :   1.0612
B(  9-C , 10-H ) :   0.9580 B(  9-C , 11-H ) :   0.9566 B(  9-C , 12-C ) :   1.0644
B( 12-C , 13-H ) :   0.9776 B( 12-C , 14-H ) :   0.9767 B( 12-C , 15-H ) :   0.9768
B( 16-S , 17-C ) :   1.1555 B( 16-S , 20-C ) :   1.1099 B( 17-C , 18-C ) :   1.6032
B( 17-C , 33-H ) :   0.9737 B( 18-C , 19-C ) :   1.2559 B( 18-C , 21-H ) :   0.9775
B( 19-C , 20-C ) :   1.5674 B( 19-C , 22-C ) :   1.0525 B( 22-C , 23-H ) :   0.9303
B( 22-C , 24-H ) :   0.9272 B( 22-C , 25-C ) :   1.0792 B( 25-C , 26-H ) :   0.9547
B( 25-C , 27-H ) :   0.9510 B( 25-C , 28-C ) :   1.0780 B( 28-C , 29-H ) :   0.9753
B( 28-C , 30-H ) :   0.9736 B( 28-C , 31-H ) :   0.9692

Dispersion correction           -0.014362239
FINAL SINGLE POINT ENERGY     -1339.875506291716

DIPOLE MOMENT
-------------
                                X             Y             Z
Electronic contribution:     10.33882       7.14800      12.07124
Nuclear contribution   :    -10.53723      -7.26498     -12.25057
                        -----------------------------------------
Total Dipole Moment    :     -0.19841      -0.11698      -0.17933
                        -----------------------------------------
Magnitude (a.u.)       :      0.29191
Magnitude (Debye)      :      0.74197

Rotational constants in cm-1:     0.021904     0.007341     0.006657
Rotational constants in MHz :   656.665415   220.070929   199.578738

                             ****ORCA TERMINATED NORMALLY****
TOTAL RUN TIME: 0 days 0 hours 0 minutes 20 seconds 295 msec
