                         Program Version 4.2.1 -  RELEASE  -
|  1> ! wB97X-D3 SP def2-SVP
|  2> %pal
|  3> nprocs 24
|  4> end
|  5>
|  6> * xyz 0 1
|  7> S 	 -59.7495 	 0.168092 	 -31.972
|  8> C 	 -60.5763 	 0.584443 	 -33.3896
|  9> C 	 -60.225 	 1.8653 	 -33.7759
| 10> C 	 -59.137 	 2.45136 	 -32.9938
| 11> C 	 -58.8625 	 1.69192 	 -31.8625
| 12> H 	 -58.5942 	 3.40649 	 -33.1413
| 13> C 	 -60.7914 	 2.59182 	 -34.9594
| 14> H 	 -61.4583 	 3.35243 	 -34.6007
| 15> H 	 -61.4166 	 1.83762 	 -35.4354
| 16> C 	 -59.878 	 3.29181 	 -35.9793
| 17> H 	 -60.4763 	 3.9434 	 -36.6426
| 18> H 	 -59.306 	 4.05807 	 -35.5054
| 19> C 	 -59.1042 	 2.40756 	 -36.8773
| 20> H 	 -58.1203 	 2.12977 	 -36.4791
| 21> H 	 -59.7792 	 1.67572 	 -37.3299
| 22> H 	 -58.8635 	 2.92521 	 -37.7714
| 23> S 	 -57.9606 	 3.23395 	 -29.7384
| 24> C 	 -56.3232 	 3.12156 	 -29.2355
| 25> C 	 -55.7143 	 2.14561 	 -30.0032
| 26> C 	 -56.4841 	 1.51029 	 -30.9918
| 27> C 	 -57.8101 	 1.86717 	 -30.8873
| 28> H 	 -54.7266 	 1.8614 	 -29.8425
| 29> C 	 -55.9086 	 0.506254 	 -32.0428
| 30> H 	 -54.8196 	 0.739011 	 -32.2343
| 31> H 	 -56.4701 	 0.590401 	 -32.9204
| 32> C 	 -55.9692 	 -0.990312 	 -31.6285
| 33> H 	 -56.9642 	 -1.39729 	 -31.5246
| 34> H 	 -55.508 	 -1.04764 	 -30.5966
| 35> C 	 -55.1003 	 -1.90825 	 -32.4724
| 36> H 	 -55.1785 	 -2.84816 	 -31.9574
| 37> H 	 -54.0952 	 -1.60365 	 -32.6604
| 38> H 	 -55.525 	 -2.05988 	 -33.4491
| 39> H 	 -61.2092 	 -0.0838857 	 -33.9871
| 40> H 	 -55.8375 	 3.82014 	 -28.4688
| 41> *
| 42>
| 43>                          ****END OF INPUT****

CARTESIAN COORDINATES (ANGSTROEM)
---------------------------------
  S    -59.749500    0.168092  -31.972000
  C    -60.576300    0.584443  -33.389600
  C    -60.225000    1.865300  -33.775900
  C    -59.137000    2.451360  -32.993800
  C    -58.862500    1.691920  -31.862500
  H    -58.594200    3.406490  -33.141300
  C    -60.791400    2.591820  -34.959400
  H    -61.458300    3.352430  -34.600700
  H    -61.416600    1.837620  -35.435400
  C    -59.878000    3.291810  -35.979300
  H    -60.476300    3.943400  -36.642600
  H    -59.306000    4.058070  -35.505400
  C    -59.104200    2.407560  -36.877300
  H    -58.120300    2.129770  -36.479100
  H    -59.779200    1.675720  -37.329900
  H    -58.863500    2.925210  -37.771400
  S    -57.960600    3.233950  -29.738400
  C    -56.323200    3.121560  -29.235500
  C    -55.714300    2.145610  -30.003200
  C    -56.484100    1.510290  -30.991800
  C    -57.810100    1.867170  -30.887300
  H    -54.726600    1.861400  -29.842500
  C    -55.908600    0.506254  -32.042800
  H    -54.819600    0.739011  -32.234300
  H    -56.470100    0.590401  -32.920400
  C    -55.969200   -0.990312  -31.628500
  H    -56.964200   -1.397290  -31.524600
  H    -55.508000   -1.047640  -30.596600
  C    -55.100300   -1.908250  -32.472400
  H    -55.178500   -2.848160  -31.957400
  H    -54.095200   -1.603650  -32.660400
  H    -55.525000   -2.059880  -33.449100
  H    -61.209200   -0.083886  -33.987100
  H    -55.837500    3.820140  -28.468800

 Total Charge           Charge          ....    0
 Multiplicity           Mult            ....    1
 Number of Electrons    NEL             ....  134
 Basis Dimension        Dim             ....  322

ORBITAL ENERGIES
----------------

  NO   OCC          E(Eh)            E(eV)
   0   2.0000     -88.963095     -2420.8089
   1   2.0000     -88.962513     -2420.7930
   2   2.0000     -10.327616      -281.0287
   3   2.0000     -10.323925      -280.9283
   4   2.0000     -10.323161      -280.9075
   5   2.0000     -10.312521      -280.6180
   6   2.0000     -10.303528      -280.3733
   7   2.0000     -10.301302      -280.3127
   8   2.0000     -10.299661      -280.2680
   9   2.0000     -10.294343      -280.1233
  10   2.0000     -10.285964      -279.8953
  11   2.0000     -10.285368      -279.8791
  12   2.0000     -10.284692      -279.8607
  13   2.0000     -10.282427      -279.7991
  14   2.0000     -10.270853      -279.4841
  15   2.0000     -10.268919      -279.4315
  16   2.0000      -8.077867      -219.8099
  17   2.0000      -8.077808      -219.8083
  18   2.0000      -6.036299      -164.2560
  19   2.0000      -6.036261      -164.2550
  20   2.0000      -6.032230      -164.1453
  21   2.0000      -6.032042      -164.1402
  22   2.0000      -6.028825      -164.0527
  23   2.0000      -6.028772      -164.0512
  24   2.0000      -1.007174       -27.4066
  25   2.0000      -0.986765       -26.8512
  26   2.0000      -0.914299       -24.8793
  27   2.0000      -0.903903       -24.5965
  28   2.0000      -0.874005       -23.7829
  29   2.0000      -0.851505       -23.1706
  30   2.0000      -0.849342       -23.1118
  31   2.0000      -0.812677       -22.1141
  32   2.0000      -0.784756       -21.3543
  33   2.0000      -0.773012       -21.0347
  34   2.0000      -0.709696       -19.3118
  35   2.0000      -0.692868       -18.8539
  36   2.0000      -0.687974       -18.7207
  37   2.0000      -0.661381       -17.9971
  38   2.0000      -0.640631       -17.4324
  39   2.0000      -0.614673       -16.7261
  40   2.0000      -0.597615       -16.2619
  41   2.0000      -0.567115       -15.4320
  42   2.0000      -0.564236       -15.3536
  43   2.0000      -0.557302       -15.1650
  44   2.0000      -0.544079       -14.8052
  45   2.0000      -0.527256       -14.3474
  46   2.0000      -0.519446       -14.1348
  47   2.0000      -0.514669       -14.0049
  48   2.0000      -0.503143       -13.6912
  49   2.0000      -0.501388       -13.6434
  50   2.0000      -0.490257       -13.3406
  51   2.0000      -0.477691       -12.9986
  52   2.0000      -0.474243       -12.9048
  53   2.0000      -0.465240       -12.6598
  54   2.0000      -0.463790       -12.6204
  55   2.0000      -0.445734       -12.1290
  56   2.0000      -0.440671       -11.9913
  57   2.0000      -0.435112       -11.8400
  58   2.0000      -0.432102       -11.7581
  59   2.0000      -0.422907       -11.5079
  60   2.0000      -0.416227       -11.3261
  61   2.0000      -0.410341       -11.1660
  62   2.0000      -0.404401       -11.0043
  63   2.0000      -0.339380        -9.2350
  64   2.0000      -0.326775        -8.8920
  65   2.0000      -0.318185        -8.6583
  66   2.0000      -0.308985        -8.4079
  67   0.0000       0.040121         1.0918
  68   0.0000       0.058808         1.6002
  69   0.0000       0.110358         3.0030
  70   0.0000       0.129741         3.5304
  71   0.0000       0.130546         3.5523

MULLIKEN ATOMIC CHARGES
-----------------------
   0 S :    0.108201
   1 C :   -0.117262
   2 C :   -0.108487
   3 C :    0.033840
   4 C :   -0.180603
   5 H :    0.033428
   6 C :    0.087773
   7 H :    0.034375
   8 H :   -0.000096
   9 C :   -0.078572
  10 H :    0.015154
  11 H :    0.012439
  12 C :    0.002850
  13 H :    0.042956
  14 H :    0.021462
  15 H :    0.005580
  16 S :    0.098301
  17 C :   -0.109999
  18 C :   -0.015961
  19 C :   -0.007201
  20 C :   -0.180694
  21 H :   -0.012605
  22 C :    0.099143
  23 H :    0.027616
  24 H :    0.021011
  25 C :   -0.101484
  26 H :    0.030490
  27 H :    0.025380
  28 C :   -0.014933
  29 H :    0.031775
  30 H :    0.024235
  31 H :    0.019324
  32 H :    0.059077
  33 H :    0.093486
Sum of atomic charges:   -0.0000000

LOEWDIN ATOMIC CHARGES
----------------------
   0 S :    0.424445
   1 C :   -0.220820
   2 C :   -0.067221
   3 C :   -0.059561
   4 C :   -0.197604
   5 H :    0.039685
   6 C :   -0.033317
   7 H :    0.034038
   8 H :    0.024959
   9 C :   -0.046525
  10 H :    0.029528
  11 H :    0.018382
  12 C :   -0.068551
  13 H :    0.030645
  14 H :    0.031168
  15 H :    0.023373
  16 S :    0.407917
  17 C :   -0.202135
  18 C :   -0.076462
  19 C :   -0.042448
  20 C :   -0.204453
  21 H :    0.017040
  22 C :   -0.022340
  23 H :    0.036440
  24 H :    0.022040
  25 C :   -0.040611
  26 H :    0.018842
  27 H :    0.026066
  28 C :   -0.061705
  29 H :    0.029754
  30 H :    0.019570
  31 H :    0.020999
  32 H :    0.036672
  33 H :    0.052190

  Mayer bond orders larger than 0.100000
B(  0-S ,  1-C ) :   1.1521 B(  0-S ,  4-C ) :   1.1534 B(  1-C ,  2-C ) :   1.6012
B(  1-C , 32-H ) :   0.9647 B(  2-C ,  3-C ) :   1.2206 B(  2-C ,  6-C ) :   1.0298
B(  3-C ,  4-C ) :   1.5932 B(  3-C ,  5-H ) :   0.9889 B(  4-C , 20-C ) :   1.0017
B(  6-C ,  7-H ) :   0.9284 B(  6-C ,  8-H ) :   0.9401 B(  6-C ,  9-C ) :   1.0857
B(  9-C , 10-H ) :   0.9490 B(  9-C , 11-H ) :   0.9454 B(  9-C , 12-C ) :   1.0941
B( 12-C , 13-H ) :   0.9728 B( 12-C , 14-H ) :   0.9659 B( 12-C , 15-H ) :   0.9655
B( 16-S , 17-C ) :   1.1782 B( 16-S , 20-C ) :   1.1399 B( 17-C , 18-C ) :   1.5592
B( 17-C , 20-C ) :   0.1028 B( 17-C , 33-H ) :   0.9594 B( 18-C , 19-C ) :   1.2848
B( 18-C , 21-H ) :   0.9987 B( 19-C , 20-C ) :   1.5723 B( 19-C , 22-C ) :   1.0362
B( 22-C , 23-H ) :   0.9393 B( 22-C , 24-H ) :   0.9258 B( 22-C , 25-C ) :   1.0673
B( 25-C , 26-H ) :   0.9498 B( 25-C , 27-H ) :   0.9596 B( 25-C , 28-C ) :   1.0859
B( 28-C , 29-H ) :   0.9725 B( 28-C , 30-H ) :   0.9745 B( 28-C , 31-H ) :   0.9725

Dispersion correction           -0.014513051
FINAL SINGLE POINT ENERGY     -1339.868951589385

DIPOLE MOMENT
-------------
                                X             Y             Z
Electronic contribution:     -8.19852       6.09466      21.88157
Nuclear contribution   :      8.56002      -5.95029     -22.50278
                        -----------------------------------------
Total Dipole Moment    :      0.36149       0.14437      -0.62120
                        -----------------------------------------
Magnitude (a.u.)       :      0.73309
Magnitude (Debye)      :      1.86336

Rotational constants in cm-1:     0.016767     0.008961     0.007483
Rotational constants in MHz :   502.676207   268.649633   224.330136

                             ****ORCA TERMINATED NORMALLY****
TOTAL RUN TIME: 0 days 0 hours 0 minutes 20 seconds 463 msec
