                         Program Version 4.2.1 -  RELEASE  -
|  1> ! wB97X-D3 SP def2-SVP
|  2> %pal
|  3> nprocs 24
|  4> end
|  5>
|  6> * xyz 0 1
|  7> S 	 -31.122 	 -48.4955 	 -76.8715
|  8> C 	 -29.5115 	 -48.8996 	 -77.4332
|  9> C 	 -28.5041 	 -48.2792 	 -76.6406
| 10> C 	 -29.0924 	 -47.4625 	 -75.5732
| 11> C 	 -30.4927 	 -47.3324 	 -75.7295
| 12> H 	 -28.409 	 -46.8949 	 -74.8911
| 13> C 	 -27.0198 	 -48.4528 	 -76.7401
| 14> H 	 -26.8138 	 -49.4209 	 -77.1205
| 15> H 	 -26.5992 	 -48.5632 	 -75.7148
| 16> C 	 -26.3278 	 -47.4001 	 -77.6155
| 17> H 	 -25.3047 	 -47.5685 	 -77.8507
| 18> H 	 -26.8617 	 -47.3649 	 -78.5547
| 19> C 	 -26.5542 	 -46.0118 	 -76.986
| 20> H 	 -27.6 	 -45.841 	 -76.8256
| 21> H 	 -26.0409 	 -45.9664 	 -76.0346
| 22> H 	 -26.0819 	 -45.2102 	 -77.6218
| 23> S 	 -32.904 	 -47.1147 	 -74.3306
| 24> C 	 -33.4265 	 -45.5587 	 -73.7957
| 25> C 	 -32.5389 	 -44.5684 	 -74.1023
| 26> C 	 -31.3032 	 -45.0594 	 -74.6161
| 27> C 	 -31.4402 	 -46.4217 	 -75.0012
| 28> H 	 -32.7206 	 -43.5268 	 -73.8559
| 29> C 	 -30.0976 	 -44.1655 	 -74.7987
| 30> H 	 -29.2751 	 -44.8116 	 -75.0622
| 31> H 	 -29.7642 	 -43.8428 	 -73.8127
| 32> C 	 -30.2152 	 -43.0875 	 -75.9135
| 33> H 	 -30.8133 	 -42.2654 	 -75.4754
| 34> H 	 -30.7366 	 -43.5054 	 -76.7548
| 35> C 	 -28.8607 	 -42.6525 	 -76.3424
| 36> H 	 -28.935 	 -42.1214 	 -77.2553
| 37> H 	 -28.1875 	 -43.4427 	 -76.6575
| 38> H 	 -28.4152 	 -41.9882 	 -75.6549
| 39> H 	 -29.2679 	 -49.7136 	 -78.1526
| 40> H 	 -34.4511 	 -45.3891 	 -73.5395
| 41> *
| 42>
| 43>                          ****END OF INPUT****

CARTESIAN COORDINATES (ANGSTROEM)
---------------------------------
  S    -31.122000  -48.495500  -76.871500
  C    -29.511500  -48.899600  -77.433200
  C    -28.504100  -48.279200  -76.640600
  C    -29.092400  -47.462500  -75.573200
  C    -30.492700  -47.332400  -75.729500
  H    -28.409000  -46.894900  -74.891100
  C    -27.019800  -48.452800  -76.740100
  H    -26.813800  -49.420900  -77.120500
  H    -26.599200  -48.563200  -75.714800
  C    -26.327800  -47.400100  -77.615500
  H    -25.304700  -47.568500  -77.850700
  H    -26.861700  -47.364900  -78.554700
  C    -26.554200  -46.011800  -76.986000
  H    -27.600000  -45.841000  -76.825600
  H    -26.040900  -45.966400  -76.034600
  H    -26.081900  -45.210200  -77.621800
  S    -32.904000  -47.114700  -74.330600
  C    -33.426500  -45.558700  -73.795700
  C    -32.538900  -44.568400  -74.102300
  C    -31.303200  -45.059400  -74.616100
  C    -31.440200  -46.421700  -75.001200
  H    -32.720600  -43.526800  -73.855900
  C    -30.097600  -44.165500  -74.798700
  H    -29.275100  -44.811600  -75.062200
  H    -29.764200  -43.842800  -73.812700
  C    -30.215200  -43.087500  -75.913500
  H    -30.813300  -42.265400  -75.475400
  H    -30.736600  -43.505400  -76.754800
  C    -28.860700  -42.652500  -76.342400
  H    -28.935000  -42.121400  -77.255300
  H    -28.187500  -43.442700  -76.657500
  H    -28.415200  -41.988200  -75.654900
  H    -29.267900  -49.713600  -78.152600
  H    -34.451100  -45.389100  -73.539500

 Total Charge           Charge          ....    0
 Multiplicity           Mult            ....    1
 Number of Electrons    NEL             ....  134
 Basis Dimension        Dim             ....  322

ORBITAL ENERGIES
----------------

  NO   OCC          E(Eh)            E(eV)
   0   2.0000     -88.970912     -2421.0216
   1   2.0000     -88.964658     -2420.8514
   2   2.0000     -10.338532      -281.3258
   3   2.0000     -10.331892      -281.1451
   4   2.0000     -10.321658      -280.8666
   5   2.0000     -10.310595      -280.5656
   6   2.0000     -10.307941      -280.4933
   7   2.0000     -10.304823      -280.4085
   8   2.0000     -10.304782      -280.4074
   9   2.0000     -10.291099      -280.0350
  10   2.0000     -10.291038      -280.0334
  11   2.0000     -10.287409      -279.9346
  12   2.0000     -10.285255      -279.8760
  13   2.0000     -10.283934      -279.8401
  14   2.0000     -10.275951      -279.6228
  15   2.0000     -10.266088      -279.3544
  16   2.0000      -8.085275      -220.0115
  17   2.0000      -8.079888      -219.8649
  18   2.0000      -6.043813      -164.4605
  19   2.0000      -6.039839      -164.3524
  20   2.0000      -6.038290      -164.3102
  21   2.0000      -6.036033      -164.2488
  22   2.0000      -6.034362      -164.2033
  23   2.0000      -6.030717      -164.1042
  24   2.0000      -1.002163       -27.2702
  25   2.0000      -0.980859       -26.6905
  26   2.0000      -0.916191       -24.9308
  27   2.0000      -0.912433       -24.8286
  28   2.0000      -0.861030       -23.4298
  29   2.0000      -0.856392       -23.3036
  30   2.0000      -0.841932       -22.9101
  31   2.0000      -0.811931       -22.0938
  32   2.0000      -0.784186       -21.3388
  33   2.0000      -0.769661       -20.9435
  34   2.0000      -0.705684       -19.2026
  35   2.0000      -0.705086       -19.1864
  36   2.0000      -0.691594       -18.8192
  37   2.0000      -0.656708       -17.8699
  38   2.0000      -0.632208       -17.2032
  39   2.0000      -0.619476       -16.8568
  40   2.0000      -0.599000       -16.2996
  41   2.0000      -0.573526       -15.6064
  42   2.0000      -0.571515       -15.5517
  43   2.0000      -0.550035       -14.9672
  44   2.0000      -0.540484       -14.7073
  45   2.0000      -0.528892       -14.3919
  46   2.0000      -0.510657       -13.8957
  47   2.0000      -0.509275       -13.8581
  48   2.0000      -0.502331       -13.6691
  49   2.0000      -0.494195       -13.4477
  50   2.0000      -0.492019       -13.3885
  51   2.0000      -0.483306       -13.1514
  52   2.0000      -0.470467       -12.8021
  53   2.0000      -0.466010       -12.6808
  54   2.0000      -0.456482       -12.4215
  55   2.0000      -0.449892       -12.2422
  56   2.0000      -0.442931       -12.0528
  57   2.0000      -0.435822       -11.8593
  58   2.0000      -0.433239       -11.7890
  59   2.0000      -0.430447       -11.7131
  60   2.0000      -0.425365       -11.5748
  61   2.0000      -0.416453       -11.3323
  62   2.0000      -0.413202       -11.2438
  63   2.0000      -0.345319        -9.3966
  64   2.0000      -0.330534        -8.9943
  65   2.0000      -0.327939        -8.9237
  66   2.0000      -0.287596        -7.8259
  67   0.0000       0.024112         0.6561
  68   0.0000       0.071384         1.9425
  69   0.0000       0.106462         2.8970
  70   0.0000       0.118414         3.2222
  71   0.0000       0.122302         3.3280

MULLIKEN ATOMIC CHARGES
-----------------------
   0 S :    0.117483
   1 C :   -0.115211
   2 C :   -0.160705
   3 C :    0.023666
   4 C :   -0.152820
   5 H :    0.045299
   6 C :    0.063565
   7 H :    0.005352
   8 H :    0.033765
   9 C :   -0.010107
  10 H :    0.027111
  11 H :    0.022644
  12 C :   -0.107108
  13 H :    0.062406
  14 H :    0.021626
  15 H :    0.043106
  16 S :    0.101336
  17 C :   -0.078296
  18 C :   -0.028834
  19 C :   -0.075905
  20 C :   -0.141581
  21 H :    0.020222
  22 C :    0.104349
  23 H :   -0.033271
  24 H :    0.029829
  25 C :   -0.056882
  26 H :    0.033863
  27 H :    0.034966
  28 C :   -0.007108
  29 H :    0.012384
  30 H :    0.021632
  31 H :    0.023610
  32 H :    0.063917
  33 H :    0.055700
Sum of atomic charges:    0.0000000

LOEWDIN ATOMIC CHARGES
----------------------
   0 S :    0.413683
   1 C :   -0.212510
   2 C :   -0.059525
   3 C :   -0.070621
   4 C :   -0.193556
   5 H :    0.037396
   6 C :   -0.036946
   7 H :    0.023589
   8 H :    0.035920
   9 C :   -0.030459
  10 H :    0.019576
  11 H :    0.025827
  12 C :   -0.068093
  13 H :    0.020115
  14 H :    0.018990
  15 H :    0.030075
  16 S :    0.408938
  17 C :   -0.191317
  18 C :   -0.068242
  19 C :   -0.050504
  20 C :   -0.202021
  21 H :    0.032566
  22 C :   -0.035554
  23 H :    0.021867
  24 H :    0.033745
  25 C :   -0.031068
  26 H :    0.027300
  27 H :    0.027700
  28 C :   -0.062732
  29 H :    0.024368
  30 H :    0.028675
  31 H :    0.021255
  32 H :    0.036819
  33 H :    0.024742

  Mayer bond orders larger than 0.100000
B(  0-S ,  1-C ) :   1.1366 B(  0-S ,  4-C ) :   1.1717 B(  1-C ,  2-C ) :   1.6066
B(  1-C , 32-H ) :   0.9599 B(  2-C ,  3-C ) :   1.2503 B(  2-C ,  6-C ) :   1.0275
B(  3-C ,  4-C ) :   1.5373 B(  3-C ,  5-H ) :   0.9738 B(  4-C , 20-C ) :   1.0230
B(  6-C ,  7-H ) :   0.9343 B(  6-C ,  8-H ) :   0.9470 B(  6-C ,  9-C ) :   1.0594
B(  9-C , 10-H ) :   0.9579 B(  9-C , 11-H ) :   0.9514 B(  9-C , 12-C ) :   1.0809
B( 12-C , 13-H ) :   0.9654 B( 12-C , 14-H ) :   0.9730 B( 12-C , 15-H ) :   0.9712
B( 16-S , 17-C ) :   1.1547 B( 16-S , 20-C ) :   1.1573 B( 17-C , 18-C ) :   1.6132
B( 17-C , 33-H ) :   0.9645 B( 18-C , 19-C ) :   1.2485 B( 18-C , 21-H ) :   0.9888
B( 19-C , 20-C ) :   1.5696 B( 19-C , 22-C ) :   1.0565 B( 22-C , 23-H ) :   0.9237
B( 22-C , 24-H ) :   0.9195 B( 22-C , 25-C ) :   1.0538 B( 25-C , 26-H ) :   0.9509
B( 25-C , 27-H ) :   0.9564 B( 25-C , 28-C ) :   1.1079 B( 28-C , 29-H ) :   0.9644
B( 28-C , 30-H ) :   0.9668 B( 28-C , 31-H ) :   0.9705

Dispersion correction           -0.015490251
FINAL SINGLE POINT ENERGY     -1339.876080887551

DIPOLE MOMENT
-------------
                                X             Y             Z
Electronic contribution:    -25.15640     -17.78062       6.31596
Nuclear contribution   :     25.71423      18.16880      -6.39869
                        -----------------------------------------
Total Dipole Moment    :      0.55783       0.38818      -0.08273
                        -----------------------------------------
Magnitude (a.u.)       :      0.68461
Magnitude (Debye)      :      1.74015

Rotational constants in cm-1:     0.017390     0.010642     0.007141
Rotational constants in MHz :   521.339627   319.045106   214.092580

                             ****ORCA TERMINATED NORMALLY****
TOTAL RUN TIME: 0 days 0 hours 0 minutes 22 seconds 962 msec
