                         Program Version 4.2.1 -  RELEASE  -
|  1> ! wB97X-D3 SP def2-SVP
|  2> %pal
|  3> nprocs 24
|  4> end
|  5>
|  6> * xyz 0 1
|  7> S 	 -100.838 	 12.3537 	 -118.839
|  8> C 	 -99.3848 	 12.0918 	 -117.894
|  9> C 	 -99.5608 	 12.386 	 -116.556
| 10> C 	 -100.713 	 13.2104 	 -116.419
| 11> C 	 -101.491 	 13.3498 	 -117.519
| 12> H 	 -100.933 	 13.7391 	 -115.53
| 13> C 	 -98.5694 	 12.1004 	 -115.469
| 14> H 	 -97.8686 	 11.3953 	 -115.907
| 15> H 	 -99.1912 	 11.705 	 -114.705
| 16> C 	 -97.8489 	 13.1883 	 -114.719
| 17> H 	 -97.2711 	 13.7489 	 -115.42
| 18> H 	 -98.5037 	 13.8336 	 -114.232
| 19> C 	 -96.9257 	 12.5773 	 -113.627
| 20> H 	 -96.5207 	 11.661 	 -113.918
| 21> H 	 -96.0889 	 13.2357 	 -113.468
| 22> H 	 -97.4673 	 12.3759 	 -112.738
| 23> S 	 -102.639 	 15.8377 	 -117.745
| 24> C 	 -104.209 	 15.9928 	 -118.42
| 25> C 	 -104.789 	 14.7644 	 -118.381
| 26> C 	 -103.973 	 13.7014 	 -117.931
| 27> C 	 -102.699 	 14.137 	 -117.579
| 28> H 	 -105.771 	 14.585 	 -118.69
| 29> C 	 -104.501 	 12.2694 	 -117.714
| 30> H 	 -104.014 	 11.6671 	 -118.482
| 31> H 	 -105.538 	 12.2008 	 -118.035
| 32> C 	 -104.243 	 11.7846 	 -116.219
| 33> H 	 -104.798 	 12.5239 	 -115.552
| 34> H 	 -103.238 	 11.8675 	 -115.883
| 35> C 	 -104.851 	 10.3533 	 -116.039
| 36> H 	 -104.449 	 9.59128 	 -116.73
| 37> H 	 -105.883 	 10.3741 	 -116.354
| 38> H 	 -104.867 	 10.0235 	 -115.044
| 39> H 	 -98.6178 	 11.3676 	 -118.231
| 40> H 	 -104.782 	 16.8908 	 -118.723
| 41> *
| 42>
| 43>                          ****END OF INPUT****

CARTESIAN COORDINATES (ANGSTROEM)
---------------------------------
  S    -100.838000   12.353700  -118.839000
  C    -99.384800   12.091800  -117.894000
  C    -99.560800   12.386000  -116.556000
  C    -100.713000   13.210400  -116.419000
  C    -101.491000   13.349800  -117.519000
  H    -100.933000   13.739100  -115.530000
  C    -98.569400   12.100400  -115.469000
  H    -97.868600   11.395300  -115.907000
  H    -99.191200   11.705000  -114.705000
  C    -97.848900   13.188300  -114.719000
  H    -97.271100   13.748900  -115.420000
  H    -98.503700   13.833600  -114.232000
  C    -96.925700   12.577300  -113.627000
  H    -96.520700   11.661000  -113.918000
  H    -96.088900   13.235700  -113.468000
  H    -97.467300   12.375900  -112.738000
  S    -102.639000   15.837700  -117.745000
  C    -104.209000   15.992800  -118.420000
  C    -104.789000   14.764400  -118.381000
  C    -103.973000   13.701400  -117.931000
  C    -102.699000   14.137000  -117.579000
  H    -105.771000   14.585000  -118.690000
  C    -104.501000   12.269400  -117.714000
  H    -104.014000   11.667100  -118.482000
  H    -105.538000   12.200800  -118.035000
  C    -104.243000   11.784600  -116.219000
  H    -104.798000   12.523900  -115.552000
  H    -103.238000   11.867500  -115.883000
  C    -104.851000   10.353300  -116.039000
  H    -104.449000    9.591280  -116.730000
  H    -105.883000   10.374100  -116.354000
  H    -104.867000   10.023500  -115.044000
  H    -98.617800   11.367600  -118.231000
  H    -104.782000   16.890800  -118.723000

 Total Charge           Charge          ....    0
 Multiplicity           Mult            ....    1
 Number of Electrons    NEL             ....  134
 Basis Dimension        Dim             ....  322

ORBITAL ENERGIES
----------------

  NO   OCC          E(Eh)            E(eV)
   0   2.0000     -88.964448     -2420.8457
   1   2.0000     -88.962419     -2420.7905
   2   2.0000     -10.325400      -280.9684
   3   2.0000     -10.316016      -280.7131
   4   2.0000     -10.314669      -280.6764
   5   2.0000     -10.313846      -280.6540
   6   2.0000     -10.298061      -280.2245
   7   2.0000     -10.296947      -280.1942
   8   2.0000     -10.294372      -280.1241
   9   2.0000     -10.291904      -280.0569
  10   2.0000     -10.286728      -279.9161
  11   2.0000     -10.286315      -279.9048
  12   2.0000     -10.281829      -279.7828
  13   2.0000     -10.279471      -279.7186
  14   2.0000     -10.272262      -279.5225
  15   2.0000     -10.270933      -279.4863
  16   2.0000      -8.078680      -219.8321
  17   2.0000      -8.078365      -219.8235
  18   2.0000      -6.037265      -164.2823
  19   2.0000      -6.036807      -164.2699
  20   2.0000      -6.033458      -164.1787
  21   2.0000      -6.032464      -164.1517
  22   2.0000      -6.029330      -164.0664
  23   2.0000      -6.029190      -164.0626
  24   2.0000      -1.012459       -27.5504
  25   2.0000      -0.989194       -26.9173
  26   2.0000      -0.919629       -25.0244
  27   2.0000      -0.897033       -24.4095
  28   2.0000      -0.873907       -23.7802
  29   2.0000      -0.851314       -23.1654
  30   2.0000      -0.844175       -22.9712
  31   2.0000      -0.818189       -22.2641
  32   2.0000      -0.783294       -21.3145
  33   2.0000      -0.768999       -20.9255
  34   2.0000      -0.714567       -19.4444
  35   2.0000      -0.706104       -19.2141
  36   2.0000      -0.693762       -18.8782
  37   2.0000      -0.662965       -18.0402
  38   2.0000      -0.638745       -17.3811
  39   2.0000      -0.623175       -16.9574
  40   2.0000      -0.592414       -16.1204
  41   2.0000      -0.584127       -15.8949
  42   2.0000      -0.568665       -15.4742
  43   2.0000      -0.550193       -14.9715
  44   2.0000      -0.531262       -14.4564
  45   2.0000      -0.523001       -14.2316
  46   2.0000      -0.516445       -14.0532
  47   2.0000      -0.511942       -13.9306
  48   2.0000      -0.505437       -13.7537
  49   2.0000      -0.496233       -13.5032
  50   2.0000      -0.488087       -13.2815
  51   2.0000      -0.483650       -13.1608
  52   2.0000      -0.470677       -12.8078
  53   2.0000      -0.467871       -12.7314
  54   2.0000      -0.458473       -12.4757
  55   2.0000      -0.450128       -12.2486
  56   2.0000      -0.444412       -12.0931
  57   2.0000      -0.440885       -11.9971
  58   2.0000      -0.433399       -11.7934
  59   2.0000      -0.430320       -11.7096
  60   2.0000      -0.420073       -11.4308
  61   2.0000      -0.414681       -11.2841
  62   2.0000      -0.413078       -11.2404
  63   2.0000      -0.340199        -9.2573
  64   2.0000      -0.330262        -8.9869
  65   2.0000      -0.321545        -8.7497
  66   2.0000      -0.300497        -8.1769
  67   0.0000       0.039006         1.0614
  68   0.0000       0.055455         1.5090
  69   0.0000       0.104926         2.8552
  70   0.0000       0.131777         3.5858
  71   0.0000       0.132539         3.6066

MULLIKEN ATOMIC CHARGES
-----------------------
   0 S :    0.111547
   1 C :   -0.135945
   2 C :   -0.077852
   3 C :    0.017909
   4 C :   -0.110383
   5 H :   -0.005139
   6 C :    0.074481
   7 H :    0.015680
   8 H :    0.017373
   9 C :   -0.033074
  10 H :    0.021546
  11 H :    0.013747
  12 C :   -0.014420
  13 H :    0.006657
  14 H :    0.032651
  15 H :    0.025937
  16 S :    0.121444
  17 C :   -0.094932
  18 C :   -0.013809
  19 C :   -0.081637
  20 C :   -0.181461
  21 H :   -0.012048
  22 C :    0.090557
  23 H :    0.026302
  24 H :    0.009426
  25 C :   -0.080543
  26 H :    0.038012
  27 H :    0.038486
  28 C :   -0.019850
  29 H :    0.033024
  30 H :    0.012181
  31 H :    0.026188
  32 H :    0.058348
  33 H :    0.069594
Sum of atomic charges:   -0.0000000

LOEWDIN ATOMIC CHARGES
----------------------
   0 S :    0.388336
   1 C :   -0.197793
   2 C :   -0.061540
   3 C :   -0.055891
   4 C :   -0.180265
   5 H :    0.023191
   6 C :   -0.031562
   7 H :    0.030445
   8 H :    0.032173
   9 C :   -0.025755
  10 H :    0.019431
  11 H :    0.015441
  12 C :   -0.049780
  13 H :    0.015299
  14 H :    0.028908
  15 H :    0.022105
  16 S :    0.445093
  17 C :   -0.202557
  18 C :   -0.075310
  19 C :   -0.055625
  20 C :   -0.227355
  21 H :    0.018497
  22 C :   -0.029441
  23 H :    0.028739
  24 H :    0.027215
  25 C :   -0.030463
  26 H :    0.032325
  27 H :    0.019093
  28 C :   -0.066654
  29 H :    0.029105
  30 H :    0.022677
  31 H :    0.017583
  32 H :    0.029898
  33 H :    0.044438

  Mayer bond orders larger than 0.100000
B(  0-S ,  1-C ) :   1.1375 B(  0-S ,  4-C ) :   1.1131 B(  1-C ,  2-C ) :   1.6263
B(  1-C , 32-H ) :   0.9541 B(  2-C ,  3-C ) :   1.2063 B(  2-C ,  6-C ) :   1.0398
B(  3-C ,  4-C ) :   1.5994 B(  3-C ,  5-H ) :   1.0029 B(  4-C , 20-C ) :   1.0509
B(  6-C ,  7-H ) :   0.9357 B(  6-C ,  8-H ) :   0.9255 B(  6-C ,  9-C ) :   1.0830
B(  9-C , 10-H ) :   0.9573 B(  9-C , 11-H ) :   0.9507 B(  9-C , 12-C ) :   1.0787
B( 12-C , 13-H ) :   0.9750 B( 12-C , 14-H ) :   0.9750 B( 12-C , 15-H ) :   0.9766
B( 16-S , 17-C ) :   1.1784 B( 16-S , 20-C ) :   1.1615 B( 17-C , 18-C ) :   1.5540
B( 17-C , 33-H ) :   0.9638 B( 18-C , 19-C ) :   1.3121 B( 18-C , 21-H ) :   0.9954
B( 19-C , 20-C ) :   1.5317 B( 19-C , 22-C ) :   1.0314 B( 22-C , 23-H ) :   0.9252
B( 22-C , 24-H ) :   0.9399 B( 22-C , 25-C ) :   1.0420 B( 25-C , 26-H ) :   0.9572
B( 25-C , 27-H ) :   0.9606 B( 25-C , 28-C ) :   1.0756 B( 28-C , 29-H ) :   0.9756
B( 28-C , 30-H ) :   0.9724 B( 28-C , 31-H ) :   0.9758

Dispersion correction           -0.014408790
FINAL SINGLE POINT ENERGY     -1339.862295147069

DIPOLE MOMENT
-------------
                                X             Y             Z
Electronic contribution:     -4.38659      14.19126     -18.37159
Nuclear contribution   :      4.31080     -14.47082      18.78519
                        -----------------------------------------
Total Dipole Moment    :     -0.07580      -0.27956       0.41360
                        -----------------------------------------
Magnitude (a.u.)       :      0.50494
Magnitude (Debye)      :      1.28345

Rotational constants in cm-1:     0.018882     0.008031     0.007014
Rotational constants in MHz :   566.054424   240.777384   210.276320

                             ****ORCA TERMINATED NORMALLY****
TOTAL RUN TIME: 0 days 0 hours 0 minutes 21 seconds 542 msec
