                         Program Version 4.2.1 -  RELEASE  -
|  1> ! wB97X-D3 SP def2-SVP
|  2> %pal
|  3> nprocs 24
|  4> end
|  5>
|  6> * xyz 0 1
|  7> S 	 -112.111 	 63.3136 	 -66.7429
|  8> C 	 -110.989 	 62.0845 	 -66.1381
|  9> C 	 -111.51 	 61.3797 	 -65.0886
| 10> C 	 -112.837 	 61.7442 	 -64.866
| 11> C 	 -113.32 	 62.8228 	 -65.5975
| 12> H 	 -113.433 	 61.3068 	 -64.0354
| 13> C 	 -110.745 	 60.3362 	 -64.2187
| 14> H 	 -110.691 	 59.4325 	 -64.7499
| 15> H 	 -111.462 	 60.3107 	 -63.4137
| 16> C 	 -109.235 	 60.63 	 -63.8374
| 17> H 	 -108.619 	 60.7261 	 -64.735
| 18> H 	 -109.022 	 61.6392 	 -63.4653
| 19> C 	 -108.562 	 59.6775 	 -62.8855
| 20> H 	 -108.233 	 58.8322 	 -63.4575
| 21> H 	 -107.603 	 60.0733 	 -62.4418
| 22> H 	 -109.196 	 59.299 	 -62.0942
| 23> S 	 -114.592 	 65.1732 	 -65.1531
| 24> C 	 -116.296 	 65.3619 	 -65.2401
| 25> C 	 -116.838 	 64.1092 	 -65.5015
| 26> C 	 -115.898 	 63.0247 	 -65.6605
| 27> C 	 -114.591 	 63.4868 	 -65.555
| 28> H 	 -117.945 	 64.0078 	 -65.6424
| 29> C 	 -116.354 	 61.6057 	 -65.8797
| 30> H 	 -117.022 	 61.5113 	 -65.0498
| 31> H 	 -115.605 	 60.8233 	 -65.9181
| 32> C 	 -117.098 	 61.5292 	 -67.1606
| 33> H 	 -117.995 	 62.1834 	 -67.1431
| 34> H 	 -117.572 	 60.5115 	 -67.1229
| 35> C 	 -116.264 	 61.7319 	 -68.417
| 36> H 	 -115.372 	 61.1676 	 -68.2772
| 37> H 	 -116.087 	 62.7783 	 -68.4896
| 38> H 	 -116.81 	 61.4149 	 -69.3247
| 39> H 	 -109.951 	 62.0856 	 -66.3606
| 40> H 	 -116.888 	 66.181 	 -65.0822
| 41> *
| 42>
| 43>                          ****END OF INPUT****

CARTESIAN COORDINATES (ANGSTROEM)
---------------------------------
  S    -112.111000   63.313600  -66.742900
  C    -110.989000   62.084500  -66.138100
  C    -111.510000   61.379700  -65.088600
  C    -112.837000   61.744200  -64.866000
  C    -113.320000   62.822800  -65.597500
  H    -113.433000   61.306800  -64.035400
  C    -110.745000   60.336200  -64.218700
  H    -110.691000   59.432500  -64.749900
  H    -111.462000   60.310700  -63.413700
  C    -109.235000   60.630000  -63.837400
  H    -108.619000   60.726100  -64.735000
  H    -109.022000   61.639200  -63.465300
  C    -108.562000   59.677500  -62.885500
  H    -108.233000   58.832200  -63.457500
  H    -107.603000   60.073300  -62.441800
  H    -109.196000   59.299000  -62.094200
  S    -114.592000   65.173200  -65.153100
  C    -116.296000   65.361900  -65.240100
  C    -116.838000   64.109200  -65.501500
  C    -115.898000   63.024700  -65.660500
  C    -114.591000   63.486800  -65.555000
  H    -117.945000   64.007800  -65.642400
  C    -116.354000   61.605700  -65.879700
  H    -117.022000   61.511300  -65.049800
  H    -115.605000   60.823300  -65.918100
  C    -117.098000   61.529200  -67.160600
  H    -117.995000   62.183400  -67.143100
  H    -117.572000   60.511500  -67.122900
  C    -116.264000   61.731900  -68.417000
  H    -115.372000   61.167600  -68.277200
  H    -116.087000   62.778300  -68.489600
  H    -116.810000   61.414900  -69.324700
  H    -109.951000   62.085600  -66.360600
  H    -116.888000   66.181000  -65.082200

 Total Charge           Charge          ....    0
 Multiplicity           Mult            ....    1
 Number of Electrons    NEL             ....  134
 Basis Dimension        Dim             ....  322

ORBITAL ENERGIES
----------------

  NO   OCC          E(Eh)            E(eV)
   0   2.0000     -88.965533     -2420.8752
   1   2.0000     -88.962684     -2420.7977
   2   2.0000     -10.327805      -281.0339
   3   2.0000     -10.322246      -280.8826
   4   2.0000     -10.312445      -280.6159
   5   2.0000     -10.308089      -280.4974
   6   2.0000     -10.303636      -280.3762
   7   2.0000     -10.298784      -280.2441
   8   2.0000     -10.298519      -280.2370
   9   2.0000     -10.297409      -280.2067
  10   2.0000     -10.294220      -280.1200
  11   2.0000     -10.291643      -280.0498
  12   2.0000     -10.285614      -279.8858
  13   2.0000     -10.281457      -279.7727
  14   2.0000     -10.279984      -279.7326
  15   2.0000     -10.268526      -279.4208
  16   2.0000      -8.080221      -219.8740
  17   2.0000      -8.078233      -219.8199
  18   2.0000      -6.038646      -164.3199
  19   2.0000      -6.036747      -164.2682
  20   2.0000      -6.034694      -164.2124
  21   2.0000      -6.032442      -164.1511
  22   2.0000      -6.031105      -164.1147
  23   2.0000      -6.029097      -164.0601
  24   2.0000      -1.011124       -27.5141
  25   2.0000      -0.987965       -26.8839
  26   2.0000      -0.921590       -25.0777
  27   2.0000      -0.908356       -24.7176
  28   2.0000      -0.874012       -23.7831
  29   2.0000      -0.851862       -23.1804
  30   2.0000      -0.843098       -22.9419
  31   2.0000      -0.813285       -22.1306
  32   2.0000      -0.787563       -21.4307
  33   2.0000      -0.778991       -21.1974
  34   2.0000      -0.713067       -19.4035
  35   2.0000      -0.703542       -19.1444
  36   2.0000      -0.693018       -18.8580
  37   2.0000      -0.654919       -17.8213
  38   2.0000      -0.639382       -17.3985
  39   2.0000      -0.621054       -16.8997
  40   2.0000      -0.606869       -16.5137
  41   2.0000      -0.568268       -15.4633
  42   2.0000      -0.562963       -15.3190
  43   2.0000      -0.561171       -15.2703
  44   2.0000      -0.537626       -14.6296
  45   2.0000      -0.524388       -14.2693
  46   2.0000      -0.522630       -14.2215
  47   2.0000      -0.513403       -13.9704
  48   2.0000      -0.508019       -13.8239
  49   2.0000      -0.504256       -13.7215
  50   2.0000      -0.488980       -13.3058
  51   2.0000      -0.479595       -13.0504
  52   2.0000      -0.474481       -12.9113
  53   2.0000      -0.470601       -12.8057
  54   2.0000      -0.461976       -12.5710
  55   2.0000      -0.451896       -12.2967
  56   2.0000      -0.442824       -12.0499
  57   2.0000      -0.438327       -11.9275
  58   2.0000      -0.432293       -11.7633
  59   2.0000      -0.423471       -11.5232
  60   2.0000      -0.420180       -11.4337
  61   2.0000      -0.410828       -11.1792
  62   2.0000      -0.400928       -10.9098
  63   2.0000      -0.341929        -9.3044
  64   2.0000      -0.336048        -9.1443
  65   2.0000      -0.324629        -8.8336
  66   2.0000      -0.296979        -8.0812
  67   0.0000       0.033057         0.8995
  68   0.0000       0.070322         1.9136
  69   0.0000       0.120165         3.2699
  70   0.0000       0.121254         3.2995
  71   0.0000       0.133537         3.6337

MULLIKEN ATOMIC CHARGES
-----------------------
   0 S :    0.114313
   1 C :   -0.121107
   2 C :   -0.108006
   3 C :    0.020694
   4 C :   -0.168005
   5 H :    0.020323
   6 C :    0.136957
   7 H :    0.035584
   8 H :    0.018406
   9 C :   -0.101095
  10 H :    0.021391
  11 H :    0.023626
  12 C :   -0.046645
  13 H :    0.021081
  14 H :    0.040920
  15 H :    0.035613
  16 S :    0.114046
  17 C :   -0.041318
  18 C :   -0.086475
  19 C :   -0.037622
  20 C :   -0.178491
  21 H :    0.034816
  22 C :    0.126891
  23 H :    0.026060
  24 H :    0.024823
  25 C :   -0.135171
  26 H :    0.021104
  27 H :    0.021912
  28 C :    0.002209
  29 H :    0.026530
  30 H :    0.037220
  31 H :    0.038944
  32 H :    0.037177
  33 H :    0.023296
Sum of atomic charges:   -0.0000000

LOEWDIN ATOMIC CHARGES
----------------------
   0 S :    0.411429
   1 C :   -0.188682
   2 C :   -0.065368
   3 C :   -0.071536
   4 C :   -0.201814
   5 H :    0.034779
   6 C :   -0.013662
   7 H :    0.029611
   8 H :    0.029225
   9 C :   -0.050555
  10 H :    0.024103
  11 H :    0.024151
  12 C :   -0.067744
  13 H :    0.021086
  14 H :    0.036674
  15 H :    0.025070
  16 S :    0.429864
  17 C :   -0.185246
  18 C :   -0.078872
  19 C :   -0.051600
  20 C :   -0.218265
  21 H :    0.034169
  22 C :   -0.027549
  23 H :    0.035765
  24 H :    0.030110
  25 C :   -0.047932
  26 H :    0.018781
  27 H :    0.022629
  28 C :   -0.054745
  29 H :    0.023133
  30 H :    0.025420
  31 H :    0.031979
  32 H :    0.018731
  33 H :    0.016863

  Mayer bond orders larger than 0.100000
B(  0-S ,  1-C ) :   1.1426 B(  0-S ,  4-C ) :   1.1681 B(  1-C ,  2-C ) :   1.6084
B(  1-C ,  4-C ) :   0.1103 B(  1-C , 32-H ) :   0.9683 B(  2-C ,  3-C ) :   1.2888
B(  2-C ,  6-C ) :   0.9885 B(  3-C ,  4-C ) :   1.5606 B(  3-C ,  5-H ) :   0.9834
B(  4-C , 20-C ) :   1.0329 B(  6-C ,  7-H ) :   0.9371 B(  6-C ,  8-H ) :   0.9451
B(  6-C ,  9-C ) :   1.0482 B(  9-C , 10-H ) :   0.9503 B(  9-C , 11-H ) :   0.9638
B(  9-C , 12-C ) :   1.0886 B( 12-C , 13-H ) :   0.9747 B( 12-C , 14-H ) :   0.9729
B( 12-C , 15-H ) :   0.9772 B( 16-S , 17-C ) :   1.1605 B( 16-S , 20-C ) :   1.1562
B( 17-C , 18-C ) :   1.5942 B( 17-C , 20-C ) :   0.1005 B( 17-C , 33-H ) :   0.9816
B( 18-C , 19-C ) :   1.2468 B( 18-C , 21-H ) :   0.9763 B( 19-C , 20-C ) :   1.5706
B( 19-C , 22-C ) :   1.0281 B( 22-C , 23-H ) :   0.9195 B( 22-C , 24-H ) :   0.9393
B( 22-C , 25-C ) :   1.0949 B( 25-C , 26-H ) :   0.9516 B( 25-C , 27-H ) :   0.9526
B( 25-C , 28-C ) :   1.0635 B( 28-C , 29-H ) :   0.9738 B( 28-C , 30-H ) :   0.9720
B( 28-C , 31-H ) :   0.9725

Dispersion correction           -0.014212368
FINAL SINGLE POINT ENERGY     -1339.870067624456

DIPOLE MOMENT
-------------
                                X             Y             Z
Electronic contribution:     -3.73327      20.73419      -2.84658
Nuclear contribution   :      3.63345     -21.22506       3.09854
                        -----------------------------------------
Total Dipole Moment    :     -0.09982      -0.49086       0.25196
                        -----------------------------------------
Magnitude (a.u.)       :      0.56071
Magnitude (Debye)      :      1.42521

Rotational constants in cm-1:     0.023712     0.007011     0.006402
Rotational constants in MHz :   710.867354   210.177033   191.930007

                             ****ORCA TERMINATED NORMALLY****
TOTAL RUN TIME: 0 days 0 hours 0 minutes 21 seconds 474 msec
