                         Program Version 4.2.1 -  RELEASE  -
|  1> ! wB97X-D3 SP def2-SVP
|  2> %pal
|  3> nprocs 24
|  4> end
|  5>
|  6> * xyz 0 1
|  7> S 	 -51.2514 	 15.9035 	 28.5752
|  8> C 	 -52.0609 	 17.2323 	 27.7786
|  9> C 	 -51.7629 	 17.3158 	 26.4444
| 10> C 	 -50.6315 	 16.4526 	 26.1391
| 11> C 	 -50.338 	 15.5448 	 27.1122
| 12> H 	 -50.2842 	 16.3058 	 25.1075
| 13> C 	 -52.3866 	 18.2958 	 25.4364
| 14> H 	 -53.151 	 18.7374 	 26.0766
| 15> H 	 -52.7382 	 17.7476 	 24.6379
| 16> C 	 -51.333 	 19.3534 	 24.9265
| 17> H 	 -50.6907 	 18.978 	 24.1502
| 18> H 	 -51.8802 	 20.0237 	 24.3498
| 19> C 	 -50.5055 	 20.1142 	 25.9911
| 20> H 	 -51.1393 	 20.3469 	 26.8446
| 21> H 	 -49.5839 	 19.5788 	 26.3066
| 22> H 	 -50.1427 	 21.0178 	 25.5923
| 23> S 	 -49.7652 	 12.93 	 27.7205
| 24> C 	 -48.1337 	 12.4151 	 27.3901
| 25> C 	 -47.4565 	 13.323 	 26.6409
| 26> C 	 -48.1822 	 14.4936 	 26.334
| 27> C 	 -49.3682 	 14.5002 	 27.0133
| 28> H 	 -46.4272 	 13.0741 	 26.3975
| 29> C 	 -47.5001 	 15.6892 	 25.606
| 30> H 	 -48.1522 	 16.5057 	 25.2225
| 31> H 	 -47.0301 	 15.1999 	 24.8112
| 32> C 	 -46.4076 	 16.4569 	 26.3971
| 33> H 	 -46.8573 	 16.8071 	 27.3301
| 34> H 	 -46.0173 	 17.3441 	 25.8846
| 35> C 	 -45.1147 	 15.5695 	 26.8189
| 36> H 	 -44.5397 	 16.2546 	 27.5336
| 37> H 	 -44.5216 	 15.1666 	 25.9694
| 38> H 	 -45.4577 	 14.6994 	 27.3171
| 39> H 	 -52.8753 	 17.7805 	 28.2236
| 40> H 	 -47.7332 	 11.4635 	 27.5604
| 41> *
| 42>
| 43>                          ****END OF INPUT****

CARTESIAN COORDINATES (ANGSTROEM)
---------------------------------
  S    -51.251400   15.903500   28.575200
  C    -52.060900   17.232300   27.778600
  C    -51.762900   17.315800   26.444400
  C    -50.631500   16.452600   26.139100
  C    -50.338000   15.544800   27.112200
  H    -50.284200   16.305800   25.107500
  C    -52.386600   18.295800   25.436400
  H    -53.151000   18.737400   26.076600
  H    -52.738200   17.747600   24.637900
  C    -51.333000   19.353400   24.926500
  H    -50.690700   18.978000   24.150200
  H    -51.880200   20.023700   24.349800
  C    -50.505500   20.114200   25.991100
  H    -51.139300   20.346900   26.844600
  H    -49.583900   19.578800   26.306600
  H    -50.142700   21.017800   25.592300
  S    -49.765200   12.930000   27.720500
  C    -48.133700   12.415100   27.390100
  C    -47.456500   13.323000   26.640900
  C    -48.182200   14.493600   26.334000
  C    -49.368200   14.500200   27.013300
  H    -46.427200   13.074100   26.397500
  C    -47.500100   15.689200   25.606000
  H    -48.152200   16.505700   25.222500
  H    -47.030100   15.199900   24.811200
  C    -46.407600   16.456900   26.397100
  H    -46.857300   16.807100   27.330100
  H    -46.017300   17.344100   25.884600
  C    -45.114700   15.569500   26.818900
  H    -44.539700   16.254600   27.533600
  H    -44.521600   15.166600   25.969400
  H    -45.457700   14.699400   27.317100
  H    -52.875300   17.780500   28.223600
  H    -47.733200   11.463500   27.560400

 Total Charge           Charge          ....    0
 Multiplicity           Mult            ....    1
 Number of Electrons    NEL             ....  134
 Basis Dimension        Dim             ....  322

ORBITAL ENERGIES
----------------

  NO   OCC          E(Eh)            E(eV)
   0   2.0000     -88.966463     -2420.9005
   1   2.0000     -88.964273     -2420.8410
   2   2.0000     -10.325168      -280.9621
   3   2.0000     -10.324752      -280.9508
   4   2.0000     -10.309180      -280.5271
   5   2.0000     -10.309175      -280.5269
   6   2.0000     -10.303637      -280.3762
   7   2.0000     -10.299006      -280.2502
   8   2.0000     -10.293919      -280.1118
   9   2.0000     -10.293877      -280.1106
  10   2.0000     -10.291599      -280.0486
  11   2.0000     -10.290893      -280.0294
  12   2.0000     -10.289761      -279.9986
  13   2.0000     -10.284533      -279.8564
  14   2.0000     -10.283340      -279.8239
  15   2.0000     -10.275567      -279.6124
  16   2.0000      -8.081229      -219.9014
  17   2.0000      -8.078910      -219.8383
  18   2.0000      -6.039743      -164.3498
  19   2.0000      -6.037551      -164.2901
  20   2.0000      -6.035877      -164.2446
  21   2.0000      -6.033515      -164.1803
  22   2.0000      -6.031853      -164.1351
  23   2.0000      -6.029457      -164.0699
  24   2.0000      -1.010928       -27.5088
  25   2.0000      -0.985557       -26.8184
  26   2.0000      -0.908499       -24.7215
  27   2.0000      -0.900362       -24.5001
  28   2.0000      -0.873381       -23.7659
  29   2.0000      -0.846005       -23.0210
  30   2.0000      -0.839297       -22.8384
  31   2.0000      -0.815147       -22.1813
  32   2.0000      -0.786974       -21.4146
  33   2.0000      -0.776776       -21.1371
  34   2.0000      -0.715969       -19.4825
  35   2.0000      -0.703769       -19.1505
  36   2.0000      -0.692571       -18.8458
  37   2.0000      -0.663575       -18.0568
  38   2.0000      -0.634951       -17.2779
  39   2.0000      -0.619484       -16.8570
  40   2.0000      -0.592739       -16.1292
  41   2.0000      -0.566626       -15.4187
  42   2.0000      -0.558464       -15.1966
  43   2.0000      -0.549173       -14.9438
  44   2.0000      -0.537073       -14.6145
  45   2.0000      -0.533654       -14.5215
  46   2.0000      -0.520222       -14.1559
  47   2.0000      -0.511694       -13.9239
  48   2.0000      -0.501278       -13.6405
  49   2.0000      -0.491936       -13.3863
  50   2.0000      -0.488474       -13.2920
  51   2.0000      -0.476615       -12.9694
  52   2.0000      -0.473169       -12.8756
  53   2.0000      -0.470157       -12.7936
  54   2.0000      -0.455443       -12.3932
  55   2.0000      -0.448693       -12.2096
  56   2.0000      -0.441571       -12.0158
  57   2.0000      -0.440765       -11.9938
  58   2.0000      -0.438843       -11.9415
  59   2.0000      -0.431072       -11.7301
  60   2.0000      -0.418010       -11.3746
  61   2.0000      -0.412216       -11.2170
  62   2.0000      -0.407765       -11.0959
  63   2.0000      -0.357608        -9.7310
  64   2.0000      -0.335885        -9.1399
  65   2.0000      -0.327606        -8.9146
  66   2.0000      -0.286854        -7.8057
  67   0.0000       0.026300         0.7157
  68   0.0000       0.079300         2.1579
  69   0.0000       0.107857         2.9349
  70   0.0000       0.120785         3.2867
  71   0.0000       0.129280         3.5179

MULLIKEN ATOMIC CHARGES
-----------------------
   0 S :    0.105023
   1 C :   -0.121925
   2 C :   -0.132823
   3 C :   -0.023293
   4 C :   -0.111219
   5 H :    0.029555
   6 C :    0.143148
   7 H :    0.015916
   8 H :    0.020790
   9 C :   -0.072936
  10 H :    0.016815
  11 H :    0.008591
  12 C :   -0.023664
  13 H :    0.028856
  14 H :    0.042873
  15 H :    0.018800
  16 S :    0.108588
  17 C :   -0.056349
  18 C :   -0.063377
  19 C :   -0.022063
  20 C :   -0.155562
  21 H :    0.021007
  22 C :    0.089797
  23 H :    0.035174
  24 H :    0.010802
  25 C :   -0.085904
  26 H :    0.037220
  27 H :    0.037766
  28 C :   -0.097768
  29 H :    0.051754
  30 H :    0.037735
  31 H :    0.033275
  32 H :    0.043514
  33 H :    0.029885
Sum of atomic charges:   -0.0000000

LOEWDIN ATOMIC CHARGES
----------------------
   0 S :    0.392488
   1 C :   -0.203135
   2 C :   -0.057723
   3 C :   -0.071849
   4 C :   -0.185667
   5 H :    0.032111
   6 C :   -0.011685
   7 H :    0.031272
   8 H :    0.023578
   9 C :   -0.038126
  10 H :    0.021753
  11 H :    0.016048
  12 C :   -0.060067
  13 H :    0.026095
  14 H :    0.032151
  15 H :    0.019944
  16 S :    0.395893
  17 C :   -0.179048
  18 C :   -0.069544
  19 C :   -0.055108
  20 C :   -0.181868
  21 H :    0.032990
  22 C :   -0.028423
  23 H :    0.036069
  24 H :    0.021955
  25 C :   -0.034334
  26 H :    0.026467
  27 H :    0.024380
  28 C :   -0.076172
  29 H :    0.037174
  30 H :    0.024615
  31 H :    0.014401
  32 H :    0.024030
  33 H :    0.019336

  Mayer bond orders larger than 0.100000
B(  0-S ,  1-C ) :   1.1214 B(  0-S ,  4-C ) :   1.1248 B(  1-C ,  2-C ) :   1.6550
B(  1-C , 32-H ) :   0.9578 B(  2-C ,  3-C ) :   1.2056 B(  2-C ,  6-C ) :   1.0229
B(  3-C ,  4-C ) :   1.6156 B(  3-C ,  5-H ) :   0.9773 B(  4-C , 20-C ) :   1.0741
B(  6-C ,  7-H ) :   0.9387 B(  6-C ,  8-H ) :   0.9326 B(  6-C ,  9-C ) :   1.0746
B(  9-C , 10-H ) :   0.9502 B(  9-C , 11-H ) :   0.9557 B(  9-C , 12-C ) :   1.0760
B( 12-C , 13-H ) :   0.9783 B( 12-C , 14-H ) :   0.9732 B( 12-C , 15-H ) :   0.9726
B( 16-S , 17-C ) :   1.1283 B( 16-S , 20-C ) :   1.1363 B( 17-C , 18-C ) :   1.6506
B( 17-C , 33-H ) :   0.9695 B( 18-C , 19-C ) :   1.2161 B( 18-C , 21-H ) :   0.9814
B( 19-C , 20-C ) :   1.6151 B( 19-C , 22-C ) :   1.0313 B( 22-C , 23-H ) :   0.9398
B( 22-C , 24-H ) :   0.9280 B( 22-C , 25-C ) :   1.0673 B( 25-C , 26-H ) :   0.9574
B( 25-C , 27-H ) :   0.9605 B( 25-C , 28-C ) :   1.0665 B( 28-C , 29-H ) :   0.9741
B( 28-C , 30-H ) :   0.9771 B( 28-C , 31-H ) :   0.9721

Dispersion correction           -0.015106045
FINAL SINGLE POINT ENERGY     -1339.865451147439

DIPOLE MOMENT
-------------
                                X             Y             Z
Electronic contribution:    -12.99287     -20.86399      12.52520
Nuclear contribution   :     13.18749      21.25487     -13.10101
                        -----------------------------------------
Total Dipole Moment    :      0.19462       0.39087      -0.57581
                        -----------------------------------------
Magnitude (a.u.)       :      0.72265
Magnitude (Debye)      :      1.83682

Rotational constants in cm-1:     0.019102     0.009534     0.007142
Rotational constants in MHz :   572.671117   285.827974   214.125462

                             ****ORCA TERMINATED NORMALLY****
TOTAL RUN TIME: 0 days 0 hours 0 minutes 21 seconds 378 msec
