                         Program Version 4.2.1 -  RELEASE  -
|  1> ! wB97X-D3 SP def2-SVP
|  2> %pal
|  3> nprocs 24
|  4> end
|  5>
|  6> * xyz 0 1
|  7> S 	 -43.5889 	 -1.87717 	 -23.015
|  8> C 	 -45.134 	 -2.43355 	 -23.4695
|  9> C 	 -45.4497 	 -3.57756 	 -22.7032
| 10> C 	 -44.5245 	 -3.89635 	 -21.7435
| 11> C 	 -43.4036 	 -3.06769 	 -21.7368
| 12> H 	 -44.6047 	 -4.77691 	 -21.0966
| 13> C 	 -46.7428 	 -4.43728 	 -22.8544
| 14> H 	 -47.5888 	 -3.72768 	 -23.1006
| 15> H 	 -47.0448 	 -4.82146 	 -21.8534
| 16> C 	 -46.64 	 -5.56578 	 -23.9253
| 17> H 	 -47.5785 	 -6.14594 	 -24.0007
| 18> H 	 -46.3672 	 -5.17177 	 -24.913
| 19> C 	 -45.6285 	 -6.692 	 -23.5078
| 20> H 	 -45.7449 	 -6.95464 	 -22.503
| 21> H 	 -45.77 	 -7.58693 	 -24.1346
| 22> H 	 -44.5916 	 -6.31542 	 -23.6696
| 23> S 	 -40.6623 	 -3.24142 	 -21.9282
| 24> C 	 -39.7807 	 -4.03966 	 -20.6361
| 25> C 	 -40.5973 	 -4.29477 	 -19.5308
| 26> C 	 -41.973 	 -3.8556 	 -19.7589
| 27> C 	 -42.1509 	 -3.27337 	 -21.011
| 28> H 	 -40.1345 	 -4.77675 	 -18.6091
| 29> C 	 -43.0232 	 -4.12392 	 -18.6786
| 30> H 	 -43.7565 	 -4.82528 	 -19.1592
| 31> H 	 -43.5753 	 -3.2351 	 -18.5052
| 32> C 	 -42.6345 	 -4.73714 	 -17.2862
| 33> H 	 -42.0818 	 -4.03357 	 -16.6829
| 34> H 	 -42.1249 	 -5.62107 	 -17.3637
| 35> C 	 -43.9759 	 -5.02939 	 -16.479
| 36> H 	 -44.5791 	 -4.15909 	 -16.2813
| 37> H 	 -43.7714 	 -5.57558 	 -15.6235
| 38> H 	 -44.6381 	 -5.67409 	 -17.0027
| 39> H 	 -45.7806 	 -2.08859 	 -24.2957
| 40> H 	 -38.7401 	 -4.03405 	 -20.5706
| 41> *
| 42>
| 43>                          ****END OF INPUT****

CARTESIAN COORDINATES (ANGSTROEM)
---------------------------------
  S    -43.588900   -1.877170  -23.015000
  C    -45.134000   -2.433550  -23.469500
  C    -45.449700   -3.577560  -22.703200
  C    -44.524500   -3.896350  -21.743500
  C    -43.403600   -3.067690  -21.736800
  H    -44.604700   -4.776910  -21.096600
  C    -46.742800   -4.437280  -22.854400
  H    -47.588800   -3.727680  -23.100600
  H    -47.044800   -4.821460  -21.853400
  C    -46.640000   -5.565780  -23.925300
  H    -47.578500   -6.145940  -24.000700
  H    -46.367200   -5.171770  -24.913000
  C    -45.628500   -6.692000  -23.507800
  H    -45.744900   -6.954640  -22.503000
  H    -45.770000   -7.586930  -24.134600
  H    -44.591600   -6.315420  -23.669600
  S    -40.662300   -3.241420  -21.928200
  C    -39.780700   -4.039660  -20.636100
  C    -40.597300   -4.294770  -19.530800
  C    -41.973000   -3.855600  -19.758900
  C    -42.150900   -3.273370  -21.011000
  H    -40.134500   -4.776750  -18.609100
  C    -43.023200   -4.123920  -18.678600
  H    -43.756500   -4.825280  -19.159200
  H    -43.575300   -3.235100  -18.505200
  C    -42.634500   -4.737140  -17.286200
  H    -42.081800   -4.033570  -16.682900
  H    -42.124900   -5.621070  -17.363700
  C    -43.975900   -5.029390  -16.479000
  H    -44.579100   -4.159090  -16.281300
  H    -43.771400   -5.575580  -15.623500
  H    -44.638100   -5.674090  -17.002700
  H    -45.780600   -2.088590  -24.295700
  H    -38.740100   -4.034050  -20.570600

 Total Charge           Charge          ....    0
 Multiplicity           Mult            ....    1
 Number of Electrons    NEL             ....  134
 Basis Dimension        Dim             ....  322

ORBITAL ENERGIES
----------------

  NO   OCC          E(Eh)            E(eV)
   0   2.0000     -88.970640     -2421.0142
   1   2.0000     -88.965213     -2420.8665
   2   2.0000     -10.330946      -281.1193
   3   2.0000     -10.328430      -281.0509
   4   2.0000     -10.316973      -280.7391
   5   2.0000     -10.314782      -280.6795
   6   2.0000     -10.309611      -280.5388
   7   2.0000     -10.303691      -280.3777
   8   2.0000     -10.301764      -280.3253
   9   2.0000     -10.298567      -280.2383
  10   2.0000     -10.296147      -280.1724
  11   2.0000     -10.292263      -280.0667
  12   2.0000     -10.290761      -280.0259
  13   2.0000     -10.290226      -280.0113
  14   2.0000     -10.274733      -279.5897
  15   2.0000     -10.273265      -279.5498
  16   2.0000      -8.085513      -220.0180
  17   2.0000      -8.079956      -219.8668
  18   2.0000      -6.043816      -164.4606
  19   2.0000      -6.039778      -164.3507
  20   2.0000      -6.038581      -164.3181
  21   2.0000      -6.036724      -164.2676
  22   2.0000      -6.034438      -164.2054
  23   2.0000      -6.030612      -164.1013
  24   2.0000      -1.008812       -27.4512
  25   2.0000      -0.983517       -26.7628
  26   2.0000      -0.904218       -24.6050
  27   2.0000      -0.900687       -24.5089
  28   2.0000      -0.867757       -23.6129
  29   2.0000      -0.852261       -23.1912
  30   2.0000      -0.844903       -22.9910
  31   2.0000      -0.810862       -22.0647
  32   2.0000      -0.780888       -21.2490
  33   2.0000      -0.769350       -20.9351
  34   2.0000      -0.717540       -19.5253
  35   2.0000      -0.700137       -19.0517
  36   2.0000      -0.694638       -18.9021
  37   2.0000      -0.655113       -17.8265
  38   2.0000      -0.636332       -17.3155
  39   2.0000      -0.619049       -16.8452
  40   2.0000      -0.595848       -16.2138
  41   2.0000      -0.570891       -15.5347
  42   2.0000      -0.568971       -15.4825
  43   2.0000      -0.542581       -14.7644
  44   2.0000      -0.539301       -14.6751
  45   2.0000      -0.526831       -14.3358
  46   2.0000      -0.514825       -14.0091
  47   2.0000      -0.507692       -13.8150
  48   2.0000      -0.507373       -13.8063
  49   2.0000      -0.493702       -13.4343
  50   2.0000      -0.485935       -13.2230
  51   2.0000      -0.477640       -12.9973
  52   2.0000      -0.470332       -12.7984
  53   2.0000      -0.465533       -12.6678
  54   2.0000      -0.459579       -12.5058
  55   2.0000      -0.450965       -12.2714
  56   2.0000      -0.444086       -12.0842
  57   2.0000      -0.442508       -12.0412
  58   2.0000      -0.438823       -11.9410
  59   2.0000      -0.428653       -11.6642
  60   2.0000      -0.422273       -11.4906
  61   2.0000      -0.415794       -11.3143
  62   2.0000      -0.408905       -11.1269
  63   2.0000      -0.353763        -9.6264
  64   2.0000      -0.336543        -9.1578
  65   2.0000      -0.327348        -8.9076
  66   2.0000      -0.284625        -7.7450
  67   0.0000       0.021987         0.5983
  68   0.0000       0.073855         2.0097
  69   0.0000       0.111256         3.0274
  70   0.0000       0.120885         3.2895
  71   0.0000       0.140053         3.8110

MULLIKEN ATOMIC CHARGES
-----------------------
   0 S :    0.121810
   1 C :   -0.117848
   2 C :   -0.104191
   3 C :    0.016102
   4 C :   -0.154611
   5 H :    0.015776
   6 C :    0.023362
   7 H :    0.034670
   8 H :    0.029201
   9 C :   -0.063112
  10 H :    0.035390
  11 H :    0.035295
  12 C :   -0.070857
  13 H :    0.017258
  14 H :    0.037844
  15 H :    0.050087
  16 S :    0.097109
  17 C :   -0.069590
  18 C :   -0.082205
  19 C :   -0.048561
  20 C :   -0.102813
  21 H :    0.054341
  22 C :    0.021135
  23 H :    0.033725
  24 H :    0.031325
  25 C :   -0.036263
  26 H :    0.037540
  27 H :    0.019138
  28 C :   -0.021392
  29 H :    0.031170
  30 H :    0.016777
  31 H :    0.009012
  32 H :    0.060916
  33 H :    0.042459
Sum of atomic charges:   -0.0000000

LOEWDIN ATOMIC CHARGES
----------------------
   0 S :    0.435254
   1 C :   -0.221961
   2 C :   -0.070883
   3 C :   -0.066439
   4 C :   -0.196123
   5 H :    0.033284
   6 C :   -0.035873
   7 H :    0.034109
   8 H :    0.029653
   9 C :   -0.039321
  10 H :    0.025999
  11 H :    0.024704
  12 C :   -0.066043
  13 H :    0.011438
  14 H :    0.028050
  15 H :    0.030642
  16 S :    0.403569
  17 C :   -0.179430
  18 C :   -0.077907
  19 C :   -0.054036
  20 C :   -0.204907
  21 H :    0.045963
  22 C :   -0.033866
  23 H :    0.035099
  24 H :    0.029897
  25 C :   -0.021013
  26 H :    0.025204
  27 H :    0.010684
  28 C :   -0.053415
  29 H :    0.025378
  30 H :    0.017512
  31 H :    0.018854
  32 H :    0.039151
  33 H :    0.016773

  Mayer bond orders larger than 0.100000
B(  0-S ,  1-C ) :   1.1730 B(  0-S ,  4-C ) :   1.1760 B(  1-C ,  2-C ) :   1.5429
B(  1-C ,  4-C ) :   0.1136 B(  1-C , 32-H ) :   0.9657 B(  2-C ,  3-C ) :   1.3462
B(  2-C ,  6-C ) :   1.0016 B(  3-C ,  4-C ) :   1.4945 B(  3-C ,  5-H ) :   0.9832
B(  4-C , 20-C ) :   1.0490 B(  6-C ,  7-H ) :   0.9469 B(  6-C ,  8-H ) :   0.9518
B(  6-C ,  9-C ) :   1.0654 B(  9-C , 10-H ) :   0.9608 B(  9-C , 11-H ) :   0.9595
B(  9-C , 12-C ) :   1.0687 B( 12-C , 13-H ) :   0.9768 B( 12-C , 14-H ) :   0.9766
B( 12-C , 15-H ) :   0.9762 B( 16-S , 17-C ) :   1.1586 B( 16-S , 20-C ) :   1.1318
B( 17-C , 18-C ) :   1.6089 B( 17-C , 33-H ) :   0.9662 B( 18-C , 19-C ) :   1.2473
B( 18-C , 21-H ) :   0.9737 B( 19-C , 20-C ) :   1.6004 B( 19-C , 22-C ) :   1.0165
B( 22-C , 23-H ) :   0.9308 B( 22-C , 24-H ) :   0.9382 B( 22-C , 25-C ) :   1.0834
B( 25-C , 26-H ) :   0.9557 B( 25-C , 27-H ) :   0.9488 B( 25-C , 28-C ) :   1.0814
B( 28-C , 29-H ) :   0.9780 B( 28-C , 30-H ) :   0.9731 B( 28-C , 31-H ) :   0.9740

Dispersion correction           -0.014087493
FINAL SINGLE POINT ENERGY     -1339.872099768179

DIPOLE MOMENT
-------------
                                X             Y             Z
Electronic contribution:     16.97576      18.58792     -13.00507
Nuclear contribution   :    -17.32414     -19.10406      13.39442
                        -----------------------------------------
Total Dipole Moment    :     -0.34837      -0.51614       0.38935
                        -----------------------------------------
Magnitude (a.u.)       :      0.73441
Magnitude (Debye)      :      1.86672

Rotational constants in cm-1:     0.015888     0.009157     0.007020
Rotational constants in MHz :   476.304900   274.532064   210.444501

                             ****ORCA TERMINATED NORMALLY****
TOTAL RUN TIME: 0 days 0 hours 0 minutes 21 seconds 387 msec
