                         Program Version 4.2.1 -  RELEASE  -
|  1> ! wB97X-D3 SP def2-SVP
|  2> %pal
|  3> nprocs 24
|  4> end
|  5>
|  6> * xyz 0 1
|  7> S 	 -84.0897 	 2.2154 	 -113.944
|  8> C 	 -83.059 	 2.33584 	 -115.371
|  9> C 	 -83.5778 	 1.59512 	 -116.416
| 10> C 	 -84.8538 	 1.02099 	 -116.083
| 11> C 	 -85.2977 	 1.274 	 -114.818
| 12> H 	 -85.4938 	 0.365962 	 -116.664
| 13> C 	 -82.7984 	 1.23934 	 -117.663
| 14> H 	 -82.2597 	 0.333029 	 -117.575
| 15> H 	 -82.001 	 1.88398 	 -117.84
| 16> C 	 -83.5812 	 1.22978 	 -118.974
| 17> H 	 -82.8194 	 0.786869 	 -119.678
| 18> H 	 -84.3723 	 0.508755 	 -118.924
| 19> C 	 -84.2288 	 2.51612 	 -119.439
| 20> H 	 -85.0522 	 2.78127 	 -118.82
| 21> H 	 -83.4614 	 3.34577 	 -119.362
| 22> H 	 -84.5329 	 2.61319 	 -120.434
| 23> S 	 -86.6258 	 -1.06641 	 -114.185
| 24> C 	 -87.7845 	 -1.07263 	 -112.929
| 25> C 	 -88.004 	 0.202311 	 -112.431
| 26> C 	 -87.2231 	 1.22273 	 -113.024
| 27> C 	 -86.4067 	 0.673531 	 -114.053
| 28> H 	 -88.7233 	 0.393093 	 -111.725
| 29> C 	 -87.337 	 2.72993 	 -112.679
| 30> H 	 -86.4678 	 3.43935 	 -112.902
| 31> H 	 -87.5928 	 2.93932 	 -111.597
| 32> C 	 -88.3948 	 3.37201 	 -113.491
| 33> H 	 -88.1605 	 3.23388 	 -114.534
| 34> H 	 -88.2781 	 4.42289 	 -113.231
| 35> C 	 -89.9214 	 3.17517 	 -113.102
| 36> H 	 -90.2307 	 2.14238 	 -113.229
| 37> H 	 -90.6845 	 3.8997 	 -113.55
| 38> H 	 -89.9745 	 3.29002 	 -112.035
| 39> H 	 -82.0752 	 2.67004 	 -115.42
| 40> H 	 -88.2456 	 -1.97891 	 -112.538
| 41> *
| 42>
| 43>                          ****END OF INPUT****

CARTESIAN COORDINATES (ANGSTROEM)
---------------------------------
  S    -84.089700    2.215400  -113.944000
  C    -83.059000    2.335840  -115.371000
  C    -83.577800    1.595120  -116.416000
  C    -84.853800    1.020990  -116.083000
  C    -85.297700    1.274000  -114.818000
  H    -85.493800    0.365962  -116.664000
  C    -82.798400    1.239340  -117.663000
  H    -82.259700    0.333029  -117.575000
  H    -82.001000    1.883980  -117.840000
  C    -83.581200    1.229780  -118.974000
  H    -82.819400    0.786869  -119.678000
  H    -84.372300    0.508755  -118.924000
  C    -84.228800    2.516120  -119.439000
  H    -85.052200    2.781270  -118.820000
  H    -83.461400    3.345770  -119.362000
  H    -84.532900    2.613190  -120.434000
  S    -86.625800   -1.066410  -114.185000
  C    -87.784500   -1.072630  -112.929000
  C    -88.004000    0.202311  -112.431000
  C    -87.223100    1.222730  -113.024000
  C    -86.406700    0.673531  -114.053000
  H    -88.723300    0.393093  -111.725000
  C    -87.337000    2.729930  -112.679000
  H    -86.467800    3.439350  -112.902000
  H    -87.592800    2.939320  -111.597000
  C    -88.394800    3.372010  -113.491000
  H    -88.160500    3.233880  -114.534000
  H    -88.278100    4.422890  -113.231000
  C    -89.921400    3.175170  -113.102000
  H    -90.230700    2.142380  -113.229000
  H    -90.684500    3.899700  -113.550000
  H    -89.974500    3.290020  -112.035000
  H    -82.075200    2.670040  -115.420000
  H    -88.245600   -1.978910  -112.538000

 Total Charge           Charge          ....    0
 Multiplicity           Mult            ....    1
 Number of Electrons    NEL             ....  134
 Basis Dimension        Dim             ....  322

ORBITAL ENERGIES
----------------

  NO   OCC          E(Eh)            E(eV)
   0   2.0000     -88.971368     -2421.0340
   1   2.0000     -88.964010     -2420.8338
   2   2.0000     -10.332504      -281.1617
   3   2.0000     -10.330315      -281.1022
   4   2.0000     -10.318723      -280.7867
   5   2.0000     -10.311589      -280.5926
   6   2.0000     -10.309164      -280.5266
   7   2.0000     -10.302445      -280.3438
   8   2.0000     -10.301737      -280.3245
   9   2.0000     -10.293385      -280.0972
  10   2.0000     -10.290558      -280.0203
  11   2.0000     -10.285070      -279.8710
  12   2.0000     -10.283636      -279.8320
  13   2.0000     -10.280683      -279.7516
  14   2.0000     -10.280419      -279.7444
  15   2.0000     -10.270907      -279.4856
  16   2.0000      -8.086347      -220.0407
  17   2.0000      -8.078040      -219.8146
  18   2.0000      -6.044679      -164.4841
  19   2.0000      -6.040672      -164.3750
  20   2.0000      -6.037448      -164.2873
  21   2.0000      -6.036683      -164.2665
  22   2.0000      -6.032618      -164.1559
  23   2.0000      -6.028707      -164.0495
  24   2.0000      -1.006908       -27.3994
  25   2.0000      -0.985068       -26.8051
  26   2.0000      -0.914523       -24.8854
  27   2.0000      -0.912491       -24.8301
  28   2.0000      -0.869613       -23.6634
  29   2.0000      -0.849259       -23.1095
  30   2.0000      -0.840055       -22.8591
  31   2.0000      -0.817386       -22.2422
  32   2.0000      -0.789529       -21.4842
  33   2.0000      -0.779043       -21.1988
  34   2.0000      -0.709857       -19.3162
  35   2.0000      -0.694228       -18.8909
  36   2.0000      -0.681759       -18.5516
  37   2.0000      -0.671123       -18.2622
  38   2.0000      -0.640455       -17.4277
  39   2.0000      -0.622527       -16.9398
  40   2.0000      -0.605782       -16.4842
  41   2.0000      -0.573059       -15.5937
  42   2.0000      -0.556445       -15.1416
  43   2.0000      -0.551055       -14.9950
  44   2.0000      -0.540798       -14.7159
  45   2.0000      -0.533005       -14.5038
  46   2.0000      -0.512714       -13.9516
  47   2.0000      -0.512467       -13.9449
  48   2.0000      -0.501145       -13.6369
  49   2.0000      -0.492978       -13.4146
  50   2.0000      -0.486238       -13.2312
  51   2.0000      -0.482799       -13.1376
  52   2.0000      -0.472873       -12.8675
  53   2.0000      -0.471020       -12.8171
  54   2.0000      -0.465738       -12.6734
  55   2.0000      -0.450959       -12.2712
  56   2.0000      -0.445163       -12.1135
  57   2.0000      -0.443702       -12.0737
  58   2.0000      -0.433780       -11.8037
  59   2.0000      -0.422079       -11.4853
  60   2.0000      -0.413568       -11.2538
  61   2.0000      -0.409080       -11.1316
  62   2.0000      -0.402241       -10.9455
  63   2.0000      -0.350231        -9.5303
  64   2.0000      -0.336286        -9.1508
  65   2.0000      -0.329356        -8.9622
  66   2.0000      -0.290128        -7.8948
  67   0.0000       0.026574         0.7231
  68   0.0000       0.069209         1.8833
  69   0.0000       0.109262         2.9732
  70   0.0000       0.118058         3.2125
  71   0.0000       0.127299         3.4640

MULLIKEN ATOMIC CHARGES
-----------------------
   0 S :    0.099691
   1 C :   -0.084884
   2 C :   -0.086643
   3 C :   -0.002394
   4 C :   -0.118402
   5 H :    0.008557
   6 C :    0.118945
   7 H :    0.029173
   8 H :   -0.009800
   9 C :   -0.102885
  10 H :    0.029747
  11 H :    0.020882
  12 C :   -0.017585
  13 H :    0.033431
  14 H :    0.017597
  15 H :    0.024043
  16 S :    0.125747
  17 C :   -0.092461
  18 C :   -0.001805
  19 C :   -0.004145
  20 C :   -0.172903
  21 H :   -0.016533
  22 C :    0.009808
  23 H :    0.052989
  24 H :    0.030896
  25 C :   -0.074223
  26 H :    0.037053
  27 H :    0.025170
  28 C :   -0.059044
  29 H :    0.029520
  30 H :    0.055969
  31 H :    0.007685
  32 H :    0.023114
  33 H :    0.063691
Sum of atomic charges:   -0.0000000

LOEWDIN ATOMIC CHARGES
----------------------
   0 S :    0.400673
   1 C :   -0.184055
   2 C :   -0.057790
   3 C :   -0.073913
   4 C :   -0.183097
   5 H :    0.028735
   6 C :   -0.026492
   7 H :    0.033530
   8 H :    0.021344
   9 C :   -0.043005
  10 H :    0.030895
  11 H :    0.015367
  12 C :   -0.062561
  13 H :    0.025039
  14 H :    0.028896
  15 H :    0.020621
  16 S :    0.434869
  17 C :   -0.197562
  18 C :   -0.062688
  19 C :   -0.049074
  20 C :   -0.204454
  21 H :    0.016224
  22 C :   -0.044298
  23 H :    0.041276
  24 H :    0.034400
  25 C :   -0.041931
  26 H :    0.023114
  27 H :    0.025391
  28 C :   -0.075462
  29 H :    0.019128
  30 H :    0.038220
  31 H :    0.017436
  32 H :    0.017647
  33 H :    0.033579

  Mayer bond orders larger than 0.100000
B(  0-S ,  1-C ) :   1.1280 B(  0-S ,  4-C ) :   1.1377 B(  1-C ,  2-C ) :   1.6370
B(  1-C , 32-H ) :   0.9716 B(  2-C ,  3-C ) :   1.1978 B(  2-C ,  6-C ) :   1.0272
B(  3-C ,  4-C ) :   1.6083 B(  3-C ,  5-H ) :   0.9990 B(  4-C , 20-C ) :   1.0433
B(  6-C ,  7-H ) :   0.9325 B(  6-C ,  8-H ) :   0.9286 B(  6-C ,  9-C ) :   1.0796
B(  9-C , 10-H ) :   0.9541 B(  9-C , 11-H ) :   0.9542 B(  9-C , 12-C ) :   1.0750
B( 12-C , 13-H ) :   0.9712 B( 12-C , 14-H ) :   0.9734 B( 12-C , 15-H ) :   0.9743
B( 16-S , 17-C ) :   1.1777 B( 16-S , 20-C ) :   1.1620 B( 17-C , 18-C ) :   1.5598
B( 17-C , 20-C ) :   0.1014 B( 17-C , 33-H ) :   0.9679 B( 18-C , 19-C ) :   1.2888
B( 18-C , 21-H ) :   1.0004 B( 19-C , 20-C ) :   1.5312 B( 19-C , 22-C ) :   1.0279
B( 22-C , 23-H ) :   0.9394 B( 22-C , 24-H ) :   0.9367 B( 22-C , 25-C ) :   1.0767
B( 25-C , 26-H ) :   0.9556 B( 25-C , 27-H ) :   0.9574 B( 25-C , 28-C ) :   1.0623
B( 28-C , 29-H ) :   0.9755 B( 28-C , 30-H ) :   0.9768 B( 28-C , 31-H ) :   0.9704

Dispersion correction           -0.014458460
FINAL SINGLE POINT ENERGY     -1339.864971094833

DIPOLE MOMENT
-------------
                                X             Y             Z
Electronic contribution:      6.12345     -12.43165      12.36572
Nuclear contribution   :     -6.15262      12.39243     -12.45841
                        -----------------------------------------
Total Dipole Moment    :     -0.02917      -0.03922      -0.09270
                        -----------------------------------------
Magnitude (a.u.)       :      0.10479
Magnitude (Debye)      :      0.26636

Rotational constants in cm-1:     0.020876     0.007752     0.007145
Rotational constants in MHz :   625.840356   232.402349   214.208602

                             ****ORCA TERMINATED NORMALLY****
TOTAL RUN TIME: 0 days 0 hours 0 minutes 20 seconds 210 msec
