                         Program Version 4.2.1 -  RELEASE  -
|  1> ! wB97X-D3 SP def2-SVP
|  2> %pal
|  3> nprocs 24
|  4> end
|  5>
|  6> * xyz 0 1
|  7> S 	 -59.9699 	 -56.1329 	 -87.0528
|  8> C 	 -61.0014 	 -54.9316 	 -86.2792
|  9> C 	 -61.3815 	 -55.2891 	 -84.9835
| 10> C 	 -60.8878 	 -56.6035 	 -84.6743
| 11> C 	 -60.1106 	 -57.2135 	 -85.6572
| 12> H 	 -61.0373 	 -57.1157 	 -83.6915
| 13> C 	 -62.1016 	 -54.4456 	 -83.9742
| 14> H 	 -61.3556 	 -53.7325 	 -83.6103
| 15> H 	 -62.3511 	 -55.0847 	 -83.1276
| 16> C 	 -63.3393 	 -53.8537 	 -84.5191
| 17> H 	 -63.1674 	 -53.108 	 -85.286
| 18> H 	 -63.8956 	 -54.7159 	 -84.9806
| 19> C 	 -64.2272 	 -53.0546 	 -83.5879
| 20> H 	 -65.0807 	 -52.6514 	 -84.1245
| 21> H 	 -64.5737 	 -53.6352 	 -82.7377
| 22> H 	 -63.6695 	 -52.2671 	 -83.1199
| 23> S 	 -57.6314 	 -58.1815 	 -85.9695
| 24> C 	 -57.2804 	 -59.8344 	 -85.4527
| 25> C 	 -58.426 	 -60.5748 	 -85.3052
| 26> C 	 -59.6329 	 -59.7387 	 -85.2656
| 27> C 	 -59.315 	 -58.416 	 -85.5818
| 28> H 	 -58.3311 	 -61.619 	 -85.0742
| 29> C 	 -61.0532 	 -60.262 	 -85.1002
| 30> H 	 -61.6486 	 -59.4836 	 -84.7225
| 31> H 	 -61.0885 	 -61.0116 	 -84.2859
| 32> C 	 -61.5769 	 -60.9122 	 -86.394
| 33> H 	 -62.4382 	 -61.5717 	 -86.1477
| 34> H 	 -60.67 	 -61.4589 	 -86.7061
| 35> C 	 -61.9317 	 -60.0252 	 -87.5679
| 36> H 	 -62.6444 	 -59.2906 	 -87.167
| 37> H 	 -62.6002 	 -60.6125 	 -88.214
| 38> H 	 -61.1163 	 -59.5759 	 -88.1424
| 39> H 	 -61.4289 	 -54.0775 	 -86.7191
| 40> H 	 -56.2739 	 -60.2262 	 -85.2867
| 41> *
| 42>
| 43>                          ****END OF INPUT****

CARTESIAN COORDINATES (ANGSTROEM)
---------------------------------
  S    -59.969900  -56.132900  -87.052800
  C    -61.001400  -54.931600  -86.279200
  C    -61.381500  -55.289100  -84.983500
  C    -60.887800  -56.603500  -84.674300
  C    -60.110600  -57.213500  -85.657200
  H    -61.037300  -57.115700  -83.691500
  C    -62.101600  -54.445600  -83.974200
  H    -61.355600  -53.732500  -83.610300
  H    -62.351100  -55.084700  -83.127600
  C    -63.339300  -53.853700  -84.519100
  H    -63.167400  -53.108000  -85.286000
  H    -63.895600  -54.715900  -84.980600
  C    -64.227200  -53.054600  -83.587900
  H    -65.080700  -52.651400  -84.124500
  H    -64.573700  -53.635200  -82.737700
  H    -63.669500  -52.267100  -83.119900
  S    -57.631400  -58.181500  -85.969500
  C    -57.280400  -59.834400  -85.452700
  C    -58.426000  -60.574800  -85.305200
  C    -59.632900  -59.738700  -85.265600
  C    -59.315000  -58.416000  -85.581800
  H    -58.331100  -61.619000  -85.074200
  C    -61.053200  -60.262000  -85.100200
  H    -61.648600  -59.483600  -84.722500
  H    -61.088500  -61.011600  -84.285900
  C    -61.576900  -60.912200  -86.394000
  H    -62.438200  -61.571700  -86.147700
  H    -60.670000  -61.458900  -86.706100
  C    -61.931700  -60.025200  -87.567900
  H    -62.644400  -59.290600  -87.167000
  H    -62.600200  -60.612500  -88.214000
  H    -61.116300  -59.575900  -88.142400
  H    -61.428900  -54.077500  -86.719100
  H    -56.273900  -60.226200  -85.286700

 Total Charge           Charge          ....    0
 Multiplicity           Mult            ....    1
 Number of Electrons    NEL             ....  134
 Basis Dimension        Dim             ....  322

ORBITAL ENERGIES
----------------

  NO   OCC          E(Eh)            E(eV)
   0   2.0000     -88.968295     -2420.9504
   1   2.0000     -88.963605     -2420.8228
   2   2.0000     -10.330530      -281.1080
   3   2.0000     -10.326446      -280.9969
   4   2.0000     -10.318554      -280.7821
   5   2.0000     -10.310792      -280.5709
   6   2.0000     -10.308670      -280.5132
   7   2.0000     -10.301049      -280.3058
   8   2.0000     -10.297311      -280.2041
   9   2.0000     -10.297230      -280.2019
  10   2.0000     -10.290474      -280.0180
  11   2.0000     -10.287956      -279.9495
  12   2.0000     -10.285563      -279.8844
  13   2.0000     -10.285223      -279.8752
  14   2.0000     -10.275002      -279.5970
  15   2.0000     -10.271821      -279.5105
  16   2.0000      -8.082153      -219.9266
  17   2.0000      -8.078568      -219.8290
  18   2.0000      -6.040776      -164.3779
  19   2.0000      -6.037147      -164.2791
  20   2.0000      -6.036739      -164.2680
  21   2.0000      -6.033185      -164.1713
  22   2.0000      -6.032899      -164.1635
  23   2.0000      -6.029079      -164.0596
  24   2.0000      -1.004036       -27.3212
  25   2.0000      -0.978856       -26.6360
  26   2.0000      -0.922233       -25.0952
  27   2.0000      -0.907515       -24.6947
  28   2.0000      -0.870986       -23.7007
  29   2.0000      -0.849521       -23.1167
  30   2.0000      -0.843468       -22.9519
  31   2.0000      -0.814217       -22.1560
  32   2.0000      -0.786105       -21.3910
  33   2.0000      -0.773112       -21.0374
  34   2.0000      -0.708651       -19.2834
  35   2.0000      -0.697093       -18.9689
  36   2.0000      -0.687716       -18.7137
  37   2.0000      -0.657731       -17.8978
  38   2.0000      -0.636364       -17.3163
  39   2.0000      -0.613848       -16.7036
  40   2.0000      -0.598400       -16.2833
  41   2.0000      -0.578289       -15.7360
  42   2.0000      -0.566065       -15.4034
  43   2.0000      -0.552099       -15.0234
  44   2.0000      -0.541559       -14.7366
  45   2.0000      -0.530684       -14.4406
  46   2.0000      -0.519925       -14.1479
  47   2.0000      -0.507795       -13.8178
  48   2.0000      -0.503055       -13.6888
  49   2.0000      -0.496479       -13.5099
  50   2.0000      -0.492787       -13.4094
  51   2.0000      -0.479163       -13.0387
  52   2.0000      -0.472809       -12.8658
  53   2.0000      -0.459809       -12.5120
  54   2.0000      -0.457522       -12.4498
  55   2.0000      -0.447156       -12.1677
  56   2.0000      -0.439953       -11.9717
  57   2.0000      -0.437568       -11.9068
  58   2.0000      -0.432828       -11.7779
  59   2.0000      -0.423600       -11.5267
  60   2.0000      -0.420127       -11.4322
  61   2.0000      -0.416222       -11.3260
  62   2.0000      -0.405762       -11.0414
  63   2.0000      -0.349851        -9.5199
  64   2.0000      -0.330459        -8.9923
  65   2.0000      -0.327664        -8.9162
  66   2.0000      -0.285922        -7.7803
  67   0.0000       0.032270         0.8781
  68   0.0000       0.059958         1.6315
  69   0.0000       0.107674         2.9300
  70   0.0000       0.120122         3.2687
  71   0.0000       0.132241         3.5985

MULLIKEN ATOMIC CHARGES
-----------------------
   0 S :    0.108323
   1 C :   -0.097971
   2 C :   -0.128253
   3 C :    0.023566
   4 C :   -0.158984
   5 H :    0.027887
   6 C :    0.127820
   7 H :    0.044173
   8 H :    0.011641
   9 C :   -0.136516
  10 H :    0.028110
  11 H :    0.041725
  12 C :   -0.008551
  13 H :    0.038550
  14 H :    0.017560
  15 H :    0.017898
  16 S :    0.101510
  17 C :   -0.101800
  18 C :   -0.021051
  19 C :   -0.078959
  20 C :   -0.147499
  21 H :    0.021378
  22 C :    0.119788
  23 H :   -0.003162
  24 H :    0.020250
  25 C :   -0.092885
  26 H :    0.038808
  27 H :    0.026519
  28 C :   -0.034284
  29 H :    0.023180
  30 H :    0.026479
  31 H :    0.054556
  32 H :    0.028043
  33 H :    0.062150
Sum of atomic charges:    0.0000000

LOEWDIN ATOMIC CHARGES
----------------------
   0 S :    0.394627
   1 C :   -0.191921
   2 C :   -0.057892
   3 C :   -0.070187
   4 C :   -0.190375
   5 H :    0.036069
   6 C :   -0.032108
   7 H :    0.038336
   8 H :    0.030434
   9 C :   -0.050162
  10 H :    0.022971
  11 H :    0.033343
  12 C :   -0.061112
  13 H :    0.029355
  14 H :    0.020157
  15 H :    0.022216
  16 S :    0.394423
  17 C :   -0.177781
  18 C :   -0.068501
  19 C :   -0.052246
  20 C :   -0.199124
  21 H :    0.030519
  22 C :   -0.030667
  23 H :    0.017502
  24 H :    0.033330
  25 C :   -0.043782
  26 H :    0.028931
  27 H :    0.027416
  28 C :   -0.069160
  29 H :    0.026534
  30 H :    0.029685
  31 H :    0.029537
  32 H :    0.017315
  33 H :    0.032319

  Mayer bond orders larger than 0.100000
B(  0-S ,  1-C ) :   1.1289 B(  0-S ,  4-C ) :   1.1418 B(  1-C ,  2-C ) :   1.6096
B(  1-C ,  4-C ) :   0.1015 B(  1-C , 32-H ) :   0.9717 B(  2-C ,  3-C ) :   1.2537
B(  2-C ,  6-C ) :   1.0176 B(  3-C ,  4-C ) :   1.5806 B(  3-C ,  5-H ) :   0.9784
B(  4-C , 20-C ) :   1.0430 B(  6-C ,  7-H ) :   0.9226 B(  6-C ,  8-H ) :   0.9358
B(  6-C ,  9-C ) :   1.0724 B(  9-C , 10-H ) :   0.9494 B(  9-C , 11-H ) :   0.9576
B(  9-C , 12-C ) :   1.0934 B( 12-C , 13-H ) :   0.9740 B( 12-C , 14-H ) :   0.9715
B( 12-C , 15-H ) :   0.9688 B( 16-S , 17-C ) :   1.1350 B( 16-S , 20-C ) :   1.1343
B( 17-C , 18-C ) :   1.6468 B( 17-C , 33-H ) :   0.9677 B( 18-C , 19-C ) :   1.1949
B( 18-C , 21-H ) :   0.9867 B( 19-C , 20-C ) :   1.6113 B( 19-C , 22-C ) :   1.0553
B( 22-C , 23-H ) :   0.9262 B( 22-C , 24-H ) :   0.9274 B( 22-C , 25-C ) :   1.0647
B( 25-C , 26-H ) :   0.9556 B( 25-C , 27-H ) :   0.9545 B( 25-C , 28-C ) :   1.0856
B( 28-C , 29-H ) :   0.9714 B( 28-C , 30-H ) :   0.9700 B( 28-C , 31-H ) :   0.9738

Dispersion correction           -0.014556417
FINAL SINGLE POINT ENERGY     -1339.880107669968

DIPOLE MOMENT
-------------
                                X             Y             Z
Electronic contribution:     23.95769      -1.99982      -6.91827
Nuclear contribution   :    -24.38423       1.90258       7.36840
                        -----------------------------------------
Total Dipole Moment    :     -0.42654      -0.09724       0.45013
                        -----------------------------------------
Magnitude (a.u.)       :      0.62770
Magnitude (Debye)      :      1.59549

Rotational constants in cm-1:     0.022545     0.007578     0.006728
Rotational constants in MHz :   675.889466   227.187716   201.692198

                             ****ORCA TERMINATED NORMALLY****
TOTAL RUN TIME: 0 days 0 hours 0 minutes 21 seconds 652 msec
