                         Program Version 4.2.1 -  RELEASE  -
|  1> ! wB97X-D3 SP def2-SVP
|  2> %pal
|  3> nprocs 24
|  4> end
|  5>
|  6> * xyz 0 1
|  7> S 	 -30.3132 	 22.0622 	 6.1329
|  8> C 	 -31.334 	 22.7391 	 4.91493
|  9> C 	 -31.9617 	 21.8039 	 4.12656
| 10> C 	 -31.6023 	 20.4942 	 4.59547
| 11> C 	 -30.723 	 20.4394 	 5.62965
| 12> H 	 -31.9145 	 19.5596 	 4.12952
| 13> C 	 -32.9975 	 22.1088 	 3.05023
| 14> H 	 -32.6607 	 21.7479 	 2.02583
| 15> H 	 -33.0589 	 23.2094 	 2.82897
| 16> C 	 -34.4261 	 21.5189 	 3.29589
| 17> H 	 -34.3501 	 20.5201 	 3.66581
| 18> H 	 -34.7416 	 22.0788 	 4.19239
| 19> C 	 -35.3482 	 21.829 	 2.14768
| 20> H 	 -35.414 	 22.9415 	 2.27217
| 21> H 	 -34.8427 	 21.5958 	 1.19493
| 22> H 	 -36.329 	 21.334 	 2.21857
| 23> S 	 -28.5696 	 18.8783 	 6.81276
| 24> C 	 -28.9817 	 17.3563 	 7.55082
| 25> C 	 -30.3138 	 17.0928 	 7.48053
| 26> C 	 -31.103 	 18.1365 	 6.85857
| 27> C 	 -30.3187 	 19.2072 	 6.42114
| 28> H 	 -30.6375 	 16.1841 	 7.95142
| 29> C 	 -32.6231 	 18.1872 	 6.96101
| 30> H 	 -32.8734 	 17.2918 	 7.5127
| 31> H 	 -33.1254 	 18.1446 	 6.00936
| 32> C 	 -33.1874 	 19.4608 	 7.81886
| 33> H 	 -32.868 	 20.4506 	 7.38667
| 34> H 	 -32.7732 	 19.4957 	 8.85717
| 35> C 	 -34.7227 	 19.405 	 8.10859
| 36> H 	 -35.0946 	 20.186 	 8.69667
| 37> H 	 -35.0102 	 18.5306 	 8.73269
| 38> H 	 -35.3836 	 19.4297 	 7.24306
| 39> H 	 -31.5561 	 23.8464 	 4.92742
| 40> H 	 -28.3175 	 16.7381 	 7.93333
| 41> *
| 42>
| 43>                          ****END OF INPUT****

CARTESIAN COORDINATES (ANGSTROEM)
---------------------------------
  S    -30.313200   22.062200    6.132900
  C    -31.334000   22.739100    4.914930
  C    -31.961700   21.803900    4.126560
  C    -31.602300   20.494200    4.595470
  C    -30.723000   20.439400    5.629650
  H    -31.914500   19.559600    4.129520
  C    -32.997500   22.108800    3.050230
  H    -32.660700   21.747900    2.025830
  H    -33.058900   23.209400    2.828970
  C    -34.426100   21.518900    3.295890
  H    -34.350100   20.520100    3.665810
  H    -34.741600   22.078800    4.192390
  C    -35.348200   21.829000    2.147680
  H    -35.414000   22.941500    2.272170
  H    -34.842700   21.595800    1.194930
  H    -36.329000   21.334000    2.218570
  S    -28.569600   18.878300    6.812760
  C    -28.981700   17.356300    7.550820
  C    -30.313800   17.092800    7.480530
  C    -31.103000   18.136500    6.858570
  C    -30.318700   19.207200    6.421140
  H    -30.637500   16.184100    7.951420
  C    -32.623100   18.187200    6.961010
  H    -32.873400   17.291800    7.512700
  H    -33.125400   18.144600    6.009360
  C    -33.187400   19.460800    7.818860
  H    -32.868000   20.450600    7.386670
  H    -32.773200   19.495700    8.857170
  C    -34.722700   19.405000    8.108590
  H    -35.094600   20.186000    8.696670
  H    -35.010200   18.530600    8.732690
  H    -35.383600   19.429700    7.243060
  H    -31.556100   23.846400    4.927420
  H    -28.317500   16.738100    7.933330

 Total Charge           Charge          ....    0
 Multiplicity           Mult            ....    1
 Number of Electrons    NEL             ....  134
 Basis Dimension        Dim             ....  322

ORBITAL ENERGIES
----------------

  NO   OCC          E(Eh)            E(eV)
   0   2.0000     -88.966569     -2420.9034
   1   2.0000     -88.964037     -2420.8345
   2   2.0000     -10.337296      -281.2921
   3   2.0000     -10.332640      -281.1654
   4   2.0000     -10.319116      -280.7974
   5   2.0000     -10.309556      -280.5373
   6   2.0000     -10.307799      -280.4895
   7   2.0000     -10.306025      -280.4412
   8   2.0000     -10.304884      -280.4101
   9   2.0000     -10.298237      -280.2293
  10   2.0000     -10.297925      -280.2208
  11   2.0000     -10.295233      -280.1475
  12   2.0000     -10.293521      -280.1010
  13   2.0000     -10.287068      -279.9254
  14   2.0000     -10.286898      -279.9207
  15   2.0000     -10.274708      -279.5890
  16   2.0000      -8.081852      -219.9184
  17   2.0000      -8.078063      -219.8153
  18   2.0000      -6.040302      -164.3650
  19   2.0000      -6.036629      -164.2650
  20   2.0000      -6.036277      -164.2554
  21   2.0000      -6.032678      -164.1575
  22   2.0000      -6.032644      -164.1566
  23   2.0000      -6.028810      -164.0522
  24   2.0000      -1.005145       -27.3514
  25   2.0000      -0.983001       -26.7488
  26   2.0000      -0.912395       -24.8275
  27   2.0000      -0.893377       -24.3100
  28   2.0000      -0.866700       -23.5841
  29   2.0000      -0.851469       -23.1696
  30   2.0000      -0.843513       -22.9531
  31   2.0000      -0.818333       -22.2680
  32   2.0000      -0.780225       -21.2310
  33   2.0000      -0.770110       -20.9557
  34   2.0000      -0.708554       -19.2807
  35   2.0000      -0.698633       -19.0108
  36   2.0000      -0.689676       -18.7670
  37   2.0000      -0.660759       -17.9802
  38   2.0000      -0.645236       -17.5578
  39   2.0000      -0.622889       -16.9497
  40   2.0000      -0.593933       -16.1617
  41   2.0000      -0.571642       -15.5552
  42   2.0000      -0.563440       -15.3320
  43   2.0000      -0.552818       -15.0429
  44   2.0000      -0.528628       -14.3847
  45   2.0000      -0.518248       -14.1022
  46   2.0000      -0.513891       -13.9837
  47   2.0000      -0.508377       -13.8337
  48   2.0000      -0.502575       -13.6758
  49   2.0000      -0.493502       -13.4289
  50   2.0000      -0.491576       -13.3765
  51   2.0000      -0.483872       -13.1668
  52   2.0000      -0.469080       -12.7643
  53   2.0000      -0.462672       -12.5899
  54   2.0000      -0.456030       -12.4092
  55   2.0000      -0.449968       -12.2443
  56   2.0000      -0.447208       -12.1691
  57   2.0000      -0.439015       -11.9462
  58   2.0000      -0.427849       -11.6424
  59   2.0000      -0.426559       -11.6073
  60   2.0000      -0.420345       -11.4382
  61   2.0000      -0.416685       -11.3386
  62   2.0000      -0.412056       -11.2126
  63   2.0000      -0.349379        -9.5071
  64   2.0000      -0.333161        -9.0658
  65   2.0000      -0.330333        -8.9888
  66   2.0000      -0.296838        -8.0774
  67   0.0000       0.030679         0.8348
  68   0.0000       0.069963         1.9038
  69   0.0000       0.114242         3.1087
  70   0.0000       0.121320         3.3013
  71   0.0000       0.126191         3.4338

MULLIKEN ATOMIC CHARGES
-----------------------
   0 S :    0.108728
   1 C :   -0.153517
   2 C :   -0.042507
   3 C :    0.001927
   4 C :   -0.138786
   5 H :    0.018276
   6 C :    0.006632
   7 H :    0.033404
   8 H :    0.021820
   9 C :   -0.078008
  10 H :    0.022735
  11 H :    0.027273
  12 C :   -0.038215
  13 H :    0.037598
  14 H :    0.035593
  15 H :    0.050773
  16 S :    0.088458
  17 C :   -0.023798
  18 C :   -0.034062
  19 C :   -0.030724
  20 C :   -0.148298
  21 H :    0.014192
  22 C :    0.091290
  23 H :    0.013557
  24 H :    0.032069
  25 C :   -0.099771
  26 H :    0.055131
  27 H :    0.038161
  28 C :   -0.048642
  29 H :    0.017215
  30 H :    0.027412
  31 H :    0.024716
  32 H :    0.072329
  33 H :   -0.002959
Sum of atomic charges:    0.0000000

LOEWDIN ATOMIC CHARGES
----------------------
   0 S :    0.411535
   1 C :   -0.203084
   2 C :   -0.069166
   3 C :   -0.061163
   4 C :   -0.195352
   5 H :    0.033041
   6 C :   -0.037459
   7 H :    0.031750
   8 H :    0.031154
   9 C :   -0.045892
  10 H :    0.014468
  11 H :    0.026643
  12 C :   -0.066303
  13 H :    0.036249
  14 H :    0.025971
  15 H :    0.031506
  16 S :    0.374168
  17 C :   -0.155122
  18 C :   -0.069907
  19 C :   -0.055382
  20 C :   -0.174444
  21 H :    0.030936
  22 C :   -0.024611
  23 H :    0.028332
  24 H :    0.027118
  25 C :   -0.038594
  26 H :    0.029532
  27 H :    0.030965
  28 C :   -0.074522
  29 H :    0.019778
  30 H :    0.028148
  31 H :    0.020515
  32 H :    0.039400
  33 H :   -0.000207

  Mayer bond orders larger than 0.100000
B(  0-S ,  1-C ) :   1.1542 B(  0-S ,  4-C ) :   1.1425 B(  1-C ,  2-C ) :   1.6165
B(  1-C , 32-H ) :   0.9563 B(  2-C ,  3-C ) :   1.2281 B(  2-C ,  6-C ) :   1.0276
B(  3-C ,  4-C ) :   1.6112 B(  3-C ,  5-H ) :   0.9962 B(  4-C , 20-C ) :   1.0067
B(  6-C ,  7-H ) :   0.9368 B(  6-C ,  8-H ) :   0.9469 B(  6-C ,  9-C ) :   1.0424
B(  9-C , 10-H ) :   0.9593 B(  9-C , 11-H ) :   0.9570 B(  9-C , 12-C ) :   1.0628
B( 12-C , 13-H ) :   0.9753 B( 12-C , 14-H ) :   0.9763 B( 12-C , 15-H ) :   0.9727
B( 16-S , 17-C ) :   1.1475 B( 16-S , 20-C ) :   1.1256 B( 17-C , 18-C ) :   1.6403
B( 17-C , 33-H ) :   0.9801 B( 18-C , 19-C ) :   1.2181 B( 18-C , 21-H ) :   0.9905
B( 19-C , 20-C ) :   1.6090 B( 19-C , 22-C ) :   1.0444 B( 22-C , 23-H ) :   0.9399
B( 22-C , 24-H ) :   0.9341 B( 22-C , 25-C ) :   1.0420 B( 25-C , 26-H ) :   0.9584
B( 25-C , 27-H ) :   0.9592 B( 25-C , 28-C ) :   1.0766 B( 28-C , 29-H ) :   0.9734
B( 28-C , 30-H ) :   0.9749 B( 28-C , 31-H ) :   0.9764

Dispersion correction           -0.014783839
FINAL SINGLE POINT ENERGY     -1339.872495320166

DIPOLE MOMENT
-------------
                                X             Y             Z
Electronic contribution:     30.83956      -1.12649       6.85645
Nuclear contribution   :    -31.56539       0.98381      -6.89354
                        -----------------------------------------
Total Dipole Moment    :     -0.72583      -0.14268      -0.03709
                        -----------------------------------------
Magnitude (a.u.)       :      0.74065
Magnitude (Debye)      :      1.88259

Rotational constants in cm-1:     0.019055     0.008636     0.007024
Rotational constants in MHz :   571.268138   258.908345   210.560100

                             ****ORCA TERMINATED NORMALLY****
TOTAL RUN TIME: 0 days 0 hours 0 minutes 22 seconds 43 msec
