                         Program Version 4.2.1 -  RELEASE  -
|  1> ! wB97X-D3 SP def2-SVP
|  2> %pal
|  3> nprocs 24
|  4> end
|  5>
|  6> * xyz 0 1
|  7> S 	 26.8117 	 -22.3086 	 -123.618
|  8> C 	 27.1664 	 -22.4879 	 -125.311
|  9> C 	 26.1345 	 -23.1523 	 -125.956
| 10> C 	 25.0344 	 -23.4715 	 -125.076
| 11> C 	 25.2135 	 -23.0552 	 -123.749
| 12> H 	 24.021 	 -23.7341 	 -125.311
| 13> C 	 25.9421 	 -23.1694 	 -127.493
| 14> H 	 26.7575 	 -22.572 	 -127.921
| 15> H 	 24.9933 	 -22.5949 	 -127.651
| 16> C 	 25.7987 	 -24.6232 	 -128.185
| 17> H 	 25.0043 	 -25.2375 	 -127.781
| 18> H 	 25.4755 	 -24.318 	 -129.223
| 19> C 	 27.1394 	 -25.4322 	 -128.074
| 20> H 	 27.2938 	 -25.7307 	 -127.041
| 21> H 	 26.958 	 -26.3368 	 -128.667
| 22> H 	 27.9808 	 -24.8392 	 -128.413
| 23> S 	 23.9965 	 -24.8454 	 -122.166
| 24> C 	 22.7823 	 -24.3526 	 -120.98
| 25> C 	 22.8891 	 -23.0115 	 -120.825
| 26> C 	 23.6627 	 -22.3426 	 -121.736
| 27> C 	 24.2431 	 -23.1997 	 -122.64
| 28> H 	 22.4296 	 -22.5449 	 -119.981
| 29> C 	 23.7662 	 -20.8158 	 -121.737
| 30> H 	 22.7491 	 -20.4569 	 -121.831
| 31> H 	 24.1188 	 -20.5456 	 -122.681
| 32> C 	 24.4314 	 -20.1658 	 -120.571
| 33> H 	 23.7848 	 -20.271 	 -119.58
| 34> H 	 24.4703 	 -19.1056 	 -120.806
| 35> C 	 25.8552 	 -20.5742 	 -120.423
| 36> H 	 26.5267 	 -19.972 	 -119.767
| 37> H 	 26.4145 	 -20.4286 	 -121.329
| 38> H 	 25.9027 	 -21.6184 	 -120.175
| 39> H 	 28.1045 	 -22.239 	 -125.833
| 40> H 	 22.2551 	 -25.053 	 -120.344
| 41> *
| 42>
| 43>                          ****END OF INPUT****

CARTESIAN COORDINATES (ANGSTROEM)
---------------------------------
  S     26.811700  -22.308600  -123.618000
  C     27.166400  -22.487900  -125.311000
  C     26.134500  -23.152300  -125.956000
  C     25.034400  -23.471500  -125.076000
  C     25.213500  -23.055200  -123.749000
  H     24.021000  -23.734100  -125.311000
  C     25.942100  -23.169400  -127.493000
  H     26.757500  -22.572000  -127.921000
  H     24.993300  -22.594900  -127.651000
  C     25.798700  -24.623200  -128.185000
  H     25.004300  -25.237500  -127.781000
  H     25.475500  -24.318000  -129.223000
  C     27.139400  -25.432200  -128.074000
  H     27.293800  -25.730700  -127.041000
  H     26.958000  -26.336800  -128.667000
  H     27.980800  -24.839200  -128.413000
  S     23.996500  -24.845400  -122.166000
  C     22.782300  -24.352600  -120.980000
  C     22.889100  -23.011500  -120.825000
  C     23.662700  -22.342600  -121.736000
  C     24.243100  -23.199700  -122.640000
  H     22.429600  -22.544900  -119.981000
  C     23.766200  -20.815800  -121.737000
  H     22.749100  -20.456900  -121.831000
  H     24.118800  -20.545600  -122.681000
  C     24.431400  -20.165800  -120.571000
  H     23.784800  -20.271000  -119.580000
  H     24.470300  -19.105600  -120.806000
  C     25.855200  -20.574200  -120.423000
  H     26.526700  -19.972000  -119.767000
  H     26.414500  -20.428600  -121.329000
  H     25.902700  -21.618400  -120.175000
  H     28.104500  -22.239000  -125.833000
  H     22.255100  -25.053000  -120.344000

 Total Charge           Charge          ....    0
 Multiplicity           Mult            ....    1
 Number of Electrons    NEL             ....  134
 Basis Dimension        Dim             ....  322

ORBITAL ENERGIES
----------------

  NO   OCC          E(Eh)            E(eV)
   0   2.0000     -88.966859     -2420.9113
   1   2.0000     -88.962255     -2420.7860
   2   2.0000     -10.333813      -281.1973
   3   2.0000     -10.325606      -280.9740
   4   2.0000     -10.317223      -280.7459
   5   2.0000     -10.315026      -280.6861
   6   2.0000     -10.303506      -280.3727
   7   2.0000     -10.301556      -280.3196
   8   2.0000     -10.296492      -280.1818
   9   2.0000     -10.295758      -280.1618
  10   2.0000     -10.295117      -280.1444
  11   2.0000     -10.290926      -280.0303
  12   2.0000     -10.283668      -279.8328
  13   2.0000     -10.282680      -279.8059
  14   2.0000     -10.278672      -279.6969
  15   2.0000     -10.267498      -279.3928
  16   2.0000      -8.080841      -219.8909
  17   2.0000      -8.077352      -219.7959
  18   2.0000      -6.039408      -164.3407
  19   2.0000      -6.035693      -164.2396
  20   2.0000      -6.035269      -164.2280
  21   2.0000      -6.031928      -164.1371
  22   2.0000      -6.031747      -164.1322
  23   2.0000      -6.028106      -164.0331
  24   2.0000      -1.010824       -27.5059
  25   2.0000      -0.985183       -26.8082
  26   2.0000      -0.916963       -24.9518
  27   2.0000      -0.895724       -24.3739
  28   2.0000      -0.869771       -23.6677
  29   2.0000      -0.850284       -23.1374
  30   2.0000      -0.841108       -22.8877
  31   2.0000      -0.814595       -22.1663
  32   2.0000      -0.785275       -21.3684
  33   2.0000      -0.769968       -20.9519
  34   2.0000      -0.705785       -19.2054
  35   2.0000      -0.696957       -18.9652
  36   2.0000      -0.689551       -18.7636
  37   2.0000      -0.664909       -18.0931
  38   2.0000      -0.638435       -17.3727
  39   2.0000      -0.612501       -16.6670
  40   2.0000      -0.601486       -16.3673
  41   2.0000      -0.564245       -15.3539
  42   2.0000      -0.556425       -15.1411
  43   2.0000      -0.546186       -14.8625
  44   2.0000      -0.540515       -14.7082
  45   2.0000      -0.529651       -14.4125
  46   2.0000      -0.520405       -14.1609
  47   2.0000      -0.516291       -14.0490
  48   2.0000      -0.506296       -13.7770
  49   2.0000      -0.494422       -13.4539
  50   2.0000      -0.485631       -13.2147
  51   2.0000      -0.480296       -13.0695
  52   2.0000      -0.471837       -12.8393
  53   2.0000      -0.465441       -12.6653
  54   2.0000      -0.458053       -12.4643
  55   2.0000      -0.442190       -12.0326
  56   2.0000      -0.438928       -11.9438
  57   2.0000      -0.438447       -11.9307
  58   2.0000      -0.433436       -11.7944
  59   2.0000      -0.425811       -11.5869
  60   2.0000      -0.417681       -11.3657
  61   2.0000      -0.410478       -11.1697
  62   2.0000      -0.403964       -10.9924
  63   2.0000      -0.339275        -9.2321
  64   2.0000      -0.335000        -9.1158
  65   2.0000      -0.323138        -8.7930
  66   2.0000      -0.301382        -8.2010
  67   0.0000       0.031405         0.8546
  68   0.0000       0.066516         1.8100
  69   0.0000       0.110138         2.9970
  70   0.0000       0.112600         3.0640
  71   0.0000       0.134347         3.6558

MULLIKEN ATOMIC CHARGES
-----------------------
   0 S :    0.117140
   1 C :   -0.132482
   2 C :   -0.066720
   3 C :    0.035594
   4 C :   -0.168183
   5 H :    0.014404
   6 C :    0.000848
   7 H :    0.024166
   8 H :    0.048995
   9 C :   -0.093073
  10 H :    0.037062
  11 H :    0.039106
  12 C :   -0.047018
  13 H :    0.046027
  14 H :    0.041286
  15 H :    0.032784
  16 S :    0.106115
  17 C :   -0.088532
  18 C :   -0.032830
  19 C :   -0.028800
  20 C :   -0.191512
  21 H :    0.005866
  22 C :    0.120262
  23 H :    0.019933
  24 H :   -0.004641
  25 C :   -0.072426
  26 H :    0.046665
  27 H :    0.028273
  28 C :   -0.042125
  29 H :    0.030782
  30 H :    0.015289
  31 H :    0.037611
  32 H :    0.062671
  33 H :    0.057463
Sum of atomic charges:   -0.0000000

LOEWDIN ATOMIC CHARGES
----------------------
   0 S :    0.411274
   1 C :   -0.209797
   2 C :   -0.072449
   3 C :   -0.061913
   4 C :   -0.196898
   5 H :    0.029699
   6 C :   -0.033203
   7 H :    0.026732
   8 H :    0.037536
   9 C :   -0.040786
  10 H :    0.022066
  11 H :    0.027505
  12 C :   -0.063080
  13 H :    0.028979
  14 H :    0.029603
  15 H :    0.022490
  16 S :    0.415067
  17 C :   -0.174859
  18 C :   -0.070583
  19 C :   -0.063516
  20 C :   -0.202533
  21 H :    0.028456
  22 C :   -0.025873
  23 H :    0.034905
  24 H :    0.021285
  25 C :   -0.047701
  26 H :    0.033929
  27 H :    0.028533
  28 C :   -0.073652
  29 H :    0.030763
  30 H :    0.017919
  31 H :    0.022841
  32 H :    0.037649
  33 H :    0.029611

  Mayer bond orders larger than 0.100000
B(  0-S ,  1-C ) :   1.1430 B(  0-S ,  4-C ) :   1.1403 B(  1-C ,  2-C ) :   1.6096
B(  1-C , 32-H ) :   0.9606 B(  2-C ,  3-C ) :   1.2271 B(  2-C ,  6-C ) :   1.0147
B(  3-C ,  4-C ) :   1.5866 B(  3-C ,  5-H ) :   0.9895 B(  4-C , 20-C ) :   1.0188
B(  6-C ,  7-H ) :   0.9526 B(  6-C ,  8-H ) :   0.9503 B(  6-C ,  9-C ) :   1.0470
B(  9-C , 10-H ) :   0.9621 B(  9-C , 11-H ) :   0.9609 B(  9-C , 12-C ) :   1.0613
B( 12-C , 13-H ) :   0.9754 B( 12-C , 14-H ) :   0.9758 B( 12-C , 15-H ) :   0.9797
B( 16-S , 17-C ) :   1.1499 B( 16-S , 20-C ) :   1.1769 B( 17-C , 18-C ) :   1.5827
B( 17-C , 20-C ) :   0.1066 B( 17-C , 33-H ) :   0.9727 B( 18-C , 19-C ) :   1.2694
B( 18-C , 21-H ) :   0.9946 B( 19-C , 20-C ) :   1.5632 B( 19-C , 22-C ) :   1.0284
B( 22-C , 23-H ) :   0.9289 B( 22-C , 24-H ) :   0.9250 B( 22-C , 25-C ) :   1.0844
B( 25-C , 26-H ) :   0.9507 B( 25-C , 27-H ) :   0.9459 B( 25-C , 28-C ) :   1.0769
B( 28-C , 29-H ) :   0.9699 B( 28-C , 30-H ) :   0.9631 B( 28-C , 31-H ) :   0.9745

Dispersion correction           -0.015092517
FINAL SINGLE POINT ENERGY     -1339.868901519183

DIPOLE MOMENT
-------------
                                X             Y             Z
Electronic contribution:     -2.93381      -6.07565       9.29681
Nuclear contribution   :      2.74898       6.35982      -9.48972
                        -----------------------------------------
Total Dipole Moment    :     -0.18483       0.28417      -0.19291
                        -----------------------------------------
Magnitude (a.u.)       :      0.39003
Magnitude (Debye)      :      0.99138

Rotational constants in cm-1:     0.023828     0.007938     0.006605
Rotational constants in MHz :   714.332761   237.974160   198.004061

                             ****ORCA TERMINATED NORMALLY****
TOTAL RUN TIME: 0 days 0 hours 0 minutes 21 seconds 686 msec
