                         Program Version 4.2.1 -  RELEASE  -
|  1> ! wB97X-D3 SP def2-SVP
|  2> %pal
|  3> nprocs 24
|  4> end
|  5>
|  6> * xyz 0 1
|  7> S 	 -63.2628 	 8.64806 	 -73.3376
|  8> C 	 -63.9832 	 8.49 	 -71.795
|  9> C 	 -65.2621 	 7.98852 	 -71.828
| 10> C 	 -65.6913 	 7.90272 	 -73.1763
| 11> C 	 -64.7802 	 8.26297 	 -74.1481
| 12> H 	 -66.7184 	 7.67318 	 -73.4457
| 13> C 	 -66.1907 	 7.83628 	 -70.6054
| 14> H 	 -66.287 	 8.82545 	 -70.1544
| 15> H 	 -65.5482 	 7.26448 	 -69.8674
| 16> C 	 -67.623 	 7.4013 	 -70.6895
| 17> H 	 -68.1427 	 7.46035 	 -69.7239
| 18> H 	 -68.1608 	 7.97937 	 -71.5154
| 19> C 	 -67.8629 	 5.89726 	 -71.0936
| 20> H 	 -68.9053 	 5.75189 	 -71.2531
| 21> H 	 -67.2653 	 5.55814 	 -71.9024
| 22> H 	 -67.5707 	 5.22364 	 -70.3333
| 23> S 	 -63.7879 	 9.44083 	 -76.381
| 24> C 	 -64.8047 	 9.56864 	 -77.7711
| 25> C 	 -65.8174 	 8.65491 	 -77.6359
| 26> C 	 -66.0253 	 8.08314 	 -76.3552
| 27> C 	 -64.9683 	 8.4674 	 -75.5523
| 28> H 	 -66.5554 	 8.63902 	 -78.3669
| 29> C 	 -67.2328 	 7.24548 	 -76.0166
| 30> H 	 -67.9529 	 7.24601 	 -76.8864
| 31> H 	 -67.8506 	 7.81881 	 -75.2943
| 32> C 	 -66.8163 	 5.72642 	 -75.5726
| 33> H 	 -67.6543 	 5.36742 	 -75.059
| 34> H 	 -65.9722 	 5.76189 	 -74.8714
| 35> C 	 -66.4387 	 4.91216 	 -76.8844
| 36> H 	 -67.2471 	 4.69544 	 -77.5899
| 37> H 	 -66.1026 	 3.94127 	 -76.4681
| 38> H 	 -65.6389 	 5.35214 	 -77.4757
| 39> H 	 -63.3931 	 8.53147 	 -70.9375
| 40> H 	 -64.5333 	 10.1264 	 -78.7027
| 41> *
| 42>
| 43>                          ****END OF INPUT****

CARTESIAN COORDINATES (ANGSTROEM)
---------------------------------
  S    -63.262800    8.648060  -73.337600
  C    -63.983200    8.490000  -71.795000
  C    -65.262100    7.988520  -71.828000
  C    -65.691300    7.902720  -73.176300
  C    -64.780200    8.262970  -74.148100
  H    -66.718400    7.673180  -73.445700
  C    -66.190700    7.836280  -70.605400
  H    -66.287000    8.825450  -70.154400
  H    -65.548200    7.264480  -69.867400
  C    -67.623000    7.401300  -70.689500
  H    -68.142700    7.460350  -69.723900
  H    -68.160800    7.979370  -71.515400
  C    -67.862900    5.897260  -71.093600
  H    -68.905300    5.751890  -71.253100
  H    -67.265300    5.558140  -71.902400
  H    -67.570700    5.223640  -70.333300
  S    -63.787900    9.440830  -76.381000
  C    -64.804700    9.568640  -77.771100
  C    -65.817400    8.654910  -77.635900
  C    -66.025300    8.083140  -76.355200
  C    -64.968300    8.467400  -75.552300
  H    -66.555400    8.639020  -78.366900
  C    -67.232800    7.245480  -76.016600
  H    -67.952900    7.246010  -76.886400
  H    -67.850600    7.818810  -75.294300
  C    -66.816300    5.726420  -75.572600
  H    -67.654300    5.367420  -75.059000
  H    -65.972200    5.761890  -74.871400
  C    -66.438700    4.912160  -76.884400
  H    -67.247100    4.695440  -77.589900
  H    -66.102600    3.941270  -76.468100
  H    -65.638900    5.352140  -77.475700
  H    -63.393100    8.531470  -70.937500
  H    -64.533300   10.126400  -78.702700

 Total Charge           Charge          ....    0
 Multiplicity           Mult            ....    1
 Number of Electrons    NEL             ....  134
 Basis Dimension        Dim             ....  322

ORBITAL ENERGIES
----------------

  NO   OCC          E(Eh)            E(eV)
   0   2.0000     -88.964006     -2420.8337
   1   2.0000     -88.963436     -2420.8182
   2   2.0000     -10.326267      -280.9920
   3   2.0000     -10.323399      -280.9140
   4   2.0000     -10.316979      -280.7393
   5   2.0000     -10.305031      -280.4141
   6   2.0000     -10.303989      -280.3858
   7   2.0000     -10.301001      -280.3045
   8   2.0000     -10.300017      -280.2777
   9   2.0000     -10.298912      -280.2476
  10   2.0000     -10.298723      -280.2425
  11   2.0000     -10.295918      -280.1662
  12   2.0000     -10.289424      -279.9895
  13   2.0000     -10.284412      -279.8531
  14   2.0000     -10.282462      -279.8000
  15   2.0000     -10.268563      -279.4218
  16   2.0000      -8.079556      -219.8559
  17   2.0000      -8.078846      -219.8366
  18   2.0000      -6.038040      -164.3034
  19   2.0000      -6.037366      -164.2851
  20   2.0000      -6.034017      -164.1939
  21   2.0000      -6.033279      -164.1739
  22   2.0000      -6.030237      -164.0911
  23   2.0000      -6.029570      -164.0729
  24   2.0000      -1.013834       -27.5878
  25   2.0000      -0.989786       -26.9335
  26   2.0000      -0.910379       -24.7727
  27   2.0000      -0.899511       -24.4769
  28   2.0000      -0.873607       -23.7721
  29   2.0000      -0.849448       -23.1147
  30   2.0000      -0.842712       -22.9314
  31   2.0000      -0.815314       -22.1858
  32   2.0000      -0.786261       -21.3952
  33   2.0000      -0.774758       -21.0822
  34   2.0000      -0.714979       -19.4556
  35   2.0000      -0.702807       -19.1244
  36   2.0000      -0.691568       -18.8185
  37   2.0000      -0.665250       -18.1024
  38   2.0000      -0.637107       -17.3365
  39   2.0000      -0.625401       -17.0180
  40   2.0000      -0.594940       -16.1891
  41   2.0000      -0.561544       -15.2804
  42   2.0000      -0.548868       -14.9354
  43   2.0000      -0.547413       -14.8959
  44   2.0000      -0.543850       -14.7989
  45   2.0000      -0.537225       -14.6186
  46   2.0000      -0.520874       -14.1737
  47   2.0000      -0.507126       -13.7996
  48   2.0000      -0.505231       -13.7480
  49   2.0000      -0.497086       -13.5264
  50   2.0000      -0.491664       -13.3789
  51   2.0000      -0.482840       -13.1388
  52   2.0000      -0.480399       -13.0723
  53   2.0000      -0.470372       -12.7995
  54   2.0000      -0.455150       -12.3853
  55   2.0000      -0.447994       -12.1905
  56   2.0000      -0.443066       -12.0564
  57   2.0000      -0.438216       -11.9245
  58   2.0000      -0.428051       -11.6479
  59   2.0000      -0.421790       -11.4775
  60   2.0000      -0.420241       -11.4353
  61   2.0000      -0.416645       -11.3375
  62   2.0000      -0.413775       -11.2594
  63   2.0000      -0.363616        -9.8945
  64   2.0000      -0.335345        -9.1252
  65   2.0000      -0.326239        -8.8774
  66   2.0000      -0.276619        -7.5272
  67   0.0000       0.018528         0.5042
  68   0.0000       0.085179         2.3179
  69   0.0000       0.101203         2.7539
  70   0.0000       0.124899         3.3987
  71   0.0000       0.128991         3.5100

MULLIKEN ATOMIC CHARGES
-----------------------
   0 S :    0.101808
   1 C :   -0.108527
   2 C :   -0.058785
   3 C :   -0.025490
   4 C :   -0.114592
   5 H :   -0.010061
   6 C :    0.047074
   7 H :    0.047339
   8 H :    0.035839
   9 C :   -0.099324
  10 H :    0.043739
  11 H :    0.045824
  12 C :   -0.035334
  13 H :    0.029201
  14 H :    0.021381
  15 H :    0.012983
  16 S :    0.103308
  17 C :   -0.115928
  18 C :    0.006801
  19 C :   -0.067599
  20 C :   -0.110382
  21 H :   -0.012530
  22 C :   -0.003099
  23 H :    0.024642
  24 H :    0.047411
  25 C :   -0.049954
  26 H :    0.024565
  27 H :    0.061471
  28 C :   -0.067567
  29 H :    0.035596
  30 H :    0.037556
  31 H :    0.048838
  32 H :    0.025322
  33 H :    0.078475
Sum of atomic charges:   -0.0000000

LOEWDIN ATOMIC CHARGES
----------------------
   0 S :    0.410162
   1 C :   -0.196260
   2 C :   -0.063013
   3 C :   -0.073164
   4 C :   -0.184770
   5 H :    0.025094
   6 C :   -0.042501
   7 H :    0.040986
   8 H :    0.038046
   9 C :   -0.044967
  10 H :    0.034797
  11 H :    0.033640
  12 C :   -0.066028
  13 H :    0.022451
  14 H :    0.018425
  15 H :    0.018647
  16 S :    0.412579
  17 C :   -0.198624
  18 C :   -0.068563
  19 C :   -0.059306
  20 C :   -0.194379
  21 H :    0.015620
  22 C :   -0.041323
  23 H :    0.034710
  24 H :    0.031547
  25 C :   -0.021740
  26 H :    0.015268
  27 H :    0.030468
  28 C :   -0.066875
  29 H :    0.024649
  30 H :    0.030048
  31 H :    0.028491
  32 H :    0.013119
  33 H :    0.042765

  Mayer bond orders larger than 0.100000
B(  0-S ,  1-C ) :   1.1571 B(  0-S ,  4-C ) :   1.1386 B(  1-C ,  2-C ) :   1.5992
B(  1-C , 32-H ) :   0.9736 B(  2-C ,  3-C ) :   1.2768 B(  2-C ,  6-C ) :   0.9936
B(  3-C ,  4-C ) :   1.5523 B(  3-C ,  5-H ) :   0.9804 B(  4-C , 20-C ) :   1.1094
B(  6-C ,  7-H ) :   0.9411 B(  6-C ,  8-H ) :   0.9364 B(  6-C ,  9-C ) :   1.0912
B(  9-C , 10-H ) :   0.9516 B(  9-C , 11-H ) :   0.9485 B(  9-C , 12-C ) :   1.0734
B( 12-C , 13-H ) :   0.9779 B( 12-C , 14-H ) :   0.9774 B( 12-C , 15-H ) :   0.9721
B( 16-S , 17-C ) :   1.1518 B( 16-S , 20-C ) :   1.1432 B( 17-C , 18-C ) :   1.6000
B( 17-C , 33-H ) :   0.9629 B( 18-C , 19-C ) :   1.2661 B( 18-C , 21-H ) :   0.9862
B( 19-C , 20-C ) :   1.5622 B( 19-C , 22-C ) :   1.0400 B( 22-C , 23-H ) :   0.9355
B( 22-C , 24-H ) :   0.9309 B( 22-C , 25-C ) :   1.0379 B( 25-C , 26-H ) :   0.9597
B( 25-C , 27-H ) :   0.9625 B( 25-C , 28-C ) :   1.0562 B( 28-C , 29-H ) :   0.9783
B( 28-C , 30-H ) :   0.9761 B( 28-C , 31-H ) :   0.9797

Dispersion correction           -0.015282645
FINAL SINGLE POINT ENERGY     -1339.867023415618

DIPOLE MOMENT
-------------
                                X             Y             Z
Electronic contribution:     22.29141      17.93453      -7.99259
Nuclear contribution   :    -22.96288     -18.16167       8.14791
                        -----------------------------------------
Total Dipole Moment    :     -0.67146      -0.22714       0.15532
                        -----------------------------------------
Magnitude (a.u.)       :      0.72566
Magnitude (Debye)      :      1.84447

Rotational constants in cm-1:     0.018211     0.010283     0.007350
Rotational constants in MHz :   545.939900   308.288430   220.337622

                             ****ORCA TERMINATED NORMALLY****
TOTAL RUN TIME: 0 days 0 hours 0 minutes 21 seconds 557 msec
