                         Program Version 4.2.1 -  RELEASE  -
|  1> ! wB97X-D3 SP def2-SVP
|  2> %pal
|  3> nprocs 24
|  4> end
|  5>
|  6> * xyz 0 1
|  7> S 	 -104.175 	 -2.31363 	 -110.376
|  8> C 	 -105.823 	 -2.31844 	 -110.963
|  9> C 	 -106.691 	 -1.48034 	 -110.3
| 10> C 	 -105.927 	 -0.772205 	 -109.297
| 11> C 	 -104.584 	 -1.00233 	 -109.29
| 12> H 	 -106.305 	 0.0043198 	 -108.723
| 13> C 	 -108.161 	 -1.20555 	 -110.388
| 14> H 	 -108.336 	 -1.10527 	 -111.481
| 15> H 	 -108.321 	 -0.15197 	 -110.011
| 16> C 	 -109.053 	 -2.29662 	 -109.823
| 17> H 	 -109.016 	 -3.21133 	 -110.408
| 18> H 	 -108.645 	 -2.48273 	 -108.829
| 19> C 	 -110.581 	 -1.88465 	 -109.735
| 20> H 	 -110.9 	 -1.36475 	 -110.569
| 21> H 	 -111.133 	 -2.87105 	 -109.58
| 22> H 	 -110.748 	 -1.3069 	 -108.844
| 23> S 	 -102.522 	 -1.15772 	 -107.469
| 24> C 	 -101.824 	 0.241609 	 -106.78
| 25> C 	 -102.211 	 1.36817 	 -107.453
| 26> C 	 -103.17 	 1.07233 	 -108.496
| 27> C 	 -103.485 	 -0.306468 	 -108.596
| 28> H 	 -101.834 	 2.37743 	 -107.29
| 29> C 	 -103.865 	 2.07276 	 -109.349
| 30> H 	 -103.851 	 3.05059 	 -108.848
| 31> H 	 -104.935 	 1.84601 	 -109.44
| 32> C 	 -103.385 	 2.23744 	 -110.758
| 33> H 	 -102.381 	 2.5438 	 -110.748
| 34> H 	 -103.974 	 2.98651 	 -111.234
| 35> C 	 -103.269 	 0.971496 	 -111.65
| 36> H 	 -102.487 	 0.257528 	 -111.527
| 37> H 	 -103.389 	 1.16784 	 -112.714
| 38> H 	 -104.225 	 0.404197 	 -111.577
| 39> H 	 -106.189 	 -3.04108 	 -111.59
| 40> H 	 -101.066 	 0.414404 	 -106.018
| 41> *
| 42>
| 43>                          ****END OF INPUT****

CARTESIAN COORDINATES (ANGSTROEM)
---------------------------------
  S    -104.175000   -2.313630  -110.376000
  C    -105.823000   -2.318440  -110.963000
  C    -106.691000   -1.480340  -110.300000
  C    -105.927000   -0.772205  -109.297000
  C    -104.584000   -1.002330  -109.290000
  H    -106.305000    0.004320  -108.723000
  C    -108.161000   -1.205550  -110.388000
  H    -108.336000   -1.105270  -111.481000
  H    -108.321000   -0.151970  -110.011000
  C    -109.053000   -2.296620  -109.823000
  H    -109.016000   -3.211330  -110.408000
  H    -108.645000   -2.482730  -108.829000
  C    -110.581000   -1.884650  -109.735000
  H    -110.900000   -1.364750  -110.569000
  H    -111.133000   -2.871050  -109.580000
  H    -110.748000   -1.306900  -108.844000
  S    -102.522000   -1.157720  -107.469000
  C    -101.824000    0.241609  -106.780000
  C    -102.211000    1.368170  -107.453000
  C    -103.170000    1.072330  -108.496000
  C    -103.485000   -0.306468  -108.596000
  H    -101.834000    2.377430  -107.290000
  C    -103.865000    2.072760  -109.349000
  H    -103.851000    3.050590  -108.848000
  H    -104.935000    1.846010  -109.440000
  C    -103.385000    2.237440  -110.758000
  H    -102.381000    2.543800  -110.748000
  H    -103.974000    2.986510  -111.234000
  C    -103.269000    0.971496  -111.650000
  H    -102.487000    0.257528  -111.527000
  H    -103.389000    1.167840  -112.714000
  H    -104.225000    0.404197  -111.577000
  H    -106.189000   -3.041080  -111.590000
  H    -101.066000    0.414404  -106.018000

 Total Charge           Charge          ....    0
 Multiplicity           Mult            ....    1
 Number of Electrons    NEL             ....  134
 Basis Dimension        Dim             ....  322

ORBITAL ENERGIES
----------------

  NO   OCC          E(Eh)            E(eV)
   0   2.0000     -88.966242     -2420.8945
   1   2.0000     -88.964980     -2420.8602
   2   2.0000     -10.328125      -281.0426
   3   2.0000     -10.324184      -280.9353
   4   2.0000     -10.314649      -280.6759
   5   2.0000     -10.308287      -280.5028
   6   2.0000     -10.302052      -280.3331
   7   2.0000     -10.300971      -280.3037
   8   2.0000     -10.299385      -280.2605
   9   2.0000     -10.293884      -280.1108
  10   2.0000     -10.291343      -280.0417
  11   2.0000     -10.286303      -279.9045
  12   2.0000     -10.283552      -279.8297
  13   2.0000     -10.281071      -279.7622
  14   2.0000     -10.273436      -279.5544
  15   2.0000     -10.264496      -279.3111
  16   2.0000      -8.082088      -219.9248
  17   2.0000      -8.079756      -219.8613
  18   2.0000      -6.040625      -164.3738
  19   2.0000      -6.038233      -164.3087
  20   2.0000      -6.036111      -164.2509
  21   2.0000      -6.034394      -164.2042
  22   2.0000      -6.033074      -164.1683
  23   2.0000      -6.030412      -164.0959
  24   2.0000      -1.010456       -27.4959
  25   2.0000      -0.988554       -26.8999
  26   2.0000      -0.913608       -24.8605
  27   2.0000      -0.910872       -24.7861
  28   2.0000      -0.869428       -23.6584
  29   2.0000      -0.849925       -23.1276
  30   2.0000      -0.842938       -22.9375
  31   2.0000      -0.817567       -22.2471
  32   2.0000      -0.785625       -21.3779
  33   2.0000      -0.773387       -21.0449
  34   2.0000      -0.707962       -19.2646
  35   2.0000      -0.705644       -19.2016
  36   2.0000      -0.691576       -18.8187
  37   2.0000      -0.658621       -17.9220
  38   2.0000      -0.647164       -17.6102
  39   2.0000      -0.623272       -16.9601
  40   2.0000      -0.597495       -16.2587
  41   2.0000      -0.569932       -15.5086
  42   2.0000      -0.565521       -15.3886
  43   2.0000      -0.548728       -14.9316
  44   2.0000      -0.541520       -14.7355
  45   2.0000      -0.529872       -14.4185
  46   2.0000      -0.520076       -14.1520
  47   2.0000      -0.511071       -13.9069
  48   2.0000      -0.504994       -13.7416
  49   2.0000      -0.499909       -13.6032
  50   2.0000      -0.487147       -13.2559
  51   2.0000      -0.476657       -12.9705
  52   2.0000      -0.469834       -12.7848
  53   2.0000      -0.462818       -12.5939
  54   2.0000      -0.459393       -12.5007
  55   2.0000      -0.450340       -12.2544
  56   2.0000      -0.446364       -12.1462
  57   2.0000      -0.444215       -12.0877
  58   2.0000      -0.426930       -11.6174
  59   2.0000      -0.422884       -11.5073
  60   2.0000      -0.419613       -11.4183
  61   2.0000      -0.416205       -11.3255
  62   2.0000      -0.396253       -10.7826
  63   2.0000      -0.344211        -9.3665
  64   2.0000      -0.331803        -9.0288
  65   2.0000      -0.325759        -8.8644
  66   2.0000      -0.296839        -8.0774
  67   0.0000       0.036189         0.9847
  68   0.0000       0.065707         1.7880
  69   0.0000       0.109786         2.9874
  70   0.0000       0.120411         3.2766
  71   0.0000       0.133218         3.6251

MULLIKEN ATOMIC CHARGES
-----------------------
   0 S :    0.112492
   1 C :   -0.083962
   2 C :   -0.102951
   3 C :    0.056877
   4 C :   -0.166727
   5 H :   -0.016575
   6 C :    0.051920
   7 H :    0.028915
   8 H :    0.034579
   9 C :   -0.076410
  10 H :    0.034498
  11 H :    0.034105
  12 C :   -0.033177
  13 H :    0.025222
  14 H :    0.044032
  15 H :    0.032792
  16 S :    0.127976
  17 C :   -0.068282
  18 C :   -0.049331
  19 C :   -0.058740
  20 C :   -0.144365
  21 H :    0.020967
  22 C :    0.065558
  23 H :    0.013895
  24 H :    0.015667
  25 C :   -0.007016
  26 H :    0.007707
  27 H :    0.020682
  28 C :   -0.059600
  29 H :    0.039808
  30 H :    0.018921
  31 H :    0.017946
  32 H :    0.006240
  33 H :    0.056338
Sum of atomic charges:    0.0000000

LOEWDIN ATOMIC CHARGES
----------------------
   0 S :    0.407731
   1 C :   -0.182307
   2 C :   -0.058742
   3 C :   -0.054576
   4 C :   -0.187250
   5 H :    0.016565
   6 C :   -0.042361
   7 H :    0.034753
   8 H :    0.037928
   9 C :   -0.036221
  10 H :    0.025020
  11 H :    0.026343
  12 C :   -0.057673
  13 H :    0.012822
  14 H :    0.037651
  15 H :    0.023551
  16 S :    0.447651
  17 C :   -0.205942
  18 C :   -0.074616
  19 C :   -0.053186
  20 C :   -0.223701
  21 H :    0.032954
  22 C :   -0.041122
  23 H :    0.031506
  24 H :    0.030299
  25 C :   -0.031540
  26 H :    0.017014
  27 H :    0.023655
  28 C :   -0.077014
  29 H :    0.019326
  30 H :    0.028457
  31 H :    0.027058
  32 H :    0.006749
  33 H :    0.039219

  Mayer bond orders larger than 0.100000
B(  0-S ,  1-C ) :   1.1399 B(  0-S ,  4-C ) :   1.1462 B(  1-C ,  2-C ) :   1.6337
B(  1-C , 32-H ) :   0.9744 B(  2-C ,  3-C ) :   1.2168 B(  2-C ,  6-C ) :   1.0184
B(  3-C ,  4-C ) :   1.6231 B(  3-C ,  5-H ) :   1.0007 B(  4-C , 20-C ) :   0.9874
B(  6-C ,  7-H ) :   0.9270 B(  6-C ,  8-H ) :   0.9439 B(  6-C ,  9-C ) :   1.0597
B(  9-C , 10-H ) :   0.9588 B(  9-C , 11-H ) :   0.9601 B(  9-C , 12-C ) :   1.0720
B( 12-C , 13-H ) :   0.9774 B( 12-C , 14-H ) :   0.9780 B( 12-C , 15-H ) :   0.9791
B( 16-S , 17-C ) :   1.1736 B( 16-S , 20-C ) :   1.1613 B( 17-C , 18-C ) :   1.5792
B( 17-C , 33-H ) :   0.9624 B( 18-C , 19-C ) :   1.2865 B( 18-C , 21-H ) :   0.9867
B( 19-C , 20-C ) :   1.5570 B( 19-C , 22-C ) :   1.0525 B( 22-C , 23-H ) :   0.9248
B( 22-C , 24-H ) :   0.9276 B( 22-C , 25-C ) :   1.0934 B( 25-C , 26-H ) :   0.9478
B( 25-C , 27-H ) :   0.9512 B( 25-C , 28-C ) :   1.0789 B( 28-C , 29-H ) :   0.9751
B( 28-C , 30-H ) :   0.9675 B( 28-C , 31-H ) :   0.9663

Dispersion correction           -0.015638330
FINAL SINGLE POINT ENERGY     -1339.864052490529

DIPOLE MOMENT
-------------
                                X             Y             Z
Electronic contribution:     20.49861      -9.39309       9.90538
Nuclear contribution   :    -21.01156       9.82587      -9.95909
                        -----------------------------------------
Total Dipole Moment    :     -0.51295       0.43278      -0.05371
                        -----------------------------------------
Magnitude (a.u.)       :      0.67328
Magnitude (Debye)      :      1.71133

Rotational constants in cm-1:     0.022074     0.007839     0.007370
Rotational constants in MHz :   661.768064   234.999478   220.935333

                             ****ORCA TERMINATED NORMALLY****
TOTAL RUN TIME: 0 days 0 hours 0 minutes 22 seconds 589 msec
