                         Program Version 4.2.1 -  RELEASE  -
|  1> ! wB97X-D3 SP def2-SVP
|  2> %pal
|  3> nprocs 24
|  4> end
|  5>
|  6> * xyz 0 1
|  7> S 	 -10.0338 	 -30.7634 	 -110.177
|  8> C 	 -9.74261 	 -29.4964 	 -108.981
|  9> C 	 -9.6931 	 -29.8674 	 -107.675
| 10> C 	 -10.0375 	 -31.2253 	 -107.575
| 11> C 	 -10.0491 	 -31.908 	 -108.837
| 12> H 	 -10.3138 	 -31.7837 	 -106.765
| 13> C 	 -9.32945 	 -28.9864 	 -106.523
| 14> H 	 -10.101 	 -28.8366 	 -105.742
| 15> H 	 -9.15348 	 -27.996 	 -106.84
| 16> C 	 -8.0007 	 -29.3009 	 -105.81
| 17> H 	 -7.92406 	 -28.8048 	 -104.904
| 18> H 	 -8.07311 	 -30.3159 	 -105.579
| 19> C 	 -6.73469 	 -28.9241 	 -106.63
| 20> H 	 -6.68306 	 -27.8232 	 -106.775
| 21> H 	 -5.84363 	 -29.2581 	 -106.039
| 22> H 	 -6.5846 	 -29.5637 	 -107.467
| 23> S 	 -11.9661 	 -33.6115 	 -109.982
| 24> C 	 -11.7159 	 -35.3363 	 -109.924
| 25> C 	 -10.6613 	 -35.6103 	 -109.055
| 26> C 	 -9.78646 	 -34.4676 	 -108.741
| 27> C 	 -10.4623 	 -33.2726 	 -109.018
| 28> H 	 -10.5153 	 -36.6517 	 -109.029
| 29> C 	 -8.46098 	 -34.6153 	 -108.056
| 30> H 	 -8.51365 	 -35.5103 	 -107.504
| 31> H 	 -8.44245 	 -33.7845 	 -107.276
| 32> C 	 -7.20162 	 -34.7584 	 -108.901
| 33> H 	 -7.15384 	 -35.7041 	 -109.387
| 34> H 	 -6.34217 	 -34.8253 	 -108.295
| 35> C 	 -7.03824 	 -33.5363 	 -109.799
| 36> H 	 -7.90189 	 -33.274 	 -110.437
| 37> H 	 -6.2769 	 -33.8331 	 -110.489
| 38> H 	 -6.7348 	 -32.5593 	 -109.298
| 39> H 	 -9.39368 	 -28.5286 	 -109.259
| 40> H 	 -12.468 	 -36.0449 	 -110.27
| 41> *
| 42>
| 43>                          ****END OF INPUT****

CARTESIAN COORDINATES (ANGSTROEM)
---------------------------------
  S    -10.033800  -30.763400  -110.177000
  C     -9.742610  -29.496400  -108.981000
  C     -9.693100  -29.867400  -107.675000
  C    -10.037500  -31.225300  -107.575000
  C    -10.049100  -31.908000  -108.837000
  H    -10.313800  -31.783700  -106.765000
  C     -9.329450  -28.986400  -106.523000
  H    -10.101000  -28.836600  -105.742000
  H     -9.153480  -27.996000  -106.840000
  C     -8.000700  -29.300900  -105.810000
  H     -7.924060  -28.804800  -104.904000
  H     -8.073110  -30.315900  -105.579000
  C     -6.734690  -28.924100  -106.630000
  H     -6.683060  -27.823200  -106.775000
  H     -5.843630  -29.258100  -106.039000
  H     -6.584600  -29.563700  -107.467000
  S    -11.966100  -33.611500  -109.982000
  C    -11.715900  -35.336300  -109.924000
  C    -10.661300  -35.610300  -109.055000
  C     -9.786460  -34.467600  -108.741000
  C    -10.462300  -33.272600  -109.018000
  H    -10.515300  -36.651700  -109.029000
  C     -8.460980  -34.615300  -108.056000
  H     -8.513650  -35.510300  -107.504000
  H     -8.442450  -33.784500  -107.276000
  C     -7.201620  -34.758400  -108.901000
  H     -7.153840  -35.704100  -109.387000
  H     -6.342170  -34.825300  -108.295000
  C     -7.038240  -33.536300  -109.799000
  H     -7.901890  -33.274000  -110.437000
  H     -6.276900  -33.833100  -110.489000
  H     -6.734800  -32.559300  -109.298000
  H     -9.393680  -28.528600  -109.259000
  H    -12.468000  -36.044900  -110.270000

 Total Charge           Charge          ....    0
 Multiplicity           Mult            ....    1
 Number of Electrons    NEL             ....  134
 Basis Dimension        Dim             ....  322

ORBITAL ENERGIES
----------------

  NO   OCC          E(Eh)            E(eV)
   0   2.0000     -88.971592     -2421.0401
   1   2.0000     -88.958982     -2420.6970
   2   2.0000     -10.330520      -281.1077
   3   2.0000     -10.327933      -281.0373
   4   2.0000     -10.318304      -280.7753
   5   2.0000     -10.311443      -280.5886
   6   2.0000     -10.310751      -280.5698
   7   2.0000     -10.299645      -280.2676
   8   2.0000     -10.293088      -280.0892
   9   2.0000     -10.293079      -280.0889
  10   2.0000     -10.289372      -279.9881
  11   2.0000     -10.288034      -279.9516
  12   2.0000     -10.281470      -279.7730
  13   2.0000     -10.279520      -279.7200
  14   2.0000     -10.277573      -279.6670
  15   2.0000     -10.271537      -279.5027
  16   2.0000      -8.085544      -220.0188
  17   2.0000      -8.073210      -219.6832
  18   2.0000      -6.043968      -164.4647
  19   2.0000      -6.040312      -164.3652
  20   2.0000      -6.036276      -164.2554
  21   2.0000      -6.031775      -164.1329
  22   2.0000      -6.027768      -164.0239
  23   2.0000      -6.023941      -163.9198
  24   2.0000      -1.001779       -27.2598
  25   2.0000      -0.977229       -26.5918
  26   2.0000      -0.915278       -24.9060
  27   2.0000      -0.910152       -24.7665
  28   2.0000      -0.869333       -23.6558
  29   2.0000      -0.852057       -23.1856
  30   2.0000      -0.841160       -22.8891
  31   2.0000      -0.810120       -22.0445
  32   2.0000      -0.786244       -21.3948
  33   2.0000      -0.774454       -21.0740
  34   2.0000      -0.715171       -19.4608
  35   2.0000      -0.702275       -19.1099
  36   2.0000      -0.694301       -18.8929
  37   2.0000      -0.654702       -17.8153
  38   2.0000      -0.646673       -17.5969
  39   2.0000      -0.622927       -16.9507
  40   2.0000      -0.586469       -15.9586
  41   2.0000      -0.572040       -15.5660
  42   2.0000      -0.554530       -15.0895
  43   2.0000      -0.552883       -15.0447
  44   2.0000      -0.548365       -14.9218
  45   2.0000      -0.539245       -14.6736
  46   2.0000      -0.516297       -14.0491
  47   2.0000      -0.515041       -14.0150
  48   2.0000      -0.500580       -13.6215
  49   2.0000      -0.492187       -13.3931
  50   2.0000      -0.489697       -13.3253
  51   2.0000      -0.477634       -12.9971
  52   2.0000      -0.464981       -12.6528
  53   2.0000      -0.461140       -12.5483
  54   2.0000      -0.457898       -12.4600
  55   2.0000      -0.450778       -12.2663
  56   2.0000      -0.442966       -12.0537
  57   2.0000      -0.434694       -11.8286
  58   2.0000      -0.428808       -11.6684
  59   2.0000      -0.423442       -11.5224
  60   2.0000      -0.419251       -11.4084
  61   2.0000      -0.413927       -11.2635
  62   2.0000      -0.410944       -11.1824
  63   2.0000      -0.338970        -9.2238
  64   2.0000      -0.336206        -9.1486
  65   2.0000      -0.323150        -8.7934
  66   2.0000      -0.291878        -7.9424
  67   0.0000       0.024865         0.6766
  68   0.0000       0.060286         1.6405
  69   0.0000       0.106547         2.8993
  70   0.0000       0.113305         3.0832
  71   0.0000       0.122324         3.3286

MULLIKEN ATOMIC CHARGES
-----------------------
   0 S :    0.122419
   1 C :   -0.098066
   2 C :   -0.042993
   3 C :    0.052674
   4 C :   -0.181357
   5 H :   -0.013042
   6 C :    0.079062
   7 H :    0.039103
   8 H :   -0.012350
   9 C :   -0.036846
  10 H :    0.012751
  11 H :    0.008314
  12 C :   -0.067630
  13 H :    0.047220
  14 H :    0.029074
  15 H :    0.035543
  16 S :    0.083222
  17 C :   -0.121633
  18 C :   -0.005564
  19 C :   -0.065168
  20 C :   -0.153396
  21 H :    0.009205
  22 C :    0.078716
  23 H :    0.003235
  24 H :    0.034218
  25 C :   -0.003932
  26 H :    0.016284
  27 H :    0.013711
  28 C :   -0.075461
  29 H :    0.040789
  30 H :    0.020775
  31 H :    0.046683
  32 H :    0.030928
  33 H :    0.073513
Sum of atomic charges:    0.0000000

LOEWDIN ATOMIC CHARGES
----------------------
   0 S :    0.403408
   1 C :   -0.175389
   2 C :   -0.063626
   3 C :   -0.033733
   4 C :   -0.192822
   5 H :    0.015692
   6 C :   -0.031037
   7 H :    0.038080
   8 H :    0.020294
   9 C :   -0.028701
  10 H :    0.016642
  11 H :    0.013422
  12 C :   -0.068414
  13 H :    0.030502
  14 H :    0.032999
  15 H :    0.022703
  16 S :    0.367465
  17 C :   -0.185221
  18 C :   -0.073877
  19 C :   -0.045514
  20 C :   -0.187326
  21 H :    0.022240
  22 C :   -0.035677
  23 H :    0.024386
  24 H :    0.039000
  25 C :   -0.031842
  26 H :    0.023129
  27 H :    0.023658
  28 C :   -0.072565
  29 H :    0.025040
  30 H :    0.021097
  31 H :    0.034359
  32 H :    0.017843
  33 H :    0.033785

  Mayer bond orders larger than 0.100000
B(  0-S ,  1-C ) :   1.1405 B(  0-S ,  4-C ) :   1.1423 B(  1-C ,  2-C ) :   1.6326
B(  1-C , 32-H ) :   0.9546 B(  2-C ,  3-C ) :   1.2189 B(  2-C ,  6-C ) :   1.0354
B(  3-C ,  4-C ) :   1.5615 B(  3-C ,  5-H ) :   1.0013 B(  4-C , 20-C ) :   1.0744
B(  6-C ,  7-H ) :   0.9381 B(  6-C ,  8-H ) :   0.9317 B(  6-C ,  9-C ) :   1.0684
B(  9-C , 10-H ) :   0.9528 B(  9-C , 11-H ) :   0.9563 B(  9-C , 12-C ) :   1.0838
B( 12-C , 13-H ) :   0.9736 B( 12-C , 14-H ) :   0.9703 B( 12-C , 15-H ) :   0.9766
B( 16-S , 17-C ) :   1.1476 B( 16-S , 20-C ) :   1.1170 B( 17-C , 18-C ) :   1.6470
B( 17-C , 33-H ) :   0.9606 B( 18-C , 19-C ) :   1.1997 B( 18-C , 21-H ) :   0.9845
B( 19-C , 20-C ) :   1.6048 B( 19-C , 22-C ) :   1.0416 B( 22-C , 23-H ) :   0.9237
B( 22-C , 24-H ) :   0.9354 B( 22-C , 25-C ) :   1.0836 B( 25-C , 26-H ) :   0.9512
B( 25-C , 27-H ) :   0.9455 B( 25-C , 28-C ) :   1.0772 B( 28-C , 29-H ) :   0.9736
B( 28-C , 30-H ) :   0.9722 B( 28-C , 31-H ) :   0.9741

Dispersion correction           -0.015528340
FINAL SINGLE POINT ENERGY     -1339.844326735710

DIPOLE MOMENT
-------------
                                X             Y             Z
Electronic contribution:    -22.45353      -4.37893     -13.71324
Nuclear contribution   :     22.90704       4.27194      14.22898
                        -----------------------------------------
Total Dipole Moment    :      0.45351      -0.10699       0.51573
                        -----------------------------------------
Magnitude (a.u.)       :      0.69506
Magnitude (Debye)      :      1.76669

Rotational constants in cm-1:     0.020777     0.009141     0.007610
Rotational constants in MHz :   622.884505   274.047819   228.135568

                             ****ORCA TERMINATED NORMALLY****
TOTAL RUN TIME: 0 days 0 hours 0 minutes 22 seconds 674 msec
