                         Program Version 4.2.1 -  RELEASE  -
|  1> ! wB97X-D3 SP def2-SVP
|  2> %pal
|  3> nprocs 24
|  4> end
|  5>
|  6> * xyz 0 1
|  7> S 	 -37.6858 	 -6.01479 	 19.2244
|  8> C 	 -37.2318 	 -7.72815 	 19.25
|  9> C 	 -38.0661 	 -8.51753 	 19.9923
| 10> C 	 -39.1476 	 -7.81039 	 20.523
| 11> C 	 -39.0574 	 -6.45273 	 20.2914
| 12> H 	 -39.9713 	 -8.20081 	 21.111
| 13> C 	 -37.8004 	 -9.97591 	 20.2939
| 14> H 	 -38.6529 	 -10.3903 	 20.7361
| 15> H 	 -36.984 	 -9.87859 	 21.0657
| 16> C 	 -37.3341 	 -10.8815 	 19.1004
| 17> H 	 -37.9326 	 -10.6677 	 18.1691
| 18> H 	 -36.2327 	 -10.7702 	 18.9746
| 19> C 	 -37.4524 	 -12.3496 	 19.6134
| 20> H 	 -38.4853 	 -12.5952 	 19.968
| 21> H 	 -37.2555 	 -13.0488 	 18.7634
| 22> H 	 -36.7889 	 -12.5585 	 20.3628
| 23> S 	 -39.6498 	 -4.62268 	 22.3124
| 24> C 	 -40.7047 	 -3.31495 	 21.8294
| 25> C 	 -41.3472 	 -3.5595 	 20.6945
| 26> C 	 -40.8146 	 -4.69919 	 20.0234
| 27> C 	 -39.9257 	 -5.40982 	 20.7552
| 28> H 	 -42.1443 	 -2.95717 	 20.3089
| 29> C 	 -41.104 	 -5.14783 	 18.5565
| 30> H 	 -42.2286 	 -5.14781 	 18.5504
| 31> H 	 -40.8658 	 -6.17919 	 18.4104
| 32> C 	 -40.5643 	 -4.19021 	 17.4908
| 33> H 	 -39.4671 	 -4.36166 	 17.6041
| 34> H 	 -40.8161 	 -3.1366 	 17.8679
| 35> C 	 -40.9356 	 -4.39847 	 16.0013
| 36> H 	 -41.9573 	 -4.07807 	 15.7867
| 37> H 	 -40.9669 	 -5.44913 	 15.6849
| 38> H 	 -40.2819 	 -3.71904 	 15.3977
| 39> H 	 -36.3119 	 -8.00408 	 18.7172
| 40> H 	 -41.0955 	 -2.50627 	 22.4441
| 41> *
| 42>
| 43>                          ****END OF INPUT****

CARTESIAN COORDINATES (ANGSTROEM)
---------------------------------
  S    -37.685800   -6.014790   19.224400
  C    -37.231800   -7.728150   19.250000
  C    -38.066100   -8.517530   19.992300
  C    -39.147600   -7.810390   20.523000
  C    -39.057400   -6.452730   20.291400
  H    -39.971300   -8.200810   21.111000
  C    -37.800400   -9.975910   20.293900
  H    -38.652900  -10.390300   20.736100
  H    -36.984000   -9.878590   21.065700
  C    -37.334100  -10.881500   19.100400
  H    -37.932600  -10.667700   18.169100
  H    -36.232700  -10.770200   18.974600
  C    -37.452400  -12.349600   19.613400
  H    -38.485300  -12.595200   19.968000
  H    -37.255500  -13.048800   18.763400
  H    -36.788900  -12.558500   20.362800
  S    -39.649800   -4.622680   22.312400
  C    -40.704700   -3.314950   21.829400
  C    -41.347200   -3.559500   20.694500
  C    -40.814600   -4.699190   20.023400
  C    -39.925700   -5.409820   20.755200
  H    -42.144300   -2.957170   20.308900
  C    -41.104000   -5.147830   18.556500
  H    -42.228600   -5.147810   18.550400
  H    -40.865800   -6.179190   18.410400
  C    -40.564300   -4.190210   17.490800
  H    -39.467100   -4.361660   17.604100
  H    -40.816100   -3.136600   17.867900
  C    -40.935600   -4.398470   16.001300
  H    -41.957300   -4.078070   15.786700
  H    -40.966900   -5.449130   15.684900
  H    -40.281900   -3.719040   15.397700
  H    -36.311900   -8.004080   18.717200
  H    -41.095500   -2.506270   22.444100

 Total Charge           Charge          ....    0
 Multiplicity           Mult            ....    1
 Number of Electrons    NEL             ....  134
 Basis Dimension        Dim             ....  322

ORBITAL ENERGIES
----------------

  NO   OCC          E(Eh)            E(eV)
   0   2.0000     -88.965602     -2420.8771
   1   2.0000     -88.960844     -2420.7476
   2   2.0000     -10.326011      -280.9850
   3   2.0000     -10.313583      -280.6469
   4   2.0000     -10.311646      -280.5942
   5   2.0000     -10.311222      -280.5826
   6   2.0000     -10.299387      -280.2606
   7   2.0000     -10.296573      -280.1840
   8   2.0000     -10.296260      -280.1755
   9   2.0000     -10.292835      -280.0823
  10   2.0000     -10.292827      -280.0821
  11   2.0000     -10.290730      -280.0250
  12   2.0000     -10.288385      -279.9612
  13   2.0000     -10.286476      -279.9092
  14   2.0000     -10.281951      -279.7861
  15   2.0000     -10.279589      -279.7218
  16   2.0000      -8.079127      -219.8442
  17   2.0000      -8.075674      -219.7503
  18   2.0000      -6.037474      -164.2880
  19   2.0000      -6.034323      -164.2023
  20   2.0000      -6.033983      -164.1930
  21   2.0000      -6.030317      -164.0933
  22   2.0000      -6.029955      -164.0834
  23   2.0000      -6.026123      -163.9791
  24   2.0000      -1.008005       -27.4292
  25   2.0000      -0.984677       -26.7944
  26   2.0000      -0.909242       -24.7417
  27   2.0000      -0.897839       -24.4315
  28   2.0000      -0.871163       -23.7055
  29   2.0000      -0.851174       -23.1616
  30   2.0000      -0.842626       -22.9290
  31   2.0000      -0.816291       -22.2124
  32   2.0000      -0.780553       -21.2399
  33   2.0000      -0.766741       -20.8641
  34   2.0000      -0.707444       -19.2505
  35   2.0000      -0.698540       -19.0082
  36   2.0000      -0.688172       -18.7261
  37   2.0000      -0.657891       -17.9021
  38   2.0000      -0.642685       -17.4884
  39   2.0000      -0.611175       -16.6309
  40   2.0000      -0.591634       -16.0992
  41   2.0000      -0.574623       -15.6363
  42   2.0000      -0.564716       -15.3667
  43   2.0000      -0.553088       -15.0503
  44   2.0000      -0.527867       -14.3640
  45   2.0000      -0.521942       -14.2028
  46   2.0000      -0.518431       -14.1072
  47   2.0000      -0.508480       -13.8365
  48   2.0000      -0.501931       -13.6582
  49   2.0000      -0.494163       -13.4469
  50   2.0000      -0.489056       -13.3079
  51   2.0000      -0.474550       -12.9132
  52   2.0000      -0.466180       -12.6854
  53   2.0000      -0.461591       -12.5605
  54   2.0000      -0.458340       -12.4721
  55   2.0000      -0.452207       -12.3052
  56   2.0000      -0.447777       -12.1846
  57   2.0000      -0.434270       -11.8171
  58   2.0000      -0.429838       -11.6965
  59   2.0000      -0.428277       -11.6540
  60   2.0000      -0.422448       -11.4954
  61   2.0000      -0.413818       -11.2605
  62   2.0000      -0.400783       -10.9059
  63   2.0000      -0.337536        -9.1848
  64   2.0000      -0.333486        -9.0746
  65   2.0000      -0.319237        -8.6869
  66   2.0000      -0.306355        -8.3363
  67   0.0000       0.043318         1.1787
  68   0.0000       0.056347         1.5333
  69   0.0000       0.105376         2.8674
  70   0.0000       0.118268         3.2182
  71   0.0000       0.135855         3.6968

MULLIKEN ATOMIC CHARGES
-----------------------
   0 S :    0.113339
   1 C :   -0.161718
   2 C :   -0.043343
   3 C :    0.030793
   4 C :   -0.190885
   5 H :    0.016332
   6 C :    0.071703
   7 H :    0.001430
   8 H :    0.055868
   9 C :   -0.101277
  10 H :    0.057178
  11 H :    0.041328
  12 C :   -0.047975
  13 H :    0.032327
  14 H :    0.037757
  15 H :    0.019459
  16 S :    0.103467
  17 C :   -0.074936
  18 C :   -0.025555
  19 C :   -0.062543
  20 C :   -0.159649
  21 H :    0.012825
  22 C :    0.080357
  23 H :    0.016868
  24 H :    0.026299
  25 C :   -0.101417
  26 H :    0.030141
  27 H :    0.037851
  28 C :   -0.031822
  29 H :    0.021422
  30 H :    0.036438
  31 H :    0.047540
  32 H :    0.055016
  33 H :    0.055382
Sum of atomic charges:   -0.0000000

LOEWDIN ATOMIC CHARGES
----------------------
   0 S :    0.388592
   1 C :   -0.190755
   2 C :   -0.069398
   3 C :   -0.057413
   4 C :   -0.173014
   5 H :    0.036952
   6 C :   -0.029107
   7 H :    0.016836
   8 H :    0.047169
   9 C :   -0.040663
  10 H :    0.033428
  11 H :    0.029935
  12 C :   -0.062545
  13 H :    0.025719
  14 H :    0.030233
  15 H :    0.011674
  16 S :    0.388172
  17 C :   -0.178128
  18 C :   -0.072622
  19 C :   -0.048870
  20 C :   -0.209149
  21 H :    0.030758
  22 C :   -0.033800
  23 H :    0.028385
  24 H :    0.023567
  25 C :   -0.052837
  26 H :    0.019064
  27 H :    0.030882
  28 C :   -0.070974
  29 H :    0.022200
  30 H :    0.028777
  31 H :    0.035870
  32 H :    0.026596
  33 H :    0.034464

  Mayer bond orders larger than 0.100000
B(  0-S ,  1-C ) :   1.1329 B(  0-S ,  4-C ) :   1.1433 B(  1-C ,  2-C ) :   1.6102
B(  1-C ,  4-C ) :   0.1024 B(  1-C , 32-H ) :   0.9702 B(  2-C ,  3-C ) :   1.2323
B(  2-C ,  6-C ) :   1.0089 B(  3-C ,  4-C ) :   1.5974 B(  3-C ,  5-H ) :   0.9957
B(  4-C , 20-C ) :   1.0228 B(  6-C ,  7-H ) :   0.9479 B(  6-C ,  8-H ) :   0.9304
B(  6-C ,  9-C ) :   1.0591 B(  9-C , 10-H ) :   0.9648 B(  9-C , 11-H ) :   0.9485
B(  9-C , 12-C ) :   1.0803 B( 12-C , 13-H ) :   0.9768 B( 12-C , 14-H ) :   0.9747
B( 12-C , 15-H ) :   0.9757 B( 16-S , 17-C ) :   1.1433 B( 16-S , 20-C ) :   1.1100
B( 17-C , 18-C ) :   1.6553 B( 17-C , 33-H ) :   0.9545 B( 18-C , 19-C ) :   1.2163
B( 18-C , 21-H ) :   0.9910 B( 19-C , 20-C ) :   1.6569 B( 19-C , 22-C ) :   1.0330
B( 22-C , 23-H ) :   0.9322 B( 22-C , 24-H ) :   0.9291 B( 22-C , 25-C ) :   1.0534
B( 25-C , 26-H ) :   0.9470 B( 25-C , 27-H ) :   0.9569 B( 25-C , 28-C ) :   1.0770
B( 28-C , 29-H ) :   0.9736 B( 28-C , 30-H ) :   0.9737 B( 28-C , 31-H ) :   0.9740

Dispersion correction           -0.014346466
FINAL SINGLE POINT ENERGY     -1339.872223048450

DIPOLE MOMENT
-------------
                                X             Y             Z
Electronic contribution:      2.42928      16.48568      16.10373
Nuclear contribution   :     -2.62692     -16.87728     -16.32357
                        -----------------------------------------
Total Dipole Moment    :     -0.19764      -0.39160      -0.21984
                        -----------------------------------------
Magnitude (a.u.)       :      0.49065
Magnitude (Debye)      :      1.24714

Rotational constants in cm-1:     0.020628     0.007668     0.006312
Rotational constants in MHz :   618.409167   229.872269   189.228158

                             ****ORCA TERMINATED NORMALLY****
TOTAL RUN TIME: 0 days 0 hours 0 minutes 20 seconds 68 msec
