                         Program Version 4.2.1 -  RELEASE  -
|  1> ! wB97X-D3 SP def2-SVP
|  2> %pal
|  3> nprocs 24
|  4> end
|  5>
|  6> * xyz 0 1
|  7> S 	 -120.009 	 25.202 	 -20.1236
|  8> C 	 -118.755 	 24.6047 	 -21.177
|  9> C 	 -117.546 	 25.2925 	 -20.9562
| 10> C 	 -117.752 	 26.4252 	 -20.041
| 11> C 	 -119.041 	 26.5481 	 -19.5266
| 12> H 	 -116.956 	 27.0968 	 -19.7168
| 13> C 	 -116.187 	 24.8828 	 -21.436
| 14> H 	 -115.463 	 25.6887 	 -21.1655
| 15> H 	 -116.079 	 24.827 	 -22.4709
| 16> C 	 -115.708 	 23.5909 	 -20.8879
| 17> H 	 -115.378 	 23.7548 	 -19.8955
| 18> H 	 -116.607 	 22.9955 	 -20.9058
| 19> C 	 -114.625 	 22.8942 	 -21.7318
| 20> H 	 -113.643 	 23.2671 	 -21.5911
| 21> H 	 -114.552 	 21.8864 	 -21.3222
| 22> H 	 -114.881 	 22.819 	 -22.7762
| 23> S 	 -120.766 	 26.9123 	 -17.4814
| 24> C 	 -120.795 	 28.3469 	 -16.5553
| 25> C 	 -119.853 	 29.1941 	 -16.9842
| 26> C 	 -119.056 	 28.7304 	 -18.1282
| 27> C 	 -119.582 	 27.4858 	 -18.5388
| 28> H 	 -119.835 	 30.1403 	 -16.4153
| 29> C 	 -118.049 	 29.5805 	 -18.9291
| 30> H 	 -118.162 	 29.2255 	 -19.959
| 31> H 	 -117.052 	 29.2967 	 -18.5921
| 32> C 	 -118.175 	 31.0879 	 -18.8449
| 33> H 	 -117.356 	 31.5071 	 -19.4048
| 34> H 	 -117.982 	 31.2795 	 -17.7849
| 35> C 	 -119.488 	 31.6195 	 -19.3862
| 36> H 	 -119.533 	 31.5993 	 -20.4746
| 37> H 	 -119.507 	 32.6591 	 -19.0731
| 38> H 	 -120.472 	 31.2072 	 -19.0807
| 39> H 	 -118.635 	 23.7245 	 -21.6531
| 40> H 	 -121.502 	 28.6365 	 -15.8687
| 41> *
| 42>
| 43>                          ****END OF INPUT****

CARTESIAN COORDINATES (ANGSTROEM)
---------------------------------
  S    -120.009000   25.202000  -20.123600
  C    -118.755000   24.604700  -21.177000
  C    -117.546000   25.292500  -20.956200
  C    -117.752000   26.425200  -20.041000
  C    -119.041000   26.548100  -19.526600
  H    -116.956000   27.096800  -19.716800
  C    -116.187000   24.882800  -21.436000
  H    -115.463000   25.688700  -21.165500
  H    -116.079000   24.827000  -22.470900
  C    -115.708000   23.590900  -20.887900
  H    -115.378000   23.754800  -19.895500
  H    -116.607000   22.995500  -20.905800
  C    -114.625000   22.894200  -21.731800
  H    -113.643000   23.267100  -21.591100
  H    -114.552000   21.886400  -21.322200
  H    -114.881000   22.819000  -22.776200
  S    -120.766000   26.912300  -17.481400
  C    -120.795000   28.346900  -16.555300
  C    -119.853000   29.194100  -16.984200
  C    -119.056000   28.730400  -18.128200
  C    -119.582000   27.485800  -18.538800
  H    -119.835000   30.140300  -16.415300
  C    -118.049000   29.580500  -18.929100
  H    -118.162000   29.225500  -19.959000
  H    -117.052000   29.296700  -18.592100
  C    -118.175000   31.087900  -18.844900
  H    -117.356000   31.507100  -19.404800
  H    -117.982000   31.279500  -17.784900
  C    -119.488000   31.619500  -19.386200
  H    -119.533000   31.599300  -20.474600
  H    -119.507000   32.659100  -19.073100
  H    -120.472000   31.207200  -19.080700
  H    -118.635000   23.724500  -21.653100
  H    -121.502000   28.636500  -15.868700

 Total Charge           Charge          ....    0
 Multiplicity           Mult            ....    1
 Number of Electrons    NEL             ....  134
 Basis Dimension        Dim             ....  322

ORBITAL ENERGIES
----------------

  NO   OCC          E(Eh)            E(eV)
   0   2.0000     -88.967708     -2420.9344
   1   2.0000     -88.962691     -2420.7979
   2   2.0000     -10.334090      -281.2049
   3   2.0000     -10.326832      -281.0074
   4   2.0000     -10.310105      -280.5522
   5   2.0000     -10.308238      -280.5014
   6   2.0000     -10.304986      -280.4129
   7   2.0000     -10.303426      -280.3705
   8   2.0000     -10.298289      -280.2307
   9   2.0000     -10.293865      -280.1103
  10   2.0000     -10.292060      -280.0612
  11   2.0000     -10.287206      -279.9291
  12   2.0000     -10.282615      -279.8042
  13   2.0000     -10.278133      -279.6822
  14   2.0000     -10.276303      -279.6324
  15   2.0000     -10.275541      -279.6117
  16   2.0000      -8.081913      -219.9200
  17   2.0000      -8.079658      -219.8587
  18   2.0000      -6.040629      -164.3739
  19   2.0000      -6.038096      -164.3049
  20   2.0000      -6.036424      -164.2594
  21   2.0000      -6.033804      -164.1882
  22   2.0000      -6.032549      -164.1540
  23   2.0000      -6.030391      -164.0953
  24   2.0000      -1.013434       -27.5769
  25   2.0000      -0.984471       -26.7888
  26   2.0000      -0.922648       -25.1065
  27   2.0000      -0.913936       -24.8695
  28   2.0000      -0.875422       -23.8215
  29   2.0000      -0.850271       -23.1370
  30   2.0000      -0.841062       -22.8865
  31   2.0000      -0.820434       -22.3251
  32   2.0000      -0.786654       -21.4059
  33   2.0000      -0.779182       -21.2026
  34   2.0000      -0.711757       -19.3679
  35   2.0000      -0.706892       -19.2355
  36   2.0000      -0.698678       -19.0120
  37   2.0000      -0.654396       -17.8070
  38   2.0000      -0.637188       -17.3388
  39   2.0000      -0.621534       -16.9128
  40   2.0000      -0.598741       -16.2926
  41   2.0000      -0.579607       -15.7719
  42   2.0000      -0.570719       -15.5300
  43   2.0000      -0.556831       -15.1521
  44   2.0000      -0.540331       -14.7032
  45   2.0000      -0.524580       -14.2746
  46   2.0000      -0.520675       -14.1683
  47   2.0000      -0.514853       -14.0099
  48   2.0000      -0.511078       -13.9071
  49   2.0000      -0.502839       -13.6829
  50   2.0000      -0.499648       -13.5961
  51   2.0000      -0.480805       -13.0834
  52   2.0000      -0.469638       -12.7795
  53   2.0000      -0.465118       -12.6565
  54   2.0000      -0.463720       -12.6185
  55   2.0000      -0.448776       -12.2118
  56   2.0000      -0.445251       -12.1159
  57   2.0000      -0.436703       -11.8833
  58   2.0000      -0.434015       -11.8101
  59   2.0000      -0.427624       -11.6362
  60   2.0000      -0.418695       -11.3933
  61   2.0000      -0.414222       -11.2716
  62   2.0000      -0.409195       -11.1348
  63   2.0000      -0.362153        -9.8547
  64   2.0000      -0.331034        -9.0079
  65   2.0000      -0.323701        -8.8084
  66   2.0000      -0.287384        -7.8201
  67   0.0000       0.022286         0.6064
  68   0.0000       0.084394         2.2965
  69   0.0000       0.110130         2.9968
  70   0.0000       0.123192         3.3522
  71   0.0000       0.139995         3.8095

MULLIKEN ATOMIC CHARGES
-----------------------
   0 S :    0.101347
   1 C :   -0.033324
   2 C :   -0.143908
   3 C :    0.004871
   4 C :   -0.124812
   5 H :    0.010767
   6 C :    0.095624
   7 H :    0.015593
   8 H :    0.004745
   9 C :   -0.067199
  10 H :    0.023223
  11 H :    0.014842
  12 C :   -0.026221
  13 H :    0.027037
  14 H :    0.028029
  15 H :    0.032043
  16 S :    0.103692
  17 C :   -0.048756
  18 C :   -0.063185
  19 C :   -0.065849
  20 C :   -0.118623
  21 H :    0.025838
  22 C :    0.036213
  23 H :    0.034981
  24 H :    0.036133
  25 C :   -0.035206
  26 H :    0.029182
  27 H :    0.027605
  28 C :   -0.058806
  29 H :    0.031871
  30 H :    0.028804
  31 H :    0.046326
  32 H :    0.003637
  33 H :    0.023486
Sum of atomic charges:    0.0000000

LOEWDIN ATOMIC CHARGES
----------------------
   0 S :    0.404684
   1 C :   -0.191284
   2 C :   -0.049721
   3 C :   -0.068454
   4 C :   -0.186372
   5 H :    0.029567
   6 C :   -0.037670
   7 H :    0.032394
   8 H :    0.021275
   9 C :   -0.032493
  10 H :    0.022476
  11 H :    0.020724
  12 C :   -0.059896
  13 H :    0.020594
  14 H :    0.031243
  15 H :    0.023530
  16 S :    0.441079
  17 C :   -0.192178
  18 C :   -0.075473
  19 C :   -0.054392
  20 C :   -0.215877
  21 H :    0.036365
  22 C :   -0.035704
  23 H :    0.031456
  24 H :    0.029162
  25 C :   -0.039008
  26 H :    0.030188
  27 H :    0.024671
  28 C :   -0.070952
  29 H :    0.027392
  30 H :    0.027575
  31 H :    0.031376
  32 H :    0.005984
  33 H :    0.017741

  Mayer bond orders larger than 0.100000
B(  0-S ,  1-C ) :   1.1354 B(  0-S ,  4-C ) :   1.1421 B(  1-C ,  2-C ) :   1.6101
B(  1-C , 32-H ) :   0.9698 B(  2-C ,  3-C ) :   1.2496 B(  2-C ,  6-C ) :   1.0351
B(  3-C ,  4-C ) :   1.5652 B(  3-C ,  5-H ) :   0.9848 B(  4-C , 20-C ) :   1.0529
B(  6-C ,  7-H ) :   0.9352 B(  6-C ,  8-H ) :   0.9312 B(  6-C ,  9-C ) :   1.0625
B(  9-C , 10-H ) :   0.9511 B(  9-C , 11-H ) :   0.9614 B(  9-C , 12-C ) :   1.0876
B( 12-C , 13-H ) :   0.9753 B( 12-C , 14-H ) :   0.9711 B( 12-C , 15-H ) :   0.9733
B( 16-S , 17-C ) :   1.1438 B( 16-S , 20-C ) :   1.1689 B( 17-C , 18-C ) :   1.6479
B( 17-C , 33-H ) :   0.9717 B( 18-C , 19-C ) :   1.2191 B( 18-C , 21-H ) :   0.9826
B( 19-C , 20-C ) :   1.5748 B( 19-C , 22-C ) :   1.0211 B( 22-C , 23-H ) :   0.9424
B( 22-C , 24-H ) :   0.9222 B( 22-C , 25-C ) :   1.0893 B( 25-C , 26-H ) :   0.9462
B( 25-C , 27-H ) :   0.9483 B( 25-C , 28-C ) :   1.0784 B( 28-C , 29-H ) :   0.9725
B( 28-C , 30-H ) :   0.9734 B( 28-C , 31-H ) :   0.9759

Dispersion correction           -0.013703179
FINAL SINGLE POINT ENERGY     -1339.863194975511

DIPOLE MOMENT
-------------
                                X             Y             Z
Electronic contribution:    -20.96236      -6.83566       9.19874
Nuclear contribution   :     21.59163       7.15826      -9.17045
                        -----------------------------------------
Total Dipole Moment    :      0.62928       0.32260       0.02829
                        -----------------------------------------
Magnitude (a.u.)       :      0.70772
Magnitude (Debye)      :      1.79887

Rotational constants in cm-1:     0.022316     0.007267     0.006069
Rotational constants in MHz :   669.030232   217.859545   181.943761

                             ****ORCA TERMINATED NORMALLY****
TOTAL RUN TIME: 0 days 0 hours 0 minutes 21 seconds 291 msec
