                         Program Version 4.2.1 -  RELEASE  -
|  1> ! wB97X-D3 SP def2-SVP
|  2> %pal
|  3> nprocs 24
|  4> end
|  5>
|  6> * xyz 0 1
|  7> S 	 -68.194 	 -44.5041 	 -90.343
|  8> C 	 -66.578 	 -44.4159 	 -90.9743
|  9> C 	 -65.8722 	 -45.5263 	 -90.678
| 10> C 	 -66.5789 	 -46.404 	 -89.8531
| 11> C 	 -67.8609 	 -46.0034 	 -89.5869
| 12> H 	 -66.2009 	 -47.332 	 -89.4428
| 13> C 	 -64.4116 	 -45.7223 	 -91.1032
| 14> H 	 -64.5152 	 -45.6373 	 -92.1889
| 15> H 	 -64.1548 	 -46.7852 	 -91.0334
| 16> C 	 -63.3759 	 -44.8726 	 -90.3788
| 17> H 	 -62.4747 	 -45.1192 	 -90.827
| 18> H 	 -63.6007 	 -43.8386 	 -90.7175
| 19> C 	 -63.1369 	 -45.1845 	 -88.9024
| 20> H 	 -63.9995 	 -44.9339 	 -88.4262
| 21> H 	 -62.7833 	 -46.243 	 -88.6953
| 22> H 	 -62.5175 	 -44.424 	 -88.4283
| 23> S 	 -70.2677 	 -46.0453 	 -88.1884
| 24> C 	 -70.9431 	 -47.5647 	 -87.6793
| 25> C 	 -70.2381 	 -48.5895 	 -88.2529
| 26> C 	 -69.004 	 -48.1965 	 -88.8257
| 27> C 	 -68.8871 	 -46.7854 	 -88.9193
| 28> H 	 -70.6176 	 -49.6039 	 -88.1512
| 29> C 	 -68.091 	 -49.2372 	 -89.3783
| 30> H 	 -67.1842 	 -49.1306 	 -88.8054
| 31> H 	 -67.6831 	 -48.9998 	 -90.3545
| 32> C 	 -68.4345 	 -50.7584 	 -89.397
| 33> H 	 -67.6437 	 -51.2735 	 -89.9867
| 34> H 	 -69.4529 	 -50.9304 	 -89.7549
| 35> C 	 -68.5622 	 -51.2659 	 -87.9907
| 36> H 	 -67.6678 	 -51.3727 	 -87.4857
| 37> H 	 -69.048 	 -52.2477 	 -87.982
| 38> H 	 -69.0812 	 -50.6371 	 -87.2544
| 39> H 	 -66.2964 	 -43.7686 	 -91.8082
| 40> H 	 -71.8397 	 -47.7756 	 -87.1638
| 41> *
| 42>
| 43>                          ****END OF INPUT****

CARTESIAN COORDINATES (ANGSTROEM)
---------------------------------
  S    -68.194000  -44.504100  -90.343000
  C    -66.578000  -44.415900  -90.974300
  C    -65.872200  -45.526300  -90.678000
  C    -66.578900  -46.404000  -89.853100
  C    -67.860900  -46.003400  -89.586900
  H    -66.200900  -47.332000  -89.442800
  C    -64.411600  -45.722300  -91.103200
  H    -64.515200  -45.637300  -92.188900
  H    -64.154800  -46.785200  -91.033400
  C    -63.375900  -44.872600  -90.378800
  H    -62.474700  -45.119200  -90.827000
  H    -63.600700  -43.838600  -90.717500
  C    -63.136900  -45.184500  -88.902400
  H    -63.999500  -44.933900  -88.426200
  H    -62.783300  -46.243000  -88.695300
  H    -62.517500  -44.424000  -88.428300
  S    -70.267700  -46.045300  -88.188400
  C    -70.943100  -47.564700  -87.679300
  C    -70.238100  -48.589500  -88.252900
  C    -69.004000  -48.196500  -88.825700
  C    -68.887100  -46.785400  -88.919300
  H    -70.617600  -49.603900  -88.151200
  C    -68.091000  -49.237200  -89.378300
  H    -67.184200  -49.130600  -88.805400
  H    -67.683100  -48.999800  -90.354500
  C    -68.434500  -50.758400  -89.397000
  H    -67.643700  -51.273500  -89.986700
  H    -69.452900  -50.930400  -89.754900
  C    -68.562200  -51.265900  -87.990700
  H    -67.667800  -51.372700  -87.485700
  H    -69.048000  -52.247700  -87.982000
  H    -69.081200  -50.637100  -87.254400
  H    -66.296400  -43.768600  -91.808200
  H    -71.839700  -47.775600  -87.163800

 Total Charge           Charge          ....    0
 Multiplicity           Mult            ....    1
 Number of Electrons    NEL             ....  134
 Basis Dimension        Dim             ....  322

ORBITAL ENERGIES
----------------

  NO   OCC          E(Eh)            E(eV)
   0   2.0000     -88.967288     -2420.9230
   1   2.0000     -88.964669     -2420.8517
   2   2.0000     -10.328664      -281.0572
   3   2.0000     -10.325371      -280.9676
   4   2.0000     -10.311427      -280.5882
   5   2.0000     -10.304974      -280.4126
   6   2.0000     -10.304812      -280.4082
   7   2.0000     -10.294139      -280.1178
   8   2.0000     -10.291635      -280.0496
   9   2.0000     -10.290805      -280.0270
  10   2.0000     -10.289397      -279.9887
  11   2.0000     -10.288966      -279.9770
  12   2.0000     -10.285048      -279.8704
  13   2.0000     -10.282930      -279.8127
  14   2.0000     -10.275294      -279.6050
  15   2.0000     -10.268397      -279.4173
  16   2.0000      -8.082231      -219.9287
  17   2.0000      -8.080470      -219.8808
  18   2.0000      -6.040759      -164.3774
  19   2.0000      -6.038881      -164.3263
  20   2.0000      -6.036648      -164.2655
  21   2.0000      -6.034876      -164.2173
  22   2.0000      -6.033040      -164.1674
  23   2.0000      -6.031234      -164.1182
  24   2.0000      -1.015679       -27.6380
  25   2.0000      -0.992472       -27.0065
  26   2.0000      -0.916581       -24.9414
  27   2.0000      -0.913671       -24.8623
  28   2.0000      -0.874130       -23.7863
  29   2.0000      -0.856638       -23.3103
  30   2.0000      -0.846157       -23.0251
  31   2.0000      -0.819806       -22.3080
  32   2.0000      -0.790584       -21.5129
  33   2.0000      -0.777516       -21.1573
  34   2.0000      -0.711484       -19.3605
  35   2.0000      -0.706667       -19.2294
  36   2.0000      -0.700802       -19.0698
  37   2.0000      -0.659341       -17.9416
  38   2.0000      -0.635908       -17.3039
  39   2.0000      -0.621242       -16.9048
  40   2.0000      -0.603547       -16.4233
  41   2.0000      -0.579810       -15.7774
  42   2.0000      -0.553159       -15.0522
  43   2.0000      -0.550047       -14.9675
  44   2.0000      -0.546599       -14.8737
  45   2.0000      -0.535155       -14.5623
  46   2.0000      -0.525364       -14.2959
  47   2.0000      -0.509604       -13.8670
  48   2.0000      -0.508602       -13.8398
  49   2.0000      -0.502617       -13.6769
  50   2.0000      -0.493014       -13.4156
  51   2.0000      -0.481082       -13.0909
  52   2.0000      -0.476558       -12.9678
  53   2.0000      -0.469394       -12.7729
  54   2.0000      -0.464186       -12.6311
  55   2.0000      -0.445726       -12.1288
  56   2.0000      -0.444545       -12.0967
  57   2.0000      -0.441560       -12.0155
  58   2.0000      -0.431061       -11.7298
  59   2.0000      -0.422398       -11.4940
  60   2.0000      -0.419801       -11.4234
  61   2.0000      -0.413768       -11.2592
  62   2.0000      -0.407430       -11.0867
  63   2.0000      -0.360526        -9.8104
  64   2.0000      -0.335277        -9.1233
  65   2.0000      -0.327979        -8.9248
  66   2.0000      -0.280766        -7.6400
  67   0.0000       0.023751         0.6463
  68   0.0000       0.082826         2.2538
  69   0.0000       0.107758         2.9322
  70   0.0000       0.133190         3.6243
  71   0.0000       0.139898         3.8068

MULLIKEN ATOMIC CHARGES
-----------------------
   0 S :    0.107589
   1 C :   -0.131116
   2 C :   -0.098716
   3 C :   -0.012344
   4 C :   -0.104037
   5 H :   -0.009506
   6 C :    0.047056
   7 H :    0.029948
   8 H :    0.003615
   9 C :   -0.023414
  10 H :    0.010711
  11 H :    0.030249
  12 C :   -0.014582
  13 H :    0.011261
  14 H :    0.050615
  15 H :    0.027470
  16 S :    0.111037
  17 C :   -0.062446
  18 C :   -0.068396
  19 C :   -0.024545
  20 C :   -0.131731
  21 H :    0.023983
  22 C :    0.006435
  23 H :    0.030024
  24 H :    0.030847
  25 C :   -0.017535
  26 H :    0.046190
  27 H :    0.032495
  28 C :   -0.060740
  29 H :    0.001970
  30 H :    0.030109
  31 H :    0.035161
  32 H :    0.054290
  33 H :    0.038052
Sum of atomic charges:   -0.0000000

LOEWDIN ATOMIC CHARGES
----------------------
   0 S :    0.423139
   1 C :   -0.211407
   2 C :   -0.067020
   3 C :   -0.074064
   4 C :   -0.193814
   5 H :    0.027957
   6 C :   -0.034173
   7 H :    0.035095
   8 H :    0.024020
   9 C :   -0.036163
  10 H :    0.015484
  11 H :    0.029838
  12 C :   -0.061488
  13 H :    0.014371
  14 H :    0.038306
  15 H :    0.033667
  16 S :    0.421044
  17 C :   -0.189095
  18 C :   -0.073106
  19 C :   -0.052376
  20 C :   -0.205155
  21 H :    0.033072
  22 C :   -0.041984
  23 H :    0.030643
  24 H :    0.030276
  25 C :   -0.033884
  26 H :    0.037455
  27 H :    0.026094
  28 C :   -0.073510
  29 H :    0.012269
  30 H :    0.026917
  31 H :    0.030079
  32 H :    0.031931
  33 H :    0.025583

  Mayer bond orders larger than 0.100000
B(  0-S ,  1-C ) :   1.1329 B(  0-S ,  4-C ) :   1.1665 B(  1-C ,  2-C ) :   1.6196
B(  1-C , 32-H ) :   0.9593 B(  2-C ,  3-C ) :   1.2629 B(  2-C ,  6-C ) :   1.0011
B(  3-C ,  4-C ) :   1.5377 B(  3-C ,  5-H ) :   1.0033 B(  4-C , 20-C ) :   1.0789
B(  6-C ,  7-H ) :   0.9380 B(  6-C ,  8-H ) :   0.9396 B(  6-C ,  9-C ) :   1.0719
B(  9-C , 10-H ) :   0.9503 B(  9-C , 11-H ) :   0.9548 B(  9-C , 12-C ) :   1.0705
B( 12-C , 13-H ) :   0.9725 B( 12-C , 14-H ) :   0.9712 B( 12-C , 15-H ) :   0.9655
B( 16-S , 17-C ) :   1.1579 B( 16-S , 20-C ) :   1.1457 B( 17-C , 18-C ) :   1.5930
B( 17-C , 20-C ) :   0.1008 B( 17-C , 33-H ) :   0.9670 B( 18-C , 19-C ) :   1.2923
B( 18-C , 21-H ) :   0.9764 B( 19-C , 20-C ) :   1.5342 B( 19-C , 22-C ) :   1.0328
B( 22-C , 23-H ) :   0.9142 B( 22-C , 24-H ) :   0.9277 B( 22-C , 25-C ) :   1.0863
B( 25-C , 26-H ) :   0.9500 B( 25-C , 27-H ) :   0.9541 B( 25-C , 28-C ) :   1.0649
B( 28-C , 29-H ) :   0.9659 B( 28-C , 30-H ) :   0.9738 B( 28-C , 31-H ) :   0.9723

Dispersion correction           -0.014180321
FINAL SINGLE POINT ENERGY     -1339.855332099433

DIPOLE MOMENT
-------------
                                X             Y             Z
Electronic contribution:    -20.56171      17.09243      -0.42127
Nuclear contribution   :     20.99216     -17.72733       0.27563
                        -----------------------------------------
Total Dipole Moment    :      0.43045      -0.63491      -0.14563
                        -----------------------------------------
Magnitude (a.u.)       :      0.78077
Magnitude (Debye)      :      1.98455

Rotational constants in cm-1:     0.019683     0.008431     0.006531
Rotational constants in MHz :   590.077845   252.749137   195.781993

                             ****ORCA TERMINATED NORMALLY****
TOTAL RUN TIME: 0 days 0 hours 0 minutes 21 seconds 924 msec
