                         Program Version 4.2.1 -  RELEASE  -
|  1> ! wB97X-D3 SP def2-SVP
|  2> %pal
|  3> nprocs 24
|  4> end
|  5>
|  6> * xyz 0 1
|  7> S 	 -45.9482 	 12.2542 	 -16.1592
|  8> C 	 -45.9239 	 11.067 	 -14.8262
|  9> C 	 -45.0503 	 10.0853 	 -15.1959
| 10> C 	 -44.3131 	 10.3739 	 -16.4316
| 11> C 	 -44.5985 	 11.6009 	 -16.9907
| 12> H 	 -43.4992 	 9.80862 	 -16.9324
| 13> C 	 -44.8692 	 8.8195 	 -14.3802
| 14> H 	 -45.1342 	 9.00561 	 -13.3077
| 15> H 	 -43.7976 	 8.69886 	 -14.3876
| 16> C 	 -45.5656 	 7.57532 	 -14.9419
| 17> H 	 -46.5925 	 7.67825 	 -14.738
| 18> H 	 -45.3656 	 7.52181 	 -16.0284
| 19> C 	 -45.0272 	 6.30355 	 -14.2399
| 20> H 	 -45.4824 	 5.40215 	 -14.6676
| 21> H 	 -43.9565 	 6.2011 	 -14.2172
| 22> H 	 -45.483 	 6.2095 	 -13.2347
| 23> S 	 -45.0098 	 12.03 	 -19.6858
| 24> C 	 -43.782 	 12.6766 	 -20.6144
| 25> C 	 -42.6038 	 12.839 	 -19.9395
| 26> C 	 -42.7691 	 12.5783 	 -18.5024
| 27> C 	 -44.0338 	 12.1635 	 -18.2175
| 28> H 	 -41.7178 	 13.164 	 -20.4832
| 29> C 	 -41.6584 	 12.7254 	 -17.5278
| 30> H 	 -41.9709 	 13.1485 	 -16.5523
| 31> H 	 -40.9925 	 13.5148 	 -17.9186
| 32> C 	 -40.7652 	 11.5299 	 -17.3837
| 33> H 	 -41.3935 	 10.6692 	 -16.9314
| 34> H 	 -40.0701 	 11.8969 	 -16.6456
| 35> C 	 -39.9649 	 11.1014 	 -18.5896
| 36> H 	 -39.3646 	 11.8729 	 -19.0223
| 37> H 	 -40.6407 	 10.8735 	 -19.3088
| 38> H 	 -39.29 	 10.2518 	 -18.518
| 39> H 	 -46.7112 	 10.9418 	 -14.0627
| 40> H 	 -43.8809 	 12.9268 	 -21.6955
| 41> *
| 42>
| 43>                          ****END OF INPUT****

CARTESIAN COORDINATES (ANGSTROEM)
---------------------------------
  S    -45.948200   12.254200  -16.159200
  C    -45.923900   11.067000  -14.826200
  C    -45.050300   10.085300  -15.195900
  C    -44.313100   10.373900  -16.431600
  C    -44.598500   11.600900  -16.990700
  H    -43.499200    9.808620  -16.932400
  C    -44.869200    8.819500  -14.380200
  H    -45.134200    9.005610  -13.307700
  H    -43.797600    8.698860  -14.387600
  C    -45.565600    7.575320  -14.941900
  H    -46.592500    7.678250  -14.738000
  H    -45.365600    7.521810  -16.028400
  C    -45.027200    6.303550  -14.239900
  H    -45.482400    5.402150  -14.667600
  H    -43.956500    6.201100  -14.217200
  H    -45.483000    6.209500  -13.234700
  S    -45.009800   12.030000  -19.685800
  C    -43.782000   12.676600  -20.614400
  C    -42.603800   12.839000  -19.939500
  C    -42.769100   12.578300  -18.502400
  C    -44.033800   12.163500  -18.217500
  H    -41.717800   13.164000  -20.483200
  C    -41.658400   12.725400  -17.527800
  H    -41.970900   13.148500  -16.552300
  H    -40.992500   13.514800  -17.918600
  C    -40.765200   11.529900  -17.383700
  H    -41.393500   10.669200  -16.931400
  H    -40.070100   11.896900  -16.645600
  C    -39.964900   11.101400  -18.589600
  H    -39.364600   11.872900  -19.022300
  H    -40.640700   10.873500  -19.308800
  H    -39.290000   10.251800  -18.518000
  H    -46.711200   10.941800  -14.062700
  H    -43.880900   12.926800  -21.695500

 Total Charge           Charge          ....    0
 Multiplicity           Mult            ....    1
 Number of Electrons    NEL             ....  134
 Basis Dimension        Dim             ....  322

ORBITAL ENERGIES
----------------

  NO   OCC          E(Eh)            E(eV)
   0   2.0000     -88.962959     -2420.8052
   1   2.0000     -88.958413     -2420.6815
   2   2.0000     -10.327642      -281.0294
   3   2.0000     -10.323905      -280.9277
   4   2.0000     -10.316427      -280.7243
   5   2.0000     -10.314463      -280.6708
   6   2.0000     -10.304436      -280.3980
   7   2.0000     -10.303929      -280.3842
   8   2.0000     -10.298503      -280.2365
   9   2.0000     -10.294659      -280.1319
  10   2.0000     -10.290736      -280.0252
  11   2.0000     -10.290187      -280.0102
  12   2.0000     -10.287772      -279.9445
  13   2.0000     -10.286786      -279.9177
  14   2.0000     -10.279739      -279.7259
  15   2.0000     -10.265791      -279.3464
  16   2.0000      -8.079403      -219.8517
  17   2.0000      -8.073576      -219.6932
  18   2.0000      -6.037833      -164.2978
  19   2.0000      -6.033710      -164.1856
  20   2.0000      -6.032197      -164.1444
  21   2.0000      -6.030083      -164.0869
  22   2.0000      -6.027896      -164.0274
  23   2.0000      -6.024280      -163.9290
  24   2.0000      -1.011559       -27.5259
  25   2.0000      -0.988137       -26.8886
  26   2.0000      -0.920835       -25.0572
  27   2.0000      -0.912119       -24.8200
  28   2.0000      -0.872529       -23.7427
  29   2.0000      -0.852431       -23.1958
  30   2.0000      -0.838860       -22.8266
  31   2.0000      -0.815647       -22.1949
  32   2.0000      -0.791916       -21.5491
  33   2.0000      -0.773936       -21.0599
  34   2.0000      -0.709822       -19.3152
  35   2.0000      -0.702167       -19.1069
  36   2.0000      -0.687846       -18.7172
  37   2.0000      -0.660442       -17.9715
  38   2.0000      -0.641035       -17.4434
  39   2.0000      -0.611878       -16.6501
  40   2.0000      -0.599119       -16.3029
  41   2.0000      -0.570044       -15.5117
  42   2.0000      -0.565594       -15.3906
  43   2.0000      -0.553293       -15.0559
  44   2.0000      -0.548440       -14.9238
  45   2.0000      -0.521260       -14.1842
  46   2.0000      -0.516386       -14.0516
  47   2.0000      -0.512909       -13.9570
  48   2.0000      -0.507091       -13.7986
  49   2.0000      -0.501252       -13.6397
  50   2.0000      -0.492138       -13.3918
  51   2.0000      -0.485079       -13.1997
  52   2.0000      -0.472981       -12.8705
  53   2.0000      -0.468686       -12.7536
  54   2.0000      -0.460797       -12.5389
  55   2.0000      -0.451332       -12.2814
  56   2.0000      -0.443641       -12.0721
  57   2.0000      -0.440537       -11.9876
  58   2.0000      -0.435195       -11.8423
  59   2.0000      -0.424175       -11.5424
  60   2.0000      -0.414817       -11.2878
  61   2.0000      -0.413117       -11.2415
  62   2.0000      -0.403872       -10.9899
  63   2.0000      -0.335847        -9.1389
  64   2.0000      -0.330813        -9.0019
  65   2.0000      -0.321375        -8.7451
  66   2.0000      -0.312203        -8.4955
  67   0.0000       0.040458         1.1009
  68   0.0000       0.066142         1.7998
  69   0.0000       0.117672         3.2020
  70   0.0000       0.122551         3.3348
  71   0.0000       0.127684         3.4745

MULLIKEN ATOMIC CHARGES
-----------------------
   0 S :    0.089005
   1 C :   -0.115061
   2 C :   -0.101870
   3 C :    0.038813
   4 C :   -0.172858
   5 H :    0.027455
   6 C :    0.035365
   7 H :    0.027708
   8 H :    0.019858
   9 C :   -0.042076
  10 H :    0.021045
  11 H :    0.039664
  12 C :   -0.051055
  13 H :    0.027021
  14 H :    0.039027
  15 H :    0.026269
  16 S :    0.123051
  17 C :   -0.095581
  18 C :   -0.050920
  19 C :   -0.030191
  20 C :   -0.168892
  21 H :    0.021461
  22 C :    0.057290
  23 H :    0.043662
  24 H :    0.013029
  25 C :   -0.069360
  26 H :    0.033618
  27 H :    0.025559
  28 C :    0.000760
  29 H :    0.010462
  30 H :    0.006778
  31 H :    0.034622
  32 H :    0.065487
  33 H :    0.070856
Sum of atomic charges:   -0.0000000

LOEWDIN ATOMIC CHARGES
----------------------
   0 S :    0.397623
   1 C :   -0.193652
   2 C :   -0.063628
   3 C :   -0.071626
   4 C :   -0.207372
   5 H :    0.033897
   6 C :   -0.035718
   7 H :    0.033007
   8 H :    0.026531
   9 C :   -0.032299
  10 H :    0.019947
  11 H :    0.028953
  12 C :   -0.069015
  13 H :    0.027344
  14 H :    0.022335
  15 H :    0.028865
  16 S :    0.428513
  17 C :   -0.209297
  18 C :   -0.081607
  19 C :   -0.048279
  20 C :   -0.200351
  21 H :    0.032371
  22 C :   -0.038264
  23 H :    0.040588
  24 H :    0.033006
  25 C :   -0.038617
  26 H :    0.029147
  27 H :    0.023967
  28 C :   -0.061662
  29 H :    0.022743
  30 H :    0.012039
  31 H :    0.031428
  32 H :    0.039129
  33 H :    0.039955

  Mayer bond orders larger than 0.100000
B(  0-S ,  1-C ) :   1.1164 B(  0-S ,  4-C ) :   1.1604 B(  1-C ,  2-C ) :   1.6355
B(  1-C , 32-H ) :   0.9661 B(  2-C ,  3-C ) :   1.2067 B(  2-C ,  6-C ) :   1.0215
B(  3-C ,  4-C ) :   1.5947 B(  3-C ,  5-H ) :   0.9824 B(  4-C , 20-C ) :   1.0074
B(  6-C ,  7-H ) :   0.9454 B(  6-C ,  8-H ) :   0.9420 B(  6-C ,  9-C ) :   1.0602
B(  9-C , 10-H ) :   0.9536 B(  9-C , 11-H ) :   0.9587 B(  9-C , 12-C ) :   1.0847
B( 12-C , 13-H ) :   0.9721 B( 12-C , 14-H ) :   0.9786 B( 12-C , 15-H ) :   0.9721
B( 16-S , 17-C ) :   1.1750 B( 16-S , 20-C ) :   1.1353 B( 17-C , 18-C ) :   1.6270
B( 17-C , 33-H ) :   0.9571 B( 18-C , 19-C ) :   1.2045 B( 18-C , 21-H ) :   0.9900
B( 19-C , 20-C ) :   1.6491 B( 19-C , 22-C ) :   1.0538 B( 22-C , 23-H ) :   0.9308
B( 22-C , 24-H ) :   0.9238 B( 22-C , 25-C ) :   1.0822 B( 25-C , 26-H ) :   0.9472
B( 25-C , 27-H ) :   0.9511 B( 25-C , 28-C ) :   1.0759 B( 28-C , 29-H ) :   0.9669
B( 28-C , 30-H ) :   0.9689 B( 28-C , 31-H ) :   0.9705

Dispersion correction           -0.014580680
FINAL SINGLE POINT ENERGY     -1339.873860224881

DIPOLE MOMENT
-------------
                                X             Y             Z
Electronic contribution:    -16.40304      18.35075     -10.21821
Nuclear contribution   :     16.86102     -18.77486      10.24803
                        -----------------------------------------
Total Dipole Moment    :      0.45797      -0.42411       0.02982
                        -----------------------------------------
Magnitude (a.u.)       :      0.62490
Magnitude (Debye)      :      1.58836

Rotational constants in cm-1:     0.019087     0.008195     0.006890
Rotational constants in MHz :   572.227339   245.677406   206.557265

                             ****ORCA TERMINATED NORMALLY****
TOTAL RUN TIME: 0 days 0 hours 0 minutes 21 seconds 855 msec
