                         Program Version 4.2.1 -  RELEASE  -
|  1> ! wB97X-D3 SP def2-SVP
|  2> %pal
|  3> nprocs 24
|  4> end
|  5>
|  6> * xyz 0 1
|  7> S 	 -66.304 	 8.42614 	 -76.8862
|  8> C 	 -66.897 	 7.59309 	 -75.4117
|  9> C 	 -68.2658 	 7.34436 	 -75.4196
| 10> C 	 -68.8208 	 7.73828 	 -76.7383
| 11> C 	 -67.9448 	 8.44916 	 -77.5447
| 12> H 	 -69.8167 	 7.67794 	 -77.0781
| 13> C 	 -69.2128 	 6.7445 	 -74.4088
| 14> H 	 -70.1886 	 7.13497 	 -74.6033
| 15> H 	 -68.9861 	 7.11089 	 -73.4144
| 16> C 	 -69.3014 	 5.2646 	 -74.531
| 17> H 	 -70.1513 	 4.88353 	 -73.879
| 18> H 	 -69.5319 	 4.98914 	 -75.5657
| 19> C 	 -68.0812 	 4.50356 	 -74.0894
| 20> H 	 -67.7604 	 4.79425 	 -73.0913
| 21> H 	 -68.288 	 3.43591 	 -73.9958
| 22> H 	 -67.2489 	 4.52804 	 -74.8036
| 23> S 	 -67.7036 	 10.7452 	 -79.1614
| 24> C 	 -68.3837 	 10.7547 	 -80.7449
| 25> C 	 -69.0961 	 9.59136 	 -80.9394
| 26> C 	 -69.104 	 8.65965 	 -79.8571
| 27> C 	 -68.3055 	 9.08125 	 -78.8159
| 28> H 	 -69.6069 	 9.41614 	 -81.8442
| 29> C 	 -69.8173 	 7.29921 	 -80.0815
| 30> H 	 -70.6413 	 7.35464 	 -80.7563
| 31> H 	 -70.2969 	 6.89933 	 -79.1729
| 32> C 	 -68.922 	 6.19204 	 -80.525
| 33> H 	 -68.1541 	 6.04384 	 -79.7938
| 34> H 	 -68.384 	 6.38015 	 -81.4212
| 35> C 	 -69.667 	 4.84601 	 -80.6761
| 36> H 	 -68.9507 	 4.09438 	 -80.9522
| 37> H 	 -70.2981 	 4.77102 	 -81.5195
| 38> H 	 -70.2663 	 4.52569 	 -79.8371
| 39> H 	 -66.2232 	 7.21243 	 -74.6753
| 40> H 	 -68.323 	 11.5209 	 -81.5133
| 41> *
| 42>
| 43>                          ****END OF INPUT****

CARTESIAN COORDINATES (ANGSTROEM)
---------------------------------
  S    -66.304000    8.426140  -76.886200
  C    -66.897000    7.593090  -75.411700
  C    -68.265800    7.344360  -75.419600
  C    -68.820800    7.738280  -76.738300
  C    -67.944800    8.449160  -77.544700
  H    -69.816700    7.677940  -77.078100
  C    -69.212800    6.744500  -74.408800
  H    -70.188600    7.134970  -74.603300
  H    -68.986100    7.110890  -73.414400
  C    -69.301400    5.264600  -74.531000
  H    -70.151300    4.883530  -73.879000
  H    -69.531900    4.989140  -75.565700
  C    -68.081200    4.503560  -74.089400
  H    -67.760400    4.794250  -73.091300
  H    -68.288000    3.435910  -73.995800
  H    -67.248900    4.528040  -74.803600
  S    -67.703600   10.745200  -79.161400
  C    -68.383700   10.754700  -80.744900
  C    -69.096100    9.591360  -80.939400
  C    -69.104000    8.659650  -79.857100
  C    -68.305500    9.081250  -78.815900
  H    -69.606900    9.416140  -81.844200
  C    -69.817300    7.299210  -80.081500
  H    -70.641300    7.354640  -80.756300
  H    -70.296900    6.899330  -79.172900
  C    -68.922000    6.192040  -80.525000
  H    -68.154100    6.043840  -79.793800
  H    -68.384000    6.380150  -81.421200
  C    -69.667000    4.846010  -80.676100
  H    -68.950700    4.094380  -80.952200
  H    -70.298100    4.771020  -81.519500
  H    -70.266300    4.525690  -79.837100
  H    -66.223200    7.212430  -74.675300
  H    -68.323000   11.520900  -81.513300

 Total Charge           Charge          ....    0
 Multiplicity           Mult            ....    1
 Number of Electrons    NEL             ....  134
 Basis Dimension        Dim             ....  322

ORBITAL ENERGIES
----------------

  NO   OCC          E(Eh)            E(eV)
   0   2.0000     -88.967706     -2420.9344
   1   2.0000     -88.965356     -2420.8704
   2   2.0000     -10.332566      -281.1634
   3   2.0000     -10.332422      -281.1595
   4   2.0000     -10.319348      -280.8037
   5   2.0000     -10.316422      -280.7241
   6   2.0000     -10.310333      -280.5584
   7   2.0000     -10.305565      -280.4287
   8   2.0000     -10.294655      -280.1318
   9   2.0000     -10.291685      -280.0510
  10   2.0000     -10.290294      -280.0131
  11   2.0000     -10.289328      -279.9868
  12   2.0000     -10.287707      -279.9427
  13   2.0000     -10.276822      -279.6466
  14   2.0000     -10.275346      -279.6064
  15   2.0000     -10.270624      -279.4779
  16   2.0000      -8.081416      -219.9065
  17   2.0000      -8.079729      -219.8606
  18   2.0000      -6.040123      -164.3601
  19   2.0000      -6.038343      -164.3117
  20   2.0000      -6.036178      -164.2527
  21   2.0000      -6.034243      -164.2001
  22   2.0000      -6.031909      -164.1366
  23   2.0000      -6.030427      -164.0963
  24   2.0000      -1.000852       -27.2346
  25   2.0000      -0.977900       -26.6100
  26   2.0000      -0.921201       -25.0672
  27   2.0000      -0.913320       -24.8527
  28   2.0000      -0.867563       -23.6076
  29   2.0000      -0.851053       -23.1583
  30   2.0000      -0.843154       -22.9434
  31   2.0000      -0.810330       -22.0502
  32   2.0000      -0.788852       -21.4658
  33   2.0000      -0.781761       -21.2728
  34   2.0000      -0.709160       -19.2972
  35   2.0000      -0.697774       -18.9874
  36   2.0000      -0.694731       -18.9046
  37   2.0000      -0.663438       -18.0531
  38   2.0000      -0.643752       -17.5174
  39   2.0000      -0.619615       -16.8606
  40   2.0000      -0.602045       -16.3825
  41   2.0000      -0.573560       -15.6074
  42   2.0000      -0.565813       -15.3966
  43   2.0000      -0.553364       -15.0578
  44   2.0000      -0.541017       -14.7218
  45   2.0000      -0.524662       -14.2768
  46   2.0000      -0.520526       -14.1642
  47   2.0000      -0.514054       -13.9881
  48   2.0000      -0.501791       -13.6544
  49   2.0000      -0.498780       -13.5725
  50   2.0000      -0.494950       -13.4683
  51   2.0000      -0.482865       -13.1394
  52   2.0000      -0.468799       -12.7567
  53   2.0000      -0.464357       -12.6358
  54   2.0000      -0.458935       -12.4883
  55   2.0000      -0.446593       -12.1524
  56   2.0000      -0.443894       -12.0790
  57   2.0000      -0.439045       -11.9470
  58   2.0000      -0.437652       -11.9091
  59   2.0000      -0.428534       -11.6610
  60   2.0000      -0.417190       -11.3523
  61   2.0000      -0.414921       -11.2906
  62   2.0000      -0.413303       -11.2465
  63   2.0000      -0.352223        -9.5845
  64   2.0000      -0.332122        -9.0375
  65   2.0000      -0.328370        -8.9354
  66   2.0000      -0.290314        -7.8998
  67   0.0000       0.026694         0.7264
  68   0.0000       0.071060         1.9336
  69   0.0000       0.111080         3.0226
  70   0.0000       0.115570         3.1448
  71   0.0000       0.123452         3.3593

MULLIKEN ATOMIC CHARGES
-----------------------
   0 S :    0.104835
   1 C :   -0.123784
   2 C :   -0.089626
   3 C :    0.012152
   4 C :   -0.132355
   5 H :    0.000539
   6 C :    0.119156
   7 H :    0.015069
   8 H :    0.025843
   9 C :   -0.076760
  10 H :    0.035686
  11 H :    0.025878
  12 C :   -0.052562
  13 H :    0.021261
  14 H :    0.027774
  15 H :    0.038671
  16 S :    0.102242
  17 C :   -0.076800
  18 C :   -0.034964
  19 C :    0.000031
  20 C :   -0.166452
  21 H :   -0.002187
  22 C :    0.074760
  23 H :    0.009342
  24 H :    0.006248
  25 C :   -0.039424
  26 H :    0.026387
  27 H :    0.014239
  28 C :   -0.032927
  29 H :    0.022873
  30 H :    0.010758
  31 H :    0.028804
  32 H :    0.045724
  33 H :    0.059570
Sum of atomic charges:    0.0000000

LOEWDIN ATOMIC CHARGES
----------------------
   0 S :    0.377496
   1 C :   -0.181046
   2 C :   -0.048348
   3 C :   -0.056043
   4 C :   -0.186425
   5 H :    0.020914
   6 C :   -0.030422
   7 H :    0.031803
   8 H :    0.031010
   9 C :   -0.042908
  10 H :    0.031023
  11 H :    0.026095
  12 C :   -0.070456
  13 H :    0.021671
  14 H :    0.028091
  15 H :    0.025764
  16 S :    0.395412
  17 C :   -0.193738
  18 C :   -0.069193
  19 C :   -0.053300
  20 C :   -0.180324
  21 H :    0.021571
  22 C :   -0.027739
  23 H :    0.024645
  24 H :    0.028381
  25 C :   -0.032348
  26 H :    0.024693
  27 H :    0.019770
  28 C :   -0.063370
  29 H :    0.028417
  30 H :    0.017596
  31 H :    0.022734
  32 H :    0.022639
  33 H :    0.035937

  Mayer bond orders larger than 0.100000
B(  0-S ,  1-C ) :   1.1161 B(  0-S ,  4-C ) :   1.1262 B(  1-C ,  2-C ) :   1.6461
B(  1-C , 32-H ) :   0.9702 B(  2-C ,  3-C ) :   1.1934 B(  2-C ,  6-C ) :   1.0186
B(  3-C ,  4-C ) :   1.6194 B(  3-C ,  5-H ) :   0.9896 B(  4-C , 20-C ) :   1.0528
B(  6-C ,  7-H ) :   0.9295 B(  6-C ,  8-H ) :   0.9402 B(  6-C ,  9-C ) :   1.0832
B(  9-C , 10-H ) :   0.9523 B(  9-C , 11-H ) :   0.9492 B(  9-C , 12-C ) :   1.0898
B( 12-C , 13-H ) :   0.9729 B( 12-C , 14-H ) :   0.9707 B( 12-C , 15-H ) :   0.9712
B( 16-S , 17-C ) :   1.1475 B( 16-S , 20-C ) :   1.1309 B( 17-C , 18-C ) :   1.6064
B( 17-C , 33-H ) :   0.9675 B( 18-C , 19-C ) :   1.2488 B( 18-C , 21-H ) :   0.9939
B( 19-C , 20-C ) :   1.5987 B( 19-C , 22-C ) :   1.0370 B( 22-C , 23-H ) :   0.9365
B( 22-C , 24-H ) :   0.9327 B( 22-C , 25-C ) :   1.0756 B( 25-C , 26-H ) :   0.9528
B( 25-C , 27-H ) :   0.9500 B( 25-C , 28-C ) :   1.0861 B( 28-C , 29-H ) :   0.9699
B( 28-C , 30-H ) :   0.9722 B( 28-C , 31-H ) :   0.9749

Dispersion correction           -0.014351685
FINAL SINGLE POINT ENERGY     -1339.882095051144

DIPOLE MOMENT
-------------
                                X             Y             Z
Electronic contribution:     12.55069      27.11017      -3.65800
Nuclear contribution   :    -13.06386     -27.69790       3.60956
                        -----------------------------------------
Total Dipole Moment    :     -0.51317      -0.58773      -0.04845
                        -----------------------------------------
Magnitude (a.u.)       :      0.78174
Magnitude (Debye)      :      1.98701

Rotational constants in cm-1:     0.018441     0.008998     0.006783
Rotational constants in MHz :   552.845629   269.764004   203.355720

                             ****ORCA TERMINATED NORMALLY****
TOTAL RUN TIME: 0 days 0 hours 0 minutes 21 seconds 916 msec
