                         Program Version 4.2.1 -  RELEASE  -
|  1> ! wB97X-D3 SP def2-SVP
|  2> %pal
|  3> nprocs 24
|  4> end
|  5>
|  6> * xyz 0 1
|  7> S 	 -70.0895 	 8.1546 	 -101.641
|  8> C 	 -69.3216 	 6.65853 	 -102.006
|  9> C 	 -70.128 	 5.80264 	 -102.733
| 10> C 	 -71.5188 	 6.29332 	 -102.783
| 11> C 	 -71.6489 	 7.48731 	 -102.01
| 12> H 	 -72.3631 	 5.81516 	 -103.247
| 13> C 	 -69.6394 	 4.60079 	 -103.378
| 14> H 	 -68.8648 	 4.15544 	 -102.688
| 15> H 	 -69.1136 	 4.96751 	 -104.15
| 16> C 	 -70.6405 	 3.59191 	 -103.87
| 17> H 	 -71.2451 	 3.91212 	 -104.71
| 18> H 	 -70.048 	 2.81872 	 -104.279
| 19> C 	 -71.5705 	 2.86972 	 -102.829
| 20> H 	 -70.9975 	 2.26911 	 -102.166
| 21> H 	 -71.9844 	 3.65482 	 -102.214
| 22> H 	 -72.3072 	 2.23715 	 -103.247
| 23> S 	 -72.7839 	 9.81145 	 -102.822
| 24> C 	 -74.498 	 10.0369 	 -102.522
| 25> C 	 -75.1054 	 8.90389 	 -102.061
| 26> C 	 -74.1833 	 7.85194 	 -101.725
| 27> C 	 -72.8779 	 8.27036 	 -101.919
| 28> H 	 -76.1485 	 8.8867 	 -101.754
| 29> C 	 -74.6751 	 6.58627 	 -101.164
| 30> H 	 -74.8713 	 5.91312 	 -102.023
| 31> H 	 -75.6176 	 6.8005 	 -100.584
| 32> C 	 -73.8382 	 5.75937 	 -100.178
| 33> H 	 -73.4627 	 6.33037 	 -99.2764
| 34> H 	 -72.9741 	 5.37735 	 -100.692
| 35> C 	 -74.5454 	 4.45453 	 -99.6835
| 36> H 	 -73.8709 	 3.83178 	 -99.0838
| 37> H 	 -74.8821 	 3.87678 	 -100.574
| 38> H 	 -75.3964 	 4.76763 	 -99.0888
| 39> H 	 -68.3067 	 6.4411 	 -102.107
| 40> H 	 -74.9259 	 11.031 	 -102.676
| 41> *
| 42>
| 43>                          ****END OF INPUT****

CARTESIAN COORDINATES (ANGSTROEM)
---------------------------------
  S    -70.089500    8.154600  -101.641000
  C    -69.321600    6.658530  -102.006000
  C    -70.128000    5.802640  -102.733000
  C    -71.518800    6.293320  -102.783000
  C    -71.648900    7.487310  -102.010000
  H    -72.363100    5.815160  -103.247000
  C    -69.639400    4.600790  -103.378000
  H    -68.864800    4.155440  -102.688000
  H    -69.113600    4.967510  -104.150000
  C    -70.640500    3.591910  -103.870000
  H    -71.245100    3.912120  -104.710000
  H    -70.048000    2.818720  -104.279000
  C    -71.570500    2.869720  -102.829000
  H    -70.997500    2.269110  -102.166000
  H    -71.984400    3.654820  -102.214000
  H    -72.307200    2.237150  -103.247000
  S    -72.783900    9.811450  -102.822000
  C    -74.498000   10.036900  -102.522000
  C    -75.105400    8.903890  -102.061000
  C    -74.183300    7.851940  -101.725000
  C    -72.877900    8.270360  -101.919000
  H    -76.148500    8.886700  -101.754000
  C    -74.675100    6.586270  -101.164000
  H    -74.871300    5.913120  -102.023000
  H    -75.617600    6.800500  -100.584000
  C    -73.838200    5.759370  -100.178000
  H    -73.462700    6.330370  -99.276400
  H    -72.974100    5.377350  -100.692000
  C    -74.545400    4.454530  -99.683500
  H    -73.870900    3.831780  -99.083800
  H    -74.882100    3.876780  -100.574000
  H    -75.396400    4.767630  -99.088800
  H    -68.306700    6.441100  -102.107000
  H    -74.925900   11.031000  -102.676000

 Total Charge           Charge          ....    0
 Multiplicity           Mult            ....    1
 Number of Electrons    NEL             ....  134
 Basis Dimension        Dim             ....  322

ORBITAL ENERGIES
----------------

  NO   OCC          E(Eh)            E(eV)
   0   2.0000     -88.967088     -2420.9175
   1   2.0000     -88.960262     -2420.7318
   2   2.0000     -10.328966      -281.0655
   3   2.0000     -10.324344      -280.9397
   4   2.0000     -10.317810      -280.7619
   5   2.0000     -10.303304      -280.3672
   6   2.0000     -10.300479      -280.2903
   7   2.0000     -10.299100      -280.2528
   8   2.0000     -10.298319      -280.2315
   9   2.0000     -10.297160      -280.2000
  10   2.0000     -10.293653      -280.1045
  11   2.0000     -10.284925      -279.8670
  12   2.0000     -10.284432      -279.8536
  13   2.0000     -10.283862      -279.8381
  14   2.0000     -10.280569      -279.7485
  15   2.0000     -10.273491      -279.5559
  16   2.0000      -8.082058      -219.9240
  17   2.0000      -8.075042      -219.7331
  18   2.0000      -6.040544      -164.3716
  19   2.0000      -6.036672      -164.2662
  20   2.0000      -6.033556      -164.1814
  21   2.0000      -6.032717      -164.1586
  22   2.0000      -6.029823      -164.0798
  23   2.0000      -6.025496      -163.9621
  24   2.0000      -1.005030       -27.3482
  25   2.0000      -0.982935       -26.7470
  26   2.0000      -0.922755       -25.1094
  27   2.0000      -0.907975       -24.7072
  28   2.0000      -0.869341       -23.6560
  29   2.0000      -0.850904       -23.1543
  30   2.0000      -0.844754       -22.9869
  31   2.0000      -0.813809       -22.1449
  32   2.0000      -0.787493       -21.4288
  33   2.0000      -0.772827       -21.0297
  34   2.0000      -0.715429       -19.4678
  35   2.0000      -0.702612       -19.1190
  36   2.0000      -0.682823       -18.5806
  37   2.0000      -0.660861       -17.9829
  38   2.0000      -0.635393       -17.2899
  39   2.0000      -0.617825       -16.8119
  40   2.0000      -0.597169       -16.2498
  41   2.0000      -0.572136       -15.5686
  42   2.0000      -0.570301       -15.5187
  43   2.0000      -0.560947       -15.2642
  44   2.0000      -0.538447       -14.6519
  45   2.0000      -0.522449       -14.2165
  46   2.0000      -0.518051       -14.0969
  47   2.0000      -0.509495       -13.8641
  48   2.0000      -0.505384       -13.7522
  49   2.0000      -0.497672       -13.5424
  50   2.0000      -0.492275       -13.3955
  51   2.0000      -0.486585       -13.2407
  52   2.0000      -0.477593       -12.9960
  53   2.0000      -0.459777       -12.5112
  54   2.0000      -0.454050       -12.3553
  55   2.0000      -0.449965       -12.2442
  56   2.0000      -0.443190       -12.0598
  57   2.0000      -0.440093       -11.9755
  58   2.0000      -0.434463       -11.8223
  59   2.0000      -0.428479       -11.6595
  60   2.0000      -0.423751       -11.5309
  61   2.0000      -0.415394       -11.3035
  62   2.0000      -0.409327       -11.1383
  63   2.0000      -0.341659        -9.2970
  64   2.0000      -0.326220        -8.8769
  65   2.0000      -0.321279        -8.7424
  66   2.0000      -0.290734        -7.9113
  67   0.0000       0.024559         0.6683
  68   0.0000       0.067575         1.8388
  69   0.0000       0.102580         2.7913
  70   0.0000       0.121122         3.2959
  71   0.0000       0.125605         3.4179

MULLIKEN ATOMIC CHARGES
-----------------------
   0 S :    0.119303
   1 C :   -0.061304
   2 C :   -0.163137
   3 C :    0.034688
   4 C :   -0.170143
   5 H :    0.015135
   6 C :    0.115569
   7 H :    0.037550
   8 H :    0.012122
   9 C :   -0.076786
  10 H :    0.028790
  11 H :    0.014564
  12 C :   -0.011422
  13 H :    0.015540
  14 H :    0.014775
  15 H :    0.031857
  16 S :    0.077814
  17 C :   -0.094846
  18 C :   -0.017909
  19 C :   -0.031892
  20 C :   -0.117606
  21 H :    0.023477
  22 C :    0.017656
  23 H :    0.043127
  24 H :    0.033717
  25 C :   -0.099767
  26 H :    0.043632
  27 H :    0.037153
  28 C :   -0.056505
  29 H :    0.042491
  30 H :    0.031558
  31 H :    0.029827
  32 H :    0.015480
  33 H :    0.065492
Sum of atomic charges:   -0.0000000

LOEWDIN ATOMIC CHARGES
----------------------
   0 S :    0.427696
   1 C :   -0.215315
   2 C :   -0.052986
   3 C :   -0.058531
   4 C :   -0.201915
   5 H :    0.026244
   6 C :   -0.034726
   7 H :    0.045093
   8 H :    0.026810
   9 C :   -0.038357
  10 H :    0.024750
  11 H :    0.023246
  12 C :   -0.056063
  13 H :    0.020774
  14 H :    0.020931
  15 H :    0.022830
  16 S :    0.375503
  17 C :   -0.172328
  18 C :   -0.070238
  19 C :   -0.056881
  20 C :   -0.186449
  21 H :    0.033210
  22 C :   -0.040666
  23 H :    0.040700
  24 H :    0.037775
  25 C :   -0.046957
  26 H :    0.031356
  27 H :    0.016962
  28 C :   -0.063095
  29 H :    0.028957
  30 H :    0.025886
  31 H :    0.019815
  32 H :    0.016209
  33 H :    0.029761

  Mayer bond orders larger than 0.100000
B(  0-S ,  1-C ) :   1.1296 B(  0-S ,  4-C ) :   1.1744 B(  1-C ,  2-C ) :   1.6266
B(  1-C , 32-H ) :   0.9674 B(  2-C ,  3-C ) :   1.2400 B(  2-C ,  6-C ) :   1.0133
B(  3-C ,  4-C ) :   1.5177 B(  3-C ,  5-H ) :   0.9902 B(  4-C , 20-C ) :   1.0355
B(  6-C ,  7-H ) :   0.9349 B(  6-C ,  8-H ) :   0.9063 B(  6-C ,  9-C ) :   1.1012
B(  9-C , 10-H ) :   0.9470 B(  9-C , 11-H ) :   0.9470 B(  9-C , 12-C ) :   1.0735
B( 12-C , 13-H ) :   0.9708 B( 12-C , 14-H ) :   0.9796 B( 12-C , 15-H ) :   0.9737
B( 16-S , 17-C ) :   1.1452 B( 16-S , 20-C ) :   1.1228 B( 17-C , 18-C ) :   1.6245
B( 17-C , 33-H ) :   0.9670 B( 18-C , 19-C ) :   1.2174 B( 18-C , 21-H ) :   0.9883
B( 19-C , 20-C ) :   1.6308 B( 19-C , 22-C ) :   1.0491 B( 22-C , 23-H ) :   0.9133
B( 22-C , 24-H ) :   0.9439 B( 22-C , 25-C ) :   1.0779 B( 25-C , 26-H ) :   0.9530
B( 25-C , 27-H ) :   0.9443 B( 25-C , 28-C ) :   1.0861 B( 28-C , 29-H ) :   0.9748
B( 28-C , 30-H ) :   0.9726 B( 28-C , 31-H ) :   0.9778

Dispersion correction           -0.015532397
FINAL SINGLE POINT ENERGY     -1339.855031333481

DIPOLE MOMENT
-------------
                                X             Y             Z
Electronic contribution:      7.19323      29.54922      -3.22633
Nuclear contribution   :     -7.36807     -30.17958       2.95980
                        -----------------------------------------
Total Dipole Moment    :     -0.17484      -0.63036      -0.26653
                        -----------------------------------------
Magnitude (a.u.)       :      0.70637
Magnitude (Debye)      :      1.79545

Rotational constants in cm-1:     0.016921     0.010740     0.007767
Rotational constants in MHz :   507.288153   321.973422   232.841546

                             ****ORCA TERMINATED NORMALLY****
TOTAL RUN TIME: 0 days 0 hours 0 minutes 23 seconds 47 msec
