                         Program Version 4.2.1 -  RELEASE  -
|  1> ! wB97X-D3 SP def2-SVP
|  2> %pal
|  3> nprocs 24
|  4> end
|  5>
|  6> * xyz 0 1
|  7> S 	 -51.6263 	 -52.4885 	 -77.8623
|  8> C 	 -51.1078 	 -51.9224 	 -79.461
|  9> C 	 -52.0699 	 -51.0446 	 -80.0424
| 10> C 	 -53.0787 	 -50.6516 	 -79.0813
| 11> C 	 -53.0084 	 -51.3529 	 -77.9054
| 12> H 	 -53.8889 	 -49.9681 	 -79.1931
| 13> C 	 -52.0364 	 -50.6149 	 -81.4998
| 14> H 	 -52.92 	 -50.972 	 -81.9199
| 15> H 	 -51.1946 	 -51.1433 	 -81.9587
| 16> C 	 -51.8623 	 -49.1318 	 -81.7506
| 17> H 	 -51.8175 	 -48.9978 	 -82.8326
| 18> H 	 -52.7869 	 -48.6538 	 -81.3219
| 19> C 	 -50.6408 	 -48.5616 	 -81.0539
| 20> H 	 -50.6207 	 -48.9003 	 -80.0011
| 21> H 	 -49.7594 	 -48.8747 	 -81.5132
| 22> H 	 -50.7252 	 -47.4327 	 -81.0885
| 23> S 	 -54.8725 	 -52.5432 	 -76.2128
| 24> C 	 -55.5346 	 -51.5663 	 -74.9825
| 25> C 	 -55.0291 	 -50.2627 	 -74.9752
| 26> C 	 -54.0753 	 -50.0256 	 -76.0208
| 27> C 	 -53.8414 	 -51.1905 	 -76.7411
| 28> H 	 -55.3801 	 -49.5796 	 -74.2421
| 29> C 	 -53.4119 	 -48.7131 	 -76.3565
| 30> H 	 -52.4792 	 -48.8503 	 -76.8668
| 31> H 	 -53.1356 	 -48.3601 	 -75.319
| 32> C 	 -54.3059 	 -47.6638 	 -77.0461
| 33> H 	 -55.1295 	 -47.2374 	 -76.439
| 34> H 	 -54.813 	 -48.1977 	 -77.8481
| 35> C 	 -53.5144 	 -46.5569 	 -77.6336
| 36> H 	 -52.7532 	 -46.9797 	 -78.3169
| 37> H 	 -52.9508 	 -46.0338 	 -76.8754
| 38> H 	 -54.2237 	 -45.8473 	 -78.0139
| 39> H 	 -50.3584 	 -52.4688 	 -80.0584
| 40> H 	 -56.2547 	 -51.8969 	 -74.2443
| 41> *
| 42>
| 43>                          ****END OF INPUT****

CARTESIAN COORDINATES (ANGSTROEM)
---------------------------------
  S    -51.626300  -52.488500  -77.862300
  C    -51.107800  -51.922400  -79.461000
  C    -52.069900  -51.044600  -80.042400
  C    -53.078700  -50.651600  -79.081300
  C    -53.008400  -51.352900  -77.905400
  H    -53.888900  -49.968100  -79.193100
  C    -52.036400  -50.614900  -81.499800
  H    -52.920000  -50.972000  -81.919900
  H    -51.194600  -51.143300  -81.958700
  C    -51.862300  -49.131800  -81.750600
  H    -51.817500  -48.997800  -82.832600
  H    -52.786900  -48.653800  -81.321900
  C    -50.640800  -48.561600  -81.053900
  H    -50.620700  -48.900300  -80.001100
  H    -49.759400  -48.874700  -81.513200
  H    -50.725200  -47.432700  -81.088500
  S    -54.872500  -52.543200  -76.212800
  C    -55.534600  -51.566300  -74.982500
  C    -55.029100  -50.262700  -74.975200
  C    -54.075300  -50.025600  -76.020800
  C    -53.841400  -51.190500  -76.741100
  H    -55.380100  -49.579600  -74.242100
  C    -53.411900  -48.713100  -76.356500
  H    -52.479200  -48.850300  -76.866800
  H    -53.135600  -48.360100  -75.319000
  C    -54.305900  -47.663800  -77.046100
  H    -55.129500  -47.237400  -76.439000
  H    -54.813000  -48.197700  -77.848100
  C    -53.514400  -46.556900  -77.633600
  H    -52.753200  -46.979700  -78.316900
  H    -52.950800  -46.033800  -76.875400
  H    -54.223700  -45.847300  -78.013900
  H    -50.358400  -52.468800  -80.058400
  H    -56.254700  -51.896900  -74.244300

 Total Charge           Charge          ....    0
 Multiplicity           Mult            ....    1
 Number of Electrons    NEL             ....  134
 Basis Dimension        Dim             ....  322

ORBITAL ENERGIES
----------------

  NO   OCC          E(Eh)            E(eV)
   0   2.0000     -88.967177     -2420.9200
   1   2.0000     -88.964945     -2420.8592
   2   2.0000     -10.328263      -281.0463
   3   2.0000     -10.321385      -280.8592
   4   2.0000     -10.320244      -280.8281
   5   2.0000     -10.316317      -280.7213
   6   2.0000     -10.309300      -280.5303
   7   2.0000     -10.304716      -280.4056
   8   2.0000     -10.295959      -280.1673
   9   2.0000     -10.293185      -280.0918
  10   2.0000     -10.293120      -280.0900
  11   2.0000     -10.287681      -279.9420
  12   2.0000     -10.286234      -279.9026
  13   2.0000     -10.286113      -279.8994
  14   2.0000     -10.274589      -279.5858
  15   2.0000     -10.274365      -279.5797
  16   2.0000      -8.082184      -219.9274
  17   2.0000      -8.078755      -219.8341
  18   2.0000      -6.040522      -164.3710
  19   2.0000      -6.037269      -164.2824
  20   2.0000      -6.036692      -164.2667
  21   2.0000      -6.033441      -164.1783
  22   2.0000      -6.033078      -164.1684
  23   2.0000      -6.029518      -164.0715
  24   2.0000      -1.002970       -27.2922
  25   2.0000      -0.977204       -26.5911
  26   2.0000      -0.916413       -24.9369
  27   2.0000      -0.915581       -24.9142
  28   2.0000      -0.868332       -23.6285
  29   2.0000      -0.857222       -23.3262
  30   2.0000      -0.843514       -22.9532
  31   2.0000      -0.812971       -22.1221
  32   2.0000      -0.786061       -21.3898
  33   2.0000      -0.769787       -20.9470
  34   2.0000      -0.704705       -19.1760
  35   2.0000      -0.697404       -18.9773
  36   2.0000      -0.688600       -18.7378
  37   2.0000      -0.658676       -17.9235
  38   2.0000      -0.641648       -17.4601
  39   2.0000      -0.620110       -16.8741
  40   2.0000      -0.598968       -16.2987
  41   2.0000      -0.567982       -15.4556
  42   2.0000      -0.564383       -15.3576
  43   2.0000      -0.558035       -15.1849
  44   2.0000      -0.542939       -14.7741
  45   2.0000      -0.534643       -14.5484
  46   2.0000      -0.517536       -14.0829
  47   2.0000      -0.515004       -14.0140
  48   2.0000      -0.506191       -13.7742
  49   2.0000      -0.495944       -13.4953
  50   2.0000      -0.486964       -13.2510
  51   2.0000      -0.478139       -13.0108
  52   2.0000      -0.467748       -12.7281
  53   2.0000      -0.459623       -12.5070
  54   2.0000      -0.457891       -12.4598
  55   2.0000      -0.452086       -12.3019
  56   2.0000      -0.445536       -12.1237
  57   2.0000      -0.444037       -12.0829
  58   2.0000      -0.436352       -11.8737
  59   2.0000      -0.424499       -11.5512
  60   2.0000      -0.420490       -11.4421
  61   2.0000      -0.417904       -11.3717
  62   2.0000      -0.411416       -11.1952
  63   2.0000      -0.339804        -9.2465
  64   2.0000      -0.331908        -9.0317
  65   2.0000      -0.327580        -8.9139
  66   2.0000      -0.295108        -8.0303
  67   0.0000       0.033002         0.8980
  68   0.0000       0.062534         1.7016
  69   0.0000       0.113051         3.0763
  70   0.0000       0.116605         3.1730
  71   0.0000       0.121931         3.3179

MULLIKEN ATOMIC CHARGES
-----------------------
   0 S :    0.100754
   1 C :   -0.124748
   2 C :   -0.138896
   3 C :    0.044296
   4 C :   -0.161561
   5 H :    0.000415
   6 C :    0.116622
   7 H :    0.024795
   8 H :    0.008848
   9 C :   -0.093256
  10 H :    0.036187
  11 H :    0.031001
  12 C :   -0.047315
  13 H :    0.049747
  14 H :    0.016774
  15 H :    0.042810
  16 S :    0.124521
  17 C :   -0.089360
  18 C :   -0.036537
  19 C :   -0.008689
  20 C :   -0.187026
  21 H :    0.004308
  22 C :    0.056592
  23 H :    0.031363
  24 H :    0.029633
  25 C :   -0.072791
  26 H :    0.030416
  27 H :    0.018166
  28 C :   -0.018163
  29 H :    0.037396
  30 H :    0.018981
  31 H :    0.033189
  32 H :    0.064146
  33 H :    0.057381
Sum of atomic charges:    0.0000000

LOEWDIN ATOMIC CHARGES
----------------------
   0 S :    0.377638
   1 C :   -0.203903
   2 C :   -0.052554
   3 C :   -0.060401
   4 C :   -0.176829
   5 H :    0.027436
   6 C :   -0.028329
   7 H :    0.025545
   8 H :    0.028334
   9 C :   -0.042889
  10 H :    0.025929
  11 H :    0.025162
  12 C :   -0.064205
  13 H :    0.030688
  14 H :    0.014408
  15 H :    0.033499
  16 S :    0.414626
  17 C :   -0.194855
  18 C :   -0.071474
  19 C :   -0.045431
  20 C :   -0.206064
  21 H :    0.025577
  22 C :   -0.032013
  23 H :    0.029554
  24 H :    0.038449
  25 C :   -0.042273
  26 H :    0.027550
  27 H :    0.018405
  28 C :   -0.061898
  29 H :    0.029793
  30 H :    0.022534
  31 H :    0.027233
  32 H :    0.030715
  33 H :    0.030039

  Mayer bond orders larger than 0.100000
B(  0-S ,  1-C ) :   1.1331 B(  0-S ,  4-C ) :   1.1376 B(  1-C ,  2-C ) :   1.6159
B(  1-C ,  4-C ) :   0.1003 B(  1-C , 32-H ) :   0.9584 B(  2-C ,  3-C ) :   1.1943
B(  2-C ,  6-C ) :   1.0233 B(  3-C ,  4-C ) :   1.6099 B(  3-C ,  5-H ) :   0.9975
B(  4-C , 20-C ) :   1.0335 B(  6-C ,  7-H ) :   0.9357 B(  6-C ,  8-H ) :   0.9355
B(  6-C ,  9-C ) :   1.0735 B(  9-C , 10-H ) :   0.9552 B(  9-C , 11-H ) :   0.9551
B(  9-C , 12-C ) :   1.0785 B( 12-C , 13-H ) :   0.9686 B( 12-C , 14-H ) :   0.9742
B( 12-C , 15-H ) :   0.9737 B( 16-S , 17-C ) :   1.1692 B( 16-S , 20-C ) :   1.1366
B( 17-C , 18-C ) :   1.6023 B( 17-C , 33-H ) :   0.9655 B( 18-C , 19-C ) :   1.2309
B( 18-C , 21-H ) :   0.9984 B( 19-C , 20-C ) :   1.5892 B( 19-C , 22-C ) :   1.0489
B( 22-C , 23-H ) :   0.9354 B( 22-C , 24-H ) :   0.9219 B( 22-C , 25-C ) :   1.0548
B( 25-C , 26-H ) :   0.9483 B( 25-C , 27-H ) :   0.9531 B( 25-C , 28-C ) :   1.1001
B( 28-C , 29-H ) :   0.9712 B( 28-C , 30-H ) :   0.9689 B( 28-C , 31-H ) :   0.9701

Dispersion correction           -0.015601344
FINAL SINGLE POINT ENERGY     -1339.889596053981

DIPOLE MOMENT
-------------
                                X             Y             Z
Electronic contribution:     -4.95082     -26.89286      14.12900
Nuclear contribution   :      4.75828      27.45398     -14.37669
                        -----------------------------------------
Total Dipole Moment    :     -0.19254       0.56112      -0.24769
                        -----------------------------------------
Magnitude (a.u.)       :      0.64287
Magnitude (Debye)      :      1.63404

Rotational constants in cm-1:     0.018301     0.010146     0.007242
Rotational constants in MHz :   548.641874   304.167342   217.119621

                             ****ORCA TERMINATED NORMALLY****
TOTAL RUN TIME: 0 days 0 hours 0 minutes 23 seconds 807 msec
