                         Program Version 4.2.1 -  RELEASE  -
|  1> ! wB97X-D3 SP def2-SVP
|  2> %pal
|  3> nprocs 24
|  4> end
|  5>
|  6> * xyz 0 1
|  7> S 	 -36.3067 	 17.9894 	 15.939
|  8> C 	 -36.1579 	 19.5514 	 16.7602
|  9> C 	 -34.9373 	 19.6894 	 17.347
| 10> C 	 -34.0503 	 18.6869 	 16.8006
| 11> C 	 -34.5854 	 17.7145 	 16.0551
| 12> H 	 -32.94 	 18.6784 	 16.9972
| 13> C 	 -34.4454 	 20.8543 	 18.2201
| 14> H 	 -33.5328 	 20.6601 	 18.7776
| 15> H 	 -35.2675 	 21.0659 	 18.9375
| 16> C 	 -34.2898 	 22.1117 	 17.435
| 17> H 	 -33.6068 	 22.0106 	 16.63
| 18> H 	 -35.243 	 22.3414 	 17.011
| 19> C 	 -33.696 	 23.2958 	 18.1554
| 20> H 	 -32.834 	 23.0828 	 18.8864
| 21> H 	 -33.4473 	 24.1271 	 17.4586
| 22> H 	 -34.4803 	 23.69 	 18.8272
| 23> S 	 -34.7788 	 15.1321 	 15.4294
| 24> C 	 -33.7321 	 14.4639 	 14.2711
| 25> C 	 -32.617 	 15.1966 	 14.0503
| 26> C 	 -32.7192 	 16.5247 	 14.7044
| 27> C 	 -33.9659 	 16.6493 	 15.2854
| 28> H 	 -31.8753 	 14.9031 	 13.341
| 29> C 	 -31.6605 	 17.6434 	 14.29
| 30> H 	 -30.6687 	 17.2259 	 14.2244
| 31> H 	 -31.8289 	 18.4302 	 15.0858
| 32> C 	 -32.044 	 18.3062 	 13.0345
| 33> H 	 -33.064 	 18.7353 	 12.997
| 34> H 	 -32.0011 	 17.5717 	 12.2396
| 35> C 	 -31.081 	 19.433 	 12.652
| 36> H 	 -31.2292 	 19.7508 	 11.5734
| 37> H 	 -30.0923 	 19.1089 	 12.785
| 38> H 	 -31.2559 	 20.2652 	 13.3427
| 39> H 	 -36.9622 	 20.2074 	 16.9702
| 40> H 	 -33.7463 	 13.4483 	 14.0488
| 41> *
| 42>
| 43>                          ****END OF INPUT****

CARTESIAN COORDINATES (ANGSTROEM)
---------------------------------
  S    -36.306700   17.989400   15.939000
  C    -36.157900   19.551400   16.760200
  C    -34.937300   19.689400   17.347000
  C    -34.050300   18.686900   16.800600
  C    -34.585400   17.714500   16.055100
  H    -32.940000   18.678400   16.997200
  C    -34.445400   20.854300   18.220100
  H    -33.532800   20.660100   18.777600
  H    -35.267500   21.065900   18.937500
  C    -34.289800   22.111700   17.435000
  H    -33.606800   22.010600   16.630000
  H    -35.243000   22.341400   17.011000
  C    -33.696000   23.295800   18.155400
  H    -32.834000   23.082800   18.886400
  H    -33.447300   24.127100   17.458600
  H    -34.480300   23.690000   18.827200
  S    -34.778800   15.132100   15.429400
  C    -33.732100   14.463900   14.271100
  C    -32.617000   15.196600   14.050300
  C    -32.719200   16.524700   14.704400
  C    -33.965900   16.649300   15.285400
  H    -31.875300   14.903100   13.341000
  C    -31.660500   17.643400   14.290000
  H    -30.668700   17.225900   14.224400
  H    -31.828900   18.430200   15.085800
  C    -32.044000   18.306200   13.034500
  H    -33.064000   18.735300   12.997000
  H    -32.001100   17.571700   12.239600
  C    -31.081000   19.433000   12.652000
  H    -31.229200   19.750800   11.573400
  H    -30.092300   19.108900   12.785000
  H    -31.255900   20.265200   13.342700
  H    -36.962200   20.207400   16.970200
  H    -33.746300   13.448300   14.048800

 Total Charge           Charge          ....    0
 Multiplicity           Mult            ....    1
 Number of Electrons    NEL             ....  134
 Basis Dimension        Dim             ....  322

ORBITAL ENERGIES
----------------

  NO   OCC          E(Eh)            E(eV)
   0   2.0000     -88.962526     -2420.7934
   1   2.0000     -88.961926     -2420.7771
   2   2.0000     -10.325876      -280.9814
   3   2.0000     -10.323318      -280.9118
   4   2.0000     -10.312527      -280.6181
   5   2.0000     -10.310104      -280.5522
   6   2.0000     -10.303743      -280.3791
   7   2.0000     -10.303617      -280.3757
   8   2.0000     -10.299257      -280.2570
   9   2.0000     -10.296623      -280.1854
  10   2.0000     -10.292937      -280.0851
  11   2.0000     -10.292219      -280.0655
  12   2.0000     -10.286840      -279.9192
  13   2.0000     -10.278672      -279.6969
  14   2.0000     -10.277651      -279.6691
  15   2.0000     -10.276077      -279.6263
  16   2.0000      -8.079217      -219.8467
  17   2.0000      -8.076793      -219.7807
  18   2.0000      -6.037612      -164.2918
  19   2.0000      -6.035495      -164.2342
  20   2.0000      -6.033690      -164.1850
  21   2.0000      -6.031412      -164.1231
  22   2.0000      -6.029734      -164.0774
  23   2.0000      -6.027178      -164.0079
  24   2.0000      -1.014446       -27.6045
  25   2.0000      -0.989952       -26.9380
  26   2.0000      -0.921767       -25.0825
  27   2.0000      -0.916448       -24.9378
  28   2.0000      -0.875898       -23.8344
  29   2.0000      -0.850360       -23.1395
  30   2.0000      -0.841432       -22.8965
  31   2.0000      -0.818328       -22.2678
  32   2.0000      -0.783816       -21.3287
  33   2.0000      -0.775779       -21.1100
  34   2.0000      -0.703366       -19.1396
  35   2.0000      -0.698824       -19.0160
  36   2.0000      -0.688709       -18.7407
  37   2.0000      -0.667716       -18.1695
  38   2.0000      -0.642539       -17.4844
  39   2.0000      -0.618848       -16.8397
  40   2.0000      -0.596416       -16.2293
  41   2.0000      -0.579292       -15.7633
  42   2.0000      -0.577495       -15.7144
  43   2.0000      -0.563252       -15.3269
  44   2.0000      -0.530053       -14.4235
  45   2.0000      -0.526742       -14.3334
  46   2.0000      -0.517316       -14.0769
  47   2.0000      -0.512194       -13.9375
  48   2.0000      -0.503000       -13.6873
  49   2.0000      -0.501001       -13.6329
  50   2.0000      -0.489943       -13.3320
  51   2.0000      -0.488394       -13.2899
  52   2.0000      -0.473759       -12.8917
  53   2.0000      -0.460846       -12.5402
  54   2.0000      -0.459664       -12.5081
  55   2.0000      -0.447711       -12.1828
  56   2.0000      -0.445303       -12.1173
  57   2.0000      -0.443684       -12.0732
  58   2.0000      -0.439231       -11.9521
  59   2.0000      -0.425707       -11.5841
  60   2.0000      -0.419710       -11.4209
  61   2.0000      -0.407842       -11.0979
  62   2.0000      -0.403559       -10.9814
  63   2.0000      -0.358139        -9.7455
  64   2.0000      -0.329658        -8.9705
  65   2.0000      -0.328612        -8.9420
  66   2.0000      -0.293647        -7.9905
  67   0.0000       0.030570         0.8319
  68   0.0000       0.072870         1.9829
  69   0.0000       0.101616         2.7651
  70   0.0000       0.121125         3.2960
  71   0.0000       0.134086         3.6487

MULLIKEN ATOMIC CHARGES
-----------------------
   0 S :    0.096892
   1 C :   -0.121380
   2 C :   -0.064641
   3 C :   -0.041267
   4 C :   -0.102716
   5 H :    0.031925
   6 C :    0.074491
   7 H :    0.022990
   8 H :    0.028899
   9 C :   -0.047659
  10 H :    0.014538
  11 H :    0.015881
  12 C :   -0.076627
  13 H :    0.042302
  14 H :    0.047331
  15 H :    0.020748
  16 S :    0.101995
  17 C :   -0.035686
  18 C :   -0.049830
  19 C :   -0.048838
  20 C :   -0.137181
  21 H :    0.017233
  22 C :    0.058466
  23 H :    0.030566
  24 H :    0.020177
  25 C :   -0.075736
  26 H :    0.042260
  27 H :    0.010453
  28 C :   -0.032570
  29 H :    0.046486
  30 H :    0.011049
  31 H :    0.030992
  32 H :    0.035679
  33 H :    0.032777
Sum of atomic charges:   -0.0000000

LOEWDIN ATOMIC CHARGES
----------------------
   0 S :    0.387422
   1 C :   -0.179058
   2 C :   -0.056094
   3 C :   -0.074252
   4 C :   -0.198842
   5 H :    0.036081
   6 C :   -0.026900
   7 H :    0.029249
   8 H :    0.035722
   9 C :   -0.044856
  10 H :    0.018946
  11 H :    0.021645
  12 C :   -0.074930
  13 H :    0.033160
  14 H :    0.032478
  15 H :    0.021828
  16 S :    0.427546
  17 C :   -0.189932
  18 C :   -0.065104
  19 C :   -0.048040
  20 C :   -0.198713
  21 H :    0.027468
  22 C :   -0.026727
  23 H :    0.030358
  24 H :    0.033360
  25 C :   -0.047509
  26 H :    0.032327
  27 H :    0.016859
  28 C :   -0.061155
  29 H :    0.035261
  30 H :    0.012391
  31 H :    0.024589
  32 H :    0.019830
  33 H :    0.015594

  Mayer bond orders larger than 0.100000
B(  0-S ,  1-C ) :   1.1278 B(  0-S ,  4-C ) :   1.1162 B(  1-C ,  2-C ) :   1.6408
B(  1-C , 32-H ) :   0.9692 B(  2-C ,  3-C ) :   1.2027 B(  2-C ,  6-C ) :   1.0284
B(  3-C ,  4-C ) :   1.6531 B(  3-C ,  5-H ) :   0.9763 B(  4-C , 20-C ) :   1.0126
B(  6-C ,  7-H ) :   0.9431 B(  6-C ,  8-H ) :   0.9335 B(  6-C ,  9-C ) :   1.0756
B(  9-C , 10-H ) :   0.9559 B(  9-C , 11-H ) :   0.9494 B(  9-C , 12-C ) :   1.0824
B( 12-C , 13-H ) :   0.9717 B( 12-C , 14-H ) :   0.9740 B( 12-C , 15-H ) :   0.9725
B( 16-S , 17-C ) :   1.1445 B( 16-S , 20-C ) :   1.1537 B( 17-C , 18-C ) :   1.6562
B( 17-C , 33-H ) :   0.9684 B( 18-C , 19-C ) :   1.1894 B( 18-C , 21-H ) :   0.9911
B( 19-C , 20-C ) :   1.6403 B( 19-C , 22-C ) :   1.0407 B( 22-C , 23-H ) :   0.9333
B( 22-C , 24-H ) :   0.9343 B( 22-C , 25-C ) :   1.0855 B( 25-C , 26-H ) :   0.9535
B( 25-C , 27-H ) :   0.9500 B( 25-C , 28-C ) :   1.0789 B( 28-C , 29-H ) :   0.9735
B( 28-C , 30-H ) :   0.9725 B( 28-C , 31-H ) :   0.9766

Dispersion correction           -0.013694059
FINAL SINGLE POINT ENERGY     -1339.860569674629

DIPOLE MOMENT
-------------
                                X             Y             Z
Electronic contribution:    -16.95181     -26.54120       1.45787
Nuclear contribution   :     17.48143      26.97726      -1.48158
                        -----------------------------------------
Total Dipole Moment    :      0.52962       0.43606      -0.02370
                        -----------------------------------------
Magnitude (a.u.)       :      0.68645
Magnitude (Debye)      :      1.74482

Rotational constants in cm-1:     0.018377     0.008727     0.006463
Rotational constants in MHz :   550.941343   261.618664   193.754027

                             ****ORCA TERMINATED NORMALLY****
TOTAL RUN TIME: 0 days 0 hours 0 minutes 21 seconds 432 msec
