                         Program Version 4.2.1 -  RELEASE  -
|  1> ! wB97X-D3 SP def2-SVP
|  2> %pal
|  3> nprocs 24
|  4> end
|  5>
|  6> * xyz 0 1
|  7> S 	 22.1035 	 -8.54372 	 -112.04
|  8> C 	 23.7373 	 -9.23889 	 -111.801
|  9> C 	 24.6833 	 -8.84502 	 -112.77
| 10> C 	 24.0505 	 -7.71783 	 -113.483
| 11> C 	 22.6859 	 -7.53677 	 -113.366
| 12> H 	 24.5688 	 -7.02908 	 -114.112
| 13> C 	 26.1824 	 -9.19039 	 -112.893
| 14> H 	 26.504 	 -9.95442 	 -112.124
| 15> H 	 26.5628 	 -8.20485 	 -112.617
| 16> C 	 26.6111 	 -9.48694 	 -114.378
| 17> H 	 26.0421 	 -10.4058 	 -114.734
| 18> H 	 26.4427 	 -8.61925 	 -115.022
| 19> C 	 28.1193 	 -9.75681 	 -114.423
| 20> H 	 28.4518 	 -9.98904 	 -115.454
| 21> H 	 28.7338 	 -9.01263 	 -114.075
| 22> H 	 28.3187 	 -10.6831 	 -113.861
| 23> S 	 21.8995 	 -6.37803 	 -115.723
| 24> C 	 21.0807 	 -4.79772 	 -115.739
| 25> C 	 20.7245 	 -4.49432 	 -114.437
| 26> C 	 21.2439 	 -5.36501 	 -113.449
| 27> C 	 21.8878 	 -6.4398 	 -113.988
| 28> H 	 20.1925 	 -3.57719 	 -114.326
| 29> C 	 21.1853 	 -4.95593 	 -111.932
| 30> H 	 22.2709 	 -5.02109 	 -111.742
| 31> H 	 20.8359 	 -5.73024 	 -111.222
| 32> C 	 20.4875 	 -3.61834 	 -111.565
| 33> H 	 19.5391 	 -3.59624 	 -112.037
| 34> H 	 21.0149 	 -2.76494 	 -111.932
| 35> C 	 20.3163 	 -3.40179 	 -110.029
| 36> H 	 21.3479 	 -3.49104 	 -109.639
| 37> H 	 19.7176 	 -4.17534 	 -109.555
| 38> H 	 19.8955 	 -2.42929 	 -109.777
| 39> H 	 24.1224 	 -9.87475 	 -111.035
| 40> H 	 20.679 	 -4.28042 	 -116.629
| 41> *
| 42>
| 43>                          ****END OF INPUT****

CARTESIAN COORDINATES (ANGSTROEM)
---------------------------------
  S     22.103500   -8.543720  -112.040000
  C     23.737300   -9.238890  -111.801000
  C     24.683300   -8.845020  -112.770000
  C     24.050500   -7.717830  -113.483000
  C     22.685900   -7.536770  -113.366000
  H     24.568800   -7.029080  -114.112000
  C     26.182400   -9.190390  -112.893000
  H     26.504000   -9.954420  -112.124000
  H     26.562800   -8.204850  -112.617000
  C     26.611100   -9.486940  -114.378000
  H     26.042100  -10.405800  -114.734000
  H     26.442700   -8.619250  -115.022000
  C     28.119300   -9.756810  -114.423000
  H     28.451800   -9.989040  -115.454000
  H     28.733800   -9.012630  -114.075000
  H     28.318700  -10.683100  -113.861000
  S     21.899500   -6.378030  -115.723000
  C     21.080700   -4.797720  -115.739000
  C     20.724500   -4.494320  -114.437000
  C     21.243900   -5.365010  -113.449000
  C     21.887800   -6.439800  -113.988000
  H     20.192500   -3.577190  -114.326000
  C     21.185300   -4.955930  -111.932000
  H     22.270900   -5.021090  -111.742000
  H     20.835900   -5.730240  -111.222000
  C     20.487500   -3.618340  -111.565000
  H     19.539100   -3.596240  -112.037000
  H     21.014900   -2.764940  -111.932000
  C     20.316300   -3.401790  -110.029000
  H     21.347900   -3.491040  -109.639000
  H     19.717600   -4.175340  -109.555000
  H     19.895500   -2.429290  -109.777000
  H     24.122400   -9.874750  -111.035000
  H     20.679000   -4.280420  -116.629000

 Total Charge           Charge          ....    0
 Multiplicity           Mult            ....    1
 Number of Electrons    NEL             ....  134
 Basis Dimension        Dim             ....  322

ORBITAL ENERGIES
----------------

  NO   OCC          E(Eh)            E(eV)
   0   2.0000     -88.968051     -2420.9437
   1   2.0000     -88.963879     -2420.8302
   2   2.0000     -10.331187      -281.1259
   3   2.0000     -10.326252      -280.9916
   4   2.0000     -10.319814      -280.8164
   5   2.0000     -10.318166      -280.7716
   6   2.0000     -10.311250      -280.5834
   7   2.0000     -10.308494      -280.5084
   8   2.0000     -10.305341      -280.4226
   9   2.0000     -10.299444      -280.2621
  10   2.0000     -10.297672      -280.2139
  11   2.0000     -10.296011      -280.1687
  12   2.0000     -10.290501      -280.0188
  13   2.0000     -10.285411      -279.8803
  14   2.0000     -10.281155      -279.7645
  15   2.0000     -10.275920      -279.6220
  16   2.0000      -8.081264      -219.9024
  17   2.0000      -8.078300      -219.8217
  18   2.0000      -6.040029      -164.3576
  19   2.0000      -6.036847      -164.2710
  20   2.0000      -6.036057      -164.2495
  21   2.0000      -6.032767      -164.1599
  22   2.0000      -6.031764      -164.1326
  23   2.0000      -6.029108      -164.0604
  24   2.0000      -1.002432       -27.2776
  25   2.0000      -0.976935       -26.5837
  26   2.0000      -0.908149       -24.7120
  27   2.0000      -0.900642       -24.5077
  28   2.0000      -0.866762       -23.5858
  29   2.0000      -0.848075       -23.0773
  30   2.0000      -0.842467       -22.9247
  31   2.0000      -0.812058       -22.0972
  32   2.0000      -0.780497       -21.2384
  33   2.0000      -0.771106       -20.9829
  34   2.0000      -0.707642       -19.2559
  35   2.0000      -0.703810       -19.1516
  36   2.0000      -0.692476       -18.8432
  37   2.0000      -0.656387       -17.8612
  38   2.0000      -0.632883       -17.2216
  39   2.0000      -0.615605       -16.7515
  40   2.0000      -0.593500       -16.1500
  41   2.0000      -0.569770       -15.5042
  42   2.0000      -0.565302       -15.3826
  43   2.0000      -0.562357       -15.3025
  44   2.0000      -0.529712       -14.4142
  45   2.0000      -0.520978       -14.1765
  46   2.0000      -0.517698       -14.0873
  47   2.0000      -0.509926       -13.8758
  48   2.0000      -0.503501       -13.7010
  49   2.0000      -0.502806       -13.6820
  50   2.0000      -0.483402       -13.1540
  51   2.0000      -0.474875       -12.9220
  52   2.0000      -0.463739       -12.6190
  53   2.0000      -0.459601       -12.5064
  54   2.0000      -0.455166       -12.3857
  55   2.0000      -0.447560       -12.1787
  56   2.0000      -0.445437       -12.1210
  57   2.0000      -0.434247       -11.8165
  58   2.0000      -0.432780       -11.7765
  59   2.0000      -0.431582       -11.7439
  60   2.0000      -0.427542       -11.6340
  61   2.0000      -0.419601       -11.4179
  62   2.0000      -0.412916       -11.2360
  63   2.0000      -0.338797        -9.2191
  64   2.0000      -0.331471        -9.0198
  65   2.0000      -0.322984        -8.7888
  66   2.0000      -0.297493        -8.0952
  67   0.0000       0.032050         0.8721
  68   0.0000       0.070953         1.9307
  69   0.0000       0.112290         3.0556
  70   0.0000       0.117761         3.2044
  71   0.0000       0.126924         3.4538

MULLIKEN ATOMIC CHARGES
-----------------------
   0 S :    0.108898
   1 C :   -0.107422
   2 C :   -0.084617
   3 C :    0.014780
   4 C :   -0.148617
   5 H :    0.005502
   6 C :    0.034923
   7 H :    0.042239
   8 H :    0.042589
   9 C :   -0.104414
  10 H :    0.055186
  11 H :    0.044424
  12 C :   -0.022497
  13 H :    0.033194
  14 H :    0.018173
  15 H :    0.024633
  16 S :    0.103646
  17 C :   -0.109960
  18 C :   -0.056864
  19 C :    0.004079
  20 C :   -0.175939
  21 H :    0.014909
  22 C :    0.033720
  23 H :    0.038434
  24 H :    0.031796
  25 C :   -0.058792
  26 H :    0.029320
  27 H :    0.026828
  28 C :   -0.049481
  29 H :    0.033540
  30 H :    0.035990
  31 H :    0.038274
  32 H :    0.031943
  33 H :    0.071584
Sum of atomic charges:   -0.0000000

LOEWDIN ATOMIC CHARGES
----------------------
   0 S :    0.382756
   1 C :   -0.187906
   2 C :   -0.056336
   3 C :   -0.057304
   4 C :   -0.199785
   5 H :    0.020049
   6 C :   -0.034380
   7 H :    0.037176
   8 H :    0.038400
   9 C :   -0.038160
  10 H :    0.036814
  11 H :    0.027313
  12 C :   -0.063041
  13 H :    0.029873
  14 H :    0.011726
  15 H :    0.026531
  16 S :    0.406099
  17 C :   -0.185221
  18 C :   -0.073521
  19 C :   -0.056649
  20 C :   -0.205337
  21 H :    0.028000
  22 C :   -0.038232
  23 H :    0.039685
  24 H :    0.030358
  25 C :   -0.038258
  26 H :    0.018002
  27 H :    0.021580
  28 C :   -0.061162
  29 H :    0.029361
  30 H :    0.023207
  31 H :    0.026846
  32 H :    0.023146
  33 H :    0.038372

  Mayer bond orders larger than 0.100000
B(  0-S ,  1-C ) :   1.1301 B(  0-S ,  4-C ) :   1.1069 B(  1-C ,  2-C ) :   1.6431
B(  1-C , 32-H ) :   0.9646 B(  2-C ,  3-C ) :   1.1901 B(  2-C ,  6-C ) :   1.0131
B(  3-C ,  4-C ) :   1.6451 B(  3-C ,  5-H ) :   0.9809 B(  4-C , 20-C ) :   1.0033
B(  6-C ,  7-H ) :   0.9495 B(  6-C ,  8-H ) :   0.9376 B(  6-C ,  9-C ) :   1.0524
B(  9-C , 10-H ) :   0.9586 B(  9-C , 11-H ) :   0.9546 B(  9-C , 12-C ) :   1.0874
B( 12-C , 13-H ) :   0.9736 B( 12-C , 14-H ) :   0.9757 B( 12-C , 15-H ) :   0.9730
B( 16-S , 17-C ) :   1.1517 B( 16-S , 20-C ) :   1.1545 B( 17-C , 18-C ) :   1.6064
B( 17-C , 33-H ) :   0.9599 B( 18-C , 19-C ) :   1.2509 B( 18-C , 21-H ) :   0.9871
B( 19-C , 20-C ) :   1.6063 B( 19-C , 22-C ) :   1.0014 B( 22-C , 23-H ) :   0.9273
B( 22-C , 24-H ) :   0.9435 B( 22-C , 25-C ) :   1.0679 B( 25-C , 26-H ) :   0.9516
B( 25-C , 27-H ) :   0.9509 B( 25-C , 28-C ) :   1.0818 B( 28-C , 29-H ) :   0.9767
B( 28-C , 30-H ) :   0.9770 B( 28-C , 31-H ) :   0.9742

Dispersion correction           -0.013473421
FINAL SINGLE POINT ENERGY     -1339.859794333682

DIPOLE MOMENT
-------------
                                X             Y             Z
Electronic contribution:    -12.84252      -5.32849      -9.04869
Nuclear contribution   :     13.34074       5.69985       9.24305
                        -----------------------------------------
Total Dipole Moment    :      0.49822       0.37136       0.19436
                        -----------------------------------------
Magnitude (a.u.)       :      0.65108
Magnitude (Debye)      :      1.65491

Rotational constants in cm-1:     0.020130     0.007104     0.005965
Rotational constants in MHz :   603.493420   212.959745   178.830527

                             ****ORCA TERMINATED NORMALLY****
TOTAL RUN TIME: 0 days 0 hours 0 minutes 20 seconds 420 msec
