                         Program Version 4.2.1 -  RELEASE  -
|  1> ! wB97X-D3 SP def2-SVP
|  2> %pal
|  3> nprocs 24
|  4> end
|  5>
|  6> * xyz 0 1
|  7> S 	 -48.1366 	 7.29002 	 -20.1948
|  8> C 	 -49.2636 	 7.8627 	 -18.9106
|  9> C 	 -50.2853 	 8.61812 	 -19.4438
| 10> C 	 -50.1739 	 8.72357 	 -20.8948
| 11> C 	 -48.992 	 8.13781 	 -21.4214
| 12> H 	 -50.8943 	 9.22946 	 -21.4886
| 13> C 	 -51.3275 	 9.31048 	 -18.642
| 14> H 	 -51.2902 	 8.91674 	 -17.6082
| 15> H 	 -52.3281 	 8.96975 	 -18.9782
| 16> C 	 -51.2353 	 10.872 	 -18.7952
| 17> H 	 -51.3433 	 11.0806 	 -19.8661
| 18> H 	 -52.1898 	 11.4069 	 -18.4515
| 19> C 	 -50.082 	 11.5614 	 -18.0461
| 20> H 	 -50.2724 	 12.6213 	 -18.1532
| 21> H 	 -50.0745 	 11.2879 	 -16.9386
| 22> H 	 -49.1079 	 11.4681 	 -18.423
| 23> S 	 -49.2915 	 6.75684 	 -23.8072
| 24> C 	 -48.4011 	 7.20321 	 -25.2064
| 25> C 	 -47.7382 	 8.40734 	 -25.0407
| 26> C 	 -47.8806 	 8.9596 	 -23.7227
| 27> C 	 -48.6147 	 8.08826 	 -22.8574
| 28> H 	 -47.1088 	 8.95373 	 -25.7403
| 29> C 	 -47.0778 	 10.1683 	 -23.3048
| 30> H 	 -46.1018 	 10.1522 	 -23.7805
| 31> H 	 -46.7971 	 9.97131 	 -22.2556
| 32> C 	 -47.8549 	 11.4528 	 -23.466
| 33> H 	 -48.7169 	 11.547 	 -22.8506
| 34> H 	 -48.2786 	 11.6874 	 -24.5083
| 35> C 	 -46.9693 	 12.6073 	 -23.0042
| 36> H 	 -47.5459 	 13.5201 	 -23.0312
| 37> H 	 -46.1228 	 12.6142 	 -23.6565
| 38> H 	 -46.5704 	 12.4114 	 -22.0933
| 39> H 	 -49.2611 	 7.49998 	 -17.9263
| 40> H 	 -48.3229 	 6.59214 	 -26.0164
| 41> *
| 42>
| 43>                          ****END OF INPUT****

CARTESIAN COORDINATES (ANGSTROEM)
---------------------------------
  S    -48.136600    7.290020  -20.194800
  C    -49.263600    7.862700  -18.910600
  C    -50.285300    8.618120  -19.443800
  C    -50.173900    8.723570  -20.894800
  C    -48.992000    8.137810  -21.421400
  H    -50.894300    9.229460  -21.488600
  C    -51.327500    9.310480  -18.642000
  H    -51.290200    8.916740  -17.608200
  H    -52.328100    8.969750  -18.978200
  C    -51.235300   10.872000  -18.795200
  H    -51.343300   11.080600  -19.866100
  H    -52.189800   11.406900  -18.451500
  C    -50.082000   11.561400  -18.046100
  H    -50.272400   12.621300  -18.153200
  H    -50.074500   11.287900  -16.938600
  H    -49.107900   11.468100  -18.423000
  S    -49.291500    6.756840  -23.807200
  C    -48.401100    7.203210  -25.206400
  C    -47.738200    8.407340  -25.040700
  C    -47.880600    8.959600  -23.722700
  C    -48.614700    8.088260  -22.857400
  H    -47.108800    8.953730  -25.740300
  C    -47.077800   10.168300  -23.304800
  H    -46.101800   10.152200  -23.780500
  H    -46.797100    9.971310  -22.255600
  C    -47.854900   11.452800  -23.466000
  H    -48.716900   11.547000  -22.850600
  H    -48.278600   11.687400  -24.508300
  C    -46.969300   12.607300  -23.004200
  H    -47.545900   13.520100  -23.031200
  H    -46.122800   12.614200  -23.656500
  H    -46.570400   12.411400  -22.093300
  H    -49.261100    7.499980  -17.926300
  H    -48.322900    6.592140  -26.016400

 Total Charge           Charge          ....    0
 Multiplicity           Mult            ....    1
 Number of Electrons    NEL             ....  134
 Basis Dimension        Dim             ....  322

ORBITAL ENERGIES
----------------

  NO   OCC          E(Eh)            E(eV)
   0   2.0000     -88.966564     -2420.9033
   1   2.0000     -88.964013     -2420.8339
   2   2.0000     -10.334080      -281.2046
   3   2.0000     -10.330174      -281.0983
   4   2.0000     -10.313239      -280.6375
   5   2.0000     -10.310343      -280.5587
   6   2.0000     -10.305018      -280.4138
   7   2.0000     -10.302090      -280.3341
   8   2.0000     -10.299387      -280.2606
   9   2.0000     -10.298096      -280.2254
  10   2.0000     -10.297249      -280.2024
  11   2.0000     -10.293128      -280.0903
  12   2.0000     -10.290762      -280.0259
  13   2.0000     -10.284045      -279.8431
  14   2.0000     -10.279322      -279.7146
  15   2.0000     -10.262128      -279.2467
  16   2.0000      -8.080834      -219.8907
  17   2.0000      -8.079012      -219.8411
  18   2.0000      -6.039431      -164.3413
  19   2.0000      -6.037440      -164.2871
  20   2.0000      -6.035299      -164.2288
  21   2.0000      -6.033334      -164.1754
  22   2.0000      -6.031639      -164.1292
  23   2.0000      -6.029997      -164.0846
  24   2.0000      -0.998950       -27.1828
  25   2.0000      -0.979368       -26.6500
  26   2.0000      -0.914825       -24.8936
  27   2.0000      -0.909003       -24.7352
  28   2.0000      -0.862806       -23.4781
  29   2.0000      -0.853485       -23.2245
  30   2.0000      -0.841553       -22.8998
  31   2.0000      -0.809409       -22.0251
  32   2.0000      -0.784211       -21.3395
  33   2.0000      -0.772402       -21.0181
  34   2.0000      -0.708777       -19.2868
  35   2.0000      -0.701446       -19.0873
  36   2.0000      -0.692687       -18.8490
  37   2.0000      -0.662538       -18.0286
  38   2.0000      -0.639365       -17.3980
  39   2.0000      -0.616684       -16.7808
  40   2.0000      -0.600936       -16.3523
  41   2.0000      -0.564754       -15.3677
  42   2.0000      -0.561360       -15.2754
  43   2.0000      -0.548270       -14.9192
  44   2.0000      -0.541488       -14.7346
  45   2.0000      -0.538626       -14.6568
  46   2.0000      -0.515074       -14.0159
  47   2.0000      -0.511289       -13.9129
  48   2.0000      -0.507326       -13.8050
  49   2.0000      -0.497765       -13.5449
  50   2.0000      -0.491714       -13.3802
  51   2.0000      -0.474464       -12.9108
  52   2.0000      -0.467654       -12.7255
  53   2.0000      -0.464922       -12.6512
  54   2.0000      -0.457775       -12.4567
  55   2.0000      -0.451172       -12.2770
  56   2.0000      -0.443888       -12.0788
  57   2.0000      -0.439631       -11.9630
  58   2.0000      -0.432615       -11.7720
  59   2.0000      -0.427831       -11.6419
  60   2.0000      -0.415537       -11.3073
  61   2.0000      -0.412673       -11.2294
  62   2.0000      -0.410661       -11.1747
  63   2.0000      -0.333017        -9.0619
  64   2.0000      -0.325187        -8.8488
  65   2.0000      -0.316326        -8.6077
  66   2.0000      -0.311236        -8.4692
  67   0.0000       0.042054         1.1444
  68   0.0000       0.052115         1.4181
  69   0.0000       0.114070         3.1040
  70   0.0000       0.123147         3.3510
  71   0.0000       0.125322         3.4102

MULLIKEN ATOMIC CHARGES
-----------------------
   0 S :    0.110343
   1 C :   -0.113882
   2 C :   -0.086162
   3 C :    0.054634
   4 C :   -0.164373
   5 H :    0.003352
   6 C :    0.071301
   7 H :    0.018432
   8 H :    0.032749
   9 C :   -0.102110
  10 H :    0.027364
  11 H :    0.031975
  12 C :   -0.031227
  13 H :    0.028508
  14 H :    0.043484
  15 H :    0.032402
  16 S :    0.117167
  17 C :   -0.050268
  18 C :   -0.018208
  19 C :   -0.020273
  20 C :   -0.191409
  21 H :    0.016177
  22 C :    0.041902
  23 H :    0.022891
  24 H :    0.029055
  25 C :   -0.092560
  26 H :    0.019922
  27 H :    0.036912
  28 C :    0.035213
  29 H :    0.032372
  30 H :    0.008176
  31 H :   -0.001832
  32 H :    0.032801
  33 H :    0.025170
Sum of atomic charges:   -0.0000000

LOEWDIN ATOMIC CHARGES
----------------------
   0 S :    0.402526
   1 C :   -0.179793
   2 C :   -0.060543
   3 C :   -0.053486
   4 C :   -0.213018
   5 H :    0.022773
   6 C :   -0.037013
   7 H :    0.029882
   8 H :    0.035882
   9 C :   -0.045272
  10 H :    0.024039
  11 H :    0.031334
  12 C :   -0.066507
  13 H :    0.028712
  14 H :    0.036264
  15 H :    0.018263
  16 S :    0.420863
  17 C :   -0.178192
  18 C :   -0.071589
  19 C :   -0.045590
  20 C :   -0.208092
  21 H :    0.031325
  22 C :   -0.034566
  23 H :    0.030442
  24 H :    0.037895
  25 C :   -0.039343
  26 H :    0.019646
  27 H :    0.030735
  28 C :   -0.049397
  29 H :    0.025766
  30 H :    0.019508
  31 H :    0.009366
  32 H :    0.018245
  33 H :    0.008936

  Mayer bond orders larger than 0.100000
B(  0-S ,  1-C ) :   1.1253 B(  0-S ,  4-C ) :   1.1665 B(  1-C ,  2-C ) :   1.6179
B(  1-C , 32-H ) :   0.9722 B(  2-C ,  3-C ) :   1.2268 B(  2-C ,  6-C ) :   1.0362
B(  3-C ,  4-C ) :   1.5703 B(  3-C ,  5-H ) :   0.9964 B(  4-C , 20-C ) :   1.0007
B(  6-C ,  7-H ) :   0.9455 B(  6-C ,  8-H ) :   0.9329 B(  6-C ,  9-C ) :   1.0585
B(  9-C , 10-H ) :   0.9553 B(  9-C , 11-H ) :   0.9578 B(  9-C , 12-C ) :   1.0642
B( 12-C , 13-H ) :   0.9722 B( 12-C , 14-H ) :   0.9741 B( 12-C , 15-H ) :   0.9781
B( 16-S , 17-C ) :   1.1773 B( 16-S , 20-C ) :   1.1577 B( 17-C , 18-C ) :   1.5571
B( 17-C , 20-C ) :   0.1057 B( 17-C , 33-H ) :   0.9822 B( 18-C , 19-C ) :   1.2805
B( 18-C , 21-H ) :   0.9870 B( 19-C , 20-C ) :   1.5721 B( 19-C , 22-C ) :   1.0362
B( 22-C , 23-H ) :   0.9472 B( 22-C , 24-H ) :   0.9321 B( 22-C , 25-C ) :   1.0577
B( 25-C , 26-H ) :   0.9528 B( 25-C , 27-H ) :   0.9582 B( 25-C , 28-C ) :   1.0856
B( 28-C , 29-H ) :   0.9736 B( 28-C , 30-H ) :   0.9715 B( 28-C , 31-H ) :   0.9674

Dispersion correction           -0.014282633
FINAL SINGLE POINT ENERGY     -1339.866543779312

DIPOLE MOMENT
-------------
                                X             Y             Z
Electronic contribution:      1.48603     -27.60245      -8.07803
Nuclear contribution   :     -1.61701      28.12192       8.16092
                        -----------------------------------------
Total Dipole Moment    :     -0.13098       0.51948       0.08289
                        -----------------------------------------
Magnitude (a.u.)       :      0.54211
Magnitude (Debye)      :      1.37793

Rotational constants in cm-1:     0.017158     0.009434     0.007107
Rotational constants in MHz :   514.380320   282.813520   213.053794

                             ****ORCA TERMINATED NORMALLY****
TOTAL RUN TIME: 0 days 0 hours 0 minutes 21 seconds 655 msec
