                         Program Version 4.2.1 -  RELEASE  -
|  1> ! wB97X-D3 SP def2-SVP
|  2> %pal
|  3> nprocs 24
|  4> end
|  5>
|  6> * xyz 0 1
|  7> S 	 -124.506 	 60.896 	 -57.5946
|  8> C 	 -123.756 	 62.4473 	 -57.7533
|  9> C 	 -124.718 	 63.4722 	 -57.6672
| 10> C 	 -126.052 	 62.9521 	 -57.6711
| 11> C 	 -126.113 	 61.5671 	 -57.831
| 12> H 	 -126.92 	 63.5407 	 -57.4913
| 13> C 	 -124.453 	 64.9796 	 -57.5031
| 14> H 	 -125.231 	 65.5701 	 -57.8667
| 15> H 	 -123.651 	 65.2367 	 -58.2228
| 16> C 	 -124.048 	 65.4873 	 -56.1016
| 17> H 	 -124.859 	 65.1503 	 -55.4498
| 18> H 	 -123.147 	 64.9056 	 -55.8034
| 19> C 	 -123.956 	 67.055 	 -56.1153
| 20> H 	 -124.847 	 67.56 	 -56.4054
| 21> H 	 -123.857 	 67.3899 	 -55.0753
| 22> H 	 -123.108 	 67.3268 	 -56.7169
| 23> S 	 -127.204 	 59.0948 	 -57.6029
| 24> C 	 -128.828 	 58.8079 	 -58.1839
| 25> C 	 -129.399 	 59.9305 	 -58.7695
| 26> C 	 -128.563 	 61.056 	 -58.5739
| 27> C 	 -127.318 	 60.7131 	 -57.9893
| 28> H 	 -130.299 	 59.8651 	 -59.2608
| 29> C 	 -128.849 	 62.36 	 -59.3314
| 30> H 	 -128.754 	 63.247 	 -58.6944
| 31> H 	 -129.816 	 62.3973 	 -59.7025
| 32> C 	 -127.882 	 62.6613 	 -60.5541
| 33> H 	 -127.842 	 61.8292 	 -61.2615
| 34> H 	 -126.856 	 62.7523 	 -60.2852
| 35> C 	 -128.439 	 63.815 	 -61.3346
| 36> H 	 -128.386 	 64.6119 	 -60.7014
| 37> H 	 -129.445 	 63.5024 	 -61.7065
| 38> H 	 -127.857 	 64.0931 	 -62.2031
| 39> H 	 -122.675 	 62.6469 	 -57.7653
| 40> H 	 -129.33 	 57.8287 	 -58.2179
| 41> *
| 42>
| 43>                          ****END OF INPUT****

CARTESIAN COORDINATES (ANGSTROEM)
---------------------------------
  S    -124.506000   60.896000  -57.594600
  C    -123.756000   62.447300  -57.753300
  C    -124.718000   63.472200  -57.667200
  C    -126.052000   62.952100  -57.671100
  C    -126.113000   61.567100  -57.831000
  H    -126.920000   63.540700  -57.491300
  C    -124.453000   64.979600  -57.503100
  H    -125.231000   65.570100  -57.866700
  H    -123.651000   65.236700  -58.222800
  C    -124.048000   65.487300  -56.101600
  H    -124.859000   65.150300  -55.449800
  H    -123.147000   64.905600  -55.803400
  C    -123.956000   67.055000  -56.115300
  H    -124.847000   67.560000  -56.405400
  H    -123.857000   67.389900  -55.075300
  H    -123.108000   67.326800  -56.716900
  S    -127.204000   59.094800  -57.602900
  C    -128.828000   58.807900  -58.183900
  C    -129.399000   59.930500  -58.769500
  C    -128.563000   61.056000  -58.573900
  C    -127.318000   60.713100  -57.989300
  H    -130.299000   59.865100  -59.260800
  C    -128.849000   62.360000  -59.331400
  H    -128.754000   63.247000  -58.694400
  H    -129.816000   62.397300  -59.702500
  C    -127.882000   62.661300  -60.554100
  H    -127.842000   61.829200  -61.261500
  H    -126.856000   62.752300  -60.285200
  C    -128.439000   63.815000  -61.334600
  H    -128.386000   64.611900  -60.701400
  H    -129.445000   63.502400  -61.706500
  H    -127.857000   64.093100  -62.203100
  H    -122.675000   62.646900  -57.765300
  H    -129.330000   57.828700  -58.217900

 Total Charge           Charge          ....    0
 Multiplicity           Mult            ....    1
 Number of Electrons    NEL             ....  134
 Basis Dimension        Dim             ....  322

ORBITAL ENERGIES
----------------

  NO   OCC          E(Eh)            E(eV)
   0   2.0000     -88.971235     -2421.0304
   1   2.0000     -88.968803     -2420.9642
   2   2.0000     -10.333889      -281.1994
   3   2.0000     -10.326569      -281.0002
   4   2.0000     -10.317265      -280.7471
   5   2.0000     -10.317072      -280.7418
   6   2.0000     -10.304612      -280.4027
   7   2.0000     -10.304189      -280.3912
   8   2.0000     -10.292257      -280.0666
   9   2.0000     -10.291566      -280.0477
  10   2.0000     -10.290354      -280.0148
  11   2.0000     -10.289051      -279.9793
  12   2.0000     -10.287921      -279.9486
  13   2.0000     -10.281391      -279.7709
  14   2.0000     -10.274422      -279.5812
  15   2.0000     -10.267240      -279.3858
  16   2.0000      -8.087347      -220.0679
  17   2.0000      -8.083510      -219.9635
  18   2.0000      -6.045619      -164.5097
  19   2.0000      -6.042122      -164.4145
  20   2.0000      -6.041668      -164.4021
  21   2.0000      -6.038282      -164.3100
  22   2.0000      -6.038146      -164.3063
  23   2.0000      -6.034073      -164.1955
  24   2.0000      -1.012465       -27.5506
  25   2.0000      -0.986441       -26.8424
  26   2.0000      -0.908298       -24.7161
  27   2.0000      -0.906149       -24.6576
  28   2.0000      -0.870652       -23.6916
  29   2.0000      -0.855043       -23.2669
  30   2.0000      -0.846175       -23.0256
  31   2.0000      -0.813662       -22.1409
  32   2.0000      -0.781042       -21.2532
  33   2.0000      -0.767843       -20.8941
  34   2.0000      -0.703993       -19.1566
  35   2.0000      -0.702833       -19.1251
  36   2.0000      -0.689423       -18.7601
  37   2.0000      -0.671486       -18.2721
  38   2.0000      -0.637919       -17.3587
  39   2.0000      -0.622665       -16.9436
  40   2.0000      -0.597562       -16.2605
  41   2.0000      -0.572248       -15.5717
  42   2.0000      -0.570063       -15.5122
  43   2.0000      -0.560520       -15.2525
  44   2.0000      -0.525788       -14.3074
  45   2.0000      -0.521335       -14.1862
  46   2.0000      -0.516799       -14.0628
  47   2.0000      -0.509829       -13.8731
  48   2.0000      -0.498656       -13.5691
  49   2.0000      -0.498471       -13.5641
  50   2.0000      -0.497070       -13.5260
  51   2.0000      -0.483637       -13.1604
  52   2.0000      -0.472830       -12.8664
  53   2.0000      -0.467231       -12.7140
  54   2.0000      -0.458260       -12.4699
  55   2.0000      -0.456181       -12.4133
  56   2.0000      -0.448005       -12.1908
  57   2.0000      -0.438069       -11.9205
  58   2.0000      -0.433653       -11.8003
  59   2.0000      -0.426111       -11.5951
  60   2.0000      -0.419180       -11.4065
  61   2.0000      -0.414992       -11.2925
  62   2.0000      -0.412592       -11.2272
  63   2.0000      -0.358616        -9.7584
  64   2.0000      -0.337200        -9.1757
  65   2.0000      -0.325435        -8.8555
  66   2.0000      -0.277528        -7.5519
  67   0.0000       0.017136         0.4663
  68   0.0000       0.078779         2.1437
  69   0.0000       0.099814         2.7161
  70   0.0000       0.118914         3.2358
  71   0.0000       0.136973         3.7272

MULLIKEN ATOMIC CHARGES
-----------------------
   0 S :    0.105184
   1 C :   -0.119124
   2 C :   -0.088058
   3 C :   -0.000015
   4 C :   -0.112724
   5 H :    0.005204
   6 C :    0.055929
   7 H :   -0.004603
   8 H :    0.019445
   9 C :   -0.078365
  10 H :    0.028156
  11 H :    0.036091
  12 C :   -0.026613
  13 H :    0.027915
  14 H :    0.035057
  15 H :    0.038001
  16 S :    0.121632
  17 C :   -0.104623
  18 C :   -0.003104
  19 C :   -0.025245
  20 C :   -0.124904
  21 H :   -0.008611
  22 C :    0.064603
  23 H :    0.016577
  24 H :   -0.009095
  25 C :   -0.073436
  26 H :    0.015874
  27 H :    0.036099
  28 C :   -0.009143
  29 H :    0.004790
  30 H :    0.033333
  31 H :    0.026583
  32 H :    0.056105
  33 H :    0.061085
Sum of atomic charges:    0.0000000

LOEWDIN ATOMIC CHARGES
----------------------
   0 S :    0.406989
   1 C :   -0.211643
   2 C :   -0.059676
   3 C :   -0.065742
   4 C :   -0.183029
   5 H :    0.025852
   6 C :   -0.037081
   7 H :    0.016119
   8 H :    0.030861
   9 C :   -0.037225
  10 H :    0.023072
  11 H :    0.027474
  12 C :   -0.059940
  13 H :    0.023124
  14 H :    0.030906
  15 H :    0.025430
  16 S :    0.449916
  17 C :   -0.193335
  18 C :   -0.053158
  19 C :   -0.058100
  20 C :   -0.222611
  21 H :    0.021628
  22 C :   -0.022679
  23 H :    0.026078
  24 H :    0.016769
  25 C :   -0.035809
  26 H :    0.020395
  27 H :    0.019137
  28 C :   -0.055797
  29 H :    0.009194
  30 H :    0.030451
  31 H :    0.026041
  32 H :    0.033951
  33 H :    0.032437

  Mayer bond orders larger than 0.100000
B(  0-S ,  1-C ) :   1.1433 B(  0-S ,  4-C ) :   1.1591 B(  1-C ,  2-C ) :   1.5808
B(  1-C ,  4-C ) :   0.1030 B(  1-C , 32-H ) :   0.9688 B(  2-C ,  3-C ) :   1.2687
B(  2-C ,  6-C ) :   1.0238 B(  3-C ,  4-C ) :   1.5234 B(  3-C ,  5-H ) :   1.0033
B(  4-C , 20-C ) :   1.0726 B(  6-C ,  7-H ) :   0.9430 B(  6-C ,  8-H ) :   0.9381
B(  6-C ,  9-C ) :   1.0544 B(  9-C , 10-H ) :   0.9574 B(  9-C , 11-H ) :   0.9588
B(  9-C , 12-C ) :   1.0689 B( 12-C , 13-H ) :   0.9741 B( 12-C , 14-H ) :   0.9746
B( 12-C , 15-H ) :   0.9782 B( 16-S , 17-C ) :   1.1660 B( 16-S , 20-C ) :   1.1759
B( 17-C , 18-C ) :   1.5748 B( 17-C , 33-H ) :   0.9655 B( 18-C , 19-C ) :   1.2851
B( 18-C , 21-H ) :   1.0056 B( 19-C , 20-C ) :   1.5155 B( 19-C , 22-C ) :   1.0549
B( 22-C , 23-H ) :   0.9338 B( 22-C , 24-H ) :   0.9376 B( 22-C , 25-C ) :   1.0448
B( 25-C , 26-H ) :   0.9562 B( 25-C , 27-H ) :   0.9535 B( 25-C , 28-C ) :   1.0865
B( 28-C , 29-H ) :   0.9748 B( 28-C , 30-H ) :   0.9744 B( 28-C , 31-H ) :   0.9696

Dispersion correction           -0.014355695
FINAL SINGLE POINT ENERGY     -1339.863238414616

DIPOLE MOMENT
-------------
                                X             Y             Z
Electronic contribution:      1.42111     -29.84273       6.52294
Nuclear contribution   :     -1.60322      30.36325      -6.71063
                        -----------------------------------------
Total Dipole Moment    :     -0.18211       0.52052      -0.18770
                        -----------------------------------------
Magnitude (a.u.)       :      0.58252
Magnitude (Debye)      :      1.48065

Rotational constants in cm-1:     0.019578     0.008428     0.006583
Rotational constants in MHz :   586.933069   252.659099   197.356543

                             ****ORCA TERMINATED NORMALLY****
TOTAL RUN TIME: 0 days 0 hours 0 minutes 21 seconds 900 msec
