                         Program Version 4.2.1 -  RELEASE  -
|  1> ! wB97X-D3 SP def2-SVP
|  2> %pal
|  3> nprocs 24
|  4> end
|  5>
|  6> * xyz 0 1
|  7> S 	 -96.2285 	 -27.9746 	 -58.6239
|  8> C 	 -97.5547 	 -26.9261 	 -58.2882
|  9> C 	 -97.2295 	 -25.5544 	 -58.3983
| 10> C 	 -95.8386 	 -25.3846 	 -58.5115
| 11> C 	 -95.1648 	 -26.6164 	 -58.5781
| 12> H 	 -95.2828 	 -24.5517 	 -58.4533
| 13> C 	 -98.2899 	 -24.4874 	 -58.2492
| 14> H 	 -97.8873 	 -23.6803 	 -57.7226
| 15> H 	 -99.0786 	 -24.979 	 -57.6925
| 16> C 	 -98.9657 	 -23.9515 	 -59.4721
| 17> H 	 -99.6114 	 -23.1359 	 -59.2423
| 18> H 	 -98.1656 	 -23.5055 	 -60.0909
| 19> C 	 -99.698 	 -25.0151 	 -60.3302
| 20> H 	 -100.447 	 -25.4817 	 -59.7736
| 21> H 	 -100.152 	 -24.4715 	 -61.1368
| 22> H 	 -99.0117 	 -25.7522 	 -60.6588
| 23> S 	 -93.1588 	 -28.172 	 -59.6714
| 24> C 	 -91.5243 	 -28.0586 	 -59.0794
| 25> C 	 -91.3844 	 -27.0786 	 -58.1796
| 26> C 	 -92.606 	 -26.3011 	 -57.9647
| 27> C 	 -93.7323 	 -26.9271 	 -58.5366
| 28> H 	 -90.4249 	 -26.8805 	 -57.7203
| 29> C 	 -92.6418 	 -25.1759 	 -57.0057
| 30> H 	 -92.3507 	 -25.5755 	 -56.0216
| 31> H 	 -93.6883 	 -24.9427 	 -56.8099
| 32> C 	 -91.8021 	 -23.9527 	 -57.3535
| 33> H 	 -92.2001 	 -23.6517 	 -58.3339
| 34> H 	 -90.7649 	 -24.3394 	 -57.5166
| 35> C 	 -91.9515 	 -22.8294 	 -56.3933
| 36> H 	 -92.9804 	 -22.5601 	 -56.2317
| 37> H 	 -91.372 	 -21.9986 	 -56.8257
| 38> H 	 -91.61 	 -23.118 	 -55.3949
| 39> H 	 -98.6117 	 -27.1636 	 -58.1064
| 40> H 	 -90.573 	 -28.5743 	 -59.301
| 41> *
| 42>
| 43>                          ****END OF INPUT****

CARTESIAN COORDINATES (ANGSTROEM)
---------------------------------
  S    -96.228500  -27.974600  -58.623900
  C    -97.554700  -26.926100  -58.288200
  C    -97.229500  -25.554400  -58.398300
  C    -95.838600  -25.384600  -58.511500
  C    -95.164800  -26.616400  -58.578100
  H    -95.282800  -24.551700  -58.453300
  C    -98.289900  -24.487400  -58.249200
  H    -97.887300  -23.680300  -57.722600
  H    -99.078600  -24.979000  -57.692500
  C    -98.965700  -23.951500  -59.472100
  H    -99.611400  -23.135900  -59.242300
  H    -98.165600  -23.505500  -60.090900
  C    -99.698000  -25.015100  -60.330200
  H    -100.447000  -25.481700  -59.773600
  H    -100.152000  -24.471500  -61.136800
  H    -99.011700  -25.752200  -60.658800
  S    -93.158800  -28.172000  -59.671400
  C    -91.524300  -28.058600  -59.079400
  C    -91.384400  -27.078600  -58.179600
  C    -92.606000  -26.301100  -57.964700
  C    -93.732300  -26.927100  -58.536600
  H    -90.424900  -26.880500  -57.720300
  C    -92.641800  -25.175900  -57.005700
  H    -92.350700  -25.575500  -56.021600
  H    -93.688300  -24.942700  -56.809900
  C    -91.802100  -23.952700  -57.353500
  H    -92.200100  -23.651700  -58.333900
  H    -90.764900  -24.339400  -57.516600
  C    -91.951500  -22.829400  -56.393300
  H    -92.980400  -22.560100  -56.231700
  H    -91.372000  -21.998600  -56.825700
  H    -91.610000  -23.118000  -55.394900
  H    -98.611700  -27.163600  -58.106400
  H    -90.573000  -28.574300  -59.301000

 Total Charge           Charge          ....    0
 Multiplicity           Mult            ....    1
 Number of Electrons    NEL             ....  134
 Basis Dimension        Dim             ....  322

ORBITAL ENERGIES
----------------

  NO   OCC          E(Eh)            E(eV)
   0   2.0000     -88.972991     -2421.0782
   1   2.0000     -88.963703     -2420.8254
   2   2.0000     -10.331387      -281.1313
   3   2.0000     -10.331204      -281.1264
   4   2.0000     -10.314161      -280.6626
   5   2.0000     -10.312562      -280.6191
   6   2.0000     -10.303911      -280.3837
   7   2.0000     -10.302451      -280.3439
   8   2.0000     -10.290763      -280.0259
   9   2.0000     -10.288807      -279.9727
  10   2.0000     -10.287626      -279.9405
  11   2.0000     -10.284448      -279.8541
  12   2.0000     -10.284015      -279.8423
  13   2.0000     -10.281437      -279.7721
  14   2.0000     -10.278626      -279.6956
  15   2.0000     -10.266294      -279.3601
  16   2.0000      -8.088181      -220.0906
  17   2.0000      -8.078145      -219.8175
  18   2.0000      -6.046509      -164.5339
  19   2.0000      -6.042613      -164.4279
  20   2.0000      -6.039101      -164.3323
  21   2.0000      -6.037003      -164.2752
  22   2.0000      -6.032749      -164.1594
  23   2.0000      -6.028489      -164.0435
  24   2.0000      -1.009648       -27.4739
  25   2.0000      -0.985211       -26.8090
  26   2.0000      -0.919886       -25.0314
  27   2.0000      -0.916516       -24.9397
  28   2.0000      -0.869721       -23.6663
  29   2.0000      -0.858922       -23.3724
  30   2.0000      -0.849259       -23.1095
  31   2.0000      -0.819392       -22.2968
  32   2.0000      -0.789594       -21.4859
  33   2.0000      -0.771192       -20.9852
  34   2.0000      -0.712838       -19.3973
  35   2.0000      -0.696995       -18.9662
  36   2.0000      -0.692552       -18.8453
  37   2.0000      -0.658481       -17.9182
  38   2.0000      -0.641700       -17.4615
  39   2.0000      -0.624891       -17.0041
  40   2.0000      -0.592825       -16.1316
  41   2.0000      -0.572683       -15.5835
  42   2.0000      -0.566786       -15.4230
  43   2.0000      -0.556101       -15.1323
  44   2.0000      -0.554516       -15.0891
  45   2.0000      -0.535161       -14.5625
  46   2.0000      -0.521163       -14.1816
  47   2.0000      -0.511784       -13.9263
  48   2.0000      -0.503903       -13.7119
  49   2.0000      -0.495022       -13.4702
  50   2.0000      -0.492808       -13.4100
  51   2.0000      -0.485438       -13.2094
  52   2.0000      -0.472741       -12.8639
  53   2.0000      -0.467320       -12.7164
  54   2.0000      -0.462454       -12.5840
  55   2.0000      -0.455820       -12.4035
  56   2.0000      -0.443504       -12.0684
  57   2.0000      -0.440788       -11.9944
  58   2.0000      -0.434079       -11.8119
  59   2.0000      -0.426281       -11.5997
  60   2.0000      -0.420242       -11.4354
  61   2.0000      -0.414754       -11.2860
  62   2.0000      -0.412253       -11.2180
  63   2.0000      -0.353555        -9.6207
  64   2.0000      -0.338455        -9.2098
  65   2.0000      -0.324784        -8.8378
  66   2.0000      -0.282600        -7.6899
  67   0.0000       0.024553         0.6681
  68   0.0000       0.070674         1.9231
  69   0.0000       0.110278         3.0008
  70   0.0000       0.118084         3.2132
  71   0.0000       0.127047         3.4571

MULLIKEN ATOMIC CHARGES
-----------------------
   0 S :    0.140172
   1 C :   -0.111972
   2 C :   -0.119660
   3 C :    0.088573
   4 C :   -0.172343
   5 H :   -0.045761
   6 C :    0.116686
   7 H :    0.008777
   8 H :    0.009069
   9 C :   -0.074786
  10 H :    0.025045
  11 H :    0.018993
  12 C :   -0.015972
  13 H :    0.008340
  14 H :    0.030919
  15 H :    0.039912
  16 S :    0.086413
  17 C :   -0.060607
  18 C :   -0.051339
  19 C :   -0.044278
  20 C :   -0.112531
  21 H :    0.018509
  22 C :    0.024211
  23 H :    0.024778
  24 H :    0.001414
  25 C :   -0.089828
  26 H :    0.023733
  27 H :    0.034060
  28 C :    0.004320
  29 H :    0.021314
  30 H :    0.045236
  31 H :    0.023455
  32 H :    0.047112
  33 H :    0.058036
Sum of atomic charges:    0.0000000

LOEWDIN ATOMIC CHARGES
----------------------
   0 S :    0.442878
   1 C :   -0.213783
   2 C :   -0.055308
   3 C :   -0.048354
   4 C :   -0.194998
   5 H :    0.009731
   6 C :   -0.027631
   7 H :    0.023608
   8 H :    0.029179
   9 C :   -0.036215
  10 H :    0.020173
  11 H :    0.023317
  12 C :   -0.052430
  13 H :    0.012957
  14 H :    0.027572
  15 H :    0.023739
  16 S :    0.383211
  17 C :   -0.195443
  18 C :   -0.074280
  19 C :   -0.055997
  20 C :   -0.188366
  21 H :    0.030072
  22 C :   -0.045067
  23 H :    0.031304
  24 H :    0.024287
  25 C :   -0.043441
  26 H :    0.025044
  27 H :    0.027489
  28 C :   -0.060929
  29 H :    0.024087
  30 H :    0.034209
  31 H :    0.025419
  32 H :    0.029217
  33 H :    0.044752

  Mayer bond orders larger than 0.100000
B(  0-S ,  1-C ) :   1.1567 B(  0-S ,  4-C ) :   1.1747 B(  1-C ,  2-C ) :   1.5774
B(  1-C ,  4-C ) :   0.1074 B(  1-C , 32-H ) :   0.9609 B(  2-C ,  3-C ) :   1.2587
B(  2-C ,  6-C ) :   1.0236 B(  3-C ,  4-C ) :   1.5308 B(  3-C ,  5-H ) :   1.0171
B(  4-C , 20-C ) :   1.0311 B(  6-C ,  7-H ) :   0.9331 B(  6-C ,  8-H ) :   0.9350
B(  6-C ,  9-C ) :   1.0852 B(  9-C , 10-H ) :   0.9551 B(  9-C , 11-H ) :   0.9512
B(  9-C , 12-C ) :   1.0788 B( 12-C , 13-H ) :   0.9760 B( 12-C , 14-H ) :   0.9726
B( 12-C , 15-H ) :   0.9744 B( 16-S , 17-C ) :   1.1200 B( 16-S , 20-C ) :   1.1152
B( 17-C , 18-C ) :   1.6791 B( 17-C , 33-H ) :   0.9558 B( 18-C , 19-C ) :   1.1920
B( 18-C , 21-H ) :   0.9841 B( 19-C , 20-C ) :   1.6117 B( 19-C , 22-C ) :   1.0669
B( 22-C , 23-H ) :   0.9306 B( 22-C , 24-H ) :   0.9351 B( 22-C , 25-C ) :   1.0460
B( 25-C , 26-H ) :   0.9512 B( 25-C , 27-H ) :   0.9540 B( 25-C , 28-C ) :   1.0937
B( 28-C , 29-H ) :   0.9683 B( 28-C , 30-H ) :   0.9716 B( 28-C , 31-H ) :   0.9695

Dispersion correction           -0.013982093
FINAL SINGLE POINT ENERGY     -1339.867078698627

DIPOLE MOMENT
-------------
                                X             Y             Z
Electronic contribution:      6.32430     -24.36287      -5.57072
Nuclear contribution   :     -6.30922      24.99519       5.87557
                        -----------------------------------------
Total Dipole Moment    :      0.01508       0.63232       0.30485
                        -----------------------------------------
Magnitude (a.u.)       :      0.70213
Magnitude (Debye)      :      1.78468

Rotational constants in cm-1:     0.018926     0.008418     0.006281
Rotational constants in MHz :   567.387963   252.365512   188.312430

                             ****ORCA TERMINATED NORMALLY****
TOTAL RUN TIME: 0 days 0 hours 0 minutes 21 seconds 538 msec
