                         Program Version 4.2.1 -  RELEASE  -
|  1> ! wB97X-D3 SP def2-SVP
|  2> %pal
|  3> nprocs 24
|  4> end
|  5>
|  6> * xyz 0 1
|  7> S 	 44.7932 	 -21.4924 	 -115.758
|  8> C 	 45.8687 	 -22.5351 	 -114.692
|  9> C 	 45.0822 	 -23.2796 	 -113.832
| 10> C 	 43.7042 	 -23.1531 	 -114.011
| 11> C 	 43.3659 	 -22.1451 	 -114.856
| 12> H 	 42.9281 	 -23.6153 	 -113.394
| 13> C 	 45.7036 	 -24.1993 	 -112.749
| 14> H 	 44.9575 	 -24.8273 	 -112.306
| 15> H 	 46.0388 	 -23.6358 	 -111.895
| 16> C 	 46.7678 	 -25.1783 	 -113.228
| 17> H 	 47.6728 	 -24.5544 	 -113.298
| 18> H 	 47.0491 	 -25.9899 	 -112.526
| 19> C 	 46.4874 	 -25.8199 	 -114.597
| 20> H 	 45.543 	 -26.3731 	 -114.632
| 21> H 	 46.3383 	 -25.1756 	 -115.47
| 22> H 	 47.2001 	 -26.6112 	 -114.774
| 23> S 	 41.9609 	 -19.9706 	 -114.915
| 24> C 	 40.2491 	 -19.9719 	 -114.97
| 25> C 	 39.7736 	 -21.2504 	 -114.955
| 26> C 	 40.7993 	 -22.2316 	 -115.032
| 27> C 	 42.0398 	 -21.6542 	 -115.122
| 28> H 	 38.721 	 -21.5078 	 -114.824
| 29> C 	 40.5511 	 -23.8551 	 -115.031
| 30> H 	 39.5424 	 -23.7879 	 -115.399
| 31> H 	 40.5732 	 -24.2388 	 -114.024
| 32> C 	 41.4057 	 -24.7141 	 -115.953
| 33> H 	 42.3909 	 -24.6071 	 -115.499
| 34> H 	 41.3934 	 -24.2888 	 -116.923
| 35> C 	 40.7988 	 -26.1015 	 -116.059
| 36> H 	 39.759 	 -26.1395 	 -116.584
| 37> H 	 40.6956 	 -26.668 	 -115.113
| 38> H 	 41.466 	 -26.6448 	 -116.72
| 39> H 	 46.9343 	 -22.5868 	 -114.801
| 40> H 	 39.6129 	 -19.0882 	 -115.019
| 41> *
| 42>
| 43>                          ****END OF INPUT****

CARTESIAN COORDINATES (ANGSTROEM)
---------------------------------
  S     44.793200  -21.492400  -115.758000
  C     45.868700  -22.535100  -114.692000
  C     45.082200  -23.279600  -113.832000
  C     43.704200  -23.153100  -114.011000
  C     43.365900  -22.145100  -114.856000
  H     42.928100  -23.615300  -113.394000
  C     45.703600  -24.199300  -112.749000
  H     44.957500  -24.827300  -112.306000
  H     46.038800  -23.635800  -111.895000
  C     46.767800  -25.178300  -113.228000
  H     47.672800  -24.554400  -113.298000
  H     47.049100  -25.989900  -112.526000
  C     46.487400  -25.819900  -114.597000
  H     45.543000  -26.373100  -114.632000
  H     46.338300  -25.175600  -115.470000
  H     47.200100  -26.611200  -114.774000
  S     41.960900  -19.970600  -114.915000
  C     40.249100  -19.971900  -114.970000
  C     39.773600  -21.250400  -114.955000
  C     40.799300  -22.231600  -115.032000
  C     42.039800  -21.654200  -115.122000
  H     38.721000  -21.507800  -114.824000
  C     40.551100  -23.855100  -115.031000
  H     39.542400  -23.787900  -115.399000
  H     40.573200  -24.238800  -114.024000
  C     41.405700  -24.714100  -115.953000
  H     42.390900  -24.607100  -115.499000
  H     41.393400  -24.288800  -116.923000
  C     40.798800  -26.101500  -116.059000
  H     39.759000  -26.139500  -116.584000
  H     40.695600  -26.668000  -115.113000
  H     41.466000  -26.644800  -116.720000
  H     46.934300  -22.586800  -114.801000
  H     39.612900  -19.088200  -115.019000

 Total Charge           Charge          ....    0
 Multiplicity           Mult            ....    1
 Number of Electrons    NEL             ....  134
 Basis Dimension        Dim             ....  322

ORBITAL ENERGIES
----------------

  NO   OCC          E(Eh)            E(eV)
   0   2.0000     -88.967756     -2420.9357
   1   2.0000     -88.962468     -2420.7918
   2   2.0000     -10.332041      -281.1491
   3   2.0000     -10.319252      -280.8011
   4   2.0000     -10.315781      -280.7067
   5   2.0000     -10.313431      -280.6427
   6   2.0000     -10.304731      -280.4060
   7   2.0000     -10.304471      -280.3989
   8   2.0000     -10.294470      -280.1268
   9   2.0000     -10.293472      -280.0996
  10   2.0000     -10.292286      -280.0674
  11   2.0000     -10.290366      -280.0151
  12   2.0000     -10.289128      -279.9814
  13   2.0000     -10.285646      -279.8867
  14   2.0000     -10.278658      -279.6965
  15   2.0000     -10.273350      -279.5521
  16   2.0000      -8.080307      -219.8763
  17   2.0000      -8.079139      -219.8446
  18   2.0000      -6.038981      -164.3290
  19   2.0000      -6.037487      -164.2884
  20   2.0000      -6.035271      -164.2281
  21   2.0000      -6.033332      -164.1753
  22   2.0000      -6.030858      -164.1080
  23   2.0000      -6.029961      -164.0836
  24   2.0000      -1.016653       -27.6645
  25   2.0000      -0.982677       -26.7400
  26   2.0000      -0.910093       -24.7649
  27   2.0000      -0.907447       -24.6929
  28   2.0000      -0.870638       -23.6913
  29   2.0000      -0.851431       -23.1686
  30   2.0000      -0.842053       -22.9134
  31   2.0000      -0.812495       -22.1091
  32   2.0000      -0.784436       -21.3456
  33   2.0000      -0.774343       -21.0709
  34   2.0000      -0.708869       -19.2893
  35   2.0000      -0.700729       -19.0678
  36   2.0000      -0.691278       -18.8106
  37   2.0000      -0.665708       -18.1148
  38   2.0000      -0.639053       -17.3895
  39   2.0000      -0.615909       -16.7597
  40   2.0000      -0.594878       -16.1875
  41   2.0000      -0.574176       -15.6241
  42   2.0000      -0.568944       -15.4818
  43   2.0000      -0.552109       -15.0236
  44   2.0000      -0.539205       -14.6725
  45   2.0000      -0.523350       -14.2411
  46   2.0000      -0.516444       -14.0531
  47   2.0000      -0.511454       -13.9174
  48   2.0000      -0.503096       -13.6899
  49   2.0000      -0.491731       -13.3807
  50   2.0000      -0.491383       -13.3712
  51   2.0000      -0.483489       -13.1564
  52   2.0000      -0.475096       -12.9280
  53   2.0000      -0.462203       -12.5772
  54   2.0000      -0.459113       -12.4931
  55   2.0000      -0.448253       -12.1976
  56   2.0000      -0.445323       -12.1179
  57   2.0000      -0.437973       -11.9178
  58   2.0000      -0.435512       -11.8509
  59   2.0000      -0.423486       -11.5236
  60   2.0000      -0.416003       -11.3200
  61   2.0000      -0.407778       -11.0962
  62   2.0000      -0.401723       -10.9314
  63   2.0000      -0.351449        -9.5634
  64   2.0000      -0.336743        -9.1632
  65   2.0000      -0.330767        -9.0006
  66   2.0000      -0.290583        -7.9072
  67   0.0000       0.024255         0.6600
  68   0.0000       0.070902         1.9293
  69   0.0000       0.101844         2.7713
  70   0.0000       0.117834         3.2064
  71   0.0000       0.136328         3.7097

MULLIKEN ATOMIC CHARGES
-----------------------
   0 S :    0.088388
   1 C :   -0.127607
   2 C :   -0.081904
   3 C :    0.010110
   4 C :   -0.141402
   5 H :    0.025362
   6 C :    0.112154
   7 H :    0.003137
   8 H :    0.038871
   9 C :   -0.110428
  10 H :    0.025727
  11 H :    0.039933
  12 C :   -0.044977
  13 H :    0.013483
  14 H :    0.042104
  15 H :    0.028740
  16 S :    0.111113
  17 C :   -0.080616
  18 C :   -0.046538
  19 C :   -0.071290
  20 C :   -0.125789
  21 H :    0.019286
  22 C :    0.037994
  23 H :    0.010609
  24 H :    0.038843
  25 C :   -0.033013
  26 H :    0.043371
  27 H :    0.024649
  28 C :   -0.073864
  29 H :    0.044331
  30 H :    0.035628
  31 H :    0.033815
  32 H :    0.049407
  33 H :    0.060374
Sum of atomic charges:   -0.0000000

LOEWDIN ATOMIC CHARGES
----------------------
   0 S :    0.343760
   1 C :   -0.166943
   2 C :   -0.053773
   3 C :   -0.071853
   4 C :   -0.163757
   5 H :    0.038980
   6 C :   -0.029661
   7 H :    0.022845
   8 H :    0.033438
   9 C :   -0.046592
  10 H :    0.020689
  11 H :    0.031944
  12 C :   -0.075448
  13 H :    0.024268
  14 H :    0.028198
  15 H :    0.024997
  16 S :    0.450267
  17 C :   -0.197757
  18 C :   -0.077288
  19 C :   -0.060043
  20 C :   -0.222132
  21 H :    0.033204
  22 C :   -0.021693
  23 H :    0.023559
  24 H :    0.024313
  25 C :   -0.043169
  26 H :    0.028672
  27 H :    0.025648
  28 C :   -0.070174
  29 H :    0.036566
  30 H :    0.024825
  31 H :    0.025686
  32 H :    0.025105
  33 H :    0.033318

  Mayer bond orders larger than 0.100000
B(  0-S ,  1-C ) :   1.1019 B(  0-S ,  4-C ) :   1.1312 B(  1-C ,  2-C ) :   1.6265
B(  1-C ,  4-C ) :   0.1044 B(  1-C , 32-H ) :   0.9756 B(  2-C ,  3-C ) :   1.2456
B(  2-C ,  6-C ) :   1.0042 B(  3-C ,  4-C ) :   1.6073 B(  3-C ,  5-H ) :   0.9764
B(  4-C , 20-C ) :   1.0195 B(  6-C ,  7-H ) :   0.9406 B(  6-C ,  8-H ) :   0.9410
B(  6-C ,  9-C ) :   1.0659 B(  9-C , 10-H ) :   0.9536 B(  9-C , 11-H ) :   0.9589
B(  9-C , 12-C ) :   1.0829 B( 12-C , 13-H ) :   0.9717 B( 12-C , 14-H ) :   0.9671
B( 12-C , 15-H ) :   0.9733 B( 16-S , 17-C ) :   1.1714 B( 16-S , 20-C ) :   1.1675
B( 17-C , 18-C ) :   1.5741 B( 17-C , 33-H ) :   0.9677 B( 18-C , 19-C ) :   1.2897
B( 18-C , 21-H ) :   0.9912 B( 19-C , 20-C ) :   1.5891 B( 19-C , 22-C ) :   0.9831
B( 22-C , 23-H ) :   0.9407 B( 22-C , 24-H ) :   0.9417 B( 22-C , 25-C ) :   1.0772
B( 25-C , 26-H ) :   0.9419 B( 25-C , 27-H ) :   0.9490 B( 25-C , 28-C ) :   1.0882
B( 28-C , 29-H ) :   0.9716 B( 28-C , 30-H ) :   0.9744 B( 28-C , 31-H ) :   0.9731

Dispersion correction           -0.015041903
FINAL SINGLE POINT ENERGY     -1339.860195194052

DIPOLE MOMENT
-------------
                                X             Y             Z
Electronic contribution:     -2.27611      28.97971      -3.05154
Nuclear contribution   :      2.06370     -29.53340       3.42184
                        -----------------------------------------
Total Dipole Moment    :     -0.21241      -0.55369       0.37030
                        -----------------------------------------
Magnitude (a.u.)       :      0.69915
Magnitude (Debye)      :      1.77710

Rotational constants in cm-1:     0.018971     0.009631     0.007200
Rotational constants in MHz :   568.743543   288.716627   215.837049

                             ****ORCA TERMINATED NORMALLY****
TOTAL RUN TIME: 0 days 0 hours 0 minutes 21 seconds 347 msec
