                         Program Version 4.2.1 -  RELEASE  -
|  1> ! wB97X-D3 SP def2-SVP
|  2> %pal
|  3> nprocs 24
|  4> end
|  5>
|  6> * xyz 0 1
|  7> S 	 -98.328 	 -3.17916 	 -119.275
|  8> C 	 -98.5572 	 -4.63754 	 -118.256
|  9> C 	 -99.7861 	 -5.29295 	 -118.569
| 10> C 	 -100.497 	 -4.57408 	 -119.49
| 11> C 	 -99.8507 	 -3.4122 	 -120.048
| 12> H 	 -101.514 	 -4.91091 	 -119.772
| 13> C 	 -100.199 	 -6.6136 	 -118.018
| 14> H 	 -99.4685 	 -7.09932 	 -117.444
| 15> H 	 -100.464 	 -7.19349 	 -118.919
| 16> C 	 -101.386 	 -6.65344 	 -117.032
| 17> H 	 -102.336 	 -6.46402 	 -117.462
| 18> H 	 -101.371 	 -7.64667 	 -116.566
| 19> C 	 -101.414 	 -5.81275 	 -115.792
| 20> H 	 -101.125 	 -4.80503 	 -115.956
| 21> H 	 -102.384 	 -5.84936 	 -115.383
| 22> H 	 -100.771 	 -6.32539 	 -115.103
| 23> S 	 -100.812 	 -0.957654 	 -120.155
| 24> C 	 -101.153 	 -0.242007 	 -121.673
| 25> C 	 -101.247 	 -1.20471 	 -122.664
| 26> C 	 -100.822 	 -2.49767 	 -122.238
| 27> C 	 -100.407 	 -2.43134 	 -120.882
| 28> H 	 -101.573 	 -1.02918 	 -123.717
| 29> C 	 -100.695 	 -3.70427 	 -123.13
| 30> H 	 -101.463 	 -3.62635 	 -123.994
| 31> H 	 -100.992 	 -4.56409 	 -122.532
| 32> C 	 -99.3536 	 -4.0749 	 -123.7
| 33> H 	 -99.4762 	 -5.0572 	 -124.027
| 34> H 	 -98.4867 	 -4.08529 	 -122.96
| 35> C 	 -98.8687 	 -3.22549 	 -124.894
| 36> H 	 -97.8738 	 -3.61386 	 -125.074
| 37> H 	 -98.929 	 -2.23925 	 -124.518
| 38> H 	 -99.4221 	 -3.40019 	 -125.831
| 39> H 	 -97.7524 	 -5.09556 	 -117.781
| 40> H 	 -101.274 	 0.824245 	 -121.711
| 41> *
| 42>
| 43>                          ****END OF INPUT****

CARTESIAN COORDINATES (ANGSTROEM)
---------------------------------
  S    -98.328000   -3.179160  -119.275000
  C    -98.557200   -4.637540  -118.256000
  C    -99.786100   -5.292950  -118.569000
  C    -100.497000   -4.574080  -119.490000
  C    -99.850700   -3.412200  -120.048000
  H    -101.514000   -4.910910  -119.772000
  C    -100.199000   -6.613600  -118.018000
  H    -99.468500   -7.099320  -117.444000
  H    -100.464000   -7.193490  -118.919000
  C    -101.386000   -6.653440  -117.032000
  H    -102.336000   -6.464020  -117.462000
  H    -101.371000   -7.646670  -116.566000
  C    -101.414000   -5.812750  -115.792000
  H    -101.125000   -4.805030  -115.956000
  H    -102.384000   -5.849360  -115.383000
  H    -100.771000   -6.325390  -115.103000
  S    -100.812000   -0.957654  -120.155000
  C    -101.153000   -0.242007  -121.673000
  C    -101.247000   -1.204710  -122.664000
  C    -100.822000   -2.497670  -122.238000
  C    -100.407000   -2.431340  -120.882000
  H    -101.573000   -1.029180  -123.717000
  C    -100.695000   -3.704270  -123.130000
  H    -101.463000   -3.626350  -123.994000
  H    -100.992000   -4.564090  -122.532000
  C    -99.353600   -4.074900  -123.700000
  H    -99.476200   -5.057200  -124.027000
  H    -98.486700   -4.085290  -122.960000
  C    -98.868700   -3.225490  -124.894000
  H    -97.873800   -3.613860  -125.074000
  H    -98.929000   -2.239250  -124.518000
  H    -99.422100   -3.400190  -125.831000
  H    -97.752400   -5.095560  -117.781000
  H    -101.274000    0.824245  -121.711000

 Total Charge           Charge          ....    0
 Multiplicity           Mult            ....    1
 Number of Electrons    NEL             ....  134
 Basis Dimension        Dim             ....  322

ORBITAL ENERGIES
----------------

  NO   OCC          E(Eh)            E(eV)
   0   2.0000     -88.971369     -2421.0340
   1   2.0000     -88.964008     -2420.8337
   2   2.0000     -10.327907      -281.0366
   3   2.0000     -10.315742      -280.7056
   4   2.0000     -10.313804      -280.6529
   5   2.0000     -10.312242      -280.6104
   6   2.0000     -10.302345      -280.3411
   7   2.0000     -10.300156      -280.2815
   8   2.0000     -10.297025      -280.1963
   9   2.0000     -10.295153      -280.1454
  10   2.0000     -10.293603      -280.1032
  11   2.0000     -10.291636      -280.0497
  12   2.0000     -10.279087      -279.7082
  13   2.0000     -10.278843      -279.7015
  14   2.0000     -10.269346      -279.4431
  15   2.0000     -10.262362      -279.2531
  16   2.0000      -8.085333      -220.0131
  17   2.0000      -8.080666      -219.8861
  18   2.0000      -6.043557      -164.4536
  19   2.0000      -6.039752      -164.3500
  20   2.0000      -6.038830      -164.3249
  21   2.0000      -6.036646      -164.2655
  22   2.0000      -6.034880      -164.2174
  23   2.0000      -6.031698      -164.1308
  24   2.0000      -1.013700       -27.5842
  25   2.0000      -0.984196       -26.7813
  26   2.0000      -0.919375       -25.0175
  27   2.0000      -0.911241       -24.7961
  28   2.0000      -0.875902       -23.8345
  29   2.0000      -0.852058       -23.1857
  30   2.0000      -0.851048       -23.1582
  31   2.0000      -0.809754       -22.0345
  32   2.0000      -0.790525       -21.5113
  33   2.0000      -0.773787       -21.0558
  34   2.0000      -0.708965       -19.2919
  35   2.0000      -0.693293       -18.8655
  36   2.0000      -0.687105       -18.6971
  37   2.0000      -0.661296       -17.9948
  38   2.0000      -0.635977       -17.3058
  39   2.0000      -0.624758       -17.0005
  40   2.0000      -0.597267       -16.2525
  41   2.0000      -0.571830       -15.5603
  42   2.0000      -0.558498       -15.1975
  43   2.0000      -0.555207       -15.1079
  44   2.0000      -0.551552       -15.0085
  45   2.0000      -0.544761       -14.8237
  46   2.0000      -0.518480       -14.1086
  47   2.0000      -0.514816       -14.0089
  48   2.0000      -0.505242       -13.7483
  49   2.0000      -0.494985       -13.4692
  50   2.0000      -0.486023       -13.2254
  51   2.0000      -0.481621       -13.1056
  52   2.0000      -0.472813       -12.8659
  53   2.0000      -0.467560       -12.7230
  54   2.0000      -0.461742       -12.5646
  55   2.0000      -0.444527       -12.0962
  56   2.0000      -0.442434       -12.0392
  57   2.0000      -0.439137       -11.9495
  58   2.0000      -0.437182       -11.8963
  59   2.0000      -0.421437       -11.4679
  60   2.0000      -0.416258       -11.3270
  61   2.0000      -0.410286       -11.1645
  62   2.0000      -0.408044       -11.1034
  63   2.0000      -0.341154        -9.2833
  64   2.0000      -0.329609        -8.9691
  65   2.0000      -0.323652        -8.8070
  66   2.0000      -0.290698        -7.9103
  67   0.0000       0.026082         0.7097
  68   0.0000       0.057853         1.5742
  69   0.0000       0.110669         3.0115
  70   0.0000       0.114260         3.1092
  71   0.0000       0.132214         3.5977

MULLIKEN ATOMIC CHARGES
-----------------------
   0 S :    0.123630
   1 C :   -0.114387
   2 C :   -0.092945
   3 C :    0.033720
   4 C :   -0.193525
   5 H :    0.016908
   6 C :    0.124602
   7 H :    0.001015
   8 H :    0.042012
   9 C :   -0.109040
  10 H :    0.017952
  11 H :    0.024383
  12 C :   -0.007891
  13 H :    0.035701
  14 H :    0.021484
  15 H :    0.010874
  16 S :    0.138245
  17 C :   -0.101079
  18 C :   -0.036753
  19 C :   -0.022008
  20 C :   -0.184254
  21 H :    0.030037
  22 C :    0.058685
  23 H :    0.032326
  24 H :    0.021224
  25 C :   -0.072671
  26 H :    0.010105
  27 H :    0.041170
  28 C :   -0.035842
  29 H :    0.030908
  30 H :    0.035504
  31 H :    0.029836
  32 H :    0.033988
  33 H :    0.056086
Sum of atomic charges:   -0.0000000

LOEWDIN ATOMIC CHARGES
----------------------
   0 S :    0.424431
   1 C :   -0.187443
   2 C :   -0.062795
   3 C :   -0.064063
   4 C :   -0.215075
   5 H :    0.033072
   6 C :   -0.025250
   7 H :    0.024618
   8 H :    0.043267
   9 C :   -0.040836
  10 H :    0.013016
  11 H :    0.028939
  12 C :   -0.053183
  13 H :    0.020401
  14 H :    0.024300
  15 H :    0.019615
  16 S :    0.458132
  17 C :   -0.199618
  18 C :   -0.075798
  19 C :   -0.055911
  20 C :   -0.233195
  21 H :    0.037182
  22 C :   -0.041304
  23 H :    0.040621
  24 H :    0.033301
  25 C :   -0.039653
  26 H :    0.014420
  27 H :    0.033555
  28 C :   -0.061844
  29 H :    0.027242
  30 H :    0.021016
  31 H :    0.023878
  32 H :    0.011108
  33 H :    0.023853

  Mayer bond orders larger than 0.100000
B(  0-S ,  1-C ) :   1.1651 B(  0-S ,  4-C ) :   1.1899 B(  1-C ,  2-C ) :   1.5128
B(  1-C ,  4-C ) :   0.1322 B(  1-C , 32-H ) :   0.9715 B(  2-C ,  3-C ) :   1.3359
B(  2-C ,  6-C ) :   1.0336 B(  3-C ,  4-C ) :   1.4789 B(  3-C ,  5-H ) :   0.9850
B(  4-C , 20-C ) :   1.0561 B(  6-C ,  7-H ) :   0.9364 B(  6-C ,  8-H ) :   0.9340
B(  6-C ,  9-C ) :   1.0661 B(  9-C , 10-H ) :   0.9629 B(  9-C , 11-H ) :   0.9644
B(  9-C , 12-C ) :   1.0804 B( 12-C , 13-H ) :   0.9722 B( 12-C , 14-H ) :   0.9708
B( 12-C , 15-H ) :   0.9799 B( 16-S , 17-C ) :   1.1804 B( 16-S , 20-C ) :   1.1958
B( 17-C , 18-C ) :   1.5387 B( 17-C , 20-C ) :   0.1086 B( 17-C , 33-H ) :   0.9778
B( 18-C , 19-C ) :   1.2879 B( 18-C , 21-H ) :   0.9853 B( 19-C , 20-C ) :   1.5214
B( 19-C , 22-C ) :   1.0605 B( 22-C , 23-H ) :   0.9304 B( 22-C , 24-H ) :   0.9183
B( 22-C , 25-C ) :   1.0833 B( 25-C , 26-H ) :   0.9493 B( 25-C , 27-H ) :   0.9565
B( 25-C , 28-C ) :   1.0726 B( 28-C , 29-H ) :   0.9747 B( 28-C , 30-H ) :   0.9803
B( 28-C , 31-H ) :   0.9754

Dispersion correction           -0.014494142
FINAL SINGLE POINT ENERGY     -1339.852101839223

DIPOLE MOMENT
-------------
                                X             Y             Z
Electronic contribution:      4.06985      18.07920       3.58172
Nuclear contribution   :     -4.26907     -18.60733      -3.70616
                        -----------------------------------------
Total Dipole Moment    :     -0.19922      -0.52813      -0.12444
                        -----------------------------------------
Magnitude (a.u.)       :      0.57801
Magnitude (Debye)      :      1.46919

Rotational constants in cm-1:     0.021190     0.008055     0.007147
Rotational constants in MHz :   635.255025   241.475916   214.268700

                             ****ORCA TERMINATED NORMALLY****
TOTAL RUN TIME: 0 days 0 hours 0 minutes 20 seconds 546 msec
