                         Program Version 4.2.1 -  RELEASE  -
|  1> ! wB97X-D3 SP def2-SVP
|  2> %pal
|  3> nprocs 24
|  4> end
|  5>
|  6> * xyz 0 1
|  7> S 	 -99.008 	 1.15232 	 -121.559
|  8> C 	 -99.4096 	 2.84579 	 -121.928
|  9> C 	 -100.133 	 3.43819 	 -120.865
| 10> C 	 -100.35 	 2.50848 	 -119.794
| 11> C 	 -99.8716 	 1.26059 	 -120.016
| 12> H 	 -100.863 	 2.6379 	 -118.922
| 13> C 	 -100.797 	 4.78021 	 -120.866
| 14> H 	 -100.074 	 5.60287 	 -120.899
| 15> H 	 -101.324 	 4.92606 	 -119.887
| 16> C 	 -101.717 	 4.97328 	 -122.06
| 17> H 	 -101.164 	 4.95232 	 -123.059
| 18> H 	 -102.491 	 4.23866 	 -122.082
| 19> C 	 -102.457 	 6.3353 	 -122.006
| 20> H 	 -101.944 	 7.28239 	 -121.997
| 21> H 	 -103.139 	 6.2944 	 -122.854
| 22> H 	 -103.028 	 6.41732 	 -120.972
| 23> S 	 -100.649 	 -1.35099 	 -119.901
| 24> C 	 -100.741 	 -2.12921 	 -118.368
| 25> C 	 -100.158 	 -1.36863 	 -117.356
| 26> C 	 -99.6472 	 -0.129394 	 -117.82
| 27> C 	 -99.9825 	 0.0835251 	 -119.148
| 28> H 	 -100.229 	 -1.53235 	 -116.312
| 29> C 	 -98.8991 	 0.771529 	 -116.855
| 30> H 	 -99.1202 	 0.421614 	 -115.827
| 31> H 	 -99.3282 	 1.8387 	 -116.9
| 32> C 	 -97.3532 	 0.818823 	 -116.949
| 33> H 	 -97.0576 	 1.40345 	 -117.771
| 34> H 	 -96.9669 	 -0.151699 	 -116.937
| 35> C 	 -96.646 	 1.66451 	 -115.77
| 36> H 	 -96.579 	 1.12096 	 -114.841
| 37> H 	 -97.1989 	 2.5565 	 -115.494
| 38> H 	 -95.585 	 2.03607 	 -115.996
| 39> H 	 -99.0809 	 3.29708 	 -122.855
| 40> H 	 -101.219 	 -3.06598 	 -118.131
| 41> *
| 42>
| 43>                          ****END OF INPUT****

CARTESIAN COORDINATES (ANGSTROEM)
---------------------------------
  S    -99.008000    1.152320  -121.559000
  C    -99.409600    2.845790  -121.928000
  C    -100.133000    3.438190  -120.865000
  C    -100.350000    2.508480  -119.794000
  C    -99.871600    1.260590  -120.016000
  H    -100.863000    2.637900  -118.922000
  C    -100.797000    4.780210  -120.866000
  H    -100.074000    5.602870  -120.899000
  H    -101.324000    4.926060  -119.887000
  C    -101.717000    4.973280  -122.060000
  H    -101.164000    4.952320  -123.059000
  H    -102.491000    4.238660  -122.082000
  C    -102.457000    6.335300  -122.006000
  H    -101.944000    7.282390  -121.997000
  H    -103.139000    6.294400  -122.854000
  H    -103.028000    6.417320  -120.972000
  S    -100.649000   -1.350990  -119.901000
  C    -100.741000   -2.129210  -118.368000
  C    -100.158000   -1.368630  -117.356000
  C    -99.647200   -0.129394  -117.820000
  C    -99.982500    0.083525  -119.148000
  H    -100.229000   -1.532350  -116.312000
  C    -98.899100    0.771529  -116.855000
  H    -99.120200    0.421614  -115.827000
  H    -99.328200    1.838700  -116.900000
  C    -97.353200    0.818823  -116.949000
  H    -97.057600    1.403450  -117.771000
  H    -96.966900   -0.151699  -116.937000
  C    -96.646000    1.664510  -115.770000
  H    -96.579000    1.120960  -114.841000
  H    -97.198900    2.556500  -115.494000
  H    -95.585000    2.036070  -115.996000
  H    -99.080900    3.297080  -122.855000
  H    -101.219000   -3.065980  -118.131000

 Total Charge           Charge          ....    0
 Multiplicity           Mult            ....    1
 Number of Electrons    NEL             ....  134
 Basis Dimension        Dim             ....  322

ORBITAL ENERGIES
----------------

  NO   OCC          E(Eh)            E(eV)
   0   2.0000     -88.969403     -2420.9805
   1   2.0000     -88.964305     -2420.8418
   2   2.0000     -10.326588      -281.0007
   3   2.0000     -10.326432      -280.9965
   4   2.0000     -10.318715      -280.7865
   5   2.0000     -10.316517      -280.7267
   6   2.0000     -10.305632      -280.4305
   7   2.0000     -10.302672      -280.3500
   8   2.0000     -10.301663      -280.3225
   9   2.0000     -10.294204      -280.1195
  10   2.0000     -10.291623      -280.0493
  11   2.0000     -10.289992      -280.0049
  12   2.0000     -10.285400      -279.8800
  13   2.0000     -10.285153      -279.8732
  14   2.0000     -10.283905      -279.8393
  15   2.0000     -10.283174      -279.8194
  16   2.0000      -8.084511      -219.9907
  17   2.0000      -8.078360      -219.8234
  18   2.0000      -6.042911      -164.4360
  19   2.0000      -6.038991      -164.3293
  20   2.0000      -6.036878      -164.2718
  21   2.0000      -6.035326      -164.2296
  22   2.0000      -6.032982      -164.1658
  23   2.0000      -6.029140      -164.0612
  24   2.0000      -1.006973       -27.4011
  25   2.0000      -0.981568       -26.7098
  26   2.0000      -0.912106       -24.8197
  27   2.0000      -0.902286       -24.5524
  28   2.0000      -0.864684       -23.5292
  29   2.0000      -0.851915       -23.1818
  30   2.0000      -0.846459       -23.0333
  31   2.0000      -0.812406       -22.1067
  32   2.0000      -0.778659       -21.1884
  33   2.0000      -0.766552       -20.8589
  34   2.0000      -0.707765       -19.2593
  35   2.0000      -0.701060       -19.0768
  36   2.0000      -0.688433       -18.7332
  37   2.0000      -0.668958       -18.2033
  38   2.0000      -0.650466       -17.7001
  39   2.0000      -0.619145       -16.8478
  40   2.0000      -0.594277       -16.1711
  41   2.0000      -0.567602       -15.4452
  42   2.0000      -0.565886       -15.3985
  43   2.0000      -0.555222       -15.1084
  44   2.0000      -0.530205       -14.4276
  45   2.0000      -0.521216       -14.1830
  46   2.0000      -0.512132       -13.9358
  47   2.0000      -0.509855       -13.8739
  48   2.0000      -0.504988       -13.7414
  49   2.0000      -0.498536       -13.5658
  50   2.0000      -0.490214       -13.3394
  51   2.0000      -0.477129       -12.9833
  52   2.0000      -0.469165       -12.7666
  53   2.0000      -0.459810       -12.5121
  54   2.0000      -0.456733       -12.4283
  55   2.0000      -0.449913       -12.2427
  56   2.0000      -0.442253       -12.0343
  57   2.0000      -0.439369       -11.9558
  58   2.0000      -0.431437       -11.7400
  59   2.0000      -0.428723       -11.6661
  60   2.0000      -0.423536       -11.5250
  61   2.0000      -0.415263       -11.2999
  62   2.0000      -0.412509       -11.2249
  63   2.0000      -0.343618        -9.3503
  64   2.0000      -0.334234        -9.0950
  65   2.0000      -0.328467        -8.9381
  66   2.0000      -0.291085        -7.9208
  67   0.0000       0.031569         0.8590
  68   0.0000       0.061847         1.6830
  69   0.0000       0.108144         2.9427
  70   0.0000       0.120333         3.2744
  71   0.0000       0.132052         3.5933

MULLIKEN ATOMIC CHARGES
-----------------------
   0 S :    0.096848
   1 C :   -0.137949
   2 C :   -0.047367
   3 C :    0.059251
   4 C :   -0.142893
   5 H :   -0.030230
   6 C :    0.070863
   7 H :    0.030343
   8 H :    0.024882
   9 C :   -0.085544
  10 H :    0.043705
  11 H :    0.032338
  12 C :   -0.083757
  13 H :    0.033250
  14 H :    0.040169
  15 H :    0.031228
  16 S :    0.127324
  17 C :   -0.077451
  18 C :   -0.033360
  19 C :   -0.018609
  20 C :   -0.181445
  21 H :    0.009240
  22 C :    0.027959
  23 H :    0.013875
  24 H :    0.036421
  25 C :   -0.005190
  26 H :    0.035272
  27 H :    0.027499
  28 C :   -0.101828
  29 H :    0.026433
  30 H :    0.024823
  31 H :    0.047327
  32 H :    0.052499
  33 H :    0.054076
Sum of atomic charges:   -0.0000000

LOEWDIN ATOMIC CHARGES
----------------------
   0 S :    0.379831
   1 C :   -0.188258
   2 C :   -0.055198
   3 C :   -0.056442
   4 C :   -0.182109
   5 H :    0.017162
   6 C :   -0.039277
   7 H :    0.033120
   8 H :    0.033983
   9 C :   -0.037859
  10 H :    0.032209
  11 H :    0.023350
  12 C :   -0.075708
  13 H :    0.018956
  14 H :    0.026819
  15 H :    0.032628
  16 S :    0.427022
  17 C :   -0.193610
  18 C :   -0.067776
  19 C :   -0.058482
  20 C :   -0.198853
  21 H :    0.025141
  22 C :   -0.035923
  23 H :    0.028101
  24 H :    0.037240
  25 C :   -0.021869
  26 H :    0.023235
  27 H :    0.018983
  28 C :   -0.075292
  29 H :    0.017655
  30 H :    0.021081
  31 H :    0.035692
  32 H :    0.024885
  33 H :    0.029562

  Mayer bond orders larger than 0.100000
B(  0-S ,  1-C ) :   1.1331 B(  0-S ,  4-C ) :   1.1399 B(  1-C ,  2-C ) :   1.5897
B(  1-C , 32-H ) :   0.9753 B(  2-C ,  3-C ) :   1.2162 B(  2-C ,  6-C ) :   1.0295
B(  3-C ,  4-C ) :   1.6203 B(  3-C ,  5-H ) :   1.0087 B(  4-C , 20-C ) :   1.0163
B(  6-C ,  7-H ) :   0.9276 B(  6-C ,  8-H ) :   0.9451 B(  6-C ,  9-C ) :   1.0702
B(  9-C , 10-H ) :   0.9514 B(  9-C , 11-H ) :   0.9569 B(  9-C , 12-C ) :   1.0732
B( 12-C , 13-H ) :   0.9779 B( 12-C , 14-H ) :   0.9768 B( 12-C , 15-H ) :   0.9727
B( 16-S , 17-C ) :   1.1647 B( 16-S , 20-C ) :   1.1505 B( 17-C , 18-C ) :   1.5895
B( 17-C , 20-C ) :   0.1012 B( 17-C , 33-H ) :   0.9679 B( 18-C , 19-C ) :   1.2654
B( 18-C , 21-H ) :   0.9877 B( 19-C , 20-C ) :   1.5868 B( 19-C , 22-C ) :   1.0433
B( 22-C , 23-H ) :   0.9369 B( 22-C , 24-H ) :   0.9317 B( 22-C , 25-C ) :   1.0676
B( 25-C , 26-H ) :   0.9600 B( 25-C , 27-H ) :   0.9587 B( 25-C , 28-C ) :   1.0625
B( 28-C , 29-H ) :   0.9785 B( 28-C , 30-H ) :   0.9765 B( 28-C , 31-H ) :   0.9794

Dispersion correction           -0.013496935
FINAL SINGLE POINT ENERGY     -1339.868606833662

DIPOLE MOMENT
-------------
                                X             Y             Z
Electronic contribution:     -1.05301     -22.90706     -10.46804
Nuclear contribution   :      0.90837      23.32754      10.85297
                        -----------------------------------------
Total Dipole Moment    :     -0.14464       0.42048       0.38493
                        -----------------------------------------
Magnitude (a.u.)       :      0.58813
Magnitude (Debye)      :      1.49490

Rotational constants in cm-1:     0.018438     0.007611     0.006395
Rotational constants in MHz :   552.744211   228.174885   191.714248

                             ****ORCA TERMINATED NORMALLY****
TOTAL RUN TIME: 0 days 0 hours 0 minutes 19 seconds 745 msec
