                         Program Version 4.2.1 -  RELEASE  -
|  1> ! wB97X-D3 SP def2-SVP
|  2> %pal
|  3> nprocs 24
|  4> end
|  5>
|  6> * xyz 0 1
|  7> S 	 -121.276 	 54.0386 	 -32.6228
|  8> C 	 -119.897 	 53.0511 	 -33.1327
|  9> C 	 -119.728 	 53.0035 	 -34.4927
| 10> C 	 -120.825 	 53.7081 	 -35.127
| 11> C 	 -121.76 	 54.238 	 -34.3334
| 12> H 	 -121.074 	 53.7399 	 -36.1998
| 13> C 	 -118.496 	 52.3788 	 -35.2657
| 14> H 	 -117.712 	 52.0796 	 -34.6521
| 15> H 	 -118.113 	 53.2525 	 -35.6869
| 16> C 	 -118.812 	 51.3588 	 -36.4347
| 17> H 	 -119.241 	 52.0488 	 -37.1853
| 18> H 	 -117.891 	 50.9357 	 -36.81
| 19> C 	 -119.841 	 50.3298 	 -36.0446
| 20> H 	 -120.617 	 50.7397 	 -35.4472
| 21> H 	 -120.362 	 49.9269 	 -36.9491
| 22> H 	 -119.382 	 49.4906 	 -35.537
| 23> S 	 -123.041 	 56.6315 	 -34.05
| 24> C 	 -124.447 	 56.9501 	 -35.0744
| 25> C 	 -124.867 	 55.869 	 -35.7331
| 26> C 	 -124.008 	 54.7322 	 -35.5275
| 27> C 	 -122.939 	 55.0222 	 -34.7091
| 28> H 	 -125.753 	 55.9977 	 -36.2875
| 29> C 	 -124.305 	 53.3924 	 -36.0744
| 30> H 	 -123.843 	 53.3605 	 -37.0499
| 31> H 	 -125.292 	 53.3924 	 -36.4333
| 32> C 	 -124.065 	 52.1224 	 -35.2366
| 33> H 	 -123.072 	 52.0097 	 -35.0759
| 34> H 	 -124.473 	 51.2825 	 -35.929
| 35> C 	 -124.706 	 52.0061 	 -33.8301
| 36> H 	 -124.212 	 51.2348 	 -33.1958
| 37> H 	 -125.793 	 51.8056 	 -34.0121
| 38> H 	 -124.785 	 52.904 	 -33.2094
| 39> H 	 -119.202 	 52.6767 	 -32.3818
| 40> H 	 -124.89 	 57.9348 	 -35.0587
| 41> *
| 42>
| 43>                          ****END OF INPUT****

CARTESIAN COORDINATES (ANGSTROEM)
---------------------------------
  S    -121.276000   54.038600  -32.622800
  C    -119.897000   53.051100  -33.132700
  C    -119.728000   53.003500  -34.492700
  C    -120.825000   53.708100  -35.127000
  C    -121.760000   54.238000  -34.333400
  H    -121.074000   53.739900  -36.199800
  C    -118.496000   52.378800  -35.265700
  H    -117.712000   52.079600  -34.652100
  H    -118.113000   53.252500  -35.686900
  C    -118.812000   51.358800  -36.434700
  H    -119.241000   52.048800  -37.185300
  H    -117.891000   50.935700  -36.810000
  C    -119.841000   50.329800  -36.044600
  H    -120.617000   50.739700  -35.447200
  H    -120.362000   49.926900  -36.949100
  H    -119.382000   49.490600  -35.537000
  S    -123.041000   56.631500  -34.050000
  C    -124.447000   56.950100  -35.074400
  C    -124.867000   55.869000  -35.733100
  C    -124.008000   54.732200  -35.527500
  C    -122.939000   55.022200  -34.709100
  H    -125.753000   55.997700  -36.287500
  C    -124.305000   53.392400  -36.074400
  H    -123.843000   53.360500  -37.049900
  H    -125.292000   53.392400  -36.433300
  C    -124.065000   52.122400  -35.236600
  H    -123.072000   52.009700  -35.075900
  H    -124.473000   51.282500  -35.929000
  C    -124.706000   52.006100  -33.830100
  H    -124.212000   51.234800  -33.195800
  H    -125.793000   51.805600  -34.012100
  H    -124.785000   52.904000  -33.209400
  H    -119.202000   52.676700  -32.381800
  H    -124.890000   57.934800  -35.058700

 Total Charge           Charge          ....    0
 Multiplicity           Mult            ....    1
 Number of Electrons    NEL             ....  134
 Basis Dimension        Dim             ....  322

ORBITAL ENERGIES
----------------

  NO   OCC          E(Eh)            E(eV)
   0   2.0000     -88.961581     -2420.7677
   1   2.0000     -88.959908     -2420.7222
   2   2.0000     -10.327592      -281.0281
   3   2.0000     -10.322765      -280.8967
   4   2.0000     -10.316355      -280.7223
   5   2.0000     -10.313498      -280.6446
   6   2.0000     -10.310175      -280.5541
   7   2.0000     -10.302181      -280.3366
   8   2.0000     -10.293811      -280.1088
   9   2.0000     -10.290743      -280.0254
  10   2.0000     -10.290307      -280.0135
  11   2.0000     -10.289075      -279.9800
  12   2.0000     -10.284077      -279.8440
  13   2.0000     -10.283063      -279.8164
  14   2.0000     -10.277135      -279.6551
  15   2.0000     -10.272100      -279.5181
  16   2.0000      -8.075825      -219.7544
  17   2.0000      -8.075194      -219.7372
  18   2.0000      -6.034400      -164.2044
  19   2.0000      -6.033691      -164.1851
  20   2.0000      -6.030581      -164.1005
  21   2.0000      -6.029764      -164.0782
  22   2.0000      -6.026360      -163.9856
  23   2.0000      -6.025793      -163.9702
  24   2.0000      -1.007546       -27.4167
  25   2.0000      -0.983554       -26.7639
  26   2.0000      -0.907800       -24.7025
  27   2.0000      -0.906552       -24.6685
  28   2.0000      -0.873105       -23.7584
  29   2.0000      -0.846081       -23.0230
  30   2.0000      -0.840512       -22.8715
  31   2.0000      -0.822040       -22.3688
  32   2.0000      -0.788067       -21.4444
  33   2.0000      -0.776516       -21.1301
  34   2.0000      -0.710777       -19.3412
  35   2.0000      -0.698540       -19.0082
  36   2.0000      -0.686746       -18.6873
  37   2.0000      -0.665558       -18.1108
  38   2.0000      -0.644517       -17.5382
  39   2.0000      -0.618795       -16.8383
  40   2.0000      -0.596826       -16.2405
  41   2.0000      -0.567257       -15.4358
  42   2.0000      -0.554671       -15.0934
  43   2.0000      -0.550439       -14.9782
  44   2.0000      -0.543450       -14.7880
  45   2.0000      -0.539122       -14.6703
  46   2.0000      -0.515007       -14.0141
  47   2.0000      -0.504680       -13.7330
  48   2.0000      -0.499816       -13.6007
  49   2.0000      -0.497057       -13.5256
  50   2.0000      -0.485887       -13.2217
  51   2.0000      -0.483786       -13.1645
  52   2.0000      -0.474345       -12.9076
  53   2.0000      -0.467061       -12.7094
  54   2.0000      -0.459052       -12.4914
  55   2.0000      -0.447484       -12.1767
  56   2.0000      -0.444879       -12.1058
  57   2.0000      -0.434220       -11.8157
  58   2.0000      -0.431697       -11.7471
  59   2.0000      -0.421094       -11.4585
  60   2.0000      -0.414296       -11.2736
  61   2.0000      -0.411889       -11.2081
  62   2.0000      -0.410208       -11.1623
  63   2.0000      -0.350990        -9.5509
  64   2.0000      -0.330377        -8.9900
  65   2.0000      -0.326468        -8.8837
  66   2.0000      -0.297939        -8.1073
  67   0.0000       0.037842         1.0297
  68   0.0000       0.069819         1.8999
  69   0.0000       0.108450         2.9511
  70   0.0000       0.126624         3.4456
  71   0.0000       0.129075         3.5123

MULLIKEN ATOMIC CHARGES
-----------------------
   0 S :    0.084651
   1 C :   -0.138873
   2 C :   -0.094360
   3 C :    0.023467
   4 C :   -0.163078
   5 H :    0.019843
   6 C :    0.123365
   7 H :    0.001629
   8 H :    0.020279
   9 C :   -0.082376
  10 H :    0.030177
  11 H :    0.035552
  12 C :   -0.036666
  13 H :    0.039327
  14 H :    0.031269
  15 H :    0.030545
  16 S :    0.091004
  17 C :   -0.094587
  18 C :   -0.005731
  19 C :   -0.045448
  20 C :   -0.161884
  21 H :    0.003084
  22 C :    0.115142
  23 H :    0.022047
  24 H :   -0.014147
  25 C :   -0.045084
  26 H :    0.025459
  27 H :    0.041359
  28 C :   -0.078501
  29 H :    0.048973
  30 H :    0.026794
  31 H :    0.040028
  32 H :    0.052841
  33 H :    0.053899
Sum of atomic charges:    0.0000000

LOEWDIN ATOMIC CHARGES
----------------------
   0 S :    0.362755
   1 C :   -0.183396
   2 C :   -0.059376
   3 C :   -0.068433
   4 C :   -0.177827
   5 H :    0.035820
   6 C :   -0.018456
   7 H :    0.017806
   8 H :    0.028910
   9 C :   -0.036856
  10 H :    0.025612
  11 H :    0.025660
  12 C :   -0.066344
  13 H :    0.021695
  14 H :    0.031043
  15 H :    0.025125
  16 S :    0.388722
  17 C :   -0.163896
  18 C :   -0.067960
  19 C :   -0.053937
  20 C :   -0.199914
  21 H :    0.030041
  22 C :   -0.038549
  23 H :    0.038219
  24 H :    0.024511
  25 C :   -0.033132
  26 H :    0.005266
  27 H :    0.038834
  28 C :   -0.074165
  29 H :    0.034037
  30 H :    0.027003
  31 H :    0.026422
  32 H :    0.028015
  33 H :    0.026743

  Mayer bond orders larger than 0.100000
B(  0-S ,  1-C ) :   1.1263 B(  0-S ,  4-C ) :   1.1099 B(  1-C ,  2-C ) :   1.6551
B(  1-C , 32-H ) :   0.9655 B(  2-C ,  3-C ) :   1.1819 B(  2-C ,  6-C ) :   0.9958
B(  3-C ,  4-C ) :   1.6705 B(  3-C ,  5-H ) :   0.9835 B(  4-C , 20-C ) :   1.0221
B(  6-C ,  7-H ) :   0.9455 B(  6-C ,  8-H ) :   0.9393 B(  6-C ,  9-C ) :   1.0573
B(  9-C , 10-H ) :   0.9578 B(  9-C , 11-H ) :   0.9588 B(  9-C , 12-C ) :   1.0872
B( 12-C , 13-H ) :   0.9701 B( 12-C , 14-H ) :   0.9724 B( 12-C , 15-H ) :   0.9734
B( 16-S , 17-C ) :   1.1393 B( 16-S , 20-C ) :   1.1293 B( 17-C , 18-C ) :   1.6501
B( 17-C , 33-H ) :   0.9677 B( 18-C , 19-C ) :   1.1854 B( 18-C , 21-H ) :   1.0038
B( 19-C , 20-C ) :   1.6271 B( 19-C , 22-C ) :   1.0461 B( 22-C , 23-H ) :   0.9054
B( 22-C , 24-H ) :   0.9178 B( 22-C , 25-C ) :   1.0675 B( 25-C , 26-H ) :   0.9525
B( 25-C , 27-H ) :   0.9534 B( 25-C , 28-C ) :   1.0694 B( 28-C , 29-H ) :   0.9762
B( 28-C , 30-H ) :   0.9762 B( 28-C , 31-H ) :   0.9752

Dispersion correction           -0.016347371
FINAL SINGLE POINT ENERGY     -1339.864337299741

DIPOLE MOMENT
-------------
                                X             Y             Z
Electronic contribution:     -1.48585      22.88895      12.04459
Nuclear contribution   :      1.50903     -23.16886     -12.62572
                        -----------------------------------------
Total Dipole Moment    :      0.02318      -0.27992      -0.58113
                        -----------------------------------------
Magnitude (a.u.)       :      0.64545
Magnitude (Debye)      :      1.64060

Rotational constants in cm-1:     0.020592     0.009466     0.008174
Rotational constants in MHz :   617.319298   283.770887   245.042189

                             ****ORCA TERMINATED NORMALLY****
TOTAL RUN TIME: 0 days 0 hours 0 minutes 23 seconds 298 msec
