                         Program Version 4.2.1 -  RELEASE  -
|  1> ! wB97X-D3 SP def2-SVP
|  2> %pal
|  3> nprocs 24
|  4> end
|  5>
|  6> * xyz 0 1
|  7> S 	 -87.0608 	 -48.4171 	 -81.8169
|  8> C 	 -88.1819 	 -47.6699 	 -80.6371
|  9> C 	 -87.5213 	 -46.7438 	 -79.8417
| 10> C 	 -86.1588 	 -46.6744 	 -80.2
| 11> C 	 -85.7253 	 -47.5122 	 -81.1905
| 12> H 	 -85.3968 	 -46.0777 	 -79.8037
| 13> C 	 -88.0799 	 -45.8829 	 -78.7178
| 14> H 	 -89.011 	 -45.3813 	 -79.1582
| 15> H 	 -87.3508 	 -45.2054 	 -78.3995
| 16> C 	 -88.5466 	 -46.8387 	 -77.5819
| 17> H 	 -89.3264 	 -47.5345 	 -77.9759
| 18> H 	 -87.7239 	 -47.5069 	 -77.15
| 19> C 	 -89.3195 	 -46.1193 	 -76.4641
| 20> H 	 -89.8201 	 -46.8083 	 -75.8561
| 21> H 	 -88.5614 	 -45.6696 	 -75.7907
| 22> H 	 -90.0008 	 -45.2898 	 -76.733
| 23> S 	 -84.0339 	 -47.679 	 -83.2497
| 24> C 	 -82.365 	 -47.9124 	 -82.9801
| 25> C 	 -82.0603 	 -47.7544 	 -81.6023
| 26> C 	 -83.1858 	 -47.6802 	 -80.7916
| 27> C 	 -84.3468 	 -47.7485 	 -81.5481
| 28> H 	 -81.0025 	 -47.7323 	 -81.388
| 29> C 	 -83.116 	 -47.6774 	 -79.3176
| 30> H 	 -84.0073 	 -48.0638 	 -78.9023
| 31> H 	 -83.2546 	 -46.6484 	 -79.0144
| 32> C 	 -81.8803 	 -48.3317 	 -78.7659
| 33> H 	 -80.9865 	 -47.6626 	 -78.9414
| 34> H 	 -81.6951 	 -49.2169 	 -79.3528
| 35> C 	 -82.063 	 -48.682 	 -77.3558
| 36> H 	 -82.942 	 -49.2856 	 -77.1605
| 37> H 	 -82.2218 	 -47.764 	 -76.7445
| 38> H 	 -81.1714 	 -49.1378 	 -76.9044
| 39> H 	 -89.176 	 -47.8915 	 -80.427
| 40> H 	 -81.5663 	 -47.8932 	 -83.7139
| 41> *
| 42>
| 43>                          ****END OF INPUT****

CARTESIAN COORDINATES (ANGSTROEM)
---------------------------------
  S    -87.060800  -48.417100  -81.816900
  C    -88.181900  -47.669900  -80.637100
  C    -87.521300  -46.743800  -79.841700
  C    -86.158800  -46.674400  -80.200000
  C    -85.725300  -47.512200  -81.190500
  H    -85.396800  -46.077700  -79.803700
  C    -88.079900  -45.882900  -78.717800
  H    -89.011000  -45.381300  -79.158200
  H    -87.350800  -45.205400  -78.399500
  C    -88.546600  -46.838700  -77.581900
  H    -89.326400  -47.534500  -77.975900
  H    -87.723900  -47.506900  -77.150000
  C    -89.319500  -46.119300  -76.464100
  H    -89.820100  -46.808300  -75.856100
  H    -88.561400  -45.669600  -75.790700
  H    -90.000800  -45.289800  -76.733000
  S    -84.033900  -47.679000  -83.249700
  C    -82.365000  -47.912400  -82.980100
  C    -82.060300  -47.754400  -81.602300
  C    -83.185800  -47.680200  -80.791600
  C    -84.346800  -47.748500  -81.548100
  H    -81.002500  -47.732300  -81.388000
  C    -83.116000  -47.677400  -79.317600
  H    -84.007300  -48.063800  -78.902300
  H    -83.254600  -46.648400  -79.014400
  C    -81.880300  -48.331700  -78.765900
  H    -80.986500  -47.662600  -78.941400
  H    -81.695100  -49.216900  -79.352800
  C    -82.063000  -48.682000  -77.355800
  H    -82.942000  -49.285600  -77.160500
  H    -82.221800  -47.764000  -76.744500
  H    -81.171400  -49.137800  -76.904400
  H    -89.176000  -47.891500  -80.427000
  H    -81.566300  -47.893200  -83.713900

 Total Charge           Charge          ....    0
 Multiplicity           Mult            ....    1
 Number of Electrons    NEL             ....  134
 Basis Dimension        Dim             ....  322

ORBITAL ENERGIES
----------------

  NO   OCC          E(Eh)            E(eV)
   0   2.0000     -88.966108     -2420.8909
   1   2.0000     -88.966050     -2420.8893
   2   2.0000     -10.320842      -280.8444
   3   2.0000     -10.319335      -280.8034
   4   2.0000     -10.314015      -280.6586
   5   2.0000     -10.310248      -280.5561
   6   2.0000     -10.299470      -280.2628
   7   2.0000     -10.298816      -280.2450
   8   2.0000     -10.298616      -280.2396
   9   2.0000     -10.298511      -280.2367
  10   2.0000     -10.290876      -280.0290
  11   2.0000     -10.283645      -279.8322
  12   2.0000     -10.281945      -279.7859
  13   2.0000     -10.281145      -279.7642
  14   2.0000     -10.276780      -279.6454
  15   2.0000     -10.276746      -279.6445
  16   2.0000      -8.081814      -219.9173
  17   2.0000      -8.080235      -219.8744
  18   2.0000      -6.040033      -164.3576
  19   2.0000      -6.038859      -164.3257
  20   2.0000      -6.036183      -164.2529
  21   2.0000      -6.034770      -164.2144
  22   2.0000      -6.032829      -164.1616
  23   2.0000      -6.030956      -164.1107
  24   2.0000      -1.013464       -27.5778
  25   2.0000      -0.986617       -26.8472
  26   2.0000      -0.926866       -25.2213
  27   2.0000      -0.911293       -24.7975
  28   2.0000      -0.868860       -23.6429
  29   2.0000      -0.862543       -23.4710
  30   2.0000      -0.846559       -23.0360
  31   2.0000      -0.812549       -22.1106
  32   2.0000      -0.786445       -21.4002
  33   2.0000      -0.775084       -21.0911
  34   2.0000      -0.710967       -19.3464
  35   2.0000      -0.706509       -19.2251
  36   2.0000      -0.694188       -18.8898
  37   2.0000      -0.655492       -17.8369
  38   2.0000      -0.642428       -17.4814
  39   2.0000      -0.619335       -16.8530
  40   2.0000      -0.601512       -16.3680
  41   2.0000      -0.574509       -15.6332
  42   2.0000      -0.573310       -15.6006
  43   2.0000      -0.560010       -15.2386
  44   2.0000      -0.534722       -14.5505
  45   2.0000      -0.526199       -14.3186
  46   2.0000      -0.519306       -14.1310
  47   2.0000      -0.516691       -14.0599
  48   2.0000      -0.502474       -13.6730
  49   2.0000      -0.502055       -13.6616
  50   2.0000      -0.494512       -13.4563
  51   2.0000      -0.482019       -13.1164
  52   2.0000      -0.477283       -12.9875
  53   2.0000      -0.469015       -12.7626
  54   2.0000      -0.458388       -12.4734
  55   2.0000      -0.452086       -12.3019
  56   2.0000      -0.442699       -12.0465
  57   2.0000      -0.438998       -11.9457
  58   2.0000      -0.435706       -11.8562
  59   2.0000      -0.423589       -11.5264
  60   2.0000      -0.423245       -11.5171
  61   2.0000      -0.415021       -11.2933
  62   2.0000      -0.414260       -11.2726
  63   2.0000      -0.344649        -9.3784
  64   2.0000      -0.333457        -9.0738
  65   2.0000      -0.330301        -8.9879
  66   2.0000      -0.284629        -7.7451
  67   0.0000       0.026714         0.7269
  68   0.0000       0.071723         1.9517
  69   0.0000       0.110884         3.0173
  70   0.0000       0.123173         3.3517
  71   0.0000       0.138391         3.7658

MULLIKEN ATOMIC CHARGES
-----------------------
   0 S :    0.114013
   1 C :   -0.096269
   2 C :   -0.078243
   3 C :    0.009991
   4 C :   -0.136390
   5 H :   -0.027144
   6 C :    0.114053
   7 H :    0.049596
   8 H :    0.015876
   9 C :   -0.146749
  10 H :    0.033876
  11 H :    0.051513
  12 C :   -0.026221
  13 H :    0.022214
  14 H :    0.022033
  15 H :    0.037246
  16 S :    0.120780
  17 C :   -0.077780
  18 C :   -0.092647
  19 C :   -0.024522
  20 C :   -0.152520
  21 H :    0.017241
  22 C :    0.091257
  23 H :    0.007942
  24 H :    0.024009
  25 C :   -0.068848
  26 H :    0.038021
  27 H :    0.033419
  28 C :   -0.027778
  29 H :    0.033718
  30 H :    0.019000
  31 H :    0.033390
  32 H :    0.013783
  33 H :    0.052139
Sum of atomic charges:   -0.0000000

LOEWDIN ATOMIC CHARGES
----------------------
   0 S :    0.401125
   1 C :   -0.182774
   2 C :   -0.055913
   3 C :   -0.070236
   4 C :   -0.203435
   5 H :    0.018605
   6 C :   -0.021458
   7 H :    0.046160
   8 H :    0.021037
   9 C :   -0.046146
  10 H :    0.024790
  11 H :    0.035389
  12 C :   -0.072347
  13 H :    0.017558
  14 H :    0.025477
  15 H :    0.028842
  16 S :    0.442326
  17 C :   -0.203602
  18 C :   -0.072579
  19 C :   -0.054072
  20 C :   -0.206546
  21 H :    0.030867
  22 C :   -0.032999
  23 H :    0.027204
  24 H :    0.033245
  25 C :   -0.044685
  26 H :    0.031348
  27 H :    0.025736
  28 C :   -0.065863
  29 H :    0.025843
  30 H :    0.027304
  31 H :    0.027927
  32 H :    0.013862
  33 H :    0.028010

  Mayer bond orders larger than 0.100000
B(  0-S ,  1-C ) :   1.1288 B(  0-S ,  4-C ) :   1.1461 B(  1-C ,  2-C ) :   1.6061
B(  1-C , 32-H ) :   0.9729 B(  2-C ,  3-C ) :   1.2400 B(  2-C ,  6-C ) :   1.0152
B(  3-C ,  4-C ) :   1.5771 B(  3-C ,  5-H ) :   1.0074 B(  4-C , 20-C ) :   1.0255
B(  6-C ,  7-H ) :   0.9354 B(  6-C ,  8-H ) :   0.9457 B(  6-C ,  9-C ) :   1.0572
B(  9-C , 10-H ) :   0.9629 B(  9-C , 11-H ) :   0.9554 B(  9-C , 12-C ) :   1.0768
B( 12-C , 13-H ) :   0.9747 B( 12-C , 14-H ) :   0.9727 B( 12-C , 15-H ) :   0.9741
B( 16-S , 17-C ) :   1.1845 B( 16-S , 20-C ) :   1.1705 B( 17-C , 18-C ) :   1.5600
B( 17-C , 20-C ) :   0.1123 B( 17-C , 33-H ) :   0.9651 B( 18-C , 19-C ) :   1.2737
B( 18-C , 21-H ) :   0.9957 B( 19-C , 20-C ) :   1.5520 B( 19-C , 22-C ) :   1.0362
B( 22-C , 23-H ) :   0.9319 B( 22-C , 24-H ) :   0.8985 B( 22-C , 25-C ) :   1.0739
B( 25-C , 26-H ) :   0.9347 B( 25-C , 27-H ) :   0.9572 B( 25-C , 28-C ) :   1.1025
B( 28-C , 29-H ) :   0.9719 B( 28-C , 30-H ) :   0.9657 B( 28-C , 31-H ) :   0.9687

Dispersion correction           -0.013659976
FINAL SINGLE POINT ENERGY     -1339.867249872150

DIPOLE MOMENT
-------------
                                X             Y             Z
Electronic contribution:      0.30044      -4.35203     -31.03824
Nuclear contribution   :     -0.08998       4.64514      31.77642
                        -----------------------------------------
Total Dipole Moment    :      0.21046       0.29311       0.73818
                        -----------------------------------------
Magnitude (a.u.)       :      0.82166
Magnitude (Debye)      :      2.08849

Rotational constants in cm-1:     0.017880     0.008688     0.006269
Rotational constants in MHz :   536.022990   260.467131   187.935870

                             ****ORCA TERMINATED NORMALLY****
TOTAL RUN TIME: 0 days 0 hours 0 minutes 21 seconds 601 msec
