                         Program Version 4.2.1 -  RELEASE  -
|  1> ! wB97X-D3 SP def2-SVP
|  2> %pal
|  3> nprocs 24
|  4> end
|  5>
|  6> * xyz 0 1
|  7> S 	 -35.2624 	 -6.0154 	 8.49401
|  8> C 	 -33.9425 	 -4.90368 	 9.03851
|  9> C 	 -33.4829 	 -5.15051 	 10.318
| 10> C 	 -34.253 	 -6.26988 	 10.8607
| 11> C 	 -35.3012 	 -6.75622 	 10.0879
| 12> H 	 -34.0504 	 -6.60851 	 11.8168
| 13> C 	 -32.3411 	 -4.42826 	 11.0057
| 14> H 	 -31.4355 	 -4.59668 	 10.3151
| 15> H 	 -32.2302 	 -5.00263 	 11.9191
| 16> C 	 -32.6186 	 -2.91945 	 11.2752
| 17> H 	 -31.6965 	 -2.41492 	 11.652
| 18> H 	 -32.7866 	 -2.51742 	 10.2533
| 19> C 	 -33.7521 	 -2.70826 	 12.2469
| 20> H 	 -34.6362 	 -2.32543 	 11.612
| 21> H 	 -34.0309 	 -3.57795 	 12.7839
| 22> H 	 -33.4154 	 -1.89543 	 12.9592
| 23> S 	 -36.79 	 -8.92544 	 9.00557
| 24> C 	 -37.5733 	 -10.0329 	 10.0886
| 25> C 	 -37.6309 	 -9.5365 	 11.3781
| 26> C 	 -36.9233 	 -8.2722 	 11.5374
| 27> C 	 -36.2681 	 -7.85039 	 10.3621
| 28> H 	 -38.2285 	 -9.99697 	 12.1708
| 29> C 	 -36.8597 	 -7.63794 	 12.8819
| 30> H 	 -35.8342 	 -7.72301 	 13.1648
| 31> H 	 -37.3181 	 -8.32377 	 13.5437
| 32> C 	 -37.575 	 -6.33552 	 12.9531
| 33> H 	 -38.645 	 -6.58658 	 12.8144
| 34> H 	 -37.1393 	 -5.63287 	 12.1826
| 35> C 	 -37.3698 	 -5.68339 	 14.3787
| 36> H 	 -37.7798 	 -6.16927 	 15.2874
| 37> H 	 -38.0262 	 -4.7583 	 14.3548
| 38> H 	 -36.3388 	 -5.54097 	 14.525
| 39> H 	 -33.5762 	 -4.15061 	 8.38377
| 40> H 	 -38.1973 	 -10.7884 	 9.70665
| 41> *
| 42>
| 43>                          ****END OF INPUT****

CARTESIAN COORDINATES (ANGSTROEM)
---------------------------------
  S    -35.262400   -6.015400    8.494010
  C    -33.942500   -4.903680    9.038510
  C    -33.482900   -5.150510   10.318000
  C    -34.253000   -6.269880   10.860700
  C    -35.301200   -6.756220   10.087900
  H    -34.050400   -6.608510   11.816800
  C    -32.341100   -4.428260   11.005700
  H    -31.435500   -4.596680   10.315100
  H    -32.230200   -5.002630   11.919100
  C    -32.618600   -2.919450   11.275200
  H    -31.696500   -2.414920   11.652000
  H    -32.786600   -2.517420   10.253300
  C    -33.752100   -2.708260   12.246900
  H    -34.636200   -2.325430   11.612000
  H    -34.030900   -3.577950   12.783900
  H    -33.415400   -1.895430   12.959200
  S    -36.790000   -8.925440    9.005570
  C    -37.573300  -10.032900   10.088600
  C    -37.630900   -9.536500   11.378100
  C    -36.923300   -8.272200   11.537400
  C    -36.268100   -7.850390   10.362100
  H    -38.228500   -9.996970   12.170800
  C    -36.859700   -7.637940   12.881900
  H    -35.834200   -7.723010   13.164800
  H    -37.318100   -8.323770   13.543700
  C    -37.575000   -6.335520   12.953100
  H    -38.645000   -6.586580   12.814400
  H    -37.139300   -5.632870   12.182600
  C    -37.369800   -5.683390   14.378700
  H    -37.779800   -6.169270   15.287400
  H    -38.026200   -4.758300   14.354800
  H    -36.338800   -5.540970   14.525000
  H    -33.576200   -4.150610    8.383770
  H    -38.197300  -10.788400    9.706650

 Total Charge           Charge          ....    0
 Multiplicity           Mult            ....    1
 Number of Electrons    NEL             ....  134
 Basis Dimension        Dim             ....  322

ORBITAL ENERGIES
----------------

  NO   OCC          E(Eh)            E(eV)
   0   2.0000     -88.965942     -2420.8864
   1   2.0000     -88.964206     -2420.8391
   2   2.0000     -10.337707      -281.3033
   3   2.0000     -10.335401      -281.2406
   4   2.0000     -10.316049      -280.7140
   5   2.0000     -10.315919      -280.7104
   6   2.0000     -10.305882      -280.4373
   7   2.0000     -10.305189      -280.4184
   8   2.0000     -10.303078      -280.3610
   9   2.0000     -10.297943      -280.2213
  10   2.0000     -10.295437      -280.1531
  11   2.0000     -10.294750      -280.1344
  12   2.0000     -10.292201      -280.0650
  13   2.0000     -10.284927      -279.8671
  14   2.0000     -10.281404      -279.7712
  15   2.0000     -10.278866      -279.7022
  16   2.0000      -8.079861      -219.8642
  17   2.0000      -8.078438      -219.8255
  18   2.0000      -6.038465      -164.3150
  19   2.0000      -6.037052      -164.2765
  20   2.0000      -6.034656      -164.2113
  21   2.0000      -6.033050      -164.1676
  22   2.0000      -6.030406      -164.0957
  23   2.0000      -6.029099      -164.0601
  24   2.0000      -0.997274       -27.1372
  25   2.0000      -0.976742       -26.5785
  26   2.0000      -0.915959       -24.9245
  27   2.0000      -0.913562       -24.8593
  28   2.0000      -0.864535       -23.5252
  29   2.0000      -0.847549       -23.0630
  30   2.0000      -0.840109       -22.8605
  31   2.0000      -0.812465       -22.1083
  32   2.0000      -0.782216       -21.2852
  33   2.0000      -0.772095       -21.0098
  34   2.0000      -0.708381       -19.2760
  35   2.0000      -0.702672       -19.1207
  36   2.0000      -0.689564       -18.7640
  37   2.0000      -0.664082       -18.0706
  38   2.0000      -0.639138       -17.3918
  39   2.0000      -0.614886       -16.7319
  40   2.0000      -0.593875       -16.1602
  41   2.0000      -0.571426       -15.5493
  42   2.0000      -0.571050       -15.5391
  43   2.0000      -0.552798       -15.0424
  44   2.0000      -0.538760       -14.6604
  45   2.0000      -0.530176       -14.4268
  46   2.0000      -0.517169       -14.0729
  47   2.0000      -0.515654       -14.0316
  48   2.0000      -0.501043       -13.6341
  49   2.0000      -0.497536       -13.5386
  50   2.0000      -0.490334       -13.3427
  51   2.0000      -0.476976       -12.9792
  52   2.0000      -0.471614       -12.8333
  53   2.0000      -0.461082       -12.5467
  54   2.0000      -0.454767       -12.3749
  55   2.0000      -0.447864       -12.1870
  56   2.0000      -0.442052       -12.0288
  57   2.0000      -0.438948       -11.9444
  58   2.0000      -0.437527       -11.9057
  59   2.0000      -0.429058       -11.6753
  60   2.0000      -0.417278       -11.3547
  61   2.0000      -0.410430       -11.1684
  62   2.0000      -0.404422       -11.0049
  63   2.0000      -0.351550        -9.5662
  64   2.0000      -0.332547        -9.0491
  65   2.0000      -0.326481        -8.8840
  66   2.0000      -0.286335        -7.7916
  67   0.0000       0.019606         0.5335
  68   0.0000       0.069967         1.9039
  69   0.0000       0.094169         2.5625
  70   0.0000       0.118228         3.2172
  71   0.0000       0.122858         3.3431

MULLIKEN ATOMIC CHARGES
-----------------------
   0 S :    0.086664
   1 C :   -0.125994
   2 C :   -0.102217
   3 C :    0.043371
   4 C :   -0.118412
   5 H :   -0.030940
   6 C :    0.039465
   7 H :    0.060719
   8 H :    0.019468
   9 C :   -0.085663
  10 H :    0.039842
  11 H :    0.034968
  12 C :   -0.060412
  13 H :    0.056272
  14 H :    0.033600
  15 H :    0.047446
  16 S :    0.084158
  17 C :   -0.064757
  18 C :   -0.035435
  19 C :   -0.091685
  20 C :   -0.126026
  21 H :    0.027928
  22 C :    0.112883
  23 H :    0.022005
  24 H :   -0.013912
  25 C :   -0.092476
  26 H :    0.039089
  27 H :    0.064563
  28 C :   -0.054959
  29 H :    0.031883
  30 H :    0.042008
  31 H :    0.026859
  32 H :    0.038893
  33 H :    0.050804
Sum of atomic charges:    0.0000000

LOEWDIN ATOMIC CHARGES
----------------------
   0 S :    0.372695
   1 C :   -0.170003
   2 C :   -0.061540
   3 C :   -0.059916
   4 C :   -0.182431
   5 H :    0.011653
   6 C :   -0.034466
   7 H :    0.046444
   8 H :    0.024194
   9 C :   -0.047170
  10 H :    0.026827
  11 H :    0.025530
  12 C :   -0.072087
  13 H :    0.044575
  14 H :    0.018135
  15 H :    0.037004
  16 S :    0.383325
  17 C :   -0.178329
  18 C :   -0.074074
  19 C :   -0.047682
  20 C :   -0.185027
  21 H :    0.033971
  22 C :   -0.040366
  23 H :    0.027500
  24 H :    0.023797
  25 C :   -0.034927
  26 H :    0.031964
  27 H :    0.037466
  28 C :   -0.071480
  29 H :    0.026191
  30 H :    0.034713
  31 H :    0.015460
  32 H :    0.016751
  33 H :    0.021302

  Mayer bond orders larger than 0.100000
B(  0-S ,  1-C ) :   1.1257 B(  0-S ,  4-C ) :   1.1344 B(  1-C ,  2-C ) :   1.6308
B(  1-C , 32-H ) :   0.9714 B(  2-C ,  3-C ) :   1.2279 B(  2-C ,  6-C ) :   0.9988
B(  3-C ,  4-C ) :   1.5772 B(  3-C ,  5-H ) :   1.0002 B(  4-C , 20-C ) :   1.0615
B(  6-C ,  7-H ) :   0.9423 B(  6-C ,  8-H ) :   0.9441 B(  6-C ,  9-C ) :   1.0685
B(  9-C , 10-H ) :   0.9642 B(  9-C , 11-H ) :   0.9626 B(  9-C , 12-C ) :   1.0469
B( 12-C , 13-H ) :   0.9739 B( 12-C , 14-H ) :   0.9836 B( 12-C , 15-H ) :   0.9775
B( 16-S , 17-C ) :   1.1645 B( 16-S , 20-C ) :   1.1187 B( 17-C , 18-C ) :   1.5952
B( 17-C , 33-H ) :   0.9692 B( 18-C , 19-C ) :   1.2586 B( 18-C , 21-H ) :   0.9829
B( 19-C , 20-C ) :   1.5791 B( 19-C , 22-C ) :   1.0402 B( 22-C , 23-H ) :   0.9259
B( 22-C , 24-H ) :   0.9184 B( 22-C , 25-C ) :   1.0608 B( 25-C , 26-H ) :   0.9504
B( 25-C , 27-H ) :   0.9577 B( 25-C , 28-C ) :   1.0745 B( 28-C , 29-H ) :   0.9752
B( 28-C , 30-H ) :   0.9755 B( 28-C , 31-H ) :   0.9771

Dispersion correction           -0.014663044
FINAL SINGLE POINT ENERGY     -1339.862840856950

DIPOLE MOMENT
-------------
                                X             Y             Z
Electronic contribution:     -4.45382     -17.96006     -24.24575
Nuclear contribution   :      4.56711      18.21540      24.93155
                        -----------------------------------------
Total Dipole Moment    :      0.11329       0.25534       0.68580
                        -----------------------------------------
Magnitude (a.u.)       :      0.74051
Magnitude (Debye)      :      1.88223

Rotational constants in cm-1:     0.018863     0.009403     0.006780
Rotational constants in MHz :   565.510403   281.905339   203.253902

                             ****ORCA TERMINATED NORMALLY****
TOTAL RUN TIME: 0 days 0 hours 0 minutes 22 seconds 144 msec
