                         Program Version 4.2.1 -  RELEASE  -
|  1> ! wB97X-D3 SP def2-SVP
|  2> %pal
|  3> nprocs 24
|  4> end
|  5>
|  6> * xyz 0 1
|  7> S 	 -98.3118 	 1.1102 	 -108.149
|  8> C 	 -99.6032 	 1.18341 	 -106.945
|  9> C 	 -99.6561 	 2.40683 	 -106.319
| 10> C 	 -98.7327 	 3.34532 	 -106.865
| 11> C 	 -97.7707 	 2.78859 	 -107.709
| 12> H 	 -98.7073 	 4.37358 	 -106.572
| 13> C 	 -100.621 	 2.79111 	 -105.16
| 14> H 	 -101.32 	 1.92007 	 -105.084
| 15> H 	 -101.089 	 3.66278 	 -105.549
| 16> C 	 -99.9149 	 3.15392 	 -103.853
| 17> H 	 -99.5428 	 2.20756 	 -103.445
| 18> H 	 -98.9927 	 3.73355 	 -104.01
| 19> C 	 -100.808 	 3.59286 	 -102.671
| 20> H 	 -101.705 	 3.04048 	 -102.613
| 21> H 	 -100.367 	 3.71855 	 -101.712
| 22> H 	 -101.21 	 4.59265 	 -102.893
| 23> S 	 -96.4785 	 3.98883 	 -109.797
| 24> C 	 -94.8257 	 4.36056 	 -109.614
| 25> C 	 -94.3876 	 4.13064 	 -108.309
| 26> C 	 -95.4852 	 3.77891 	 -107.478
| 27> C 	 -96.5704 	 3.40293 	 -108.208
| 28> H 	 -93.3489 	 4.32642 	 -108.037
| 29> C 	 -95.3413 	 3.54769 	 -105.964
| 30> H 	 -95.0561 	 2.47503 	 -105.839
| 31> H 	 -96.2491 	 3.59323 	 -105.423
| 32> C 	 -94.2273 	 4.37991 	 -105.195
| 33> H 	 -94.4573 	 5.44299 	 -105.169
| 34> H 	 -93.2971 	 4.36982 	 -105.807
| 35> C 	 -94.0944 	 4.01177 	 -103.715
| 36> H 	 -93.5274 	 3.19566 	 -103.556
| 37> H 	 -95.0892 	 3.98555 	 -103.236
| 38> H 	 -93.4739 	 4.7019 	 -103.128
| 39> H 	 -100.291 	 0.402063 	 -106.675
| 40> H 	 -94.3129 	 4.82156 	 -110.385
| 41> *
| 42>
| 43>                          ****END OF INPUT****

CARTESIAN COORDINATES (ANGSTROEM)
---------------------------------
  S    -98.311800    1.110200  -108.149000
  C    -99.603200    1.183410  -106.945000
  C    -99.656100    2.406830  -106.319000
  C    -98.732700    3.345320  -106.865000
  C    -97.770700    2.788590  -107.709000
  H    -98.707300    4.373580  -106.572000
  C    -100.621000    2.791110  -105.160000
  H    -101.320000    1.920070  -105.084000
  H    -101.089000    3.662780  -105.549000
  C    -99.914900    3.153920  -103.853000
  H    -99.542800    2.207560  -103.445000
  H    -98.992700    3.733550  -104.010000
  C    -100.808000    3.592860  -102.671000
  H    -101.705000    3.040480  -102.613000
  H    -100.367000    3.718550  -101.712000
  H    -101.210000    4.592650  -102.893000
  S    -96.478500    3.988830  -109.797000
  C    -94.825700    4.360560  -109.614000
  C    -94.387600    4.130640  -108.309000
  C    -95.485200    3.778910  -107.478000
  C    -96.570400    3.402930  -108.208000
  H    -93.348900    4.326420  -108.037000
  C    -95.341300    3.547690  -105.964000
  H    -95.056100    2.475030  -105.839000
  H    -96.249100    3.593230  -105.423000
  C    -94.227300    4.379910  -105.195000
  H    -94.457300    5.442990  -105.169000
  H    -93.297100    4.369820  -105.807000
  C    -94.094400    4.011770  -103.715000
  H    -93.527400    3.195660  -103.556000
  H    -95.089200    3.985550  -103.236000
  H    -93.473900    4.701900  -103.128000
  H    -100.291000    0.402063  -106.675000
  H    -94.312900    4.821560  -110.385000

 Total Charge           Charge          ....    0
 Multiplicity           Mult            ....    1
 Number of Electrons    NEL             ....  134
 Basis Dimension        Dim             ....  322

ORBITAL ENERGIES
----------------

  NO   OCC          E(Eh)            E(eV)
   0   2.0000     -88.964779     -2420.8547
   1   2.0000     -88.963609     -2420.8229
   2   2.0000     -10.332017      -281.1485
   3   2.0000     -10.314512      -280.6721
   4   2.0000     -10.313208      -280.6367
   5   2.0000     -10.310906      -280.5740
   6   2.0000     -10.303416      -280.3702
   7   2.0000     -10.299356      -280.2597
   8   2.0000     -10.298551      -280.2378
   9   2.0000     -10.296313      -280.1769
  10   2.0000     -10.293848      -280.1098
  11   2.0000     -10.292727      -280.0794
  12   2.0000     -10.291746      -280.0527
  13   2.0000     -10.290848      -280.0282
  14   2.0000     -10.275854      -279.6202
  15   2.0000     -10.273768      -279.5635
  16   2.0000      -8.080467      -219.8807
  17   2.0000      -8.078132      -219.8171
  18   2.0000      -6.038669      -164.3205
  19   2.0000      -6.036793      -164.2695
  20   2.0000      -6.034687      -164.2122
  21   2.0000      -6.032870      -164.1627
  22   2.0000      -6.031407      -164.1229
  23   2.0000      -6.028773      -164.0512
  24   2.0000      -1.015018       -27.6201
  25   2.0000      -0.981171       -26.6990
  26   2.0000      -0.908133       -24.7116
  27   2.0000      -0.902514       -24.5587
  28   2.0000      -0.872100       -23.7311
  29   2.0000      -0.855327       -23.2746
  30   2.0000      -0.844604       -22.9828
  31   2.0000      -0.813914       -22.1477
  32   2.0000      -0.785609       -21.3775
  33   2.0000      -0.775025       -21.0895
  34   2.0000      -0.710222       -19.3261
  35   2.0000      -0.706961       -19.2374
  36   2.0000      -0.699233       -19.0271
  37   2.0000      -0.659152       -17.9364
  38   2.0000      -0.637683       -17.3522
  39   2.0000      -0.620762       -16.8918
  40   2.0000      -0.604799       -16.4574
  41   2.0000      -0.567031       -15.4297
  42   2.0000      -0.561161       -15.2700
  43   2.0000      -0.559279       -15.2188
  44   2.0000      -0.531975       -14.4758
  45   2.0000      -0.527272       -14.3478
  46   2.0000      -0.518538       -14.1101
  47   2.0000      -0.512948       -13.9580
  48   2.0000      -0.502314       -13.6687
  49   2.0000      -0.499796       -13.6001
  50   2.0000      -0.494640       -13.4598
  51   2.0000      -0.478256       -13.0140
  52   2.0000      -0.475862       -12.9489
  53   2.0000      -0.469023       -12.7628
  54   2.0000      -0.459962       -12.5162
  55   2.0000      -0.455979       -12.4078
  56   2.0000      -0.448671       -12.2090
  57   2.0000      -0.443065       -12.0564
  58   2.0000      -0.432426       -11.7669
  59   2.0000      -0.422665       -11.5013
  60   2.0000      -0.421971       -11.4824
  61   2.0000      -0.416281       -11.3276
  62   2.0000      -0.403580       -10.9820
  63   2.0000      -0.335739        -9.1359
  64   2.0000      -0.328437        -8.9372
  65   2.0000      -0.325090        -8.8462
  66   2.0000      -0.300357        -8.1731
  67   0.0000       0.036210         0.9853
  68   0.0000       0.059880         1.6294
  69   0.0000       0.115549         3.1443
  70   0.0000       0.120201         3.2708
  71   0.0000       0.131432         3.5765

MULLIKEN ATOMIC CHARGES
-----------------------
   0 S :    0.102742
   1 C :   -0.108903
   2 C :   -0.124884
   3 C :    0.060928
   4 C :   -0.183443
   5 H :    0.008712
   6 C :    0.099882
   7 H :    0.027533
   8 H :    0.025486
   9 C :   -0.096451
  10 H :    0.022815
  11 H :    0.037396
  12 C :   -0.009653
  13 H :    0.017901
  14 H :    0.035364
  15 H :    0.010045
  16 S :    0.135098
  17 C :   -0.075121
  18 C :   -0.046496
  19 C :   -0.006365
  20 C :   -0.170124
  21 H :    0.029965
  22 C :    0.072056
  23 H :    0.044013
  24 H :    0.005941
  25 C :   -0.098050
  26 H :    0.027975
  27 H :    0.027106
  28 C :   -0.011040
  29 H :    0.006904
  30 H :    0.039830
  31 H :    0.021086
  32 H :    0.038327
  33 H :    0.033426
Sum of atomic charges:   -0.0000000

LOEWDIN ATOMIC CHARGES
----------------------
   0 S :    0.369373
   1 C :   -0.192761
   2 C :   -0.065347
   3 C :   -0.054019
   4 C :   -0.171176
   5 H :    0.027364
   6 C :   -0.022597
   7 H :    0.034391
   8 H :    0.025828
   9 C :   -0.048348
  10 H :    0.026889
  11 H :    0.025695
  12 C :   -0.062715
  13 H :    0.021666
  14 H :    0.025126
  15 H :    0.022690
  16 S :    0.453650
  17 C :   -0.183169
  18 C :   -0.071425
  19 C :   -0.045675
  20 C :   -0.234693
  21 H :    0.033551
  22 C :   -0.030274
  23 H :    0.042585
  24 H :    0.019673
  25 C :   -0.043398
  26 H :    0.022859
  27 H :    0.022957
  28 C :   -0.061395
  29 H :    0.009047
  30 H :    0.032792
  31 H :    0.031656
  32 H :    0.026986
  33 H :    0.012210

  Mayer bond orders larger than 0.100000
B(  0-S ,  1-C ) :   1.1228 B(  0-S ,  4-C ) :   1.1248 B(  1-C ,  2-C ) :   1.6528
B(  1-C , 32-H ) :   0.9633 B(  2-C ,  3-C ) :   1.2276 B(  2-C ,  6-C ) :   1.0102
B(  3-C ,  4-C ) :   1.5955 B(  3-C ,  5-H ) :   0.9908 B(  4-C , 20-C ) :   1.0436
B(  6-C ,  7-H ) :   0.9403 B(  6-C ,  8-H ) :   0.9379 B(  6-C ,  9-C ) :   1.0598
B(  9-C , 10-H ) :   0.9533 B(  9-C , 11-H ) :   0.9600 B(  9-C , 12-C ) :   1.0754
B( 12-C , 13-H ) :   0.9711 B( 12-C , 14-H ) :   0.9770 B( 12-C , 15-H ) :   0.9712
B( 16-S , 17-C ) :   1.1894 B( 16-S , 20-C ) :   1.1669 B( 17-C , 18-C ) :   1.5671
B( 17-C , 20-C ) :   0.1018 B( 17-C , 33-H ) :   0.9797 B( 18-C , 19-C ) :   1.2543
B( 18-C , 21-H ) :   0.9895 B( 19-C , 20-C ) :   1.5749 B( 19-C , 22-C ) :   1.0463
B( 22-C , 23-H ) :   0.9355 B( 22-C , 24-H ) :   0.9322 B( 22-C , 25-C ) :   1.0479
B( 25-C , 26-H ) :   0.9607 B( 25-C , 27-H ) :   0.9542 B( 25-C , 28-C ) :   1.0836
B( 28-C , 29-H ) :   0.9739 B( 28-C , 30-H ) :   0.9725 B( 28-C , 31-H ) :   0.9689

Dispersion correction           -0.014003738
FINAL SINGLE POINT ENERGY     -1339.855866878321

DIPOLE MOMENT
-------------
                                X             Y             Z
Electronic contribution:      0.36788      -6.89771     -31.96206
Nuclear contribution   :     -0.26904       7.22744      32.63859
                        -----------------------------------------
Total Dipole Moment    :      0.09884       0.32973       0.67653
                        -----------------------------------------
Magnitude (a.u.)       :      0.75907
Magnitude (Debye)      :      1.92939

Rotational constants in cm-1:     0.015691     0.009358     0.006596
Rotational constants in MHz :   470.416872   280.551906   197.733639

                             ****ORCA TERMINATED NORMALLY****
TOTAL RUN TIME: 0 days 0 hours 0 minutes 21 seconds 459 msec
