                         Program Version 4.2.1 -  RELEASE  -
|  1> ! wB97X-D3 SP def2-SVP
|  2> %pal
|  3> nprocs 24
|  4> end
|  5>
|  6> * xyz 0 1
|  7> S 	 -52.5652 	 -44.1097 	 -76.8741
|  8> C 	 -53.5662 	 -44.0336 	 -78.2911
|  9> C 	 -52.7787 	 -44.187 	 -79.447
| 10> C 	 -51.3928 	 -44.4416 	 -79.162
| 11> C 	 -51.129 	 -44.4247 	 -77.7621
| 12> H 	 -50.6969 	 -44.6682 	 -79.8862
| 13> C 	 -53.3738 	 -44.152 	 -80.8819
| 14> H 	 -53.1539 	 -43.2007 	 -81.2719
| 15> H 	 -54.418 	 -44.1636 	 -80.6896
| 16> C 	 -52.9044 	 -45.3355 	 -81.8008
| 17> H 	 -51.8162 	 -45.4173 	 -81.8154
| 18> H 	 -53.3495 	 -46.3438 	 -81.5777
| 19> C 	 -53.3574 	 -45.0526 	 -83.2573
| 20> H 	 -52.6502 	 -44.2141 	 -83.5986
| 21> H 	 -53.1249 	 -45.9143 	 -83.8333
| 22> H 	 -54.3809 	 -44.8115 	 -83.4891
| 23> S 	 -50.0875 	 -45.8676 	 -75.6564
| 24> C 	 -48.3207 	 -45.7543 	 -75.3914
| 25> C 	 -47.6561 	 -44.9699 	 -76.2907
| 26> C 	 -48.6006 	 -44.3695 	 -77.2273
| 27> C 	 -49.9071 	 -44.7878 	 -77.0114
| 28> H 	 -46.5747 	 -44.8249 	 -76.254
| 29> C 	 -48.0838 	 -43.575 	 -78.4024
| 30> H 	 -49.0015 	 -43.2425 	 -78.9303
| 31> H 	 -47.5575 	 -44.3835 	 -78.9311
| 32> C 	 -47.2071 	 -42.351 	 -78.0876
| 33> H 	 -46.4411 	 -42.7129 	 -77.401
| 34> H 	 -47.7069 	 -41.5216 	 -77.5133
| 35> C 	 -46.5015 	 -41.7886 	 -79.2724
| 36> H 	 -45.5404 	 -42.3806 	 -79.3849
| 37> H 	 -46.25 	 -40.7411 	 -79.0194
| 38> H 	 -46.9592 	 -41.8643 	 -80.2335
| 39> H 	 -54.6494 	 -43.9271 	 -78.2888
| 40> H 	 -47.827 	 -46.4195 	 -74.6978
| 41> *
| 42>
| 43>                          ****END OF INPUT****

CARTESIAN COORDINATES (ANGSTROEM)
---------------------------------
  S    -52.565200  -44.109700  -76.874100
  C    -53.566200  -44.033600  -78.291100
  C    -52.778700  -44.187000  -79.447000
  C    -51.392800  -44.441600  -79.162000
  C    -51.129000  -44.424700  -77.762100
  H    -50.696900  -44.668200  -79.886200
  C    -53.373800  -44.152000  -80.881900
  H    -53.153900  -43.200700  -81.271900
  H    -54.418000  -44.163600  -80.689600
  C    -52.904400  -45.335500  -81.800800
  H    -51.816200  -45.417300  -81.815400
  H    -53.349500  -46.343800  -81.577700
  C    -53.357400  -45.052600  -83.257300
  H    -52.650200  -44.214100  -83.598600
  H    -53.124900  -45.914300  -83.833300
  H    -54.380900  -44.811500  -83.489100
  S    -50.087500  -45.867600  -75.656400
  C    -48.320700  -45.754300  -75.391400
  C    -47.656100  -44.969900  -76.290700
  C    -48.600600  -44.369500  -77.227300
  C    -49.907100  -44.787800  -77.011400
  H    -46.574700  -44.824900  -76.254000
  C    -48.083800  -43.575000  -78.402400
  H    -49.001500  -43.242500  -78.930300
  H    -47.557500  -44.383500  -78.931100
  C    -47.207100  -42.351000  -78.087600
  H    -46.441100  -42.712900  -77.401000
  H    -47.706900  -41.521600  -77.513300
  C    -46.501500  -41.788600  -79.272400
  H    -45.540400  -42.380600  -79.384900
  H    -46.250000  -40.741100  -79.019400
  H    -46.959200  -41.864300  -80.233500
  H    -54.649400  -43.927100  -78.288800
  H    -47.827000  -46.419500  -74.697800

 Total Charge           Charge          ....    0
 Multiplicity           Mult            ....    1
 Number of Electrons    NEL             ....  134
 Basis Dimension        Dim             ....  322

ORBITAL ENERGIES
----------------

  NO   OCC          E(Eh)            E(eV)
   0   2.0000     -88.965781     -2420.8820
   1   2.0000     -88.965731     -2420.8806
   2   2.0000     -10.331653      -281.1386
   3   2.0000     -10.325887      -280.9817
   4   2.0000     -10.318409      -280.7782
   5   2.0000     -10.312128      -280.6073
   6   2.0000     -10.303124      -280.3623
   7   2.0000     -10.302561      -280.3469
   8   2.0000     -10.297651      -280.2133
   9   2.0000     -10.296986      -280.1952
  10   2.0000     -10.293231      -280.0931
  11   2.0000     -10.292067      -280.0614
  12   2.0000     -10.290625      -280.0221
  13   2.0000     -10.287481      -279.9366
  14   2.0000     -10.279698      -279.7248
  15   2.0000     -10.278471      -279.6914
  16   2.0000      -8.080996      -219.8951
  17   2.0000      -8.080157      -219.8723
  18   2.0000      -6.039407      -164.3406
  19   2.0000      -6.038720      -164.3219
  20   2.0000      -6.035236      -164.2271
  21   2.0000      -6.034887      -164.2176
  22   2.0000      -6.032037      -164.1401
  23   2.0000      -6.030684      -164.1032
  24   2.0000      -1.003509       -27.3069
  25   2.0000      -0.979345       -26.6493
  26   2.0000      -0.911405       -24.8006
  27   2.0000      -0.905350       -24.6358
  28   2.0000      -0.866149       -23.5691
  29   2.0000      -0.854724       -23.2582
  30   2.0000      -0.844241       -22.9730
  31   2.0000      -0.815217       -22.1832
  32   2.0000      -0.780756       -21.2455
  33   2.0000      -0.766005       -20.8440
  34   2.0000      -0.706762       -19.2320
  35   2.0000      -0.695998       -18.9391
  36   2.0000      -0.688388       -18.7320
  37   2.0000      -0.659343       -17.9416
  38   2.0000      -0.640249       -17.4221
  39   2.0000      -0.620104       -16.8739
  40   2.0000      -0.591573       -16.0975
  41   2.0000      -0.569322       -15.4920
  42   2.0000      -0.566937       -15.4271
  43   2.0000      -0.558259       -15.1910
  44   2.0000      -0.533615       -14.5204
  45   2.0000      -0.528140       -14.3714
  46   2.0000      -0.513652       -13.9772
  47   2.0000      -0.507737       -13.8162
  48   2.0000      -0.505396       -13.7525
  49   2.0000      -0.498385       -13.5618
  50   2.0000      -0.495031       -13.4705
  51   2.0000      -0.474653       -12.9160
  52   2.0000      -0.471638       -12.8339
  53   2.0000      -0.469759       -12.7828
  54   2.0000      -0.456233       -12.4147
  55   2.0000      -0.454786       -12.3753
  56   2.0000      -0.446175       -12.1410
  57   2.0000      -0.438100       -11.9213
  58   2.0000      -0.433523       -11.7968
  59   2.0000      -0.424614       -11.5543
  60   2.0000      -0.419911       -11.4264
  61   2.0000      -0.407665       -11.0931
  62   2.0000      -0.406546       -11.0627
  63   2.0000      -0.349319        -9.5055
  64   2.0000      -0.329189        -8.9577
  65   2.0000      -0.328453        -8.9377
  66   2.0000      -0.286868        -7.8061
  67   0.0000       0.031617         0.8603
  68   0.0000       0.075539         2.0555
  69   0.0000       0.106982         2.9111
  70   0.0000       0.120455         3.2778
  71   0.0000       0.136062         3.7024

MULLIKEN ATOMIC CHARGES
-----------------------
   0 S :    0.114282
   1 C :   -0.135065
   2 C :   -0.119916
   3 C :    0.062423
   4 C :   -0.165342
   5 H :   -0.018333
   6 C :    0.128427
   7 H :    0.026595
   8 H :    0.006081
   9 C :   -0.105877
  10 H :    0.038274
  11 H :    0.046601
  12 C :   -0.064525
  13 H :    0.034239
  14 H :    0.024816
  15 H :    0.038209
  16 S :    0.104364
  17 C :   -0.088592
  18 C :   -0.031486
  19 C :   -0.053132
  20 C :   -0.140384
  21 H :    0.034126
  22 C :    0.042677
  23 H :    0.035031
  24 H :    0.047933
  25 C :   -0.085127
  26 H :    0.017024
  27 H :    0.043874
  28 C :   -0.043576
  29 H :    0.030223
  30 H :    0.039746
  31 H :    0.030785
  32 H :    0.051890
  33 H :    0.053734
Sum of atomic charges:    0.0000000

LOEWDIN ATOMIC CHARGES
----------------------
   0 S :    0.431597
   1 C :   -0.219654
   2 C :   -0.055427
   3 C :   -0.064816
   4 C :   -0.197014
   5 H :    0.013743
   6 C :   -0.020479
   7 H :    0.026362
   8 H :    0.026065
   9 C :   -0.036855
  10 H :    0.023861
  11 H :    0.031916
  12 C :   -0.069283
  13 H :    0.031477
  14 H :    0.019445
  15 H :    0.021797
  16 S :    0.386377
  17 C :   -0.165257
  18 C :   -0.069463
  19 C :   -0.053078
  20 C :   -0.209533
  21 H :    0.036313
  22 C :   -0.037021
  23 H :    0.034092
  24 H :    0.040219
  25 C :   -0.048947
  26 H :    0.021080
  27 H :    0.032872
  28 C :   -0.068819
  29 H :    0.031870
  30 H :    0.032514
  31 H :    0.019660
  32 H :    0.029485
  33 H :    0.024903

  Mayer bond orders larger than 0.100000
B(  0-S ,  1-C ) :   1.1431 B(  0-S ,  4-C ) :   1.1935 B(  1-C ,  2-C ) :   1.5854
B(  1-C ,  4-C ) :   0.1014 B(  1-C , 32-H ) :   0.9680 B(  2-C ,  3-C ) :   1.2784
B(  2-C ,  6-C ) :   1.0077 B(  3-C ,  4-C ) :   1.5116 B(  3-C ,  5-H ) :   1.0016
B(  4-C , 20-C ) :   1.0286 B(  6-C ,  7-H ) :   0.9405 B(  6-C ,  8-H ) :   0.9392
B(  6-C ,  9-C ) :   1.0565 B(  9-C , 10-H ) :   0.9585 B(  9-C , 11-H ) :   0.9611
B(  9-C , 12-C ) :   1.0765 B( 12-C , 13-H ) :   0.9782 B( 12-C , 14-H ) :   0.9754
B( 12-C , 15-H ) :   0.9783 B( 16-S , 17-C ) :   1.1336 B( 16-S , 20-C ) :   1.1260
B( 17-C , 18-C ) :   1.6548 B( 17-C , 33-H ) :   0.9647 B( 18-C , 19-C ) :   1.1953
B( 18-C , 21-H ) :   0.9841 B( 19-C , 20-C ) :   1.6290 B( 19-C , 22-C ) :   1.0335
B( 22-C , 23-H ) :   0.9224 B( 22-C , 24-H ) :   0.9415 B( 22-C , 25-C ) :   1.0629
B( 25-C , 26-H ) :   0.9578 B( 25-C , 27-H ) :   0.9582 B( 25-C , 28-C ) :   1.0769
B( 28-C , 29-H ) :   0.9765 B( 28-C , 30-H ) :   0.9746 B( 28-C , 31-H ) :   0.9771

Dispersion correction           -0.013203766
FINAL SINGLE POINT ENERGY     -1339.873696805984

DIPOLE MOMENT
-------------
                                X             Y             Z
Electronic contribution:     -7.50734      -8.00136      27.24468
Nuclear contribution   :      7.82367       8.00591     -27.83751
                        -----------------------------------------
Total Dipole Moment    :      0.31633       0.00455      -0.59283
                        -----------------------------------------
Magnitude (a.u.)       :      0.67196
Magnitude (Debye)      :      1.70800

Rotational constants in cm-1:     0.016540     0.008215     0.006296
Rotational constants in MHz :   495.856992   246.264832   188.757655

                             ****ORCA TERMINATED NORMALLY****
TOTAL RUN TIME: 0 days 0 hours 0 minutes 21 seconds 885 msec
