                         Program Version 4.2.1 -  RELEASE  -
|  1> ! wB97X-D3 SP def2-SVP
|  2> %pal
|  3> nprocs 24
|  4> end
|  5>
|  6> * xyz 0 1
|  7> S 	 -24.5748 	 -33.1738 	 -95.1926
|  8> C 	 -24.1168 	 -34.4798 	 -96.2343
|  9> C 	 -23.8213 	 -34.0012 	 -97.5115
| 10> C 	 -23.9568 	 -32.6145 	 -97.6128
| 11> C 	 -24.2385 	 -32.0018 	 -96.4193
| 12> H 	 -24.0313 	 -32.0113 	 -98.5261
| 13> C 	 -23.57 	 -34.8191 	 -98.7914
| 14> H 	 -22.8812 	 -34.2 	 -99.3192
| 15> H 	 -24.4349 	 -34.7919 	 -99.4862
| 16> C 	 -22.9647 	 -36.2344 	 -98.575
| 17> H 	 -21.9454 	 -36.3283 	 -98.0924
| 18> H 	 -23.7445 	 -36.6223 	 -97.9505
| 19> C 	 -23.0706 	 -37.1134 	 -99.8308
| 20> H 	 -22.9289 	 -36.541 	 -100.776
| 21> H 	 -22.3952 	 -37.9383 	 -99.969
| 22> H 	 -24.0383 	 -37.6121 	 -100.016
| 23> S 	 -25.2059 	 -29.758 	 -97.5721
| 24> C 	 -24.9562 	 -28.2365 	 -96.763
| 25> C 	 -24.291 	 -28.403 	 -95.5922
| 26> C 	 -23.942 	 -29.7326 	 -95.2883
| 27> C 	 -24.3456 	 -30.565 	 -96.2805
| 28> H 	 -23.9663 	 -27.5265 	 -95.022
| 29> C 	 -23.1311 	 -30.109 	 -94.045
| 30> H 	 -23.6785 	 -30.8461 	 -93.4958
| 31> H 	 -23.0793 	 -29.2142 	 -93.3859
| 32> C 	 -21.7392 	 -30.7261 	 -94.3882
| 33> H 	 -21.264 	 -30.0335 	 -95.0634
| 34> H 	 -21.8768 	 -31.63 	 -94.9795
| 35> C 	 -20.8974 	 -30.8169 	 -93.1031
| 36> H 	 -19.9426 	 -31.2918 	 -93.3552
| 37> H 	 -21.4262 	 -31.3605 	 -92.3157
| 38> H 	 -20.6576 	 -29.8999 	 -92.6733
| 39> H 	 -23.9704 	 -35.523 	 -95.9148
| 40> H 	 -25.2896 	 -27.2712 	 -97.0821
| 41> *
| 42>
| 43>                          ****END OF INPUT****

CARTESIAN COORDINATES (ANGSTROEM)
---------------------------------
  S    -24.574800  -33.173800  -95.192600
  C    -24.116800  -34.479800  -96.234300
  C    -23.821300  -34.001200  -97.511500
  C    -23.956800  -32.614500  -97.612800
  C    -24.238500  -32.001800  -96.419300
  H    -24.031300  -32.011300  -98.526100
  C    -23.570000  -34.819100  -98.791400
  H    -22.881200  -34.200000  -99.319200
  H    -24.434900  -34.791900  -99.486200
  C    -22.964700  -36.234400  -98.575000
  H    -21.945400  -36.328300  -98.092400
  H    -23.744500  -36.622300  -97.950500
  C    -23.070600  -37.113400  -99.830800
  H    -22.928900  -36.541000  -100.776000
  H    -22.395200  -37.938300  -99.969000
  H    -24.038300  -37.612100  -100.016000
  S    -25.205900  -29.758000  -97.572100
  C    -24.956200  -28.236500  -96.763000
  C    -24.291000  -28.403000  -95.592200
  C    -23.942000  -29.732600  -95.288300
  C    -24.345600  -30.565000  -96.280500
  H    -23.966300  -27.526500  -95.022000
  C    -23.131100  -30.109000  -94.045000
  H    -23.678500  -30.846100  -93.495800
  H    -23.079300  -29.214200  -93.385900
  C    -21.739200  -30.726100  -94.388200
  H    -21.264000  -30.033500  -95.063400
  H    -21.876800  -31.630000  -94.979500
  C    -20.897400  -30.816900  -93.103100
  H    -19.942600  -31.291800  -93.355200
  H    -21.426200  -31.360500  -92.315700
  H    -20.657600  -29.899900  -92.673300
  H    -23.970400  -35.523000  -95.914800
  H    -25.289600  -27.271200  -97.082100

 Total Charge           Charge          ....    0
 Multiplicity           Mult            ....    1
 Number of Electrons    NEL             ....  134
 Basis Dimension        Dim             ....  322

ORBITAL ENERGIES
----------------

  NO   OCC          E(Eh)            E(eV)
   0   2.0000     -88.969451     -2420.9818
   1   2.0000     -88.966141     -2420.8918
   2   2.0000     -10.323822      -280.9255
   3   2.0000     -10.319831      -280.8169
   4   2.0000     -10.314575      -280.6739
   5   2.0000     -10.311333      -280.5856
   6   2.0000     -10.299929      -280.2753
   7   2.0000     -10.295701      -280.1603
   8   2.0000     -10.294601      -280.1303
   9   2.0000     -10.294112      -280.1170
  10   2.0000     -10.291419      -280.0437
  11   2.0000     -10.288117      -279.9539
  12   2.0000     -10.286775      -279.9174
  13   2.0000     -10.282203      -279.7930
  14   2.0000     -10.279305      -279.7141
  15   2.0000     -10.271802      -279.5099
  16   2.0000      -8.084229      -219.9830
  17   2.0000      -8.081039      -219.8962
  18   2.0000      -6.042750      -164.4316
  19   2.0000      -6.039566      -164.3449
  20   2.0000      -6.038689      -164.3211
  21   2.0000      -6.035627      -164.2378
  22   2.0000      -6.035023      -164.2213
  23   2.0000      -6.031687      -164.1305
  24   2.0000      -1.015065       -27.6213
  25   2.0000      -0.991034       -26.9674
  26   2.0000      -0.909120       -24.7384
  27   2.0000      -0.904739       -24.6192
  28   2.0000      -0.872045       -23.7295
  29   2.0000      -0.856056       -23.2945
  30   2.0000      -0.848803       -23.0971
  31   2.0000      -0.810660       -22.0592
  32   2.0000      -0.782202       -21.2848
  33   2.0000      -0.771550       -20.9949
  34   2.0000      -0.714661       -19.4469
  35   2.0000      -0.706139       -19.2150
  36   2.0000      -0.690621       -18.7928
  37   2.0000      -0.667914       -18.1749
  38   2.0000      -0.636506       -17.3202
  39   2.0000      -0.608862       -16.5680
  40   2.0000      -0.596606       -16.2345
  41   2.0000      -0.568862       -15.4795
  42   2.0000      -0.564108       -15.3502
  43   2.0000      -0.559010       -15.2114
  44   2.0000      -0.524805       -14.2807
  45   2.0000      -0.517857       -14.0916
  46   2.0000      -0.516779       -14.0623
  47   2.0000      -0.511815       -13.9272
  48   2.0000      -0.508047       -13.8247
  49   2.0000      -0.502340       -13.6694
  50   2.0000      -0.486972       -13.2512
  51   2.0000      -0.481979       -13.1153
  52   2.0000      -0.471903       -12.8411
  53   2.0000      -0.470623       -12.8063
  54   2.0000      -0.459573       -12.5056
  55   2.0000      -0.451914       -12.2972
  56   2.0000      -0.445325       -12.1179
  57   2.0000      -0.437229       -11.8976
  58   2.0000      -0.433706       -11.8017
  59   2.0000      -0.429342       -11.6830
  60   2.0000      -0.421212       -11.4618
  61   2.0000      -0.415410       -11.3039
  62   2.0000      -0.406462       -11.0604
  63   2.0000      -0.350802        -9.5458
  64   2.0000      -0.333730        -9.0813
  65   2.0000      -0.331637        -9.0243
  66   2.0000      -0.288552        -7.8519
  67   0.0000       0.028152         0.7661
  68   0.0000       0.080573         2.1925
  69   0.0000       0.103836         2.8255
  70   0.0000       0.121002         3.2926
  71   0.0000       0.140839         3.8324

MULLIKEN ATOMIC CHARGES
-----------------------
   0 S :    0.124886
   1 C :   -0.156521
   2 C :   -0.060337
   3 C :   -0.025987
   4 C :   -0.142042
   5 H :    0.027776
   6 C :    0.053631
   7 H :    0.013293
   8 H :    0.048783
   9 C :   -0.071080
  10 H :    0.061733
  11 H :    0.032253
  12 C :   -0.068407
  13 H :    0.022037
  14 H :    0.024582
  15 H :    0.029505
  16 S :    0.103873
  17 C :   -0.067531
  18 C :   -0.054497
  19 C :   -0.030058
  20 C :   -0.159844
  21 H :    0.018817
  22 C :    0.068241
  23 H :    0.020634
  24 H :    0.019882
  25 C :   -0.074742
  26 H :    0.024012
  27 H :    0.049252
  28 C :   -0.010353
  29 H :    0.034146
  30 H :    0.027226
  31 H :    0.012670
  32 H :    0.063351
  33 H :    0.040815
Sum of atomic charges:    0.0000000

LOEWDIN ATOMIC CHARGES
----------------------
   0 S :    0.430440
   1 C :   -0.217174
   2 C :   -0.063070
   3 C :   -0.076910
   4 C :   -0.198869
   5 H :    0.030071
   6 C :   -0.029903
   7 H :    0.023300
   8 H :    0.040755
   9 C :   -0.047544
  10 H :    0.039204
  11 H :    0.025127
  12 C :   -0.078728
  13 H :    0.025080
  14 H :    0.022839
  15 H :    0.028018
  16 S :    0.412262
  17 C :   -0.183780
  18 C :   -0.072237
  19 C :   -0.061402
  20 C :   -0.190562
  21 H :    0.033584
  22 C :   -0.028738
  23 H :    0.020895
  24 H :    0.031372
  25 C :   -0.033404
  26 H :    0.021784
  27 H :    0.026247
  28 C :   -0.058986
  29 H :    0.029405
  30 H :    0.025756
  31 H :    0.015755
  32 H :    0.033232
  33 H :    0.026181

  Mayer bond orders larger than 0.100000
B(  0-S ,  1-C ) :   1.1377 B(  0-S ,  4-C ) :   1.1639 B(  1-C ,  2-C ) :   1.5834
B(  1-C , 32-H ) :   0.9631 B(  2-C ,  3-C ) :   1.2802 B(  2-C ,  6-C ) :   1.0025
B(  3-C ,  4-C ) :   1.5370 B(  3-C ,  5-H ) :   0.9894 B(  4-C , 20-C ) :   1.0464
B(  6-C ,  7-H ) :   0.9324 B(  6-C ,  8-H ) :   0.9454 B(  6-C ,  9-C ) :   1.0505
B(  9-C , 10-H ) :   0.9630 B(  9-C , 11-H ) :   0.9555 B(  9-C , 12-C ) :   1.0672
B( 12-C , 13-H ) :   0.9755 B( 12-C , 14-H ) :   0.9757 B( 12-C , 15-H ) :   0.9775
B( 16-S , 17-C ) :   1.1380 B( 16-S , 20-C ) :   1.1389 B( 17-C , 18-C ) :   1.6339
B( 17-C , 33-H ) :   0.9678 B( 18-C , 19-C ) :   1.2391 B( 18-C , 21-H ) :   0.9840
B( 19-C , 20-C ) :   1.6021 B( 19-C , 22-C ) :   1.0381 B( 22-C , 23-H ) :   0.9240
B( 22-C , 24-H ) :   0.9391 B( 22-C , 25-C ) :   1.0569 B( 25-C , 26-H ) :   0.9570
B( 25-C , 27-H ) :   0.9544 B( 25-C , 28-C ) :   1.0826 B( 28-C , 29-H ) :   0.9731
B( 28-C , 30-H ) :   0.9739 B( 28-C , 31-H ) :   0.9738

Dispersion correction           -0.014096018
FINAL SINGLE POINT ENERGY     -1339.878450298280

DIPOLE MOMENT
-------------
                                X             Y             Z
Electronic contribution:    -15.79508      13.56171       1.26804
Nuclear contribution   :     16.07061     -13.58128      -1.33781
                        -----------------------------------------
Total Dipole Moment    :      0.27552      -0.01957      -0.06977
                        -----------------------------------------
Magnitude (a.u.)       :      0.28489
Magnitude (Debye)      :      0.72414

Rotational constants in cm-1:     0.020633     0.007878     0.006406
Rotational constants in MHz :   618.555564   236.172308   192.045361

                             ****ORCA TERMINATED NORMALLY****
TOTAL RUN TIME: 0 days 0 hours 0 minutes 21 seconds 380 msec
