                         Program Version 4.2.1 -  RELEASE  -
|  1> ! wB97X-D3 SP def2-SVP
|  2> %pal
|  3> nprocs 24
|  4> end
|  5>
|  6> * xyz 0 1
|  7> S 	 49.8533 	 -18.6122 	 -109.377
|  8> C 	 48.5717 	 -19.0828 	 -110.517
|  9> C 	 48.0331 	 -20.3016 	 -110.191
| 10> C 	 48.43 	 -20.706 	 -108.864
| 11> C 	 49.2405 	 -19.8392 	 -108.206
| 12> H 	 48.1198 	 -21.5634 	 -108.292
| 13> C 	 47.0619 	 -21.0662 	 -111.029
| 14> H 	 46.8669 	 -22.0134 	 -110.464
| 15> H 	 47.5079 	 -21.3906 	 -111.981
| 16> C 	 45.7981 	 -20.2229 	 -111.253
| 17> H 	 45.3665 	 -20.043 	 -110.214
| 18> H 	 45.9335 	 -19.2878 	 -111.747
| 19> C 	 44.8527 	 -20.9531 	 -112.14
| 20> H 	 45.4015 	 -21.1901 	 -113.08
| 21> H 	 44.6583 	 -21.8914 	 -111.605
| 22> H 	 43.9674 	 -20.459 	 -112.403
| 23> S 	 50.1569 	 -21.5706 	 -106.204
| 24> C 	 50.2086 	 -20.9075 	 -104.579
| 25> C 	 49.809 	 -19.6069 	 -104.526
| 26> C 	 49.4482 	 -19.056 	 -105.771
| 27> C 	 49.5868 	 -19.9843 	 -106.812
| 28> H 	 49.7711 	 -19.1237 	 -103.554
| 29> C 	 48.8868 	 -17.6904 	 -105.839
| 30> H 	 48.1534 	 -17.6052 	 -105.034
| 31> H 	 48.2374 	 -17.551 	 -106.727
| 32> C 	 49.9379 	 -16.5669 	 -105.65
| 33> H 	 50.812 	 -16.7447 	 -106.242
| 34> H 	 50.4429 	 -16.6258 	 -104.698
| 35> C 	 49.4225 	 -15.1614 	 -105.82
| 36> H 	 50.184 	 -14.368 	 -105.548
| 37> H 	 48.5056 	 -15.0146 	 -105.294
| 38> H 	 49.1834 	 -15.0562 	 -106.9
| 39> H 	 48.3491 	 -18.7464 	 -111.552
| 40> H 	 50.5095 	 -21.3552 	 -103.62
| 41> *
| 42>
| 43>                          ****END OF INPUT****

CARTESIAN COORDINATES (ANGSTROEM)
---------------------------------
  S     49.853300  -18.612200  -109.377000
  C     48.571700  -19.082800  -110.517000
  C     48.033100  -20.301600  -110.191000
  C     48.430000  -20.706000  -108.864000
  C     49.240500  -19.839200  -108.206000
  H     48.119800  -21.563400  -108.292000
  C     47.061900  -21.066200  -111.029000
  H     46.866900  -22.013400  -110.464000
  H     47.507900  -21.390600  -111.981000
  C     45.798100  -20.222900  -111.253000
  H     45.366500  -20.043000  -110.214000
  H     45.933500  -19.287800  -111.747000
  C     44.852700  -20.953100  -112.140000
  H     45.401500  -21.190100  -113.080000
  H     44.658300  -21.891400  -111.605000
  H     43.967400  -20.459000  -112.403000
  S     50.156900  -21.570600  -106.204000
  C     50.208600  -20.907500  -104.579000
  C     49.809000  -19.606900  -104.526000
  C     49.448200  -19.056000  -105.771000
  C     49.586800  -19.984300  -106.812000
  H     49.771100  -19.123700  -103.554000
  C     48.886800  -17.690400  -105.839000
  H     48.153400  -17.605200  -105.034000
  H     48.237400  -17.551000  -106.727000
  C     49.937900  -16.566900  -105.650000
  H     50.812000  -16.744700  -106.242000
  H     50.442900  -16.625800  -104.698000
  C     49.422500  -15.161400  -105.820000
  H     50.184000  -14.368000  -105.548000
  H     48.505600  -15.014600  -105.294000
  H     49.183400  -15.056200  -106.900000
  H     48.349100  -18.746400  -111.552000
  H     50.509500  -21.355200  -103.620000

 Total Charge           Charge          ....    0
 Multiplicity           Mult            ....    1
 Number of Electrons    NEL             ....  134
 Basis Dimension        Dim             ....  322

ORBITAL ENERGIES
----------------

  NO   OCC          E(Eh)            E(eV)
   0   2.0000     -88.970991     -2421.0238
   1   2.0000     -88.967211     -2420.9209
   2   2.0000     -10.329301      -281.0746
   3   2.0000     -10.327189      -281.0171
   4   2.0000     -10.317298      -280.7480
   5   2.0000     -10.314072      -280.6602
   6   2.0000     -10.301369      -280.3145
   7   2.0000     -10.297637      -280.2130
   8   2.0000     -10.295917      -280.1661
   9   2.0000     -10.290517      -280.0192
  10   2.0000     -10.289263      -279.9851
  11   2.0000     -10.288298      -279.9588
  12   2.0000     -10.286593      -279.9124
  13   2.0000     -10.278436      -279.6905
  14   2.0000     -10.277162      -279.6558
  15   2.0000     -10.272562      -279.5306
  16   2.0000      -8.084550      -219.9918
  17   2.0000      -8.080211      -219.8737
  18   2.0000      -6.043206      -164.4440
  19   2.0000      -6.039319      -164.3382
  20   2.0000      -6.039004      -164.3296
  21   2.0000      -6.035278      -164.2283
  22   2.0000      -6.035126      -164.2241
  23   2.0000      -6.030440      -164.0966
  24   2.0000      -1.003338       -27.3022
  25   2.0000      -0.981768       -26.7153
  26   2.0000      -0.919379       -25.0176
  27   2.0000      -0.909572       -24.7507
  28   2.0000      -0.873605       -23.7720
  29   2.0000      -0.854657       -23.2564
  30   2.0000      -0.847596       -23.0643
  31   2.0000      -0.815342       -22.1866
  32   2.0000      -0.780897       -21.2493
  33   2.0000      -0.765891       -20.8410
  34   2.0000      -0.708936       -19.2911
  35   2.0000      -0.700659       -19.0659
  36   2.0000      -0.695646       -18.9295
  37   2.0000      -0.661215       -17.9926
  38   2.0000      -0.630198       -17.1486
  39   2.0000      -0.614193       -16.7130
  40   2.0000      -0.596991       -16.2449
  41   2.0000      -0.578029       -15.7290
  42   2.0000      -0.565392       -15.3851
  43   2.0000      -0.552965       -15.0469
  44   2.0000      -0.530161       -14.4264
  45   2.0000      -0.527899       -14.3649
  46   2.0000      -0.515288       -14.0217
  47   2.0000      -0.512286       -13.9400
  48   2.0000      -0.504433       -13.7263
  49   2.0000      -0.501516       -13.6469
  50   2.0000      -0.495488       -13.4829
  51   2.0000      -0.473250       -12.8778
  52   2.0000      -0.464357       -12.6358
  53   2.0000      -0.461789       -12.5659
  54   2.0000      -0.454692       -12.3728
  55   2.0000      -0.448665       -12.2088
  56   2.0000      -0.442256       -12.0344
  57   2.0000      -0.437710       -11.9107
  58   2.0000      -0.436477       -11.8771
  59   2.0000      -0.430172       -11.7056
  60   2.0000      -0.426620       -11.6089
  61   2.0000      -0.416956       -11.3459
  62   2.0000      -0.404056       -10.9949
  63   2.0000      -0.346213        -9.4209
  64   2.0000      -0.335086        -9.1181
  65   2.0000      -0.324301        -8.8247
  66   2.0000      -0.291406        -7.9296
  67   0.0000       0.025808         0.7023
  68   0.0000       0.067437         1.8350
  69   0.0000       0.097409         2.6506
  70   0.0000       0.112486         3.0609
  71   0.0000       0.129682         3.5288

MULLIKEN ATOMIC CHARGES
-----------------------
   0 S :    0.111519
   1 C :   -0.126685
   2 C :   -0.087678
   3 C :    0.012499
   4 C :   -0.139992
   5 H :    0.007065
   6 C :    0.056872
   7 H :    0.028526
   8 H :    0.033609
   9 C :   -0.104277
  10 H :    0.044214
  11 H :    0.026837
  12 C :   -0.001834
  13 H :    0.021958
  14 H :    0.020727
  15 H :    0.026773
  16 S :    0.113770
  17 C :   -0.085305
  18 C :   -0.046980
  19 C :   -0.002997
  20 C :   -0.181335
  21 H :    0.019701
  22 C :    0.063737
  23 H :    0.020671
  24 H :    0.032086
  25 C :   -0.062788
  26 H :    0.015255
  27 H :    0.008843
  28 C :   -0.040917
  29 H :    0.047387
  30 H :    0.022906
  31 H :    0.034434
  32 H :    0.054246
  33 H :    0.057157
Sum of atomic charges:   -0.0000000

LOEWDIN ATOMIC CHARGES
----------------------
   0 S :    0.369008
   1 C :   -0.196035
   2 C :   -0.064368
   3 C :   -0.063122
   4 C :   -0.176147
   5 H :    0.025149
   6 C :   -0.033488
   7 H :    0.036221
   8 H :    0.030995
   9 C :   -0.040958
  10 H :    0.033955
  11 H :    0.018586
  12 C :   -0.061033
  13 H :    0.027471
  14 H :    0.025383
  15 H :    0.016417
  16 S :    0.391337
  17 C :   -0.187202
  18 C :   -0.072331
  19 C :   -0.049614
  20 C :   -0.185577
  21 H :    0.033914
  22 C :   -0.033089
  23 H :    0.032544
  24 H :    0.033392
  25 C :   -0.045117
  26 H :    0.021038
  27 H :    0.019886
  28 C :   -0.066437
  29 H :    0.035457
  30 H :    0.018826
  31 H :    0.029526
  32 H :    0.037135
  33 H :    0.038280

  Mayer bond orders larger than 0.100000
B(  0-S ,  1-C ) :   1.1117 B(  0-S ,  4-C ) :   1.1029 B(  1-C ,  2-C ) :   1.6481
B(  1-C , 32-H ) :   0.9574 B(  2-C ,  3-C ) :   1.2076 B(  2-C ,  6-C ) :   1.0266
B(  3-C ,  4-C ) :   1.6110 B(  3-C ,  5-H ) :   0.9926 B(  4-C , 20-C ) :   1.0798
B(  6-C ,  7-H ) :   0.9417 B(  6-C ,  8-H ) :   0.9302 B(  6-C ,  9-C ) :   1.0622
B(  9-C , 10-H ) :   0.9535 B(  9-C , 11-H ) :   0.9567 B(  9-C , 12-C ) :   1.0895
B( 12-C , 13-H ) :   0.9693 B( 12-C , 14-H ) :   0.9708 B( 12-C , 15-H ) :   0.9731
B( 16-S , 17-C ) :   1.1349 B( 16-S , 20-C ) :   1.1212 B( 17-C , 18-C ) :   1.6475
B( 17-C , 33-H ) :   0.9577 B( 18-C , 19-C ) :   1.2331 B( 18-C , 21-H ) :   0.9860
B( 19-C , 20-C ) :   1.5718 B( 19-C , 22-C ) :   1.0602 B( 22-C , 23-H ) :   0.9277
B( 22-C , 24-H ) :   0.9339 B( 22-C , 25-C ) :   1.0437 B( 25-C , 26-H ) :   0.9523
B( 25-C , 27-H ) :   0.9505 B( 25-C , 28-C ) :   1.0891 B( 28-C , 29-H ) :   0.9725
B( 28-C , 30-H ) :   0.9720 B( 28-C , 31-H ) :   0.9748

Dispersion correction           -0.013934522
FINAL SINGLE POINT ENERGY     -1339.871763436124

DIPOLE MOMENT
-------------
                                X             Y             Z
Electronic contribution:     15.97621     -10.59898       5.97039
Nuclear contribution   :    -16.40590      10.63459      -5.87608
                        -----------------------------------------
Total Dipole Moment    :     -0.42968       0.03562       0.09431
                        -----------------------------------------
Magnitude (a.u.)       :      0.44135
Magnitude (Debye)      :      1.12183

Rotational constants in cm-1:     0.019355     0.007761     0.006348
Rotational constants in MHz :   580.253636   232.681207   190.304742

                             ****ORCA TERMINATED NORMALLY****
TOTAL RUN TIME: 0 days 0 hours 0 minutes 21 seconds 192 msec
