                         Program Version 4.2.1 -  RELEASE  -
|  1> ! wB97X-D3 SP def2-SVP
|  2> %pal
|  3> nprocs 24
|  4> end
|  5>
|  6> * xyz 0 1
|  7> S 	 -87.1095 	 -3.39568 	 -62.8891
|  8> C 	 -88.2411 	 -4.647 	 -63.2968
|  9> C 	 -88.1138 	 -5.74478 	 -62.4775
| 10> C 	 -87.0715 	 -5.56316 	 -61.5085
| 11> C 	 -86.3808 	 -4.40899 	 -61.6458
| 12> H 	 -86.7751 	 -6.27495 	 -60.7418
| 13> C 	 -88.8372 	 -7.08238 	 -62.6125
| 14> H 	 -88.1961 	 -7.92713 	 -62.3694
| 15> H 	 -89.1526 	 -7.16708 	 -63.614
| 16> C 	 -90.0561 	 -7.19925 	 -61.7389
| 17> H 	 -89.7064 	 -7.16039 	 -60.7179
| 18> H 	 -90.5427 	 -6.23438 	 -62.0157
| 19> C 	 -90.923 	 -8.4382 	 -61.8678
| 20> H 	 -90.4184 	 -9.27353 	 -61.3354
| 21> H 	 -91.9049 	 -8.35148 	 -61.3962
| 22> H 	 -91.0575 	 -8.49911 	 -62.9475
| 23> S 	 -85.3761 	 -4.27479 	 -59.1951
| 24> C 	 -83.7503 	 -3.63033 	 -58.9593
| 25> C 	 -83.1611 	 -3.28331 	 -60.1729
| 26> C 	 -84.0186 	 -3.4142 	 -61.381
| 27> C 	 -85.219 	 -4.00723 	 -60.9421
| 28> H 	 -82.1355 	 -3.01326 	 -60.164
| 29> C 	 -83.5547 	 -3.0889 	 -62.8042
| 30> H 	 -84.3553 	 -3.15967 	 -63.5066
| 31> H 	 -82.9889 	 -3.9294 	 -63.1785
| 32> C 	 -82.6302 	 -1.88886 	 -62.9176
| 33> H 	 -81.6864 	 -2.15167 	 -62.4296
| 34> H 	 -83.0223 	 -1.07707 	 -62.3561
| 35> C 	 -82.4114 	 -1.3391 	 -64.3531
| 36> H 	 -81.8035 	 -0.414981 	 -64.4543
| 37> H 	 -83.4066 	 -0.996611 	 -64.7821
| 38> H 	 -82.0541 	 -2.11124 	 -65.0179
| 39> H 	 -89.0032 	 -4.56436 	 -64.0583
| 40> H 	 -83.2311 	 -3.61142 	 -57.9784
| 41> *
| 42>
| 43>                          ****END OF INPUT****

CARTESIAN COORDINATES (ANGSTROEM)
---------------------------------
  S    -87.109500   -3.395680  -62.889100
  C    -88.241100   -4.647000  -63.296800
  C    -88.113800   -5.744780  -62.477500
  C    -87.071500   -5.563160  -61.508500
  C    -86.380800   -4.408990  -61.645800
  H    -86.775100   -6.274950  -60.741800
  C    -88.837200   -7.082380  -62.612500
  H    -88.196100   -7.927130  -62.369400
  H    -89.152600   -7.167080  -63.614000
  C    -90.056100   -7.199250  -61.738900
  H    -89.706400   -7.160390  -60.717900
  H    -90.542700   -6.234380  -62.015700
  C    -90.923000   -8.438200  -61.867800
  H    -90.418400   -9.273530  -61.335400
  H    -91.904900   -8.351480  -61.396200
  H    -91.057500   -8.499110  -62.947500
  S    -85.376100   -4.274790  -59.195100
  C    -83.750300   -3.630330  -58.959300
  C    -83.161100   -3.283310  -60.172900
  C    -84.018600   -3.414200  -61.381000
  C    -85.219000   -4.007230  -60.942100
  H    -82.135500   -3.013260  -60.164000
  C    -83.554700   -3.088900  -62.804200
  H    -84.355300   -3.159670  -63.506600
  H    -82.988900   -3.929400  -63.178500
  C    -82.630200   -1.888860  -62.917600
  H    -81.686400   -2.151670  -62.429600
  H    -83.022300   -1.077070  -62.356100
  C    -82.411400   -1.339100  -64.353100
  H    -81.803500   -0.414981  -64.454300
  H    -83.406600   -0.996611  -64.782100
  H    -82.054100   -2.111240  -65.017900
  H    -89.003200   -4.564360  -64.058300
  H    -83.231100   -3.611420  -57.978400

 Total Charge           Charge          ....    0
 Multiplicity           Mult            ....    1
 Number of Electrons    NEL             ....  134
 Basis Dimension        Dim             ....  322

ORBITAL ENERGIES
----------------

  NO   OCC          E(Eh)            E(eV)
   0   2.0000     -88.966666     -2420.9061
   1   2.0000     -88.965048     -2420.8620
   2   2.0000     -10.328272      -281.0466
   3   2.0000     -10.321966      -280.8750
   4   2.0000     -10.321909      -280.8734
   5   2.0000     -10.316769      -280.7336
   6   2.0000     -10.313065      -280.6328
   7   2.0000     -10.300886      -280.3014
   8   2.0000     -10.298842      -280.2457
   9   2.0000     -10.292584      -280.0754
  10   2.0000     -10.289355      -279.9876
  11   2.0000     -10.287176      -279.9283
  12   2.0000     -10.286144      -279.9002
  13   2.0000     -10.284813      -279.8640
  14   2.0000     -10.281300      -279.7684
  15   2.0000     -10.279143      -279.7097
  16   2.0000      -8.080757      -219.8886
  17   2.0000      -8.079759      -219.8614
  18   2.0000      -6.039387      -164.3401
  19   2.0000      -6.038307      -164.3107
  20   2.0000      -6.035469      -164.2335
  21   2.0000      -6.034311      -164.2020
  22   2.0000      -6.031310      -164.1203
  23   2.0000      -6.030430      -164.0964
  24   2.0000      -1.007900       -27.4264
  25   2.0000      -0.977786       -26.6069
  26   2.0000      -0.917351       -24.9624
  27   2.0000      -0.910436       -24.7742
  28   2.0000      -0.873522       -23.7697
  29   2.0000      -0.851946       -23.1826
  30   2.0000      -0.843264       -22.9464
  31   2.0000      -0.811954       -22.0944
  32   2.0000      -0.787391       -21.4260
  33   2.0000      -0.772608       -21.0237
  34   2.0000      -0.710102       -19.3228
  35   2.0000      -0.699128       -19.0242
  36   2.0000      -0.689280       -18.7563
  37   2.0000      -0.662147       -18.0179
  38   2.0000      -0.636702       -17.3255
  39   2.0000      -0.621002       -16.8983
  40   2.0000      -0.600056       -16.3284
  41   2.0000      -0.579272       -15.7628
  42   2.0000      -0.564651       -15.3649
  43   2.0000      -0.560031       -15.2392
  44   2.0000      -0.527580       -14.3562
  45   2.0000      -0.524555       -14.2739
  46   2.0000      -0.520317       -14.1586
  47   2.0000      -0.509484       -13.8638
  48   2.0000      -0.507107       -13.7991
  49   2.0000      -0.497848       -13.5471
  50   2.0000      -0.489704       -13.3255
  51   2.0000      -0.479188       -13.0394
  52   2.0000      -0.473711       -12.8903
  53   2.0000      -0.466527       -12.6948
  54   2.0000      -0.461845       -12.5675
  55   2.0000      -0.450889       -12.2693
  56   2.0000      -0.445806       -12.1310
  57   2.0000      -0.436386       -11.8747
  58   2.0000      -0.430063       -11.7026
  59   2.0000      -0.427871       -11.6430
  60   2.0000      -0.417887       -11.3713
  61   2.0000      -0.416601       -11.3363
  62   2.0000      -0.408819       -11.1245
  63   2.0000      -0.352504        -9.5921
  64   2.0000      -0.330350        -8.9893
  65   2.0000      -0.329059        -8.9542
  66   2.0000      -0.287405        -7.8207
  67   0.0000       0.027835         0.7574
  68   0.0000       0.079760         2.1704
  69   0.0000       0.103432         2.8145
  70   0.0000       0.109572         2.9816
  71   0.0000       0.131907         3.5894

MULLIKEN ATOMIC CHARGES
-----------------------
   0 S :    0.113286
   1 C :   -0.123461
   2 C :   -0.086700
   3 C :    0.005224
   4 C :   -0.133330
   5 H :    0.015566
   6 C :    0.103584
   7 H :    0.018783
   8 H :   -0.000558
   9 C :   -0.112881
  10 H :    0.018670
  11 H :    0.025543
  12 C :   -0.016191
  13 H :    0.040368
  14 H :    0.041101
  15 H :    0.027595
  16 S :    0.100582
  17 C :   -0.100684
  18 C :   -0.036609
  19 C :   -0.033260
  20 C :   -0.161713
  21 H :    0.009648
  22 C :    0.116967
  23 H :   -0.000612
  24 H :    0.029745
  25 C :   -0.084801
  26 H :    0.035093
  27 H :    0.030006
  28 C :   -0.066558
  29 H :    0.045304
  30 H :    0.034453
  31 H :    0.031841
  32 H :    0.042336
  33 H :    0.071662
Sum of atomic charges:   -0.0000000

LOEWDIN ATOMIC CHARGES
----------------------
   0 S :    0.408819
   1 C :   -0.199429
   2 C :   -0.057235
   3 C :   -0.067931
   4 C :   -0.192606
   5 H :    0.029499
   6 C :   -0.025877
   7 H :    0.027093
   8 H :    0.019328
   9 C :   -0.049476
  10 H :    0.017681
  11 H :    0.025193
  12 C :   -0.065520
  13 H :    0.032382
  14 H :    0.030484
  15 H :    0.025619
  16 S :    0.394423
  17 C :   -0.190763
  18 C :   -0.064234
  19 C :   -0.043543
  20 C :   -0.184703
  21 H :    0.022915
  22 C :   -0.034921
  23 H :    0.018197
  24 H :    0.038982
  25 C :   -0.039467
  26 H :    0.024370
  27 H :    0.021639
  28 C :   -0.069874
  29 H :    0.031785
  30 H :    0.032207
  31 H :    0.020663
  32 H :    0.026813
  33 H :    0.037487

  Mayer bond orders larger than 0.100000
B(  0-S ,  1-C ) :   1.1320 B(  0-S ,  4-C ) :   1.1273 B(  1-C ,  2-C ) :   1.6316
B(  1-C , 32-H ) :   0.9669 B(  2-C ,  3-C ) :   1.2258 B(  2-C ,  6-C ) :   1.0298
B(  3-C ,  4-C ) :   1.5878 B(  3-C ,  5-H ) :   0.9898 B(  4-C , 20-C ) :   1.0706
B(  6-C ,  7-H ) :   0.9402 B(  6-C ,  8-H ) :   0.9320 B(  6-C ,  9-C ) :   1.0596
B(  9-C , 10-H ) :   0.9575 B(  9-C , 11-H ) :   0.9559 B(  9-C , 12-C ) :   1.0796
B( 12-C , 13-H ) :   0.9713 B( 12-C , 14-H ) :   0.9729 B( 12-C , 15-H ) :   0.9739
B( 16-S , 17-C ) :   1.1228 B( 16-S , 20-C ) :   1.1380 B( 17-C , 18-C ) :   1.6555
B( 17-C , 33-H ) :   0.9625 B( 18-C , 19-C ) :   1.1840 B( 18-C , 21-H ) :   0.9868
B( 19-C , 20-C ) :   1.5964 B( 19-C , 22-C ) :   1.0495 B( 22-C , 23-H ) :   0.9266
B( 22-C , 24-H ) :   0.9191 B( 22-C , 25-C ) :   1.0462 B( 25-C , 26-H ) :   0.9486
B( 25-C , 27-H ) :   0.9666 B( 25-C , 28-C ) :   1.0821 B( 28-C , 29-H ) :   0.9755
B( 28-C , 30-H ) :   0.9744 B( 28-C , 31-H ) :   0.9755

Dispersion correction           -0.013364289
FINAL SINGLE POINT ENERGY     -1339.877753925028

DIPOLE MOMENT
-------------
                                X             Y             Z
Electronic contribution:      1.83701       6.33253      11.19857
Nuclear contribution   :     -1.63680      -6.58979     -11.39881
                        -----------------------------------------
Total Dipole Moment    :      0.20021      -0.25726      -0.20025
                        -----------------------------------------
Magnitude (a.u.)       :      0.38258
Magnitude (Debye)      :      0.97243

Rotational constants in cm-1:     0.023128     0.007094     0.005734
Rotational constants in MHz :   693.361041   212.668860   171.898537

                             ****ORCA TERMINATED NORMALLY****
TOTAL RUN TIME: 0 days 0 hours 0 minutes 20 seconds 588 msec
