                         Program Version 4.2.1 -  RELEASE  -
|  1> ! wB97X-D3 SP def2-SVP
|  2> %pal
|  3> nprocs 24
|  4> end
|  5>
|  6> * xyz 0 1
|  7> S 	 -51.3186 	 -50.2274 	 -82.8214
|  8> C 	 -51.2993 	 -48.5397 	 -83.4202
|  9> C 	 -50.025 	 -48.0154 	 -83.361
| 10> C 	 -49.0755 	 -48.9148 	 -82.6844
| 11> C 	 -49.6218 	 -50.187 	 -82.4029
| 12> H 	 -48.0613 	 -48.7339 	 -82.5282
| 13> C 	 -49.6015 	 -46.6551 	 -83.6934
| 14> H 	 -48.7066 	 -46.834 	 -84.3171
| 15> H 	 -49.319 	 -46.0991 	 -82.801
| 16> C 	 -50.6154 	 -45.7827 	 -84.4598
| 17> H 	 -50.8872 	 -46.3339 	 -85.3285
| 18> H 	 -51.4839 	 -45.5302 	 -83.8393
| 19> C 	 -50.0182 	 -44.4129 	 -84.9106
| 20> H 	 -49.0505 	 -44.4963 	 -85.4744
| 21> H 	 -50.8078 	 -43.9452 	 -85.502
| 22> H 	 -49.772 	 -43.6909 	 -84.0619
| 23> S 	 -49.6599 	 -52.3851 	 -80.6407
| 24> C 	 -48.1838 	 -53.3789 	 -80.5036
| 25> C 	 -47.3088 	 -52.9455 	 -81.4315
| 26> C 	 -47.717 	 -51.8744 	 -82.2216
| 27> C 	 -48.9577 	 -51.3703 	 -81.8804
| 28> H 	 -46.3046 	 -53.3633 	 -81.5155
| 29> C 	 -46.5969 	 -51.2109 	 -83.119
| 30> H 	 -47.1428 	 -50.6427 	 -83.8646
| 31> H 	 -46.0706 	 -51.9215 	 -83.8441
| 32> C 	 -45.6593 	 -50.247 	 -82.3948
| 33> H 	 -46.1467 	 -49.8493 	 -81.5045
| 34> H 	 -45.443 	 -49.4925 	 -83.0746
| 35> C 	 -44.2368 	 -50.8776 	 -82.0963
| 36> H 	 -43.6722 	 -51.1274 	 -83.0261
| 37> H 	 -44.2644 	 -51.8585 	 -81.7328
| 38> H 	 -43.6666 	 -50.1976 	 -81.44
| 39> H 	 -52.2145 	 -47.9571 	 -83.5619
| 40> H 	 -47.9964 	 -54.2534 	 -79.831
| 41> *
| 42>
| 43>                          ****END OF INPUT****

CARTESIAN COORDINATES (ANGSTROEM)
---------------------------------
  S    -51.318600  -50.227400  -82.821400
  C    -51.299300  -48.539700  -83.420200
  C    -50.025000  -48.015400  -83.361000
  C    -49.075500  -48.914800  -82.684400
  C    -49.621800  -50.187000  -82.402900
  H    -48.061300  -48.733900  -82.528200
  C    -49.601500  -46.655100  -83.693400
  H    -48.706600  -46.834000  -84.317100
  H    -49.319000  -46.099100  -82.801000
  C    -50.615400  -45.782700  -84.459800
  H    -50.887200  -46.333900  -85.328500
  H    -51.483900  -45.530200  -83.839300
  C    -50.018200  -44.412900  -84.910600
  H    -49.050500  -44.496300  -85.474400
  H    -50.807800  -43.945200  -85.502000
  H    -49.772000  -43.690900  -84.061900
  S    -49.659900  -52.385100  -80.640700
  C    -48.183800  -53.378900  -80.503600
  C    -47.308800  -52.945500  -81.431500
  C    -47.717000  -51.874400  -82.221600
  C    -48.957700  -51.370300  -81.880400
  H    -46.304600  -53.363300  -81.515500
  C    -46.596900  -51.210900  -83.119000
  H    -47.142800  -50.642700  -83.864600
  H    -46.070600  -51.921500  -83.844100
  C    -45.659300  -50.247000  -82.394800
  H    -46.146700  -49.849300  -81.504500
  H    -45.443000  -49.492500  -83.074600
  C    -44.236800  -50.877600  -82.096300
  H    -43.672200  -51.127400  -83.026100
  H    -44.264400  -51.858500  -81.732800
  H    -43.666600  -50.197600  -81.440000
  H    -52.214500  -47.957100  -83.561900
  H    -47.996400  -54.253400  -79.831000

 Total Charge           Charge          ....    0
 Multiplicity           Mult            ....    1
 Number of Electrons    NEL             ....  134
 Basis Dimension        Dim             ....  322

ORBITAL ENERGIES
----------------

  NO   OCC          E(Eh)            E(eV)
   0   2.0000     -88.967357     -2420.9248
   1   2.0000     -88.962757     -2420.7997
   2   2.0000     -10.335223      -281.2357
   3   2.0000     -10.330033      -281.0945
   4   2.0000     -10.322195      -280.8812
   5   2.0000     -10.316227      -280.7188
   6   2.0000     -10.303901      -280.3834
   7   2.0000     -10.301470      -280.3173
   8   2.0000     -10.297911      -280.2204
   9   2.0000     -10.296279      -280.1760
  10   2.0000     -10.291273      -280.0398
  11   2.0000     -10.290094      -280.0077
  12   2.0000     -10.289927      -280.0031
  13   2.0000     -10.288048      -279.9520
  14   2.0000     -10.286856      -279.9196
  15   2.0000     -10.281566      -279.7756
  16   2.0000      -8.081557      -219.9103
  17   2.0000      -8.077059      -219.7879
  18   2.0000      -6.040234      -164.3631
  19   2.0000      -6.036063      -164.2496
  20   2.0000      -6.035748      -164.2411
  21   2.0000      -6.032217      -164.1450
  22   2.0000      -6.031614      -164.1286
  23   2.0000      -6.027675      -164.0214
  24   2.0000      -1.006401       -27.3856
  25   2.0000      -0.980910       -26.6919
  26   2.0000      -0.915701       -24.9175
  27   2.0000      -0.904299       -24.6072
  28   2.0000      -0.869438       -23.6586
  29   2.0000      -0.847821       -23.0704
  30   2.0000      -0.843636       -22.9565
  31   2.0000      -0.812780       -22.1169
  32   2.0000      -0.782615       -21.2960
  33   2.0000      -0.772429       -21.0189
  34   2.0000      -0.714378       -19.4392
  35   2.0000      -0.704303       -19.1651
  36   2.0000      -0.693570       -18.8730
  37   2.0000      -0.661559       -18.0019
  38   2.0000      -0.637743       -17.3539
  39   2.0000      -0.611711       -16.6455
  40   2.0000      -0.598047       -16.2737
  41   2.0000      -0.578783       -15.7495
  42   2.0000      -0.567298       -15.4370
  43   2.0000      -0.549425       -14.9506
  44   2.0000      -0.539225       -14.6731
  45   2.0000      -0.525589       -14.3020
  46   2.0000      -0.519874       -14.1465
  47   2.0000      -0.510302       -13.8860
  48   2.0000      -0.504135       -13.7182
  49   2.0000      -0.501606       -13.6494
  50   2.0000      -0.493675       -13.4336
  51   2.0000      -0.489168       -13.3109
  52   2.0000      -0.466343       -12.6898
  53   2.0000      -0.463590       -12.6149
  54   2.0000      -0.456092       -12.4109
  55   2.0000      -0.447041       -12.1646
  56   2.0000      -0.444939       -12.1074
  57   2.0000      -0.436937       -11.8897
  58   2.0000      -0.434269       -11.8171
  59   2.0000      -0.424731       -11.5575
  60   2.0000      -0.419820       -11.4239
  61   2.0000      -0.416158       -11.3242
  62   2.0000      -0.406306       -11.0561
  63   2.0000      -0.350077        -9.5261
  64   2.0000      -0.333974        -9.0879
  65   2.0000      -0.324899        -8.8410
  66   2.0000      -0.295031        -8.0282
  67   0.0000       0.024183         0.6580
  68   0.0000       0.078152         2.1266
  69   0.0000       0.107079         2.9138
  70   0.0000       0.116192         3.1617
  71   0.0000       0.132833         3.6146

MULLIKEN ATOMIC CHARGES
-----------------------
   0 S :    0.093793
   1 C :   -0.134968
   2 C :   -0.084072
   3 C :    0.042897
   4 C :   -0.127796
   5 H :   -0.027647
   6 C :    0.042132
   7 H :    0.034394
   8 H :    0.042515
   9 C :   -0.084153
  10 H :    0.031389
  11 H :    0.039572
  12 C :   -0.078567
  13 H :    0.040056
  14 H :    0.040816
  15 H :    0.038695
  16 S :    0.103104
  17 C :   -0.102153
  18 C :   -0.023589
  19 C :   -0.029959
  20 C :   -0.148600
  21 H :    0.020449
  22 C :    0.001680
  23 H :    0.019015
  24 H :    0.036572
  25 C :   -0.033899
  26 H :    0.052699
  27 H :    0.023266
  28 C :   -0.047178
  29 H :    0.025549
  30 H :    0.009891
  31 H :    0.045642
  32 H :    0.062594
  33 H :    0.075860
Sum of atomic charges:    0.0000000

LOEWDIN ATOMIC CHARGES
----------------------
   0 S :    0.384239
   1 C :   -0.197078
   2 C :   -0.059853
   3 C :   -0.055479
   4 C :   -0.179306
   5 H :    0.017080
   6 C :   -0.039969
   7 H :    0.038778
   8 H :    0.036383
   9 C :   -0.039153
  10 H :    0.021890
  11 H :    0.027320
  12 C :   -0.073109
  13 H :    0.027735
  14 H :    0.027530
  15 H :    0.029787
  16 S :    0.394011
  17 C :   -0.178496
  18 C :   -0.077695
  19 C :   -0.057021
  20 C :   -0.203474
  21 H :    0.032739
  22 C :   -0.038855
  23 H :    0.025641
  24 H :    0.038151
  25 C :   -0.034202
  26 H :    0.028897
  27 H :    0.019279
  28 C :   -0.066313
  29 H :    0.029887
  30 H :    0.011857
  31 H :    0.029702
  32 H :    0.033112
  33 H :    0.045983

  Mayer bond orders larger than 0.100000
B(  0-S ,  1-C ) :   1.1070 B(  0-S ,  4-C ) :   1.1520 B(  1-C ,  2-C ) :   1.6365
B(  1-C , 32-H ) :   0.9608 B(  2-C ,  3-C ) :   1.2159 B(  2-C ,  6-C ) :   1.0271
B(  3-C ,  4-C ) :   1.5678 B(  3-C ,  5-H ) :   1.0045 B(  4-C , 20-C ) :   1.0517
B(  6-C ,  7-H ) :   0.9300 B(  6-C ,  8-H ) :   0.9355 B(  6-C ,  9-C ) :   1.0951
B(  9-C , 10-H ) :   0.9529 B(  9-C , 11-H ) :   0.9477 B(  9-C , 12-C ) :   1.0842
B( 12-C , 13-H ) :   0.9759 B( 12-C , 14-H ) :   0.9745 B( 12-C , 15-H ) :   0.9746
B( 16-S , 17-C ) :   1.1365 B( 16-S , 20-C ) :   1.1389 B( 17-C , 18-C ) :   1.6067
B( 17-C , 20-C ) :   0.1006 B( 17-C , 33-H ) :   0.9620 B( 18-C , 19-C ) :   1.2654
B( 18-C , 21-H ) :   0.9859 B( 19-C , 20-C ) :   1.5786 B( 19-C , 22-C ) :   1.0490
B( 22-C , 23-H ) :   0.9329 B( 22-C , 24-H ) :   0.9440 B( 22-C , 25-C ) :   1.0496
B( 25-C , 26-H ) :   0.9548 B( 25-C , 27-H ) :   0.9554 B( 25-C , 28-C ) :   1.0699
B( 28-C , 29-H ) :   0.9725 B( 28-C , 30-H ) :   0.9772 B( 28-C , 31-H ) :   0.9753

Dispersion correction           -0.014140652
FINAL SINGLE POINT ENERGY     -1339.868169707099

DIPOLE MOMENT
-------------
                                X             Y             Z
Electronic contribution:    -18.40019     -21.35480      10.96583
Nuclear contribution   :     19.05661      21.79999     -11.12934
                        -----------------------------------------
Total Dipole Moment    :      0.65642       0.44519      -0.16351
                        -----------------------------------------
Magnitude (a.u.)       :      0.80983
Magnitude (Debye)      :      2.05841

Rotational constants in cm-1:     0.020206     0.007836     0.005867
Rotational constants in MHz :   605.747574   234.927438   175.902972

                             ****ORCA TERMINATED NORMALLY****
TOTAL RUN TIME: 0 days 0 hours 0 minutes 21 seconds 239 msec
