                         Program Version 4.2.1 -  RELEASE  -
|  1> ! wB97X-D3 SP def2-SVP
|  2> %pal
|  3> nprocs 24
|  4> end
|  5>
|  6> * xyz 0 1
|  7> S 	 -91.3703 	 -23.8677 	 -60.1684
|  8> C 	 -91.0793 	 -23.2174 	 -58.5814
|  9> C 	 -90.6568 	 -24.2286 	 -57.7613
| 10> C 	 -90.5264 	 -25.5248 	 -58.3811
| 11> C 	 -91.0703 	 -25.5183 	 -59.678
| 12> H 	 -90.2634 	 -26.4434 	 -57.9559
| 13> C 	 -90.3023 	 -23.9951 	 -56.3235
| 14> H 	 -89.3349 	 -23.5985 	 -56.2551
| 15> H 	 -90.1322 	 -24.9889 	 -55.8586
| 16> C 	 -91.1554 	 -23.0681 	 -55.464
| 17> H 	 -90.633 	 -22.8781 	 -54.5412
| 18> H 	 -91.2127 	 -22.1391 	 -56.0173
| 19> C 	 -92.589 	 -23.7192 	 -55.2756
| 20> H 	 -93.2138 	 -23.6101 	 -56.1155
| 21> H 	 -92.446 	 -24.7675 	 -55.0759
| 22> H 	 -93.1781 	 -23.3233 	 -54.4242
| 23> S 	 -90.973 	 -26.6331 	 -62.2001
| 24> C 	 -91.4869 	 -28.2711 	 -62.3759
| 25> C 	 -92.028 	 -28.8394 	 -61.2351
| 26> C 	 -91.9515 	 -27.8997 	 -60.1452
| 27> C 	 -91.3412 	 -26.6929 	 -60.5157
| 28> H 	 -92.4649 	 -29.8549 	 -61.2852
| 29> C 	 -92.5603 	 -28.1869 	 -58.7906
| 30> H 	 -93.2604 	 -27.5026 	 -58.3429
| 31> H 	 -91.7464 	 -28.045 	 -58.1062
| 32> C 	 -93.0215 	 -29.6276 	 -58.5089
| 33> H 	 -93.1295 	 -29.8346 	 -57.4106
| 34> H 	 -92.5144 	 -30.4757 	 -58.9958
| 35> C 	 -94.4893 	 -29.7168 	 -58.9303
| 36> H 	 -94.5585 	 -29.4895 	 -60.0277
| 37> H 	 -95.0897 	 -29.0655 	 -58.3686
| 38> H 	 -94.8669 	 -30.7483 	 -58.6879
| 39> H 	 -91.0108 	 -22.2181 	 -58.2614
| 40> H 	 -91.3322 	 -28.8687 	 -63.2677
| 41> *
| 42>
| 43>                          ****END OF INPUT****

CARTESIAN COORDINATES (ANGSTROEM)
---------------------------------
  S    -91.370300  -23.867700  -60.168400
  C    -91.079300  -23.217400  -58.581400
  C    -90.656800  -24.228600  -57.761300
  C    -90.526400  -25.524800  -58.381100
  C    -91.070300  -25.518300  -59.678000
  H    -90.263400  -26.443400  -57.955900
  C    -90.302300  -23.995100  -56.323500
  H    -89.334900  -23.598500  -56.255100
  H    -90.132200  -24.988900  -55.858600
  C    -91.155400  -23.068100  -55.464000
  H    -90.633000  -22.878100  -54.541200
  H    -91.212700  -22.139100  -56.017300
  C    -92.589000  -23.719200  -55.275600
  H    -93.213800  -23.610100  -56.115500
  H    -92.446000  -24.767500  -55.075900
  H    -93.178100  -23.323300  -54.424200
  S    -90.973000  -26.633100  -62.200100
  C    -91.486900  -28.271100  -62.375900
  C    -92.028000  -28.839400  -61.235100
  C    -91.951500  -27.899700  -60.145200
  C    -91.341200  -26.692900  -60.515700
  H    -92.464900  -29.854900  -61.285200
  C    -92.560300  -28.186900  -58.790600
  H    -93.260400  -27.502600  -58.342900
  H    -91.746400  -28.045000  -58.106200
  C    -93.021500  -29.627600  -58.508900
  H    -93.129500  -29.834600  -57.410600
  H    -92.514400  -30.475700  -58.995800
  C    -94.489300  -29.716800  -58.930300
  H    -94.558500  -29.489500  -60.027700
  H    -95.089700  -29.065500  -58.368600
  H    -94.866900  -30.748300  -58.687900
  H    -91.010800  -22.218100  -58.261400
  H    -91.332200  -28.868700  -63.267700

 Total Charge           Charge          ....    0
 Multiplicity           Mult            ....    1
 Number of Electrons    NEL             ....  134
 Basis Dimension        Dim             ....  322

ORBITAL ENERGIES
----------------

  NO   OCC          E(Eh)            E(eV)
   0   2.0000     -88.971321     -2421.0327
   1   2.0000     -88.965178     -2420.8656
   2   2.0000     -10.333082      -281.1775
   3   2.0000     -10.327573      -281.0276
   4   2.0000     -10.317865      -280.7634
   5   2.0000     -10.312188      -280.6089
   6   2.0000     -10.306359      -280.4503
   7   2.0000     -10.300646      -280.2948
   8   2.0000     -10.298810      -280.2449
   9   2.0000     -10.292472      -280.0724
  10   2.0000     -10.290857      -280.0285
  11   2.0000     -10.290009      -280.0054
  12   2.0000     -10.289452      -279.9902
  13   2.0000     -10.282974      -279.8140
  14   2.0000     -10.275177      -279.6018
  15   2.0000     -10.273838      -279.5653
  16   2.0000      -8.086791      -220.0528
  17   2.0000      -8.079909      -219.8655
  18   2.0000      -6.045118      -164.4960
  19   2.0000      -6.041281      -164.3916
  20   2.0000      -6.038551      -164.3173
  21   2.0000      -6.037623      -164.2921
  22   2.0000      -6.034323      -164.2023
  23   2.0000      -6.030638      -164.1020
  24   2.0000      -1.009773       -27.4773
  25   2.0000      -0.987662       -26.8757
  26   2.0000      -0.915127       -24.9019
  27   2.0000      -0.912368       -24.8268
  28   2.0000      -0.868846       -23.6425
  29   2.0000      -0.853965       -23.2376
  30   2.0000      -0.842107       -22.9149
  31   2.0000      -0.816023       -22.2051
  32   2.0000      -0.784854       -21.3570
  33   2.0000      -0.774022       -21.0622
  34   2.0000      -0.712147       -19.3785
  35   2.0000      -0.702741       -19.1225
  36   2.0000      -0.693089       -18.8599
  37   2.0000      -0.658282       -17.9128
  38   2.0000      -0.641868       -17.4661
  39   2.0000      -0.618935       -16.8421
  40   2.0000      -0.601396       -16.3648
  41   2.0000      -0.580940       -15.8082
  42   2.0000      -0.551021       -14.9940
  43   2.0000      -0.550408       -14.9774
  44   2.0000      -0.539812       -14.6890
  45   2.0000      -0.537320       -14.6212
  46   2.0000      -0.524387       -14.2693
  47   2.0000      -0.514736       -14.0067
  48   2.0000      -0.504789       -13.7360
  49   2.0000      -0.498069       -13.5531
  50   2.0000      -0.489193       -13.3116
  51   2.0000      -0.476972       -12.9791
  52   2.0000      -0.471123       -12.8199
  53   2.0000      -0.467360       -12.7175
  54   2.0000      -0.464352       -12.6357
  55   2.0000      -0.452415       -12.3108
  56   2.0000      -0.444079       -12.0840
  57   2.0000      -0.441180       -12.0051
  58   2.0000      -0.431015       -11.7285
  59   2.0000      -0.428651       -11.6642
  60   2.0000      -0.423620       -11.5273
  61   2.0000      -0.414723       -11.2852
  62   2.0000      -0.407422       -11.0865
  63   2.0000      -0.350993        -9.5510
  64   2.0000      -0.334255        -9.0955
  65   2.0000      -0.325180        -8.8486
  66   2.0000      -0.287702        -7.8288
  67   0.0000       0.025045         0.6815
  68   0.0000       0.073239         1.9929
  69   0.0000       0.107903         2.9362
  70   0.0000       0.120416         3.2767
  71   0.0000       0.134855         3.6696

MULLIKEN ATOMIC CHARGES
-----------------------
   0 S :    0.107788
   1 C :   -0.095162
   2 C :   -0.101944
   3 C :    0.045904
   4 C :   -0.146386
   5 H :   -0.005044
   6 C :    0.049414
   7 H :    0.020790
   8 H :    0.011735
   9 C :   -0.045309
  10 H :    0.029776
  11 H :    0.020060
  12 C :   -0.040739
  13 H :    0.033983
  14 H :    0.020984
  15 H :    0.032747
  16 S :    0.131404
  17 C :   -0.084745
  18 C :   -0.064480
  19 C :   -0.024106
  20 C :   -0.157716
  21 H :    0.040198
  22 C :    0.102745
  23 H :    0.033546
  24 H :    0.010508
  25 C :   -0.111060
  26 H :    0.034826
  27 H :    0.039884
  28 C :   -0.064271
  29 H :    0.038209
  30 H :    0.018880
  31 H :    0.031727
  32 H :    0.031493
  33 H :    0.054358
Sum of atomic charges:   -0.0000000

LOEWDIN ATOMIC CHARGES
----------------------
   0 S :    0.407260
   1 C :   -0.205533
   2 C :   -0.059066
   3 C :   -0.059724
   4 C :   -0.184185
   5 H :    0.019698
   6 C :   -0.039171
   7 H :    0.026945
   8 H :    0.028128
   9 C :   -0.028688
  10 H :    0.025382
  11 H :    0.019747
  12 C :   -0.062769
  13 H :    0.021318
  14 H :    0.021703
  15 H :    0.027214
  16 S :    0.433965
  17 C :   -0.189275
  18 C :   -0.078268
  19 C :   -0.043055
  20 C :   -0.215323
  21 H :    0.041898
  22 C :   -0.036732
  23 H :    0.037510
  24 H :    0.031185
  25 C :   -0.046452
  26 H :    0.032541
  27 H :    0.025573
  28 C :   -0.066677
  29 H :    0.025325
  30 H :    0.012114
  31 H :    0.025630
  32 H :    0.022869
  33 H :    0.028915

  Mayer bond orders larger than 0.100000
B(  0-S ,  1-C ) :   1.1186 B(  0-S ,  4-C ) :   1.1654 B(  1-C ,  2-C ) :   1.6139
B(  1-C , 32-H ) :   0.9760 B(  2-C ,  3-C ) :   1.2402 B(  2-C ,  6-C ) :   1.0177
B(  3-C ,  4-C ) :   1.5458 B(  3-C ,  5-H ) :   1.0012 B(  4-C , 20-C ) :   1.0561
B(  6-C ,  7-H ) :   0.9257 B(  6-C ,  8-H ) :   0.9414 B(  6-C ,  9-C ) :   1.0918
B(  9-C , 10-H ) :   0.9538 B(  9-C , 11-H ) :   0.9529 B(  9-C , 12-C ) :   1.0611
B( 12-C , 13-H ) :   0.9769 B( 12-C , 14-H ) :   0.9796 B( 12-C , 15-H ) :   0.9787
B( 16-S , 17-C ) :   1.1741 B( 16-S , 20-C ) :   1.1472 B( 17-C , 18-C ) :   1.6042
B( 17-C , 33-H ) :   0.9604 B( 18-C , 19-C ) :   1.2541 B( 18-C , 21-H ) :   0.9801
B( 19-C , 20-C ) :   1.5780 B( 19-C , 22-C ) :   1.0232 B( 22-C , 23-H ) :   0.9279
B( 22-C , 24-H ) :   0.9163 B( 22-C , 25-C ) :   1.0777 B( 25-C , 26-H ) :   0.9564
B( 25-C , 27-H ) :   0.9555 B( 25-C , 28-C ) :   1.0724 B( 28-C , 29-H ) :   0.9745
B( 28-C , 30-H ) :   0.9770 B( 28-C , 31-H ) :   0.9749

Dispersion correction           -0.014236971
FINAL SINGLE POINT ENERGY     -1339.866319287352

DIPOLE MOMENT
-------------
                                X             Y             Z
Electronic contribution:     10.44938       7.85877     -25.73066
Nuclear contribution   :    -10.45712      -8.21175      26.30501
                        -----------------------------------------
Total Dipole Moment    :     -0.00774      -0.35298       0.57435
                        -----------------------------------------
Magnitude (a.u.)       :      0.67419
Magnitude (Debye)      :      1.71365

Rotational constants in cm-1:     0.019133     0.008793     0.006505
Rotational constants in MHz :   573.603808   263.600496   195.000315

                             ****ORCA TERMINATED NORMALLY****
TOTAL RUN TIME: 0 days 0 hours 0 minutes 21 seconds 972 msec
