                         Program Version 4.2.1 -  RELEASE  -
|  1> ! wB97X-D3 SP def2-SVP
|  2> %pal
|  3> nprocs 24
|  4> end
|  5>
|  6> * xyz 0 1
|  7> S 	 18.4496 	 -8.11385 	 -118.856
|  8> C 	 19.4057 	 -7.88135 	 -117.427
|  9> C 	 18.544 	 -7.63287 	 -116.376
| 10> C 	 17.1997 	 -7.49004 	 -116.696
| 11> C 	 16.9157 	 -7.88557 	 -117.947
| 12> H 	 16.4529 	 -7.17317 	 -115.967
| 13> C 	 19.0488 	 -7.19699 	 -114.991
| 14> H 	 19.9931 	 -7.55923 	 -114.811
| 15> H 	 18.3799 	 -7.72658 	 -114.373
| 16> C 	 18.9693 	 -5.67665 	 -114.602
| 17> H 	 18.0079 	 -5.22368 	 -114.451
| 18> H 	 19.3635 	 -5.35267 	 -113.603
| 19> C 	 19.7487 	 -4.75712 	 -115.526
| 20> H 	 20.7827 	 -5.04612 	 -115.53
| 21> H 	 19.441 	 -4.80985 	 -116.608
| 22> H 	 19.8504 	 -3.78425 	 -115.114
| 23> S 	 15.6809 	 -6.54826 	 -120.063
| 24> C 	 13.9452 	 -6.64078 	 -120.169
| 25> C 	 13.3755 	 -7.34375 	 -119.145
| 26> C 	 14.3137 	 -7.90918 	 -118.223
| 27> C 	 15.6314 	 -7.67558 	 -118.654
| 28> H 	 12.3438 	 -7.26695 	 -119.008
| 29> C 	 13.9071 	 -8.58796 	 -116.881
| 30> H 	 14.7418 	 -9.2317 	 -116.666
| 31> H 	 13.0837 	 -9.24069 	 -116.975
| 32> C 	 13.5821 	 -7.54427 	 -115.832
| 33> H 	 12.6155 	 -7.11174 	 -116.035
| 34> H 	 14.3395 	 -6.79818 	 -115.917
| 35> C 	 13.6439 	 -8.0693 	 -114.414
| 36> H 	 14.6719 	 -8.23211 	 -114.229
| 37> H 	 13.1299 	 -9.01232 	 -114.407
| 38> H 	 13.2022 	 -7.36327 	 -113.744
| 39> H 	 20.4962 	 -7.78245 	 -117.427
| 40> H 	 13.2942 	 -6.19439 	 -120.841
| 41> *
| 42>
| 43>                          ****END OF INPUT****

CARTESIAN COORDINATES (ANGSTROEM)
---------------------------------
  S     18.449600   -8.113850  -118.856000
  C     19.405700   -7.881350  -117.427000
  C     18.544000   -7.632870  -116.376000
  C     17.199700   -7.490040  -116.696000
  C     16.915700   -7.885570  -117.947000
  H     16.452900   -7.173170  -115.967000
  C     19.048800   -7.196990  -114.991000
  H     19.993100   -7.559230  -114.811000
  H     18.379900   -7.726580  -114.373000
  C     18.969300   -5.676650  -114.602000
  H     18.007900   -5.223680  -114.451000
  H     19.363500   -5.352670  -113.603000
  C     19.748700   -4.757120  -115.526000
  H     20.782700   -5.046120  -115.530000
  H     19.441000   -4.809850  -116.608000
  H     19.850400   -3.784250  -115.114000
  S     15.680900   -6.548260  -120.063000
  C     13.945200   -6.640780  -120.169000
  C     13.375500   -7.343750  -119.145000
  C     14.313700   -7.909180  -118.223000
  C     15.631400   -7.675580  -118.654000
  H     12.343800   -7.266950  -119.008000
  C     13.907100   -8.587960  -116.881000
  H     14.741800   -9.231700  -116.666000
  H     13.083700   -9.240690  -116.975000
  C     13.582100   -7.544270  -115.832000
  H     12.615500   -7.111740  -116.035000
  H     14.339500   -6.798180  -115.917000
  C     13.643900   -8.069300  -114.414000
  H     14.671900   -8.232110  -114.229000
  H     13.129900   -9.012320  -114.407000
  H     13.202200   -7.363270  -113.744000
  H     20.496200   -7.782450  -117.427000
  H     13.294200   -6.194390  -120.841000

 Total Charge           Charge          ....    0
 Multiplicity           Mult            ....    1
 Number of Electrons    NEL             ....  134
 Basis Dimension        Dim             ....  322

ORBITAL ENERGIES
----------------

  NO   OCC          E(Eh)            E(eV)
   0   2.0000     -88.967893     -2420.9394
   1   2.0000     -88.965029     -2420.8615
   2   2.0000     -10.332384      -281.1585
   3   2.0000     -10.331295      -281.1288
   4   2.0000     -10.317500      -280.7535
   5   2.0000     -10.310020      -280.5499
   6   2.0000     -10.308350      -280.5045
   7   2.0000     -10.297893      -280.2199
   8   2.0000     -10.291455      -280.0447
   9   2.0000     -10.289609      -279.9945
  10   2.0000     -10.289106      -279.9808
  11   2.0000     -10.286577      -279.9120
  12   2.0000     -10.286232      -279.9026
  13   2.0000     -10.280771      -279.7540
  14   2.0000     -10.272098      -279.5180
  15   2.0000     -10.269960      -279.4598
  16   2.0000      -8.081703      -219.9143
  17   2.0000      -8.079478      -219.8538
  18   2.0000      -6.040293      -164.3647
  19   2.0000      -6.038032      -164.3032
  20   2.0000      -6.036475      -164.2608
  21   2.0000      -6.034039      -164.1946
  22   2.0000      -6.032287      -164.1469
  23   2.0000      -6.030177      -164.0895
  24   2.0000      -1.007659       -27.4198
  25   2.0000      -0.983635       -26.7661
  26   2.0000      -0.918209       -24.9857
  27   2.0000      -0.906746       -24.6738
  28   2.0000      -0.870204       -23.6794
  29   2.0000      -0.855273       -23.2732
  30   2.0000      -0.849909       -23.1272
  31   2.0000      -0.820285       -22.3211
  32   2.0000      -0.787236       -21.4218
  33   2.0000      -0.773281       -21.0420
  34   2.0000      -0.708659       -19.2836
  35   2.0000      -0.701095       -19.0778
  36   2.0000      -0.697890       -18.9906
  37   2.0000      -0.661554       -18.0018
  38   2.0000      -0.643550       -17.5119
  39   2.0000      -0.629061       -17.1176
  40   2.0000      -0.596659       -16.2359
  41   2.0000      -0.580364       -15.7925
  42   2.0000      -0.561025       -15.2663
  43   2.0000      -0.556143       -15.1334
  44   2.0000      -0.540480       -14.7072
  45   2.0000      -0.534749       -14.5513
  46   2.0000      -0.520550       -14.1649
  47   2.0000      -0.514856       -14.0100
  48   2.0000      -0.506336       -13.7781
  49   2.0000      -0.503381       -13.6977
  50   2.0000      -0.485730       -13.2174
  51   2.0000      -0.485407       -13.2086
  52   2.0000      -0.471276       -12.8241
  53   2.0000      -0.464961       -12.6522
  54   2.0000      -0.462314       -12.5802
  55   2.0000      -0.451511       -12.2862
  56   2.0000      -0.445144       -12.1130
  57   2.0000      -0.440871       -11.9967
  58   2.0000      -0.434355       -11.8194
  59   2.0000      -0.426551       -11.6070
  60   2.0000      -0.421820       -11.4783
  61   2.0000      -0.419402       -11.4125
  62   2.0000      -0.402178       -10.9438
  63   2.0000      -0.353272        -9.6130
  64   2.0000      -0.332671        -9.0525
  65   2.0000      -0.329284        -8.9603
  66   2.0000      -0.292978        -7.9723
  67   0.0000       0.025587         0.6963
  68   0.0000       0.068530         1.8648
  69   0.0000       0.105440         2.8692
  70   0.0000       0.119330         3.2471
  71   0.0000       0.128801         3.5049

MULLIKEN ATOMIC CHARGES
-----------------------
   0 S :    0.088053
   1 C :   -0.124395
   2 C :   -0.114127
   3 C :    0.025154
   4 C :   -0.128021
   5 H :    0.007845
   6 C :    0.155056
   7 H :   -0.001454
   8 H :    0.011168
   9 C :   -0.072808
  10 H :    0.014245
  11 H :    0.019836
  12 C :   -0.054402
  13 H :    0.004246
  14 H :    0.053263
  15 H :    0.020717
  16 S :    0.108291
  17 C :   -0.049244
  18 C :   -0.023065
  19 C :   -0.066175
  20 C :   -0.140668
  21 H :   -0.003406
  22 C :    0.095821
  23 H :    0.022663
  24 H :    0.013041
  25 C :   -0.084133
  26 H :    0.023408
  27 H :    0.023342
  28 C :    0.009065
  29 H :    0.018410
  30 H :    0.022938
  31 H :    0.036356
  32 H :    0.063824
  33 H :    0.025157
Sum of atomic charges:    0.0000000

LOEWDIN ATOMIC CHARGES
----------------------
   0 S :    0.388999
   1 C :   -0.197094
   2 C :   -0.069595
   3 C :   -0.059400
   4 C :   -0.176873
   5 H :    0.035940
   6 C :   -0.015037
   7 H :    0.018063
   8 H :    0.026474
   9 C :   -0.048208
  10 H :    0.018304
  11 H :    0.032395
  12 C :   -0.072037
  13 H :    0.017530
  14 H :    0.031377
  15 H :    0.022157
  16 S :    0.390097
  17 C :   -0.174091
  18 C :   -0.067964
  19 C :   -0.043237
  20 C :   -0.182833
  21 H :    0.021566
  22 C :   -0.022566
  23 H :    0.028808
  24 H :    0.023457
  25 C :   -0.035142
  26 H :    0.021559
  27 H :    0.014615
  28 C :   -0.049574
  29 H :    0.019105
  30 H :    0.023235
  31 H :    0.025764
  32 H :    0.036161
  33 H :    0.018046

  Mayer bond orders larger than 0.100000
B(  0-S ,  1-C ) :   1.1424 B(  0-S ,  4-C ) :   1.1434 B(  1-C ,  2-C ) :   1.5853
B(  1-C , 32-H ) :   0.9703 B(  2-C ,  3-C ) :   1.2676 B(  2-C ,  6-C ) :   1.0268
B(  3-C ,  4-C ) :   1.5597 B(  3-C ,  5-H ) :   0.9859 B(  4-C , 20-C ) :   1.0273
B(  6-C ,  7-H ) :   0.9444 B(  6-C ,  8-H ) :   0.9316 B(  6-C ,  9-C ) :   1.0542
B(  9-C , 10-H ) :   0.9567 B(  9-C , 11-H ) :   0.9540 B(  9-C , 12-C ) :   1.0832
B( 12-C , 13-H ) :   0.9716 B( 12-C , 14-H ) :   0.9739 B( 12-C , 15-H ) :   0.9710
B( 16-S , 17-C ) :   1.1419 B( 16-S , 20-C ) :   1.1306 B( 17-C , 18-C ) :   1.6446
B( 17-C , 33-H ) :   0.9677 B( 18-C , 19-C ) :   1.2309 B( 18-C , 21-H ) :   0.9940
B( 19-C , 20-C ) :   1.6144 B( 19-C , 22-C ) :   1.0412 B( 22-C , 23-H ) :   0.9364
B( 22-C , 24-H ) :   0.9301 B( 22-C , 25-C ) :   1.0583 B( 25-C , 26-H ) :   0.9491
B( 25-C , 27-H ) :   0.9571 B( 25-C , 28-C ) :   1.0869 B( 28-C , 29-H ) :   0.9766
B( 28-C , 30-H ) :   0.9700 B( 28-C , 31-H ) :   0.9726

Dispersion correction           -0.015180219
FINAL SINGLE POINT ENERGY     -1339.854852273030

DIPOLE MOMENT
-------------
                                X             Y             Z
Electronic contribution:      2.38858      -5.55743     -26.77824
Nuclear contribution   :     -2.67903       5.85909      27.50375
                        -----------------------------------------
Total Dipole Moment    :     -0.29045       0.30166       0.72551
                        -----------------------------------------
Magnitude (a.u.)       :      0.83769
Magnitude (Debye)      :      2.12923

Rotational constants in cm-1:     0.016977     0.010036     0.007527
Rotational constants in MHz :   508.970259   300.880105   225.639893

                             ****ORCA TERMINATED NORMALLY****
TOTAL RUN TIME: 0 days 0 hours 0 minutes 22 seconds 553 msec
