                         Program Version 4.2.1 -  RELEASE  -
|  1> ! wB97X-D3 SP def2-SVP
|  2> %pal
|  3> nprocs 24
|  4> end
|  5>
|  6> * xyz 0 1
|  7> S 	 -71.3479 	 11.0771 	 -74.5919
|  8> C 	 -70.8833 	 12.3873 	 -75.7135
|  9> C 	 -69.9183 	 13.2235 	 -75.0969
| 10> C 	 -69.5039 	 12.7583 	 -73.7859
| 11> C 	 -70.2807 	 11.7157 	 -73.332
| 12> H 	 -68.7757 	 13.1304 	 -73.1717
| 13> C 	 -69.1762 	 14.33 	 -75.8214
| 14> H 	 -69.818 	 14.6587 	 -76.6234
| 15> H 	 -68.3694 	 13.8431 	 -76.35
| 16> C 	 -68.8061 	 15.6205 	 -75.044
| 17> H 	 -67.9912 	 15.3722 	 -74.3262
| 18> H 	 -68.2698 	 16.3194 	 -75.7271
| 19> C 	 -70.0061 	 16.4284 	 -74.3253
| 20> H 	 -69.6351 	 17.4106 	 -74.0746
| 21> H 	 -70.7126 	 16.5216 	 -75.0885
| 22> H 	 -70.416 	 15.9237 	 -73.4588
| 23> S 	 -69.8305 	 9.49964 	 -71.9552
| 24> C 	 -70.1846 	 9.46732 	 -70.2133
| 25> C 	 -70.5854 	 10.6847 	 -69.7553
| 26> C 	 -70.6145 	 11.6431 	 -70.7662
| 27> C 	 -70.2921 	 11.1281 	 -72.0104
| 28> H 	 -70.7574 	 10.8254 	 -68.7401
| 29> C 	 -71.0195 	 13.0736 	 -70.4428
| 30> H 	 -71.9644 	 12.8816 	 -69.9534
| 31> H 	 -71.2486 	 13.5899 	 -71.4074
| 32> C 	 -70.1104 	 14.0318 	 -69.6076
| 33> H 	 -69.0929 	 14.0753 	 -70.0045
| 34> H 	 -69.9849 	 13.6012 	 -68.5679
| 35> C 	 -70.6274 	 15.4313 	 -69.6591
| 36> H 	 -70.4084 	 15.9658 	 -70.5757
| 37> H 	 -70.0138 	 16.0185 	 -68.9816
| 38> H 	 -71.7133 	 15.661 	 -69.478
| 39> H 	 -71.2656 	 12.5939 	 -76.6953
| 40> H 	 -69.9838 	 8.59036 	 -69.6349
| 41> *
| 42>
| 43>                          ****END OF INPUT****

CARTESIAN COORDINATES (ANGSTROEM)
---------------------------------
  S    -71.347900   11.077100  -74.591900
  C    -70.883300   12.387300  -75.713500
  C    -69.918300   13.223500  -75.096900
  C    -69.503900   12.758300  -73.785900
  C    -70.280700   11.715700  -73.332000
  H    -68.775700   13.130400  -73.171700
  C    -69.176200   14.330000  -75.821400
  H    -69.818000   14.658700  -76.623400
  H    -68.369400   13.843100  -76.350000
  C    -68.806100   15.620500  -75.044000
  H    -67.991200   15.372200  -74.326200
  H    -68.269800   16.319400  -75.727100
  C    -70.006100   16.428400  -74.325300
  H    -69.635100   17.410600  -74.074600
  H    -70.712600   16.521600  -75.088500
  H    -70.416000   15.923700  -73.458800
  S    -69.830500    9.499640  -71.955200
  C    -70.184600    9.467320  -70.213300
  C    -70.585400   10.684700  -69.755300
  C    -70.614500   11.643100  -70.766200
  C    -70.292100   11.128100  -72.010400
  H    -70.757400   10.825400  -68.740100
  C    -71.019500   13.073600  -70.442800
  H    -71.964400   12.881600  -69.953400
  H    -71.248600   13.589900  -71.407400
  C    -70.110400   14.031800  -69.607600
  H    -69.092900   14.075300  -70.004500
  H    -69.984900   13.601200  -68.567900
  C    -70.627400   15.431300  -69.659100
  H    -70.408400   15.965800  -70.575700
  H    -70.013800   16.018500  -68.981600
  H    -71.713300   15.661000  -69.478000
  H    -71.265600   12.593900  -76.695300
  H    -69.983800    8.590360  -69.634900

 Total Charge           Charge          ....    0
 Multiplicity           Mult            ....    1
 Number of Electrons    NEL             ....  134
 Basis Dimension        Dim             ....  322

ORBITAL ENERGIES
----------------

  NO   OCC          E(Eh)            E(eV)
   0   2.0000     -88.965631     -2420.8779
   1   2.0000     -88.963343     -2420.8156
   2   2.0000     -10.326964      -281.0110
   3   2.0000     -10.317422      -280.7513
   4   2.0000     -10.317047      -280.7411
   5   2.0000     -10.313592      -280.6471
   6   2.0000     -10.305855      -280.4366
   7   2.0000     -10.298351      -280.2324
   8   2.0000     -10.297799      -280.2174
   9   2.0000     -10.294815      -280.1361
  10   2.0000     -10.290970      -280.0315
  11   2.0000     -10.290259      -280.0122
  12   2.0000     -10.288448      -279.9629
  13   2.0000     -10.285065      -279.8709
  14   2.0000     -10.279579      -279.7216
  15   2.0000     -10.279358      -279.7155
  16   2.0000      -8.079252      -219.8476
  17   2.0000      -8.078998      -219.8407
  18   2.0000      -6.037888      -164.2993
  19   2.0000      -6.037286      -164.2829
  20   2.0000      -6.033919      -164.1913
  21   2.0000      -6.033442      -164.1783
  22   2.0000      -6.029938      -164.0829
  23   2.0000      -6.029867      -164.0810
  24   2.0000      -1.010421       -27.4949
  25   2.0000      -0.977851       -26.6087
  26   2.0000      -0.907947       -24.7065
  27   2.0000      -0.902625       -24.5617
  28   2.0000      -0.870578       -23.6896
  29   2.0000      -0.855700       -23.2848
  30   2.0000      -0.839917       -22.8553
  31   2.0000      -0.818656       -22.2767
  32   2.0000      -0.782742       -21.2995
  33   2.0000      -0.769595       -20.9418
  34   2.0000      -0.710221       -19.3261
  35   2.0000      -0.699452       -19.0331
  36   2.0000      -0.692492       -18.8437
  37   2.0000      -0.668506       -18.1910
  38   2.0000      -0.642526       -17.4840
  39   2.0000      -0.620101       -16.8738
  40   2.0000      -0.596456       -16.2304
  41   2.0000      -0.565956       -15.4004
  42   2.0000      -0.555375       -15.1125
  43   2.0000      -0.553399       -15.0588
  44   2.0000      -0.537633       -14.6297
  45   2.0000      -0.526664       -14.3313
  46   2.0000      -0.518838       -14.1183
  47   2.0000      -0.512266       -13.9395
  48   2.0000      -0.505179       -13.7466
  49   2.0000      -0.496336       -13.5060
  50   2.0000      -0.493158       -13.4195
  51   2.0000      -0.485930       -13.2228
  52   2.0000      -0.472652       -12.8615
  53   2.0000      -0.464533       -12.6406
  54   2.0000      -0.455428       -12.3928
  55   2.0000      -0.447165       -12.1680
  56   2.0000      -0.444834       -12.1045
  57   2.0000      -0.437700       -11.9104
  58   2.0000      -0.435565       -11.8523
  59   2.0000      -0.428833       -11.6691
  60   2.0000      -0.416712       -11.3393
  61   2.0000      -0.413917       -11.2632
  62   2.0000      -0.409160       -11.1338
  63   2.0000      -0.344707        -9.3799
  64   2.0000      -0.328261        -8.9324
  65   2.0000      -0.325275        -8.8512
  66   2.0000      -0.294471        -8.0130
  67   0.0000       0.036589         0.9956
  68   0.0000       0.063903         1.7389
  69   0.0000       0.113834         3.0976
  70   0.0000       0.120976         3.2919
  71   0.0000       0.127626         3.4729

MULLIKEN ATOMIC CHARGES
-----------------------
   0 S :    0.111231
   1 C :   -0.110079
   2 C :   -0.105061
   3 C :    0.083830
   4 C :   -0.161006
   5 H :   -0.024070
   6 C :    0.068738
   7 H :    0.007453
   8 H :    0.047937
   9 C :   -0.123167
  10 H :    0.029344
  11 H :    0.033263
  12 C :   -0.023690
  13 H :    0.033981
  14 H :    0.021252
  15 H :    0.052474
  16 S :    0.110467
  17 C :   -0.091105
  18 C :   -0.006364
  19 C :    0.001058
  20 C :   -0.190364
  21 H :   -0.004901
  22 C :    0.035052
  23 H :    0.029678
  24 H :    0.031091
  25 C :   -0.045526
  26 H :    0.028344
  27 H :    0.034471
  28 C :   -0.057203
  29 H :    0.024197
  30 H :    0.023370
  31 H :    0.043310
  32 H :    0.043302
  33 H :    0.048692
Sum of atomic charges:    0.0000000

LOEWDIN ATOMIC CHARGES
----------------------
   0 S :    0.385053
   1 C :   -0.194681
   2 C :   -0.055498
   3 C :   -0.052185
   4 C :   -0.183816
   5 H :    0.017099
   6 C :   -0.040059
   7 H :    0.025743
   8 H :    0.038677
   9 C :   -0.045670
  10 H :    0.019285
  11 H :    0.028545
  12 C :   -0.052271
  13 H :    0.027262
  14 H :    0.018212
  15 H :    0.026053
  16 S :    0.422178
  17 C :   -0.166203
  18 C :   -0.062198
  19 C :   -0.058316
  20 C :   -0.223996
  21 H :    0.024821
  22 C :   -0.036528
  23 H :    0.032588
  24 H :    0.033276
  25 C :   -0.041903
  26 H :    0.028496
  27 H :    0.027438
  28 C :   -0.075543
  29 H :    0.025808
  30 H :    0.028380
  31 H :    0.031676
  32 H :    0.026422
  33 H :    0.021854

  Mayer bond orders larger than 0.100000
B(  0-S ,  1-C ) :   1.1205 B(  0-S ,  4-C ) :   1.1443 B(  1-C ,  2-C ) :   1.6212
B(  1-C , 32-H ) :   0.9704 B(  2-C ,  3-C ) :   1.1984 B(  2-C ,  6-C ) :   1.0259
B(  3-C ,  4-C ) :   1.5988 B(  3-C ,  5-H ) :   1.0091 B(  4-C , 20-C ) :   1.0105
B(  6-C ,  7-H ) :   0.9353 B(  6-C ,  8-H ) :   0.9399 B(  6-C ,  9-C ) :   1.0685
B(  9-C , 10-H ) :   0.9559 B(  9-C , 11-H ) :   0.9580 B(  9-C , 12-C ) :   1.0578
B( 12-C , 13-H ) :   0.9769 B( 12-C , 14-H ) :   0.9776 B( 12-C , 15-H ) :   0.9758
B( 16-S , 17-C ) :   1.1526 B( 16-S , 20-C ) :   1.1724 B( 17-C , 18-C ) :   1.5934
B( 17-C , 20-C ) :   0.1030 B( 17-C , 33-H ) :   0.9726 B( 18-C , 19-C ) :   1.2473
B( 18-C , 21-H ) :   1.0070 B( 19-C , 20-C ) :   1.5842 B( 19-C , 22-C ) :   1.0307
B( 22-C , 23-H ) :   0.9316 B( 22-C , 24-H ) :   0.9388 B( 22-C , 25-C ) :   1.0615
B( 25-C , 26-H ) :   0.9490 B( 25-C , 27-H ) :   0.9531 B( 25-C , 28-C ) :   1.0900
B( 28-C , 29-H ) :   0.9699 B( 28-C , 30-H ) :   0.9665 B( 28-C , 31-H ) :   0.9742

Dispersion correction           -0.014802658
FINAL SINGLE POINT ENERGY     -1339.871843796230

DIPOLE MOMENT
-------------
                                X             Y             Z
Electronic contribution:     -3.57329     -31.25682      -5.48592
Nuclear contribution   :      3.82796      31.90841       5.70474
                        -----------------------------------------
Total Dipole Moment    :      0.25468       0.65159       0.21883
                        -----------------------------------------
Magnitude (a.u.)       :      0.73302
Magnitude (Debye)      :      1.86319

Rotational constants in cm-1:     0.016164     0.010612     0.007044
Rotational constants in MHz :   484.583636   318.146378   211.161266

                             ****ORCA TERMINATED NORMALLY****
TOTAL RUN TIME: 0 days 0 hours 0 minutes 21 seconds 86 msec
