                         Program Version 4.2.1 -  RELEASE  -
|  1> ! wB97X-D3 SP def2-SVP
|  2> %pal
|  3> nprocs 24
|  4> end
|  5>
|  6> * xyz 0 1
|  7> S 	 -64.9008 	 16.9726 	 -103.525
|  8> C 	 -66.3338 	 16.0511 	 -104.043
|  9> C 	 -66.2345 	 15.5776 	 -105.315
| 10> C 	 -64.9937 	 15.8872 	 -105.911
| 11> C 	 -64.1884 	 16.6508 	 -105.108
| 12> H 	 -64.6574 	 15.5687 	 -106.93
| 13> C 	 -67.4492 	 15.0224 	 -106.096
| 14> H 	 -67.2807 	 15.098 	 -107.108
| 15> H 	 -68.312 	 15.6577 	 -105.898
| 16> C 	 -67.766 	 13.5353 	 -105.932
| 17> H 	 -67.1289 	 12.8895 	 -106.446
| 18> H 	 -67.637 	 13.1498 	 -104.997
| 19> C 	 -69.195 	 13.1805 	 -106.262
| 20> H 	 -69.9443 	 13.8535 	 -105.802
| 21> H 	 -69.2379 	 13.0437 	 -107.308
| 22> H 	 -69.4343 	 12.2207 	 -105.835
| 23> S 	 -61.4745 	 16.5066 	 -104.514
| 24> C 	 -60.3724 	 17.1278 	 -105.677
| 25> C 	 -61.0093 	 17.6455 	 -106.739
| 26> C 	 -62.4038 	 17.4893 	 -106.707
| 27> C 	 -62.8555 	 17.0186 	 -105.514
| 28> H 	 -60.5218 	 18.1994 	 -107.503
| 29> C 	 -63.2312 	 17.8172 	 -107.926
| 30> H 	 -63.2336 	 18.9664 	 -107.987
| 31> H 	 -64.3284 	 17.6509 	 -107.762
| 32> C 	 -62.861 	 17.2955 	 -109.327
| 33> H 	 -62.0067 	 17.7924 	 -109.773
| 34> H 	 -63.6781 	 17.5404 	 -110.008
| 35> C 	 -62.536 	 15.8179 	 -109.344
| 36> H 	 -63.2173 	 15.1873 	 -108.802
| 37> H 	 -61.5373 	 15.7062 	 -108.795
| 38> H 	 -62.3874 	 15.3659 	 -110.323
| 39> H 	 -67.267 	 15.987 	 -103.564
| 40> H 	 -59.4244 	 17.4534 	 -105.414
| 41> *
| 42>
| 43>                          ****END OF INPUT****

CARTESIAN COORDINATES (ANGSTROEM)
---------------------------------
  S    -64.900800   16.972600  -103.525000
  C    -66.333800   16.051100  -104.043000
  C    -66.234500   15.577600  -105.315000
  C    -64.993700   15.887200  -105.911000
  C    -64.188400   16.650800  -105.108000
  H    -64.657400   15.568700  -106.930000
  C    -67.449200   15.022400  -106.096000
  H    -67.280700   15.098000  -107.108000
  H    -68.312000   15.657700  -105.898000
  C    -67.766000   13.535300  -105.932000
  H    -67.128900   12.889500  -106.446000
  H    -67.637000   13.149800  -104.997000
  C    -69.195000   13.180500  -106.262000
  H    -69.944300   13.853500  -105.802000
  H    -69.237900   13.043700  -107.308000
  H    -69.434300   12.220700  -105.835000
  S    -61.474500   16.506600  -104.514000
  C    -60.372400   17.127800  -105.677000
  C    -61.009300   17.645500  -106.739000
  C    -62.403800   17.489300  -106.707000
  C    -62.855500   17.018600  -105.514000
  H    -60.521800   18.199400  -107.503000
  C    -63.231200   17.817200  -107.926000
  H    -63.233600   18.966400  -107.987000
  H    -64.328400   17.650900  -107.762000
  C    -62.861000   17.295500  -109.327000
  H    -62.006700   17.792400  -109.773000
  H    -63.678100   17.540400  -110.008000
  C    -62.536000   15.817900  -109.344000
  H    -63.217300   15.187300  -108.802000
  H    -61.537300   15.706200  -108.795000
  H    -62.387400   15.365900  -110.323000
  H    -67.267000   15.987000  -103.564000
  H    -59.424400   17.453400  -105.414000

 Total Charge           Charge          ....    0
 Multiplicity           Mult            ....    1
 Number of Electrons    NEL             ....  134
 Basis Dimension        Dim             ....  322

ORBITAL ENERGIES
----------------

  NO   OCC          E(Eh)            E(eV)
   0   2.0000     -88.971961     -2421.0502
   1   2.0000     -88.959586     -2420.7134
   2   2.0000     -10.326283      -280.9925
   3   2.0000     -10.322224      -280.8820
   4   2.0000     -10.310131      -280.5529
   5   2.0000     -10.303499      -280.3725
   6   2.0000     -10.298690      -280.2416
   7   2.0000     -10.297808      -280.2176
   8   2.0000     -10.296562      -280.1837
   9   2.0000     -10.294589      -280.1300
  10   2.0000     -10.289274      -279.9854
  11   2.0000     -10.288512      -279.9647
  12   2.0000     -10.283789      -279.8361
  13   2.0000     -10.278077      -279.6807
  14   2.0000     -10.272070      -279.5172
  15   2.0000     -10.268628      -279.4236
  16   2.0000      -8.085625      -220.0210
  17   2.0000      -8.074968      -219.7310
  18   2.0000      -6.044231      -164.4719
  19   2.0000      -6.040419      -164.3682
  20   2.0000      -6.036220      -164.2539
  21   2.0000      -6.033594      -164.1824
  22   2.0000      -6.029432      -164.0692
  23   2.0000      -6.025518      -163.9627
  24   2.0000      -1.011420       -27.5221
  25   2.0000      -0.988298       -26.8930
  26   2.0000      -0.916436       -24.9375
  27   2.0000      -0.909561       -24.7504
  28   2.0000      -0.877089       -23.8668
  29   2.0000      -0.855743       -23.2860
  30   2.0000      -0.847873       -23.0718
  31   2.0000      -0.815875       -22.2011
  32   2.0000      -0.786124       -21.3915
  33   2.0000      -0.776849       -21.1391
  34   2.0000      -0.711920       -19.3723
  35   2.0000      -0.708600       -19.2820
  36   2.0000      -0.698023       -18.9942
  37   2.0000      -0.663283       -18.0488
  38   2.0000      -0.640282       -17.4229
  39   2.0000      -0.619138       -16.8476
  40   2.0000      -0.599509       -16.3135
  41   2.0000      -0.579644       -15.7729
  42   2.0000      -0.562857       -15.3161
  43   2.0000      -0.552823       -15.0431
  44   2.0000      -0.542718       -14.7681
  45   2.0000      -0.527030       -14.3412
  46   2.0000      -0.518839       -14.1183
  47   2.0000      -0.514411       -13.9978
  48   2.0000      -0.506564       -13.7843
  49   2.0000      -0.500290       -13.6136
  50   2.0000      -0.492689       -13.4067
  51   2.0000      -0.480761       -13.0822
  52   2.0000      -0.472601       -12.8601
  53   2.0000      -0.465709       -12.6726
  54   2.0000      -0.461708       -12.5637
  55   2.0000      -0.448105       -12.1936
  56   2.0000      -0.443840       -12.0775
  57   2.0000      -0.441152       -12.0043
  58   2.0000      -0.435131       -11.8405
  59   2.0000      -0.426534       -11.6066
  60   2.0000      -0.420752       -11.4492
  61   2.0000      -0.414292       -11.2735
  62   2.0000      -0.410590       -11.1727
  63   2.0000      -0.347938        -9.4679
  64   2.0000      -0.334791        -9.1101
  65   2.0000      -0.328196        -8.9307
  66   2.0000      -0.294750        -8.0206
  67   0.0000       0.029216         0.7950
  68   0.0000       0.072437         1.9711
  69   0.0000       0.106064         2.8861
  70   0.0000       0.116562         3.1718
  71   0.0000       0.131237         3.5711

MULLIKEN ATOMIC CHARGES
-----------------------
   0 S :    0.120596
   1 C :   -0.094379
   2 C :   -0.067302
   3 C :    0.007840
   4 C :   -0.157381
   5 H :    0.022994
   6 C :    0.094502
   7 H :   -0.003529
   8 H :    0.030284
   9 C :   -0.015203
  10 H :    0.002536
  11 H :   -0.007486
  12 C :   -0.044349
  13 H :    0.035772
  14 H :    0.024226
  15 H :    0.017481
  16 S :    0.090217
  17 C :   -0.041426
  18 C :   -0.036315
  19 C :   -0.025437
  20 C :   -0.143935
  21 H :    0.005631
  22 C :   -0.009110
  23 H :    0.044823
  24 H :    0.035876
  25 C :   -0.036295
  26 H :    0.023482
  27 H :    0.030620
  28 C :   -0.069145
  29 H :    0.024116
  30 H :    0.042468
  31 H :    0.035750
  32 H :    0.023372
  33 H :    0.038703
Sum of atomic charges:   -0.0000000

LOEWDIN ATOMIC CHARGES
----------------------
   0 S :    0.391018
   1 C :   -0.177317
   2 C :   -0.060435
   3 C :   -0.058317
   4 C :   -0.190689
   5 H :    0.037678
   6 C :   -0.017212
   7 H :    0.020413
   8 H :    0.033245
   9 C :   -0.036339
  10 H :    0.019254
  11 H :    0.010433
  12 C :   -0.057063
  13 H :    0.028104
  14 H :    0.018522
  15 H :    0.025013
  16 S :    0.396225
  17 C :   -0.183531
  18 C :   -0.063339
  19 C :   -0.063980
  20 C :   -0.182917
  21 H :    0.027445
  22 C :   -0.045291
  23 H :    0.044126
  24 H :    0.034538
  25 C :   -0.043471
  26 H :    0.022290
  27 H :    0.027595
  28 C :   -0.072416
  29 H :    0.016399
  30 H :    0.037459
  31 H :    0.025517
  32 H :    0.019429
  33 H :    0.017617

  Mayer bond orders larger than 0.100000
B(  0-S ,  1-C ) :   1.1186 B(  0-S ,  4-C ) :   1.1364 B(  1-C ,  2-C ) :   1.6459
B(  1-C , 32-H ) :   0.9662 B(  2-C ,  3-C ) :   1.2425 B(  2-C ,  6-C ) :   1.0106
B(  3-C ,  4-C ) :   1.5819 B(  3-C ,  5-H ) :   0.9814 B(  4-C , 20-C ) :   1.0385
B(  6-C ,  7-H ) :   0.9380 B(  6-C ,  8-H ) :   0.9540 B(  6-C ,  9-C ) :   1.0472
B(  9-C , 10-H ) :   0.9460 B(  9-C , 11-H ) :   0.9591 B(  9-C , 12-C ) :   1.0925
B( 12-C , 13-H ) :   0.9754 B( 12-C , 14-H ) :   0.9787 B( 12-C , 15-H ) :   0.9724
B( 16-S , 17-C ) :   1.1492 B( 16-S , 20-C ) :   1.1284 B( 17-C , 18-C ) :   1.6222
B( 17-C , 33-H ) :   0.9618 B( 18-C , 19-C ) :   1.2353 B( 18-C , 21-H ) :   0.9949
B( 19-C , 20-C ) :   1.6278 B( 19-C , 22-C ) :   1.0380 B( 22-C , 23-H ) :   0.9298
B( 22-C , 24-H ) :   0.9373 B( 22-C , 25-C ) :   1.0747 B( 25-C , 26-H ) :   0.9486
B( 25-C , 27-H ) :   0.9532 B( 25-C , 28-C ) :   1.0821 B( 28-C , 29-H ) :   0.9758
B( 28-C , 30-H ) :   0.9649 B( 28-C , 31-H ) :   0.9723

Dispersion correction           -0.014551346
FINAL SINGLE POINT ENERGY     -1339.858683642991

DIPOLE MOMENT
-------------
                                X             Y             Z
Electronic contribution:     15.56382      10.72219      22.58000
Nuclear contribution   :    -15.90704     -10.74349     -23.25722
                        -----------------------------------------
Total Dipole Moment    :     -0.34322      -0.02130      -0.67722
                        -----------------------------------------
Magnitude (a.u.)       :      0.75952
Magnitude (Debye)      :      1.93056

Rotational constants in cm-1:     0.019603     0.008375     0.006499
Rotational constants in MHz :   587.675705   251.075210   194.831525

                             ****ORCA TERMINATED NORMALLY****
TOTAL RUN TIME: 0 days 0 hours 0 minutes 21 seconds 901 msec
