                         Program Version 4.2.1 -  RELEASE  -
|  1> ! wB97X-D3 SP def2-SVP
|  2> %pal
|  3> nprocs 24
|  4> end
|  5>
|  6> * xyz 0 1
|  7> S 	 -70.4165 	 10.8463 	 -72.1455
|  8> C 	 -70.3354 	 10.5757 	 -70.4068
|  9> C 	 -69.6975 	 9.37828 	 -70.1429
| 10> C 	 -68.9252 	 9.02959 	 -71.2748
| 11> C 	 -69.064 	 9.77675 	 -72.387
| 12> H 	 -68.2812 	 8.13766 	 -71.4263
| 13> C 	 -69.7234 	 8.62642 	 -68.8191
| 14> H 	 -69.6245 	 9.34754 	 -67.966
| 15> H 	 -68.8922 	 7.8773 	 -68.915
| 16> C 	 -71.0932 	 8.03741 	 -68.5646
| 17> H 	 -71.8532 	 8.87151 	 -68.2502
| 18> H 	 -71.6489 	 7.61636 	 -69.4297
| 19> C 	 -71.1405 	 6.97891 	 -67.4363
| 20> H 	 -72.1322 	 6.55321 	 -67.2353
| 21> H 	 -70.3683 	 6.18563 	 -67.4799
| 22> H 	 -70.7912 	 7.48717 	 -66.516
| 23> S 	 -69.3797 	 10.1865 	 -75.1027
| 24> C 	 -67.9781 	 9.98782 	 -76.1459
| 25> C 	 -66.9203 	 9.43787 	 -75.452
| 26> C 	 -67.1677 	 9.10711 	 -74.068
| 27> C 	 -68.433 	 9.69644 	 -73.7096
| 28> H 	 -66.052 	 9.25508 	 -76.1063
| 29> C 	 -66.22 	 8.47546 	 -73.1685
| 30> H 	 -66.3847 	 7.42269 	 -72.9128
| 31> H 	 -66.323 	 8.90582 	 -72.1695
| 32> C 	 -64.7154 	 8.57281 	 -73.6818
| 33> H 	 -64.3406 	 9.56304 	 -73.6807
| 34> H 	 -64.6833 	 8.15975 	 -74.6844
| 35> C 	 -63.7484 	 7.75556 	 -72.7986
| 36> H 	 -63.6857 	 8.10182 	 -71.7592
| 37> H 	 -62.7402 	 7.78972 	 -73.267
| 38> H 	 -63.8594 	 6.66424 	 -72.7972
| 39> H 	 -71.0433 	 11.0389 	 -69.6689
| 40> H 	 -67.9627 	 10.1928 	 -77.1778
| 41> *
| 42>
| 43>                          ****END OF INPUT****

CARTESIAN COORDINATES (ANGSTROEM)
---------------------------------
  S    -70.416500   10.846300  -72.145500
  C    -70.335400   10.575700  -70.406800
  C    -69.697500    9.378280  -70.142900
  C    -68.925200    9.029590  -71.274800
  C    -69.064000    9.776750  -72.387000
  H    -68.281200    8.137660  -71.426300
  C    -69.723400    8.626420  -68.819100
  H    -69.624500    9.347540  -67.966000
  H    -68.892200    7.877300  -68.915000
  C    -71.093200    8.037410  -68.564600
  H    -71.853200    8.871510  -68.250200
  H    -71.648900    7.616360  -69.429700
  C    -71.140500    6.978910  -67.436300
  H    -72.132200    6.553210  -67.235300
  H    -70.368300    6.185630  -67.479900
  H    -70.791200    7.487170  -66.516000
  S    -69.379700   10.186500  -75.102700
  C    -67.978100    9.987820  -76.145900
  C    -66.920300    9.437870  -75.452000
  C    -67.167700    9.107110  -74.068000
  C    -68.433000    9.696440  -73.709600
  H    -66.052000    9.255080  -76.106300
  C    -66.220000    8.475460  -73.168500
  H    -66.384700    7.422690  -72.912800
  H    -66.323000    8.905820  -72.169500
  C    -64.715400    8.572810  -73.681800
  H    -64.340600    9.563040  -73.680700
  H    -64.683300    8.159750  -74.684400
  C    -63.748400    7.755560  -72.798600
  H    -63.685700    8.101820  -71.759200
  H    -62.740200    7.789720  -73.267000
  H    -63.859400    6.664240  -72.797200
  H    -71.043300   11.038900  -69.668900
  H    -67.962700   10.192800  -77.177800

 Total Charge           Charge          ....    0
 Multiplicity           Mult            ....    1
 Number of Electrons    NEL             ....  134
 Basis Dimension        Dim             ....  322

ORBITAL ENERGIES
----------------

  NO   OCC          E(Eh)            E(eV)
   0   2.0000     -88.968150     -2420.9464
   1   2.0000     -88.960841     -2420.7476
   2   2.0000     -10.333875      -281.1990
   3   2.0000     -10.325515      -280.9715
   4   2.0000     -10.315688      -280.7041
   5   2.0000     -10.313825      -280.6534
   6   2.0000     -10.311144      -280.5805
   7   2.0000     -10.305568      -280.4288
   8   2.0000     -10.303222      -280.3649
   9   2.0000     -10.298648      -280.2405
  10   2.0000     -10.297713      -280.2150
  11   2.0000     -10.294763      -280.1347
  12   2.0000     -10.291450      -280.0446
  13   2.0000     -10.290282      -280.0128
  14   2.0000     -10.284004      -279.8420
  15   2.0000     -10.282600      -279.8038
  16   2.0000      -8.082539      -219.9371
  17   2.0000      -8.076010      -219.7594
  18   2.0000      -6.041085      -164.3863
  19   2.0000      -6.037212      -164.2809
  20   2.0000      -6.034588      -164.2095
  21   2.0000      -6.033189      -164.1714
  22   2.0000      -6.030843      -164.1076
  23   2.0000      -6.026275      -163.9833
  24   2.0000      -1.010252       -27.4903
  25   2.0000      -0.984502       -26.7897
  26   2.0000      -0.914233       -24.8776
  27   2.0000      -0.910073       -24.7643
  28   2.0000      -0.868227       -23.6257
  29   2.0000      -0.853967       -23.2376
  30   2.0000      -0.841934       -22.9102
  31   2.0000      -0.817721       -22.2513
  32   2.0000      -0.783875       -21.3303
  33   2.0000      -0.769986       -20.9524
  34   2.0000      -0.711456       -19.3597
  35   2.0000      -0.700748       -19.0683
  36   2.0000      -0.695856       -18.9352
  37   2.0000      -0.651995       -17.7417
  38   2.0000      -0.636659       -17.3244
  39   2.0000      -0.621680       -16.9168
  40   2.0000      -0.604042       -16.4368
  41   2.0000      -0.568120       -15.4593
  42   2.0000      -0.565525       -15.3887
  43   2.0000      -0.556831       -15.1521
  44   2.0000      -0.529963       -14.4210
  45   2.0000      -0.527654       -14.3582
  46   2.0000      -0.520565       -14.1653
  47   2.0000      -0.507515       -13.8102
  48   2.0000      -0.498615       -13.5680
  49   2.0000      -0.495797       -13.4913
  50   2.0000      -0.489331       -13.3154
  51   2.0000      -0.478879       -13.0310
  52   2.0000      -0.475285       -12.9332
  53   2.0000      -0.461679       -12.5629
  54   2.0000      -0.460754       -12.5377
  55   2.0000      -0.455214       -12.3870
  56   2.0000      -0.447786       -12.1849
  57   2.0000      -0.442967       -12.0537
  58   2.0000      -0.435271       -11.8443
  59   2.0000      -0.431003       -11.7282
  60   2.0000      -0.419009       -11.4018
  61   2.0000      -0.410855       -11.1799
  62   2.0000      -0.405559       -11.0358
  63   2.0000      -0.357307        -9.7228
  64   2.0000      -0.332548        -9.0491
  65   2.0000      -0.324993        -8.8435
  66   2.0000      -0.279605        -7.6084
  67   0.0000       0.015611         0.4248
  68   0.0000       0.070350         1.9143
  69   0.0000       0.099574         2.7095
  70   0.0000       0.121825         3.3150
  71   0.0000       0.138304         3.7635

MULLIKEN ATOMIC CHARGES
-----------------------
   0 S :    0.086533
   1 C :   -0.128266
   2 C :   -0.078030
   3 C :   -0.037125
   4 C :   -0.117502
   5 H :    0.015873
   6 C :    0.083822
   7 H :    0.048378
   8 H :    0.039486
   9 C :   -0.139947
  10 H :    0.037636
  11 H :    0.042163
  12 C :   -0.045155
  13 H :    0.046298
  14 H :    0.029711
  15 H :    0.015450
  16 S :    0.100366
  17 C :   -0.071545
  18 C :   -0.061146
  19 C :    0.002627
  20 C :   -0.123953
  21 H :    0.029552
  22 C :    0.011109
  23 H :    0.041828
  24 H :    0.031940
  25 C :   -0.066153
  26 H :    0.037610
  27 H :    0.038169
  28 C :   -0.070901
  29 H :    0.041349
  30 H :    0.029618
  31 H :    0.027572
  32 H :    0.063031
  33 H :    0.039603
Sum of atomic charges:    0.0000000

LOEWDIN ATOMIC CHARGES
----------------------
   0 S :    0.389949
   1 C :   -0.195018
   2 C :   -0.061442
   3 C :   -0.083117
   4 C :   -0.187623
   5 H :    0.034820
   6 C :   -0.033139
   7 H :    0.045219
   8 H :    0.037153
   9 C :   -0.054849
  10 H :    0.032612
  11 H :    0.024743
  12 C :   -0.075793
  13 H :    0.029372
  14 H :    0.024859
  15 H :    0.024141
  16 S :    0.397576
  17 C :   -0.180438
  18 C :   -0.073031
  19 C :   -0.053497
  20 C :   -0.186927
  21 H :    0.037263
  22 C :   -0.045272
  23 H :    0.035495
  24 H :    0.035396
  25 C :   -0.027266
  26 H :    0.023411
  27 H :    0.024419
  28 C :   -0.075569
  29 H :    0.026005
  30 H :    0.031172
  31 H :    0.023434
  32 H :    0.034599
  33 H :    0.021345

  Mayer bond orders larger than 0.100000
B(  0-S ,  1-C ) :   1.1359 B(  0-S ,  4-C ) :   1.1328 B(  1-C ,  2-C ) :   1.6040
B(  1-C , 32-H ) :   0.9620 B(  2-C ,  3-C ) :   1.2346 B(  2-C ,  6-C ) :   1.0220
B(  3-C ,  4-C ) :   1.5867 B(  3-C ,  5-H ) :   0.9826 B(  4-C , 20-C ) :   1.0827
B(  6-C ,  7-H ) :   0.9344 B(  6-C ,  8-H ) :   0.9483 B(  6-C ,  9-C ) :   1.0397
B(  9-C , 10-H ) :   0.9518 B(  9-C , 11-H ) :   0.9637 B(  9-C , 12-C ) :   1.0766
B( 12-C , 13-H ) :   0.9757 B( 12-C , 14-H ) :   0.9761 B( 12-C , 15-H ) :   0.9687
B( 16-S , 17-C ) :   1.1318 B( 16-S , 20-C ) :   1.1545 B( 17-C , 18-C ) :   1.6334
B( 17-C , 20-C ) :   0.1008 B( 17-C , 33-H ) :   0.9699 B( 18-C , 19-C ) :   1.2251
B( 18-C , 21-H ) :   0.9810 B( 19-C , 20-C ) :   1.5370 B( 19-C , 22-C ) :   1.0741
B( 22-C , 23-H ) :   0.9196 B( 22-C , 24-H ) :   0.9211 B( 22-C , 25-C ) :   1.0667
B( 25-C , 26-H ) :   0.9587 B( 25-C , 27-H ) :   0.9472 B( 25-C , 28-C ) :   1.0907
B( 28-C , 29-H ) :   0.9756 B( 28-C , 30-H ) :   0.9712 B( 28-C , 31-H ) :   0.9733

Dispersion correction           -0.013132616
FINAL SINGLE POINT ENERGY     -1339.857772494982

DIPOLE MOMENT
-------------
                                X             Y             Z
Electronic contribution:    -13.35485      16.80626     -19.52991
Nuclear contribution   :     13.74307     -17.33453      19.80928
                        -----------------------------------------
Total Dipole Moment    :      0.38822      -0.52827       0.27937
                        -----------------------------------------
Magnitude (a.u.)       :      0.71262
Magnitude (Debye)      :      1.81133

Rotational constants in cm-1:     0.018101     0.007857     0.005833
Rotational constants in MHz :   542.646817   235.535341   174.858198

                             ****ORCA TERMINATED NORMALLY****
TOTAL RUN TIME: 0 days 0 hours 0 minutes 20 seconds 838 msec
