                         Program Version 4.2.1 -  RELEASE  -
|  1> ! wB97X-D3 SP def2-SVP
|  2> %pal
|  3> nprocs 24
|  4> end
|  5>
|  6> * xyz 0 1
|  7> S 	 38.4178 	 -33.1752 	 -116.726
|  8> C 	 37.255 	 -33.9101 	 -117.89
|  9> C 	 37.7021 	 -35.1367 	 -118.326
| 10> C 	 38.9829 	 -35.4878 	 -117.829
| 11> C 	 39.4923 	 -34.5875 	 -116.893
| 12> H 	 39.5699 	 -36.4877 	 -118.017
| 13> C 	 37.1005 	 -35.8892 	 -119.509
| 14> H 	 36.6029 	 -36.7792 	 -119.115
| 15> H 	 37.9107 	 -36.3716 	 -120.062
| 16> C 	 36.317 	 -35.1406 	 -120.652
| 17> H 	 35.8092 	 -35.8033 	 -121.33
| 18> H 	 35.5638 	 -34.4597 	 -120.287
| 19> C 	 37.2116 	 -34.1797 	 -121.526
| 20> H 	 38.0824 	 -34.6162 	 -122.043
| 21> H 	 36.5171 	 -33.8144 	 -122.25
| 22> H 	 37.626 	 -33.374 	 -120.965
| 23> S 	 42.1874 	 -34.4002 	 -117.063
| 24> C 	 43.1902 	 -34.8624 	 -115.593
| 25> C 	 42.4027 	 -35.1358 	 -114.524
| 26> C 	 40.9527 	 -34.9623 	 -114.793
| 27> C 	 40.748 	 -34.7062 	 -116.124
| 28> H 	 42.825 	 -35.4513 	 -113.537
| 29> C 	 39.9761 	 -35.1737 	 -113.666
| 30> H 	 39.2375 	 -34.3279 	 -113.717
| 31> H 	 40.2197 	 -34.9352 	 -112.626
| 32> C 	 39.3543 	 -36.5896 	 -113.568
| 33> H 	 38.8193 	 -36.8105 	 -114.489
| 34> H 	 38.622 	 -36.6048 	 -112.755
| 35> C 	 40.443 	 -37.7184 	 -113.355
| 36> H 	 41.0711 	 -37.5801 	 -112.491
| 37> H 	 41.176 	 -37.8804 	 -114.172
| 38> H 	 39.9543 	 -38.6958 	 -113.226
| 39> H 	 36.44 	 -33.3961 	 -118.343
| 40> H 	 44.301 	 -34.8032 	 -115.639
| 41> *
| 42>
| 43>                          ****END OF INPUT****

CARTESIAN COORDINATES (ANGSTROEM)
---------------------------------
  S     38.417800  -33.175200  -116.726000
  C     37.255000  -33.910100  -117.890000
  C     37.702100  -35.136700  -118.326000
  C     38.982900  -35.487800  -117.829000
  C     39.492300  -34.587500  -116.893000
  H     39.569900  -36.487700  -118.017000
  C     37.100500  -35.889200  -119.509000
  H     36.602900  -36.779200  -119.115000
  H     37.910700  -36.371600  -120.062000
  C     36.317000  -35.140600  -120.652000
  H     35.809200  -35.803300  -121.330000
  H     35.563800  -34.459700  -120.287000
  C     37.211600  -34.179700  -121.526000
  H     38.082400  -34.616200  -122.043000
  H     36.517100  -33.814400  -122.250000
  H     37.626000  -33.374000  -120.965000
  S     42.187400  -34.400200  -117.063000
  C     43.190200  -34.862400  -115.593000
  C     42.402700  -35.135800  -114.524000
  C     40.952700  -34.962300  -114.793000
  C     40.748000  -34.706200  -116.124000
  H     42.825000  -35.451300  -113.537000
  C     39.976100  -35.173700  -113.666000
  H     39.237500  -34.327900  -113.717000
  H     40.219700  -34.935200  -112.626000
  C     39.354300  -36.589600  -113.568000
  H     38.819300  -36.810500  -114.489000
  H     38.622000  -36.604800  -112.755000
  C     40.443000  -37.718400  -113.355000
  H     41.071100  -37.580100  -112.491000
  H     41.176000  -37.880400  -114.172000
  H     39.954300  -38.695800  -113.226000
  H     36.440000  -33.396100  -118.343000
  H     44.301000  -34.803200  -115.639000

 Total Charge           Charge          ....    0
 Multiplicity           Mult            ....    1
 Number of Electrons    NEL             ....  134
 Basis Dimension        Dim             ....  322

ORBITAL ENERGIES
----------------

  NO   OCC          E(Eh)            E(eV)
   0   2.0000     -88.967568     -2420.9306
   1   2.0000     -88.964082     -2420.8357
   2   2.0000     -10.334151      -281.2065
   3   2.0000     -10.329156      -281.0706
   4   2.0000     -10.324798      -280.9520
   5   2.0000     -10.315729      -280.7052
   6   2.0000     -10.309343      -280.5315
   7   2.0000     -10.304325      -280.3949
   8   2.0000     -10.303382      -280.3693
   9   2.0000     -10.301878      -280.3283
  10   2.0000     -10.295499      -280.1548
  11   2.0000     -10.294812      -280.1361
  12   2.0000     -10.293516      -280.1008
  13   2.0000     -10.290873      -280.0289
  14   2.0000     -10.278959      -279.7047
  15   2.0000     -10.274206      -279.5754
  16   2.0000      -8.080698      -219.8870
  17   2.0000      -8.077989      -219.8133
  18   2.0000      -6.039319      -164.3382
  19   2.0000      -6.036763      -164.2687
  20   2.0000      -6.035446      -164.2328
  21   2.0000      -6.032808      -164.1610
  22   2.0000      -6.031424      -164.1234
  23   2.0000      -6.028318      -164.0389
  24   2.0000      -0.998525       -27.1713
  25   2.0000      -0.975508       -26.5449
  26   2.0000      -0.902435       -24.5565
  27   2.0000      -0.899729       -24.4829
  28   2.0000      -0.864717       -23.5301
  29   2.0000      -0.845598       -23.0099
  30   2.0000      -0.836348       -22.7582
  31   2.0000      -0.811586       -22.0844
  32   2.0000      -0.782964       -21.3055
  33   2.0000      -0.773372       -21.0445
  34   2.0000      -0.710424       -19.3316
  35   2.0000      -0.705069       -19.1859
  36   2.0000      -0.687372       -18.7043
  37   2.0000      -0.659794       -17.9539
  38   2.0000      -0.633653       -17.2426
  39   2.0000      -0.606814       -16.5122
  40   2.0000      -0.595111       -16.1938
  41   2.0000      -0.569947       -15.5090
  42   2.0000      -0.548960       -14.9380
  43   2.0000      -0.543492       -14.7892
  44   2.0000      -0.539860       -14.6903
  45   2.0000      -0.531826       -14.4717
  46   2.0000      -0.512881       -13.9562
  47   2.0000      -0.509420       -13.8620
  48   2.0000      -0.495860       -13.4930
  49   2.0000      -0.494461       -13.4550
  50   2.0000      -0.484777       -13.1914
  51   2.0000      -0.475444       -12.9375
  52   2.0000      -0.471546       -12.8314
  53   2.0000      -0.461168       -12.5490
  54   2.0000      -0.452624       -12.3165
  55   2.0000      -0.441170       -12.0049
  56   2.0000      -0.438696       -11.9375
  57   2.0000      -0.435323       -11.8457
  58   2.0000      -0.433938       -11.8081
  59   2.0000      -0.425221       -11.5709
  60   2.0000      -0.420915       -11.4537
  61   2.0000      -0.419061       -11.4032
  62   2.0000      -0.402023       -10.9396
  63   2.0000      -0.338149        -9.2015
  64   2.0000      -0.334019        -9.0891
  65   2.0000      -0.324240        -8.8230
  66   2.0000      -0.304870        -8.2959
  67   0.0000       0.040150         1.0925
  68   0.0000       0.056342         1.5331
  69   0.0000       0.100222         2.7272
  70   0.0000       0.110129         2.9968
  71   0.0000       0.122719         3.3394

MULLIKEN ATOMIC CHARGES
-----------------------
   0 S :    0.103991
   1 C :   -0.117512
   2 C :   -0.067587
   3 C :    0.000738
   4 C :   -0.166889
   5 H :    0.060319
   6 C :    0.058845
   7 H :    0.036248
   8 H :    0.022840
   9 C :   -0.067262
  10 H :    0.029666
  11 H :    0.023104
  12 C :   -0.062959
  13 H :    0.033555
  14 H :    0.029970
  15 H :    0.033359
  16 S :    0.095974
  17 C :   -0.110008
  18 C :   -0.029574
  19 C :    0.003915
  20 C :   -0.187355
  21 H :    0.040479
  22 C :    0.030804
  23 H :    0.025909
  24 H :    0.020469
  25 C :   -0.042472
  26 H :    0.037365
  27 H :    0.032444
  28 C :   -0.081610
  29 H :    0.019404
  30 H :    0.045442
  31 H :    0.034522
  32 H :    0.040666
  33 H :    0.073197
Sum of atomic charges:    0.0000000

LOEWDIN ATOMIC CHARGES
----------------------
   0 S :    0.374664
   1 C :   -0.177949
   2 C :   -0.066324
   3 C :   -0.073721
   4 C :   -0.187173
   5 H :    0.053909
   6 C :   -0.037400
   7 H :    0.034071
   8 H :    0.032904
   9 C :   -0.033857
  10 H :    0.025654
  11 H :    0.019213
  12 C :   -0.062536
  13 H :    0.024955
  14 H :    0.024022
  15 H :    0.020690
  16 S :    0.368495
  17 C :   -0.164129
  18 C :   -0.066904
  19 C :   -0.051905
  20 C :   -0.196991
  21 H :    0.041054
  22 C :   -0.051012
  23 H :    0.036519
  24 H :    0.033400
  25 C :   -0.029308
  26 H :    0.024710
  27 H :    0.025545
  28 C :   -0.075068
  29 H :    0.017584
  30 H :    0.029976
  31 H :    0.028461
  32 H :    0.022293
  33 H :    0.036158

  Mayer bond orders larger than 0.100000
B(  0-S ,  1-C ) :   1.1185 B(  0-S ,  4-C ) :   1.1442 B(  1-C ,  2-C ) :   1.6384
B(  1-C , 32-H ) :   0.9674 B(  2-C ,  3-C ) :   1.2380 B(  2-C ,  6-C ) :   1.0040
B(  3-C ,  4-C ) :   1.6069 B(  3-C ,  5-H ) :   0.9691 B(  4-C , 20-C ) :   1.0056
B(  6-C ,  7-H ) :   0.9305 B(  6-C ,  8-H ) :   0.9520 B(  6-C ,  9-C ) :   1.0637
B(  9-C , 10-H ) :   0.9577 B(  9-C , 11-H ) :   0.9580 B(  9-C , 12-C ) :   1.0681
B( 12-C , 13-H ) :   0.9775 B( 12-C , 14-H ) :   0.9772 B( 12-C , 15-H ) :   0.9793
B( 16-S , 17-C ) :   1.1016 B( 16-S , 20-C ) :   1.1408 B( 17-C , 18-C ) :   1.6769
B( 17-C , 33-H ) :   0.9639 B( 18-C , 19-C ) :   1.1712 B( 18-C , 21-H ) :   0.9791
B( 19-C , 20-C ) :   1.6613 B( 19-C , 22-C ) :   1.0398 B( 22-C , 23-H ) :   0.9260
B( 22-C , 24-H ) :   0.9449 B( 22-C , 25-C ) :   1.0680 B( 25-C , 26-H ) :   0.9596
B( 25-C , 27-H ) :   0.9572 B( 25-C , 28-C ) :   1.0647 B( 28-C , 29-H ) :   0.9765
B( 28-C , 30-H ) :   0.9742 B( 28-C , 31-H ) :   0.9758

Dispersion correction           -0.015067120
FINAL SINGLE POINT ENERGY     -1339.866038721919

DIPOLE MOMENT
-------------
                                X             Y             Z
Electronic contribution:     11.13938      12.71778       2.70070
Nuclear contribution   :    -11.26621     -13.09696      -2.67460
                        -----------------------------------------
Total Dipole Moment    :     -0.12683      -0.37918       0.02610
                        -----------------------------------------
Magnitude (a.u.)       :      0.40068
Magnitude (Debye)      :      1.01845

Rotational constants in cm-1:     0.022737     0.007611     0.006805
Rotational constants in MHz :   681.646953   228.168406   204.011310

                             ****ORCA TERMINATED NORMALLY****
TOTAL RUN TIME: 0 days 0 hours 0 minutes 21 seconds 358 msec
