                         Program Version 4.2.1 -  RELEASE  -
|  1> ! wB97X-D3 SP def2-SVP
|  2> %pal
|  3> nprocs 24
|  4> end
|  5>
|  6> * xyz 0 1
|  7> S 	 -105.49 	 48.0692 	 -97.9501
|  8> C 	 -106.259 	 49.3132 	 -98.8096
|  9> C 	 -105.475 	 49.8614 	 -99.8052
| 10> C 	 -104.182 	 49.2796 	 -99.7523
| 11> C 	 -104.019 	 48.253 	 -98.8698
| 12> H 	 -103.429 	 49.4975 	 -100.482
| 13> C 	 -105.766 	 50.7578 	 -101.027
| 14> H 	 -105.891 	 50.0331 	 -101.932
| 15> H 	 -104.867 	 51.3147 	 -101.369
| 16> C 	 -107.059 	 51.6427 	 -100.968
| 17> H 	 -107.154 	 52.1641 	 -101.909
| 18> H 	 -107.925 	 51.1073 	 -100.813
| 19> C 	 -106.875 	 52.6629 	 -99.9143
| 20> H 	 -107.1 	 52.2793 	 -98.9128
| 21> H 	 -105.92 	 53.2094 	 -99.8495
| 22> H 	 -107.624 	 53.4266 	 -100.06
| 23> S 	 -103.725 	 45.5936 	 -99.1461
| 24> C 	 -102.136 	 44.8725 	 -99.4744
| 25> C 	 -101.147 	 45.8575 	 -99.5158
| 26> C 	 -101.667 	 47.1894 	 -99.2981
| 27> C 	 -103.051 	 47.1949 	 -99.0909
| 28> H 	 -100.145 	 45.6036 	 -99.8484
| 29> C 	 -100.712 	 48.3884 	 -99.3093
| 30> H 	 -101.182 	 49.3447 	 -99.6662
| 31> H 	 -100.06 	 48.2526 	 -100.141
| 32> C 	 -99.9899 	 48.7926 	 -97.9971
| 33> H 	 -99.4942 	 49.6824 	 -98.2452
| 34> H 	 -99.1568 	 48.099 	 -97.7716
| 35> C 	 -100.928 	 49.0071 	 -96.7921
| 36> H 	 -101.693 	 49.7228 	 -96.9463
| 37> H 	 -100.354 	 49.1019 	 -95.8545
| 38> H 	 -101.392 	 48.0262 	 -96.6912
| 39> H 	 -107.241 	 49.73 	 -98.6173
| 40> H 	 -101.994 	 43.8803 	 -99.7718
| 41> *
| 42>
| 43>                          ****END OF INPUT****

CARTESIAN COORDINATES (ANGSTROEM)
---------------------------------
  S    -105.490000   48.069200  -97.950100
  C    -106.259000   49.313200  -98.809600
  C    -105.475000   49.861400  -99.805200
  C    -104.182000   49.279600  -99.752300
  C    -104.019000   48.253000  -98.869800
  H    -103.429000   49.497500  -100.482000
  C    -105.766000   50.757800  -101.027000
  H    -105.891000   50.033100  -101.932000
  H    -104.867000   51.314700  -101.369000
  C    -107.059000   51.642700  -100.968000
  H    -107.154000   52.164100  -101.909000
  H    -107.925000   51.107300  -100.813000
  C    -106.875000   52.662900  -99.914300
  H    -107.100000   52.279300  -98.912800
  H    -105.920000   53.209400  -99.849500
  H    -107.624000   53.426600  -100.060000
  S    -103.725000   45.593600  -99.146100
  C    -102.136000   44.872500  -99.474400
  C    -101.147000   45.857500  -99.515800
  C    -101.667000   47.189400  -99.298100
  C    -103.051000   47.194900  -99.090900
  H    -100.145000   45.603600  -99.848400
  C    -100.712000   48.388400  -99.309300
  H    -101.182000   49.344700  -99.666200
  H    -100.060000   48.252600  -100.141000
  C    -99.989900   48.792600  -97.997100
  H    -99.494200   49.682400  -98.245200
  H    -99.156800   48.099000  -97.771600
  C    -100.928000   49.007100  -96.792100
  H    -101.693000   49.722800  -96.946300
  H    -100.354000   49.101900  -95.854500
  H    -101.392000   48.026200  -96.691200
  H    -107.241000   49.730000  -98.617300
  H    -101.994000   43.880300  -99.771800

 Total Charge           Charge          ....    0
 Multiplicity           Mult            ....    1
 Number of Electrons    NEL             ....  134
 Basis Dimension        Dim             ....  322

ORBITAL ENERGIES
----------------

  NO   OCC          E(Eh)            E(eV)
   0   2.0000     -88.969581     -2420.9854
   1   2.0000     -88.964672     -2420.8518
   2   2.0000     -10.329136      -281.0701
   3   2.0000     -10.324631      -280.9475
   4   2.0000     -10.314136      -280.6619
   5   2.0000     -10.313064      -280.6328
   6   2.0000     -10.307901      -280.4922
   7   2.0000     -10.304255      -280.3930
   8   2.0000     -10.301829      -280.3270
   9   2.0000     -10.297269      -280.2029
  10   2.0000     -10.291852      -280.0555
  11   2.0000     -10.286897      -279.9207
  12   2.0000     -10.282237      -279.7939
  13   2.0000     -10.281257      -279.7672
  14   2.0000     -10.272573      -279.5309
  15   2.0000     -10.268230      -279.4127
  16   2.0000      -8.085121      -220.0073
  17   2.0000      -8.079218      -219.8467
  18   2.0000      -6.043642      -164.4558
  19   2.0000      -6.039454      -164.3419
  20   2.0000      -6.037833      -164.2978
  21   2.0000      -6.035863      -164.2442
  22   2.0000      -6.033678      -164.1847
  23   2.0000      -6.029937      -164.0829
  24   2.0000      -1.013744       -27.5854
  25   2.0000      -0.982910       -26.7464
  26   2.0000      -0.914112       -24.8743
  27   2.0000      -0.901473       -24.5303
  28   2.0000      -0.872578       -23.7441
  29   2.0000      -0.858655       -23.3652
  30   2.0000      -0.842193       -22.9172
  31   2.0000      -0.810077       -22.0433
  32   2.0000      -0.780462       -21.2375
  33   2.0000      -0.775022       -21.0894
  34   2.0000      -0.710723       -19.3398
  35   2.0000      -0.703089       -19.1320
  36   2.0000      -0.689968       -18.7750
  37   2.0000      -0.665038       -18.0966
  38   2.0000      -0.640962       -17.4415
  39   2.0000      -0.614897       -16.7322
  40   2.0000      -0.593540       -16.1511
  41   2.0000      -0.580202       -15.7881
  42   2.0000      -0.551065       -14.9952
  43   2.0000      -0.548061       -14.9135
  44   2.0000      -0.545265       -14.8374
  45   2.0000      -0.536515       -14.5993
  46   2.0000      -0.514384       -13.9971
  47   2.0000      -0.511682       -13.9236
  48   2.0000      -0.502919       -13.6851
  49   2.0000      -0.495063       -13.4714
  50   2.0000      -0.489215       -13.3122
  51   2.0000      -0.478570       -13.0226
  52   2.0000      -0.471177       -12.8214
  53   2.0000      -0.465476       -12.6662
  54   2.0000      -0.460333       -12.5263
  55   2.0000      -0.446303       -12.1445
  56   2.0000      -0.444659       -12.0998
  57   2.0000      -0.437437       -11.9033
  58   2.0000      -0.434126       -11.8132
  59   2.0000      -0.424938       -11.5632
  60   2.0000      -0.414640       -11.2829
  61   2.0000      -0.411694       -11.2028
  62   2.0000      -0.410338       -11.1659
  63   2.0000      -0.357842        -9.7374
  64   2.0000      -0.330542        -8.9945
  65   2.0000      -0.326750        -8.8913
  66   2.0000      -0.285475        -7.7682
  67   0.0000       0.030285         0.8241
  68   0.0000       0.070212         1.9106
  69   0.0000       0.109620         2.9829
  70   0.0000       0.121682         3.3111
  71   0.0000       0.131567         3.5801

MULLIKEN ATOMIC CHARGES
-----------------------
   0 S :    0.122175
   1 C :   -0.129889
   2 C :   -0.058772
   3 C :    0.015420
   4 C :   -0.115822
   5 H :    0.007369
   6 C :   -0.027151
   7 H :    0.055092
   8 H :    0.038253
   9 C :    0.003490
  10 H :    0.022979
  11 H :    0.015260
  12 C :   -0.059415
  13 H :    0.025384
  14 H :    0.036106
  15 H :    0.018888
  16 S :    0.097514
  17 C :   -0.086128
  18 C :   -0.024365
  19 C :   -0.060894
  20 C :   -0.143057
  21 H :    0.023315
  22 C :    0.041735
  23 H :    0.017663
  24 H :    0.013728
  25 C :   -0.046692
  26 H :    0.010956
  27 H :    0.025464
  28 C :   -0.034104
  29 H :    0.037012
  30 H :    0.036413
  31 H :    0.033858
  32 H :    0.046762
  33 H :    0.041453
Sum of atomic charges:    0.0000000

LOEWDIN ATOMIC CHARGES
----------------------
   0 S :    0.431519
   1 C :   -0.215110
   2 C :   -0.066939
   3 C :   -0.049487
   4 C :   -0.205838
   5 H :    0.024982
   6 C :   -0.035361
   7 H :    0.043775
   8 H :    0.033377
   9 C :   -0.036121
  10 H :    0.027680
  11 H :    0.016573
  12 C :   -0.068481
  13 H :    0.023258
  14 H :    0.028933
  15 H :    0.022781
  16 S :    0.401194
  17 C :   -0.177985
  18 C :   -0.061983
  19 C :   -0.070122
  20 C :   -0.187339
  21 H :    0.032413
  22 C :   -0.038816
  23 H :    0.032179
  24 H :    0.026891
  25 C :   -0.035038
  26 H :    0.013790
  27 H :    0.023714
  28 C :   -0.062159
  29 H :    0.021484
  30 H :    0.031087
  31 H :    0.029637
  32 H :    0.028071
  33 H :    0.017443

  Mayer bond orders larger than 0.100000
B(  0-S ,  1-C ) :   1.1526 B(  0-S ,  4-C ) :   1.1430 B(  1-C ,  2-C ) :   1.5974
B(  1-C , 32-H ) :   0.9591 B(  2-C ,  3-C ) :   1.2858 B(  2-C ,  6-C ) :   1.0034
B(  3-C ,  4-C ) :   1.5540 B(  3-C ,  5-H ) :   0.9887 B(  4-C , 20-C ) :   1.0459
B(  6-C ,  7-H ) :   0.9419 B(  6-C ,  8-H ) :   0.9486 B(  6-C ,  9-C ) :   1.0769
B(  9-C , 10-H ) :   0.9526 B(  9-C , 11-H ) :   0.9489 B(  9-C , 12-C ) :   1.0873
B( 12-C , 13-H ) :   0.9730 B( 12-C , 14-H ) :   0.9753 B( 12-C , 15-H ) :   0.9716
B( 16-S , 17-C ) :   1.1414 B( 16-S , 20-C ) :   1.1509 B( 17-C , 18-C ) :   1.6104
B( 17-C , 33-H ) :   0.9760 B( 18-C , 19-C ) :   1.2403 B( 18-C , 21-H ) :   0.9873
B( 19-C , 20-C ) :   1.5882 B( 19-C , 22-C ) :   1.0378 B( 22-C , 23-H ) :   0.9396
B( 22-C , 24-H ) :   0.9310 B( 22-C , 25-C ) :   1.0728 B( 25-C , 26-H ) :   0.9526
B( 25-C , 27-H ) :   0.9567 B( 25-C , 28-C ) :   1.0732 B( 28-C , 29-H ) :   0.9762
B( 28-C , 30-H ) :   0.9723 B( 28-C , 31-H ) :   0.9726

Dispersion correction           -0.014804784
FINAL SINGLE POINT ENERGY     -1339.866949705978

DIPOLE MOMENT
-------------
                                X             Y             Z
Electronic contribution:     -5.27493     -22.25301       3.64359
Nuclear contribution   :      5.38018      22.69218      -4.23037
                        -----------------------------------------
Total Dipole Moment    :      0.10525       0.43918      -0.58678
                        -----------------------------------------
Magnitude (a.u.)       :      0.74045
Magnitude (Debye)      :      1.88207

Rotational constants in cm-1:     0.021774     0.008078     0.007012
Rotational constants in MHz :   652.757590   242.177468   210.221786

                             ****ORCA TERMINATED NORMALLY****
TOTAL RUN TIME: 0 days 0 hours 0 minutes 21 seconds 985 msec
