                         Program Version 4.2.1 -  RELEASE  -
|  1> ! wB97X-D3 SP def2-SVP
|  2> %pal
|  3> nprocs 24
|  4> end
|  5>
|  6> * xyz 0 1
|  7> S 	 -34.7581 	 8.99436 	 -1.9281
|  8> C 	 -35.5929 	 7.53264 	 -2.35416
|  9> C 	 -36.3986 	 7.14578 	 -1.32401
| 10> C 	 -36.3012 	 7.97331 	 -0.148884
| 11> C 	 -35.4807 	 9.09842 	 -0.32642
| 12> H 	 -36.83 	 7.88968 	 0.731511
| 13> C 	 -37.4036 	 5.9931 	 -1.39695
| 14> H 	 -36.792 	 5.3514 	 -2.12127
| 15> H 	 -38.3557 	 6.39352 	 -1.82607
| 16> C 	 -37.5188 	 5.23056 	 -0.0601127
| 17> H 	 -37.7587 	 5.87722 	 0.847392
| 18> H 	 -38.4463 	 4.5786 	 0.00367444
| 19> C 	 -36.2518 	 4.38295 	 0.349053
| 20> H 	 -36.0568 	 3.62437 	 -0.376547
| 21> H 	 -35.3567 	 4.98121 	 0.586533
| 22> H 	 -36.4684 	 3.91063 	 1.34801
| 23> S 	 -33.5387 	 10.5829 	 0.750535
| 24> C 	 -33.831 	 11.5096 	 2.12073
| 25> C 	 -35.1892 	 11.6677 	 2.41387
| 26> C 	 -35.9804 	 10.8517 	 1.5311
| 27> C 	 -35.2353 	 10.1809 	 0.600907
| 28> H 	 -35.5427 	 12.3748 	 3.1327
| 29> C 	 -37.5191 	 10.8138 	 1.52263
| 30> H 	 -37.8235 	 9.83093 	 1.18734
| 31> H 	 -37.7368 	 11.5976 	 0.728024
| 32> C 	 -38.1674 	 11.0571 	 2.87395
| 33> H 	 -39.231 	 11.0226 	 2.8595
| 34> H 	 -37.9137 	 12.1515 	 3.12597
| 35> C 	 -37.7319 	 10.0734 	 3.97068
| 36> H 	 -36.6124 	 9.98157 	 3.96565
| 37> H 	 -38.1965 	 9.0361 	 4.00547
| 38> H 	 -37.964 	 10.5124 	 4.9331
| 39> H 	 -35.6163 	 7.04436 	 -3.32727
| 40> H 	 -33.0196 	 11.8802 	 2.81055
| 41> *
| 42>
| 43>                          ****END OF INPUT****

CARTESIAN COORDINATES (ANGSTROEM)
---------------------------------
  S    -34.758100    8.994360   -1.928100
  C    -35.592900    7.532640   -2.354160
  C    -36.398600    7.145780   -1.324010
  C    -36.301200    7.973310   -0.148884
  C    -35.480700    9.098420   -0.326420
  H    -36.830000    7.889680    0.731511
  C    -37.403600    5.993100   -1.396950
  H    -36.792000    5.351400   -2.121270
  H    -38.355700    6.393520   -1.826070
  C    -37.518800    5.230560   -0.060113
  H    -37.758700    5.877220    0.847392
  H    -38.446300    4.578600    0.003674
  C    -36.251800    4.382950    0.349053
  H    -36.056800    3.624370   -0.376547
  H    -35.356700    4.981210    0.586533
  H    -36.468400    3.910630    1.348010
  S    -33.538700   10.582900    0.750535
  C    -33.831000   11.509600    2.120730
  C    -35.189200   11.667700    2.413870
  C    -35.980400   10.851700    1.531100
  C    -35.235300   10.180900    0.600907
  H    -35.542700   12.374800    3.132700
  C    -37.519100   10.813800    1.522630
  H    -37.823500    9.830930    1.187340
  H    -37.736800   11.597600    0.728024
  C    -38.167400   11.057100    2.873950
  H    -39.231000   11.022600    2.859500
  H    -37.913700   12.151500    3.125970
  C    -37.731900   10.073400    3.970680
  H    -36.612400    9.981570    3.965650
  H    -38.196500    9.036100    4.005470
  H    -37.964000   10.512400    4.933100
  H    -35.616300    7.044360   -3.327270
  H    -33.019600   11.880200    2.810550

 Total Charge           Charge          ....    0
 Multiplicity           Mult            ....    1
 Number of Electrons    NEL             ....  134
 Basis Dimension        Dim             ....  322

ORBITAL ENERGIES
----------------

  NO   OCC          E(Eh)            E(eV)
   0   2.0000     -88.964985     -2420.8603
   1   2.0000     -88.963115     -2420.8094
   2   2.0000     -10.331320      -281.1295
   3   2.0000     -10.321621      -280.8656
   4   2.0000     -10.320766      -280.8423
   5   2.0000     -10.308835      -280.5176
   6   2.0000     -10.306498      -280.4541
   7   2.0000     -10.303255      -280.3658
   8   2.0000     -10.300597      -280.2935
   9   2.0000     -10.297045      -280.1969
  10   2.0000     -10.296578      -280.1841
  11   2.0000     -10.296544      -280.1832
  12   2.0000     -10.292989      -280.0865
  13   2.0000     -10.286194      -279.9016
  14   2.0000     -10.284812      -279.8640
  15   2.0000     -10.282166      -279.7920
  16   2.0000      -8.081438      -219.9071
  17   2.0000      -8.077852      -219.8095
  18   2.0000      -6.039674      -164.3479
  19   2.0000      -6.036484      -164.2611
  20   2.0000      -6.035704      -164.2399
  21   2.0000      -6.032356      -164.1488
  22   2.0000      -6.032286      -164.1468
  23   2.0000      -6.028557      -164.0454
  24   2.0000      -1.012172       -27.5426
  25   2.0000      -0.986545       -26.8453
  26   2.0000      -0.912760       -24.8375
  27   2.0000      -0.904143       -24.6030
  28   2.0000      -0.870449       -23.6861
  29   2.0000      -0.850277       -23.1372
  30   2.0000      -0.836219       -22.7547
  31   2.0000      -0.814888       -22.1742
  32   2.0000      -0.783682       -21.3251
  33   2.0000      -0.770031       -20.9536
  34   2.0000      -0.711678       -19.3657
  35   2.0000      -0.695109       -18.9149
  36   2.0000      -0.688391       -18.7321
  37   2.0000      -0.660209       -17.9652
  38   2.0000      -0.638640       -17.3783
  39   2.0000      -0.618328       -16.8255
  40   2.0000      -0.592604       -16.1256
  41   2.0000      -0.563116       -15.3232
  42   2.0000      -0.558357       -15.1937
  43   2.0000      -0.555660       -15.1203
  44   2.0000      -0.544131       -14.8066
  45   2.0000      -0.527025       -14.3411
  46   2.0000      -0.518099       -14.0982
  47   2.0000      -0.511544       -13.9198
  48   2.0000      -0.506022       -13.7696
  49   2.0000      -0.495939       -13.4952
  50   2.0000      -0.489576       -13.3221
  51   2.0000      -0.479457       -13.0467
  52   2.0000      -0.468401       -12.7458
  53   2.0000      -0.462657       -12.5895
  54   2.0000      -0.453593       -12.3429
  55   2.0000      -0.449733       -12.2379
  56   2.0000      -0.446392       -12.1469
  57   2.0000      -0.438771       -11.9396
  58   2.0000      -0.436375       -11.8744
  59   2.0000      -0.426427       -11.6037
  60   2.0000      -0.416581       -11.3358
  61   2.0000      -0.410452       -11.1690
  62   2.0000      -0.400268       -10.8918
  63   2.0000      -0.353223        -9.6117
  64   2.0000      -0.332183        -9.0392
  65   2.0000      -0.325837        -8.8665
  66   2.0000      -0.285797        -7.7769
  67   0.0000       0.030680         0.8348
  68   0.0000       0.069240         1.8841
  69   0.0000       0.115464         3.1419
  70   0.0000       0.120793         3.2869
  71   0.0000       0.130225         3.5436

MULLIKEN ATOMIC CHARGES
-----------------------
   0 S :    0.100322
   1 C :   -0.123992
   2 C :   -0.112330
   3 C :    0.052564
   4 C :   -0.136699
   5 H :   -0.026123
   6 C :    0.067612
   7 H :    0.036595
   8 H :    0.066208
   9 C :   -0.128113
  10 H :    0.033940
  11 H :    0.034978
  12 C :   -0.066919
  13 H :    0.039042
  14 H :    0.051659
  15 H :    0.034822
  16 S :    0.120994
  17 C :   -0.106389
  18 C :   -0.041997
  19 C :   -0.089268
  20 C :   -0.144075
  21 H :    0.016883
  22 C :    0.088180
  23 H :    0.013503
  24 H :    0.065794
  25 C :   -0.080996
  26 H :    0.029023
  27 H :    0.034279
  28 C :   -0.085883
  29 H :    0.048570
  30 H :    0.047507
  31 H :    0.028922
  32 H :    0.050735
  33 H :    0.080652
Sum of atomic charges:    0.0000000

LOEWDIN ATOMIC CHARGES
----------------------
   0 S :    0.399950
   1 C :   -0.213891
   2 C :   -0.068348
   3 C :   -0.064370
   4 C :   -0.183568
   5 H :    0.011668
   6 C :   -0.038558
   7 H :    0.041188
   8 H :    0.041570
   9 C :   -0.057235
  10 H :    0.026675
  11 H :    0.028970
  12 C :   -0.067778
  13 H :    0.019624
  14 H :    0.030963
  15 H :    0.033234
  16 S :    0.440231
  17 C :   -0.206817
  18 C :   -0.079887
  19 C :   -0.051930
  20 C :   -0.206922
  21 H :    0.028950
  22 C :   -0.031107
  23 H :    0.024504
  24 H :    0.049688
  25 C :   -0.048712
  26 H :    0.022378
  27 H :    0.029857
  28 C :   -0.077529
  29 H :    0.030901
  30 H :    0.033538
  31 H :    0.025730
  32 H :    0.034609
  33 H :    0.042425

  Mayer bond orders larger than 0.100000
B(  0-S ,  1-C ) :   1.1209 B(  0-S ,  4-C ) :   1.1563 B(  1-C ,  2-C ) :   1.6369
B(  1-C , 32-H ) :   0.9670 B(  2-C ,  3-C ) :   1.2293 B(  2-C ,  6-C ) :   0.9821
B(  3-C ,  4-C ) :   1.5636 B(  3-C ,  5-H ) :   1.0038 B(  4-C , 20-C ) :   1.0386
B(  6-C ,  7-H ) :   0.9502 B(  6-C ,  8-H ) :   0.9427 B(  6-C ,  9-C ) :   1.0607
B(  9-C , 10-H ) :   0.9527 B(  9-C , 11-H ) :   0.9574 B(  9-C , 12-C ) :   1.0732
B( 12-C , 13-H ) :   0.9777 B( 12-C , 14-H ) :   0.9744 B( 12-C , 15-H ) :   0.9735
B( 16-S , 17-C ) :   1.2029 B( 16-S , 20-C ) :   1.1337 B( 17-C , 18-C ) :   1.5724
B( 17-C , 33-H ) :   0.9565 B( 18-C , 19-C ) :   1.2371 B( 18-C , 21-H ) :   0.9981
B( 19-C , 20-C ) :   1.6196 B( 19-C , 22-C ) :   1.0094 B( 22-C , 23-H ) :   0.9356
B( 22-C , 24-H ) :   0.9376 B( 22-C , 25-C ) :   1.0732 B( 25-C , 26-H ) :   0.9556
B( 25-C , 27-H ) :   0.9493 B( 25-C , 28-C ) :   1.0722 B( 28-C , 29-H ) :   0.9713
B( 28-C , 30-H ) :   0.9728 B( 28-C , 31-H ) :   0.9724

Dispersion correction           -0.014611114
FINAL SINGLE POINT ENERGY     -1339.870435883137

DIPOLE MOMENT
-------------
                                X             Y             Z
Electronic contribution:     19.23801      13.50825     -13.91582
Nuclear contribution   :    -19.79647     -13.58726      14.36725
                        -----------------------------------------
Total Dipole Moment    :     -0.55847      -0.07901       0.45143
                        -----------------------------------------
Magnitude (a.u.)       :      0.72243
Magnitude (Debye)      :      1.83628

Rotational constants in cm-1:     0.017825     0.009464     0.007211
Rotational constants in MHz :   534.382647   283.734236   216.174310

                             ****ORCA TERMINATED NORMALLY****
TOTAL RUN TIME: 0 days 0 hours 0 minutes 22 seconds 60 msec
