                         Program Version 4.2.1 -  RELEASE  -
|  1> ! wB97X-D3 SP def2-SVP
|  2> %pal
|  3> nprocs 24
|  4> end
|  5>
|  6> * xyz 0 1
|  7> S 	 -135.884 	 63.4282 	 -59.7513
|  8> C 	 -134.668 	 64.2562 	 -60.8015
|  9> C 	 -134.473 	 65.5799 	 -60.4422
| 10> C 	 -135.261 	 65.8571 	 -59.2449
| 11> C 	 -135.948 	 64.7972 	 -58.6903
| 12> H 	 -135.269 	 66.7424 	 -58.7187
| 13> C 	 -133.448 	 66.5201 	 -61.0898
| 14> H 	 -133.6 	 67.4266 	 -60.4457
| 15> H 	 -133.769 	 66.7533 	 -62.1114
| 16> C 	 -132.036 	 65.8877 	 -60.8865
| 17> H 	 -131.889 	 65.2418 	 -61.6943
| 18> H 	 -131.235 	 66.5731 	 -61.0604
| 19> C 	 -131.758 	 65.1214 	 -59.5091
| 20> H 	 -131.881 	 65.7964 	 -58.6559
| 21> H 	 -132.343 	 64.2086 	 -59.2819
| 22> H 	 -130.822 	 64.7471 	 -59.5903
| 23> S 	 -138.28 	 63.9052 	 -57.5009
| 24> C 	 -138.554 	 64.3621 	 -55.7716
| 25> C 	 -137.787 	 65.4249 	 -55.4061
| 26> C 	 -136.772 	 65.6463 	 -56.4189
| 27> C 	 -136.804 	 64.8032 	 -57.5071
| 28> H 	 -137.832 	 65.8533 	 -54.4083
| 29> C 	 -135.63 	 66.693 	 -56.1631
| 30> H 	 -135.723 	 67.5747 	 -56.7398
| 31> H 	 -134.662 	 66.2789 	 -56.6266
| 32> C 	 -135.543 	 67.1767 	 -54.6488
| 33> H 	 -135.328 	 66.3533 	 -53.957
| 34> H 	 -136.508 	 67.5708 	 -54.3085
| 35> C 	 -134.602 	 68.3418 	 -54.3888
| 36> H 	 -133.583 	 68.0452 	 -54.8334
| 37> H 	 -134.435 	 68.6682 	 -53.3316
| 38> H 	 -134.927 	 69.204 	 -54.9242
| 39> H 	 -134.187 	 63.8267 	 -61.6743
| 40> H 	 -139.374 	 63.9338 	 -55.2291
| 41> *
| 42>
| 43>                          ****END OF INPUT****

CARTESIAN COORDINATES (ANGSTROEM)
---------------------------------
  S    -135.884000   63.428200  -59.751300
  C    -134.668000   64.256200  -60.801500
  C    -134.473000   65.579900  -60.442200
  C    -135.261000   65.857100  -59.244900
  C    -135.948000   64.797200  -58.690300
  H    -135.269000   66.742400  -58.718700
  C    -133.448000   66.520100  -61.089800
  H    -133.600000   67.426600  -60.445700
  H    -133.769000   66.753300  -62.111400
  C    -132.036000   65.887700  -60.886500
  H    -131.889000   65.241800  -61.694300
  H    -131.235000   66.573100  -61.060400
  C    -131.758000   65.121400  -59.509100
  H    -131.881000   65.796400  -58.655900
  H    -132.343000   64.208600  -59.281900
  H    -130.822000   64.747100  -59.590300
  S    -138.280000   63.905200  -57.500900
  C    -138.554000   64.362100  -55.771600
  C    -137.787000   65.424900  -55.406100
  C    -136.772000   65.646300  -56.418900
  C    -136.804000   64.803200  -57.507100
  H    -137.832000   65.853300  -54.408300
  C    -135.630000   66.693000  -56.163100
  H    -135.723000   67.574700  -56.739800
  H    -134.662000   66.278900  -56.626600
  C    -135.543000   67.176700  -54.648800
  H    -135.328000   66.353300  -53.957000
  H    -136.508000   67.570800  -54.308500
  C    -134.602000   68.341800  -54.388800
  H    -133.583000   68.045200  -54.833400
  H    -134.435000   68.668200  -53.331600
  H    -134.927000   69.204000  -54.924200
  H    -134.187000   63.826700  -61.674300
  H    -139.374000   63.933800  -55.229100

 Total Charge           Charge          ....    0
 Multiplicity           Mult            ....    1
 Number of Electrons    NEL             ....  134
 Basis Dimension        Dim             ....  322

ORBITAL ENERGIES
----------------

  NO   OCC          E(Eh)            E(eV)
   0   2.0000     -88.965840     -2420.8836
   1   2.0000     -88.962444     -2420.7912
   2   2.0000     -10.329394      -281.0771
   3   2.0000     -10.325796      -280.9792
   4   2.0000     -10.320044      -280.8227
   5   2.0000     -10.316071      -280.7146
   6   2.0000     -10.307681      -280.4863
   7   2.0000     -10.304936      -280.4116
   8   2.0000     -10.303959      -280.3850
   9   2.0000     -10.303343      -280.3682
  10   2.0000     -10.298754      -280.2433
  11   2.0000     -10.293324      -280.0956
  12   2.0000     -10.290387      -280.0157
  13   2.0000     -10.290364      -280.0150
  14   2.0000     -10.285130      -279.8726
  15   2.0000     -10.274785      -279.5911
  16   2.0000      -8.079878      -219.8646
  17   2.0000      -8.077215      -219.7922
  18   2.0000      -6.038528      -164.3167
  19   2.0000      -6.035825      -164.2431
  20   2.0000      -6.034495      -164.2070
  21   2.0000      -6.032020      -164.1396
  22   2.0000      -6.030525      -164.0989
  23   2.0000      -6.027548      -164.0179
  24   2.0000      -1.005802       -27.3693
  25   2.0000      -0.979453       -26.6523
  26   2.0000      -0.909390       -24.7458
  27   2.0000      -0.900269       -24.4976
  28   2.0000      -0.867226       -23.5984
  29   2.0000      -0.849231       -23.1087
  30   2.0000      -0.838191       -22.8083
  31   2.0000      -0.814366       -22.1600
  32   2.0000      -0.786712       -21.4075
  33   2.0000      -0.770059       -20.9544
  34   2.0000      -0.715248       -19.4629
  35   2.0000      -0.704753       -19.1773
  36   2.0000      -0.699150       -19.0248
  37   2.0000      -0.656625       -17.8677
  38   2.0000      -0.637905       -17.3583
  39   2.0000      -0.614619       -16.7246
  40   2.0000      -0.596549       -16.2329
  41   2.0000      -0.566448       -15.4138
  42   2.0000      -0.560647       -15.2560
  43   2.0000      -0.558525       -15.1982
  44   2.0000      -0.543766       -14.7966
  45   2.0000      -0.523125       -14.2350
  46   2.0000      -0.512676       -13.9506
  47   2.0000      -0.507523       -13.8104
  48   2.0000      -0.504889       -13.7387
  49   2.0000      -0.498491       -13.5646
  50   2.0000      -0.487606       -13.2684
  51   2.0000      -0.477671       -12.9981
  52   2.0000      -0.469271       -12.7695
  53   2.0000      -0.461681       -12.5630
  54   2.0000      -0.455792       -12.4027
  55   2.0000      -0.452194       -12.3048
  56   2.0000      -0.445779       -12.1303
  57   2.0000      -0.440348       -11.9825
  58   2.0000      -0.429224       -11.6798
  59   2.0000      -0.428145       -11.6504
  60   2.0000      -0.422071       -11.4851
  61   2.0000      -0.415290       -11.3006
  62   2.0000      -0.410686       -11.1753
  63   2.0000      -0.356767        -9.7081
  64   2.0000      -0.329977        -8.9791
  65   2.0000      -0.328152        -8.9295
  66   2.0000      -0.287286        -7.8175
  67   0.0000       0.021278         0.5790
  68   0.0000       0.079135         2.1534
  69   0.0000       0.092947         2.5292
  70   0.0000       0.120685         3.2840
  71   0.0000       0.135094         3.6761

MULLIKEN ATOMIC CHARGES
-----------------------
   0 S :    0.097302
   1 C :   -0.124459
   2 C :   -0.119921
   3 C :    0.036446
   4 C :   -0.142303
   5 H :   -0.044638
   6 C :    0.100130
   7 H :    0.026325
   8 H :    0.052253
   9 C :   -0.078266
  10 H :    0.012389
  11 H :    0.024987
  12 C :   -0.011786
  13 H :    0.034470
  14 H :    0.045840
  15 H :    0.010476
  16 S :    0.078787
  17 C :   -0.087428
  18 C :   -0.013071
  19 C :   -0.068940
  20 C :   -0.081394
  21 H :    0.035129
  22 C :    0.007953
  23 H :    0.036265
  24 H :    0.049209
  25 C :   -0.088316
  26 H :    0.040662
  27 H :    0.032911
  28 C :   -0.063756
  29 H :    0.031910
  30 H :    0.047406
  31 H :    0.025902
  32 H :    0.044993
  33 H :    0.052534
Sum of atomic charges:   -0.0000000

LOEWDIN ATOMIC CHARGES
----------------------
   0 S :    0.385088
   1 C :   -0.178416
   2 C :   -0.055898
   3 C :   -0.060510
   4 C :   -0.190974
   5 H :    0.011646
   6 C :   -0.029255
   7 H :    0.033670
   8 H :    0.036856
   9 C :   -0.032934
  10 H :    0.015827
  11 H :    0.022910
  12 C :   -0.055093
  13 H :    0.026544
  14 H :    0.034486
  15 H :    0.011767
  16 S :    0.376678
  17 C :   -0.151395
  18 C :   -0.067239
  19 C :   -0.055444
  20 C :   -0.201439
  21 H :    0.038834
  22 C :   -0.036830
  23 H :    0.020308
  24 H :    0.040827
  25 C :   -0.047165
  26 H :    0.024978
  27 H :    0.022895
  28 C :   -0.071551
  29 H :    0.029624
  30 H :    0.033242
  31 H :    0.017807
  32 H :    0.026803
  33 H :    0.023351

  Mayer bond orders larger than 0.100000
B(  0-S ,  1-C ) :   1.1234 B(  0-S ,  4-C ) :   1.1323 B(  1-C ,  2-C ) :   1.6242
B(  1-C , 32-H ) :   0.9697 B(  2-C ,  3-C ) :   1.2239 B(  2-C ,  6-C ) :   1.0030
B(  3-C ,  4-C ) :   1.5788 B(  3-C ,  5-H ) :   0.9971 B(  4-C , 20-C ) :   1.0621
B(  6-C ,  7-H ) :   0.9415 B(  6-C ,  8-H ) :   0.9448 B(  6-C ,  9-C ) :   1.0489
B(  9-C , 10-H ) :   0.9538 B(  9-C , 11-H ) :   0.9592 B(  9-C , 12-C ) :   1.0748
B( 12-C , 13-H ) :   0.9783 B( 12-C , 14-H ) :   0.9697 B( 12-C , 15-H ) :   0.9712
B( 16-S , 17-C ) :   1.1319 B( 16-S , 20-C ) :   1.1202 B( 17-C , 18-C ) :   1.6299
B( 17-C , 33-H ) :   0.9690 B( 18-C , 19-C ) :   1.2210 B( 18-C , 21-H ) :   0.9836
B( 19-C , 20-C ) :   1.6373 B( 19-C , 22-C ) :   1.0245 B( 22-C , 23-H ) :   0.9300
B( 22-C , 24-H ) :   0.9373 B( 22-C , 25-C ) :   1.0555 B( 25-C , 26-H ) :   0.9585
B( 25-C , 27-H ) :   0.9455 B( 25-C , 28-C ) :   1.0821 B( 28-C , 29-H ) :   0.9745
B( 28-C , 30-H ) :   0.9734 B( 28-C , 31-H ) :   0.9746

Dispersion correction           -0.014507655
FINAL SINGLE POINT ENERGY     -1339.852143034633

DIPOLE MOMENT
-------------
                                X             Y             Z
Electronic contribution:    -22.26728     -18.37021      -7.31971
Nuclear contribution   :     22.73926      18.95840       7.48002
                        -----------------------------------------
Total Dipole Moment    :      0.47197       0.58819       0.16031
                        -----------------------------------------
Magnitude (a.u.)       :      0.77099
Magnitude (Debye)      :      1.95971

Rotational constants in cm-1:     0.017196     0.009613     0.006579
Rotational constants in MHz :   515.510348   288.180792   197.219053

                             ****ORCA TERMINATED NORMALLY****
TOTAL RUN TIME: 0 days 0 hours 0 minutes 22 seconds 26 msec
