                         Program Version 4.2.1 -  RELEASE  -
|  1> ! wB97X-D3 SP def2-SVP
|  2> %pal
|  3> nprocs 24
|  4> end
|  5>
|  6> * xyz 0 1
|  7> S 	 -100.924 	 60.0283 	 -97.3868
|  8> C 	 -102.41 	 59.3054 	 -98.0884
|  9> C 	 -102.494 	 59.3101 	 -99.4665
| 10> C 	 -101.204 	 59.8457 	 -99.9794
| 11> C 	 -100.254 	 60.1323 	 -98.9912
| 12> H 	 -100.93 	 59.8989 	 -101.025
| 13> C 	 -103.662 	 58.8785 	 -100.316
| 14> H 	 -104.22 	 59.7768 	 -100.386
| 15> H 	 -104.327 	 58.1964 	 -99.7548
| 16> C 	 -103.235 	 58.3805 	 -101.703
| 17> H 	 -102.597 	 59.1093 	 -102.281
| 18> H 	 -102.694 	 57.4523 	 -101.551
| 19> C 	 -104.406 	 58.1095 	 -102.656
| 20> H 	 -105.247 	 57.7444 	 -102.102
| 21> H 	 -104.77 	 59.0226 	 -103.13
| 22> H 	 -104.236 	 57.3464 	 -103.472
| 23> S 	 -98.5537 	 61.9002 	 -100.402
| 24> C 	 -96.8524 	 61.8754 	 -100.054
| 25> C 	 -96.5617 	 60.9134 	 -99.1146
| 26> C 	 -97.6934 	 60.1771 	 -98.6216
| 27> C 	 -98.8778 	 60.5694 	 -99.2798
| 28> H 	 -95.5541 	 60.7157 	 -98.795
| 29> C 	 -97.4958 	 59.161 	 -97.5147
| 30> H 	 -98.3763 	 59.1776 	 -96.9332
| 31> H 	 -96.6442 	 59.4334 	 -96.8322
| 32> C 	 -97.2326 	 57.7098 	 -98.0601
| 33> H 	 -96.4248 	 57.8018 	 -98.7514
| 34> H 	 -98.0916 	 57.1954 	 -98.4298
| 35> C 	 -96.7313 	 56.7366 	 -97.0022
| 36> H 	 -96.6751 	 55.7534 	 -97.4162
| 37> H 	 -97.4202 	 56.78 	 -96.1522
| 38> H 	 -95.7674 	 57.0812 	 -96.612
| 39> H 	 -103.221 	 58.9538 	 -97.4414
| 40> H 	 -96.1697 	 62.3074 	 -100.782
| 41> *
| 42>
| 43>                          ****END OF INPUT****

CARTESIAN COORDINATES (ANGSTROEM)
---------------------------------
  S    -100.924000   60.028300  -97.386800
  C    -102.410000   59.305400  -98.088400
  C    -102.494000   59.310100  -99.466500
  C    -101.204000   59.845700  -99.979400
  C    -100.254000   60.132300  -98.991200
  H    -100.930000   59.898900  -101.025000
  C    -103.662000   58.878500  -100.316000
  H    -104.220000   59.776800  -100.386000
  H    -104.327000   58.196400  -99.754800
  C    -103.235000   58.380500  -101.703000
  H    -102.597000   59.109300  -102.281000
  H    -102.694000   57.452300  -101.551000
  C    -104.406000   58.109500  -102.656000
  H    -105.247000   57.744400  -102.102000
  H    -104.770000   59.022600  -103.130000
  H    -104.236000   57.346400  -103.472000
  S    -98.553700   61.900200  -100.402000
  C    -96.852400   61.875400  -100.054000
  C    -96.561700   60.913400  -99.114600
  C    -97.693400   60.177100  -98.621600
  C    -98.877800   60.569400  -99.279800
  H    -95.554100   60.715700  -98.795000
  C    -97.495800   59.161000  -97.514700
  H    -98.376300   59.177600  -96.933200
  H    -96.644200   59.433400  -96.832200
  C    -97.232600   57.709800  -98.060100
  H    -96.424800   57.801800  -98.751400
  H    -98.091600   57.195400  -98.429800
  C    -96.731300   56.736600  -97.002200
  H    -96.675100   55.753400  -97.416200
  H    -97.420200   56.780000  -96.152200
  H    -95.767400   57.081200  -96.612000
  H    -103.221000   58.953800  -97.441400
  H    -96.169700   62.307400  -100.782000

 Total Charge           Charge          ....    0
 Multiplicity           Mult            ....    1
 Number of Electrons    NEL             ....  134
 Basis Dimension        Dim             ....  322

ORBITAL ENERGIES
----------------

  NO   OCC          E(Eh)            E(eV)
   0   2.0000     -88.968845     -2420.9653
   1   2.0000     -88.964316     -2420.8421
   2   2.0000     -10.330798      -281.1153
   3   2.0000     -10.329897      -281.0908
   4   2.0000     -10.316706      -280.7318
   5   2.0000     -10.314959      -280.6843
   6   2.0000     -10.309498      -280.5357
   7   2.0000     -10.304075      -280.3881
   8   2.0000     -10.298870      -280.2465
   9   2.0000     -10.298794      -280.2444
  10   2.0000     -10.294811      -280.1361
  11   2.0000     -10.292215      -280.0654
  12   2.0000     -10.291432      -280.0441
  13   2.0000     -10.280944      -279.7587
  14   2.0000     -10.277653      -279.6692
  15   2.0000     -10.271344      -279.4975
  16   2.0000      -8.082622      -219.9393
  17   2.0000      -8.078891      -219.8378
  18   2.0000      -6.041229      -164.3902
  19   2.0000      -6.037481      -164.2882
  20   2.0000      -6.037441      -164.2871
  21   2.0000      -6.033337      -164.1755
  22   2.0000      -6.033115      -164.1694
  23   2.0000      -6.029710      -164.0768
  24   2.0000      -0.999130       -27.1877
  25   2.0000      -0.977307       -26.5939
  26   2.0000      -0.915900       -24.9229
  27   2.0000      -0.905894       -24.6506
  28   2.0000      -0.866463       -23.5777
  29   2.0000      -0.851970       -23.1833
  30   2.0000      -0.843768       -22.9601
  31   2.0000      -0.808876       -22.0106
  32   2.0000      -0.784191       -21.3389
  33   2.0000      -0.770577       -20.9685
  34   2.0000      -0.709642       -19.3103
  35   2.0000      -0.694616       -18.9015
  36   2.0000      -0.684628       -18.6297
  37   2.0000      -0.663007       -18.0413
  38   2.0000      -0.632675       -17.2160
  39   2.0000      -0.616173       -16.7669
  40   2.0000      -0.596809       -16.2400
  41   2.0000      -0.572922       -15.5900
  42   2.0000      -0.570720       -15.5301
  43   2.0000      -0.560805       -15.2603
  44   2.0000      -0.528302       -14.3758
  45   2.0000      -0.524361       -14.2686
  46   2.0000      -0.515001       -14.0139
  47   2.0000      -0.510734       -13.8978
  48   2.0000      -0.505090       -13.7442
  49   2.0000      -0.500351       -13.6153
  50   2.0000      -0.486569       -13.2402
  51   2.0000      -0.481835       -13.1114
  52   2.0000      -0.468797       -12.7566
  53   2.0000      -0.459194       -12.4953
  54   2.0000      -0.455045       -12.3824
  55   2.0000      -0.450132       -12.2487
  56   2.0000      -0.441210       -12.0059
  57   2.0000      -0.433927       -11.8078
  58   2.0000      -0.429852       -11.6969
  59   2.0000      -0.428411       -11.6577
  60   2.0000      -0.426276       -11.5995
  61   2.0000      -0.421079       -11.4581
  62   2.0000      -0.416649       -11.3376
  63   2.0000      -0.342236        -9.3127
  64   2.0000      -0.328621        -8.9422
  65   2.0000      -0.328489        -8.9386
  66   2.0000      -0.291522        -7.9327
  67   0.0000       0.026054         0.7090
  68   0.0000       0.077098         2.0979
  69   0.0000       0.103282         2.8105
  70   0.0000       0.114338         3.1113
  71   0.0000       0.125466         3.4141

MULLIKEN ATOMIC CHARGES
-----------------------
   0 S :    0.111527
   1 C :   -0.153757
   2 C :   -0.074239
   3 C :   -0.007382
   4 C :   -0.131153
   5 H :    0.011778
   6 C :    0.100793
   7 H :    0.034341
   8 H :    0.030733
   9 C :   -0.114908
  10 H :    0.054776
  11 H :    0.041945
  12 C :   -0.048382
  13 H :    0.014481
  14 H :    0.031143
  15 H :    0.045081
  16 S :    0.102202
  17 C :   -0.098477
  18 C :   -0.026737
  19 C :   -0.058169
  20 C :   -0.149004
  21 H :    0.013074
  22 C :    0.077745
  23 H :    0.002631
  24 H :    0.031298
  25 C :   -0.054598
  26 H :    0.019150
  27 H :    0.034785
  28 C :   -0.039937
  29 H :    0.037104
  30 H :    0.024455
  31 H :    0.018913
  32 H :    0.046538
  33 H :    0.072250
Sum of atomic charges:    0.0000000

LOEWDIN ATOMIC CHARGES
----------------------
   0 S :    0.395266
   1 C :   -0.190320
   2 C :   -0.051432
   3 C :   -0.062830
   4 C :   -0.194306
   5 H :    0.024996
   6 C :   -0.030459
   7 H :    0.034604
   8 H :    0.036741
   9 C :   -0.043557
  10 H :    0.034118
  11 H :    0.027858
  12 C :   -0.071053
  13 H :    0.018025
  14 H :    0.024533
  15 H :    0.034611
  16 S :    0.404833
  17 C :   -0.195734
  18 C :   -0.066717
  19 C :   -0.054262
  20 C :   -0.195328
  21 H :    0.027361
  22 C :   -0.030914
  23 H :    0.010161
  24 H :    0.037050
  25 C :   -0.029945
  26 H :    0.018448
  27 H :    0.024988
  28 C :   -0.060762
  29 H :    0.023863
  30 H :    0.023164
  31 H :    0.019302
  32 H :    0.025428
  33 H :    0.032268

  Mayer bond orders larger than 0.100000
B(  0-S ,  1-C ) :   1.1175 B(  0-S ,  4-C ) :   1.1345 B(  1-C ,  2-C ) :   1.6567
B(  1-C , 32-H ) :   0.9638 B(  2-C ,  3-C ) :   1.1969 B(  2-C ,  6-C ) :   1.0146
B(  3-C ,  4-C ) :   1.5941 B(  3-C ,  5-H ) :   0.9898 B(  4-C , 20-C ) :   1.0594
B(  6-C ,  7-H ) :   0.9254 B(  6-C ,  8-H ) :   0.9367 B(  6-C ,  9-C ) :   1.0665
B(  9-C , 10-H ) :   0.9519 B(  9-C , 11-H ) :   0.9615 B(  9-C , 12-C ) :   1.0784
B( 12-C , 13-H ) :   0.9724 B( 12-C , 14-H ) :   0.9764 B( 12-C , 15-H ) :   0.9753
B( 16-S , 17-C ) :   1.1569 B( 16-S , 20-C ) :   1.1448 B( 17-C , 18-C ) :   1.5907
B( 17-C , 33-H ) :   0.9618 B( 18-C , 19-C ) :   1.2630 B( 18-C , 21-H ) :   0.9899
B( 19-C , 20-C ) :   1.5534 B( 19-C , 22-C ) :   1.0498 B( 22-C , 23-H ) :   0.9149
B( 22-C , 24-H ) :   0.9427 B( 22-C , 25-C ) :   1.0622 B( 25-C , 26-H ) :   0.9603
B( 25-C , 27-H ) :   0.9573 B( 25-C , 28-C ) :   1.0896 B( 28-C , 29-H ) :   0.9750
B( 28-C , 30-H ) :   0.9737 B( 28-C , 31-H ) :   0.9744

Dispersion correction           -0.013610115
FINAL SINGLE POINT ENERGY     -1339.883166253040

DIPOLE MOMENT
-------------
                                X             Y             Z
Electronic contribution:      4.62101      19.43333       4.89400
Nuclear contribution   :     -4.78822     -19.88237      -5.11962
                        -----------------------------------------
Total Dipole Moment    :     -0.16721      -0.44904      -0.22561
                        -----------------------------------------
Magnitude (a.u.)       :      0.52962
Magnitude (Debye)      :      1.34620

Rotational constants in cm-1:     0.017824     0.007833     0.006706
Rotational constants in MHz :   534.362263   234.840480   201.035295

                             ****ORCA TERMINATED NORMALLY****
TOTAL RUN TIME: 0 days 0 hours 0 minutes 21 seconds 929 msec
