                         Program Version 4.2.1 -  RELEASE  -
|  1> ! wB97X-D3 SP def2-SVP
|  2> %pal
|  3> nprocs 24
|  4> end
|  5>
|  6> * xyz 0 1
|  7> S 	 -47.8211 	 -2.49295 	 21.2689
|  8> C 	 -49.3436 	 -2.87356 	 20.3385
|  9> C 	 -49.271 	 -4.01255 	 19.6193
| 10> C 	 -47.9702 	 -4.62352 	 19.7879
| 11> C 	 -47.0311 	 -3.90602 	 20.527
| 12> H 	 -47.6396 	 -5.51597 	 19.2848
| 13> C 	 -50.3892 	 -4.5772 	 18.7871
| 14> H 	 -51.2778 	 -4.45774 	 19.4699
| 15> H 	 -50.2592 	 -5.62364 	 18.5877
| 16> C 	 -50.6806 	 -3.90218 	 17.4658
| 17> H 	 -50.7211 	 -2.81409 	 17.6902
| 18> H 	 -49.8469 	 -4.09023 	 16.8102
| 19> C 	 -52.0101 	 -4.40182 	 16.883
| 20> H 	 -52.3294 	 -3.69299 	 16.053
| 21> H 	 -51.9586 	 -5.43068 	 16.5821
| 22> H 	 -52.9483 	 -4.30886 	 17.414
| 23> S 	 -45.0287 	 -5.73467 	 20.2401
| 24> C 	 -43.3767 	 -5.40491 	 20.8428
| 25> C 	 -43.258 	 -4.0515 	 20.8816
| 26> C 	 -44.5325 	 -3.35595 	 20.8676
| 27> C 	 -45.6391 	 -4.14543 	 20.6462
| 28> H 	 -42.3298 	 -3.61576 	 21.1681
| 29> C 	 -44.4535 	 -1.85532 	 21.0805
| 30> H 	 -44.2293 	 -1.62879 	 22.1361
| 31> H 	 -45.442 	 -1.41915 	 20.8261
| 32> C 	 -43.3946 	 -0.978833 	 20.2775
| 33> H 	 -43.5033 	 -1.15268 	 19.2325
| 34> H 	 -42.3264 	 -1.22441 	 20.5121
| 35> C 	 -43.4755 	 0.53285 	 20.5287
| 36> H 	 -42.5496 	 1.11537 	 20.1716
| 37> H 	 -43.5974 	 0.777086 	 21.6241
| 38> H 	 -44.2445 	 1.07868 	 19.9605
| 39> H 	 -50.2124 	 -2.28961 	 20.6022
| 40> H 	 -42.5855 	 -6.08344 	 20.913
| 41> *
| 42>
| 43>                          ****END OF INPUT****

CARTESIAN COORDINATES (ANGSTROEM)
---------------------------------
  S    -47.821100   -2.492950   21.268900
  C    -49.343600   -2.873560   20.338500
  C    -49.271000   -4.012550   19.619300
  C    -47.970200   -4.623520   19.787900
  C    -47.031100   -3.906020   20.527000
  H    -47.639600   -5.515970   19.284800
  C    -50.389200   -4.577200   18.787100
  H    -51.277800   -4.457740   19.469900
  H    -50.259200   -5.623640   18.587700
  C    -50.680600   -3.902180   17.465800
  H    -50.721100   -2.814090   17.690200
  H    -49.846900   -4.090230   16.810200
  C    -52.010100   -4.401820   16.883000
  H    -52.329400   -3.692990   16.053000
  H    -51.958600   -5.430680   16.582100
  H    -52.948300   -4.308860   17.414000
  S    -45.028700   -5.734670   20.240100
  C    -43.376700   -5.404910   20.842800
  C    -43.258000   -4.051500   20.881600
  C    -44.532500   -3.355950   20.867600
  C    -45.639100   -4.145430   20.646200
  H    -42.329800   -3.615760   21.168100
  C    -44.453500   -1.855320   21.080500
  H    -44.229300   -1.628790   22.136100
  H    -45.442000   -1.419150   20.826100
  C    -43.394600   -0.978833   20.277500
  H    -43.503300   -1.152680   19.232500
  H    -42.326400   -1.224410   20.512100
  C    -43.475500    0.532850   20.528700
  H    -42.549600    1.115370   20.171600
  H    -43.597400    0.777086   21.624100
  H    -44.244500    1.078680   19.960500
  H    -50.212400   -2.289610   20.602200
  H    -42.585500   -6.083440   20.913000

 Total Charge           Charge          ....    0
 Multiplicity           Mult            ....    1
 Number of Electrons    NEL             ....  134
 Basis Dimension        Dim             ....  322

ORBITAL ENERGIES
----------------

  NO   OCC          E(Eh)            E(eV)
   0   2.0000     -88.966220     -2420.8939
   1   2.0000     -88.958883     -2420.6943
   2   2.0000     -10.335836      -281.2524
   3   2.0000     -10.329934      -281.0918
   4   2.0000     -10.318754      -280.7876
   5   2.0000     -10.316773      -280.7337
   6   2.0000     -10.306774      -280.4616
   7   2.0000     -10.304754      -280.4066
   8   2.0000     -10.297037      -280.1966
   9   2.0000     -10.295624      -280.1582
  10   2.0000     -10.292860      -280.0830
  11   2.0000     -10.292652      -280.0773
  12   2.0000     -10.291518      -280.0464
  13   2.0000     -10.290480      -280.0182
  14   2.0000     -10.287967      -279.9498
  15   2.0000     -10.282653      -279.8052
  16   2.0000      -8.079341      -219.8500
  17   2.0000      -8.073583      -219.6934
  18   2.0000      -6.038087      -164.3047
  19   2.0000      -6.034150      -164.1976
  20   2.0000      -6.032490      -164.1524
  21   2.0000      -6.029855      -164.0807
  22   2.0000      -6.028262      -164.0373
  23   2.0000      -6.023757      -163.9148
  24   2.0000      -1.007073       -27.4038
  25   2.0000      -0.980815       -26.6893
  26   2.0000      -0.917937       -24.9783
  27   2.0000      -0.897941       -24.4342
  28   2.0000      -0.878887       -23.9157
  29   2.0000      -0.849348       -23.1119
  30   2.0000      -0.840832       -22.8802
  31   2.0000      -0.815935       -22.2027
  32   2.0000      -0.783771       -21.3275
  33   2.0000      -0.767417       -20.8825
  34   2.0000      -0.712587       -19.3905
  35   2.0000      -0.706185       -19.2163
  36   2.0000      -0.695939       -18.9375
  37   2.0000      -0.669415       -18.2157
  38   2.0000      -0.637924       -17.3588
  39   2.0000      -0.614936       -16.7333
  40   2.0000      -0.596128       -16.2215
  41   2.0000      -0.583209       -15.8699
  42   2.0000      -0.563368       -15.3300
  43   2.0000      -0.562760       -15.3135
  44   2.0000      -0.524957       -14.2848
  45   2.0000      -0.522564       -14.2197
  46   2.0000      -0.519361       -14.1325
  47   2.0000      -0.516147       -14.0451
  48   2.0000      -0.510690       -13.8966
  49   2.0000      -0.505855       -13.7650
  50   2.0000      -0.485288       -13.2054
  51   2.0000      -0.478413       -13.0183
  52   2.0000      -0.469687       -12.7808
  53   2.0000      -0.466650       -12.6982
  54   2.0000      -0.459219       -12.4960
  55   2.0000      -0.449323       -12.2267
  56   2.0000      -0.442088       -12.0298
  57   2.0000      -0.432562       -11.7706
  58   2.0000      -0.426600       -11.6084
  59   2.0000      -0.424472       -11.5505
  60   2.0000      -0.417990       -11.3741
  61   2.0000      -0.408399       -11.1131
  62   2.0000      -0.407699       -11.0941
  63   2.0000      -0.367438        -9.9985
  64   2.0000      -0.331824        -9.0294
  65   2.0000      -0.322630        -8.7792
  66   2.0000      -0.283836        -7.7236
  67   0.0000       0.014166         0.3855
  68   0.0000       0.077368         2.1053
  69   0.0000       0.098561         2.6820
  70   0.0000       0.108360         2.9486
  71   0.0000       0.134907         3.6710

MULLIKEN ATOMIC CHARGES
-----------------------
   0 S :    0.086023
   1 C :   -0.150471
   2 C :   -0.027396
   3 C :   -0.004695
   4 C :   -0.129565
   5 H :    0.010079
   6 C :    0.038554
   7 H :    0.036828
   8 H :    0.017708
   9 C :   -0.044140
  10 H :    0.030848
  11 H :    0.034838
  12 C :   -0.059665
  13 H :    0.036489
  14 H :    0.035331
  15 H :    0.024615
  16 S :    0.052379
  17 C :   -0.052727
  18 C :   -0.006112
  19 C :   -0.072003
  20 C :   -0.074530
  21 H :    0.015499
  22 C :    0.027727
  23 H :    0.041267
  24 H :    0.031845
  25 C :   -0.066647
  26 H :    0.029795
  27 H :    0.032844
  28 C :   -0.105067
  29 H :    0.041071
  30 H :    0.039769
  31 H :    0.037261
  32 H :    0.050738
  33 H :    0.041509
Sum of atomic charges:    0.0000000

LOEWDIN ATOMIC CHARGES
----------------------
   0 S :    0.369230
   1 C :   -0.167303
   2 C :   -0.058583
   3 C :   -0.065717
   4 C :   -0.171033
   5 H :    0.022058
   6 C :   -0.034452
   7 H :    0.039459
   8 H :    0.025730
   9 C :   -0.035518
  10 H :    0.027867
  11 H :    0.026971
  12 C :   -0.075423
  13 H :    0.037450
  14 H :    0.023581
  15 H :    0.025461
  16 S :    0.375013
  17 C :   -0.147594
  18 C :   -0.061778
  19 C :   -0.062270
  20 C :   -0.188486
  21 H :    0.026668
  22 C :   -0.041366
  23 H :    0.033734
  24 H :    0.019933
  25 C :   -0.042608
  26 H :    0.020970
  27 H :    0.025355
  28 C :   -0.080870
  29 H :    0.035696
  30 H :    0.028794
  31 H :    0.024020
  32 H :    0.023630
  33 H :    0.021382

  Mayer bond orders larger than 0.100000
B(  0-S ,  1-C ) :   1.1073 B(  0-S ,  4-C ) :   1.1219 B(  1-C ,  2-C ) :   1.6402
B(  1-C , 32-H ) :   0.9690 B(  2-C ,  3-C ) :   1.2243 B(  2-C ,  6-C ) :   1.0143
B(  3-C ,  4-C ) :   1.5735 B(  3-C ,  5-H ) :   0.9840 B(  4-C , 20-C ) :   1.1282
B(  6-C ,  7-H ) :   0.9425 B(  6-C ,  8-H ) :   0.9398 B(  6-C ,  9-C ) :   1.0686
B(  9-C , 10-H ) :   0.9560 B(  9-C , 11-H ) :   0.9521 B(  9-C , 12-C ) :   1.0779
B( 12-C , 13-H ) :   0.9717 B( 12-C , 14-H ) :   0.9749 B( 12-C , 15-H ) :   0.9748
B( 16-S , 17-C ) :   1.1269 B( 16-S , 20-C ) :   1.1015 B( 17-C , 18-C ) :   1.6393
B( 17-C , 33-H ) :   0.9766 B( 18-C , 19-C ) :   1.2095 B( 18-C , 21-H ) :   0.9902
B( 19-C , 20-C ) :   1.5833 B( 19-C , 22-C ) :   1.0481 B( 22-C , 23-H ) :   0.9327
B( 22-C , 24-H ) :   0.9349 B( 22-C , 25-C ) :   1.0549 B( 25-C , 26-H ) :   0.9579
B( 25-C , 27-H ) :   0.9539 B( 25-C , 28-C ) :   1.0787 B( 28-C , 29-H ) :   0.9743
B( 28-C , 30-H ) :   0.9741 B( 28-C , 31-H ) :   0.9760

Dispersion correction           -0.013055966
FINAL SINGLE POINT ENERGY     -1339.861370342531

DIPOLE MOMENT
-------------
                                X             Y             Z
Electronic contribution:      6.77195     -12.33452      11.38311
Nuclear contribution   :     -6.81561      12.50248     -11.65272
                        -----------------------------------------
Total Dipole Moment    :     -0.04366       0.16796      -0.26961
                        -----------------------------------------
Magnitude (a.u.)       :      0.32063
Magnitude (Debye)      :      0.81499

Rotational constants in cm-1:     0.020546     0.007069     0.005887
Rotational constants in MHz :   615.948371   211.915387   176.477863

                             ****ORCA TERMINATED NORMALLY****
TOTAL RUN TIME: 0 days 0 hours 0 minutes 20 seconds 546 msec
