                         Program Version 4.2.1 -  RELEASE  -
|  1> ! wB97X-D3 SP def2-SVP
|  2> %pal
|  3> nprocs 24
|  4> end
|  5>
|  6> * xyz 0 1
|  7> S 	 -54.0086 	 16.7874 	 27.6567
|  8> C 	 -53.1648 	 17.0893 	 26.1114
|  9> C 	 -51.9082 	 17.6144 	 26.3507
| 10> C 	 -51.7795 	 17.9834 	 27.7272
| 11> C 	 -52.7617 	 17.5557 	 28.5816
| 12> H 	 -50.9258 	 18.5105 	 28.1088
| 13> C 	 -50.7483 	 17.9222 	 25.3425
| 14> H 	 -50.1849 	 18.6305 	 25.9364
| 15> H 	 -51.2556 	 18.4628 	 24.583
| 16> C 	 -49.9123 	 16.7122 	 24.9405
| 17> H 	 -50.2418 	 16.3711 	 23.9772
| 18> H 	 -48.8756 	 16.9967 	 24.7425
| 19> C 	 -49.8366 	 15.5644 	 25.9339
| 20> H 	 -50.646 	 14.8405 	 25.8676
| 21> H 	 -48.9086 	 14.982 	 25.8241
| 22> H 	 -49.7977 	 15.9553 	 26.9609
| 23> S 	 -52.8142 	 18.9377 	 30.8511
| 24> C 	 -52.412 	 18.3075 	 32.3926
| 25> C 	 -52.2421 	 16.9091 	 32.233
| 26> C 	 -52.2893 	 16.4785 	 30.8493
| 27> C 	 -52.7079 	 17.4874 	 30.0079
| 28> H 	 -52.0039 	 16.3279 	 33.079
| 29> C 	 -52.1306 	 14.9418 	 30.5445
| 30> H 	 -53.0491 	 14.3415 	 30.3929
| 31> H 	 -51.7568 	 14.5759 	 31.504
| 32> C 	 -51.1256 	 14.5751 	 29.44
| 33> H 	 -50.2727 	 15.3052 	 29.5701
| 34> H 	 -51.4344 	 14.8271 	 28.4166
| 35> C 	 -50.6035 	 13.1081 	 29.4462
| 36> H 	 -51.3189 	 12.3828 	 29.0283
| 37> H 	 -50.3244 	 12.7824 	 30.4364
| 38> H 	 -49.6783 	 12.9806 	 28.8506
| 39> H 	 -53.5315 	 16.7797 	 25.1436
| 40> H 	 -52.2763 	 18.8766 	 33.2965
| 41> *
| 42>
| 43>                          ****END OF INPUT****

CARTESIAN COORDINATES (ANGSTROEM)
---------------------------------
  S    -54.008600   16.787400   27.656700
  C    -53.164800   17.089300   26.111400
  C    -51.908200   17.614400   26.350700
  C    -51.779500   17.983400   27.727200
  C    -52.761700   17.555700   28.581600
  H    -50.925800   18.510500   28.108800
  C    -50.748300   17.922200   25.342500
  H    -50.184900   18.630500   25.936400
  H    -51.255600   18.462800   24.583000
  C    -49.912300   16.712200   24.940500
  H    -50.241800   16.371100   23.977200
  H    -48.875600   16.996700   24.742500
  C    -49.836600   15.564400   25.933900
  H    -50.646000   14.840500   25.867600
  H    -48.908600   14.982000   25.824100
  H    -49.797700   15.955300   26.960900
  S    -52.814200   18.937700   30.851100
  C    -52.412000   18.307500   32.392600
  C    -52.242100   16.909100   32.233000
  C    -52.289300   16.478500   30.849300
  C    -52.707900   17.487400   30.007900
  H    -52.003900   16.327900   33.079000
  C    -52.130600   14.941800   30.544500
  H    -53.049100   14.341500   30.392900
  H    -51.756800   14.575900   31.504000
  C    -51.125600   14.575100   29.440000
  H    -50.272700   15.305200   29.570100
  H    -51.434400   14.827100   28.416600
  C    -50.603500   13.108100   29.446200
  H    -51.318900   12.382800   29.028300
  H    -50.324400   12.782400   30.436400
  H    -49.678300   12.980600   28.850600
  H    -53.531500   16.779700   25.143600
  H    -52.276300   18.876600   33.296500

 Total Charge           Charge          ....    0
 Multiplicity           Mult            ....    1
 Number of Electrons    NEL             ....  134
 Basis Dimension        Dim             ....  322

ORBITAL ENERGIES
----------------

  NO   OCC          E(Eh)            E(eV)
   0   2.0000     -88.965378     -2420.8710
   1   2.0000     -88.964448     -2420.8457
   2   2.0000     -10.324644      -280.9478
   3   2.0000     -10.320026      -280.8222
   4   2.0000     -10.317865      -280.7634
   5   2.0000     -10.317549      -280.7548
   6   2.0000     -10.307168      -280.4723
   7   2.0000     -10.303422      -280.3704
   8   2.0000     -10.295633      -280.1584
   9   2.0000     -10.295441      -280.1532
  10   2.0000     -10.293979      -280.1134
  11   2.0000     -10.290608      -280.0217
  12   2.0000     -10.286459      -279.9088
  13   2.0000     -10.286143      -279.9002
  14   2.0000     -10.278443      -279.6907
  15   2.0000     -10.276815      -279.6464
  16   2.0000      -8.080938      -219.8935
  17   2.0000      -8.079553      -219.8558
  18   2.0000      -6.039249      -164.3363
  19   2.0000      -6.038135      -164.3060
  20   2.0000      -6.034816      -164.2157
  21   2.0000      -6.034004      -164.1936
  22   2.0000      -6.032166      -164.1436
  23   2.0000      -6.030391      -164.0953
  24   2.0000      -1.015114       -27.6227
  25   2.0000      -0.986709       -26.8497
  26   2.0000      -0.912846       -24.8398
  27   2.0000      -0.897240       -24.4151
  28   2.0000      -0.872581       -23.7441
  29   2.0000      -0.845908       -23.0183
  30   2.0000      -0.843029       -22.9400
  31   2.0000      -0.812073       -22.0976
  32   2.0000      -0.786088       -21.3905
  33   2.0000      -0.774268       -21.0689
  34   2.0000      -0.707282       -19.2461
  35   2.0000      -0.705303       -19.1923
  36   2.0000      -0.689000       -18.7486
  37   2.0000      -0.668343       -18.1865
  38   2.0000      -0.640789       -17.4368
  39   2.0000      -0.615238       -16.7415
  40   2.0000      -0.591927       -16.1072
  41   2.0000      -0.566898       -15.4261
  42   2.0000      -0.561832       -15.2882
  43   2.0000      -0.552514       -15.0347
  44   2.0000      -0.550358       -14.9760
  45   2.0000      -0.522325       -14.2132
  46   2.0000      -0.513708       -13.9787
  47   2.0000      -0.509521       -13.8648
  48   2.0000      -0.504176       -13.7193
  49   2.0000      -0.498493       -13.5647
  50   2.0000      -0.489041       -13.3075
  51   2.0000      -0.479445       -13.0464
  52   2.0000      -0.471180       -12.8214
  53   2.0000      -0.468638       -12.7523
  54   2.0000      -0.463947       -12.6247
  55   2.0000      -0.449520       -12.2321
  56   2.0000      -0.439905       -11.9704
  57   2.0000      -0.437863       -11.9148
  58   2.0000      -0.428565       -11.6618
  59   2.0000      -0.422941       -11.5088
  60   2.0000      -0.414210       -11.2712
  61   2.0000      -0.409086       -11.1318
  62   2.0000      -0.403911       -10.9910
  63   2.0000      -0.334908        -9.1133
  64   2.0000      -0.331568        -9.0224
  65   2.0000      -0.327848        -8.9212
  66   2.0000      -0.307111        -8.3569
  67   0.0000       0.039705         1.0804
  68   0.0000       0.061424         1.6714
  69   0.0000       0.116141         3.1604
  70   0.0000       0.122192         3.3250
  71   0.0000       0.125548         3.4163

MULLIKEN ATOMIC CHARGES
-----------------------
   0 S :    0.104743
   1 C :   -0.120530
   2 C :   -0.155510
   3 C :    0.045402
   4 C :   -0.157275
   5 H :    0.004622
   6 C :    0.133386
   7 H :    0.012332
   8 H :    0.032188
   9 C :   -0.055179
  10 H :    0.017857
  11 H :    0.028293
  12 C :   -0.044862
  13 H :    0.040368
  14 H :    0.030848
  15 H :    0.028887
  16 S :    0.122854
  17 C :   -0.104266
  18 C :   -0.030269
  19 C :   -0.031221
  20 C :   -0.155073
  21 H :    0.009428
  22 C :    0.089988
  23 H :    0.045854
  24 H :    0.000850
  25 C :   -0.115084
  26 H :    0.030613
  27 H :    0.038914
  28 C :   -0.045736
  29 H :    0.037507
  30 H :    0.020026
  31 H :    0.033178
  32 H :    0.044650
  33 H :    0.062218
Sum of atomic charges:   -0.0000000

LOEWDIN ATOMIC CHARGES
----------------------
   0 S :    0.403980
   1 C :   -0.186529
   2 C :   -0.060177
   3 C :   -0.062127
   4 C :   -0.208020
   5 H :    0.025401
   6 C :   -0.019671
   7 H :    0.029478
   8 H :    0.030724
   9 C :   -0.043623
  10 H :    0.021482
  11 H :    0.029461
  12 C :   -0.067638
  13 H :    0.024918
  14 H :    0.029361
  15 H :    0.028273
  16 S :    0.466080
  17 C :   -0.204042
  18 C :   -0.067247
  19 C :   -0.055637
  20 C :   -0.229564
  21 H :    0.021849
  22 C :   -0.029909
  23 H :    0.033650
  24 H :    0.026749
  25 C :   -0.051574
  26 H :    0.026429
  27 H :    0.022837
  28 C :   -0.068470
  29 H :    0.026714
  30 H :    0.018894
  31 H :    0.030611
  32 H :    0.025930
  33 H :    0.031406

  Mayer bond orders larger than 0.100000
B(  0-S ,  1-C ) :   1.1382 B(  0-S ,  4-C ) :   1.1443 B(  1-C ,  2-C ) :   1.6103
B(  1-C , 32-H ) :   0.9742 B(  2-C ,  3-C ) :   1.2555 B(  2-C ,  6-C ) :   0.9930
B(  3-C ,  4-C ) :   1.5968 B(  3-C ,  5-H ) :   0.9884 B(  4-C , 20-C ) :   0.9985
B(  6-C ,  7-H ) :   0.9350 B(  6-C ,  8-H ) :   0.9459 B(  6-C ,  9-C ) :   1.0602
B(  9-C , 10-H ) :   0.9533 B(  9-C , 11-H ) :   0.9576 B(  9-C , 12-C ) :   1.0984
B( 12-C , 13-H ) :   0.9675 B( 12-C , 14-H ) :   0.9699 B( 12-C , 15-H ) :   0.9682
B( 16-S , 17-C ) :   1.1917 B( 16-S , 20-C ) :   1.1805 B( 17-C , 18-C ) :   1.5470
B( 17-C , 20-C ) :   0.1008 B( 17-C , 33-H ) :   0.9740 B( 18-C , 19-C ) :   1.2882
B( 18-C , 21-H ) :   0.9925 B( 19-C , 20-C ) :   1.5576 B( 19-C , 22-C ) :   1.0264
B( 22-C , 23-H ) :   0.9460 B( 22-C , 24-H ) :   0.9308 B( 22-C , 25-C ) :   1.0505
B( 25-C , 26-H ) :   0.9560 B( 25-C , 27-H ) :   0.9497 B( 25-C , 28-C ) :   1.0811
B( 28-C , 29-H ) :   0.9751 B( 28-C , 30-H ) :   0.9756 B( 28-C , 31-H ) :   0.9745

Dispersion correction           -0.016667875
FINAL SINGLE POINT ENERGY     -1339.875817775750

DIPOLE MOMENT
-------------
                                X             Y             Z
Electronic contribution:    -19.02426      18.09483      10.19280
Nuclear contribution   :     19.61897     -18.33597     -10.35792
                        -----------------------------------------
Total Dipole Moment    :      0.59470      -0.24114      -0.16513
                        -----------------------------------------
Magnitude (a.u.)       :      0.66263
Magnitude (Debye)      :      1.68428

Rotational constants in cm-1:     0.018342     0.010199     0.008094
Rotational constants in MHz :   549.875113   305.749581   242.640742

                             ****ORCA TERMINATED NORMALLY****
TOTAL RUN TIME: 0 days 0 hours 0 minutes 22 seconds 146 msec
