                         Program Version 4.2.1 -  RELEASE  -
|  1> ! wB97X-D3 SP def2-SVP
|  2> %pal
|  3> nprocs 24
|  4> end
|  5>
|  6> * xyz 0 1
|  7> S 	 -41.9435 	 16.3189 	 -101.401
|  8> C 	 -43.3693 	 16.2235 	 -100.383
|  9> C 	 -44.5332 	 16.6197 	 -101.036
| 10> C 	 -44.2636 	 16.9461 	 -102.393
| 11> C 	 -42.9385 	 16.7662 	 -102.794
| 12> H 	 -44.9784 	 17.3116 	 -103.123
| 13> C 	 -45.9816 	 16.5706 	 -100.465
| 14> H 	 -46.0786 	 15.8178 	 -99.7331
| 15> H 	 -46.6127 	 16.322 	 -101.303
| 16> C 	 -46.5172 	 17.8161 	 -99.748
| 17> H 	 -46.3647 	 18.677 	 -100.349
| 18> H 	 -47.6003 	 17.8249 	 -99.642
| 19> C 	 -45.803 	 18.1641 	 -98.3808
| 20> H 	 -45.6768 	 17.371 	 -97.5683
| 21> H 	 -44.7813 	 18.4618 	 -98.6178
| 22> H 	 -46.3609 	 18.9984 	 -97.8511
| 23> S 	 -41.3646 	 18.6236 	 -104.14
| 24> C 	 -41.1162 	 18.3352 	 -105.9
| 25> C 	 -41.7854 	 17.2314 	 -106.333
| 26> C 	 -42.4987 	 16.5439 	 -105.324
| 27> C 	 -42.3177 	 17.1174 	 -104.066
| 28> H 	 -41.8108 	 16.9012 	 -107.36
| 29> C 	 -43.4059 	 15.4279 	 -105.633
| 30> H 	 -44.1011 	 15.8141 	 -106.375
| 31> H 	 -44.0356 	 15.2041 	 -104.786
| 32> C 	 -42.674 	 14.1291 	 -106.061
| 33> H 	 -42.1757 	 14.1987 	 -107.054
| 34> H 	 -43.3731 	 13.3386 	 -106.414
| 35> C 	 -41.827 	 13.5354 	 -104.917
| 36> H 	 -41.5042 	 12.5567 	 -105.191
| 37> H 	 -42.2285 	 13.364 	 -103.984
| 38> H 	 -41.0028 	 14.16 	 -104.697
| 39> H 	 -43.4017 	 15.8256 	 -99.3586
| 40> H 	 -40.288 	 18.9037 	 -106.439
| 41> *
| 42>
| 43>                          ****END OF INPUT****

CARTESIAN COORDINATES (ANGSTROEM)
---------------------------------
  S    -41.943500   16.318900  -101.401000
  C    -43.369300   16.223500  -100.383000
  C    -44.533200   16.619700  -101.036000
  C    -44.263600   16.946100  -102.393000
  C    -42.938500   16.766200  -102.794000
  H    -44.978400   17.311600  -103.123000
  C    -45.981600   16.570600  -100.465000
  H    -46.078600   15.817800  -99.733100
  H    -46.612700   16.322000  -101.303000
  C    -46.517200   17.816100  -99.748000
  H    -46.364700   18.677000  -100.349000
  H    -47.600300   17.824900  -99.642000
  C    -45.803000   18.164100  -98.380800
  H    -45.676800   17.371000  -97.568300
  H    -44.781300   18.461800  -98.617800
  H    -46.360900   18.998400  -97.851100
  S    -41.364600   18.623600  -104.140000
  C    -41.116200   18.335200  -105.900000
  C    -41.785400   17.231400  -106.333000
  C    -42.498700   16.543900  -105.324000
  C    -42.317700   17.117400  -104.066000
  H    -41.810800   16.901200  -107.360000
  C    -43.405900   15.427900  -105.633000
  H    -44.101100   15.814100  -106.375000
  H    -44.035600   15.204100  -104.786000
  C    -42.674000   14.129100  -106.061000
  H    -42.175700   14.198700  -107.054000
  H    -43.373100   13.338600  -106.414000
  C    -41.827000   13.535400  -104.917000
  H    -41.504200   12.556700  -105.191000
  H    -42.228500   13.364000  -103.984000
  H    -41.002800   14.160000  -104.697000
  H    -43.401700   15.825600  -99.358600
  H    -40.288000   18.903700  -106.439000

 Total Charge           Charge          ....    0
 Multiplicity           Mult            ....    1
 Number of Electrons    NEL             ....  134
 Basis Dimension        Dim             ....  322

ORBITAL ENERGIES
----------------

  NO   OCC          E(Eh)            E(eV)
   0   2.0000     -88.969016     -2420.9700
   1   2.0000     -88.963520     -2420.8205
   2   2.0000     -10.330083      -281.0958
   3   2.0000     -10.326829      -281.0073
   4   2.0000     -10.325052      -280.9589
   5   2.0000     -10.318913      -280.7919
   6   2.0000     -10.305654      -280.4311
   7   2.0000     -10.299124      -280.2534
   8   2.0000     -10.297388      -280.2062
   9   2.0000     -10.293501      -280.1004
  10   2.0000     -10.292273      -280.0670
  11   2.0000     -10.292164      -280.0640
  12   2.0000     -10.288448      -279.9629
  13   2.0000     -10.287853      -279.9467
  14   2.0000     -10.287182      -279.9284
  15   2.0000     -10.260947      -279.2146
  16   2.0000      -8.083174      -219.9544
  17   2.0000      -8.077278      -219.7939
  18   2.0000      -6.041669      -164.4022
  19   2.0000      -6.037725      -164.2948
  20   2.0000      -6.035869      -164.2443
  21   2.0000      -6.034016      -164.1939
  22   2.0000      -6.032062      -164.1407
  23   2.0000      -6.027853      -164.0262
  24   2.0000      -1.001578       -27.2543
  25   2.0000      -0.979916       -26.6649
  26   2.0000      -0.907345       -24.6901
  27   2.0000      -0.905523       -24.6405
  28   2.0000      -0.865366       -23.5478
  29   2.0000      -0.847700       -23.0671
  30   2.0000      -0.843916       -22.9641
  31   2.0000      -0.809641       -22.0314
  32   2.0000      -0.784815       -21.3559
  33   2.0000      -0.773113       -21.0375
  34   2.0000      -0.711510       -19.3612
  35   2.0000      -0.700776       -19.0691
  36   2.0000      -0.693762       -18.8782
  37   2.0000      -0.659431       -17.9440
  38   2.0000      -0.641961       -17.4686
  39   2.0000      -0.617706       -16.8086
  40   2.0000      -0.596012       -16.2183
  41   2.0000      -0.564176       -15.3520
  42   2.0000      -0.557436       -15.1686
  43   2.0000      -0.547406       -14.8957
  44   2.0000      -0.538337       -14.6489
  45   2.0000      -0.532533       -14.4910
  46   2.0000      -0.513473       -13.9723
  47   2.0000      -0.503184       -13.6923
  48   2.0000      -0.500015       -13.6061
  49   2.0000      -0.490138       -13.3373
  50   2.0000      -0.482233       -13.1222
  51   2.0000      -0.482136       -13.1196
  52   2.0000      -0.473214       -12.8768
  53   2.0000      -0.466089       -12.6829
  54   2.0000      -0.458403       -12.4738
  55   2.0000      -0.447015       -12.1639
  56   2.0000      -0.445962       -12.1352
  57   2.0000      -0.435354       -11.8466
  58   2.0000      -0.429710       -11.6930
  59   2.0000      -0.429137       -11.6774
  60   2.0000      -0.426421       -11.6035
  61   2.0000      -0.415215       -11.2986
  62   2.0000      -0.404994       -11.0205
  63   2.0000      -0.341710        -9.2984
  64   2.0000      -0.330641        -8.9972
  65   2.0000      -0.325629        -8.8608
  66   2.0000      -0.300708        -8.1827
  67   0.0000       0.034075         0.9272
  68   0.0000       0.055955         1.5226
  69   0.0000       0.109242         2.9726
  70   0.0000       0.118250         3.2178
  71   0.0000       0.125508         3.4153

MULLIKEN ATOMIC CHARGES
-----------------------
   0 S :    0.117567
   1 C :   -0.123689
   2 C :   -0.097538
   3 C :    0.051145
   4 C :   -0.198357
   5 H :    0.015227
   6 C :    0.103098
   7 H :    0.013545
   8 H :    0.024701
   9 C :   -0.042411
  10 H :    0.016444
  11 H :    0.029893
  12 C :   -0.118475
  13 H :    0.035362
  14 H :    0.044469
  15 H :    0.046778
  16 S :    0.093931
  17 C :   -0.118852
  18 C :   -0.011726
  19 C :   -0.032474
  20 C :   -0.168329
  21 H :    0.016535
  22 C :    0.090294
  23 H :    0.030736
  24 H :    0.018536
  25 C :   -0.093360
  26 H :    0.026373
  27 H :    0.021139
  28 C :    0.011561
  29 H :    0.015434
  30 H :    0.010087
  31 H :    0.028553
  32 H :    0.055619
  33 H :    0.088186
Sum of atomic charges:   -0.0000000

LOEWDIN ATOMIC CHARGES
----------------------
   0 S :    0.403342
   1 C :   -0.196490
   2 C :   -0.065771
   3 C :   -0.056207
   4 C :   -0.196818
   5 H :    0.032636
   6 C :   -0.021230
   7 H :    0.024330
   8 H :    0.031567
   9 C :   -0.038552
  10 H :    0.020476
  11 H :    0.024476
  12 C :   -0.080802
  13 H :    0.025712
  14 H :    0.024869
  15 H :    0.033897
  16 S :    0.366645
  17 C :   -0.174420
  18 C :   -0.068111
  19 C :   -0.053893
  20 C :   -0.196019
  21 H :    0.032675
  22 C :   -0.032937
  23 H :    0.034823
  24 H :    0.029966
  25 C :   -0.044099
  26 H :    0.026056
  27 H :    0.025888
  28 C :   -0.056196
  29 H :    0.025001
  30 H :    0.018704
  31 H :    0.023401
  32 H :    0.032954
  33 H :    0.044126

  Mayer bond orders larger than 0.100000
B(  0-S ,  1-C ) :   1.1497 B(  0-S ,  4-C ) :   1.1467 B(  1-C ,  2-C ) :   1.6071
B(  1-C ,  4-C ) :   0.1038 B(  1-C , 32-H ) :   0.9611 B(  2-C ,  3-C ) :   1.2520
B(  2-C ,  6-C ) :   1.0105 B(  3-C ,  4-C ) :   1.5790 B(  3-C ,  5-H ) :   0.9906
B(  4-C , 20-C ) :   1.0269 B(  6-C ,  7-H ) :   0.9459 B(  6-C ,  8-H ) :   0.9413
B(  6-C ,  9-C ) :   1.0704 B(  9-C , 10-H ) :   0.9534 B(  9-C , 11-H ) :   0.9590
B(  9-C , 12-C ) :   1.0610 B( 12-C , 13-H ) :   0.9786 B( 12-C , 14-H ) :   0.9767
B( 12-C , 15-H ) :   0.9755 B( 16-S , 17-C ) :   1.1333 B( 16-S , 20-C ) :   1.1343
B( 17-C , 18-C ) :   1.6227 B( 17-C , 33-H ) :   0.9557 B( 18-C , 19-C ) :   1.2309
B( 18-C , 21-H ) :   0.9892 B( 19-C , 20-C ) :   1.5992 B( 19-C , 22-C ) :   1.0531
B( 22-C , 23-H ) :   0.9311 B( 22-C , 24-H ) :   0.9285 B( 22-C , 25-C ) :   1.0706
B( 25-C , 26-H ) :   0.9566 B( 25-C , 27-H ) :   0.9552 B( 25-C , 28-C ) :   1.0625
B( 28-C , 29-H ) :   0.9705 B( 28-C , 30-H ) :   0.9732 B( 28-C , 31-H ) :   0.9749

Dispersion correction           -0.015070554
FINAL SINGLE POINT ENERGY     -1339.875754237911

DIPOLE MOMENT
-------------
                                X             Y             Z
Electronic contribution:     15.66684       9.51451      -3.98439
Nuclear contribution   :    -16.19661      -9.76390       3.77099
                        -----------------------------------------
Total Dipole Moment    :     -0.52978      -0.24939      -0.21341
                        -----------------------------------------
Magnitude (a.u.)       :      0.62322
Magnitude (Debye)      :      1.58410

Rotational constants in cm-1:     0.022190     0.007727     0.006946
Rotational constants in MHz :   665.251446   231.662701   208.244141

                             ****ORCA TERMINATED NORMALLY****
TOTAL RUN TIME: 0 days 0 hours 0 minutes 21 seconds 721 msec
