                         Program Version 4.2.1 -  RELEASE  -
|  1> ! wB97X-D3 SP def2-SVP
|  2> %pal
|  3> nprocs 24
|  4> end
|  5>
|  6> * xyz 0 1
|  7> S 	 -120.525 	 13.8112 	 -12.5158
|  8> C 	 -119.336 	 13.5066 	 -11.2526
|  9> C 	 -119.141 	 12.1398 	 -11.0633
| 10> C 	 -119.854 	 11.3079 	 -11.9674
| 11> C 	 -120.719 	 12.0212 	 -12.8224
| 12> H 	 -119.925 	 10.1936 	 -12.1256
| 13> C 	 -118.329 	 11.5492 	 -9.92032
| 14> H 	 -118.502 	 10.4683 	 -9.74252
| 15> H 	 -118.629 	 12.0642 	 -9.03758
| 16> C 	 -116.817 	 11.7343 	 -10.0739
| 17> H 	 -116.353 	 11.3845 	 -10.9769
| 18> H 	 -116.682 	 12.8486 	 -9.9067
| 19> C 	 -116.099 	 11.1402 	 -8.91109
| 20> H 	 -116.466 	 11.4793 	 -7.98825
| 21> H 	 -116.162 	 9.98942 	 -8.94184
| 22> H 	 -115.022 	 11.3254 	 -8.99724
| 23> S 	 -121.408 	 11.8704 	 -15.5749
| 24> C 	 -122.626 	 10.7638 	 -16.0892
| 25> C 	 -123.152 	 10.0393 	 -15.0246
| 26> C 	 -122.556 	 10.3903 	 -13.7913
| 27> C 	 -121.595 	 11.4135 	 -13.8825
| 28> H 	 -123.999 	 9.29757 	 -15.087
| 29> C 	 -123.066 	 9.72634 	 -12.5365
| 30> H 	 -122.33 	 9.69413 	 -11.7378
| 31> H 	 -123.303 	 8.65499 	 -12.6959
| 32> C 	 -124.286 	 10.2734 	 -11.9776
| 33> H 	 -124.831 	 9.52124 	 -11.3713
| 34> H 	 -124.959 	 10.5313 	 -12.8035
| 35> C 	 -124.205 	 11.6127 	 -11.2997
| 36> H 	 -123.73 	 11.4565 	 -10.3738
| 37> H 	 -125.093 	 12.069 	 -11.2231
| 38> H 	 -123.521 	 12.3 	 -11.8524
| 39> H 	 -118.947 	 14.242 	 -10.5486
| 40> H 	 -122.84 	 10.5086 	 -17.219
| 41> *
| 42>
| 43>                          ****END OF INPUT****

CARTESIAN COORDINATES (ANGSTROEM)
---------------------------------
  S    -120.525000   13.811200  -12.515800
  C    -119.336000   13.506600  -11.252600
  C    -119.141000   12.139800  -11.063300
  C    -119.854000   11.307900  -11.967400
  C    -120.719000   12.021200  -12.822400
  H    -119.925000   10.193600  -12.125600
  C    -118.329000   11.549200   -9.920320
  H    -118.502000   10.468300   -9.742520
  H    -118.629000   12.064200   -9.037580
  C    -116.817000   11.734300  -10.073900
  H    -116.353000   11.384500  -10.976900
  H    -116.682000   12.848600   -9.906700
  C    -116.099000   11.140200   -8.911090
  H    -116.466000   11.479300   -7.988250
  H    -116.162000    9.989420   -8.941840
  H    -115.022000   11.325400   -8.997240
  S    -121.408000   11.870400  -15.574900
  C    -122.626000   10.763800  -16.089200
  C    -123.152000   10.039300  -15.024600
  C    -122.556000   10.390300  -13.791300
  C    -121.595000   11.413500  -13.882500
  H    -123.999000    9.297570  -15.087000
  C    -123.066000    9.726340  -12.536500
  H    -122.330000    9.694130  -11.737800
  H    -123.303000    8.654990  -12.695900
  C    -124.286000   10.273400  -11.977600
  H    -124.831000    9.521240  -11.371300
  H    -124.959000   10.531300  -12.803500
  C    -124.205000   11.612700  -11.299700
  H    -123.730000   11.456500  -10.373800
  H    -125.093000   12.069000  -11.223100
  H    -123.521000   12.300000  -11.852400
  H    -118.947000   14.242000  -10.548600
  H    -122.840000   10.508600  -17.219000

 Total Charge           Charge          ....    0
 Multiplicity           Mult            ....    1
 Number of Electrons    NEL             ....  134
 Basis Dimension        Dim             ....  322

ORBITAL ENERGIES
----------------

  NO   OCC          E(Eh)            E(eV)
   0   2.0000     -88.971292     -2421.0319
   1   2.0000     -88.969895     -2420.9939
   2   2.0000     -10.341735      -281.4129
   3   2.0000     -10.335348      -281.2391
   4   2.0000     -10.328303      -281.0474
   5   2.0000     -10.319631      -280.8114
   6   2.0000     -10.305867      -280.4369
   7   2.0000     -10.305373      -280.4234
   8   2.0000     -10.303188      -280.3640
   9   2.0000     -10.299561      -280.2653
  10   2.0000     -10.291505      -280.0461
  11   2.0000     -10.285427      -279.8807
  12   2.0000     -10.285018      -279.8696
  13   2.0000     -10.277373      -279.6615
  14   2.0000     -10.273834      -279.5652
  15   2.0000     -10.254353      -279.0351
  16   2.0000      -8.084679      -219.9953
  17   2.0000      -8.084078      -219.9790
  18   2.0000      -6.043179      -164.4433
  19   2.0000      -6.042672      -164.4295
  20   2.0000      -6.039019      -164.3301
  21   2.0000      -6.038845      -164.3253
  22   2.0000      -6.035593      -164.2368
  23   2.0000      -6.034854      -164.2167
  24   2.0000      -1.001743       -27.2588
  25   2.0000      -0.980519       -26.6813
  26   2.0000      -0.922285       -25.0967
  27   2.0000      -0.915842       -24.9213
  28   2.0000      -0.864759       -23.5313
  29   2.0000      -0.852638       -23.2015
  30   2.0000      -0.848073       -23.0772
  31   2.0000      -0.811506       -22.0822
  32   2.0000      -0.788219       -21.4485
  33   2.0000      -0.768947       -20.9241
  34   2.0000      -0.700086       -19.0503
  35   2.0000      -0.693779       -18.8787
  36   2.0000      -0.685361       -18.6496
  37   2.0000      -0.655347       -17.8329
  38   2.0000      -0.641264       -17.4497
  39   2.0000      -0.616932       -16.7876
  40   2.0000      -0.601420       -16.3655
  41   2.0000      -0.573331       -15.6011
  42   2.0000      -0.565252       -15.3813
  43   2.0000      -0.557649       -15.1744
  44   2.0000      -0.541605       -14.7378
  45   2.0000      -0.526984       -14.3400
  46   2.0000      -0.519102       -14.1255
  47   2.0000      -0.508996       -13.8505
  48   2.0000      -0.499884       -13.6025
  49   2.0000      -0.498054       -13.5527
  50   2.0000      -0.492796       -13.4097
  51   2.0000      -0.477959       -13.0059
  52   2.0000      -0.469417       -12.7735
  53   2.0000      -0.463041       -12.6000
  54   2.0000      -0.460039       -12.5183
  55   2.0000      -0.448799       -12.2124
  56   2.0000      -0.446133       -12.1399
  57   2.0000      -0.439694       -11.9647
  58   2.0000      -0.437223       -11.8974
  59   2.0000      -0.422539       -11.4979
  60   2.0000      -0.414251       -11.2723
  61   2.0000      -0.408027       -11.1030
  62   2.0000      -0.399190       -10.8625
  63   2.0000      -0.346802        -9.4370
  64   2.0000      -0.334822        -9.1110
  65   2.0000      -0.329931        -8.9779
  66   2.0000      -0.293192        -7.9782
  67   0.0000       0.027509         0.7486
  68   0.0000       0.059059         1.6071
  69   0.0000       0.109210         2.9718
  70   0.0000       0.116744         3.1768
  71   0.0000       0.130407         3.5486

MULLIKEN ATOMIC CHARGES
-----------------------
   0 S :    0.106957
   1 C :   -0.116180
   2 C :   -0.062453
   3 C :    0.026734
   4 C :   -0.177001
   5 H :    0.046212
   6 C :    0.056655
   7 H :    0.022948
   8 H :    0.019318
   9 C :   -0.081082
  10 H :    0.036816
  11 H :    0.027393
  12 C :   -0.043109
  13 H :    0.017056
  14 H :    0.028458
  15 H :    0.035640
  16 S :    0.122005
  17 C :   -0.132842
  18 C :   -0.045442
  19 C :   -0.046642
  20 C :   -0.167204
  21 H :    0.043327
  22 C :    0.090300
  23 H :    0.003920
  24 H :    0.021328
  25 C :   -0.092166
  26 H :    0.028530
  27 H :    0.009062
  28 C :    0.022149
  29 H :    0.010544
  30 H :    0.007025
  31 H :    0.024550
  32 H :    0.056768
  33 H :    0.100428
Sum of atomic charges:   -0.0000000

LOEWDIN ATOMIC CHARGES
----------------------
   0 S :    0.376587
   1 C :   -0.196797
   2 C :   -0.062801
   3 C :   -0.065316
   4 C :   -0.174631
   5 H :    0.046912
   6 C :   -0.029838
   7 H :    0.029667
   8 H :    0.027720
   9 C :   -0.040959
  10 H :    0.024056
  11 H :    0.029064
  12 C :   -0.065325
  13 H :    0.013997
  14 H :    0.027658
  15 H :    0.027878
  16 S :    0.422789
  17 C :   -0.212202
  18 C :   -0.081105
  19 C :   -0.054162
  20 C :   -0.206521
  21 H :    0.043030
  22 C :   -0.038302
  23 H :    0.024240
  24 H :    0.037456
  25 C :   -0.047571
  26 H :    0.025537
  27 H :    0.022607
  28 C :   -0.049585
  29 H :    0.016745
  30 H :    0.008419
  31 H :    0.031544
  32 H :    0.032995
  33 H :    0.056212

  Mayer bond orders larger than 0.100000
B(  0-S ,  1-C ) :   1.1333 B(  0-S ,  4-C ) :   1.1365 B(  1-C ,  2-C ) :   1.6079
B(  1-C ,  4-C ) :   0.1053 B(  1-C , 32-H ) :   0.9638 B(  2-C ,  3-C ) :   1.2378
B(  2-C ,  6-C ) :   1.0130 B(  3-C ,  4-C ) :   1.5844 B(  3-C ,  5-H ) :   0.9792
B(  4-C , 20-C ) :   1.0296 B(  6-C ,  7-H ) :   0.9522 B(  6-C ,  8-H ) :   0.9373
B(  6-C ,  9-C ) :   1.0644 B(  9-C , 10-H ) :   0.9598 B(  9-C , 11-H ) :   0.9516
B(  9-C , 12-C ) :   1.0962 B( 12-C , 13-H ) :   0.9717 B( 12-C , 14-H ) :   0.9698
B( 12-C , 15-H ) :   0.9719 B( 16-S , 17-C ) :   1.1807 B( 16-S , 20-C ) :   1.1469
B( 17-C , 18-C ) :   1.5660 B( 17-C , 33-H ) :   0.9497 B( 18-C , 19-C ) :   1.2894
B( 18-C , 21-H ) :   0.9786 B( 19-C , 20-C ) :   1.5603 B( 19-C , 22-C ) :   1.0528
B( 22-C , 23-H ) :   0.9266 B( 22-C , 24-H ) :   0.9245 B( 22-C , 25-C ) :   1.0884
B( 25-C , 26-H ) :   0.9509 B( 25-C , 27-H ) :   0.9498 B( 25-C , 28-C ) :   1.0836
B( 28-C , 29-H ) :   0.9708 B( 28-C , 30-H ) :   0.9717 B( 28-C , 31-H ) :   0.9680

Dispersion correction           -0.014598759
FINAL SINGLE POINT ENERGY     -1339.863099521362

DIPOLE MOMENT
-------------
                                X             Y             Z
Electronic contribution:     -3.88551      10.43192     -22.27697
Nuclear contribution   :      3.89967     -10.93483      22.67945
                        -----------------------------------------
Total Dipole Moment    :      0.01415      -0.50291       0.40248
                        -----------------------------------------
Magnitude (a.u.)       :      0.64429
Magnitude (Debye)      :      1.63765

Rotational constants in cm-1:     0.021329     0.007469     0.006796
Rotational constants in MHz :   639.431655   223.916829   203.745002

                             ****ORCA TERMINATED NORMALLY****
TOTAL RUN TIME: 0 days 0 hours 0 minutes 21 seconds 564 msec
