                         Program Version 4.2.1 -  RELEASE  -
|  1> ! wB97X-D3 SP def2-SVP
|  2> %pal
|  3> nprocs 24
|  4> end
|  5>
|  6> * xyz 0 1
|  7> S 	 -99.2955 	 7.70163 	 2.77889
|  8> C 	 -99.215 	 6.77212 	 1.25219
|  9> C 	 -98.2241 	 5.78963 	 1.27206
| 10> C 	 -97.4909 	 5.82317 	 2.53206
| 11> C 	 -97.9287 	 6.82721 	 3.42637
| 12> H 	 -96.9039 	 5.10705 	 3.03249
| 13> C 	 -97.8562 	 4.73282 	 0.294288
| 14> H 	 -98.7056 	 4.13292 	 0.108792
| 15> H 	 -97.0556 	 4.13756 	 0.717418
| 16> C 	 -97.3244 	 5.12406 	 -1.15032
| 17> H 	 -98.1462 	 5.54211 	 -1.65752
| 18> H 	 -96.5811 	 5.97336 	 -0.962743
| 19> C 	 -96.6248 	 4.06196 	 -1.92689
| 20> H 	 -95.6786 	 3.79852 	 -1.49367
| 21> H 	 -97.2171 	 3.15066 	 -2.09807
| 22> H 	 -96.473 	 4.42954 	 -2.95913
| 23> S 	 -98.4715 	 7.53037 	 6.13211
| 24> C 	 -97.0596 	 7.70406 	 7.17447
| 25> C 	 -95.8046 	 7.60431 	 6.4904
| 26> C 	 -96.0292 	 7.2939 	 5.11806
| 27> C 	 -97.3663 	 7.19325 	 4.73549
| 28> H 	 -94.8818 	 7.77251 	 7.00959
| 29> C 	 -94.8138 	 7.03866 	 4.23639
| 30> H 	 -94.222 	 7.98419 	 4.19421
| 31> H 	 -95.2751 	 6.91689 	 3.23097
| 32> C 	 -93.9056 	 5.91758 	 4.78802
| 33> H 	 -94.4804 	 5.04663 	 4.5327
| 34> H 	 -93.8657 	 5.86245 	 5.84472
| 35> C 	 -92.5336 	 5.82848 	 4.09782
| 36> H 	 -92.453 	 5.8744 	 3.02603
| 37> H 	 -91.9657 	 4.96142 	 4.50328
| 38> H 	 -91.9337 	 6.57317 	 4.47384
| 39> H 	 -99.7356 	 6.95035 	 0.310843
| 40> H 	 -97.0671 	 7.82486 	 8.2667
| 41> *
| 42>
| 43>                          ****END OF INPUT****

CARTESIAN COORDINATES (ANGSTROEM)
---------------------------------
  S    -99.295500    7.701630    2.778890
  C    -99.215000    6.772120    1.252190
  C    -98.224100    5.789630    1.272060
  C    -97.490900    5.823170    2.532060
  C    -97.928700    6.827210    3.426370
  H    -96.903900    5.107050    3.032490
  C    -97.856200    4.732820    0.294288
  H    -98.705600    4.132920    0.108792
  H    -97.055600    4.137560    0.717418
  C    -97.324400    5.124060   -1.150320
  H    -98.146200    5.542110   -1.657520
  H    -96.581100    5.973360   -0.962743
  C    -96.624800    4.061960   -1.926890
  H    -95.678600    3.798520   -1.493670
  H    -97.217100    3.150660   -2.098070
  H    -96.473000    4.429540   -2.959130
  S    -98.471500    7.530370    6.132110
  C    -97.059600    7.704060    7.174470
  C    -95.804600    7.604310    6.490400
  C    -96.029200    7.293900    5.118060
  C    -97.366300    7.193250    4.735490
  H    -94.881800    7.772510    7.009590
  C    -94.813800    7.038660    4.236390
  H    -94.222000    7.984190    4.194210
  H    -95.275100    6.916890    3.230970
  C    -93.905600    5.917580    4.788020
  H    -94.480400    5.046630    4.532700
  H    -93.865700    5.862450    5.844720
  C    -92.533600    5.828480    4.097820
  H    -92.453000    5.874400    3.026030
  H    -91.965700    4.961420    4.503280
  H    -91.933700    6.573170    4.473840
  H    -99.735600    6.950350    0.310843
  H    -97.067100    7.824860    8.266700

 Total Charge           Charge          ....    0
 Multiplicity           Mult            ....    1
 Number of Electrons    NEL             ....  134
 Basis Dimension        Dim             ....  322

ORBITAL ENERGIES
----------------

  NO   OCC          E(Eh)            E(eV)
   0   2.0000     -88.972754     -2421.0717
   1   2.0000     -88.969709     -2420.9889
   2   2.0000     -10.334284      -281.2102
   3   2.0000     -10.333345      -281.1846
   4   2.0000     -10.328367      -281.0492
   5   2.0000     -10.318333      -280.7761
   6   2.0000     -10.306969      -280.4669
   7   2.0000     -10.306027      -280.4413
   8   2.0000     -10.299274      -280.2575
   9   2.0000     -10.293260      -280.0938
  10   2.0000     -10.292681      -280.0781
  11   2.0000     -10.288716      -279.9702
  12   2.0000     -10.288181      -279.9556
  13   2.0000     -10.285614      -279.8858
  14   2.0000     -10.280644      -279.7505
  15   2.0000     -10.274352      -279.5793
  16   2.0000      -8.085993      -220.0310
  17   2.0000      -8.083603      -219.9660
  18   2.0000      -6.044627      -164.4827
  19   2.0000      -6.042220      -164.4172
  20   2.0000      -6.040805      -164.3787
  21   2.0000      -6.038220      -164.3083
  22   2.0000      -6.036618      -164.2647
  23   2.0000      -6.034300      -164.2016
  24   2.0000      -0.997184       -27.1348
  25   2.0000      -0.974279       -26.5115
  26   2.0000      -0.911498       -24.8031
  27   2.0000      -0.907294       -24.6887
  28   2.0000      -0.867194       -23.5976
  29   2.0000      -0.854591       -23.2546
  30   2.0000      -0.846422       -23.0323
  31   2.0000      -0.809120       -22.0173
  32   2.0000      -0.785323       -21.3697
  33   2.0000      -0.773040       -21.0355
  34   2.0000      -0.710964       -19.3463
  35   2.0000      -0.704716       -19.1763
  36   2.0000      -0.693042       -18.8586
  37   2.0000      -0.662724       -18.0336
  38   2.0000      -0.640457       -17.4277
  39   2.0000      -0.610029       -16.5997
  40   2.0000      -0.588591       -16.0164
  41   2.0000      -0.575856       -15.6698
  42   2.0000      -0.565935       -15.3999
  43   2.0000      -0.558285       -15.1917
  44   2.0000      -0.531147       -14.4533
  45   2.0000      -0.520191       -14.1551
  46   2.0000      -0.517275       -14.0758
  47   2.0000      -0.510377       -13.8881
  48   2.0000      -0.506844       -13.7919
  49   2.0000      -0.494978       -13.4690
  50   2.0000      -0.491865       -13.3843
  51   2.0000      -0.480810       -13.0835
  52   2.0000      -0.472322       -12.8525
  53   2.0000      -0.469563       -12.7775
  54   2.0000      -0.459626       -12.5071
  55   2.0000      -0.455659       -12.3991
  56   2.0000      -0.449206       -12.2235
  57   2.0000      -0.440129       -11.9765
  58   2.0000      -0.429726       -11.6934
  59   2.0000      -0.426318       -11.6007
  60   2.0000      -0.420060       -11.4304
  61   2.0000      -0.412506       -11.2248
  62   2.0000      -0.409165       -11.1339
  63   2.0000      -0.346970        -9.4415
  64   2.0000      -0.333502        -9.0751
  65   2.0000      -0.328320        -8.9340
  66   2.0000      -0.283929        -7.7261
  67   0.0000       0.022651         0.6164
  68   0.0000       0.062223         1.6932
  69   0.0000       0.099189         2.6991
  70   0.0000       0.116213         3.1623
  71   0.0000       0.123424         3.3585

MULLIKEN ATOMIC CHARGES
-----------------------
   0 S :    0.108906
   1 C :   -0.117200
   2 C :   -0.078635
   3 C :    0.014749
   4 C :   -0.173005
   5 H :    0.015784
   6 C :    0.079901
   7 H :    0.029453
   8 H :    0.016352
   9 C :   -0.097850
  10 H :    0.017797
  11 H :    0.038092
  12 C :   -0.035030
  13 H :    0.034131
  14 H :    0.028592
  15 H :    0.036657
  16 S :    0.110128
  17 C :   -0.101626
  18 C :   -0.039422
  19 C :   -0.047021
  20 C :   -0.139011
  21 H :    0.023793
  22 C :    0.046443
  23 H :    0.031216
  24 H :    0.038038
  25 C :   -0.054234
  26 H :    0.014856
  27 H :    0.023819
  28 C :   -0.010652
  29 H :    0.039343
  30 H :    0.026854
  31 H :    0.004495
  32 H :    0.047878
  33 H :    0.066406
Sum of atomic charges:    0.0000000

LOEWDIN ATOMIC CHARGES
----------------------
   0 S :    0.396186
   1 C :   -0.198525
   2 C :   -0.054365
   3 C :   -0.071229
   4 C :   -0.184154
   5 H :    0.025514
   6 C :   -0.031821
   7 H :    0.028550
   8 H :    0.029644
   9 C :   -0.040077
  10 H :    0.012573
  11 H :    0.031986
  12 C :   -0.066874
  13 H :    0.023982
  14 H :    0.026024
  15 H :    0.035220
  16 S :    0.379235
  17 C :   -0.176748
  18 C :   -0.068191
  19 C :   -0.048872
  20 C :   -0.194516
  21 H :    0.031547
  22 C :   -0.035611
  23 H :    0.031013
  24 H :    0.033825
  25 C :   -0.035339
  26 H :    0.022655
  27 H :    0.021335
  28 C :   -0.062593
  29 H :    0.027307
  30 H :    0.033932
  31 H :    0.013873
  32 H :    0.031927
  33 H :    0.032589

  Mayer bond orders larger than 0.100000
B(  0-S ,  1-C ) :   1.1177 B(  0-S ,  4-C ) :   1.1542 B(  1-C ,  2-C ) :   1.6296
B(  1-C , 32-H ) :   0.9659 B(  2-C ,  3-C ) :   1.2197 B(  2-C ,  6-C ) :   1.0345
B(  3-C ,  4-C ) :   1.5780 B(  3-C ,  5-H ) :   0.9860 B(  4-C , 20-C ) :   1.0475
B(  6-C ,  7-H ) :   0.9296 B(  6-C ,  8-H ) :   0.9444 B(  6-C ,  9-C ) :   1.0516
B(  9-C , 10-H ) :   0.9558 B(  9-C , 11-H ) :   0.9582 B(  9-C , 12-C ) :   1.0993
B( 12-C , 13-H ) :   0.9723 B( 12-C , 14-H ) :   0.9716 B( 12-C , 15-H ) :   0.9684
B( 16-S , 17-C ) :   1.1626 B( 16-S , 20-C ) :   1.1057 B( 17-C , 18-C ) :   1.6039
B( 17-C , 33-H ) :   0.9621 B( 18-C , 19-C ) :   1.2319 B( 18-C , 21-H ) :   0.9911
B( 19-C , 20-C ) :   1.6043 B( 19-C , 22-C ) :   1.0366 B( 22-C , 23-H ) :   0.9362
B( 22-C , 24-H ) :   0.9336 B( 22-C , 25-C ) :   1.0395 B( 25-C , 26-H ) :   0.9509
B( 25-C , 27-H ) :   0.9589 B( 25-C , 28-C ) :   1.0819 B( 28-C , 29-H ) :   0.9764
B( 28-C , 30-H ) :   0.9698 B( 28-C , 31-H ) :   0.9705

Dispersion correction           -0.013577355
FINAL SINGLE POINT ENERGY     -1339.857347709563

DIPOLE MOMENT
-------------
                                X             Y             Z
Electronic contribution:    -23.23257      14.86607      18.55725
Nuclear contribution   :     23.85720     -15.24187     -18.74709
                        -----------------------------------------
Total Dipole Moment    :      0.62463      -0.37580      -0.18984
                        -----------------------------------------
Magnitude (a.u.)       :      0.75328
Magnitude (Debye)      :      1.91468

Rotational constants in cm-1:     0.017039     0.008550     0.005939
Rotational constants in MHz :   510.822092   256.314477   178.047085

                             ****ORCA TERMINATED NORMALLY****
TOTAL RUN TIME: 0 days 0 hours 0 minutes 21 seconds 195 msec
