                         Program Version 4.2.1 -  RELEASE  -
|  1> ! wB97X-D3 SP def2-SVP
|  2> %pal
|  3> nprocs 24
|  4> end
|  5>
|  6> * xyz 0 1
|  7> S 	 -39.8368 	 -49.3913 	 -76.8607
|  8> C 	 -38.4068 	 -49.8429 	 -77.7439
|  9> C 	 -38.065 	 -48.8909 	 -78.7155
| 10> C 	 -38.9621 	 -47.7356 	 -78.6374
| 11> C 	 -39.9668 	 -47.8493 	 -77.6848
| 12> H 	 -38.9299 	 -46.872 	 -79.2678
| 13> C 	 -36.864 	 -48.8753 	 -79.5847
| 14> H 	 -37.0952 	 -48.458 	 -80.5299
| 15> H 	 -36.6332 	 -49.8943 	 -79.7849
| 16> C 	 -35.6296 	 -48.1507 	 -78.8848
| 17> H 	 -34.8277 	 -48.1939 	 -79.6404
| 18> H 	 -35.7699 	 -47.0665 	 -78.7286
| 19> C 	 -35.0568 	 -48.758 	 -77.6064
| 20> H 	 -34.0788 	 -48.3512 	 -77.3858
| 21> H 	 -35.7339 	 -48.6444 	 -76.7305
| 22> H 	 -34.8397 	 -49.8474 	 -77.8553
| 23> S 	 -41.4082 	 -46.709 	 -75.6504
| 24> C 	 -42.3998 	 -45.2966 	 -76.0564
| 25> C 	 -42.4607 	 -45.1223 	 -77.3991
| 26> C 	 -41.6941 	 -46.0521 	 -78.1766
| 27> C 	 -40.976 	 -46.8405 	 -77.3536
| 28> H 	 -43.0613 	 -44.3393 	 -77.9496
| 29> C 	 -41.6881 	 -45.967 	 -79.699
| 30> H 	 -40.7736 	 -45.5361 	 -80.0806
| 31> H 	 -42.4472 	 -45.218 	 -79.8991
| 32> C 	 -42.2464 	 -47.2647 	 -80.4786
| 33> H 	 -43.1319 	 -47.6348 	 -79.9665
| 34> H 	 -41.4415 	 -47.9461 	 -80.2218
| 35> C 	 -42.5673 	 -47.1329 	 -81.9293
| 36> H 	 -42.9533 	 -48.0218 	 -82.4525
| 37> H 	 -41.7095 	 -46.7467 	 -82.4635
| 38> H 	 -43.26 	 -46.2871 	 -82.0645
| 39> H 	 -37.9494 	 -50.7965 	 -77.6175
| 40> H 	 -42.7197 	 -44.6646 	 -75.179
| 41> *
| 42>
| 43>                          ****END OF INPUT****

CARTESIAN COORDINATES (ANGSTROEM)
---------------------------------
  S    -39.836800  -49.391300  -76.860700
  C    -38.406800  -49.842900  -77.743900
  C    -38.065000  -48.890900  -78.715500
  C    -38.962100  -47.735600  -78.637400
  C    -39.966800  -47.849300  -77.684800
  H    -38.929900  -46.872000  -79.267800
  C    -36.864000  -48.875300  -79.584700
  H    -37.095200  -48.458000  -80.529900
  H    -36.633200  -49.894300  -79.784900
  C    -35.629600  -48.150700  -78.884800
  H    -34.827700  -48.193900  -79.640400
  H    -35.769900  -47.066500  -78.728600
  C    -35.056800  -48.758000  -77.606400
  H    -34.078800  -48.351200  -77.385800
  H    -35.733900  -48.644400  -76.730500
  H    -34.839700  -49.847400  -77.855300
  S    -41.408200  -46.709000  -75.650400
  C    -42.399800  -45.296600  -76.056400
  C    -42.460700  -45.122300  -77.399100
  C    -41.694100  -46.052100  -78.176600
  C    -40.976000  -46.840500  -77.353600
  H    -43.061300  -44.339300  -77.949600
  C    -41.688100  -45.967000  -79.699000
  H    -40.773600  -45.536100  -80.080600
  H    -42.447200  -45.218000  -79.899100
  C    -42.246400  -47.264700  -80.478600
  H    -43.131900  -47.634800  -79.966500
  H    -41.441500  -47.946100  -80.221800
  C    -42.567300  -47.132900  -81.929300
  H    -42.953300  -48.021800  -82.452500
  H    -41.709500  -46.746700  -82.463500
  H    -43.260000  -46.287100  -82.064500
  H    -37.949400  -50.796500  -77.617500
  H    -42.719700  -44.664600  -75.179000

 Total Charge           Charge          ....    0
 Multiplicity           Mult            ....    1
 Number of Electrons    NEL             ....  134
 Basis Dimension        Dim             ....  322

ORBITAL ENERGIES
----------------

  NO   OCC          E(Eh)            E(eV)
   0   2.0000     -88.964687     -2420.8522
   1   2.0000     -88.963067     -2420.8081
   2   2.0000     -10.328576      -281.0548
   3   2.0000     -10.325314      -280.9661
   4   2.0000     -10.322443      -280.8880
   5   2.0000     -10.312421      -280.6152
   6   2.0000     -10.303308      -280.3673
   7   2.0000     -10.300527      -280.2916
   8   2.0000     -10.299296      -280.2581
   9   2.0000     -10.298292      -280.2308
  10   2.0000     -10.292794      -280.0812
  11   2.0000     -10.292307      -280.0679
  12   2.0000     -10.290122      -280.0085
  13   2.0000     -10.284922      -279.8669
  14   2.0000     -10.282176      -279.7922
  15   2.0000     -10.278545      -279.6934
  16   2.0000      -8.079481      -219.8539
  17   2.0000      -8.077985      -219.8132
  18   2.0000      -6.038064      -164.3041
  19   2.0000      -6.036487      -164.2612
  20   2.0000      -6.033922      -164.1914
  21   2.0000      -6.032718      -164.1586
  22   2.0000      -6.030244      -164.0913
  23   2.0000      -6.028493      -164.0436
  24   2.0000      -1.007110       -27.4049
  25   2.0000      -0.981992       -26.7214
  26   2.0000      -0.908216       -24.7138
  27   2.0000      -0.903786       -24.5933
  28   2.0000      -0.865874       -23.5616
  29   2.0000      -0.856449       -23.3052
  30   2.0000      -0.844407       -22.9775
  31   2.0000      -0.812463       -22.1083
  32   2.0000      -0.784092       -21.3362
  33   2.0000      -0.774299       -21.0697
  34   2.0000      -0.706783       -19.2325
  35   2.0000      -0.697103       -18.9691
  36   2.0000      -0.688278       -18.7290
  37   2.0000      -0.664892       -18.0926
  38   2.0000      -0.641378       -17.4528
  39   2.0000      -0.616458       -16.7747
  40   2.0000      -0.596898       -16.2424
  41   2.0000      -0.561534       -15.2801
  42   2.0000      -0.559767       -15.2320
  43   2.0000      -0.546400       -14.8683
  44   2.0000      -0.538322       -14.6485
  45   2.0000      -0.529009       -14.3951
  46   2.0000      -0.522907       -14.2290
  47   2.0000      -0.514424       -13.9982
  48   2.0000      -0.498333       -13.5603
  49   2.0000      -0.496332       -13.5059
  50   2.0000      -0.488289       -13.2870
  51   2.0000      -0.486510       -13.2386
  52   2.0000      -0.472740       -12.8639
  53   2.0000      -0.464932       -12.6515
  54   2.0000      -0.456813       -12.4305
  55   2.0000      -0.447015       -12.1639
  56   2.0000      -0.444674       -12.1002
  57   2.0000      -0.437566       -11.9068
  58   2.0000      -0.428986       -11.6733
  59   2.0000      -0.427208       -11.6249
  60   2.0000      -0.420474       -11.4417
  61   2.0000      -0.415164       -11.2972
  62   2.0000      -0.402258       -10.9460
  63   2.0000      -0.354610        -9.6494
  64   2.0000      -0.334186        -9.0937
  65   2.0000      -0.325121        -8.8470
  66   2.0000      -0.288159        -7.8412
  67   0.0000       0.028501         0.7755
  68   0.0000       0.074027         2.0144
  69   0.0000       0.101267         2.7556
  70   0.0000       0.118459         3.2234
  71   0.0000       0.139685         3.8010

MULLIKEN ATOMIC CHARGES
-----------------------
   0 S :    0.103570
   1 C :   -0.118236
   2 C :   -0.103694
   3 C :    0.018908
   4 C :   -0.137720
   5 H :   -0.003792
   6 C :    0.126379
   7 H :    0.015110
   8 H :    0.007775
   9 C :   -0.095629
  10 H :    0.026457
  11 H :    0.035957
  12 C :   -0.063622
  13 H :    0.034217
  14 H :    0.060837
  15 H :    0.026435
  16 S :    0.088411
  17 C :   -0.115396
  18 C :   -0.021917
  19 C :   -0.055983
  20 C :   -0.148141
  21 H :    0.037094
  22 C :    0.049083
  23 H :    0.043600
  24 H :   -0.002373
  25 C :   -0.071251
  26 H :    0.031584
  27 H :    0.039165
  28 C :   -0.023736
  29 H :    0.053517
  30 H :    0.015855
  31 H :    0.019666
  32 H :    0.041790
  33 H :    0.086080
Sum of atomic charges:   -0.0000000

LOEWDIN ATOMIC CHARGES
----------------------
   0 S :    0.401677
   1 C :   -0.199844
   2 C :   -0.057860
   3 C :   -0.064610
   4 C :   -0.189876
   5 H :    0.024295
   6 C :   -0.026702
   7 H :    0.028278
   8 H :    0.026705
   9 C :   -0.040033
  10 H :    0.023690
  11 H :    0.024882
  12 C :   -0.070945
  13 H :    0.026522
  14 H :    0.031536
  15 H :    0.028959
  16 S :    0.378786
  17 C :   -0.182868
  18 C :   -0.072019
  19 C :   -0.063202
  20 C :   -0.181098
  21 H :    0.040233
  22 C :   -0.027115
  23 H :    0.027618
  24 H :    0.023944
  25 C :   -0.039160
  26 H :    0.026835
  27 H :    0.023541
  28 C :   -0.070515
  29 H :    0.034919
  30 H :    0.022975
  31 H :    0.026392
  32 H :    0.022072
  33 H :    0.041991

  Mayer bond orders larger than 0.100000
B(  0-S ,  1-C ) :   1.1353 B(  0-S ,  4-C ) :   1.1483 B(  1-C ,  2-C ) :   1.5946
B(  1-C , 32-H ) :   0.9732 B(  2-C ,  3-C ) :   1.2234 B(  2-C ,  6-C ) :   1.0519
B(  3-C ,  4-C ) :   1.5772 B(  3-C ,  5-H ) :   0.9967 B(  4-C , 20-C ) :   1.0468
B(  6-C ,  7-H ) :   0.9321 B(  6-C ,  8-H ) :   0.9321 B(  6-C ,  9-C ) :   1.0568
B(  9-C , 10-H ) :   0.9565 B(  9-C , 11-H ) :   0.9585 B(  9-C , 12-C ) :   1.0807
B( 12-C , 13-H ) :   0.9711 B( 12-C , 14-H ) :   0.9728 B( 12-C , 15-H ) :   0.9731
B( 16-S , 17-C ) :   1.1277 B( 16-S , 20-C ) :   1.1323 B( 17-C , 18-C ) :   1.6232
B( 17-C , 33-H ) :   0.9635 B( 18-C , 19-C ) :   1.2321 B( 18-C , 21-H ) :   0.9738
B( 19-C , 20-C ) :   1.6341 B( 19-C , 22-C ) :   1.0369 B( 22-C , 23-H ) :   0.9370
B( 22-C , 24-H ) :   0.9262 B( 22-C , 25-C ) :   1.0379 B( 25-C , 26-H ) :   0.9564
B( 25-C , 27-H ) :   0.9579 B( 25-C , 28-C ) :   1.0891 B( 28-C , 29-H ) :   0.9724
B( 28-C , 30-H ) :   0.9691 B( 28-C , 31-H ) :   0.9694

Dispersion correction           -0.014641194
FINAL SINGLE POINT ENERGY     -1339.881768395287

DIPOLE MOMENT
-------------
                                X             Y             Z
Electronic contribution:    -11.04583      -1.55058      21.32944
Nuclear contribution   :     11.28962       1.83573     -21.93266
                        -----------------------------------------
Total Dipole Moment    :      0.24379       0.28515      -0.60322
                        -----------------------------------------
Magnitude (a.u.)       :      0.71037
Magnitude (Debye)      :      1.80561

Rotational constants in cm-1:     0.017868     0.008966     0.007101
Rotational constants in MHz :   535.672761   268.796296   212.867645

                             ****ORCA TERMINATED NORMALLY****
TOTAL RUN TIME: 0 days 0 hours 0 minutes 20 seconds 652 msec
