                         Program Version 4.2.1 -  RELEASE  -
|  1> ! wB97X-D3 SP def2-SVP
|  2> %pal
|  3> nprocs 24
|  4> end
|  5>
|  6> * xyz 0 1
|  7> S 	 -47.7588 	 8.97197 	 -18.778
|  8> C 	 -47.6715 	 8.43908 	 -20.419
|  9> C 	 -48.871 	 8.07413 	 -20.9996
| 10> C 	 -49.9611 	 8.2802 	 -20.0563
| 11> C 	 -49.5883 	 8.74811 	 -18.7403
| 12> H 	 -50.9724 	 8.11442 	 -20.2477
| 13> C 	 -49.1473 	 7.65929 	 -22.4372
| 14> H 	 -48.2983 	 7.33114 	 -22.9897
| 15> H 	 -49.4276 	 8.51484 	 -23.0237
| 16> C 	 -50.3535 	 6.69271 	 -22.6996
| 17> H 	 -51.207 	 7.33899 	 -22.8153
| 18> H 	 -50.3419 	 6.30902 	 -23.6849
| 19> C 	 -50.4949 	 5.50876 	 -21.7305
| 20> H 	 -51.466 	 4.97323 	 -21.7736
| 21> H 	 -49.7251 	 4.88154 	 -22.0212
| 22> H 	 -50.2647 	 5.69825 	 -20.6344
| 23> S 	 -49.6072 	 9.88361 	 -16.2451
| 24> C 	 -50.8871 	 9.62705 	 -15.1699
| 25> C 	 -51.7994 	 8.75339 	 -15.7376
| 26> C 	 -51.485 	 8.35184 	 -17.0791
| 27> C 	 -50.3471 	 8.88549 	 -17.5273
| 28> H 	 -52.6761 	 8.43687 	 -15.1479
| 29> C 	 -52.3752 	 7.36129 	 -17.8295
| 30> H 	 -52.7156 	 7.74351 	 -18.7948
| 31> H 	 -53.3579 	 7.20683 	 -17.3603
| 32> C 	 -51.6399 	 5.97849 	 -18.045
| 33> H 	 -50.7732 	 6.07644 	 -18.6592
| 34> H 	 -52.3093 	 5.26341 	 -18.4825
| 35> C 	 -51.2628 	 5.36192 	 -16.7447
| 36> H 	 -50.5987 	 5.97181 	 -16.1797
| 37> H 	 -50.6953 	 4.4617 	 -16.8424
| 38> H 	 -52.1831 	 5.09771 	 -16.1694
| 39> H 	 -46.7161 	 8.31892 	 -20.9723
| 40> H 	 -50.938 	 10.1684 	 -14.2776
| 41> *
| 42>
| 43>                          ****END OF INPUT****

CARTESIAN COORDINATES (ANGSTROEM)
---------------------------------
  S    -47.758800    8.971970  -18.778000
  C    -47.671500    8.439080  -20.419000
  C    -48.871000    8.074130  -20.999600
  C    -49.961100    8.280200  -20.056300
  C    -49.588300    8.748110  -18.740300
  H    -50.972400    8.114420  -20.247700
  C    -49.147300    7.659290  -22.437200
  H    -48.298300    7.331140  -22.989700
  H    -49.427600    8.514840  -23.023700
  C    -50.353500    6.692710  -22.699600
  H    -51.207000    7.338990  -22.815300
  H    -50.341900    6.309020  -23.684900
  C    -50.494900    5.508760  -21.730500
  H    -51.466000    4.973230  -21.773600
  H    -49.725100    4.881540  -22.021200
  H    -50.264700    5.698250  -20.634400
  S    -49.607200    9.883610  -16.245100
  C    -50.887100    9.627050  -15.169900
  C    -51.799400    8.753390  -15.737600
  C    -51.485000    8.351840  -17.079100
  C    -50.347100    8.885490  -17.527300
  H    -52.676100    8.436870  -15.147900
  C    -52.375200    7.361290  -17.829500
  H    -52.715600    7.743510  -18.794800
  H    -53.357900    7.206830  -17.360300
  C    -51.639900    5.978490  -18.045000
  H    -50.773200    6.076440  -18.659200
  H    -52.309300    5.263410  -18.482500
  C    -51.262800    5.361920  -16.744700
  H    -50.598700    5.971810  -16.179700
  H    -50.695300    4.461700  -16.842400
  H    -52.183100    5.097710  -16.169400
  H    -46.716100    8.318920  -20.972300
  H    -50.938000   10.168400  -14.277600

 Total Charge           Charge          ....    0
 Multiplicity           Mult            ....    1
 Number of Electrons    NEL             ....  134
 Basis Dimension        Dim             ....  322

ORBITAL ENERGIES
----------------

  NO   OCC          E(Eh)            E(eV)
   0   2.0000     -88.968075     -2420.9444
   1   2.0000     -88.961229     -2420.7581
   2   2.0000     -10.342193      -281.4254
   3   2.0000     -10.326826      -281.0072
   4   2.0000     -10.317486      -280.7531
   5   2.0000     -10.314099      -280.6609
   6   2.0000     -10.307650      -280.4854
   7   2.0000     -10.303067      -280.3607
   8   2.0000     -10.300136      -280.2809
   9   2.0000     -10.297921      -280.2207
  10   2.0000     -10.296955      -280.1944
  11   2.0000     -10.293661      -280.1047
  12   2.0000     -10.286428      -279.9079
  13   2.0000     -10.278543      -279.6934
  14   2.0000     -10.276686      -279.6428
  15   2.0000     -10.263989      -279.2974
  16   2.0000      -8.081596      -219.9114
  17   2.0000      -8.077248      -219.7931
  18   2.0000      -6.040295      -164.3648
  19   2.0000      -6.036330      -164.2569
  20   2.0000      -6.035712      -164.2401
  21   2.0000      -6.032170      -164.1437
  22   2.0000      -6.031564      -164.1272
  23   2.0000      -6.027982      -164.0297
  24   2.0000      -1.009450       -27.4685
  25   2.0000      -0.977853       -26.6087
  26   2.0000      -0.911192       -24.7948
  27   2.0000      -0.908735       -24.7279
  28   2.0000      -0.872858       -23.7517
  29   2.0000      -0.853239       -23.2178
  30   2.0000      -0.840235       -22.8640
  31   2.0000      -0.812229       -22.1019
  32   2.0000      -0.786502       -21.4018
  33   2.0000      -0.778959       -21.1966
  34   2.0000      -0.713363       -19.4116
  35   2.0000      -0.700629       -19.0651
  36   2.0000      -0.692923       -18.8554
  37   2.0000      -0.671949       -18.2847
  38   2.0000      -0.637286       -17.3414
  39   2.0000      -0.621446       -16.9104
  40   2.0000      -0.599876       -16.3234
  41   2.0000      -0.563197       -15.3254
  42   2.0000      -0.558665       -15.2021
  43   2.0000      -0.556031       -15.1304
  44   2.0000      -0.547200       -14.8901
  45   2.0000      -0.535778       -14.5793
  46   2.0000      -0.517035       -14.0692
  47   2.0000      -0.511607       -13.9215
  48   2.0000      -0.503194       -13.6926
  49   2.0000      -0.497135       -13.5277
  50   2.0000      -0.490930       -13.3589
  51   2.0000      -0.481878       -13.1126
  52   2.0000      -0.471928       -12.8418
  53   2.0000      -0.470015       -12.7898
  54   2.0000      -0.453065       -12.3285
  55   2.0000      -0.446366       -12.1462
  56   2.0000      -0.439228       -11.9520
  57   2.0000      -0.435783       -11.8582
  58   2.0000      -0.434024       -11.8104
  59   2.0000      -0.424450       -11.5499
  60   2.0000      -0.418632       -11.3916
  61   2.0000      -0.413231       -11.2446
  62   2.0000      -0.409459       -11.1419
  63   2.0000      -0.365901        -9.9567
  64   2.0000      -0.332646        -9.0518
  65   2.0000      -0.327829        -8.9207
  66   2.0000      -0.279969        -7.6183
  67   0.0000       0.017638         0.4799
  68   0.0000       0.075339         2.0501
  69   0.0000       0.101312         2.7568
  70   0.0000       0.118895         3.2353
  71   0.0000       0.132331         3.6009

MULLIKEN ATOMIC CHARGES
-----------------------
   0 S :    0.097007
   1 C :   -0.125299
   2 C :   -0.073613
   3 C :    0.017349
   4 C :   -0.124425
   5 H :   -0.011927
   6 C :    0.089625
   7 H :    0.010740
   8 H :    0.035077
   9 C :   -0.076403
  10 H :    0.014299
  11 H :    0.014063
  12 C :   -0.043747
  13 H :    0.043551
  14 H :    0.016428
  15 H :    0.038280
  16 S :    0.087001
  17 C :   -0.066248
  18 C :   -0.039011
  19 C :   -0.064789
  20 C :   -0.118718
  21 H :    0.026258
  22 C :    0.055438
  23 H :    0.030965
  24 H :    0.016000
  25 C :   -0.069191
  26 H :    0.056819
  27 H :    0.022276
  28 C :   -0.040313
  29 H :    0.032875
  30 H :    0.018650
  31 H :    0.025345
  32 H :    0.059472
  33 H :    0.046165
Sum of atomic charges:   -0.0000000

LOEWDIN ATOMIC CHARGES
----------------------
   0 S :    0.376989
   1 C :   -0.203957
   2 C :   -0.065482
   3 C :   -0.049463
   4 C :   -0.163477
   5 H :    0.016078
   6 C :   -0.028605
   7 H :    0.024156
   8 H :    0.038338
   9 C :   -0.041377
  10 H :    0.017012
  11 H :    0.024014
  12 C :   -0.071063
  13 H :    0.031482
  14 H :    0.018248
  15 H :    0.033369
  16 S :    0.407730
  17 C :   -0.185307
  18 C :   -0.074011
  19 C :   -0.059830
  20 C :   -0.184885
  21 H :    0.034614
  22 C :   -0.026632
  23 H :    0.027721
  24 H :    0.031242
  25 C :   -0.033309
  26 H :    0.019000
  27 H :    0.022383
  28 C :   -0.062522
  29 H :    0.020658
  30 H :    0.022368
  31 H :    0.026415
  32 H :    0.036935
  33 H :    0.021170

  Mayer bond orders larger than 0.100000
B(  0-S ,  1-C ) :   1.1447 B(  0-S ,  4-C ) :   1.1191 B(  1-C ,  2-C ) :   1.6278
B(  1-C , 32-H ) :   0.9555 B(  2-C ,  3-C ) :   1.2272 B(  2-C ,  6-C ) :   1.0270
B(  3-C ,  4-C ) :   1.5563 B(  3-C ,  5-H ) :   0.9986 B(  4-C , 20-C ) :   1.1091
B(  6-C ,  7-H ) :   0.9426 B(  6-C ,  8-H ) :   0.9361 B(  6-C ,  9-C ) :   1.0675
B(  9-C , 10-H ) :   0.9563 B(  9-C , 11-H ) :   0.9523 B(  9-C , 12-C ) :   1.0637
B( 12-C , 13-H ) :   0.9740 B( 12-C , 14-H ) :   0.9688 B( 12-C , 15-H ) :   0.9724
B( 16-S , 17-C ) :   1.1746 B( 16-S , 20-C ) :   1.1185 B( 17-C , 18-C ) :   1.5802
B( 17-C , 33-H ) :   0.9798 B( 18-C , 19-C ) :   1.2362 B( 18-C , 21-H ) :   0.9914
B( 19-C , 20-C ) :   1.6148 B( 19-C , 22-C ) :   1.0338 B( 22-C , 23-H ) :   0.9392
B( 22-C , 24-H ) :   0.9364 B( 22-C , 25-C ) :   1.0649 B( 25-C , 26-H ) :   0.9428
B( 25-C , 27-H ) :   0.9563 B( 25-C , 28-C ) :   1.0886 B( 28-C , 29-H ) :   0.9706
B( 28-C , 30-H ) :   0.9685 B( 28-C , 31-H ) :   0.9749

Dispersion correction           -0.016437864
FINAL SINGLE POINT ENERGY     -1339.868393847354

DIPOLE MOMENT
-------------
                                X             Y             Z
Electronic contribution:     13.31889      21.59622      13.77370
Nuclear contribution   :    -13.76785     -22.01234     -14.16347
                        -----------------------------------------
Total Dipole Moment    :     -0.44896      -0.41612      -0.38977
                        -----------------------------------------
Magnitude (a.u.)       :      0.72570
Magnitude (Debye)      :      1.84459

Rotational constants in cm-1:     0.019997     0.010441     0.007654
Rotational constants in MHz :   599.499124   312.998701   229.454947

                             ****ORCA TERMINATED NORMALLY****
TOTAL RUN TIME: 0 days 0 hours 0 minutes 23 seconds 652 msec
