                         Program Version 4.2.1 -  RELEASE  -
|  1> ! wB97X-D3 SP def2-SVP
|  2> %pal
|  3> nprocs 24
|  4> end
|  5>
|  6> * xyz 0 1
|  7> S 	 -50.0469 	 17.8007 	 27.854
|  8> C 	 -49.6366 	 16.1056 	 27.5124
|  9> C 	 -49.7198 	 15.373 	 28.6975
| 10> C 	 -50.135 	 16.0952 	 29.8533
| 11> C 	 -50.2379 	 17.4068 	 29.6076
| 12> H 	 -50.2016 	 15.6006 	 30.8214
| 13> C 	 -49.4262 	 13.8566 	 28.7495
| 14> H 	 -49.0053 	 13.486 	 29.7364
| 15> H 	 -48.5897 	 13.6297 	 28.0321
| 16> C 	 -50.6596 	 12.9842 	 28.2526
| 17> H 	 -50.8845 	 13.35 	 27.2549
| 18> H 	 -50.1778 	 11.9759 	 28.204
| 19> C 	 -51.8854 	 13.0723 	 29.0543
| 20> H 	 -51.5295 	 13.2801 	 30.0359
| 21> H 	 -52.4349 	 13.9569 	 28.7639
| 22> H 	 -52.512 	 12.161 	 28.8554
| 23> S 	 -49.4299 	 19.84 	 30.604
| 24> C 	 -50.3754 	 20.564 	 31.908
| 25> C 	 -51.5874 	 19.8723 	 32.1023
| 26> C 	 -51.6872 	 18.7264 	 31.2918
| 27> C 	 -50.5635 	 18.4842 	 30.5303
| 28> H 	 -52.3276 	 20.2826 	 32.797
| 29> C 	 -52.9683 	 17.8903 	 31.3298
| 30> H 	 -53.1797 	 17.7052 	 30.3231
| 31> H 	 -53.7304 	 18.5763 	 31.7057
| 32> C 	 -52.8975 	 16.5569 	 32.1254
| 33> H 	 -52.0926 	 16.757 	 32.8327
| 34> H 	 -52.5845 	 15.6367 	 31.6142
| 35> C 	 -54.1337 	 16.1163 	 32.8364
| 36> H 	 -54.7403 	 16.9795 	 33.2162
| 37> H 	 -53.8204 	 15.3586 	 33.6181
| 38> H 	 -54.7921 	 15.4703 	 32.2595
| 39> H 	 -49.2836 	 15.6157 	 26.6334
| 40> H 	 -50.1493 	 21.4251 	 32.5716
| 41> *
| 42>
| 43>                          ****END OF INPUT****

CARTESIAN COORDINATES (ANGSTROEM)
---------------------------------
  S    -50.046900   17.800700   27.854000
  C    -49.636600   16.105600   27.512400
  C    -49.719800   15.373000   28.697500
  C    -50.135000   16.095200   29.853300
  C    -50.237900   17.406800   29.607600
  H    -50.201600   15.600600   30.821400
  C    -49.426200   13.856600   28.749500
  H    -49.005300   13.486000   29.736400
  H    -48.589700   13.629700   28.032100
  C    -50.659600   12.984200   28.252600
  H    -50.884500   13.350000   27.254900
  H    -50.177800   11.975900   28.204000
  C    -51.885400   13.072300   29.054300
  H    -51.529500   13.280100   30.035900
  H    -52.434900   13.956900   28.763900
  H    -52.512000   12.161000   28.855400
  S    -49.429900   19.840000   30.604000
  C    -50.375400   20.564000   31.908000
  C    -51.587400   19.872300   32.102300
  C    -51.687200   18.726400   31.291800
  C    -50.563500   18.484200   30.530300
  H    -52.327600   20.282600   32.797000
  C    -52.968300   17.890300   31.329800
  H    -53.179700   17.705200   30.323100
  H    -53.730400   18.576300   31.705700
  C    -52.897500   16.556900   32.125400
  H    -52.092600   16.757000   32.832700
  H    -52.584500   15.636700   31.614200
  C    -54.133700   16.116300   32.836400
  H    -54.740300   16.979500   33.216200
  H    -53.820400   15.358600   33.618100
  H    -54.792100   15.470300   32.259500
  H    -49.283600   15.615700   26.633400
  H    -50.149300   21.425100   32.571600

 Total Charge           Charge          ....    0
 Multiplicity           Mult            ....    1
 Number of Electrons    NEL             ....  134
 Basis Dimension        Dim             ....  322

ORBITAL ENERGIES
----------------

  NO   OCC          E(Eh)            E(eV)
   0   2.0000     -88.969890     -2420.9938
   1   2.0000     -88.967842     -2420.9381
   2   2.0000     -10.331570      -281.1363
   3   2.0000     -10.325052      -280.9590
   4   2.0000     -10.323714      -280.9225
   5   2.0000     -10.315258      -280.6924
   6   2.0000     -10.301934      -280.3299
   7   2.0000     -10.301774      -280.3255
   8   2.0000     -10.301362      -280.3143
   9   2.0000     -10.295421      -280.1527
  10   2.0000     -10.293338      -280.0960
  11   2.0000     -10.288370      -279.9608
  12   2.0000     -10.285457      -279.8815
  13   2.0000     -10.284999      -279.8690
  14   2.0000     -10.282298      -279.7956
  15   2.0000     -10.273737      -279.5626
  16   2.0000      -8.083741      -219.9698
  17   2.0000      -8.081123      -219.8985
  18   2.0000      -6.042267      -164.4184
  19   2.0000      -6.039874      -164.3533
  20   2.0000      -6.038365      -164.3123
  21   2.0000      -6.035949      -164.2465
  22   2.0000      -6.034536      -164.2081
  23   2.0000      -6.031572      -164.1274
  24   2.0000      -1.004208       -27.3259
  25   2.0000      -0.980170       -26.6718
  26   2.0000      -0.909611       -24.7518
  27   2.0000      -0.907970       -24.7071
  28   2.0000      -0.868336       -23.6286
  29   2.0000      -0.855792       -23.2873
  30   2.0000      -0.847115       -23.0512
  31   2.0000      -0.817130       -22.2352
  32   2.0000      -0.782637       -21.2966
  33   2.0000      -0.767448       -20.8833
  34   2.0000      -0.706907       -19.2359
  35   2.0000      -0.694288       -18.8925
  36   2.0000      -0.689108       -18.7516
  37   2.0000      -0.662109       -18.0169
  38   2.0000      -0.637292       -17.3416
  39   2.0000      -0.618550       -16.8316
  40   2.0000      -0.589200       -16.0330
  41   2.0000      -0.572528       -15.5793
  42   2.0000      -0.569062       -15.4850
  43   2.0000      -0.551133       -14.9971
  44   2.0000      -0.544478       -14.8160
  45   2.0000      -0.520757       -14.1705
  46   2.0000      -0.514198       -13.9920
  47   2.0000      -0.513505       -13.9732
  48   2.0000      -0.508623       -13.8403
  49   2.0000      -0.501722       -13.6526
  50   2.0000      -0.492192       -13.3932
  51   2.0000      -0.479699       -13.0533
  52   2.0000      -0.469470       -12.7749
  53   2.0000      -0.466040       -12.6816
  54   2.0000      -0.460135       -12.5209
  55   2.0000      -0.447857       -12.1868
  56   2.0000      -0.438058       -11.9202
  57   2.0000      -0.436405       -11.8752
  58   2.0000      -0.434549       -11.8247
  59   2.0000      -0.425584       -11.5807
  60   2.0000      -0.416731       -11.3398
  61   2.0000      -0.407785       -11.0964
  62   2.0000      -0.401645       -10.9293
  63   2.0000      -0.346319        -9.4238
  64   2.0000      -0.334292        -9.0966
  65   2.0000      -0.328074        -8.9273
  66   2.0000      -0.294435        -8.0120
  67   0.0000       0.029834         0.8118
  68   0.0000       0.056177         1.5287
  69   0.0000       0.107007         2.9118
  70   0.0000       0.116446         3.1687
  71   0.0000       0.124803         3.3961

MULLIKEN ATOMIC CHARGES
-----------------------
   0 S :    0.103975
   1 C :   -0.093917
   2 C :   -0.103943
   3 C :    0.043352
   4 C :   -0.131083
   5 H :    0.019895
   6 C :   -0.024518
   7 H :    0.039266
   8 H :    0.033159
   9 C :   -0.083975
  10 H :    0.018955
  11 H :    0.037563
  12 C :   -0.015078
  13 H :    0.014860
  14 H :    0.037053
  15 H :    0.054783
  16 S :    0.119469
  17 C :   -0.101604
  18 C :   -0.062286
  19 C :   -0.050236
  20 C :   -0.186765
  21 H :    0.027792
  22 C :    0.144693
  23 H :    0.019514
  24 H :    0.014922
  25 C :   -0.073937
  26 H :    0.030558
  27 H :    0.031295
  28 C :   -0.071809
  29 H :    0.039377
  30 H :    0.036217
  31 H :    0.028565
  32 H :    0.035738
  33 H :    0.068152
Sum of atomic charges:   -0.0000000

LOEWDIN ATOMIC CHARGES
----------------------
   0 S :    0.370032
   1 C :   -0.192162
   2 C :   -0.062817
   3 C :   -0.063355
   4 C :   -0.167769
   5 H :    0.037328
   6 C :   -0.043864
   7 H :    0.030487
   8 H :    0.033906
   9 C :   -0.042379
  10 H :    0.019638
  11 H :    0.026003
  12 C :   -0.068988
  13 H :    0.018645
  14 H :    0.029335
  15 H :    0.040118
  16 S :    0.402799
  17 C :   -0.187775
  18 C :   -0.077132
  19 C :   -0.054001
  20 C :   -0.201175
  21 H :    0.035309
  22 C :   -0.019761
  23 H :    0.026002
  24 H :    0.031910
  25 C :   -0.050604
  26 H :    0.023907
  27 H :    0.028926
  28 C :   -0.073916
  29 H :    0.026445
  30 H :    0.036870
  31 H :    0.021964
  32 H :    0.026665
  33 H :    0.039410

  Mayer bond orders larger than 0.100000
B(  0-S ,  1-C ) :   1.1087 B(  0-S ,  4-C ) :   1.1260 B(  1-C ,  2-C ) :   1.6431
B(  1-C , 32-H ) :   0.9658 B(  2-C ,  3-C ) :   1.2146 B(  2-C ,  6-C ) :   1.0183
B(  3-C ,  4-C ) :   1.6216 B(  3-C ,  5-H ) :   0.9919 B(  4-C , 20-C ) :   1.0313
B(  6-C ,  7-H ) :   0.9480 B(  6-C ,  8-H ) :   0.9455 B(  6-C ,  9-C ) :   1.0661
B(  9-C , 10-H ) :   0.9544 B(  9-C , 11-H ) :   0.9577 B(  9-C , 12-C ) :   1.0797
B( 12-C , 13-H ) :   0.9748 B( 12-C , 14-H ) :   0.9678 B( 12-C , 15-H ) :   0.9685
B( 16-S , 17-C ) :   1.1599 B( 16-S , 20-C ) :   1.1340 B( 17-C , 18-C ) :   1.6034
B( 17-C , 20-C ) :   0.1085 B( 17-C , 33-H ) :   0.9610 B( 18-C , 19-C ) :   1.2543
B( 18-C , 21-H ) :   0.9848 B( 19-C , 20-C ) :   1.5886 B( 19-C , 22-C ) :   1.0413
B( 22-C , 23-H ) :   0.9171 B( 22-C , 24-H ) :   0.9378 B( 22-C , 25-C ) :   1.0478
B( 25-C , 26-H ) :   0.9644 B( 25-C , 27-H ) :   0.9440 B( 25-C , 28-C ) :   1.0914
B( 28-C , 29-H ) :   0.9746 B( 28-C , 30-H ) :   0.9689 B( 28-C , 31-H ) :   0.9759

Dispersion correction           -0.015203327
FINAL SINGLE POINT ENERGY     -1339.861185101126

DIPOLE MOMENT
-------------
                                X             Y             Z
Electronic contribution:     15.87119      25.06718      -8.02687
Nuclear contribution   :    -16.18216     -25.54332       8.33205
                        -----------------------------------------
Total Dipole Moment    :     -0.31097      -0.47613       0.30518
                        -----------------------------------------
Magnitude (a.u.)       :      0.64540
Magnitude (Debye)      :      1.64047

Rotational constants in cm-1:     0.017537     0.010160     0.007002
Rotational constants in MHz :   525.739673   304.584025   209.918320

                             ****ORCA TERMINATED NORMALLY****
TOTAL RUN TIME: 0 days 0 hours 0 minutes 22 seconds 404 msec
