                         Program Version 4.2.1 -  RELEASE  -
|  1> ! wB97X-D3 SP def2-SVP
|  2> %pal
|  3> nprocs 24
|  4> end
|  5>
|  6> * xyz 0 1
|  7> S 	 -121.06 	 58.473 	 -37.1315
|  8> C 	 -120.33 	 57.0858 	 -36.3744
|  9> C 	 -120.275 	 57.2878 	 -35.0211
| 10> C 	 -121.123 	 58.3884 	 -34.5385
| 11> C 	 -121.845 	 58.9906 	 -35.5603
| 12> H 	 -121.236 	 58.7775 	 -33.57
| 13> C 	 -119.583 	 56.4067 	 -34.0507
| 14> H 	 -119.3 	 56.9534 	 -33.1808
| 15> H 	 -118.549 	 56.1956 	 -34.4181
| 16> C 	 -120.439 	 55.0514 	 -33.8
| 17> H 	 -120.563 	 54.5049 	 -34.7259
| 18> H 	 -119.848 	 54.4166 	 -33.1635
| 19> C 	 -121.817 	 55.305 	 -33.1157
| 20> H 	 -122.21 	 54.3661 	 -32.6744
| 21> H 	 -121.663 	 55.7716 	 -32.1578
| 22> H 	 -122.456 	 55.9516 	 -33.6521
| 23> S 	 -122.494 	 61.4953 	 -36.6073
| 24> C 	 -123.286 	 62.6534 	 -35.5755
| 25> C 	 -123.907 	 62.0046 	 -34.5791
| 26> C 	 -123.63 	 60.5999 	 -34.4924
| 27> C 	 -122.666 	 60.2069 	 -35.423
| 28> H 	 -124.578 	 62.4725 	 -33.814
| 29> C 	 -124.096 	 59.6606 	 -33.3878
| 30> H 	 -123.843 	 58.5954 	 -33.6216
| 31> H 	 -125.19 	 59.6684 	 -33.5222
| 32> C 	 -123.707 	 59.909 	 -31.9617
| 33> H 	 -123.966 	 60.9654 	 -31.6157
| 34> H 	 -122.628 	 59.8912 	 -31.9336
| 35> C 	 -124.336 	 58.8372 	 -31.0373
| 36> H 	 -124.164 	 59.0996 	 -30.0114
| 37> H 	 -124.098 	 57.7898 	 -31.1089
| 38> H 	 -125.374 	 58.8848 	 -31.1805
| 39> H 	 -119.891 	 56.257 	 -36.9711
| 40> H 	 -123.508 	 63.7282 	 -35.7571
| 41> *
| 42>
| 43>                          ****END OF INPUT****

CARTESIAN COORDINATES (ANGSTROEM)
---------------------------------
  S    -121.060000   58.473000  -37.131500
  C    -120.330000   57.085800  -36.374400
  C    -120.275000   57.287800  -35.021100
  C    -121.123000   58.388400  -34.538500
  C    -121.845000   58.990600  -35.560300
  H    -121.236000   58.777500  -33.570000
  C    -119.583000   56.406700  -34.050700
  H    -119.300000   56.953400  -33.180800
  H    -118.549000   56.195600  -34.418100
  C    -120.439000   55.051400  -33.800000
  H    -120.563000   54.504900  -34.725900
  H    -119.848000   54.416600  -33.163500
  C    -121.817000   55.305000  -33.115700
  H    -122.210000   54.366100  -32.674400
  H    -121.663000   55.771600  -32.157800
  H    -122.456000   55.951600  -33.652100
  S    -122.494000   61.495300  -36.607300
  C    -123.286000   62.653400  -35.575500
  C    -123.907000   62.004600  -34.579100
  C    -123.630000   60.599900  -34.492400
  C    -122.666000   60.206900  -35.423000
  H    -124.578000   62.472500  -33.814000
  C    -124.096000   59.660600  -33.387800
  H    -123.843000   58.595400  -33.621600
  H    -125.190000   59.668400  -33.522200
  C    -123.707000   59.909000  -31.961700
  H    -123.966000   60.965400  -31.615700
  H    -122.628000   59.891200  -31.933600
  C    -124.336000   58.837200  -31.037300
  H    -124.164000   59.099600  -30.011400
  H    -124.098000   57.789800  -31.108900
  H    -125.374000   58.884800  -31.180500
  H    -119.891000   56.257000  -36.971100
  H    -123.508000   63.728200  -35.757100

 Total Charge           Charge          ....    0
 Multiplicity           Mult            ....    1
 Number of Electrons    NEL             ....  134
 Basis Dimension        Dim             ....  322

ORBITAL ENERGIES
----------------

  NO   OCC          E(Eh)            E(eV)
   0   2.0000     -88.962124     -2420.7825
   1   2.0000     -88.961026     -2420.7526
   2   2.0000     -10.338670      -281.3295
   3   2.0000     -10.330525      -281.1079
   4   2.0000     -10.318141      -280.7709
   5   2.0000     -10.317077      -280.7419
   6   2.0000     -10.303687      -280.3776
   7   2.0000     -10.303590      -280.3749
   8   2.0000     -10.299022      -280.2506
   9   2.0000     -10.294963      -280.1402
  10   2.0000     -10.294927      -280.1392
  11   2.0000     -10.294569      -280.1295
  12   2.0000     -10.293838      -280.1096
  13   2.0000     -10.292702      -280.0787
  14   2.0000     -10.276701      -279.6433
  15   2.0000     -10.274727      -279.5895
  16   2.0000      -8.077201      -219.7918
  17   2.0000      -8.075197      -219.7373
  18   2.0000      -6.035933      -164.2461
  19   2.0000      -6.033978      -164.1929
  20   2.0000      -6.031749      -164.1322
  21   2.0000      -6.030117      -164.0878
  22   2.0000      -6.027604      -164.0194
  23   2.0000      -6.025351      -163.9581
  24   2.0000      -1.005315       -27.3560
  25   2.0000      -0.983478       -26.7618
  26   2.0000      -0.912988       -24.8437
  27   2.0000      -0.902762       -24.5654
  28   2.0000      -0.870728       -23.6937
  29   2.0000      -0.849928       -23.1277
  30   2.0000      -0.840964       -22.8838
  31   2.0000      -0.820360       -22.3231
  32   2.0000      -0.781694       -21.2710
  33   2.0000      -0.770106       -20.9556
  34   2.0000      -0.710131       -19.3237
  35   2.0000      -0.708257       -19.2726
  36   2.0000      -0.697888       -18.9905
  37   2.0000      -0.659774       -17.9534
  38   2.0000      -0.641015       -17.4429
  39   2.0000      -0.612675       -16.6717
  40   2.0000      -0.596976       -16.2445
  41   2.0000      -0.573823       -15.6145
  42   2.0000      -0.563431       -15.3317
  43   2.0000      -0.546180       -14.8623
  44   2.0000      -0.534340       -14.5401
  45   2.0000      -0.527059       -14.3420
  46   2.0000      -0.517931       -14.0936
  47   2.0000      -0.513915       -13.9843
  48   2.0000      -0.505603       -13.7581
  49   2.0000      -0.500013       -13.6061
  50   2.0000      -0.490624       -13.3505
  51   2.0000      -0.481663       -13.1067
  52   2.0000      -0.475693       -12.9443
  53   2.0000      -0.466992       -12.7075
  54   2.0000      -0.456545       -12.4232
  55   2.0000      -0.448102       -12.1935
  56   2.0000      -0.445765       -12.1299
  57   2.0000      -0.438602       -11.9350
  58   2.0000      -0.429598       -11.6899
  59   2.0000      -0.424668       -11.5558
  60   2.0000      -0.421494       -11.4694
  61   2.0000      -0.417560       -11.3624
  62   2.0000      -0.405878       -11.0445
  63   2.0000      -0.360813        -9.8182
  64   2.0000      -0.330066        -8.9816
  65   2.0000      -0.318612        -8.6699
  66   2.0000      -0.286191        -7.7877
  67   0.0000       0.019250         0.5238
  68   0.0000       0.067728         1.8430
  69   0.0000       0.096191         2.6175
  70   0.0000       0.116762         3.1773
  71   0.0000       0.127575         3.4715

MULLIKEN ATOMIC CHARGES
-----------------------
   0 S :    0.075247
   1 C :   -0.126241
   2 C :   -0.078683
   3 C :    0.024154
   4 C :   -0.100967
   5 H :   -0.005274
   6 C :    0.054419
   7 H :    0.013763
   8 H :    0.026601
   9 C :   -0.050546
  10 H :    0.033082
  11 H :    0.022261
  12 C :   -0.042529
  13 H :    0.032985
  14 H :    0.007358
  15 H :    0.053223
  16 S :    0.092688
  17 C :   -0.084624
  18 C :   -0.045471
  19 C :   -0.035790
  20 C :   -0.160084
  21 H :    0.030779
  22 C :    0.005877
  23 H :    0.031658
  24 H :    0.027527
  25 C :   -0.056797
  26 H :    0.033326
  27 H :    0.023033
  28 C :   -0.017048
  29 H :    0.025281
  30 H :    0.033119
  31 H :    0.013824
  32 H :    0.071802
  33 H :    0.072046
Sum of atomic charges:   -0.0000000

LOEWDIN ATOMIC CHARGES
----------------------
   0 S :    0.360436
   1 C :   -0.192458
   2 C :   -0.066702
   3 C :   -0.048549
   4 C :   -0.159968
   5 H :    0.023166
   6 C :   -0.038678
   7 H :    0.025190
   8 H :    0.034266
   9 C :   -0.023827
  10 H :    0.021947
  11 H :    0.019425
  12 C :   -0.070125
  13 H :    0.035265
  14 H :    0.022616
  15 H :    0.020120
  16 S :    0.394255
  17 C :   -0.193419
  18 C :   -0.079721
  19 C :   -0.063455
  20 C :   -0.186036
  21 H :    0.037570
  22 C :   -0.045674
  23 H :    0.035240
  24 H :    0.032576
  25 C :   -0.039266
  26 H :    0.030714
  27 H :    0.017409
  28 C :   -0.060670
  29 H :    0.025945
  30 H :    0.026427
  31 H :    0.020345
  32 H :    0.040770
  33 H :    0.044866

  Mayer bond orders larger than 0.100000
B(  0-S ,  1-C ) :   1.1245 B(  0-S ,  4-C ) :   1.1181 B(  1-C ,  2-C ) :   1.6180
B(  1-C , 32-H ) :   0.9697 B(  2-C ,  3-C ) :   1.1912 B(  2-C ,  6-C ) :   1.0462
B(  3-C ,  4-C ) :   1.5742 B(  3-C ,  5-H ) :   1.0066 B(  4-C , 20-C ) :   1.0764
B(  6-C ,  7-H ) :   0.9438 B(  6-C ,  8-H ) :   0.9387 B(  6-C ,  9-C ) :   1.0490
B(  9-C , 10-H ) :   0.9627 B(  9-C , 11-H ) :   0.9580 B(  9-C , 12-C ) :   1.0767
B( 12-C , 13-H ) :   0.9686 B( 12-C , 14-H ) :   0.9681 B( 12-C , 15-H ) :   0.9760
B( 16-S , 17-C ) :   1.1373 B( 16-S , 20-C ) :   1.1251 B( 17-C , 18-C ) :   1.6269
B( 17-C , 33-H ) :   0.9618 B( 18-C , 19-C ) :   1.2417 B( 18-C , 21-H ) :   0.9811
B( 19-C , 20-C ) :   1.5873 B( 19-C , 22-C ) :   1.0464 B( 22-C , 23-H ) :   0.9382
B( 22-C , 24-H ) :   0.9232 B( 22-C , 25-C ) :   1.0650 B( 25-C , 26-H ) :   0.9489
B( 25-C , 27-H ) :   0.9521 B( 25-C , 28-C ) :   1.0707 B( 28-C , 29-H ) :   0.9728
B( 28-C , 30-H ) :   0.9761 B( 28-C , 31-H ) :   0.9735

Dispersion correction           -0.015264651
FINAL SINGLE POINT ENERGY     -1339.852411755941

DIPOLE MOMENT
-------------
                                X             Y             Z
Electronic contribution:      4.65109      16.53674     -27.01848
Nuclear contribution   :     -4.66960     -16.79743      27.87386
                        -----------------------------------------
Total Dipole Moment    :     -0.01851      -0.26068       0.85539
                        -----------------------------------------
Magnitude (a.u.)       :      0.89442
Magnitude (Debye)      :      2.27343

Rotational constants in cm-1:     0.016842     0.010649     0.006875
Rotational constants in MHz :   504.908332   319.235282   206.097664

                             ****ORCA TERMINATED NORMALLY****
TOTAL RUN TIME: 0 days 0 hours 0 minutes 23 seconds 457 msec
