                         Program Version 4.2.1 -  RELEASE  -
|  1> ! wB97X-D3 SP def2-SVP
|  2> %pal
|  3> nprocs 24
|  4> end
|  5>
|  6> * xyz 0 1
|  7> S 	 -41.2735 	 -49.4199 	 -69.8055
|  8> C 	 -39.8023 	 -48.8559 	 -69.2457
|  9> C 	 -38.6974 	 -49.4731 	 -69.8457
| 10> C 	 -39.1213 	 -50.4536 	 -70.7546
| 11> C 	 -40.4619 	 -50.684 	 -70.7319
| 12> H 	 -38.5406 	 -51.1022 	 -71.3922
| 13> C 	 -37.2578 	 -49.2243 	 -69.4413
| 14> H 	 -37.2197 	 -49.0568 	 -68.3789
| 15> H 	 -37.112 	 -48.2858 	 -69.9872
| 16> C 	 -36.1524 	 -50.286 	 -69.7598
| 17> H 	 -36.5049 	 -51.105 	 -69.1978
| 18> H 	 -36.1439 	 -50.587 	 -70.8132
| 19> C 	 -34.6238 	 -50.0062 	 -69.3769
| 20> H 	 -34.1622 	 -49.2812 	 -70.0336
| 21> H 	 -34.5212 	 -49.6354 	 -68.3883
| 22> H 	 -34.0615 	 -50.9476 	 -69.3808
| 23> S 	 -41.8956 	 -50.8942 	 -72.9966
| 24> C 	 -42.5933 	 -52.4992 	 -73.4595
| 25> C 	 -42.2376 	 -53.5229 	 -72.6374
| 26> C 	 -41.4821 	 -53.0161 	 -71.493
| 27> C 	 -41.2642 	 -51.619 	 -71.4956
| 28> H 	 -42.4863 	 -54.5846 	 -72.8861
| 29> C 	 -40.8932 	 -53.8983 	 -70.4675
| 30> H 	 -39.7776 	 -53.7581 	 -70.5536
| 31> H 	 -41.0346 	 -54.9423 	 -70.8378
| 32> C 	 -41.4292 	 -53.8114 	 -69.0238
| 33> H 	 -42.4922 	 -53.7736 	 -69.0657
| 34> H 	 -41.0725 	 -52.8304 	 -68.6223
| 35> C 	 -41.0404 	 -54.9794 	 -68.1887
| 36> H 	 -40.9655 	 -54.8633 	 -67.1418
| 37> H 	 -40.1052 	 -55.3765 	 -68.5025
| 38> H 	 -41.8419 	 -55.7395 	 -68.2993
| 39> H 	 -39.6123 	 -48.0294 	 -68.5901
| 40> H 	 -43.0967 	 -52.6444 	 -74.3275
| 41> *
| 42>
| 43>                          ****END OF INPUT****

CARTESIAN COORDINATES (ANGSTROEM)
---------------------------------
  S    -41.273500  -49.419900  -69.805500
  C    -39.802300  -48.855900  -69.245700
  C    -38.697400  -49.473100  -69.845700
  C    -39.121300  -50.453600  -70.754600
  C    -40.461900  -50.684000  -70.731900
  H    -38.540600  -51.102200  -71.392200
  C    -37.257800  -49.224300  -69.441300
  H    -37.219700  -49.056800  -68.378900
  H    -37.112000  -48.285800  -69.987200
  C    -36.152400  -50.286000  -69.759800
  H    -36.504900  -51.105000  -69.197800
  H    -36.143900  -50.587000  -70.813200
  C    -34.623800  -50.006200  -69.376900
  H    -34.162200  -49.281200  -70.033600
  H    -34.521200  -49.635400  -68.388300
  H    -34.061500  -50.947600  -69.380800
  S    -41.895600  -50.894200  -72.996600
  C    -42.593300  -52.499200  -73.459500
  C    -42.237600  -53.522900  -72.637400
  C    -41.482100  -53.016100  -71.493000
  C    -41.264200  -51.619000  -71.495600
  H    -42.486300  -54.584600  -72.886100
  C    -40.893200  -53.898300  -70.467500
  H    -39.777600  -53.758100  -70.553600
  H    -41.034600  -54.942300  -70.837800
  C    -41.429200  -53.811400  -69.023800
  H    -42.492200  -53.773600  -69.065700
  H    -41.072500  -52.830400  -68.622300
  C    -41.040400  -54.979400  -68.188700
  H    -40.965500  -54.863300  -67.141800
  H    -40.105200  -55.376500  -68.502500
  H    -41.841900  -55.739500  -68.299300
  H    -39.612300  -48.029400  -68.590100
  H    -43.096700  -52.644400  -74.327500

 Total Charge           Charge          ....    0
 Multiplicity           Mult            ....    1
 Number of Electrons    NEL             ....  134
 Basis Dimension        Dim             ....  322

ORBITAL ENERGIES
----------------

  NO   OCC          E(Eh)            E(eV)
   0   2.0000     -88.964853     -2420.8567
   1   2.0000     -88.960941     -2420.7503
   2   2.0000     -10.325876      -280.9814
   3   2.0000     -10.322793      -280.8975
   4   2.0000     -10.312714      -280.6232
   5   2.0000     -10.307545      -280.4826
   6   2.0000     -10.305831      -280.4359
   7   2.0000     -10.300688      -280.2960
   8   2.0000     -10.298415      -280.2341
   9   2.0000     -10.293711      -280.1061
  10   2.0000     -10.292185      -280.0646
  11   2.0000     -10.290536      -280.0197
  12   2.0000     -10.289786      -279.9993
  13   2.0000     -10.283113      -279.8177
  14   2.0000     -10.279807      -279.7278
  15   2.0000     -10.268248      -279.4132
  16   2.0000      -8.080702      -219.8871
  17   2.0000      -8.074606      -219.7212
  18   2.0000      -6.038916      -164.3273
  19   2.0000      -6.035022      -164.2213
  20   2.0000      -6.033195      -164.1716
  21   2.0000      -6.031735      -164.1319
  22   2.0000      -6.029390      -164.0680
  23   2.0000      -6.025203      -163.9541
  24   2.0000      -1.009441       -27.4683
  25   2.0000      -0.978262       -26.6199
  26   2.0000      -0.908721       -24.7276
  27   2.0000      -0.904802       -24.6209
  28   2.0000      -0.871910       -23.7259
  29   2.0000      -0.851743       -23.1771
  30   2.0000      -0.848736       -23.0953
  31   2.0000      -0.820530       -22.3277
  32   2.0000      -0.782146       -21.2833
  33   2.0000      -0.764492       -20.8029
  34   2.0000      -0.717105       -19.5134
  35   2.0000      -0.699114       -19.0239
  36   2.0000      -0.687972       -18.7207
  37   2.0000      -0.661869       -18.0104
  38   2.0000      -0.645575       -17.5670
  39   2.0000      -0.618860       -16.8400
  40   2.0000      -0.592351       -16.1187
  41   2.0000      -0.571400       -15.5486
  42   2.0000      -0.564847       -15.3703
  43   2.0000      -0.558589       -15.2000
  44   2.0000      -0.526422       -14.3247
  45   2.0000      -0.521910       -14.2019
  46   2.0000      -0.516259       -14.0481
  47   2.0000      -0.511482       -13.9181
  48   2.0000      -0.504102       -13.7173
  49   2.0000      -0.499023       -13.5791
  50   2.0000      -0.493154       -13.4194
  51   2.0000      -0.481897       -13.1131
  52   2.0000      -0.472878       -12.8677
  53   2.0000      -0.462685       -12.5903
  54   2.0000      -0.456498       -12.4219
  55   2.0000      -0.450780       -12.2664
  56   2.0000      -0.448161       -12.1951
  57   2.0000      -0.434655       -11.8276
  58   2.0000      -0.431239       -11.7346
  59   2.0000      -0.428448       -11.6587
  60   2.0000      -0.421964       -11.4822
  61   2.0000      -0.418031       -11.3752
  62   2.0000      -0.405333       -11.0297
  63   2.0000      -0.344128        -9.3642
  64   2.0000      -0.329245        -8.9592
  65   2.0000      -0.313194        -8.5224
  66   2.0000      -0.299214        -8.1420
  67   0.0000       0.041081         1.1179
  68   0.0000       0.052635         1.4323
  69   0.0000       0.104483         2.8431
  70   0.0000       0.130294         3.5455
  71   0.0000       0.133901         3.6436

MULLIKEN ATOMIC CHARGES
-----------------------
   0 S :    0.136119
   1 C :   -0.093431
   2 C :   -0.113402
   3 C :    0.058296
   4 C :   -0.203456
   5 H :    0.006314
   6 C :    0.071699
   7 H :    0.030510
   8 H :    0.040724
   9 C :   -0.092803
  10 H :    0.023905
  11 H :    0.037966
  12 C :   -0.035680
  13 H :    0.038222
  14 H :    0.019610
  15 H :    0.039661
  16 S :    0.087178
  17 C :   -0.042786
  18 C :   -0.039085
  19 C :   -0.044743
  20 C :   -0.157442
  21 H :    0.042912
  22 C :    0.017103
  23 H :    0.042827
  24 H :    0.007841
  25 C :   -0.036281
  26 H :    0.021705
  27 H :    0.039793
  28 C :   -0.020840
  29 H :    0.022726
  30 H :    0.019010
  31 H :    0.028489
  32 H :    0.032390
  33 H :    0.014951
Sum of atomic charges:    0.0000000

LOEWDIN ATOMIC CHARGES
----------------------
   0 S :    0.439682
   1 C :   -0.221316
   2 C :   -0.067113
   3 C :   -0.057339
   4 C :   -0.205821
   5 H :    0.032623
   6 C :   -0.034329
   7 H :    0.030222
   8 H :    0.036347
   9 C :   -0.037760
  10 H :    0.019154
  11 H :    0.023620
  12 C :   -0.059046
  13 H :    0.025020
  14 H :    0.018366
  15 H :    0.032592
  16 S :    0.367275
  17 C :   -0.143887
  18 C :   -0.072332
  19 C :   -0.050195
  20 C :   -0.196571
  21 H :    0.045092
  22 C :   -0.044324
  23 H :    0.038716
  24 H :    0.027251
  25 C :   -0.037325
  26 H :    0.021774
  27 H :    0.028554
  28 C :   -0.062599
  29 H :    0.022135
  30 H :    0.019941
  31 H :    0.031475
  32 H :    0.024876
  33 H :    0.005242

  Mayer bond orders larger than 0.100000
B(  0-S ,  1-C ) :   1.1693 B(  0-S ,  4-C ) :   1.1556 B(  1-C ,  2-C ) :   1.5909
B(  1-C ,  4-C ) :   0.1074 B(  1-C , 32-H ) :   0.9671 B(  2-C ,  3-C ) :   1.2585
B(  2-C ,  6-C ) :   0.9921 B(  3-C ,  4-C ) :   1.5819 B(  3-C ,  5-H ) :   0.9946
B(  4-C , 20-C ) :   1.0135 B(  6-C ,  7-H ) :   0.9500 B(  6-C ,  8-H ) :   0.9290
B(  6-C ,  9-C ) :   1.0697 B(  9-C , 10-H ) :   0.9595 B(  9-C , 11-H ) :   0.9533
B(  9-C , 12-C ) :   1.0792 B( 12-C , 13-H ) :   0.9789 B( 12-C , 14-H ) :   0.9769
B( 12-C , 15-H ) :   0.9751 B( 16-S , 17-C ) :   1.1369 B( 16-S , 20-C ) :   1.1284
B( 17-C , 18-C ) :   1.6537 B( 17-C , 33-H ) :   0.9737 B( 18-C , 19-C ) :   1.2083
B( 18-C , 21-H ) :   0.9809 B( 19-C , 20-C ) :   1.6200 B( 19-C , 22-C ) :   1.0560
B( 22-C , 23-H ) :   0.9208 B( 22-C , 24-H ) :   0.9357 B( 22-C , 25-C ) :   1.0589
B( 25-C , 26-H ) :   0.9606 B( 25-C , 27-H ) :   0.9514 B( 25-C , 28-C ) :   1.0846
B( 28-C , 29-H ) :   0.9718 B( 28-C , 30-H ) :   0.9737 B( 28-C , 31-H ) :   0.9745

Dispersion correction           -0.013952598
FINAL SINGLE POINT ENERGY     -1339.859865410251

DIPOLE MOMENT
-------------
                                X             Y             Z
Electronic contribution:    -20.75195      12.70552     -13.87572
Nuclear contribution   :     21.29934     -13.09830      14.03290
                        -----------------------------------------
Total Dipole Moment    :      0.54738      -0.39279       0.15718
                        -----------------------------------------
Magnitude (a.u.)       :      0.69182
Magnitude (Debye)      :      1.75847

Rotational constants in cm-1:     0.016707     0.008326     0.007082
Rotational constants in MHz :   500.849345   249.594542   212.303090

                             ****ORCA TERMINATED NORMALLY****
TOTAL RUN TIME: 0 days 0 hours 0 minutes 21 seconds 308 msec
