                         Program Version 4.2.1 -  RELEASE  -
|  1> ! wB97X-D3 SP def2-SVP
|  2> %pal
|  3> nprocs 24
|  4> end
|  5>
|  6> * xyz 0 1
|  7> S 	 -108.336 	 59.3532 	 -12.2191
|  8> C 	 -109.487 	 60.6359 	 -12.6384
|  9> C 	 -109.471 	 60.9932 	 -14
| 10> C 	 -108.462 	 60.2312 	 -14.6868
| 11> C 	 -107.788 	 59.2779 	 -13.9033
| 12> H 	 -108.312 	 60.3723 	 -15.7498
| 13> C 	 -110.359 	 61.9737 	 -14.7889
| 14> H 	 -109.866 	 62.648 	 -15.4168
| 15> H 	 -110.749 	 62.586 	 -14.0266
| 16> C 	 -111.629 	 61.3652 	 -15.5167
| 17> H 	 -112.32 	 62.1886 	 -15.9482
| 18> H 	 -111.245 	 60.8751 	 -16.4217
| 19> C 	 -112.52 	 60.378 	 -14.7466
| 20> H 	 -113.36 	 60.1698 	 -15.3335
| 21> H 	 -112.028 	 59.4189 	 -14.5322
| 22> H 	 -112.806 	 60.8579 	 -13.8275
| 23> S 	 -105.235 	 58.965 	 -13.4667
| 24> C 	 -104.277 	 57.9257 	 -14.4673
| 25> C 	 -105.025 	 57.3549 	 -15.4924
| 26> C 	 -106.396 	 57.7603 	 -15.43
| 27> C 	 -106.654 	 58.5213 	 -14.2894
| 28> H 	 -104.578 	 56.656 	 -16.1369
| 29> C 	 -107.465 	 57.2058 	 -16.3652
| 30> H 	 -108.436 	 57.662 	 -16.0777
| 31> H 	 -107.726 	 56.1796 	 -16.0724
| 32> C 	 -107.189 	 57.1338 	 -17.9116
| 33> H 	 -107.904 	 56.4237 	 -18.3629
| 34> H 	 -106.307 	 56.574 	 -17.9315
| 35> C 	 -107.327 	 58.5559 	 -18.6061
| 36> H 	 -106.748 	 59.1494 	 -17.9585
| 37> H 	 -108.346 	 58.9835 	 -18.6295
| 38> H 	 -107.043 	 58.6703 	 -19.6489
| 39> H 	 -110.28 	 60.9528 	 -11.9311
| 40> H 	 -103.253 	 57.6865 	 -14.3749
| 41> *
| 42>
| 43>                          ****END OF INPUT****

CARTESIAN COORDINATES (ANGSTROEM)
---------------------------------
  S    -108.336000   59.353200  -12.219100
  C    -109.487000   60.635900  -12.638400
  C    -109.471000   60.993200  -14.000000
  C    -108.462000   60.231200  -14.686800
  C    -107.788000   59.277900  -13.903300
  H    -108.312000   60.372300  -15.749800
  C    -110.359000   61.973700  -14.788900
  H    -109.866000   62.648000  -15.416800
  H    -110.749000   62.586000  -14.026600
  C    -111.629000   61.365200  -15.516700
  H    -112.320000   62.188600  -15.948200
  H    -111.245000   60.875100  -16.421700
  C    -112.520000   60.378000  -14.746600
  H    -113.360000   60.169800  -15.333500
  H    -112.028000   59.418900  -14.532200
  H    -112.806000   60.857900  -13.827500
  S    -105.235000   58.965000  -13.466700
  C    -104.277000   57.925700  -14.467300
  C    -105.025000   57.354900  -15.492400
  C    -106.396000   57.760300  -15.430000
  C    -106.654000   58.521300  -14.289400
  H    -104.578000   56.656000  -16.136900
  C    -107.465000   57.205800  -16.365200
  H    -108.436000   57.662000  -16.077700
  H    -107.726000   56.179600  -16.072400
  C    -107.189000   57.133800  -17.911600
  H    -107.904000   56.423700  -18.362900
  H    -106.307000   56.574000  -17.931500
  C    -107.327000   58.555900  -18.606100
  H    -106.748000   59.149400  -17.958500
  H    -108.346000   58.983500  -18.629500
  H    -107.043000   58.670300  -19.648900
  H    -110.280000   60.952800  -11.931100
  H    -103.253000   57.686500  -14.374900

 Total Charge           Charge          ....    0
 Multiplicity           Mult            ....    1
 Number of Electrons    NEL             ....  134
 Basis Dimension        Dim             ....  322

ORBITAL ENERGIES
----------------

  NO   OCC          E(Eh)            E(eV)
   0   2.0000     -88.970959     -2421.0229
   1   2.0000     -88.965724     -2420.8804
   2   2.0000     -10.329303      -281.0746
   3   2.0000     -10.323053      -280.9045
   4   2.0000     -10.317966      -280.7661
   5   2.0000     -10.311926      -280.6018
   6   2.0000     -10.308150      -280.4990
   7   2.0000     -10.304520      -280.4003
   8   2.0000     -10.297332      -280.2047
   9   2.0000     -10.294815      -280.1362
  10   2.0000     -10.292583      -280.0754
  11   2.0000     -10.292546      -280.0744
  12   2.0000     -10.291595      -280.0485
  13   2.0000     -10.291090      -280.0348
  14   2.0000     -10.279885      -279.7299
  15   2.0000     -10.272749      -279.5357
  16   2.0000      -8.084711      -219.9962
  17   2.0000      -8.081701      -219.9143
  18   2.0000      -6.043193      -164.4436
  19   2.0000      -6.040101      -164.3595
  20   2.0000      -6.039418      -164.3409
  21   2.0000      -6.035929      -164.2460
  22   2.0000      -6.035501      -164.2343
  23   2.0000      -6.032577      -164.1548
  24   2.0000      -1.011527       -27.5250
  25   2.0000      -0.978231       -26.6190
  26   2.0000      -0.905558       -24.6415
  27   2.0000      -0.901089       -24.5199
  28   2.0000      -0.871065       -23.7029
  29   2.0000      -0.848364       -23.0852
  30   2.0000      -0.844501       -22.9800
  31   2.0000      -0.810228       -22.0474
  32   2.0000      -0.787716       -21.4348
  33   2.0000      -0.774867       -21.0852
  34   2.0000      -0.714202       -19.4344
  35   2.0000      -0.700726       -19.0677
  36   2.0000      -0.693819       -18.8798
  37   2.0000      -0.661374       -17.9969
  38   2.0000      -0.635353       -17.2888
  39   2.0000      -0.621509       -16.9121
  40   2.0000      -0.595112       -16.1938
  41   2.0000      -0.565448       -15.3866
  42   2.0000      -0.553042       -15.0490
  43   2.0000      -0.551964       -15.0197
  44   2.0000      -0.542345       -14.7579
  45   2.0000      -0.531726       -14.4690
  46   2.0000      -0.515462       -14.0264
  47   2.0000      -0.514328       -13.9956
  48   2.0000      -0.502855       -13.6834
  49   2.0000      -0.490615       -13.3503
  50   2.0000      -0.488612       -13.2958
  51   2.0000      -0.474830       -12.9208
  52   2.0000      -0.471702       -12.8357
  53   2.0000      -0.465648       -12.6709
  54   2.0000      -0.455159       -12.3855
  55   2.0000      -0.450349       -12.2546
  56   2.0000      -0.447078       -12.1656
  57   2.0000      -0.441116       -12.0034
  58   2.0000      -0.430550       -11.7159
  59   2.0000      -0.427311       -11.6277
  60   2.0000      -0.424272       -11.5450
  61   2.0000      -0.414454       -11.2779
  62   2.0000      -0.411127       -11.1873
  63   2.0000      -0.346526        -9.4295
  64   2.0000      -0.331907        -9.0317
  65   2.0000      -0.327748        -8.9185
  66   2.0000      -0.289326        -7.8730
  67   0.0000       0.029018         0.7896
  68   0.0000       0.065381         1.7791
  69   0.0000       0.111313         3.0290
  70   0.0000       0.115986         3.1561
  71   0.0000       0.125272         3.4088

MULLIKEN ATOMIC CHARGES
-----------------------
   0 S :    0.111533
   1 C :   -0.138907
   2 C :   -0.115150
   3 C :    0.050367
   4 C :   -0.178518
   5 H :    0.010295
   6 C :    0.128355
   7 H :    0.022505
   8 H :    0.001821
   9 C :   -0.134777
  10 H :    0.041397
  11 H :    0.024004
  12 C :   -0.011196
  13 H :    0.024152
  14 H :    0.045720
  15 H :    0.021435
  16 S :    0.129721
  17 C :   -0.073686
  18 C :   -0.032318
  19 C :   -0.010189
  20 C :   -0.139858
  21 H :    0.004685
  22 C :   -0.002261
  23 H :    0.018001
  24 H :    0.034897
  25 C :   -0.035382
  26 H :    0.025992
  27 H :    0.015791
  28 C :   -0.040298
  29 H :    0.031809
  30 H :    0.031663
  31 H :    0.037794
  32 H :    0.063259
  33 H :    0.037344
Sum of atomic charges:   -0.0000000

LOEWDIN ATOMIC CHARGES
----------------------
   0 S :    0.392910
   1 C :   -0.196998
   2 C :   -0.058672
   3 C :   -0.053515
   4 C :   -0.198246
   5 H :    0.029593
   6 C :   -0.025960
   7 H :    0.026735
   8 H :    0.024132
   9 C :   -0.043530
  10 H :    0.033134
  11 H :    0.017406
  12 C :   -0.059515
  13 H :    0.021282
  14 H :    0.030881
  15 H :    0.021225
  16 S :    0.446879
  17 C :   -0.187005
  18 C :   -0.062731
  19 C :   -0.058083
  20 C :   -0.222152
  21 H :    0.023324
  22 C :   -0.041478
  23 H :    0.029357
  24 H :    0.037300
  25 C :   -0.031889
  26 H :    0.026555
  27 H :    0.015727
  28 C :   -0.066343
  29 H :    0.019803
  30 H :    0.030357
  31 H :    0.026066
  32 H :    0.032205
  33 H :    0.021246

  Mayer bond orders larger than 0.100000
B(  0-S ,  1-C ) :   1.1421 B(  0-S ,  4-C ) :   1.1427 B(  1-C ,  2-C ) :   1.6047
B(  1-C ,  4-C ) :   0.1005 B(  1-C , 32-H ) :   0.9581 B(  2-C ,  3-C ) :   1.2574
B(  2-C ,  6-C ) :   1.0199 B(  3-C ,  4-C ) :   1.5505 B(  3-C ,  5-H ) :   0.9915
B(  4-C , 20-C ) :   1.0400 B(  6-C ,  7-H ) :   0.9462 B(  6-C ,  8-H ) :   0.9310
B(  6-C ,  9-C ) :   1.0531 B(  9-C , 10-H ) :   0.9585 B(  9-C , 11-H ) :   0.9586
B(  9-C , 12-C ) :   1.0807 B( 12-C , 13-H ) :   0.9715 B( 12-C , 14-H ) :   0.9708
B( 12-C , 15-H ) :   0.9765 B( 16-S , 17-C ) :   1.1630 B( 16-S , 20-C ) :   1.1703
B( 17-C , 18-C ) :   1.6033 B( 17-C , 33-H ) :   0.9708 B( 18-C , 19-C ) :   1.2350
B( 18-C , 21-H ) :   0.9991 B( 19-C , 20-C ) :   1.5673 B( 19-C , 22-C ) :   1.0408
B( 22-C , 23-H ) :   0.9373 B( 22-C , 24-H ) :   0.9367 B( 22-C , 25-C ) :   1.0641
B( 25-C , 26-H ) :   0.9563 B( 25-C , 27-H ) :   0.9604 B( 25-C , 28-C ) :   1.0458
B( 28-C , 29-H ) :   0.9821 B( 28-C , 30-H ) :   0.9758 B( 28-C , 31-H ) :   0.9772

Dispersion correction           -0.014883260
FINAL SINGLE POINT ENERGY     -1339.860753640106

DIPOLE MOMENT
-------------
                                X             Y             Z
Electronic contribution:     18.40515      -1.92294      22.55350
Nuclear contribution   :    -18.71446       1.90108     -23.12468
                        -----------------------------------------
Total Dipole Moment    :     -0.30931      -0.02187      -0.57118
                        -----------------------------------------
Magnitude (a.u.)       :      0.64992
Magnitude (Debye)      :      1.65197

Rotational constants in cm-1:     0.018052     0.009602     0.006955
Rotational constants in MHz :   541.197062   287.863274   208.510775

                             ****ORCA TERMINATED NORMALLY****
TOTAL RUN TIME: 0 days 0 hours 0 minutes 22 seconds 26 msec
