                         Program Version 4.2.1 -  RELEASE  -
|  1> ! wB97X-D3 SP def2-SVP
|  2> %pal
|  3> nprocs 24
|  4> end
|  5>
|  6> * xyz 0 1
|  7> S 	 -144.509 	 10.9849 	 -6.96463
|  8> C 	 -144.232 	 10.4556 	 -5.37224
|  9> C 	 -145.088 	 11.0472 	 -4.47858
| 10> C 	 -146.048 	 11.9338 	 -5.15929
| 11> C 	 -145.966 	 11.7942 	 -6.52951
| 12> H 	 -146.908 	 12.4646 	 -4.72117
| 13> C 	 -144.955 	 11.0539 	 -2.92309
| 14> H 	 -145.032 	 12.1273 	 -2.62932
| 15> H 	 -143.989 	 10.5429 	 -2.50763
| 16> C 	 -145.986 	 10.2246 	 -2.10348
| 17> H 	 -145.872 	 10.4636 	 -1.06484
| 18> H 	 -146.981 	 10.4289 	 -2.41049
| 19> C 	 -145.706 	 8.79768 	 -2.2039
| 20> H 	 -144.711 	 8.52511 	 -1.88503
| 21> H 	 -146.464 	 8.16138 	 -1.67498
| 22> H 	 -145.936 	 8.53179 	 -3.22126
| 23> S 	 -147.883 	 11.3652 	 -8.42708
| 24> C 	 -148.797 	 12.7043 	 -8.97036
| 25> C 	 -148.287 	 13.8838 	 -8.56763
| 26> C 	 -147.147 	 13.7336 	 -7.68427
| 27> C 	 -146.816 	 12.4037 	 -7.50794
| 28> H 	 -148.729 	 14.796 	 -8.77961
| 29> C 	 -146.504 	 14.9349 	 -6.92328
| 30> H 	 -146.239 	 15.5776 	 -7.72177
| 31> H 	 -145.688 	 14.5465 	 -6.30473
| 32> C 	 -147.572 	 15.6911 	 -6.07202
| 33> H 	 -147.971 	 15.0611 	 -5.2898
| 34> H 	 -148.426 	 16.0682 	 -6.63999
| 35> C 	 -146.998 	 16.8477 	 -5.29239
| 36> H 	 -147.021 	 17.7531 	 -5.96148
| 37> H 	 -146.003 	 16.6536 	 -4.93133
| 38> H 	 -147.653 	 17.1499 	 -4.4584
| 39> H 	 -143.472 	 9.6024 	 -5.21823
| 40> H 	 -149.664 	 12.6784 	 -9.66912
| 41> *
| 42>
| 43>                          ****END OF INPUT****

CARTESIAN COORDINATES (ANGSTROEM)
---------------------------------
  S    -144.509000   10.984900   -6.964630
  C    -144.232000   10.455600   -5.372240
  C    -145.088000   11.047200   -4.478580
  C    -146.048000   11.933800   -5.159290
  C    -145.966000   11.794200   -6.529510
  H    -146.908000   12.464600   -4.721170
  C    -144.955000   11.053900   -2.923090
  H    -145.032000   12.127300   -2.629320
  H    -143.989000   10.542900   -2.507630
  C    -145.986000   10.224600   -2.103480
  H    -145.872000   10.463600   -1.064840
  H    -146.981000   10.428900   -2.410490
  C    -145.706000    8.797680   -2.203900
  H    -144.711000    8.525110   -1.885030
  H    -146.464000    8.161380   -1.674980
  H    -145.936000    8.531790   -3.221260
  S    -147.883000   11.365200   -8.427080
  C    -148.797000   12.704300   -8.970360
  C    -148.287000   13.883800   -8.567630
  C    -147.147000   13.733600   -7.684270
  C    -146.816000   12.403700   -7.507940
  H    -148.729000   14.796000   -8.779610
  C    -146.504000   14.934900   -6.923280
  H    -146.239000   15.577600   -7.721770
  H    -145.688000   14.546500   -6.304730
  C    -147.572000   15.691100   -6.072020
  H    -147.971000   15.061100   -5.289800
  H    -148.426000   16.068200   -6.639990
  C    -146.998000   16.847700   -5.292390
  H    -147.021000   17.753100   -5.961480
  H    -146.003000   16.653600   -4.931330
  H    -147.653000   17.149900   -4.458400
  H    -143.472000    9.602400   -5.218230
  H    -149.664000   12.678400   -9.669120

 Total Charge           Charge          ....    0
 Multiplicity           Mult            ....    1
 Number of Electrons    NEL             ....  134
 Basis Dimension        Dim             ....  322

ORBITAL ENERGIES
----------------

  NO   OCC          E(Eh)            E(eV)
   0   2.0000     -88.962482     -2420.7922
   1   2.0000     -88.960680     -2420.7432
   2   2.0000     -10.323201      -280.9086
   3   2.0000     -10.318762      -280.7878
   4   2.0000     -10.316791      -280.7341
   5   2.0000     -10.314985      -280.6850
   6   2.0000     -10.308845      -280.5179
   7   2.0000     -10.304992      -280.4131
   8   2.0000     -10.304429      -280.3978
   9   2.0000     -10.299910      -280.2748
  10   2.0000     -10.295537      -280.1558
  11   2.0000     -10.285966      -279.8954
  12   2.0000     -10.285768      -279.8900
  13   2.0000     -10.278554      -279.6937
  14   2.0000     -10.274431      -279.5815
  15   2.0000     -10.269141      -279.4375
  16   2.0000      -8.078270      -219.8209
  17   2.0000      -8.077408      -219.7974
  18   2.0000      -6.036761      -164.2686
  19   2.0000      -6.035732      -164.2406
  20   2.0000      -6.032619      -164.1559
  21   2.0000      -6.031665      -164.1300
  22   2.0000      -6.028981      -164.0569
  23   2.0000      -6.028211      -164.0360
  24   2.0000      -1.012984       -27.5647
  25   2.0000      -0.990020       -26.9398
  26   2.0000      -0.914657       -24.8891
  27   2.0000      -0.909061       -24.7368
  28   2.0000      -0.876909       -23.8619
  29   2.0000      -0.852402       -23.1950
  30   2.0000      -0.847545       -23.0629
  31   2.0000      -0.814257       -22.1571
  32   2.0000      -0.780342       -21.2342
  33   2.0000      -0.769041       -20.9267
  34   2.0000      -0.702177       -19.1072
  35   2.0000      -0.694655       -18.9025
  36   2.0000      -0.686716       -18.6865
  37   2.0000      -0.661574       -18.0023
  38   2.0000      -0.642678       -17.4882
  39   2.0000      -0.617579       -16.8052
  40   2.0000      -0.595274       -16.1982
  41   2.0000      -0.575046       -15.6478
  42   2.0000      -0.571143       -15.5416
  43   2.0000      -0.550702       -14.9854
  44   2.0000      -0.547131       -14.8882
  45   2.0000      -0.527363       -14.3503
  46   2.0000      -0.522081       -14.2065
  47   2.0000      -0.512723       -13.9519
  48   2.0000      -0.502357       -13.6698
  49   2.0000      -0.493595       -13.4314
  50   2.0000      -0.487411       -13.2631
  51   2.0000      -0.478705       -13.0262
  52   2.0000      -0.471524       -12.8308
  53   2.0000      -0.465918       -12.6783
  54   2.0000      -0.460806       -12.5392
  55   2.0000      -0.450867       -12.2687
  56   2.0000      -0.442492       -12.0408
  57   2.0000      -0.438255       -11.9255
  58   2.0000      -0.434910       -11.8345
  59   2.0000      -0.423863       -11.5339
  60   2.0000      -0.419838       -11.4244
  61   2.0000      -0.411122       -11.1872
  62   2.0000      -0.408720       -11.1218
  63   2.0000      -0.340104        -9.2547
  64   2.0000      -0.326660        -8.8889
  65   2.0000      -0.325419        -8.8551
  66   2.0000      -0.306579        -8.3424
  67   0.0000       0.042117         1.1461
  68   0.0000       0.068884         1.8744
  69   0.0000       0.103835         2.8255
  70   0.0000       0.128426         3.4947
  71   0.0000       0.131604         3.5811

MULLIKEN ATOMIC CHARGES
-----------------------
   0 S :    0.115471
   1 C :   -0.151533
   2 C :   -0.066804
   3 C :    0.020623
   4 C :   -0.182834
   5 H :    0.032689
   6 C :   -0.005784
   7 H :    0.044906
   8 H :    0.034693
   9 C :   -0.023170
  10 H :    0.020017
  11 H :    0.013704
  12 C :   -0.052480
  13 H :    0.026356
  14 H :    0.030900
  15 H :    0.022395
  16 S :    0.118084
  17 C :   -0.088527
  18 C :   -0.011395
  19 C :   -0.041485
  20 C :   -0.178762
  21 H :   -0.014060
  22 C :    0.119844
  23 H :    0.024087
  24 H :    0.042756
  25 C :   -0.103819
  26 H :    0.023741
  27 H :    0.031030
  28 C :   -0.049834
  29 H :    0.029137
  30 H :    0.031424
  31 H :    0.034126
  32 H :    0.086921
  33 H :    0.067579
Sum of atomic charges:   -0.0000000

LOEWDIN ATOMIC CHARGES
----------------------
   0 S :    0.429534
   1 C :   -0.221251
   2 C :   -0.071063
   3 C :   -0.063704
   4 C :   -0.207864
   5 H :    0.036597
   6 C :   -0.034053
   7 H :    0.035891
   8 H :    0.038798
   9 C :   -0.043460
  10 H :    0.020723
  11 H :    0.016860
  12 C :   -0.067135
  13 H :    0.019586
  14 H :    0.031132
  15 H :    0.023910
  16 S :    0.419394
  17 C :   -0.194116
  18 C :   -0.071193
  19 C :   -0.040907
  20 C :   -0.218150
  21 H :    0.017146
  22 C :   -0.017577
  23 H :    0.029338
  24 H :    0.034586
  25 C :   -0.044508
  26 H :    0.020568
  27 H :    0.024478
  28 C :   -0.067669
  29 H :    0.027097
  30 H :    0.021365
  31 H :    0.028039
  32 H :    0.047103
  33 H :    0.040503

  Mayer bond orders larger than 0.100000
B(  0-S ,  1-C ) :   1.1505 B(  0-S ,  4-C ) :   1.1709 B(  1-C ,  2-C ) :   1.6190
B(  1-C , 32-H ) :   0.9570 B(  2-C ,  3-C ) :   1.2173 B(  2-C ,  6-C ) :   1.0063
B(  3-C ,  4-C ) :   1.5937 B(  3-C ,  5-H ) :   0.9896 B(  4-C , 20-C ) :   1.0127
B(  6-C ,  7-H ) :   0.9458 B(  6-C ,  8-H ) :   0.9536 B(  6-C ,  9-C ) :   1.0631
B(  9-C , 10-H ) :   0.9535 B(  9-C , 11-H ) :   0.9520 B(  9-C , 12-C ) :   1.0932
B( 12-C , 13-H ) :   0.9717 B( 12-C , 14-H ) :   0.9677 B( 12-C , 15-H ) :   0.9733
B( 16-S , 17-C ) :   1.1603 B( 16-S , 20-C ) :   1.1330 B( 17-C , 18-C ) :   1.6283
B( 17-C , 33-H ) :   0.9586 B( 18-C , 19-C ) :   1.2203 B( 18-C , 21-H ) :   1.0012
B( 19-C , 20-C ) :   1.6259 B( 19-C , 22-C ) :   1.0358 B( 22-C , 23-H ) :   0.9260
B( 22-C , 24-H ) :   0.9337 B( 22-C , 25-C ) :   1.0699 B( 25-C , 26-H ) :   0.9583
B( 25-C , 27-H ) :   0.9548 B( 25-C , 28-C ) :   1.0892 B( 28-C , 29-H ) :   0.9761
B( 28-C , 30-H ) :   0.9728 B( 28-C , 31-H ) :   0.9755

Dispersion correction           -0.014183866
FINAL SINGLE POINT ENERGY     -1339.868578766219

DIPOLE MOMENT
-------------
                                X             Y             Z
Electronic contribution:      1.56764     -10.29740     -23.52752
Nuclear contribution   :     -1.84268      10.71547      23.94834
                        -----------------------------------------
Total Dipole Moment    :     -0.27503       0.41807       0.42082
                        -----------------------------------------
Magnitude (a.u.)       :      0.65385
Magnitude (Debye)      :      1.66195

Rotational constants in cm-1:     0.017596     0.008537     0.006925
Rotational constants in MHz :   527.528473   255.944160   207.616083

                             ****ORCA TERMINATED NORMALLY****
TOTAL RUN TIME: 0 days 0 hours 0 minutes 21 seconds 274 msec
