                         Program Version 4.2.1 -  RELEASE  -
|  1> ! wB97X-D3 SP def2-SVP
|  2> %pal
|  3> nprocs 24
|  4> end
|  5>
|  6> * xyz 0 1
|  7> S 	 -116.279 	 56.5749 	 -79.4701
|  8> C 	 -117.047 	 57.7854 	 -80.5463
|  9> C 	 -116.391 	 57.9105 	 -81.741
| 10> C 	 -115.259 	 57.0199 	 -81.7871
| 11> C 	 -115.055 	 56.2125 	 -80.6698
| 12> H 	 -114.614 	 56.87 	 -82.6113
| 13> C 	 -116.707 	 58.8647 	 -82.9004
| 14> H 	 -117.816 	 58.8443 	 -83.0491
| 15> H 	 -116.211 	 58.4375 	 -83.7609
| 16> C 	 -116.239 	 60.3278 	 -82.7327
| 17> H 	 -117.014 	 60.945 	 -83.2616
| 18> H 	 -116.272 	 60.5488 	 -81.6533
| 19> C 	 -114.818 	 60.7186 	 -83.263
| 20> H 	 -114.667 	 61.7817 	 -83.155
| 21> H 	 -114.082 	 60.18 	 -82.6825
| 22> H 	 -114.663 	 60.4827 	 -84.3283
| 23> S 	 -114.266 	 53.6423 	 -80.2784
| 24> C 	 -112.525 	 53.3057 	 -80.3222
| 25> C 	 -111.744 	 54.3757 	 -80.3241
| 26> C 	 -112.538 	 55.5724 	 -80.3181
| 27> C 	 -113.926 	 55.3164 	 -80.4485
| 28> H 	 -110.67 	 54.3972 	 -80.3043
| 29> C 	 -111.816 	 56.8956 	 -80.0488
| 30> H 	 -110.811 	 56.6209 	 -79.6856
| 31> H 	 -112.334 	 57.5342 	 -79.3112
| 32> C 	 -111.473 	 57.8403 	 -81.2785
| 33> H 	 -112.33 	 58.1428 	 -81.8269
| 34> H 	 -110.917 	 57.2901 	 -82.0049
| 35> C 	 -110.58 	 58.981 	 -80.7322
| 36> H 	 -110.44 	 59.8395 	 -81.3795
| 37> H 	 -109.527 	 58.6011 	 -80.4881
| 38> H 	 -111.045 	 59.3964 	 -79.8732
| 39> H 	 -117.928 	 58.2314 	 -80.2442
| 40> H 	 -112.105 	 52.3198 	 -80.4629
| 41> *
| 42>
| 43>                          ****END OF INPUT****

CARTESIAN COORDINATES (ANGSTROEM)
---------------------------------
  S    -116.279000   56.574900  -79.470100
  C    -117.047000   57.785400  -80.546300
  C    -116.391000   57.910500  -81.741000
  C    -115.259000   57.019900  -81.787100
  C    -115.055000   56.212500  -80.669800
  H    -114.614000   56.870000  -82.611300
  C    -116.707000   58.864700  -82.900400
  H    -117.816000   58.844300  -83.049100
  H    -116.211000   58.437500  -83.760900
  C    -116.239000   60.327800  -82.732700
  H    -117.014000   60.945000  -83.261600
  H    -116.272000   60.548800  -81.653300
  C    -114.818000   60.718600  -83.263000
  H    -114.667000   61.781700  -83.155000
  H    -114.082000   60.180000  -82.682500
  H    -114.663000   60.482700  -84.328300
  S    -114.266000   53.642300  -80.278400
  C    -112.525000   53.305700  -80.322200
  C    -111.744000   54.375700  -80.324100
  C    -112.538000   55.572400  -80.318100
  C    -113.926000   55.316400  -80.448500
  H    -110.670000   54.397200  -80.304300
  C    -111.816000   56.895600  -80.048800
  H    -110.811000   56.620900  -79.685600
  H    -112.334000   57.534200  -79.311200
  C    -111.473000   57.840300  -81.278500
  H    -112.330000   58.142800  -81.826900
  H    -110.917000   57.290100  -82.004900
  C    -110.580000   58.981000  -80.732200
  H    -110.440000   59.839500  -81.379500
  H    -109.527000   58.601100  -80.488100
  H    -111.045000   59.396400  -79.873200
  H    -117.928000   58.231400  -80.244200
  H    -112.105000   52.319800  -80.462900

 Total Charge           Charge          ....    0
 Multiplicity           Mult            ....    1
 Number of Electrons    NEL             ....  134
 Basis Dimension        Dim             ....  322

ORBITAL ENERGIES
----------------

  NO   OCC          E(Eh)            E(eV)
   0   2.0000     -88.965973     -2420.8872
   1   2.0000     -88.963705     -2420.8255
   2   2.0000     -10.329157      -281.0706
   3   2.0000     -10.326750      -281.0052
   4   2.0000     -10.312841      -280.6267
   5   2.0000     -10.312643      -280.6213
   6   2.0000     -10.306267      -280.4478
   7   2.0000     -10.303725      -280.3786
   8   2.0000     -10.297614      -280.2123
   9   2.0000     -10.296818      -280.1907
  10   2.0000     -10.294177      -280.1188
  11   2.0000     -10.291871      -280.0560
  12   2.0000     -10.289241      -279.9845
  13   2.0000     -10.283194      -279.8199
  14   2.0000     -10.281338      -279.7694
  15   2.0000     -10.280293      -279.7410
  16   2.0000      -8.081228      -219.9014
  17   2.0000      -8.078023      -219.8142
  18   2.0000      -6.039719      -164.3491
  19   2.0000      -6.036556      -164.2630
  20   2.0000      -6.035805      -164.2426
  21   2.0000      -6.032559      -164.1543
  22   2.0000      -6.031823      -164.1342
  23   2.0000      -6.028817      -164.0524
  24   2.0000      -1.005740       -27.3676
  25   2.0000      -0.982273       -26.7290
  26   2.0000      -0.906701       -24.6726
  27   2.0000      -0.901115       -24.5206
  28   2.0000      -0.872724       -23.7480
  29   2.0000      -0.847601       -23.0644
  30   2.0000      -0.842710       -22.9313
  31   2.0000      -0.815886       -22.2014
  32   2.0000      -0.784054       -21.3352
  33   2.0000      -0.765406       -20.8278
  34   2.0000      -0.710550       -19.3350
  35   2.0000      -0.700036       -19.0489
  36   2.0000      -0.693019       -18.8580
  37   2.0000      -0.663982       -18.0679
  38   2.0000      -0.649114       -17.6633
  39   2.0000      -0.612874       -16.6771
  40   2.0000      -0.596923       -16.2431
  41   2.0000      -0.571591       -15.5538
  42   2.0000      -0.562721       -15.3124
  43   2.0000      -0.549961       -14.9652
  44   2.0000      -0.536566       -14.6007
  45   2.0000      -0.518629       -14.1126
  46   2.0000      -0.515452       -14.0262
  47   2.0000      -0.513476       -13.9724
  48   2.0000      -0.500597       -13.6219
  49   2.0000      -0.492078       -13.3901
  50   2.0000      -0.486164       -13.2292
  51   2.0000      -0.481280       -13.0963
  52   2.0000      -0.471001       -12.8166
  53   2.0000      -0.467614       -12.7244
  54   2.0000      -0.462638       -12.5890
  55   2.0000      -0.453046       -12.3280
  56   2.0000      -0.443805       -12.0765
  57   2.0000      -0.434003       -11.8098
  58   2.0000      -0.431693       -11.7470
  59   2.0000      -0.427129       -11.6228
  60   2.0000      -0.421195       -11.4613
  61   2.0000      -0.420243       -11.4354
  62   2.0000      -0.415236       -11.2991
  63   2.0000      -0.346047        -9.4164
  64   2.0000      -0.331436        -9.0188
  65   2.0000      -0.322941        -8.7877
  66   2.0000      -0.298637        -8.1263
  67   0.0000       0.035573         0.9680
  68   0.0000       0.059987         1.6323
  69   0.0000       0.106275         2.8919
  70   0.0000       0.120247         3.2721
  71   0.0000       0.126294         3.4366

MULLIKEN ATOMIC CHARGES
-----------------------
   0 S :    0.094961
   1 C :   -0.115643
   2 C :   -0.068413
   3 C :    0.039184
   4 C :   -0.146638
   5 H :   -0.001595
   6 C :    0.077596
   7 H :    0.040596
   8 H :    0.017426
   9 C :   -0.092230
  10 H :    0.037010
  11 H :    0.035957
  12 C :   -0.049884
  13 H :    0.037856
  14 H :    0.036978
  15 H :    0.033310
  16 S :    0.114633
  17 C :   -0.073177
  18 C :   -0.017344
  19 C :   -0.012220
  20 C :   -0.186892
  21 H :    0.018662
  22 C :    0.020100
  23 H :    0.015675
  24 H :    0.045266
  25 C :   -0.042007
  26 H :    0.022281
  27 H :    0.011235
  28 C :   -0.055045
  29 H :    0.029359
  30 H :    0.041640
  31 H :    0.021779
  32 H :    0.020451
  33 H :    0.049131
Sum of atomic charges:   -0.0000000

LOEWDIN ATOMIC CHARGES
----------------------
   0 S :    0.382756
   1 C :   -0.166669
   2 C :   -0.062517
   3 C :   -0.058170
   4 C :   -0.199631
   5 H :    0.022446
   6 C :   -0.030775
   7 H :    0.039321
   8 H :    0.027717
   9 C :   -0.043718
  10 H :    0.028273
  11 H :    0.026963
  12 C :   -0.065044
  13 H :    0.027480
  14 H :    0.023753
  15 H :    0.025426
  16 S :    0.411899
  17 C :   -0.171325
  18 C :   -0.067882
  19 C :   -0.049911
  20 C :   -0.215556
  21 H :    0.034135
  22 C :   -0.027788
  23 H :    0.030315
  24 H :    0.034262
  25 C :   -0.034378
  26 H :    0.014347
  27 H :    0.017154
  28 C :   -0.066979
  29 H :    0.023797
  30 H :    0.033908
  31 H :    0.018571
  32 H :    0.009988
  33 H :    0.027834

  Mayer bond orders larger than 0.100000
B(  0-S ,  1-C ) :   1.1349 B(  0-S ,  4-C ) :   1.1440 B(  1-C ,  2-C ) :   1.6076
B(  1-C , 32-H ) :   0.9839 B(  2-C ,  3-C ) :   1.2279 B(  2-C ,  6-C ) :   1.0229
B(  3-C ,  4-C ) :   1.6007 B(  3-C ,  5-H ) :   0.9960 B(  4-C , 20-C ) :   1.0238
B(  6-C ,  7-H ) :   0.9419 B(  6-C ,  8-H ) :   0.9416 B(  6-C ,  9-C ) :   1.0509
B(  9-C , 10-H ) :   0.9585 B(  9-C , 11-H ) :   0.9595 B(  9-C , 12-C ) :   1.0813
B( 12-C , 13-H ) :   0.9731 B( 12-C , 14-H ) :   0.9769 B( 12-C , 15-H ) :   0.9756
B( 16-S , 17-C ) :   1.1408 B( 16-S , 20-C ) :   1.1458 B( 17-C , 18-C ) :   1.6423
B( 17-C , 33-H ) :   0.9614 B( 18-C , 19-C ) :   1.2371 B( 18-C , 21-H ) :   0.9884
B( 19-C , 20-C ) :   1.5936 B( 19-C , 22-C ) :   1.0352 B( 22-C , 23-H ) :   0.9421
B( 22-C , 24-H ) :   0.9430 B( 22-C , 25-C ) :   1.0532 B( 25-C , 26-H ) :   0.9567
B( 25-C , 27-H ) :   0.9530 B( 25-C , 28-C ) :   1.0745 B( 28-C , 29-H ) :   0.9738
B( 28-C , 30-H ) :   0.9747 B( 28-C , 31-H ) :   0.9753

Dispersion correction           -0.014524460
FINAL SINGLE POINT ENERGY     -1339.877962821332

DIPOLE MOMENT
-------------
                                X             Y             Z
Electronic contribution:    -12.73364     -26.56498      12.52828
Nuclear contribution   :     13.09803      27.02995     -12.92095
                        -----------------------------------------
Total Dipole Moment    :      0.36439       0.46496      -0.39267
                        -----------------------------------------
Magnitude (a.u.)       :      0.70934
Magnitude (Debye)      :      1.80300

Rotational constants in cm-1:     0.016765     0.009806     0.006960
Rotational constants in MHz :   502.602080   293.962367   208.655933

                             ****ORCA TERMINATED NORMALLY****
TOTAL RUN TIME: 0 days 0 hours 0 minutes 22 seconds 18 msec
