                         Program Version 4.2.1 -  RELEASE  -
|  1> ! wB97X-D3 SP def2-SVP
|  2> %pal
|  3> nprocs 24
|  4> end
|  5>
|  6> * xyz 0 1
|  7> S 	 -101.892 	 11.2828 	 -8.32826
|  8> C 	 -100.727 	 11.9394 	 -7.09433
|  9> C 	 -101.338 	 12.0451 	 -5.81385
| 10> C 	 -102.808 	 11.8179 	 -5.91849
| 11> C 	 -103.224 	 11.6972 	 -7.23284
| 12> H 	 -103.487 	 11.8374 	 -5.08791
| 13> C 	 -100.5 	 12.1813 	 -4.54645
| 14> H 	 -101.145 	 12.5986 	 -3.72314
| 15> H 	 -99.724 	 12.9773 	 -4.67851
| 16> C 	 -99.7521 	 10.9026 	 -4.06787
| 17> H 	 -99.2773 	 10.4793 	 -4.95575
| 18> H 	 -98.8746 	 11.1153 	 -3.41829
| 19> C 	 -100.57 	 9.81211 	 -3.36229
| 20> H 	 -101.242 	 10.3756 	 -2.75644
| 21> H 	 -101.133 	 9.06973 	 -3.98405
| 22> H 	 -99.8427 	 9.22169 	 -2.72693
| 23> S 	 -104.992 	 10.4545 	 -9.05368
| 24> C 	 -106.716 	 10.6176 	 -8.84317
| 25> C 	 -106.942 	 11.3845 	 -7.72025
| 26> C 	 -105.829 	 11.9951 	 -7.09857
| 27> C 	 -104.645 	 11.4965 	 -7.61849
| 28> H 	 -107.989 	 11.5389 	 -7.42832
| 29> C 	 -106.065 	 12.9873 	 -5.97503
| 30> H 	 -106.622 	 13.7862 	 -6.4577
| 31> H 	 -105.188 	 13.4933 	 -5.68984
| 32> C 	 -106.869 	 12.7096 	 -4.66993
| 33> H 	 -106.282 	 11.9334 	 -4.1088
| 34> H 	 -107.865 	 12.1966 	 -4.89691
| 35> C 	 -107.25 	 13.9028 	 -3.74487
| 36> H 	 -108.062 	 14.5288 	 -4.19873
| 37> H 	 -106.406 	 14.5207 	 -3.57093
| 38> H 	 -107.517 	 13.4647 	 -2.81732
| 39> H 	 -99.6588 	 12.0748 	 -7.14754
| 40> H 	 -107.497 	 10.0498 	 -9.30015
| 41> *
| 42>
| 43>                          ****END OF INPUT****

CARTESIAN COORDINATES (ANGSTROEM)
---------------------------------
  S    -101.892000   11.282800   -8.328260
  C    -100.727000   11.939400   -7.094330
  C    -101.338000   12.045100   -5.813850
  C    -102.808000   11.817900   -5.918490
  C    -103.224000   11.697200   -7.232840
  H    -103.487000   11.837400   -5.087910
  C    -100.500000   12.181300   -4.546450
  H    -101.145000   12.598600   -3.723140
  H    -99.724000   12.977300   -4.678510
  C    -99.752100   10.902600   -4.067870
  H    -99.277300   10.479300   -4.955750
  H    -98.874600   11.115300   -3.418290
  C    -100.570000    9.812110   -3.362290
  H    -101.242000   10.375600   -2.756440
  H    -101.133000    9.069730   -3.984050
  H    -99.842700    9.221690   -2.726930
  S    -104.992000   10.454500   -9.053680
  C    -106.716000   10.617600   -8.843170
  C    -106.942000   11.384500   -7.720250
  C    -105.829000   11.995100   -7.098570
  C    -104.645000   11.496500   -7.618490
  H    -107.989000   11.538900   -7.428320
  C    -106.065000   12.987300   -5.975030
  H    -106.622000   13.786200   -6.457700
  H    -105.188000   13.493300   -5.689840
  C    -106.869000   12.709600   -4.669930
  H    -106.282000   11.933400   -4.108800
  H    -107.865000   12.196600   -4.896910
  C    -107.250000   13.902800   -3.744870
  H    -108.062000   14.528800   -4.198730
  H    -106.406000   14.520700   -3.570930
  H    -107.517000   13.464700   -2.817320
  H    -99.658800   12.074800   -7.147540
  H    -107.497000   10.049800   -9.300150

 Total Charge           Charge          ....    0
 Multiplicity           Mult            ....    1
 Number of Electrons    NEL             ....  134
 Basis Dimension        Dim             ....  322

ORBITAL ENERGIES
----------------

  NO   OCC          E(Eh)            E(eV)
   0   2.0000     -88.971724     -2421.0437
   1   2.0000     -88.965456     -2420.8731
   2   2.0000     -10.338068      -281.3131
   3   2.0000     -10.336580      -281.2726
   4   2.0000     -10.322157      -280.8802
   5   2.0000     -10.315725      -280.7052
   6   2.0000     -10.314368      -280.6682
   7   2.0000     -10.307723      -280.4874
   8   2.0000     -10.305453      -280.4256
   9   2.0000     -10.302985      -280.3585
  10   2.0000     -10.301443      -280.3165
  11   2.0000     -10.291780      -280.0536
  12   2.0000     -10.291461      -280.0449
  13   2.0000     -10.290857      -280.0284
  14   2.0000     -10.283927      -279.8399
  15   2.0000     -10.282094      -279.7900
  16   2.0000      -8.084680      -219.9953
  17   2.0000      -8.079485      -219.8540
  18   2.0000      -6.043600      -164.4547
  19   2.0000      -6.039842      -164.3524
  20   2.0000      -6.038169      -164.3069
  21   2.0000      -6.034703      -164.2126
  22   2.0000      -6.034135      -164.1972
  23   2.0000      -6.030067      -164.0865
  24   2.0000      -1.000007       -27.2116
  25   2.0000      -0.974316       -26.5125
  26   2.0000      -0.906376       -24.6637
  27   2.0000      -0.905198       -24.6317
  28   2.0000      -0.863722       -23.5031
  29   2.0000      -0.854345       -23.2479
  30   2.0000      -0.839537       -22.8450
  31   2.0000      -0.813592       -22.1390
  32   2.0000      -0.787517       -21.4294
  33   2.0000      -0.772486       -21.0204
  34   2.0000      -0.704782       -19.1781
  35   2.0000      -0.699581       -19.0366
  36   2.0000      -0.694266       -18.8919
  37   2.0000      -0.658185       -17.9101
  38   2.0000      -0.632896       -17.2220
  39   2.0000      -0.615873       -16.7588
  40   2.0000      -0.599335       -16.3087
  41   2.0000      -0.566986       -15.4285
  42   2.0000      -0.560722       -15.2580
  43   2.0000      -0.547380       -14.8950
  44   2.0000      -0.537859       -14.6359
  45   2.0000      -0.531366       -14.4592
  46   2.0000      -0.512204       -13.9378
  47   2.0000      -0.510322       -13.8866
  48   2.0000      -0.502660       -13.6781
  49   2.0000      -0.499456       -13.5909
  50   2.0000      -0.493700       -13.4343
  51   2.0000      -0.477454       -12.9922
  52   2.0000      -0.466895       -12.7049
  53   2.0000      -0.465461       -12.6659
  54   2.0000      -0.459289       -12.4979
  55   2.0000      -0.452045       -12.3008
  56   2.0000      -0.445194       -12.1143
  57   2.0000      -0.437414       -11.9026
  58   2.0000      -0.428760       -11.6672
  59   2.0000      -0.426976       -11.6186
  60   2.0000      -0.417319       -11.3558
  61   2.0000      -0.416665       -11.3380
  62   2.0000      -0.411324       -11.1927
  63   2.0000      -0.355923        -9.6852
  64   2.0000      -0.332792        -9.0557
  65   2.0000      -0.325004        -8.8438
  66   2.0000      -0.283690        -7.7196
  67   0.0000       0.015031         0.4090
  68   0.0000       0.068363         1.8603
  69   0.0000       0.084716         2.3052
  70   0.0000       0.115544         3.1441
  71   0.0000       0.129435         3.5221

MULLIKEN ATOMIC CHARGES
-----------------------
   0 S :    0.095732
   1 C :   -0.094165
   2 C :   -0.095740
   3 C :    0.014753
   4 C :   -0.098703
   5 H :    0.015528
   6 C :    0.017521
   7 H :    0.030250
   8 H :    0.040639
   9 C :   -0.078069
  10 H :    0.020191
  11 H :    0.035376
  12 C :   -0.055532
  13 H :    0.017484
  14 H :    0.054457
  15 H :    0.040630
  16 S :    0.081416
  17 C :   -0.070708
  18 C :   -0.066204
  19 C :   -0.015322
  20 C :   -0.143682
  21 H :    0.024084
  22 C :    0.081391
  23 H :    0.022695
  24 H :    0.001705
  25 C :   -0.124202
  26 H :    0.033974
  27 H :    0.034002
  28 C :   -0.029306
  29 H :    0.048926
  30 H :    0.024448
  31 H :    0.035387
  32 H :    0.044909
  33 H :    0.056134
Sum of atomic charges:   -0.0000000

LOEWDIN ATOMIC CHARGES
----------------------
   0 S :    0.365823
   1 C :   -0.177628
   2 C :   -0.052782
   3 C :   -0.056789
   4 C :   -0.174802
   5 H :    0.027955
   6 C :   -0.044063
   7 H :    0.030061
   8 H :    0.040767
   9 C :   -0.048336
  10 H :    0.021755
  11 H :    0.029743
  12 C :   -0.069786
  13 H :    0.016861
  14 H :    0.032369
  15 H :    0.034707
  16 S :    0.375364
  17 C :   -0.186208
  18 C :   -0.070423
  19 C :   -0.059416
  20 C :   -0.168785
  21 H :    0.031610
  22 C :   -0.039058
  23 H :    0.036325
  24 H :    0.020458
  25 C :   -0.045760
  26 H :    0.022746
  27 H :    0.026845
  28 C :   -0.057954
  29 H :    0.034082
  30 H :    0.018811
  31 H :    0.027817
  32 H :    0.026344
  33 H :    0.031349

  Mayer bond orders larger than 0.100000
B(  0-S ,  1-C ) :   1.1039 B(  0-S ,  4-C ) :   1.1244 B(  1-C ,  2-C ) :   1.6412
B(  1-C , 32-H ) :   0.9667 B(  2-C ,  3-C ) :   1.1968 B(  2-C ,  6-C ) :   1.0336
B(  3-C ,  4-C ) :   1.5822 B(  3-C ,  5-H ) :   0.9953 B(  4-C , 20-C ) :   1.0691
B(  6-C ,  7-H ) :   0.9452 B(  6-C ,  8-H ) :   0.9385 B(  6-C ,  9-C ) :   1.0634
B(  9-C , 10-H ) :   0.9521 B(  9-C , 11-H ) :   0.9591 B(  9-C , 12-C ) :   1.0657
B( 12-C , 13-H ) :   0.9777 B( 12-C , 14-H ) :   0.9772 B( 12-C , 15-H ) :   0.9761
B( 16-S , 17-C ) :   1.1371 B( 16-S , 20-C ) :   1.1232 B( 17-C , 18-C ) :   1.6350
B( 17-C , 33-H ) :   0.9668 B( 18-C , 19-C ) :   1.2330 B( 18-C , 21-H ) :   0.9825
B( 19-C , 20-C ) :   1.5999 B( 19-C , 22-C ) :   1.0457 B( 22-C , 23-H ) :   0.9243
B( 22-C , 24-H ) :   0.9293 B( 22-C , 25-C ) :   1.0526 B( 25-C , 26-H ) :   0.9588
B( 25-C , 27-H ) :   0.9526 B( 25-C , 28-C ) :   1.0754 B( 28-C , 29-H ) :   0.9749
B( 28-C , 30-H ) :   0.9775 B( 28-C , 31-H ) :   0.9725

Dispersion correction           -0.013601401
FINAL SINGLE POINT ENERGY     -1339.855325936028

DIPOLE MOMENT
-------------
                                X             Y             Z
Electronic contribution:      0.87964      -6.16826     -29.01553
Nuclear contribution   :     -1.02361       6.32527      29.83970
                        -----------------------------------------
Total Dipole Moment    :     -0.14397       0.15700       0.82417
                        -----------------------------------------
Magnitude (a.u.)       :      0.85125
Magnitude (Debye)      :      2.16372

Rotational constants in cm-1:     0.015969     0.008843     0.006350
Rotational constants in MHz :   478.734512   265.096752   190.369343

                             ****ORCA TERMINATED NORMALLY****
TOTAL RUN TIME: 0 days 0 hours 0 minutes 19 seconds 904 msec
