                         Program Version 4.2.1 -  RELEASE  -
|  1> ! wB97X-D3 SP def2-SVP
|  2> %pal
|  3> nprocs 24
|  4> end
|  5>
|  6> * xyz 0 1
|  7> S 	 32.2857 	 -32.8301 	 -110.517
|  8> C 	 31.751 	 -32.6726 	 -108.885
|  9> C 	 32.6128 	 -31.9075 	 -108.064
| 10> C 	 33.7791 	 -31.5733 	 -108.843
| 11> C 	 33.852 	 -32.0716 	 -110.115
| 12> H 	 34.5383 	 -30.9849 	 -108.431
| 13> C 	 32.5039 	 -31.5983 	 -106.593
| 14> H 	 31.8501 	 -32.4254 	 -106.121
| 15> H 	 31.8364 	 -30.7296 	 -106.549
| 16> C 	 33.8598 	 -31.558 	 -105.838
| 17> H 	 34.6638 	 -30.9379 	 -106.29
| 18> H 	 33.6386 	 -31.0373 	 -104.875
| 19> C 	 34.3774 	 -32.974 	 -105.667
| 20> H 	 34.7177 	 -33.3687 	 -106.599
| 21> H 	 35.2657 	 -32.9376 	 -104.96
| 22> H 	 33.595 	 -33.6438 	 -105.247
| 23> S 	 34.779 	 -31.2544 	 -112.567
| 24> C 	 36.485 	 -31.3077 	 -112.974
| 25> C 	 37.1882 	 -31.6117 	 -111.812
| 26> C 	 36.3798 	 -31.9762 	 -110.695
| 27> C 	 35.0161 	 -31.927 	 -110.969
| 28> H 	 38.2749 	 -31.5563 	 -111.943
| 29> C 	 36.9435 	 -32.6259 	 -109.39
| 30> H 	 37.534 	 -33.5634 	 -109.608
| 31> H 	 36.1213 	 -32.8692 	 -108.725
| 32> C 	 37.8295 	 -31.7203 	 -108.541
| 33> H 	 37.3249 	 -30.7559 	 -108.376
| 34> H 	 38.8039 	 -31.4515 	 -109.091
| 35> C 	 38.2343 	 -32.2984 	 -107.188
| 36> H 	 38.8294 	 -33.2279 	 -107.296
| 37> H 	 37.412 	 -32.6402 	 -106.603
| 38> H 	 38.9478 	 -31.6044 	 -106.583
| 39> H 	 30.8993 	 -33.1783 	 -108.523
| 40> H 	 36.8381 	 -31.166 	 -113.972
| 41> *
| 42>
| 43>                          ****END OF INPUT****

CARTESIAN COORDINATES (ANGSTROEM)
---------------------------------
  S     32.285700  -32.830100  -110.517000
  C     31.751000  -32.672600  -108.885000
  C     32.612800  -31.907500  -108.064000
  C     33.779100  -31.573300  -108.843000
  C     33.852000  -32.071600  -110.115000
  H     34.538300  -30.984900  -108.431000
  C     32.503900  -31.598300  -106.593000
  H     31.850100  -32.425400  -106.121000
  H     31.836400  -30.729600  -106.549000
  C     33.859800  -31.558000  -105.838000
  H     34.663800  -30.937900  -106.290000
  H     33.638600  -31.037300  -104.875000
  C     34.377400  -32.974000  -105.667000
  H     34.717700  -33.368700  -106.599000
  H     35.265700  -32.937600  -104.960000
  H     33.595000  -33.643800  -105.247000
  S     34.779000  -31.254400  -112.567000
  C     36.485000  -31.307700  -112.974000
  C     37.188200  -31.611700  -111.812000
  C     36.379800  -31.976200  -110.695000
  C     35.016100  -31.927000  -110.969000
  H     38.274900  -31.556300  -111.943000
  C     36.943500  -32.625900  -109.390000
  H     37.534000  -33.563400  -109.608000
  H     36.121300  -32.869200  -108.725000
  C     37.829500  -31.720300  -108.541000
  H     37.324900  -30.755900  -108.376000
  H     38.803900  -31.451500  -109.091000
  C     38.234300  -32.298400  -107.188000
  H     38.829400  -33.227900  -107.296000
  H     37.412000  -32.640200  -106.603000
  H     38.947800  -31.604400  -106.583000
  H     30.899300  -33.178300  -108.523000
  H     36.838100  -31.166000  -113.972000

 Total Charge           Charge          ....    0
 Multiplicity           Mult            ....    1
 Number of Electrons    NEL             ....  134
 Basis Dimension        Dim             ....  322

ORBITAL ENERGIES
----------------

  NO   OCC          E(Eh)            E(eV)
   0   2.0000     -88.969137     -2420.9733
   1   2.0000     -88.960104     -2420.7275
   2   2.0000     -10.330284      -281.1013
   3   2.0000     -10.328853      -281.0624
   4   2.0000     -10.318179      -280.7719
   5   2.0000     -10.314798      -280.6799
   6   2.0000     -10.309281      -280.5298
   7   2.0000     -10.305352      -280.4229
   8   2.0000     -10.305084      -280.4156
   9   2.0000     -10.299453      -280.2624
  10   2.0000     -10.298853      -280.2460
  11   2.0000     -10.297160      -280.2000
  12   2.0000     -10.292200      -280.0650
  13   2.0000     -10.289884      -280.0020
  14   2.0000     -10.285817      -279.8913
  15   2.0000     -10.285529      -279.8835
  16   2.0000      -8.083556      -219.9647
  17   2.0000      -8.075234      -219.7383
  18   2.0000      -6.042173      -164.4159
  19   2.0000      -6.038105      -164.3052
  20   2.0000      -6.034234      -164.1998
  21   2.0000      -6.033706      -164.1855
  22   2.0000      -6.029585      -164.0734
  23   2.0000      -6.026108      -163.9787
  24   2.0000      -1.005347       -27.3569
  25   2.0000      -0.982961       -26.7477
  26   2.0000      -0.915108       -24.9013
  27   2.0000      -0.905576       -24.6420
  28   2.0000      -0.872930       -23.7536
  29   2.0000      -0.850583       -23.1455
  30   2.0000      -0.843009       -22.9394
  31   2.0000      -0.815694       -22.1962
  32   2.0000      -0.779511       -21.2116
  33   2.0000      -0.770979       -20.9794
  34   2.0000      -0.710699       -19.3391
  35   2.0000      -0.696719       -18.9587
  36   2.0000      -0.692412       -18.8415
  37   2.0000      -0.657429       -17.8895
  38   2.0000      -0.640784       -17.4366
  39   2.0000      -0.630642       -17.1606
  40   2.0000      -0.596017       -16.2184
  41   2.0000      -0.567623       -15.4458
  42   2.0000      -0.565395       -15.3852
  43   2.0000      -0.560116       -15.2415
  44   2.0000      -0.536829       -14.6079
  45   2.0000      -0.525394       -14.2967
  46   2.0000      -0.514080       -13.9888
  47   2.0000      -0.510648       -13.8955
  48   2.0000      -0.502881       -13.6841
  49   2.0000      -0.497257       -13.5310
  50   2.0000      -0.489148       -13.3104
  51   2.0000      -0.488010       -13.2794
  52   2.0000      -0.472425       -12.8553
  53   2.0000      -0.465942       -12.6789
  54   2.0000      -0.460040       -12.5183
  55   2.0000      -0.448314       -12.1993
  56   2.0000      -0.443369       -12.0647
  57   2.0000      -0.438251       -11.9254
  58   2.0000      -0.431369       -11.7381
  59   2.0000      -0.427078       -11.6214
  60   2.0000      -0.418243       -11.3810
  61   2.0000      -0.414755       -11.2861
  62   2.0000      -0.412440       -11.2231
  63   2.0000      -0.350263        -9.5311
  64   2.0000      -0.329531        -8.9670
  65   2.0000      -0.327999        -8.9253
  66   2.0000      -0.289825        -7.8865
  67   0.0000       0.024198         0.6585
  68   0.0000       0.069006         1.8777
  69   0.0000       0.110130         2.9968
  70   0.0000       0.118101         3.2137
  71   0.0000       0.125928         3.4267

MULLIKEN ATOMIC CHARGES
-----------------------
   0 S :    0.123945
   1 C :   -0.110941
   2 C :   -0.098032
   3 C :    0.028774
   4 C :   -0.131854
   5 H :   -0.019251
   6 C :    0.038443
   7 H :    0.035220
   8 H :    0.050929
   9 C :   -0.089955
  10 H :    0.041727
  11 H :    0.038536
  12 C :   -0.062121
  13 H :    0.045333
  14 H :    0.050490
  15 H :    0.038127
  16 S :    0.084381
  17 C :   -0.104212
  18 C :   -0.040985
  19 C :   -0.010358
  20 C :   -0.135966
  21 H :    0.029280
  22 C :    0.059450
  23 H :    0.046955
  24 H :    0.012038
  25 C :   -0.110537
  26 H :    0.030688
  27 H :    0.036506
  28 C :   -0.058199
  29 H :    0.023950
  30 H :    0.014009
  31 H :    0.051745
  32 H :    0.033194
  33 H :    0.058691
Sum of atomic charges:   -0.0000000

LOEWDIN ATOMIC CHARGES
----------------------
   0 S :    0.405435
   1 C :   -0.195439
   2 C :   -0.063588
   3 C :   -0.050619
   4 C :   -0.191429
   5 H :    0.017974
   6 C :   -0.040574
   7 H :    0.041070
   8 H :    0.037099
   9 C :   -0.046656
  10 H :    0.027181
  11 H :    0.030779
  12 C :   -0.064375
  13 H :    0.020111
  14 H :    0.033499
  15 H :    0.029670
  16 S :    0.397553
  17 C :   -0.179172
  18 C :   -0.072412
  19 C :   -0.061113
  20 C :   -0.190048
  21 H :    0.036151
  22 C :   -0.030410
  23 H :    0.037784
  24 H :    0.024783
  25 C :   -0.052604
  26 H :    0.021339
  27 H :    0.028248
  28 C :   -0.076669
  29 H :    0.026139
  30 H :    0.016254
  31 H :    0.039683
  32 H :    0.017422
  33 H :    0.026934

  Mayer bond orders larger than 0.100000
B(  0-S ,  1-C ) :   1.1581 B(  0-S ,  4-C ) :   1.1270 B(  1-C ,  2-C ) :   1.5876
B(  1-C , 32-H ) :   0.9712 B(  2-C ,  3-C ) :   1.2579 B(  2-C ,  6-C ) :   1.0051
B(  3-C ,  4-C ) :   1.5602 B(  3-C ,  5-H ) :   0.9989 B(  4-C , 20-C ) :   1.0538
B(  6-C ,  7-H ) :   0.9473 B(  6-C ,  8-H ) :   0.9322 B(  6-C ,  9-C ) :   1.0640
B(  9-C , 10-H ) :   0.9521 B(  9-C , 11-H ) :   0.9524 B(  9-C , 12-C ) :   1.0719
B( 12-C , 13-H ) :   0.9723 B( 12-C , 14-H ) :   0.9684 B( 12-C , 15-H ) :   0.9700
B( 16-S , 17-C ) :   1.1565 B( 16-S , 20-C ) :   1.1517 B( 17-C , 18-C ) :   1.5916
B( 17-C , 20-C ) :   0.1059 B( 17-C , 33-H ) :   0.9760 B( 18-C , 19-C ) :   1.2294
B( 18-C , 21-H ) :   0.9946 B( 19-C , 20-C ) :   1.5814 B( 19-C , 22-C ) :   1.0345
B( 22-C , 23-H ) :   0.9420 B( 22-C , 24-H ) :   0.9360 B( 22-C , 25-C ) :   1.0562
B( 25-C , 26-H ) :   0.9531 B( 25-C , 27-H ) :   0.9523 B( 25-C , 28-C ) :   1.0846
B( 28-C , 29-H ) :   0.9685 B( 28-C , 30-H ) :   0.9708 B( 28-C , 31-H ) :   0.9731

Dispersion correction           -0.015939675
FINAL SINGLE POINT ENERGY     -1339.880676558821

DIPOLE MOMENT
-------------
                                X             Y             Z
Electronic contribution:    -15.09297       1.75861     -29.40512
Nuclear contribution   :     15.40772      -1.76779      30.08782
                        -----------------------------------------
Total Dipole Moment    :      0.31474      -0.00919       0.68269
                        -----------------------------------------
Magnitude (a.u.)       :      0.75181
Magnitude (Debye)      :      1.91095

Rotational constants in cm-1:     0.016271     0.011471     0.007198
Rotational constants in MHz :   487.800700   343.883169   215.787783

                             ****ORCA TERMINATED NORMALLY****
TOTAL RUN TIME: 0 days 0 hours 0 minutes 23 seconds 165 msec
