                         Program Version 4.2.1 -  RELEASE  -
|  1> ! wB97X-D3 SP def2-SVP
|  2> %pal
|  3> nprocs 24
|  4> end
|  5>
|  6> * xyz 0 1
|  7> S 	 -85.7525 	 2.36497 	 -117.287
|  8> C 	 -85.8555 	 0.619035 	 -117.05
|  9> C 	 -87.2259 	 0.228385 	 -116.913
| 10> C 	 -88.0561 	 1.38699 	 -116.872
| 11> C 	 -87.4952 	 2.59565 	 -117.094
| 12> H 	 -89.103 	 1.36535 	 -116.602
| 13> C 	 -87.8223 	 -1.06034 	 -116.451
| 14> H 	 -87.7105 	 -1.85025 	 -117.155
| 15> H 	 -88.9078 	 -0.906507 	 -116.279
| 16> C 	 -87.2549 	 -1.57062 	 -115.135
| 17> H 	 -87.8148 	 -2.44581 	 -114.805
| 18> H 	 -86.2002 	 -1.92671 	 -115.096
| 19> C 	 -87.4186 	 -0.501004 	 -114.027
| 20> H 	 -86.837 	 0.34028 	 -114.201
| 21> H 	 -88.5054 	 -0.183837 	 -113.948
| 22> H 	 -87.1095 	 -0.853179 	 -113.05
| 23> S 	 -87.7826 	 4.87692 	 -118.59
| 24> C 	 -88.9171 	 6.16739 	 -118.113
| 25> C 	 -89.5078 	 5.89377 	 -116.913
| 26> C 	 -89.1913 	 4.56111 	 -116.481
| 27> C 	 -88.1563 	 3.89902 	 -117.183
| 28> H 	 -90.0791 	 6.67262 	 -116.448
| 29> C 	 -89.858 	 4.14918 	 -115.211
| 30> H 	 -89.8087 	 5.02181 	 -114.619
| 31> H 	 -89.3413 	 3.3556 	 -114.813
| 32> C 	 -91.3484 	 3.86148 	 -115.487
| 33> H 	 -91.4589 	 2.99203 	 -116.12
| 34> H 	 -91.9699 	 4.58061 	 -116.002
| 35> C 	 -92.0455 	 3.67282 	 -114.11
| 36> H 	 -92.0288 	 4.71592 	 -113.582
| 37> H 	 -91.6289 	 2.91755 	 -113.384
| 38> H 	 -93.1202 	 3.50523 	 -114.293
| 39> H 	 -85.019 	 -0.00093462 	 -116.999
| 40> H 	 -89.1106 	 7.06201 	 -118.719
| 41> *
| 42>
| 43>                          ****END OF INPUT****

CARTESIAN COORDINATES (ANGSTROEM)
---------------------------------
  S    -85.752500    2.364970  -117.287000
  C    -85.855500    0.619035  -117.050000
  C    -87.225900    0.228385  -116.913000
  C    -88.056100    1.386990  -116.872000
  C    -87.495200    2.595650  -117.094000
  H    -89.103000    1.365350  -116.602000
  C    -87.822300   -1.060340  -116.451000
  H    -87.710500   -1.850250  -117.155000
  H    -88.907800   -0.906507  -116.279000
  C    -87.254900   -1.570620  -115.135000
  H    -87.814800   -2.445810  -114.805000
  H    -86.200200   -1.926710  -115.096000
  C    -87.418600   -0.501004  -114.027000
  H    -86.837000    0.340280  -114.201000
  H    -88.505400   -0.183837  -113.948000
  H    -87.109500   -0.853179  -113.050000
  S    -87.782600    4.876920  -118.590000
  C    -88.917100    6.167390  -118.113000
  C    -89.507800    5.893770  -116.913000
  C    -89.191300    4.561110  -116.481000
  C    -88.156300    3.899020  -117.183000
  H    -90.079100    6.672620  -116.448000
  C    -89.858000    4.149180  -115.211000
  H    -89.808700    5.021810  -114.619000
  H    -89.341300    3.355600  -114.813000
  C    -91.348400    3.861480  -115.487000
  H    -91.458900    2.992030  -116.120000
  H    -91.969900    4.580610  -116.002000
  C    -92.045500    3.672820  -114.110000
  H    -92.028800    4.715920  -113.582000
  H    -91.628900    2.917550  -113.384000
  H    -93.120200    3.505230  -114.293000
  H    -85.019000   -0.000935  -116.999000
  H    -89.110600    7.062010  -118.719000

 Total Charge           Charge          ....    0
 Multiplicity           Mult            ....    1
 Number of Electrons    NEL             ....  134
 Basis Dimension        Dim             ....  322

ORBITAL ENERGIES
----------------

  NO   OCC          E(Eh)            E(eV)
   0   2.0000     -88.968728     -2420.9622
   1   2.0000     -88.961431     -2420.7636
   2   2.0000     -10.331889      -281.1450
   3   2.0000     -10.330979      -281.1202
   4   2.0000     -10.321420      -280.8601
   5   2.0000     -10.320071      -280.8234
   6   2.0000     -10.306439      -280.4525
   7   2.0000     -10.305222      -280.4194
   8   2.0000     -10.293215      -280.0926
   9   2.0000     -10.292515      -280.0736
  10   2.0000     -10.290831      -280.0278
  11   2.0000     -10.289358      -279.9877
  12   2.0000     -10.289057      -279.9795
  13   2.0000     -10.288567      -279.9661
  14   2.0000     -10.280623      -279.7500
  15   2.0000     -10.271582      -279.5039
  16   2.0000      -8.082722      -219.9420
  17   2.0000      -8.075845      -219.7549
  18   2.0000      -6.041329      -164.3929
  19   2.0000      -6.037227      -164.2813
  20   2.0000      -6.034474      -164.2064
  21   2.0000      -6.033511      -164.1802
  22   2.0000      -6.030357      -164.0944
  23   2.0000      -6.026521      -163.9900
  24   2.0000      -1.004038       -27.3213
  25   2.0000      -0.982596       -26.7378
  26   2.0000      -0.917356       -24.9625
  27   2.0000      -0.912297       -24.8249
  28   2.0000      -0.869796       -23.6684
  29   2.0000      -0.848258       -23.0823
  30   2.0000      -0.842625       -22.9290
  31   2.0000      -0.817367       -22.2417
  32   2.0000      -0.782522       -21.2935
  33   2.0000      -0.766075       -20.8460
  34   2.0000      -0.708222       -19.2717
  35   2.0000      -0.703848       -19.1527
  36   2.0000      -0.695969       -18.9383
  37   2.0000      -0.665104       -18.0984
  38   2.0000      -0.646187       -17.5837
  39   2.0000      -0.619062       -16.8455
  40   2.0000      -0.594591       -16.1796
  41   2.0000      -0.575959       -15.6726
  42   2.0000      -0.567805       -15.4508
  43   2.0000      -0.558509       -15.1978
  44   2.0000      -0.546898       -14.8818
  45   2.0000      -0.532844       -14.4994
  46   2.0000      -0.516032       -14.0419
  47   2.0000      -0.509203       -13.8561
  48   2.0000      -0.504377       -13.7248
  49   2.0000      -0.499028       -13.5792
  50   2.0000      -0.491395       -13.3715
  51   2.0000      -0.473027       -12.8717
  52   2.0000      -0.467630       -12.7249
  53   2.0000      -0.464374       -12.6363
  54   2.0000      -0.456235       -12.4148
  55   2.0000      -0.450932       -12.2705
  56   2.0000      -0.443626       -12.0717
  57   2.0000      -0.439149       -11.9499
  58   2.0000      -0.433614       -11.7992
  59   2.0000      -0.427285       -11.6270
  60   2.0000      -0.422284       -11.4909
  61   2.0000      -0.416438       -11.3319
  62   2.0000      -0.406236       -11.0543
  63   2.0000      -0.353486        -9.6188
  64   2.0000      -0.331289        -9.0148
  65   2.0000      -0.323978        -8.8159
  66   2.0000      -0.289079        -7.8663
  67   0.0000       0.028670         0.7801
  68   0.0000       0.065124         1.7721
  69   0.0000       0.111594         3.0366
  70   0.0000       0.116488         3.1698
  71   0.0000       0.122799         3.3415

MULLIKEN ATOMIC CHARGES
-----------------------
   0 S :    0.110869
   1 C :   -0.105071
   2 C :   -0.069503
   3 C :    0.000866
   4 C :   -0.135193
   5 H :    0.003310
   6 C :    0.085908
   7 H :    0.028571
   8 H :    0.031240
   9 C :   -0.090153
  10 H :    0.026549
  11 H :    0.033835
  12 C :   -0.051499
  13 H :    0.031676
  14 H :    0.025551
  15 H :    0.024043
  16 S :    0.082680
  17 C :   -0.102434
  18 C :   -0.025592
  19 C :   -0.073263
  20 C :   -0.117222
  21 H :    0.024411
  22 C :    0.145168
  23 H :    0.013478
  24 H :    0.002410
  25 C :   -0.083632
  26 H :    0.024028
  27 H :    0.031370
  28 C :   -0.095685
  29 H :    0.035783
  30 H :    0.050653
  31 H :    0.036593
  32 H :    0.034619
  33 H :    0.065634
Sum of atomic charges:    0.0000000

LOEWDIN ATOMIC CHARGES
----------------------
   0 S :    0.400319
   1 C :   -0.178606
   2 C :   -0.057406
   3 C :   -0.066775
   4 C :   -0.192840
   5 H :    0.028449
   6 C :   -0.031425
   7 H :    0.029137
   8 H :    0.036988
   9 C :   -0.041529
  10 H :    0.023804
  11 H :    0.025695
  12 C :   -0.063122
  13 H :    0.014710
  14 H :    0.027141
  15 H :    0.022374
  16 S :    0.385912
  17 C :   -0.170076
  18 C :   -0.071555
  19 C :   -0.049588
  20 C :   -0.201821
  21 H :    0.034722
  22 C :   -0.016324
  23 H :    0.028684
  24 H :    0.018541
  25 C :   -0.036886
  26 H :    0.020083
  27 H :    0.026702
  28 C :   -0.079102
  29 H :    0.031622
  30 H :    0.028729
  31 H :    0.024087
  32 H :    0.015591
  33 H :    0.033766

  Mayer bond orders larger than 0.100000
B(  0-S ,  1-C ) :   1.1534 B(  0-S ,  4-C ) :   1.1375 B(  1-C ,  2-C ) :   1.5582
B(  1-C ,  4-C ) :   0.1075 B(  1-C , 32-H ) :   0.9834 B(  2-C ,  3-C ) :   1.2487
B(  2-C ,  6-C ) :   1.0311 B(  3-C ,  4-C ) :   1.5960 B(  3-C ,  5-H ) :   0.9929
B(  4-C , 20-C ) :   1.0292 B(  6-C ,  7-H ) :   0.9258 B(  6-C ,  8-H ) :   0.9467
B(  6-C ,  9-C ) :   1.0783 B(  9-C , 10-H ) :   0.9565 B(  9-C , 11-H ) :   0.9542
B(  9-C , 12-C ) :   1.0723 B( 12-C , 13-H ) :   0.9751 B( 12-C , 14-H ) :   0.9750
B( 12-C , 15-H ) :   0.9740 B( 16-S , 17-C ) :   1.1513 B( 16-S , 20-C ) :   1.1237
B( 17-C , 18-C ) :   1.6266 B( 17-C , 33-H ) :   0.9632 B( 18-C , 19-C ) :   1.2150
B( 18-C , 21-H ) :   0.9930 B( 19-C , 20-C ) :   1.5941 B( 19-C , 22-C ) :   1.0559
B( 22-C , 23-H ) :   0.9363 B( 22-C , 24-H ) :   0.9342 B( 22-C , 25-C ) :   1.0495
B( 25-C , 26-H ) :   0.9542 B( 25-C , 27-H ) :   0.9584 B( 25-C , 28-C ) :   1.0749
B( 28-C , 29-H ) :   0.9749 B( 28-C , 30-H ) :   0.9741 B( 28-C , 31-H ) :   0.9745

Dispersion correction           -0.014695581
FINAL SINGLE POINT ENERGY     -1339.863186954145

DIPOLE MOMENT
-------------
                                X             Y             Z
Electronic contribution:     17.22393      13.07651     -20.78740
Nuclear contribution   :    -17.73628     -13.26951      21.26454
                        -----------------------------------------
Total Dipole Moment    :     -0.51235      -0.19300       0.47715
                        -----------------------------------------
Magnitude (a.u.)       :      0.72624
Magnitude (Debye)      :      1.84594

Rotational constants in cm-1:     0.017551     0.009717     0.006721
Rotational constants in MHz :   526.169094   291.316934   201.491172

                             ****ORCA TERMINATED NORMALLY****
TOTAL RUN TIME: 0 days 0 hours 0 minutes 22 seconds 175 msec
