                         Program Version 4.2.1 -  RELEASE  -
|  1> ! wB97X-D3 SP def2-SVP
|  2> %pal
|  3> nprocs 24
|  4> end
|  5>
|  6> * xyz 0 1
|  7> S 	 -30.6784 	 11.7233 	 11.1038
|  8> C 	 -31.1224 	 13.3993 	 10.6279
|  9> C 	 -31.0176 	 14.216 	 11.7474
| 10> C 	 -30.6454 	 13.529 	 12.9473
| 11> C 	 -30.5074 	 12.1794 	 12.8336
| 12> H 	 -30.5769 	 13.9895 	 13.9131
| 13> C 	 -31.3209 	 15.6454 	 11.7259
| 14> H 	 -31.7261 	 15.8328 	 12.7485
| 15> H 	 -32.1771 	 15.741 	 11.0485
| 16> C 	 -30.187 	 16.6494 	 11.3816
| 17> H 	 -29.4332 	 16.6778 	 12.1692
| 18> H 	 -29.7086 	 16.3499 	 10.4313
| 19> C 	 -30.7133 	 18.0983 	 11.2863
| 20> H 	 -31.6987 	 18.08 	 10.6716
| 21> H 	 -30.9307 	 18.4793 	 12.2845
| 22> H 	 -30.0132 	 18.7446 	 10.8661
| 23> S 	 -28.664 	 10.1988 	 13.3418
| 24> C 	 -28.6576 	 9.37224 	 14.8993
| 25> C 	 -29.6573 	 9.9097 	 15.6645
| 26> C 	 -30.4273 	 10.9781 	 15.0795
| 27> C 	 -29.975 	 11.2518 	 13.7899
| 28> H 	 -29.9158 	 9.45694 	 16.6291
| 29> C 	 -31.607 	 11.7082 	 15.7184
| 30> H 	 -32.4313 	 10.9688 	 15.9638
| 31> H 	 -32.1213 	 12.3606 	 14.9567
| 32> C 	 -31.3341 	 12.4684 	 17.0793
| 33> H 	 -30.5383 	 13.1608 	 16.9623
| 34> H 	 -31.0212 	 11.6969 	 17.8322
| 35> C 	 -32.6929 	 13.1538 	 17.5396
| 36> H 	 -33.553 	 12.5382 	 17.9308
| 37> H 	 -33.0507 	 13.7323 	 16.7173
| 38> H 	 -32.4058 	 13.8509 	 18.4021
| 39> H 	 -31.2424 	 13.795 	 9.62551
| 40> H 	 -28.0589 	 8.47168 	 15.1261
| 41> *
| 42>
| 43>                          ****END OF INPUT****

CARTESIAN COORDINATES (ANGSTROEM)
---------------------------------
  S    -30.678400   11.723300   11.103800
  C    -31.122400   13.399300   10.627900
  C    -31.017600   14.216000   11.747400
  C    -30.645400   13.529000   12.947300
  C    -30.507400   12.179400   12.833600
  H    -30.576900   13.989500   13.913100
  C    -31.320900   15.645400   11.725900
  H    -31.726100   15.832800   12.748500
  H    -32.177100   15.741000   11.048500
  C    -30.187000   16.649400   11.381600
  H    -29.433200   16.677800   12.169200
  H    -29.708600   16.349900   10.431300
  C    -30.713300   18.098300   11.286300
  H    -31.698700   18.080000   10.671600
  H    -30.930700   18.479300   12.284500
  H    -30.013200   18.744600   10.866100
  S    -28.664000   10.198800   13.341800
  C    -28.657600    9.372240   14.899300
  C    -29.657300    9.909700   15.664500
  C    -30.427300   10.978100   15.079500
  C    -29.975000   11.251800   13.789900
  H    -29.915800    9.456940   16.629100
  C    -31.607000   11.708200   15.718400
  H    -32.431300   10.968800   15.963800
  H    -32.121300   12.360600   14.956700
  C    -31.334100   12.468400   17.079300
  H    -30.538300   13.160800   16.962300
  H    -31.021200   11.696900   17.832200
  C    -32.692900   13.153800   17.539600
  H    -33.553000   12.538200   17.930800
  H    -33.050700   13.732300   16.717300
  H    -32.405800   13.850900   18.402100
  H    -31.242400   13.795000    9.625510
  H    -28.058900    8.471680   15.126100

 Total Charge           Charge          ....    0
 Multiplicity           Mult            ....    1
 Number of Electrons    NEL             ....  134
 Basis Dimension        Dim             ....  322

ORBITAL ENERGIES
----------------

  NO   OCC          E(Eh)            E(eV)
   0   2.0000     -88.964729     -2420.8534
   1   2.0000     -88.964524     -2420.8478
   2   2.0000     -10.331044      -281.1220
   3   2.0000     -10.326437      -280.9966
   4   2.0000     -10.321505      -280.8624
   5   2.0000     -10.318289      -280.7749
   6   2.0000     -10.306090      -280.4430
   7   2.0000     -10.301725      -280.3242
   8   2.0000     -10.298596      -280.2390
   9   2.0000     -10.297894      -280.2199
  10   2.0000     -10.297085      -280.1979
  11   2.0000     -10.292523      -280.0738
  12   2.0000     -10.292428      -280.0712
  13   2.0000     -10.291919      -280.0574
  14   2.0000     -10.290833      -280.0278
  15   2.0000     -10.281899      -279.7847
  16   2.0000      -8.079505      -219.8545
  17   2.0000      -8.077777      -219.8075
  18   2.0000      -6.038057      -164.3039
  19   2.0000      -6.036521      -164.2621
  20   2.0000      -6.033964      -164.1925
  21   2.0000      -6.032503      -164.1528
  22   2.0000      -6.030220      -164.0906
  23   2.0000      -6.028340      -164.0395
  24   2.0000      -1.005874       -27.3712
  25   2.0000      -0.980545       -26.6820
  26   2.0000      -0.912430       -24.8285
  27   2.0000      -0.898395       -24.4466
  28   2.0000      -0.871981       -23.7278
  29   2.0000      -0.849152       -23.1066
  30   2.0000      -0.841789       -22.9062
  31   2.0000      -0.818958       -22.2850
  32   2.0000      -0.775839       -21.1117
  33   2.0000      -0.765120       -20.8200
  34   2.0000      -0.708179       -19.2705
  35   2.0000      -0.702479       -19.1154
  36   2.0000      -0.700493       -19.0614
  37   2.0000      -0.657091       -17.8804
  38   2.0000      -0.639619       -17.4049
  39   2.0000      -0.620615       -16.8878
  40   2.0000      -0.595294       -16.1988
  41   2.0000      -0.568274       -15.4635
  42   2.0000      -0.560552       -15.2534
  43   2.0000      -0.555945       -15.1280
  44   2.0000      -0.527242       -14.3470
  45   2.0000      -0.522894       -14.2287
  46   2.0000      -0.518010       -14.0958
  47   2.0000      -0.512167       -13.9368
  48   2.0000      -0.508308       -13.8318
  49   2.0000      -0.502308       -13.6685
  50   2.0000      -0.494005       -13.4426
  51   2.0000      -0.475132       -12.9290
  52   2.0000      -0.467311       -12.7162
  53   2.0000      -0.461125       -12.5478
  54   2.0000      -0.455774       -12.4022
  55   2.0000      -0.450558       -12.2603
  56   2.0000      -0.445165       -12.1136
  57   2.0000      -0.435584       -11.8529
  58   2.0000      -0.433659       -11.8005
  59   2.0000      -0.424453       -11.5499
  60   2.0000      -0.422523       -11.4974
  61   2.0000      -0.418585       -11.3903
  62   2.0000      -0.410769       -11.1776
  63   2.0000      -0.351554        -9.5663
  64   2.0000      -0.329732        -8.9725
  65   2.0000      -0.326651        -8.8886
  66   2.0000      -0.292886        -7.9698
  67   0.0000       0.024405         0.6641
  68   0.0000       0.070135         1.9085
  69   0.0000       0.108678         2.9573
  70   0.0000       0.119791         3.2597
  71   0.0000       0.124708         3.3935

MULLIKEN ATOMIC CHARGES
-----------------------
   0 S :    0.085946
   1 C :   -0.109958
   2 C :   -0.092729
   3 C :    0.044768
   4 C :   -0.147695
   5 H :    0.006664
   6 C :    0.027853
   7 H :    0.021489
   8 H :    0.026366
   9 C :   -0.054275
  10 H :    0.029549
  11 H :    0.032314
  12 C :   -0.045444
  13 H :    0.036884
  14 H :    0.030105
  15 H :    0.029546
  16 S :    0.104159
  17 C :   -0.108325
  18 C :   -0.029300
  19 C :   -0.006264
  20 C :   -0.149022
  21 H :    0.022618
  22 C :   -0.012341
  23 H :    0.038845
  24 H :    0.038727
  25 C :   -0.065752
  26 H :    0.031979
  27 H :    0.041915
  28 C :   -0.085800
  29 H :    0.052673
  30 H :    0.029908
  31 H :    0.045444
  32 H :    0.052202
  33 H :    0.076949
Sum of atomic charges:    0.0000000

LOEWDIN ATOMIC CHARGES
----------------------
   0 S :    0.364542
   1 C :   -0.183410
   2 C :   -0.066669
   3 C :   -0.058589
   4 C :   -0.172678
   5 H :    0.029022
   6 C :   -0.041147
   7 H :    0.034060
   8 H :    0.032657
   9 C :   -0.035991
  10 H :    0.024948
  11 H :    0.024969
  12 C :   -0.063325
  13 H :    0.032955
  14 H :    0.024360
  15 H :    0.016731
  16 S :    0.404113
  17 C :   -0.188828
  18 C :   -0.072380
  19 C :   -0.060188
  20 C :   -0.201008
  21 H :    0.031854
  22 C :   -0.045782
  23 H :    0.037944
  24 H :    0.032886
  25 C :   -0.033330
  26 H :    0.017556
  27 H :    0.029018
  28 C :   -0.075358
  29 H :    0.033808
  30 H :    0.018645
  31 H :    0.034675
  32 H :    0.032425
  33 H :    0.041514

  Mayer bond orders larger than 0.100000
B(  0-S ,  1-C ) :   1.1165 B(  0-S ,  4-C ) :   1.1245 B(  1-C ,  2-C ) :   1.6153
B(  1-C , 32-H ) :   0.9686 B(  2-C ,  3-C ) :   1.2366 B(  2-C ,  6-C ) :   1.0293
B(  3-C ,  4-C ) :   1.5784 B(  3-C ,  5-H ) :   0.9928 B(  4-C , 20-C ) :   1.0619
B(  6-C ,  7-H ) :   0.9379 B(  6-C ,  8-H ) :   0.9401 B(  6-C ,  9-C ) :   1.0600
B(  9-C , 10-H ) :   0.9542 B(  9-C , 11-H ) :   0.9581 B(  9-C , 12-C ) :   1.0792
B( 12-C , 13-H ) :   0.9750 B( 12-C , 14-H ) :   0.9763 B( 12-C , 15-H ) :   0.9749
B( 16-S , 17-C ) :   1.1384 B( 16-S , 20-C ) :   1.1463 B( 17-C , 18-C ) :   1.6103
B( 17-C , 33-H ) :   0.9664 B( 18-C , 19-C ) :   1.2465 B( 18-C , 21-H ) :   0.9847
B( 19-C , 20-C ) :   1.5744 B( 19-C , 22-C ) :   1.0478 B( 22-C , 23-H ) :   0.9362
B( 22-C , 24-H ) :   0.9360 B( 22-C , 25-C ) :   1.0455 B( 25-C , 26-H ) :   0.9614
B( 25-C , 27-H ) :   0.9564 B( 25-C , 28-C ) :   1.0648 B( 28-C , 29-H ) :   0.9771
B( 28-C , 30-H ) :   0.9771 B( 28-C , 31-H ) :   0.9765

Dispersion correction           -0.013553060
FINAL SINGLE POINT ENERGY     -1339.882623689448

DIPOLE MOMENT
-------------
                                X             Y             Z
Electronic contribution:     11.20967     -25.32157     -12.26687
Nuclear contribution   :    -11.40647      25.79813      12.71470
                        -----------------------------------------
Total Dipole Moment    :     -0.19679       0.47656       0.44783
                        -----------------------------------------
Magnitude (a.u.)       :      0.68292
Magnitude (Debye)      :      1.73586

Rotational constants in cm-1:     0.016936     0.008363     0.006236
Rotational constants in MHz :   507.733753   250.709834   186.952950

                             ****ORCA TERMINATED NORMALLY****
TOTAL RUN TIME: 0 days 0 hours 0 minutes 19 seconds 813 msec
