                         Program Version 4.2.1 -  RELEASE  -
|  1> ! wB97X-D3 SP def2-SVP
|  2> %pal
|  3> nprocs 24
|  4> end
|  5>
|  6> * xyz 0 1
|  7> S 	 -123.707 	 33.5437 	 -107.756
|  8> C 	 -123.897 	 32.6851 	 -109.264
|  9> C 	 -124.99 	 33.1457 	 -110.013
| 10> C 	 -125.728 	 34.0988 	 -109.237
| 11> C 	 -125.152 	 34.4863 	 -108.022
| 12> H 	 -126.599 	 34.6684 	 -109.643
| 13> C 	 -125.497 	 32.6539 	 -111.31
| 14> H 	 -125.104 	 31.6321 	 -111.497
| 15> H 	 -124.992 	 33.309 	 -112.101
| 16> C 	 -126.992 	 32.6136 	 -111.62
| 17> H 	 -127.485 	 31.9743 	 -110.829
| 18> H 	 -127.551 	 33.4757 	 -111.37
| 19> C 	 -127.316 	 32.0963 	 -112.988
| 20> H 	 -126.968 	 31.0414 	 -113.211
| 21> H 	 -128.383 	 32.083 	 -113.206
| 22> H 	 -126.906 	 32.8236 	 -113.655
| 23> S 	 -126.07 	 34.2635 	 -105.444
| 24> C 	 -126.976 	 35.5208 	 -104.736
| 25> C 	 -127.202 	 36.5914 	 -105.601
| 26> C 	 -126.418 	 36.4323 	 -106.791
| 27> C 	 -125.82 	 35.185 	 -106.902
| 28> H 	 -127.764 	 37.514 	 -105.38
| 29> C 	 -126.416 	 37.507 	 -107.802
| 30> H 	 -127.143 	 38.236 	 -107.36
| 31> H 	 -126.784 	 37.1882 	 -108.742
| 32> C 	 -125.08 	 38.1872 	 -107.954
| 33> H 	 -124.3 	 37.484 	 -108.094
| 34> H 	 -124.775 	 38.6586 	 -106.97
| 35> C 	 -125.023 	 39.2851 	 -108.994
| 36> H 	 -125.092 	 38.8816 	 -109.965
| 37> H 	 -124.057 	 39.8456 	 -108.85
| 38> H 	 -125.904 	 39.941 	 -108.898
| 39> H 	 -123.248 	 31.8895 	 -109.66
| 40> H 	 -127.438 	 35.4542 	 -103.759
| 41> *
| 42>
| 43>                          ****END OF INPUT****

CARTESIAN COORDINATES (ANGSTROEM)
---------------------------------
  S    -123.707000   33.543700  -107.756000
  C    -123.897000   32.685100  -109.264000
  C    -124.990000   33.145700  -110.013000
  C    -125.728000   34.098800  -109.237000
  C    -125.152000   34.486300  -108.022000
  H    -126.599000   34.668400  -109.643000
  C    -125.497000   32.653900  -111.310000
  H    -125.104000   31.632100  -111.497000
  H    -124.992000   33.309000  -112.101000
  C    -126.992000   32.613600  -111.620000
  H    -127.485000   31.974300  -110.829000
  H    -127.551000   33.475700  -111.370000
  C    -127.316000   32.096300  -112.988000
  H    -126.968000   31.041400  -113.211000
  H    -128.383000   32.083000  -113.206000
  H    -126.906000   32.823600  -113.655000
  S    -126.070000   34.263500  -105.444000
  C    -126.976000   35.520800  -104.736000
  C    -127.202000   36.591400  -105.601000
  C    -126.418000   36.432300  -106.791000
  C    -125.820000   35.185000  -106.902000
  H    -127.764000   37.514000  -105.380000
  C    -126.416000   37.507000  -107.802000
  H    -127.143000   38.236000  -107.360000
  H    -126.784000   37.188200  -108.742000
  C    -125.080000   38.187200  -107.954000
  H    -124.300000   37.484000  -108.094000
  H    -124.775000   38.658600  -106.970000
  C    -125.023000   39.285100  -108.994000
  H    -125.092000   38.881600  -109.965000
  H    -124.057000   39.845600  -108.850000
  H    -125.904000   39.941000  -108.898000
  H    -123.248000   31.889500  -109.660000
  H    -127.438000   35.454200  -103.759000

 Total Charge           Charge          ....    0
 Multiplicity           Mult            ....    1
 Number of Electrons    NEL             ....  134
 Basis Dimension        Dim             ....  322

ORBITAL ENERGIES
----------------

  NO   OCC          E(Eh)            E(eV)
   0   2.0000     -88.969842     -2420.9925
   1   2.0000     -88.966277     -2420.8955
   2   2.0000     -10.331494      -281.1343
   3   2.0000     -10.324423      -280.9418
   4   2.0000     -10.318526      -280.7814
   5   2.0000     -10.315100      -280.6881
   6   2.0000     -10.303522      -280.3731
   7   2.0000     -10.300370      -280.2873
   8   2.0000     -10.298116      -280.2260
   9   2.0000     -10.297226      -280.2018
  10   2.0000     -10.295531      -280.1556
  11   2.0000     -10.287775      -279.9446
  12   2.0000     -10.284179      -279.8467
  13   2.0000     -10.282329      -279.7964
  14   2.0000     -10.277183      -279.6564
  15   2.0000     -10.274299      -279.5779
  16   2.0000      -8.084302      -219.9850
  17   2.0000      -8.081851      -219.9183
  18   2.0000      -6.042745      -164.4315
  19   2.0000      -6.040221      -164.3628
  20   2.0000      -6.038755      -164.3229
  21   2.0000      -6.036123      -164.2513
  22   2.0000      -6.035248      -164.2275
  23   2.0000      -6.032814      -164.1612
  24   2.0000      -1.008146       -27.4331
  25   2.0000      -0.986080       -26.8326
  26   2.0000      -0.918140       -24.9839
  27   2.0000      -0.915758       -24.9190
  28   2.0000      -0.869663       -23.6647
  29   2.0000      -0.854871       -23.2622
  30   2.0000      -0.848884       -23.0993
  31   2.0000      -0.811415       -22.0797
  32   2.0000      -0.782158       -21.2836
  33   2.0000      -0.770985       -20.9796
  34   2.0000      -0.711469       -19.3601
  35   2.0000      -0.699271       -19.0281
  36   2.0000      -0.686105       -18.6699
  37   2.0000      -0.664957       -18.0944
  38   2.0000      -0.638257       -17.3679
  39   2.0000      -0.619090       -16.8463
  40   2.0000      -0.600108       -16.3298
  41   2.0000      -0.570027       -15.5112
  42   2.0000      -0.565410       -15.3856
  43   2.0000      -0.561548       -15.2805
  44   2.0000      -0.528945       -14.3933
  45   2.0000      -0.527327       -14.3493
  46   2.0000      -0.510039       -13.8789
  47   2.0000      -0.506764       -13.7898
  48   2.0000      -0.504882       -13.7385
  49   2.0000      -0.500294       -13.6137
  50   2.0000      -0.498272       -13.5587
  51   2.0000      -0.482031       -13.1167
  52   2.0000      -0.472002       -12.8438
  53   2.0000      -0.467828       -12.7302
  54   2.0000      -0.457810       -12.4576
  55   2.0000      -0.453620       -12.3436
  56   2.0000      -0.446493       -12.1497
  57   2.0000      -0.435770       -11.8579
  58   2.0000      -0.432915       -11.7802
  59   2.0000      -0.429638       -11.6911
  60   2.0000      -0.421980       -11.4827
  61   2.0000      -0.410090       -11.1591
  62   2.0000      -0.406669       -11.0660
  63   2.0000      -0.343009        -9.3337
  64   2.0000      -0.330761        -9.0005
  65   2.0000      -0.327247        -8.9049
  66   2.0000      -0.292871        -7.9694
  67   0.0000       0.031076         0.8456
  68   0.0000       0.066772         1.8170
  69   0.0000       0.116814         3.1787
  70   0.0000       0.118945         3.2367
  71   0.0000       0.133006         3.6193

MULLIKEN ATOMIC CHARGES
-----------------------
   0 S :    0.114626
   1 C :   -0.131899
   2 C :   -0.072703
   3 C :    0.006381
   4 C :   -0.157307
   5 H :    0.030974
   6 C :    0.039453
   7 H :    0.025037
   8 H :    0.046598
   9 C :   -0.076472
  10 H :    0.024805
  11 H :    0.014060
  12 C :   -0.036547
  13 H :    0.044589
  14 H :    0.031805
  15 H :    0.025156
  16 S :    0.128708
  17 C :   -0.091513
  18 C :   -0.039445
  19 C :   -0.079925
  20 C :   -0.144309
  21 H :    0.032666
  22 C :    0.106449
  23 H :    0.010328
  24 H :    0.014367
  25 C :   -0.095438
  26 H :    0.025058
  27 H :    0.021257
  28 C :   -0.018012
  29 H :    0.019424
  30 H :    0.046922
  31 H :    0.022862
  32 H :    0.054284
  33 H :    0.057762
Sum of atomic charges:    0.0000000

LOEWDIN ATOMIC CHARGES
----------------------
   0 S :    0.415987
   1 C :   -0.204396
   2 C :   -0.068360
   3 C :   -0.063865
   4 C :   -0.207008
   5 H :    0.035116
   6 C :   -0.040341
   7 H :    0.034989
   8 H :    0.042171
   9 C :   -0.052752
  10 H :    0.030382
  11 H :    0.017398
  12 C :   -0.063496
  13 H :    0.033728
  14 H :    0.029283
  15 H :    0.022842
  16 S :    0.438251
  17 C :   -0.198714
  18 C :   -0.076747
  19 C :   -0.056477
  20 C :   -0.209709
  21 H :    0.036393
  22 C :   -0.030799
  23 H :    0.033836
  24 H :    0.021785
  25 C :   -0.042961
  26 H :    0.018365
  27 H :    0.028354
  28 C :   -0.062793
  29 H :    0.015841
  30 H :    0.036470
  31 H :    0.024807
  32 H :    0.033597
  33 H :    0.028824

  Mayer bond orders larger than 0.100000
B(  0-S ,  1-C ) :   1.1527 B(  0-S ,  4-C ) :   1.1566 B(  1-C ,  2-C ) :   1.5829
B(  1-C , 32-H ) :   0.9619 B(  2-C ,  3-C ) :   1.2780 B(  2-C ,  6-C ) :   1.0290
B(  3-C ,  4-C ) :   1.5614 B(  3-C ,  5-H ) :   0.9759 B(  4-C , 20-C ) :   1.0161
B(  6-C ,  7-H ) :   0.9442 B(  6-C ,  8-H ) :   0.9213 B(  6-C ,  9-C ) :   1.0681
B(  9-C , 10-H ) :   0.9462 B(  9-C , 11-H ) :   0.9433 B(  9-C , 12-C ) :   1.0915
B( 12-C , 13-H ) :   0.9734 B( 12-C , 14-H ) :   0.9700 B( 12-C , 15-H ) :   0.9737
B( 16-S , 17-C ) :   1.1881 B( 16-S , 20-C ) :   1.1451 B( 17-C , 18-C ) :   1.5713
B( 17-C , 33-H ) :   0.9650 B( 18-C , 19-C ) :   1.2865 B( 18-C , 21-H ) :   0.9797
B( 19-C , 20-C ) :   1.5828 B( 19-C , 22-C ) :   1.0511 B( 22-C , 23-H ) :   0.9237
B( 22-C , 24-H ) :   0.9278 B( 22-C , 25-C ) :   1.0667 B( 25-C , 26-H ) :   0.9577
B( 25-C , 27-H ) :   0.9498 B( 25-C , 28-C ) :   1.0876 B( 28-C , 29-H ) :   0.9732
B( 28-C , 30-H ) :   0.9736 B( 28-C , 31-H ) :   0.9715

Dispersion correction           -0.013695796
FINAL SINGLE POINT ENERGY     -1339.881117627193

DIPOLE MOMENT
-------------
                                X             Y             Z
Electronic contribution:      7.83369      -9.58887      23.58694
Nuclear contribution   :     -8.22913       9.70356     -24.06821
                        -----------------------------------------
Total Dipole Moment    :     -0.39544       0.11469      -0.48127
                        -----------------------------------------
Magnitude (a.u.)       :      0.63336
Magnitude (Debye)      :      1.60988

Rotational constants in cm-1:     0.016841     0.008259     0.007114
Rotational constants in MHz :   504.871853   247.603024   213.263012

                             ****ORCA TERMINATED NORMALLY****
TOTAL RUN TIME: 0 days 0 hours 0 minutes 21 seconds 236 msec
