                         Program Version 4.2.1 -  RELEASE  -
|  1> ! wB97X-D3 SP def2-SVP
|  2> %pal
|  3> nprocs 24
|  4> end
|  5>
|  6> * xyz 0 1
|  7> S 	 -100.027 	 24.7238 	 -112.572
|  8> C 	 -100.37 	 23.3801 	 -111.5
|  9> C 	 -100.714 	 23.8569 	 -110.245
| 10> C 	 -100.92 	 25.2399 	 -110.23
| 11> C 	 -100.69 	 25.8837 	 -111.432
| 12> H 	 -101.315 	 25.8258 	 -109.384
| 13> C 	 -100.968 	 22.9982 	 -109.002
| 14> H 	 -100.542 	 23.6222 	 -108.167
| 15> H 	 -100.385 	 22.0347 	 -109.015
| 16> C 	 -102.44 	 22.7326 	 -108.89
| 17> H 	 -102.652 	 22.2354 	 -107.948
| 18> H 	 -103.03 	 23.6242 	 -108.81
| 19> C 	 -103.113 	 21.8658 	 -110.029
| 20> H 	 -102.832 	 22.252 	 -111.02
| 21> H 	 -102.692 	 20.9075 	 -109.961
| 22> H 	 -104.189 	 21.8426 	 -109.961
| 23> S 	 -99.0547 	 28.0721 	 -111.55
| 24> C 	 -99.7509 	 29.6396 	 -112.021
| 25> C 	 -101.151 	 29.5493 	 -112.105
| 26> C 	 -101.664 	 28.2512 	 -111.682
| 27> C 	 -100.658 	 27.2965 	 -111.613
| 28> H 	 -101.781 	 30.3579 	 -112.447
| 29> C 	 -103.15 	 27.9258 	 -111.678
| 30> H 	 -103.646 	 28.2096 	 -110.761
| 31> H 	 -103.216 	 26.8027 	 -111.71
| 32> C 	 -103.843 	 28.4607 	 -112.836
| 33> H 	 -103.207 	 28.5684 	 -113.707
| 34> H 	 -104.213 	 29.4322 	 -112.517
| 35> C 	 -105.196 	 27.895 	 -113.138
| 36> H 	 -105.923 	 27.8359 	 -112.292
| 37> H 	 -105.181 	 26.8461 	 -113.553
| 38> H 	 -105.732 	 28.5292 	 -113.851
| 39> H 	 -100.16 	 22.3257 	 -111.742
| 40> H 	 -99.1695 	 30.5327 	 -112.197
| 41> *
| 42>
| 43>                          ****END OF INPUT****

CARTESIAN COORDINATES (ANGSTROEM)
---------------------------------
  S    -100.027000   24.723800  -112.572000
  C    -100.370000   23.380100  -111.500000
  C    -100.714000   23.856900  -110.245000
  C    -100.920000   25.239900  -110.230000
  C    -100.690000   25.883700  -111.432000
  H    -101.315000   25.825800  -109.384000
  C    -100.968000   22.998200  -109.002000
  H    -100.542000   23.622200  -108.167000
  H    -100.385000   22.034700  -109.015000
  C    -102.440000   22.732600  -108.890000
  H    -102.652000   22.235400  -107.948000
  H    -103.030000   23.624200  -108.810000
  C    -103.113000   21.865800  -110.029000
  H    -102.832000   22.252000  -111.020000
  H    -102.692000   20.907500  -109.961000
  H    -104.189000   21.842600  -109.961000
  S    -99.054700   28.072100  -111.550000
  C    -99.750900   29.639600  -112.021000
  C    -101.151000   29.549300  -112.105000
  C    -101.664000   28.251200  -111.682000
  C    -100.658000   27.296500  -111.613000
  H    -101.781000   30.357900  -112.447000
  C    -103.150000   27.925800  -111.678000
  H    -103.646000   28.209600  -110.761000
  H    -103.216000   26.802700  -111.710000
  C    -103.843000   28.460700  -112.836000
  H    -103.207000   28.568400  -113.707000
  H    -104.213000   29.432200  -112.517000
  C    -105.196000   27.895000  -113.138000
  H    -105.923000   27.835900  -112.292000
  H    -105.181000   26.846100  -113.553000
  H    -105.732000   28.529200  -113.851000
  H    -100.160000   22.325700  -111.742000
  H    -99.169500   30.532700  -112.197000

 Total Charge           Charge          ....    0
 Multiplicity           Mult            ....    1
 Number of Electrons    NEL             ....  134
 Basis Dimension        Dim             ....  322

ORBITAL ENERGIES
----------------

  NO   OCC          E(Eh)            E(eV)
   0   2.0000     -88.966734     -2420.9079
   1   2.0000     -88.962470     -2420.7919
   2   2.0000     -10.325262      -280.9647
   3   2.0000     -10.324978      -280.9569
   4   2.0000     -10.321662      -280.8667
   5   2.0000     -10.317368      -280.7499
   6   2.0000     -10.306024      -280.4412
   7   2.0000     -10.300814      -280.2994
   8   2.0000     -10.299044      -280.2512
   9   2.0000     -10.298589      -280.2388
  10   2.0000     -10.293302      -280.0950
  11   2.0000     -10.286819      -279.9186
  12   2.0000     -10.283784      -279.8360
  13   2.0000     -10.281373      -279.7704
  14   2.0000     -10.276745      -279.6444
  15   2.0000     -10.273566      -279.5580
  16   2.0000      -8.081203      -219.9007
  17   2.0000      -8.076406      -219.7702
  18   2.0000      -6.039736      -164.3496
  19   2.0000      -6.035685      -164.2393
  20   2.0000      -6.035058      -164.2223
  21   2.0000      -6.032002      -164.1391
  22   2.0000      -6.031104      -164.1147
  23   2.0000      -6.026979      -164.0024
  24   2.0000      -1.006029       -27.3755
  25   2.0000      -0.978996       -26.6398
  26   2.0000      -0.921977       -25.0883
  27   2.0000      -0.911846       -24.8126
  28   2.0000      -0.868324       -23.6283
  29   2.0000      -0.847912       -23.0729
  30   2.0000      -0.844029       -22.9672
  31   2.0000      -0.808302       -21.9950
  32   2.0000      -0.784294       -21.3417
  33   2.0000      -0.773882       -21.0584
  34   2.0000      -0.706772       -19.2323
  35   2.0000      -0.696789       -18.9606
  36   2.0000      -0.694854       -18.9079
  37   2.0000      -0.653912       -17.7938
  38   2.0000      -0.640882       -17.4393
  39   2.0000      -0.618879       -16.8406
  40   2.0000      -0.601025       -16.3547
  41   2.0000      -0.576059       -15.6754
  42   2.0000      -0.566817       -15.4239
  43   2.0000      -0.550776       -14.9874
  44   2.0000      -0.538309       -14.6481
  45   2.0000      -0.525504       -14.2997
  46   2.0000      -0.517606       -14.0848
  47   2.0000      -0.516545       -14.0559
  48   2.0000      -0.503466       -13.7000
  49   2.0000      -0.495672       -13.4879
  50   2.0000      -0.484595       -13.1865
  51   2.0000      -0.476742       -12.9728
  52   2.0000      -0.473014       -12.8714
  53   2.0000      -0.465134       -12.6570
  54   2.0000      -0.462063       -12.5734
  55   2.0000      -0.451707       -12.2916
  56   2.0000      -0.445734       -12.1290
  57   2.0000      -0.438169       -11.9232
  58   2.0000      -0.434159       -11.8141
  59   2.0000      -0.422689       -11.5020
  60   2.0000      -0.419697       -11.4205
  61   2.0000      -0.408616       -11.1190
  62   2.0000      -0.397492       -10.8163
  63   2.0000      -0.338110        -9.2004
  64   2.0000      -0.327101        -8.9009
  65   2.0000      -0.324984        -8.8433
  66   2.0000      -0.300360        -8.1732
  67   0.0000       0.033875         0.9218
  68   0.0000       0.054729         1.4893
  69   0.0000       0.111791         3.0420
  70   0.0000       0.118857         3.2343
  71   0.0000       0.129478         3.5233

MULLIKEN ATOMIC CHARGES
-----------------------
   0 S :    0.115122
   1 C :   -0.128595
   2 C :   -0.093134
   3 C :    0.032759
   4 C :   -0.179756
   5 H :    0.024260
   6 C :    0.056889
   7 H :    0.043501
   8 H :    0.033827
   9 C :   -0.066145
  10 H :    0.023328
  11 H :    0.018848
  12 C :   -0.040347
  13 H :    0.037216
  14 H :    0.015244
  15 H :    0.038780
  16 S :    0.100644
  17 C :   -0.087809
  18 C :   -0.034454
  19 C :   -0.037552
  20 C :   -0.170826
  21 H :    0.024410
  22 C :    0.086809
  23 H :    0.027336
  24 H :    0.031407
  25 C :   -0.078091
  26 H :    0.045275
  27 H :    0.018646
  28 C :   -0.072833
  29 H :    0.026836
  30 H :    0.036131
  31 H :    0.030789
  32 H :    0.060537
  33 H :    0.060949
Sum of atomic charges:   -0.0000000

LOEWDIN ATOMIC CHARGES
----------------------
   0 S :    0.409663
   1 C :   -0.199663
   2 C :   -0.068269
   3 C :   -0.056756
   4 C :   -0.207246
   5 H :    0.037271
   6 C :   -0.033056
   7 H :    0.041124
   8 H :    0.033821
   9 C :   -0.041756
  10 H :    0.021574
  11 H :    0.019432
  12 C :   -0.057649
  13 H :    0.026384
  14 H :    0.014818
  15 H :    0.026825
  16 S :    0.378809
  17 C :   -0.175495
  18 C :   -0.069481
  19 C :   -0.047573
  20 C :   -0.191374
  21 H :    0.030482
  22 C :   -0.034801
  23 H :    0.031544
  24 H :    0.034092
  25 C :   -0.053745
  26 H :    0.029616
  27 H :    0.029332
  28 C :   -0.069390
  29 H :    0.027482
  30 H :    0.024365
  31 H :    0.026766
  32 H :    0.034047
  33 H :    0.028806

  Mayer bond orders larger than 0.100000
B(  0-S ,  1-C ) :   1.1498 B(  0-S ,  4-C ) :   1.1512 B(  1-C ,  2-C ) :   1.5820
B(  1-C ,  4-C ) :   0.1054 B(  1-C , 32-H ) :   0.9667 B(  2-C ,  3-C ) :   1.2688
B(  2-C ,  6-C ) :   1.0148 B(  3-C ,  4-C ) :   1.5551 B(  3-C ,  5-H ) :   0.9896
B(  4-C , 20-C ) :   1.0532 B(  6-C ,  7-H ) :   0.9391 B(  6-C ,  8-H ) :   0.9447
B(  6-C ,  9-C ) :   1.0729 B(  9-C , 10-H ) :   0.9550 B(  9-C , 11-H ) :   0.9571
B(  9-C , 12-C ) :   1.0680 B( 12-C , 13-H ) :   0.9737 B( 12-C , 14-H ) :   0.9768
B( 12-C , 15-H ) :   0.9755 B( 16-S , 17-C ) :   1.1389 B( 16-S , 20-C ) :   1.1301
B( 17-C , 18-C ) :   1.6164 B( 17-C , 20-C ) :   0.1022 B( 17-C , 33-H ) :   0.9698
B( 18-C , 19-C ) :   1.2103 B( 18-C , 21-H ) :   0.9883 B( 19-C , 20-C ) :   1.6236
B( 19-C , 22-C ) :   1.0425 B( 22-C , 23-H ) :   0.9172 B( 22-C , 24-H ) :   0.9410
B( 22-C , 25-C ) :   1.0828 B( 25-C , 26-H ) :   0.9593 B( 25-C , 27-H ) :   0.9344
B( 25-C , 28-C ) :   1.0879 B( 28-C , 29-H ) :   0.9704 B( 28-C , 30-H ) :   0.9699
B( 28-C , 31-H ) :   0.9746

Dispersion correction           -0.014341995
FINAL SINGLE POINT ENERGY     -1339.872020111924

DIPOLE MOMENT
-------------
                                X             Y             Z
Electronic contribution:     25.00468       7.91048      -5.33935
Nuclear contribution   :    -25.53022      -7.93505       5.66367
                        -----------------------------------------
Total Dipole Moment    :     -0.52554      -0.02457       0.32432
                        -----------------------------------------
Magnitude (a.u.)       :      0.61805
Magnitude (Debye)      :      1.57095

Rotational constants in cm-1:     0.018083     0.008912     0.006950
Rotational constants in MHz :   542.106918   267.186032   208.342022

                             ****ORCA TERMINATED NORMALLY****
TOTAL RUN TIME: 0 days 0 hours 0 minutes 20 seconds 644 msec
