                         Program Version 4.2.1 -  RELEASE  -
|  1> ! wB97X-D3 SP def2-SVP
|  2> %pal
|  3> nprocs 24
|  4> end
|  5>
|  6> * xyz 0 1
|  7> S 	 15.965 	 -10.8956 	 -121.595
|  8> C 	 14.3921 	 -9.99456 	 -121.625
|  9> C 	 13.602 	 -10.4888 	 -122.658
| 10> C 	 14.2353 	 -11.5315 	 -123.403
| 11> C 	 15.5395 	 -11.838 	 -122.952
| 12> H 	 13.8791 	 -12.0514 	 -124.32
| 13> C 	 12.2 	 -9.97461 	 -122.945
| 14> H 	 11.9621 	 -10.4791 	 -123.93
| 15> H 	 12.2954 	 -8.89124 	 -123.146
| 16> C 	 11.1287 	 -10.4028 	 -121.827
| 17> H 	 11.4622 	 -11.3741 	 -121.402
| 18> H 	 11.1328 	 -9.79219 	 -120.938
| 19> C 	 9.71159 	 -10.437 	 -122.359
| 20> H 	 9.27191 	 -9.48216 	 -122.544
| 21> H 	 9.54372 	 -11.0905 	 -123.176
| 22> H 	 9.0136 	 -10.8061 	 -121.638
| 23> S 	 16.8187 	 -12.3206 	 -125.307
| 24> C 	 18.2667 	 -13.3682 	 -125.261
| 25> C 	 18.479 	 -13.9593 	 -124.049
| 26> C 	 17.4926 	 -13.6048 	 -123.046
| 27> C 	 16.5766 	 -12.652 	 -123.555
| 28> H 	 19.2826 	 -14.6043 	 -123.988
| 29> C 	 17.4909 	 -14.131 	 -121.577
| 30> H 	 17.221 	 -13.3686 	 -120.777
| 31> H 	 18.5323 	 -14.4189 	 -121.289
| 32> C 	 16.7923 	 -15.4161 	 -121.4
| 33> H 	 17.1458 	 -15.9122 	 -120.462
| 34> H 	 17.0217 	 -16.1593 	 -122.174
| 35> C 	 15.2541 	 -15.2807 	 -121.344
| 36> H 	 14.8595 	 -14.7838 	 -120.448
| 37> H 	 14.7826 	 -16.1971 	 -121.452
| 38> H 	 14.848 	 -14.7278 	 -122.208
| 39> H 	 14.0005 	 -9.24024 	 -120.966
| 40> H 	 18.9084 	 -13.5346 	 -126.078
| 41> *
| 42>
| 43>                          ****END OF INPUT****

CARTESIAN COORDINATES (ANGSTROEM)
---------------------------------
  S     15.965000  -10.895600  -121.595000
  C     14.392100   -9.994560  -121.625000
  C     13.602000  -10.488800  -122.658000
  C     14.235300  -11.531500  -123.403000
  C     15.539500  -11.838000  -122.952000
  H     13.879100  -12.051400  -124.320000
  C     12.200000   -9.974610  -122.945000
  H     11.962100  -10.479100  -123.930000
  H     12.295400   -8.891240  -123.146000
  C     11.128700  -10.402800  -121.827000
  H     11.462200  -11.374100  -121.402000
  H     11.132800   -9.792190  -120.938000
  C      9.711590  -10.437000  -122.359000
  H      9.271910   -9.482160  -122.544000
  H      9.543720  -11.090500  -123.176000
  H      9.013600  -10.806100  -121.638000
  S     16.818700  -12.320600  -125.307000
  C     18.266700  -13.368200  -125.261000
  C     18.479000  -13.959300  -124.049000
  C     17.492600  -13.604800  -123.046000
  C     16.576600  -12.652000  -123.555000
  H     19.282600  -14.604300  -123.988000
  C     17.490900  -14.131000  -121.577000
  H     17.221000  -13.368600  -120.777000
  H     18.532300  -14.418900  -121.289000
  C     16.792300  -15.416100  -121.400000
  H     17.145800  -15.912200  -120.462000
  H     17.021700  -16.159300  -122.174000
  C     15.254100  -15.280700  -121.344000
  H     14.859500  -14.783800  -120.448000
  H     14.782600  -16.197100  -121.452000
  H     14.848000  -14.727800  -122.208000
  H     14.000500   -9.240240  -120.966000
  H     18.908400  -13.534600  -126.078000

 Total Charge           Charge          ....    0
 Multiplicity           Mult            ....    1
 Number of Electrons    NEL             ....  134
 Basis Dimension        Dim             ....  322

ORBITAL ENERGIES
----------------

  NO   OCC          E(Eh)            E(eV)
   0   2.0000     -88.968160     -2420.9467
   1   2.0000     -88.967361     -2420.9250
   2   2.0000     -10.334559      -281.2177
   3   2.0000     -10.329390      -281.0770
   4   2.0000     -10.316784      -280.7340
   5   2.0000     -10.316294      -280.7206
   6   2.0000     -10.313992      -280.6580
   7   2.0000     -10.301924      -280.3296
   8   2.0000     -10.301700      -280.3235
   9   2.0000     -10.298814      -280.2450
  10   2.0000     -10.298276      -280.2303
  11   2.0000     -10.293886      -280.1109
  12   2.0000     -10.293764      -280.1076
  13   2.0000     -10.284348      -279.8513
  14   2.0000     -10.269494      -279.4471
  15   2.0000     -10.263339      -279.2796
  16   2.0000      -8.082060      -219.9240
  17   2.0000      -8.080758      -219.8886
  18   2.0000      -6.040631      -164.3739
  19   2.0000      -6.039324      -164.3384
  20   2.0000      -6.036527      -164.2623
  21   2.0000      -6.035615      -164.2374
  22   2.0000      -6.032946      -164.1648
  23   2.0000      -6.031361      -164.1217
  24   2.0000      -1.000682       -27.2299
  25   2.0000      -0.974472       -26.5167
  26   2.0000      -0.908725       -24.7277
  27   2.0000      -0.905530       -24.6407
  28   2.0000      -0.869782       -23.6680
  29   2.0000      -0.849277       -23.1100
  30   2.0000      -0.836937       -22.7742
  31   2.0000      -0.811067       -22.0703
  32   2.0000      -0.785553       -21.3760
  33   2.0000      -0.772040       -21.0083
  34   2.0000      -0.710125       -19.3235
  35   2.0000      -0.706597       -19.2275
  36   2.0000      -0.686641       -18.6845
  37   2.0000      -0.662891       -18.0382
  38   2.0000      -0.631851       -17.1936
  39   2.0000      -0.610356       -16.6086
  40   2.0000      -0.597000       -16.2452
  41   2.0000      -0.566499       -15.4152
  42   2.0000      -0.559339       -15.2204
  43   2.0000      -0.548612       -14.9285
  44   2.0000      -0.539439       -14.6789
  45   2.0000      -0.521878       -14.2010
  46   2.0000      -0.515573       -14.0294
  47   2.0000      -0.511950       -13.9309
  48   2.0000      -0.505256       -13.7487
  49   2.0000      -0.493152       -13.4193
  50   2.0000      -0.490975       -13.3601
  51   2.0000      -0.472802       -12.8656
  52   2.0000      -0.469331       -12.7711
  53   2.0000      -0.465803       -12.6751
  54   2.0000      -0.456959       -12.4345
  55   2.0000      -0.450232       -12.2514
  56   2.0000      -0.442232       -12.0338
  57   2.0000      -0.437804       -11.9132
  58   2.0000      -0.429547       -11.6886
  59   2.0000      -0.422830       -11.5058
  60   2.0000      -0.418478       -11.3874
  61   2.0000      -0.411963       -11.2101
  62   2.0000      -0.407398       -11.0859
  63   2.0000      -0.344346        -9.3701
  64   2.0000      -0.332937        -9.0597
  65   2.0000      -0.329910        -8.9773
  66   2.0000      -0.289673        -7.8824
  67   0.0000       0.024781         0.6743
  68   0.0000       0.066519         1.8101
  69   0.0000       0.100103         2.7239
  70   0.0000       0.114937         3.1276
  71   0.0000       0.123797         3.3687

MULLIKEN ATOMIC CHARGES
-----------------------
   0 S :    0.115075
   1 C :   -0.113940
   2 C :   -0.119346
   3 C :    0.014662
   4 C :   -0.152522
   5 H :    0.025342
   6 C :    0.048137
   7 H :    0.029310
   8 H :    0.051026
   9 C :   -0.062018
  10 H :    0.039234
  11 H :    0.024954
  12 C :   -0.021321
  13 H :    0.023309
  14 H :    0.023912
  15 H :    0.014819
  16 S :    0.098885
  17 C :   -0.073498
  18 C :    0.001005
  19 C :   -0.013721
  20 C :   -0.158393
  21 H :   -0.008344
  22 C :    0.051664
  23 H :    0.047156
  24 H :    0.021203
  25 C :   -0.081192
  26 H :    0.031164
  27 H :    0.027067
  28 C :   -0.032988
  29 H :    0.031664
  30 H :    0.009483
  31 H :    0.029393
  32 H :    0.040192
  33 H :    0.038627
Sum of atomic charges:   -0.0000000

LOEWDIN ATOMIC CHARGES
----------------------
   0 S :    0.421085
   1 C :   -0.192480
   2 C :   -0.063953
   3 C :   -0.083320
   4 C :   -0.208400
   5 H :    0.035087
   6 C :   -0.033557
   7 H :    0.036156
   8 H :    0.036605
   9 C :   -0.037309
  10 H :    0.031193
  11 H :    0.022693
  12 C :   -0.066938
  13 H :    0.024254
  14 H :    0.020647
  15 H :    0.026741
  16 S :    0.373815
  17 C :   -0.160609
  18 C :   -0.056845
  19 C :   -0.046874
  20 C :   -0.183382
  21 H :    0.021595
  22 C :   -0.042365
  23 H :    0.033960
  24 H :    0.035713
  25 C :   -0.046674
  26 H :    0.027529
  27 H :    0.026754
  28 C :   -0.068218
  29 H :    0.025818
  30 H :    0.013904
  31 H :    0.029302
  32 H :    0.027910
  33 H :    0.020163

  Mayer bond orders larger than 0.100000
B(  0-S ,  1-C ) :   1.1236 B(  0-S ,  4-C ) :   1.1813 B(  1-C ,  2-C ) :   1.6017
B(  1-C ,  4-C ) :   0.1031 B(  1-C , 32-H ) :   0.9737 B(  2-C ,  3-C ) :   1.2556
B(  2-C ,  6-C ) :   1.0175 B(  3-C ,  4-C ) :   1.5354 B(  3-C ,  5-H ) :   0.9857
B(  4-C , 20-C ) :   1.0463 B(  6-C ,  7-H ) :   0.9500 B(  6-C ,  8-H ) :   0.9405
B(  6-C ,  9-C ) :   1.0330 B(  9-C , 10-H ) :   0.9617 B(  9-C , 11-H ) :   0.9532
B(  9-C , 12-C ) :   1.0949 B( 12-C , 13-H ) :   0.9719 B( 12-C , 14-H ) :   0.9758
B( 12-C , 15-H ) :   0.9672 B( 16-S , 17-C ) :   1.1269 B( 16-S , 20-C ) :   1.1224
B( 17-C , 18-C ) :   1.6624 B( 17-C , 33-H ) :   0.9695 B( 18-C , 19-C ) :   1.2007
B( 18-C , 21-H ) :   0.9987 B( 19-C , 20-C ) :   1.5976 B( 19-C , 22-C ) :   1.0283
B( 22-C , 23-H ) :   0.9401 B( 22-C , 24-H ) :   0.9321 B( 22-C , 25-C ) :   1.0773
B( 25-C , 26-H ) :   0.9532 B( 25-C , 27-H ) :   0.9522 B( 25-C , 28-C ) :   1.0809
B( 28-C , 29-H ) :   0.9762 B( 28-C , 30-H ) :   0.9719 B( 28-C , 31-H ) :   0.9720

Dispersion correction           -0.014678223
FINAL SINGLE POINT ENERGY     -1339.869123715790

DIPOLE MOMENT
-------------
                                X             Y             Z
Electronic contribution:     19.72006       6.89527     -10.00115
Nuclear contribution   :    -19.93020      -7.11100      10.11292
                        -----------------------------------------
Total Dipole Moment    :     -0.21014      -0.21573       0.11177
                        -----------------------------------------
Magnitude (a.u.)       :      0.32123
Magnitude (Debye)      :      0.81651

Rotational constants in cm-1:     0.021613     0.007704     0.006859
Rotational constants in MHz :   647.932303   230.953752   205.632118

                             ****ORCA TERMINATED NORMALLY****
TOTAL RUN TIME: 0 days 0 hours 0 minutes 20 seconds 335 msec
