                         Program Version 4.2.1 -  RELEASE  -
|  1> ! wB97X-D3 SP def2-SVP
|  2> %pal
|  3> nprocs 24
|  4> end
|  5>
|  6> * xyz 0 1
|  7> S 	 -38.1503 	 17.7789 	 11.5689
|  8> C 	 -38.0222 	 16.3096 	 12.4458
|  9> C 	 -37.6957 	 16.4953 	 13.7764
| 10> C 	 -37.3451 	 17.8928 	 13.9903
| 11> C 	 -37.2661 	 18.6358 	 12.7981
| 12> H 	 -37.0861 	 18.3367 	 14.8622
| 13> C 	 -37.6783 	 15.3883 	 14.8359
| 14> H 	 -38.3932 	 14.6085 	 14.6178
| 15> H 	 -38.148 	 15.9134 	 15.6904
| 16> C 	 -36.2617 	 14.8118 	 15.0353
| 17> H 	 -35.8905 	 14.29 	 14.1549
| 18> H 	 -35.6693 	 15.6849 	 15.1384
| 19> C 	 -36.2975 	 13.9233 	 16.2688
| 20> H 	 -36.934 	 13.0528 	 16.0371
| 21> H 	 -35.2398 	 13.6428 	 16.5271
| 22> H 	 -36.6475 	 14.4292 	 17.1101
| 23> S 	 -37.8809 	 21.2862 	 12.2889
| 24> C 	 -36.6485 	 22.5353 	 12.4418
| 25> C 	 -35.5224 	 21.9995 	 12.9369
| 26> C 	 -35.5665 	 20.5812 	 13.1575
| 27> C 	 -36.8148 	 20.0275 	 12.7284
| 28> H 	 -34.6882 	 22.6639 	 12.9726
| 29> C 	 -34.4136 	 19.696 	 13.5847
| 30> H 	 -33.6081 	 19.7713 	 12.8933
| 31> H 	 -34.6734 	 18.6552 	 13.6723
| 32> C 	 -33.8497 	 19.9853 	 14.9712
| 33> H 	 -32.9545 	 20.6774 	 14.8875
| 34> H 	 -33.4994 	 19.0319 	 15.4046
| 35> C 	 -35.0117 	 20.3299 	 15.9474
| 36> H 	 -35.3882 	 21.3183 	 15.7051
| 37> H 	 -34.5638 	 20.5097 	 16.9189
| 38> H 	 -35.7213 	 19.5081 	 16.0659
| 39> H 	 -38.096 	 15.2699 	 12.1652
| 40> H 	 -36.747 	 23.6355 	 12.349
| 41> *
| 42>
| 43>                          ****END OF INPUT****

CARTESIAN COORDINATES (ANGSTROEM)
---------------------------------
  S    -38.150300   17.778900   11.568900
  C    -38.022200   16.309600   12.445800
  C    -37.695700   16.495300   13.776400
  C    -37.345100   17.892800   13.990300
  C    -37.266100   18.635800   12.798100
  H    -37.086100   18.336700   14.862200
  C    -37.678300   15.388300   14.835900
  H    -38.393200   14.608500   14.617800
  H    -38.148000   15.913400   15.690400
  C    -36.261700   14.811800   15.035300
  H    -35.890500   14.290000   14.154900
  H    -35.669300   15.684900   15.138400
  C    -36.297500   13.923300   16.268800
  H    -36.934000   13.052800   16.037100
  H    -35.239800   13.642800   16.527100
  H    -36.647500   14.429200   17.110100
  S    -37.880900   21.286200   12.288900
  C    -36.648500   22.535300   12.441800
  C    -35.522400   21.999500   12.936900
  C    -35.566500   20.581200   13.157500
  C    -36.814800   20.027500   12.728400
  H    -34.688200   22.663900   12.972600
  C    -34.413600   19.696000   13.584700
  H    -33.608100   19.771300   12.893300
  H    -34.673400   18.655200   13.672300
  C    -33.849700   19.985300   14.971200
  H    -32.954500   20.677400   14.887500
  H    -33.499400   19.031900   15.404600
  C    -35.011700   20.329900   15.947400
  H    -35.388200   21.318300   15.705100
  H    -34.563800   20.509700   16.918900
  H    -35.721300   19.508100   16.065900
  H    -38.096000   15.269900   12.165200
  H    -36.747000   23.635500   12.349000

 Total Charge           Charge          ....    0
 Multiplicity           Mult            ....    1
 Number of Electrons    NEL             ....  134
 Basis Dimension        Dim             ....  322

ORBITAL ENERGIES
----------------

  NO   OCC          E(Eh)            E(eV)
   0   2.0000     -88.967809     -2420.9372
   1   2.0000     -88.963604     -2420.8227
   2   2.0000     -10.330964      -281.1198
   3   2.0000     -10.327731      -281.0318
   4   2.0000     -10.315317      -280.6940
   5   2.0000     -10.307966      -280.4940
   6   2.0000     -10.306191      -280.4457
   7   2.0000     -10.300952      -280.3032
   8   2.0000     -10.295527      -280.1555
   9   2.0000     -10.292092      -280.0621
  10   2.0000     -10.289620      -279.9948
  11   2.0000     -10.288183      -279.9557
  12   2.0000     -10.286037      -279.8973
  13   2.0000     -10.279799      -279.7275
  14   2.0000     -10.279431      -279.7175
  15   2.0000     -10.275705      -279.6161
  16   2.0000      -8.083014      -219.9500
  17   2.0000      -8.078936      -219.8390
  18   2.0000      -6.041575      -164.3996
  19   2.0000      -6.037641      -164.2926
  20   2.0000      -6.037528      -164.2895
  21   2.0000      -6.033498      -164.1798
  22   2.0000      -6.033208      -164.1719
  23   2.0000      -6.029717      -164.0769
  24   2.0000      -1.008475       -27.4420
  25   2.0000      -0.987439       -26.8696
  26   2.0000      -0.916162       -24.9300
  27   2.0000      -0.909597       -24.7514
  28   2.0000      -0.874347       -23.7922
  29   2.0000      -0.850037       -23.1307
  30   2.0000      -0.840311       -22.8660
  31   2.0000      -0.818220       -22.2649
  32   2.0000      -0.782061       -21.2810
  33   2.0000      -0.772574       -21.0228
  34   2.0000      -0.710822       -19.3425
  35   2.0000      -0.704744       -19.1771
  36   2.0000      -0.685530       -18.6542
  37   2.0000      -0.653140       -17.7728
  38   2.0000      -0.640327       -17.4242
  39   2.0000      -0.622682       -16.9440
  40   2.0000      -0.592012       -16.1095
  41   2.0000      -0.573251       -15.5990
  42   2.0000      -0.569328       -15.4922
  43   2.0000      -0.563151       -15.3241
  44   2.0000      -0.541620       -14.7382
  45   2.0000      -0.527982       -14.3671
  46   2.0000      -0.519872       -14.1464
  47   2.0000      -0.510921       -13.9029
  48   2.0000      -0.503096       -13.6899
  49   2.0000      -0.500605       -13.6222
  50   2.0000      -0.490888       -13.3577
  51   2.0000      -0.483025       -13.1438
  52   2.0000      -0.476346       -12.9620
  53   2.0000      -0.466976       -12.7071
  54   2.0000      -0.460389       -12.5278
  55   2.0000      -0.455322       -12.3899
  56   2.0000      -0.437486       -11.9046
  57   2.0000      -0.434616       -11.8265
  58   2.0000      -0.432698       -11.7743
  59   2.0000      -0.429365       -11.6836
  60   2.0000      -0.413474       -11.2512
  61   2.0000      -0.412276       -11.2186
  62   2.0000      -0.407336       -11.0842
  63   2.0000      -0.349781        -9.5180
  64   2.0000      -0.326611        -8.8875
  65   2.0000      -0.325031        -8.8445
  66   2.0000      -0.289916        -7.8890
  67   0.0000       0.028507         0.7757
  68   0.0000       0.067076         1.8252
  69   0.0000       0.110563         3.0086
  70   0.0000       0.123756         3.3676
  71   0.0000       0.124031         3.3750

MULLIKEN ATOMIC CHARGES
-----------------------
   0 S :    0.133236
   1 C :   -0.082459
   2 C :   -0.127196
   3 C :    0.092635
   4 C :   -0.167932
   5 H :   -0.065312
   6 C :    0.038942
   7 H :    0.015520
   8 H :    0.035674
   9 C :   -0.046660
  10 H :    0.033646
  11 H :    0.014252
  12 C :   -0.012700
  13 H :    0.037602
  14 H :    0.036517
  15 H :    0.016672
  16 S :    0.105932
  17 C :   -0.105531
  18 C :   -0.024670
  19 C :   -0.056334
  20 C :   -0.145777
  21 H :    0.011753
  22 C :    0.119142
  23 H :    0.024959
  24 H :    0.018406
  25 C :   -0.140142
  26 H :    0.041419
  27 H :    0.027057
  28 C :   -0.031102
  29 H :    0.039180
  30 H :    0.019969
  31 H :    0.042329
  32 H :    0.033762
  33 H :    0.067207
Sum of atomic charges:    0.0000000

LOEWDIN ATOMIC CHARGES
----------------------
   0 S :    0.423638
   1 C :   -0.210985
   2 C :   -0.061421
   3 C :   -0.043910
   4 C :   -0.195535
   5 H :    0.003549
   6 C :   -0.032361
   7 H :    0.023841
   8 H :    0.037750
   9 C :   -0.034843
  10 H :    0.027505
  11 H :    0.017557
  12 C :   -0.059317
  13 H :    0.030152
  14 H :    0.031306
  15 H :    0.015570
  16 S :    0.415057
  17 C :   -0.190093
  18 C :   -0.074579
  19 C :   -0.051697
  20 C :   -0.211685
  21 H :    0.030171
  22 C :   -0.035461
  23 H :    0.027108
  24 H :    0.029802
  25 C :   -0.046761
  26 H :    0.026180
  27 H :    0.024804
  28 C :   -0.064262
  29 H :    0.026358
  30 H :    0.023806
  31 H :    0.025623
  32 H :    0.030816
  33 H :    0.042318

  Mayer bond orders larger than 0.100000
B(  0-S ,  1-C ) :   1.1424 B(  0-S ,  4-C ) :   1.1489 B(  1-C ,  2-C ) :   1.6254
B(  1-C , 32-H ) :   0.9612 B(  2-C ,  3-C ) :   1.2271 B(  2-C ,  6-C ) :   1.0178
B(  3-C ,  4-C ) :   1.5401 B(  3-C ,  5-H ) :   1.0167 B(  4-C , 20-C ) :   1.0505
B(  6-C ,  7-H ) :   0.9409 B(  6-C ,  8-H ) :   0.9445 B(  6-C ,  9-C ) :   1.0503
B(  9-C , 10-H ) :   0.9547 B(  9-C , 11-H ) :   0.9567 B(  9-C , 12-C ) :   1.0844
B( 12-C , 13-H ) :   0.9727 B( 12-C , 14-H ) :   0.9727 B( 12-C , 15-H ) :   0.9750
B( 16-S , 17-C ) :   1.1400 B( 16-S , 20-C ) :   1.1658 B( 17-C , 18-C ) :   1.6368
B( 17-C , 33-H ) :   0.9610 B( 18-C , 19-C ) :   1.2296 B( 18-C , 21-H ) :   0.9921
B( 19-C , 20-C ) :   1.5630 B( 19-C , 22-C ) :   1.0614 B( 22-C , 23-H ) :   0.9399
B( 22-C , 24-H ) :   0.9280 B( 22-C , 25-C ) :   1.0605 B( 25-C , 26-H ) :   0.9566
B( 25-C , 27-H ) :   0.9646 B( 25-C , 28-C ) :   1.0838 B( 28-C , 29-H ) :   0.9635
B( 28-C , 30-H ) :   0.9679 B( 28-C , 31-H ) :   0.9713

Dispersion correction           -0.015264677
FINAL SINGLE POINT ENERGY     -1339.850468004992

DIPOLE MOMENT
-------------
                                X             Y             Z
Electronic contribution:    -15.42199      14.41264     -22.55911
Nuclear contribution   :     15.87566     -14.64134      23.12419
                        -----------------------------------------
Total Dipole Moment    :      0.45366      -0.22871       0.56508
                        -----------------------------------------
Magnitude (a.u.)       :      0.75989
Magnitude (Debye)      :      1.93148

Rotational constants in cm-1:     0.019809     0.009193     0.006800
Rotational constants in MHz :   593.850994   275.589044   203.852011

                             ****ORCA TERMINATED NORMALLY****
TOTAL RUN TIME: 0 days 0 hours 0 minutes 22 seconds 594 msec
