                         Program Version 4.2.1 -  RELEASE  -
|  1> ! wB97X-D3 SP def2-SVP
|  2> %pal
|  3> nprocs 24
|  4> end
|  5>
|  6> * xyz 0 1
|  7> S 	 -1.40637 	 -24.2796 	 -117.042
|  8> C 	 0.0610365 	 -24.66 	 -117.852
|  9> C 	 0.887382 	 -23.5958 	 -117.608
| 10> C 	 0.381115 	 -22.5831 	 -116.792
| 11> C 	 -0.930403 	 -22.8238 	 -116.474
| 12> H 	 0.877512 	 -21.7332 	 -116.434
| 13> C 	 2.40876 	 -23.5962 	 -117.975
| 14> H 	 2.39384 	 -23.7303 	 -119.057
| 15> H 	 2.87519 	 -24.4861 	 -117.598
| 16> C 	 3.25734 	 -22.294 	 -117.909
| 17> H 	 3.31059 	 -21.9445 	 -116.814
| 18> H 	 4.31558 	 -22.4346 	 -118.233
| 19> C 	 2.77963 	 -21.0629 	 -118.68
| 20> H 	 3.33924 	 -20.2473 	 -118.381
| 21> H 	 2.96948 	 -21.1455 	 -119.761
| 22> H 	 1.71143 	 -20.8952 	 -118.547
| 23> S 	 -3.42028 	 -21.7702 	 -116.27
| 24> C 	 -3.79503 	 -20.6622 	 -115.042
| 25> C 	 -2.79404 	 -20.7349 	 -114.111
| 26> C 	 -1.55226 	 -21.3727 	 -114.467
| 27> C 	 -1.79828 	 -22.0526 	 -115.634
| 28> H 	 -2.82595 	 -20.1247 	 -113.162
| 29> C 	 -0.410209 	 -21.7065 	 -113.543
| 30> H 	 0.37494 	 -22.3498 	 -114.052
| 31> H 	 -0.865115 	 -22.3866 	 -112.845
| 32> C 	 0.228184 	 -20.554 	 -112.738
| 33> H 	 -0.552937 	 -19.8242 	 -112.405
| 34> H 	 0.982605 	 -19.9809 	 -113.282
| 35> C 	 0.969586 	 -21.1269 	 -111.527
| 36> H 	 0.376397 	 -21.3034 	 -110.606
| 37> H 	 1.55367 	 -20.2848 	 -111.128
| 38> H 	 1.55529 	 -22.0366 	 -111.706
| 39> H 	 0.422311 	 -25.5732 	 -118.342
| 40> H 	 -4.71331 	 -20.1455 	 -114.783
| 41> *
| 42>
| 43>                          ****END OF INPUT****

CARTESIAN COORDINATES (ANGSTROEM)
---------------------------------
  S     -1.406370  -24.279600  -117.042000
  C      0.061036  -24.660000  -117.852000
  C      0.887382  -23.595800  -117.608000
  C      0.381115  -22.583100  -116.792000
  C     -0.930403  -22.823800  -116.474000
  H      0.877512  -21.733200  -116.434000
  C      2.408760  -23.596200  -117.975000
  H      2.393840  -23.730300  -119.057000
  H      2.875190  -24.486100  -117.598000
  C      3.257340  -22.294000  -117.909000
  H      3.310590  -21.944500  -116.814000
  H      4.315580  -22.434600  -118.233000
  C      2.779630  -21.062900  -118.680000
  H      3.339240  -20.247300  -118.381000
  H      2.969480  -21.145500  -119.761000
  H      1.711430  -20.895200  -118.547000
  S     -3.420280  -21.770200  -116.270000
  C     -3.795030  -20.662200  -115.042000
  C     -2.794040  -20.734900  -114.111000
  C     -1.552260  -21.372700  -114.467000
  C     -1.798280  -22.052600  -115.634000
  H     -2.825950  -20.124700  -113.162000
  C     -0.410209  -21.706500  -113.543000
  H      0.374940  -22.349800  -114.052000
  H     -0.865115  -22.386600  -112.845000
  C      0.228184  -20.554000  -112.738000
  H     -0.552937  -19.824200  -112.405000
  H      0.982605  -19.980900  -113.282000
  C      0.969586  -21.126900  -111.527000
  H      0.376397  -21.303400  -110.606000
  H      1.553670  -20.284800  -111.128000
  H      1.555290  -22.036600  -111.706000
  H      0.422311  -25.573200  -118.342000
  H     -4.713310  -20.145500  -114.783000

 Total Charge           Charge          ....    0
 Multiplicity           Mult            ....    1
 Number of Electrons    NEL             ....  134
 Basis Dimension        Dim             ....  322

ORBITAL ENERGIES
----------------

  NO   OCC          E(Eh)            E(eV)
   0   2.0000     -88.964211     -2420.8393
   1   2.0000     -88.963928     -2420.8315
   2   2.0000     -10.322927      -280.9011
   3   2.0000     -10.316290      -280.7205
   4   2.0000     -10.314051      -280.6596
   5   2.0000     -10.308043      -280.4961
   6   2.0000     -10.302488      -280.3449
   7   2.0000     -10.297668      -280.2138
   8   2.0000     -10.297279      -280.2032
   9   2.0000     -10.296806      -280.1903
  10   2.0000     -10.295262      -280.1483
  11   2.0000     -10.294046      -280.1152
  12   2.0000     -10.290893      -280.0294
  13   2.0000     -10.281414      -279.7715
  14   2.0000     -10.280919      -279.7580
  15   2.0000     -10.270799      -279.4826
  16   2.0000      -8.081666      -219.9133
  17   2.0000      -8.079630      -219.8579
  18   2.0000      -6.039911      -164.3543
  19   2.0000      -6.038160      -164.3067
  20   2.0000      -6.035485      -164.2339
  21   2.0000      -6.033991      -164.1932
  22   2.0000      -6.032802      -164.1609
  23   2.0000      -6.030282      -164.0923
  24   2.0000      -1.028002       -27.9734
  25   2.0000      -0.997749       -27.1501
  26   2.0000      -0.912229       -24.8230
  27   2.0000      -0.907708       -24.7000
  28   2.0000      -0.877017       -23.8648
  29   2.0000      -0.857446       -23.3323
  30   2.0000      -0.844835       -22.9891
  31   2.0000      -0.817754       -22.2522
  32   2.0000      -0.786395       -21.3989
  33   2.0000      -0.776703       -21.1352
  34   2.0000      -0.709269       -19.3002
  35   2.0000      -0.701604       -19.0916
  36   2.0000      -0.689913       -18.7735
  37   2.0000      -0.655002       -17.8235
  38   2.0000      -0.639317       -17.3967
  39   2.0000      -0.626559       -17.0495
  40   2.0000      -0.601590       -16.3701
  41   2.0000      -0.566873       -15.4254
  42   2.0000      -0.557943       -15.1824
  43   2.0000      -0.553721       -15.0675
  44   2.0000      -0.537770       -14.6335
  45   2.0000      -0.533563       -14.5190
  46   2.0000      -0.524669       -14.2770
  47   2.0000      -0.514386       -13.9971
  48   2.0000      -0.511197       -13.9104
  49   2.0000      -0.499439       -13.5904
  50   2.0000      -0.497639       -13.5414
  51   2.0000      -0.487011       -13.2523
  52   2.0000      -0.472728       -12.8636
  53   2.0000      -0.465766       -12.6741
  54   2.0000      -0.456282       -12.4161
  55   2.0000      -0.451774       -12.2934
  56   2.0000      -0.450045       -12.2463
  57   2.0000      -0.437763       -11.9121
  58   2.0000      -0.431976       -11.7547
  59   2.0000      -0.419086       -11.4039
  60   2.0000      -0.416281       -11.3276
  61   2.0000      -0.411615       -11.2006
  62   2.0000      -0.402396       -10.9498
  63   2.0000      -0.352432        -9.5902
  64   2.0000      -0.331693        -9.0258
  65   2.0000      -0.328761        -8.9460
  66   2.0000      -0.292079        -7.9479
  67   0.0000       0.034935         0.9506
  68   0.0000       0.076075         2.0701
  69   0.0000       0.112718         3.0672
  70   0.0000       0.130437         3.5494
  71   0.0000       0.131642         3.5822

MULLIKEN ATOMIC CHARGES
-----------------------
   0 S :    0.124702
   1 C :   -0.133626
   2 C :   -0.093057
   3 C :    0.024988
   4 C :   -0.122847
   5 H :   -0.012283
   6 C :    0.078821
   7 H :    0.020034
   8 H :    0.038589
   9 C :   -0.128140
  10 H :    0.030881
  11 H :    0.039681
  12 C :   -0.031275
  13 H :    0.019338
  14 H :    0.027556
  15 H :    0.039976
  16 S :    0.114558
  17 C :   -0.069066
  18 C :   -0.065299
  19 C :   -0.009581
  20 C :   -0.159511
  21 H :    0.026685
  22 C :    0.008788
  23 H :    0.047642
  24 H :    0.042364
  25 C :   -0.071296
  26 H :    0.035725
  27 H :    0.036101
  28 C :   -0.076933
  29 H :    0.030755
  30 H :    0.026820
  31 H :    0.045438
  32 H :    0.051750
  33 H :    0.061725
Sum of atomic charges:    0.0000000

LOEWDIN ATOMIC CHARGES
----------------------
   0 S :    0.479785
   1 C :   -0.228736
   2 C :   -0.060415
   3 C :   -0.075215
   4 C :   -0.228259
   5 H :    0.022325
   6 C :   -0.038050
   7 H :    0.032616
   8 H :    0.029472
   9 C :   -0.050403
  10 H :    0.022251
  11 H :    0.032497
  12 C :   -0.062417
  13 H :    0.018617
  14 H :    0.025641
  15 H :    0.026219
  16 S :    0.419293
  17 C :   -0.209506
  18 C :   -0.077567
  19 C :   -0.061291
  20 C :   -0.188577
  21 H :    0.029710
  22 C :   -0.036074
  23 H :    0.041049
  24 H :    0.038354
  25 C :   -0.042153
  26 H :    0.029399
  27 H :    0.025474
  28 C :   -0.077191
  29 H :    0.027273
  30 H :    0.029066
  31 H :    0.027513
  32 H :    0.040030
  33 H :    0.039269

  Mayer bond orders larger than 0.100000
B(  0-S ,  1-C ) :   1.1419 B(  0-S ,  4-C ) :   1.2257 B(  1-C ,  2-C ) :   1.5726
B(  1-C , 32-H ) :   0.9792 B(  2-C ,  3-C ) :   1.2946 B(  2-C ,  6-C ) :   0.9829
B(  3-C ,  4-C ) :   1.4985 B(  3-C ,  5-H ) :   1.0095 B(  4-C , 20-C ) :   1.0071
B(  6-C ,  7-H ) :   0.9373 B(  6-C ,  8-H ) :   0.9503 B(  6-C ,  9-C ) :   1.0674
B(  9-C , 10-H ) :   0.9531 B(  9-C , 11-H ) :   0.9550 B(  9-C , 12-C ) :   1.0802
B( 12-C , 13-H ) :   0.9713 B( 12-C , 14-H ) :   0.9722 B( 12-C , 15-H ) :   0.9745
B( 16-S , 17-C ) :   1.1454 B( 16-S , 20-C ) :   1.1474 B( 17-C , 18-C ) :   1.6265
B( 17-C , 33-H ) :   0.9648 B( 18-C , 19-C ) :   1.2314 B( 18-C , 21-H ) :   0.9665
B( 19-C , 20-C ) :   1.5931 B( 19-C , 22-C ) :   1.0403 B( 22-C , 23-H ) :   0.9362
B( 22-C , 24-H ) :   0.9438 B( 22-C , 25-C ) :   1.0466 B( 25-C , 26-H ) :   0.9574
B( 25-C , 27-H ) :   0.9583 B( 25-C , 28-C ) :   1.0778 B( 28-C , 29-H ) :   0.9728
B( 28-C , 30-H ) :   0.9729 B( 28-C , 31-H ) :   0.9750

Dispersion correction           -0.013910630
FINAL SINGLE POINT ENERGY     -1339.856096992941

DIPOLE MOMENT
-------------
                                X             Y             Z
Electronic contribution:    -26.00708      -9.66124      -8.95178
Nuclear contribution   :     26.54263       9.81959       9.37654
                        -----------------------------------------
Total Dipole Moment    :      0.53555       0.15835       0.42476
                        -----------------------------------------
Magnitude (a.u.)       :      0.70165
Magnitude (Debye)      :      1.78344

Rotational constants in cm-1:     0.015660     0.009836     0.007249
Rotational constants in MHz :   469.479580   294.864712   217.310282

                             ****ORCA TERMINATED NORMALLY****
TOTAL RUN TIME: 0 days 0 hours 0 minutes 21 seconds 697 msec
