                         Program Version 4.2.1 -  RELEASE  -
|  1> ! wB97X-D3 SP def2-SVP
|  2> %pal
|  3> nprocs 24
|  4> end
|  5>
|  6> * xyz 0 1
|  7> S 	 -77.0175 	 4.56071 	 -110.057
|  8> C 	 -78.0871 	 4.21692 	 -111.344
|  9> C 	 -78.901 	 5.30824 	 -111.688
| 10> C 	 -78.8789 	 6.28218 	 -110.677
| 11> C 	 -77.8188 	 6.12062 	 -109.778
| 12> H 	 -79.4747 	 7.19717 	 -110.6
| 13> C 	 -79.781 	 5.35818 	 -112.905
| 14> H 	 -79.8289 	 4.2792 	 -113.109
| 15> H 	 -79.2065 	 5.77625 	 -113.707
| 16> C 	 -81.238 	 5.89759 	 -112.851
| 17> H 	 -81.9973 	 5.50481 	 -113.543
| 18> H 	 -81.5835 	 5.52535 	 -111.894
| 19> C 	 -81.4224 	 7.41651 	 -113.076
| 20> H 	 -81.0472 	 8.08021 	 -112.225
| 21> H 	 -80.7228 	 7.76937 	 -113.824
| 22> H 	 -82.4303 	 7.76565 	 -113.317
| 23> S 	 -77.3265 	 6.04312 	 -107.02
| 24> C 	 -77.0533 	 7.52051 	 -106.116
| 25> C 	 -77.4004 	 8.6159 	 -106.862
| 26> C 	 -77.5758 	 8.31693 	 -108.28
| 27> C 	 -77.5974 	 6.94916 	 -108.577
| 28> H 	 -77.6895 	 9.443 	 -106.284
| 29> C 	 -77.8387 	 9.38138 	 -109.277
| 30> H 	 -78.3287 	 8.94901 	 -110.16
| 31> H 	 -76.8957 	 9.85729 	 -109.599
| 32> C 	 -78.703 	 10.5958 	 -108.71
| 33> H 	 -78.2259 	 11.0123 	 -107.808
| 34> H 	 -79.7448 	 10.4209 	 -108.378
| 35> C 	 -78.8788 	 11.712 	 -109.747
| 36> H 	 -79.4845 	 12.551 	 -109.471
| 37> H 	 -79.2095 	 11.3395 	 -110.686
| 38> H 	 -77.8527 	 12.1076 	 -109.839
| 39> H 	 -77.8965 	 3.34517 	 -111.997
| 40> H 	 -76.8329 	 7.69837 	 -105.092
| 41> *
| 42>
| 43>                          ****END OF INPUT****

CARTESIAN COORDINATES (ANGSTROEM)
---------------------------------
  S    -77.017500    4.560710  -110.057000
  C    -78.087100    4.216920  -111.344000
  C    -78.901000    5.308240  -111.688000
  C    -78.878900    6.282180  -110.677000
  C    -77.818800    6.120620  -109.778000
  H    -79.474700    7.197170  -110.600000
  C    -79.781000    5.358180  -112.905000
  H    -79.828900    4.279200  -113.109000
  H    -79.206500    5.776250  -113.707000
  C    -81.238000    5.897590  -112.851000
  H    -81.997300    5.504810  -113.543000
  H    -81.583500    5.525350  -111.894000
  C    -81.422400    7.416510  -113.076000
  H    -81.047200    8.080210  -112.225000
  H    -80.722800    7.769370  -113.824000
  H    -82.430300    7.765650  -113.317000
  S    -77.326500    6.043120  -107.020000
  C    -77.053300    7.520510  -106.116000
  C    -77.400400    8.615900  -106.862000
  C    -77.575800    8.316930  -108.280000
  C    -77.597400    6.949160  -108.577000
  H    -77.689500    9.443000  -106.284000
  C    -77.838700    9.381380  -109.277000
  H    -78.328700    8.949010  -110.160000
  H    -76.895700    9.857290  -109.599000
  C    -78.703000   10.595800  -108.710000
  H    -78.225900   11.012300  -107.808000
  H    -79.744800   10.420900  -108.378000
  C    -78.878800   11.712000  -109.747000
  H    -79.484500   12.551000  -109.471000
  H    -79.209500   11.339500  -110.686000
  H    -77.852700   12.107600  -109.839000
  H    -77.896500    3.345170  -111.997000
  H    -76.832900    7.698370  -105.092000

 Total Charge           Charge          ....    0
 Multiplicity           Mult            ....    1
 Number of Electrons    NEL             ....  134
 Basis Dimension        Dim             ....  322

ORBITAL ENERGIES
----------------

  NO   OCC          E(Eh)            E(eV)
   0   2.0000     -88.972119     -2421.0544
   1   2.0000     -88.961464     -2420.7645
   2   2.0000     -10.335129      -281.2332
   3   2.0000     -10.334510      -281.2163
   4   2.0000     -10.317855      -280.7631
   5   2.0000     -10.313681      -280.6495
   6   2.0000     -10.308119      -280.4982
   7   2.0000     -10.305507      -280.4271
   8   2.0000     -10.297762      -280.2164
   9   2.0000     -10.297064      -280.1974
  10   2.0000     -10.295099      -280.1439
  11   2.0000     -10.295050      -280.1426
  12   2.0000     -10.292453      -280.0719
  13   2.0000     -10.288921      -279.9758
  14   2.0000     -10.286577      -279.9120
  15   2.0000     -10.274074      -279.5718
  16   2.0000      -8.086864      -220.0548
  17   2.0000      -8.075116      -219.7351
  18   2.0000      -6.045239      -164.4993
  19   2.0000      -6.041309      -164.3924
  20   2.0000      -6.037811      -164.2972
  21   2.0000      -6.033880      -164.1902
  22   2.0000      -6.029838      -164.0802
  23   2.0000      -6.025585      -163.9645
  24   2.0000      -1.004610       -27.3368
  25   2.0000      -0.980548       -26.6821
  26   2.0000      -0.910783       -24.7837
  27   2.0000      -0.904657       -24.6170
  28   2.0000      -0.870308       -23.6823
  29   2.0000      -0.854715       -23.2580
  30   2.0000      -0.845939       -23.0192
  31   2.0000      -0.820399       -22.3242
  32   2.0000      -0.782594       -21.2955
  33   2.0000      -0.767042       -20.8723
  34   2.0000      -0.713088       -19.4041
  35   2.0000      -0.701786       -19.0966
  36   2.0000      -0.696917       -18.9641
  37   2.0000      -0.653940       -17.7946
  38   2.0000      -0.641589       -17.4585
  39   2.0000      -0.622576       -16.9412
  40   2.0000      -0.592908       -16.1338
  41   2.0000      -0.573490       -15.6055
  42   2.0000      -0.566561       -15.4169
  43   2.0000      -0.548402       -14.9228
  44   2.0000      -0.545256       -14.8372
  45   2.0000      -0.526750       -14.3336
  46   2.0000      -0.518123       -14.0988
  47   2.0000      -0.508198       -13.8288
  48   2.0000      -0.503817       -13.7096
  49   2.0000      -0.496483       -13.5100
  50   2.0000      -0.495365       -13.4796
  51   2.0000      -0.481099       -13.0914
  52   2.0000      -0.473024       -12.8716
  53   2.0000      -0.465059       -12.6549
  54   2.0000      -0.459908       -12.5147
  55   2.0000      -0.452423       -12.3111
  56   2.0000      -0.444586       -12.0978
  57   2.0000      -0.441262       -12.0073
  58   2.0000      -0.436742       -11.8844
  59   2.0000      -0.427293       -11.6272
  60   2.0000      -0.418159       -11.3787
  61   2.0000      -0.409743       -11.1497
  62   2.0000      -0.403751       -10.9866
  63   2.0000      -0.352008        -9.5786
  64   2.0000      -0.331761        -9.0277
  65   2.0000      -0.322186        -8.7671
  66   2.0000      -0.288294        -7.8449
  67   0.0000       0.021154         0.5756
  68   0.0000       0.071360         1.9418
  69   0.0000       0.099917         2.7189
  70   0.0000       0.112029         3.0485
  71   0.0000       0.125415         3.4127

MULLIKEN ATOMIC CHARGES
-----------------------
   0 S :    0.133640
   1 C :   -0.140451
   2 C :   -0.101901
   3 C :    0.017216
   4 C :   -0.156247
   5 H :    0.025885
   6 C :    0.085004
   7 H :    0.021798
   8 H :    0.038489
   9 C :   -0.057140
  10 H :    0.038869
  11 H :    0.028978
  12 C :   -0.080106
  13 H :    0.025795
  14 H :    0.024349
  15 H :    0.044410
  16 S :    0.082717
  17 C :   -0.067643
  18 C :   -0.050821
  19 C :   -0.020544
  20 C :   -0.139403
  21 H :    0.020018
  22 C :    0.074277
  23 H :    0.014912
  24 H :    0.041706
  25 C :   -0.135893
  26 H :    0.036311
  27 H :    0.033205
  28 C :   -0.023438
  29 H :    0.031529
  30 H :    0.023245
  31 H :    0.020218
  32 H :    0.066630
  33 H :    0.044389
Sum of atomic charges:   -0.0000000

LOEWDIN ATOMIC CHARGES
----------------------
   0 S :    0.426497
   1 C :   -0.216236
   2 C :   -0.064436
   3 C :   -0.058355
   4 C :   -0.192994
   5 H :    0.033749
   6 C :   -0.033020
   7 H :    0.039815
   8 H :    0.030115
   9 C :   -0.045318
  10 H :    0.034328
  11 H :    0.025811
  12 C :   -0.077229
  13 H :    0.025300
  14 H :    0.024307
  15 H :    0.027485
  16 S :    0.366832
  17 C :   -0.173802
  18 C :   -0.074697
  19 C :   -0.056192
  20 C :   -0.174070
  21 H :    0.026708
  22 C :   -0.028488
  23 H :    0.027472
  24 H :    0.039639
  25 C :   -0.044647
  26 H :    0.022100
  27 H :    0.023373
  28 C :   -0.062804
  29 H :    0.023618
  30 H :    0.018205
  31 H :    0.025659
  32 H :    0.032811
  33 H :    0.028462

  Mayer bond orders larger than 0.100000
B(  0-S ,  1-C ) :   1.1688 B(  0-S ,  4-C ) :   1.1594 B(  1-C ,  2-C ) :   1.5698
B(  1-C ,  4-C ) :   0.1030 B(  1-C , 32-H ) :   0.9566 B(  2-C ,  3-C ) :   1.2730
B(  2-C ,  6-C ) :   1.0186 B(  3-C ,  4-C ) :   1.5462 B(  3-C ,  5-H ) :   0.9784
B(  4-C , 20-C ) :   1.0581 B(  6-C ,  7-H ) :   0.9333 B(  6-C ,  8-H ) :   0.9327
B(  6-C ,  9-C ) :   1.0591 B(  9-C , 10-H ) :   0.9614 B(  9-C , 11-H ) :   0.9587
B(  9-C , 12-C ) :   1.0603 B( 12-C , 13-H ) :   0.9738 B( 12-C , 14-H ) :   0.9732
B( 12-C , 15-H ) :   0.9772 B( 16-S , 17-C ) :   1.1412 B( 16-S , 20-C ) :   1.1026
B( 17-C , 18-C ) :   1.6653 B( 17-C , 33-H ) :   0.9611 B( 18-C , 19-C ) :   1.1932
B( 18-C , 21-H ) :   0.9859 B( 19-C , 20-C ) :   1.6235 B( 19-C , 22-C ) :   1.0578
B( 22-C , 23-H ) :   0.9391 B( 22-C , 24-H ) :   0.9231 B( 22-C , 25-C ) :   1.0459
B( 25-C , 26-H ) :   0.9519 B( 25-C , 27-H ) :   0.9631 B( 25-C , 28-C ) :   1.0829
B( 28-C , 29-H ) :   0.9746 B( 28-C , 30-H ) :   0.9756 B( 28-C , 31-H ) :   0.9754

Dispersion correction           -0.013698550
FINAL SINGLE POINT ENERGY     -1339.851246852279

DIPOLE MOMENT
-------------
                                X             Y             Z
Electronic contribution:     17.06762     -22.03603      16.11736
Nuclear contribution   :    -17.49400      22.51224     -16.51159
                        -----------------------------------------
Total Dipole Moment    :     -0.42638       0.47622      -0.39423
                        -----------------------------------------
Magnitude (a.u.)       :      0.75100
Magnitude (Debye)      :      1.90889

Rotational constants in cm-1:     0.015130     0.009977     0.006451
Rotational constants in MHz :   453.576320   299.100731   193.409321

                             ****ORCA TERMINATED NORMALLY****
TOTAL RUN TIME: 0 days 0 hours 0 minutes 21 seconds 279 msec
