                         Program Version 4.2.1 -  RELEASE  -
|  1> ! wB97X-D3 SP def2-SVP
|  2> %pal
|  3> nprocs 24
|  4> end
|  5>
|  6> * xyz 0 1
|  7> S 	 14.435 	 -13.4083 	 -116.249
|  8> C 	 13.2228 	 -12.1349 	 -116.59
|  9> C 	 12.1768 	 -12.6349 	 -117.329
| 10> C 	 12.3529 	 -14.0505 	 -117.595
| 11> C 	 13.5855 	 -14.6163 	 -117.14
| 12> H 	 11.6224 	 -14.6653 	 -118.096
| 13> C 	 11.0042 	 -11.8904 	 -117.821
| 14> H 	 10.9541 	 -12.2236 	 -118.906
| 15> H 	 11.3205 	 -10.7977 	 -117.778
| 16> C 	 9.69979 	 -12.204 	 -117.007
| 17> H 	 8.9696 	 -11.4793 	 -117.311
| 18> H 	 9.289 	 -13.1861 	 -117.326
| 19> C 	 9.83779 	 -12.0443 	 -115.546
| 20> H 	 10.1996 	 -11.0983 	 -115.355
| 21> H 	 8.86396 	 -12.1491 	 -115.052
| 22> H 	 10.5647 	 -12.7267 	 -115.15
| 23> S 	 14.9823 	 -16.133 	 -118.909
| 24> C 	 15.371 	 -17.8106 	 -118.461
| 25> C 	 14.5051 	 -18.2925 	 -117.515
| 26> C 	 13.7788 	 -17.2209 	 -116.854
| 27> C 	 14.0796 	 -15.9695 	 -117.374
| 28> H 	 14.4769 	 -19.3613 	 -117.38
| 29> C 	 12.7838 	 -17.4001 	 -115.73
| 30> H 	 12.8876 	 -16.5446 	 -115.013
| 31> H 	 13.0244 	 -18.3097 	 -115.159
| 32> C 	 11.3632 	 -17.7058 	 -116.191
| 33> H 	 11.4252 	 -18.452 	 -116.947
| 34> H 	 10.9296 	 -16.8321 	 -116.67
| 35> C 	 10.4455 	 -18.1485 	 -115.15
| 36> H 	 10.7308 	 -19.0553 	 -114.587
| 37> H 	 9.42165 	 -18.2843 	 -115.509
| 38> H 	 10.4372 	 -17.4547 	 -114.312
| 39> H 	 13.4832 	 -11.1292 	 -116.284
| 40> H 	 15.9 	 -18.549 	 -119.003
| 41> *
| 42>
| 43>                          ****END OF INPUT****

CARTESIAN COORDINATES (ANGSTROEM)
---------------------------------
  S     14.435000  -13.408300  -116.249000
  C     13.222800  -12.134900  -116.590000
  C     12.176800  -12.634900  -117.329000
  C     12.352900  -14.050500  -117.595000
  C     13.585500  -14.616300  -117.140000
  H     11.622400  -14.665300  -118.096000
  C     11.004200  -11.890400  -117.821000
  H     10.954100  -12.223600  -118.906000
  H     11.320500  -10.797700  -117.778000
  C      9.699790  -12.204000  -117.007000
  H      8.969600  -11.479300  -117.311000
  H      9.289000  -13.186100  -117.326000
  C      9.837790  -12.044300  -115.546000
  H     10.199600  -11.098300  -115.355000
  H      8.863960  -12.149100  -115.052000
  H     10.564700  -12.726700  -115.150000
  S     14.982300  -16.133000  -118.909000
  C     15.371000  -17.810600  -118.461000
  C     14.505100  -18.292500  -117.515000
  C     13.778800  -17.220900  -116.854000
  C     14.079600  -15.969500  -117.374000
  H     14.476900  -19.361300  -117.380000
  C     12.783800  -17.400100  -115.730000
  H     12.887600  -16.544600  -115.013000
  H     13.024400  -18.309700  -115.159000
  C     11.363200  -17.705800  -116.191000
  H     11.425200  -18.452000  -116.947000
  H     10.929600  -16.832100  -116.670000
  C     10.445500  -18.148500  -115.150000
  H     10.730800  -19.055300  -114.587000
  H      9.421650  -18.284300  -115.509000
  H     10.437200  -17.454700  -114.312000
  H     13.483200  -11.129200  -116.284000
  H     15.900000  -18.549000  -119.003000

 Total Charge           Charge          ....    0
 Multiplicity           Mult            ....    1
 Number of Electrons    NEL             ....  134
 Basis Dimension        Dim             ....  322

ORBITAL ENERGIES
----------------

  NO   OCC          E(Eh)            E(eV)
   0   2.0000     -88.963248     -2420.8131
   1   2.0000     -88.962907     -2420.8038
   2   2.0000     -10.333419      -281.1866
   3   2.0000     -10.328633      -281.0564
   4   2.0000     -10.317639      -280.7572
   5   2.0000     -10.314776      -280.6793
   6   2.0000     -10.309813      -280.5443
   7   2.0000     -10.302258      -280.3387
   8   2.0000     -10.301430      -280.3162
   9   2.0000     -10.298552      -280.2378
  10   2.0000     -10.296308      -280.1768
  11   2.0000     -10.292699      -280.0786
  12   2.0000     -10.287260      -279.9306
  13   2.0000     -10.277666      -279.6695
  14   2.0000     -10.273870      -279.5662
  15   2.0000     -10.265390      -279.3355
  16   2.0000      -8.077900      -219.8108
  17   2.0000      -8.076832      -219.7818
  18   2.0000      -6.036432      -164.2597
  19   2.0000      -6.035506      -164.2345
  20   2.0000      -6.032214      -164.1449
  21   2.0000      -6.031809      -164.1339
  22   2.0000      -6.028834      -164.0529
  23   2.0000      -6.027071      -164.0050
  24   2.0000      -1.000452       -27.2237
  25   2.0000      -0.979199       -26.6454
  26   2.0000      -0.918021       -24.9806
  27   2.0000      -0.916404       -24.9366
  28   2.0000      -0.871853       -23.7243
  29   2.0000      -0.851230       -23.1631
  30   2.0000      -0.848135       -23.0789
  31   2.0000      -0.811955       -22.0944
  32   2.0000      -0.782977       -21.3059
  33   2.0000      -0.771024       -20.9806
  34   2.0000      -0.710411       -19.3313
  35   2.0000      -0.699794       -19.0424
  36   2.0000      -0.693604       -18.8739
  37   2.0000      -0.659430       -17.9440
  38   2.0000      -0.641290       -17.4504
  39   2.0000      -0.614970       -16.7342
  40   2.0000      -0.592579       -16.1249
  41   2.0000      -0.571445       -15.5498
  42   2.0000      -0.565257       -15.3814
  43   2.0000      -0.555025       -15.1030
  44   2.0000      -0.548755       -14.9324
  45   2.0000      -0.528976       -14.3942
  46   2.0000      -0.519439       -14.1347
  47   2.0000      -0.514682       -14.0052
  48   2.0000      -0.510722       -13.8975
  49   2.0000      -0.500874       -13.6295
  50   2.0000      -0.487814       -13.2741
  51   2.0000      -0.474419       -12.9096
  52   2.0000      -0.469993       -12.7891
  53   2.0000      -0.461350       -12.5540
  54   2.0000      -0.456406       -12.4194
  55   2.0000      -0.449843       -12.2408
  56   2.0000      -0.444006       -12.0820
  57   2.0000      -0.438730       -11.9385
  58   2.0000      -0.431948       -11.7539
  59   2.0000      -0.424060       -11.5393
  60   2.0000      -0.423001       -11.5104
  61   2.0000      -0.413585       -11.2542
  62   2.0000      -0.411422       -11.1954
  63   2.0000      -0.331244        -9.0136
  64   2.0000      -0.323907        -8.8140
  65   2.0000      -0.316605        -8.6153
  66   2.0000      -0.314768        -8.5653
  67   0.0000       0.036718         0.9992
  68   0.0000       0.050442         1.3726
  69   0.0000       0.098679         2.6852
  70   0.0000       0.119858         3.2615
  71   0.0000       0.124342         3.3835

MULLIKEN ATOMIC CHARGES
-----------------------
   0 S :    0.105642
   1 C :   -0.150971
   2 C :   -0.074945
   3 C :    0.042695
   4 C :   -0.176315
   5 H :    0.008862
   6 C :    0.017871
   7 H :    0.051585
   8 H :    0.035929
   9 C :   -0.063645
  10 H :    0.024290
  11 H :    0.031309
  12 C :    0.001045
  13 H :    0.001321
  14 H :    0.036636
  15 H :    0.040053
  16 S :    0.098139
  17 C :   -0.053714
  18 C :   -0.056390
  19 C :   -0.004172
  20 C :   -0.175894
  21 H :    0.021872
  22 C :    0.050163
  23 H :    0.044712
  24 H :    0.009233
  25 C :   -0.027325
  26 H :    0.012253
  27 H :    0.016855
  28 C :   -0.033115
  29 H :    0.019354
  30 H :    0.038268
  31 H :    0.016148
  32 H :    0.053556
  33 H :    0.038694
Sum of atomic charges:    0.0000000

LOEWDIN ATOMIC CHARGES
----------------------
   0 S :    0.404175
   1 C :   -0.186569
   2 C :   -0.070190
   3 C :   -0.061337
   4 C :   -0.214234
   5 H :    0.024338
   6 C :   -0.040164
   7 H :    0.044277
   8 H :    0.037081
   9 C :   -0.038147
  10 H :    0.023059
  11 H :    0.024878
  12 C :   -0.056044
  13 H :    0.014952
  14 H :    0.032371
  15 H :    0.025713
  16 S :    0.378240
  17 C :   -0.166988
  18 C :   -0.068187
  19 C :   -0.044597
  20 C :   -0.189546
  21 H :    0.032743
  22 C :   -0.033919
  23 H :    0.037745
  24 H :    0.028675
  25 C :   -0.041222
  26 H :    0.020760
  27 H :    0.023376
  28 C :   -0.068611
  29 H :    0.024357
  30 H :    0.030288
  31 H :    0.024392
  32 H :    0.025613
  33 H :    0.022723

  Mayer bond orders larger than 0.100000
B(  0-S ,  1-C ) :   1.1396 B(  0-S ,  4-C ) :   1.1683 B(  1-C ,  2-C ) :   1.5782
B(  1-C , 32-H ) :   0.9749 B(  2-C ,  3-C ) :   1.2347 B(  2-C ,  6-C ) :   1.0230
B(  3-C ,  4-C ) :   1.5586 B(  3-C ,  5-H ) :   0.9927 B(  4-C , 20-C ) :   1.0230
B(  6-C ,  7-H ) :   0.9399 B(  6-C ,  8-H ) :   0.9431 B(  6-C ,  9-C ) :   1.0596
B(  9-C , 10-H ) :   0.9552 B(  9-C , 11-H ) :   0.9545 B(  9-C , 12-C ) :   1.0882
B( 12-C , 13-H ) :   0.9694 B( 12-C , 14-H ) :   0.9685 B( 12-C , 15-H ) :   0.9674
B( 16-S , 17-C ) :   1.1304 B( 16-S , 20-C ) :   1.1235 B( 17-C , 18-C ) :   1.6691
B( 17-C , 33-H ) :   0.9647 B( 18-C , 19-C ) :   1.1894 B( 18-C , 21-H ) :   0.9908
B( 19-C , 20-C ) :   1.6340 B( 19-C , 22-C ) :   1.0583 B( 22-C , 23-H ) :   0.9286
B( 22-C , 24-H ) :   0.9324 B( 22-C , 25-C ) :   1.0660 B( 25-C , 26-H ) :   0.9492
B( 25-C , 27-H ) :   0.9417 B( 25-C , 28-C ) :   1.1072 B( 28-C , 29-H ) :   0.9665
B( 28-C , 30-H ) :   0.9695 B( 28-C , 31-H ) :   0.9661

Dispersion correction           -0.014894801
FINAL SINGLE POINT ENERGY     -1339.868268926591

DIPOLE MOMENT
-------------
                                X             Y             Z
Electronic contribution:     26.15664       1.12719      -9.96210
Nuclear contribution   :    -26.84858      -1.28827      10.00407
                        -----------------------------------------
Total Dipole Moment    :     -0.69194      -0.16107       0.04197
                        -----------------------------------------
Magnitude (a.u.)       :      0.71168
Magnitude (Debye)      :      1.80895

Rotational constants in cm-1:     0.017838     0.009489     0.007192
Rotational constants in MHz :   534.773917   284.465906   215.623583

                             ****ORCA TERMINATED NORMALLY****
TOTAL RUN TIME: 0 days 0 hours 0 minutes 22 seconds 42 msec
