                         Program Version 4.2.1 -  RELEASE  -
|  1> ! wB97X-D3 SP def2-SVP
|  2> %pal
|  3> nprocs 24
|  4> end
|  5>
|  6> * xyz 0 1
|  7> S 	 -92.4269 	 -38.6755 	 -60.0312
|  8> C 	 -92.1482 	 -39.8482 	 -58.8065
|  9> C 	 -92.7276 	 -39.4502 	 -57.6204
| 10> C 	 -93.3205 	 -38.2022 	 -57.6468
| 11> C 	 -93.1839 	 -37.5424 	 -58.862
| 12> H 	 -93.8156 	 -37.6296 	 -56.8428
| 13> C 	 -92.7947 	 -40.375 	 -56.3782
| 14> H 	 -93.4859 	 -39.9322 	 -55.6456
| 15> H 	 -91.7871 	 -40.3659 	 -55.9612
| 16> C 	 -93.2012 	 -41.7882 	 -56.6459
| 17> H 	 -94.2357 	 -41.7878 	 -56.9598
| 18> H 	 -92.69 	 -42.0448 	 -57.5572
| 19> C 	 -92.736 	 -42.8148 	 -55.5527
| 20> H 	 -92.8296 	 -43.8578 	 -55.9414
| 21> H 	 -91.6105 	 -42.645 	 -55.3223
| 22> H 	 -93.2702 	 -42.7384 	 -54.6579
| 23> S 	 -92.2749 	 -35.1182 	 -59.9209
| 24> C 	 -93.3561 	 -33.7027 	 -59.7578
| 25> C 	 -94.6091 	 -34.0743 	 -59.3337
| 26> C 	 -94.701 	 -35.4198 	 -58.9681
| 27> C 	 -93.5655 	 -36.178 	 -59.2381
| 28> H 	 -95.3599 	 -33.3164 	 -59.1657
| 29> C 	 -96.057 	 -35.9495 	 -58.4911
| 30> H 	 -95.8703 	 -36.9733 	 -58.1396
| 31> H 	 -96.7432 	 -35.9634 	 -59.4066
| 32> C 	 -96.8435 	 -35.1834 	 -57.4415
| 33> H 	 -97.7245 	 -35.7507 	 -57.1821
| 34> H 	 -97.1954 	 -34.1722 	 -57.6384
| 35> C 	 -96.0893 	 -35.2105 	 -56.1141
| 36> H 	 -96.1647 	 -36.2466 	 -55.7147
| 37> H 	 -96.53 	 -34.4666 	 -55.3863
| 38> H 	 -95.0577 	 -34.9799 	 -56.2557
| 39> H 	 -91.528 	 -40.7019 	 -58.9245
| 40> H 	 -93.1621 	 -32.7293 	 -60.0459
| 41> *
| 42>
| 43>                          ****END OF INPUT****

CARTESIAN COORDINATES (ANGSTROEM)
---------------------------------
  S    -92.426900  -38.675500  -60.031200
  C    -92.148200  -39.848200  -58.806500
  C    -92.727600  -39.450200  -57.620400
  C    -93.320500  -38.202200  -57.646800
  C    -93.183900  -37.542400  -58.862000
  H    -93.815600  -37.629600  -56.842800
  C    -92.794700  -40.375000  -56.378200
  H    -93.485900  -39.932200  -55.645600
  H    -91.787100  -40.365900  -55.961200
  C    -93.201200  -41.788200  -56.645900
  H    -94.235700  -41.787800  -56.959800
  H    -92.690000  -42.044800  -57.557200
  C    -92.736000  -42.814800  -55.552700
  H    -92.829600  -43.857800  -55.941400
  H    -91.610500  -42.645000  -55.322300
  H    -93.270200  -42.738400  -54.657900
  S    -92.274900  -35.118200  -59.920900
  C    -93.356100  -33.702700  -59.757800
  C    -94.609100  -34.074300  -59.333700
  C    -94.701000  -35.419800  -58.968100
  C    -93.565500  -36.178000  -59.238100
  H    -95.359900  -33.316400  -59.165700
  C    -96.057000  -35.949500  -58.491100
  H    -95.870300  -36.973300  -58.139600
  H    -96.743200  -35.963400  -59.406600
  C    -96.843500  -35.183400  -57.441500
  H    -97.724500  -35.750700  -57.182100
  H    -97.195400  -34.172200  -57.638400
  C    -96.089300  -35.210500  -56.114100
  H    -96.164700  -36.246600  -55.714700
  H    -96.530000  -34.466600  -55.386300
  H    -95.057700  -34.979900  -56.255700
  H    -91.528000  -40.701900  -58.924500
  H    -93.162100  -32.729300  -60.045900

 Total Charge           Charge          ....    0
 Multiplicity           Mult            ....    1
 Number of Electrons    NEL             ....  134
 Basis Dimension        Dim             ....  322

ORBITAL ENERGIES
----------------

  NO   OCC          E(Eh)            E(eV)
   0   2.0000     -88.967598     -2420.9314
   1   2.0000     -88.965858     -2420.8841
   2   2.0000     -10.333487      -281.1885
   3   2.0000     -10.333213      -281.1810
   4   2.0000     -10.317954      -280.7658
   5   2.0000     -10.309965      -280.5484
   6   2.0000     -10.305248      -280.4201
   7   2.0000     -10.299178      -280.2549
   8   2.0000     -10.297473      -280.2085
   9   2.0000     -10.294660      -280.1319
  10   2.0000     -10.291021      -280.0329
  11   2.0000     -10.288549      -279.9656
  12   2.0000     -10.288039      -279.9518
  13   2.0000     -10.285647      -279.8867
  14   2.0000     -10.282163      -279.7919
  15   2.0000     -10.278359      -279.6884
  16   2.0000      -8.080923      -219.8931
  17   2.0000      -8.080417      -219.8793
  18   2.0000      -6.039610      -164.3461
  19   2.0000      -6.038826      -164.3248
  20   2.0000      -6.035662      -164.2387
  21   2.0000      -6.034875      -164.2173
  22   2.0000      -6.031526      -164.1262
  23   2.0000      -6.031370      -164.1219
  24   2.0000      -1.004483       -27.3334
  25   2.0000      -0.984646       -26.7936
  26   2.0000      -0.913019       -24.8445
  27   2.0000      -0.910441       -24.7744
  28   2.0000      -0.869281       -23.6543
  29   2.0000      -0.851962       -23.1831
  30   2.0000      -0.846490       -23.0342
  31   2.0000      -0.814716       -22.1696
  32   2.0000      -0.779675       -21.2160
  33   2.0000      -0.769638       -20.9429
  34   2.0000      -0.710957       -19.3461
  35   2.0000      -0.702837       -19.1252
  36   2.0000      -0.696364       -18.9490
  37   2.0000      -0.661198       -17.9921
  38   2.0000      -0.645831       -17.5740
  39   2.0000      -0.614431       -16.7195
  40   2.0000      -0.597608       -16.2617
  41   2.0000      -0.573735       -15.6121
  42   2.0000      -0.561362       -15.2754
  43   2.0000      -0.551300       -15.0016
  44   2.0000      -0.547704       -14.9038
  45   2.0000      -0.529401       -14.4057
  46   2.0000      -0.516756       -14.0616
  47   2.0000      -0.509393       -13.8613
  48   2.0000      -0.505373       -13.7519
  49   2.0000      -0.502843       -13.6830
  50   2.0000      -0.488674       -13.2975
  51   2.0000      -0.483454       -13.1555
  52   2.0000      -0.470852       -12.8125
  53   2.0000      -0.464238       -12.6326
  54   2.0000      -0.456502       -12.4220
  55   2.0000      -0.446229       -12.1425
  56   2.0000      -0.442915       -12.0523
  57   2.0000      -0.437634       -11.9086
  58   2.0000      -0.431007       -11.7283
  59   2.0000      -0.425212       -11.5706
  60   2.0000      -0.424003       -11.5377
  61   2.0000      -0.413313       -11.2468
  62   2.0000      -0.412499       -11.2247
  63   2.0000      -0.348697        -9.4885
  64   2.0000      -0.334192        -9.0938
  65   2.0000      -0.330984        -9.0065
  66   2.0000      -0.290562        -7.9066
  67   0.0000       0.023210         0.6316
  68   0.0000       0.063595         1.7305
  69   0.0000       0.110504         3.0070
  70   0.0000       0.120557         3.2805
  71   0.0000       0.123965         3.3733

MULLIKEN ATOMIC CHARGES
-----------------------
   0 S :    0.111502
   1 C :   -0.125441
   2 C :   -0.082205
   3 C :    0.027107
   4 C :   -0.183010
   5 H :    0.019638
   6 C :    0.080194
   7 H :    0.020995
   8 H :    0.028616
   9 C :   -0.065663
  10 H :    0.028317
  11 H :    0.007300
  12 C :   -0.064456
  13 H :    0.044374
  14 H :    0.041132
  15 H :    0.032776
  16 S :    0.097606
  17 C :   -0.052649
  18 C :   -0.030919
  19 C :   -0.041685
  20 C :   -0.138701
  21 H :    0.020107
  22 C :    0.043611
  23 H :    0.020438
  24 H :    0.058519
  25 C :   -0.057020
  26 H :    0.027493
  27 H :    0.030616
  28 C :   -0.088015
  29 H :    0.032506
  30 H :    0.042596
  31 H :    0.037457
  32 H :    0.049512
  33 H :    0.027354
Sum of atomic charges:   -0.0000000

LOEWDIN ATOMIC CHARGES
----------------------
   0 S :    0.405353
   1 C :   -0.203479
   2 C :   -0.067867
   3 C :   -0.068175
   4 C :   -0.181036
   5 H :    0.038872
   6 C :   -0.029671
   7 H :    0.026784
   8 H :    0.030543
   9 C :   -0.045147
  10 H :    0.025885
  11 H :    0.018230
  12 C :   -0.064056
  13 H :    0.032174
  14 H :    0.036263
  15 H :    0.014216
  16 S :    0.374229
  17 C :   -0.150328
  18 C :   -0.070080
  19 C :   -0.057967
  20 C :   -0.188215
  21 H :    0.032941
  22 C :   -0.032240
  23 H :    0.030411
  24 H :    0.046098
  25 C :   -0.048011
  26 H :    0.029268
  27 H :    0.020725
  28 C :   -0.068675
  29 H :    0.025766
  30 H :    0.031571
  31 H :    0.016458
  32 H :    0.024003
  33 H :    0.015157

  Mayer bond orders larger than 0.100000
B(  0-S ,  1-C ) :   1.1520 B(  0-S ,  4-C ) :   1.1612 B(  1-C ,  2-C ) :   1.5763
B(  1-C ,  4-C ) :   0.1089 B(  1-C , 32-H ) :   0.9698 B(  2-C ,  3-C ) :   1.2876
B(  2-C ,  6-C ) :   1.0032 B(  3-C ,  4-C ) :   1.5477 B(  3-C ,  5-H ) :   0.9881
B(  4-C , 20-C ) :   1.0362 B(  6-C ,  7-H ) :   0.9487 B(  6-C ,  8-H ) :   0.9323
B(  6-C ,  9-C ) :   1.0707 B(  9-C , 10-H ) :   0.9542 B(  9-C , 11-H ) :   0.9548
B(  9-C , 12-C ) :   1.0654 B( 12-C , 13-H ) :   0.9764 B( 12-C , 14-H ) :   0.9737
B( 12-C , 15-H ) :   0.9806 B( 16-S , 17-C ) :   1.1477 B( 16-S , 20-C ) :   1.1199
B( 17-C , 18-C ) :   1.6225 B( 17-C , 20-C ) :   0.1028 B( 17-C , 33-H ) :   0.9715
B( 18-C , 19-C ) :   1.2361 B( 18-C , 21-H ) :   0.9886 B( 19-C , 20-C ) :   1.5989
B( 19-C , 22-C ) :   1.0369 B( 22-C , 23-H ) :   0.9337 B( 22-C , 24-H ) :   0.9355
B( 22-C , 25-C ) :   1.0784 B( 25-C , 26-H ) :   0.9530 B( 25-C , 27-H ) :   0.9554
B( 25-C , 28-C ) :   1.0652 B( 28-C , 29-H ) :   0.9759 B( 28-C , 30-H ) :   0.9732
B( 28-C , 31-H ) :   0.9788

Dispersion correction           -0.014139184
FINAL SINGLE POINT ENERGY     -1339.874339059569

DIPOLE MOMENT
-------------
                                X             Y             Z
Electronic contribution:     13.42712      11.89406     -22.24517
Nuclear contribution   :    -13.88526     -11.87479      22.72383
                        -----------------------------------------
Total Dipole Moment    :     -0.45814       0.01927       0.47866
                        -----------------------------------------
Magnitude (a.u.)       :      0.66285
Magnitude (Debye)      :      1.68484

Rotational constants in cm-1:     0.020678     0.007802     0.006086
Rotational constants in MHz :   619.920739   233.893732   182.447477

                             ****ORCA TERMINATED NORMALLY****
TOTAL RUN TIME: 0 days 0 hours 0 minutes 21 seconds 550 msec
