                         Program Version 4.2.1 -  RELEASE  -
|  1> ! wB97X-D3 SP def2-SVP
|  2> %pal
|  3> nprocs 24
|  4> end
|  5>
|  6> * xyz 0 1
|  7> S 	 -43.501 	 -51.4466 	 -74.2148
|  8> C 	 -43.9973 	 -53.1096 	 -74.2914
|  9> C 	 -43.0345 	 -53.9528 	 -73.784
| 10> C 	 -41.852 	 -53.228 	 -73.3781
| 11> C 	 -41.9579 	 -51.8337 	 -73.5013
| 12> H 	 -41.0083 	 -53.5402 	 -72.8473
| 13> C 	 -43.127 	 -55.4903 	 -73.6291
| 14> H 	 -42.0881 	 -55.9419 	 -73.8305
| 15> H 	 -43.7119 	 -55.8203 	 -74.4347
| 16> C 	 -43.7686 	 -56.0107 	 -72.3315
| 17> H 	 -44.8268 	 -55.7791 	 -72.2311
| 18> H 	 -43.801 	 -57.1411 	 -72.3181
| 19> C 	 -43.0276 	 -55.6459 	 -71.0691
| 20> H 	 -43.4674 	 -56.1696 	 -70.2329
| 21> H 	 -41.9333 	 -55.8032 	 -71.0748
| 22> H 	 -43.1753 	 -54.6623 	 -70.7414
| 23> S 	 -41.6319 	 -49.4803 	 -72.0447
| 24> C 	 -40.0567 	 -48.7352 	 -71.9823
| 25> C 	 -39.0742 	 -49.4771 	 -72.597
| 26> C 	 -39.6231 	 -50.6888 	 -73.1451
| 27> C 	 -41.0076 	 -50.8146 	 -73.034
| 28> H 	 -38.023 	 -49.0846 	 -72.5943
| 29> C 	 -38.6752 	 -51.6542 	 -73.7714
| 30> H 	 -38.7603 	 -52.5925 	 -73.2461
| 31> H 	 -37.6849 	 -51.2837 	 -73.6458
| 32> C 	 -38.8707 	 -51.6751 	 -75.3154
| 33> H 	 -38.7939 	 -50.6379 	 -75.7094
| 34> H 	 -39.959 	 -51.9388 	 -75.6015
| 35> C 	 -38.0006 	 -52.7188 	 -76.0067
| 36> H 	 -38.1304 	 -53.7089 	 -75.6478
| 37> H 	 -36.9146 	 -52.6907 	 -75.7907
| 38> H 	 -38.1469 	 -52.7035 	 -77.0497
| 39> H 	 -44.9426 	 -53.422 	 -74.8062
| 40> H 	 -39.9005 	 -47.8129 	 -71.4863
| 41> *
| 42>
| 43>                          ****END OF INPUT****

CARTESIAN COORDINATES (ANGSTROEM)
---------------------------------
  S    -43.501000  -51.446600  -74.214800
  C    -43.997300  -53.109600  -74.291400
  C    -43.034500  -53.952800  -73.784000
  C    -41.852000  -53.228000  -73.378100
  C    -41.957900  -51.833700  -73.501300
  H    -41.008300  -53.540200  -72.847300
  C    -43.127000  -55.490300  -73.629100
  H    -42.088100  -55.941900  -73.830500
  H    -43.711900  -55.820300  -74.434700
  C    -43.768600  -56.010700  -72.331500
  H    -44.826800  -55.779100  -72.231100
  H    -43.801000  -57.141100  -72.318100
  C    -43.027600  -55.645900  -71.069100
  H    -43.467400  -56.169600  -70.232900
  H    -41.933300  -55.803200  -71.074800
  H    -43.175300  -54.662300  -70.741400
  S    -41.631900  -49.480300  -72.044700
  C    -40.056700  -48.735200  -71.982300
  C    -39.074200  -49.477100  -72.597000
  C    -39.623100  -50.688800  -73.145100
  C    -41.007600  -50.814600  -73.034000
  H    -38.023000  -49.084600  -72.594300
  C    -38.675200  -51.654200  -73.771400
  H    -38.760300  -52.592500  -73.246100
  H    -37.684900  -51.283700  -73.645800
  C    -38.870700  -51.675100  -75.315400
  H    -38.793900  -50.637900  -75.709400
  H    -39.959000  -51.938800  -75.601500
  C    -38.000600  -52.718800  -76.006700
  H    -38.130400  -53.708900  -75.647800
  H    -36.914600  -52.690700  -75.790700
  H    -38.146900  -52.703500  -77.049700
  H    -44.942600  -53.422000  -74.806200
  H    -39.900500  -47.812900  -71.486300

 Total Charge           Charge          ....    0
 Multiplicity           Mult            ....    1
 Number of Electrons    NEL             ....  134
 Basis Dimension        Dim             ....  322

ORBITAL ENERGIES
----------------

  NO   OCC          E(Eh)            E(eV)
   0   2.0000     -88.966465     -2420.9006
   1   2.0000     -88.964881     -2420.8575
   2   2.0000     -10.332149      -281.1521
   3   2.0000     -10.329723      -281.0861
   4   2.0000     -10.318152      -280.7712
   5   2.0000     -10.314550      -280.6732
   6   2.0000     -10.306388      -280.4511
   7   2.0000     -10.303759      -280.3795
   8   2.0000     -10.298259      -280.2299
   9   2.0000     -10.297459      -280.2081
  10   2.0000     -10.292095      -280.0621
  11   2.0000     -10.291838      -280.0552
  12   2.0000     -10.290558      -280.0203
  13   2.0000     -10.285955      -279.8951
  14   2.0000     -10.269430      -279.4454
  15   2.0000     -10.267886      -279.4034
  16   2.0000      -8.081401      -219.9061
  17   2.0000      -8.079467      -219.8535
  18   2.0000      -6.039899      -164.3540
  19   2.0000      -6.037959      -164.3012
  20   2.0000      -6.035736      -164.2407
  21   2.0000      -6.034018      -164.1940
  22   2.0000      -6.032307      -164.1474
  23   2.0000      -6.030236      -164.0911
  24   2.0000      -1.004208       -27.3259
  25   2.0000      -0.983425       -26.7603
  26   2.0000      -0.908234       -24.7143
  27   2.0000      -0.907332       -24.6897
  28   2.0000      -0.868606       -23.6360
  29   2.0000      -0.850019       -23.1302
  30   2.0000      -0.844577       -22.9821
  31   2.0000      -0.815132       -22.1809
  32   2.0000      -0.785237       -21.3674
  33   2.0000      -0.772901       -21.0317
  34   2.0000      -0.706111       -19.2143
  35   2.0000      -0.699999       -19.0479
  36   2.0000      -0.689979       -18.7753
  37   2.0000      -0.664060       -18.0700
  38   2.0000      -0.643406       -17.5080
  39   2.0000      -0.612680       -16.6719
  40   2.0000      -0.592561       -16.1244
  41   2.0000      -0.568520       -15.4702
  42   2.0000      -0.559016       -15.2116
  43   2.0000      -0.548690       -14.9306
  44   2.0000      -0.541810       -14.7434
  45   2.0000      -0.531552       -14.4643
  46   2.0000      -0.513655       -13.9773
  47   2.0000      -0.508985       -13.8502
  48   2.0000      -0.501799       -13.6547
  49   2.0000      -0.499307       -13.5868
  50   2.0000      -0.491995       -13.3879
  51   2.0000      -0.478171       -13.0117
  52   2.0000      -0.474057       -12.8998
  53   2.0000      -0.468202       -12.7404
  54   2.0000      -0.455999       -12.4084
  55   2.0000      -0.452414       -12.3108
  56   2.0000      -0.440653       -11.9908
  57   2.0000      -0.435439       -11.8489
  58   2.0000      -0.432821       -11.7777
  59   2.0000      -0.427038       -11.6203
  60   2.0000      -0.419505       -11.4153
  61   2.0000      -0.407379       -11.0853
  62   2.0000      -0.403919       -10.9912
  63   2.0000      -0.349424        -9.5083
  64   2.0000      -0.331694        -9.0258
  65   2.0000      -0.329558        -8.9677
  66   2.0000      -0.290322        -7.9001
  67   0.0000       0.028589         0.7779
  68   0.0000       0.071009         1.9323
  69   0.0000       0.113752         3.0953
  70   0.0000       0.117919         3.2087
  71   0.0000       0.136947         3.7265

MULLIKEN ATOMIC CHARGES
-----------------------
   0 S :    0.114001
   1 C :   -0.147570
   2 C :   -0.078181
   3 C :    0.051314
   4 C :   -0.169734
   5 H :   -0.014441
   6 C :    0.081756
   7 H :    0.042166
   8 H :    0.007158
   9 C :   -0.071485
  10 H :    0.027693
  11 H :    0.033077
  12 C :   -0.035514
  13 H :    0.018483
  14 H :    0.031878
  15 H :    0.021774
  16 S :    0.101822
  17 C :   -0.083623
  18 C :   -0.046885
  19 C :   -0.063010
  20 C :   -0.144164
  21 H :    0.044385
  22 C :    0.110510
  23 H :    0.029700
  24 H :    0.003531
  25 C :   -0.124366
  26 H :    0.036180
  27 H :    0.051706
  28 C :    0.004610
  29 H :    0.009102
  30 H :    0.013028
  31 H :    0.030854
  32 H :    0.069616
  33 H :    0.044625
Sum of atomic charges:    0.0000000

LOEWDIN ATOMIC CHARGES
----------------------
   0 S :    0.415279
   1 C :   -0.209564
   2 C :   -0.063104
   3 C :   -0.059477
   4 C :   -0.196167
   5 H :    0.019412
   6 C :   -0.030579
   7 H :    0.041084
   8 H :    0.022115
   9 C :   -0.043748
  10 H :    0.026181
  11 H :    0.030896
  12 C :   -0.069270
  13 H :    0.027040
  14 H :    0.026822
  15 H :    0.018416
  16 S :    0.398098
  17 C :   -0.175599
  18 C :   -0.080054
  19 C :   -0.051688
  20 C :   -0.198430
  21 H :    0.045411
  22 C :   -0.028319
  23 H :    0.028072
  24 H :    0.025770
  25 C :   -0.041505
  26 H :    0.028845
  27 H :    0.034467
  28 C :   -0.069789
  29 H :    0.021555
  30 H :    0.024875
  31 H :    0.022106
  32 H :    0.040229
  33 H :    0.020620

  Mayer bond orders larger than 0.100000
B(  0-S ,  1-C ) :   1.1446 B(  0-S ,  4-C ) :   1.1595 B(  1-C ,  2-C ) :   1.6092
B(  1-C , 32-H ) :   0.9623 B(  2-C ,  3-C ) :   1.2369 B(  2-C ,  6-C ) :   1.0074
B(  3-C ,  4-C ) :   1.5631 B(  3-C ,  5-H ) :   1.0009 B(  4-C , 20-C ) :   1.0501
B(  6-C ,  7-H ) :   0.9475 B(  6-C ,  8-H ) :   0.9339 B(  6-C ,  9-C ) :   1.0790
B(  9-C , 10-H ) :   0.9517 B(  9-C , 11-H ) :   0.9560 B(  9-C , 12-C ) :   1.0853
B( 12-C , 13-H ) :   0.9678 B( 12-C , 14-H ) :   0.9747 B( 12-C , 15-H ) :   0.9707
B( 16-S , 17-C ) :   1.1651 B( 16-S , 20-C ) :   1.1286 B( 17-C , 18-C ) :   1.6110
B( 17-C , 33-H ) :   0.9688 B( 18-C , 19-C ) :   1.2409 B( 18-C , 21-H ) :   0.9833
B( 19-C , 20-C ) :   1.5909 B( 19-C , 22-C ) :   1.0499 B( 22-C , 23-H ) :   0.9329
B( 22-C , 24-H ) :   0.9267 B( 22-C , 25-C ) :   1.0530 B( 25-C , 26-H ) :   0.9550
B( 25-C , 27-H ) :   0.9574 B( 25-C , 28-C ) :   1.0783 B( 28-C , 29-H ) :   0.9685
B( 28-C , 30-H ) :   0.9688 B( 28-C , 31-H ) :   0.9737

Dispersion correction           -0.014698182
FINAL SINGLE POINT ENERGY     -1339.879994156539

DIPOLE MOMENT
-------------
                                X             Y             Z
Electronic contribution:    -10.56386      22.13215       2.84860
Nuclear contribution   :     10.89196     -22.56037      -2.80737
                        -----------------------------------------
Total Dipole Moment    :      0.32810      -0.42822       0.04123
                        -----------------------------------------
Magnitude (a.u.)       :      0.54104
Magnitude (Debye)      :      1.37521

Rotational constants in cm-1:     0.017522     0.008945     0.007506
Rotational constants in MHz :   525.306039   268.163766   225.025707

                             ****ORCA TERMINATED NORMALLY****
TOTAL RUN TIME: 0 days 0 hours 0 minutes 21 seconds 645 msec
