                         Program Version 4.2.1 -  RELEASE  -
|  1> ! wB97X-D3 SP def2-SVP
|  2> %pal
|  3> nprocs 24
|  4> end
|  5>
|  6> * xyz 0 1
|  7> S 	 -121.301 	 49.8418 	 -27.7065
|  8> C 	 -121.1 	 48.3652 	 -28.654
|  9> C 	 -120.842 	 48.7163 	 -29.9319
| 10> C 	 -120.736 	 50.1253 	 -30.1947
| 11> C 	 -120.925 	 50.864 	 -29.0506
| 12> H 	 -120.519 	 50.5594 	 -31.1477
| 13> C 	 -120.332 	 47.68 	 -30.9108
| 14> H 	 -120.373 	 46.717 	 -30.3535
| 15> H 	 -119.233 	 47.8988 	 -31.1124
| 16> C 	 -121.209 	 47.6682 	 -32.1711
| 17> H 	 -121.238 	 48.5509 	 -32.7593
| 18> H 	 -120.785 	 47.0387 	 -32.908
| 19> C 	 -122.662 	 47.1398 	 -31.9338
| 20> H 	 -123.211 	 48.0014 	 -31.7163
| 21> H 	 -123.068 	 46.7473 	 -32.8459
| 22> H 	 -122.849 	 46.4103 	 -31.1629
| 23> S 	 -119.158 	 52.9952 	 -28.9256
| 24> C 	 -119.746 	 54.6332 	 -28.7463
| 25> C 	 -121.095 	 54.6492 	 -28.8947
| 26> C 	 -121.67 	 53.3347 	 -28.9567
| 27> C 	 -120.761 	 52.3358 	 -29.0639
| 28> H 	 -121.719 	 55.5717 	 -28.7683
| 29> C 	 -123.154 	 53.1312 	 -28.8508
| 30> H 	 -123.34 	 53.6261 	 -27.8854
| 31> H 	 -123.251 	 52.0664 	 -28.6846
| 32> C 	 -124.006 	 53.7668 	 -29.9455
| 33> H 	 -123.903 	 54.8213 	 -29.9503
| 34> H 	 -125.02 	 53.4794 	 -29.8226
| 35> C 	 -123.645 	 53.3672 	 -31.3427
| 36> H 	 -123.415 	 52.2876 	 -31.3643
| 37> H 	 -122.73 	 53.7435 	 -31.664
| 38> H 	 -124.462 	 53.6815 	 -31.9652
| 39> H 	 -121.053 	 47.3771 	 -28.1439
| 40> H 	 -119.155 	 55.4024 	 -28.4683
| 41> *
| 42>
| 43>                          ****END OF INPUT****

CARTESIAN COORDINATES (ANGSTROEM)
---------------------------------
  S    -121.301000   49.841800  -27.706500
  C    -121.100000   48.365200  -28.654000
  C    -120.842000   48.716300  -29.931900
  C    -120.736000   50.125300  -30.194700
  C    -120.925000   50.864000  -29.050600
  H    -120.519000   50.559400  -31.147700
  C    -120.332000   47.680000  -30.910800
  H    -120.373000   46.717000  -30.353500
  H    -119.233000   47.898800  -31.112400
  C    -121.209000   47.668200  -32.171100
  H    -121.238000   48.550900  -32.759300
  H    -120.785000   47.038700  -32.908000
  C    -122.662000   47.139800  -31.933800
  H    -123.211000   48.001400  -31.716300
  H    -123.068000   46.747300  -32.845900
  H    -122.849000   46.410300  -31.162900
  S    -119.158000   52.995200  -28.925600
  C    -119.746000   54.633200  -28.746300
  C    -121.095000   54.649200  -28.894700
  C    -121.670000   53.334700  -28.956700
  C    -120.761000   52.335800  -29.063900
  H    -121.719000   55.571700  -28.768300
  C    -123.154000   53.131200  -28.850800
  H    -123.340000   53.626100  -27.885400
  H    -123.251000   52.066400  -28.684600
  C    -124.006000   53.766800  -29.945500
  H    -123.903000   54.821300  -29.950300
  H    -125.020000   53.479400  -29.822600
  C    -123.645000   53.367200  -31.342700
  H    -123.415000   52.287600  -31.364300
  H    -122.730000   53.743500  -31.664000
  H    -124.462000   53.681500  -31.965200
  H    -121.053000   47.377100  -28.143900
  H    -119.155000   55.402400  -28.468300

 Total Charge           Charge          ....    0
 Multiplicity           Mult            ....    1
 Number of Electrons    NEL             ....  134
 Basis Dimension        Dim             ....  322

ORBITAL ENERGIES
----------------

  NO   OCC          E(Eh)            E(eV)
   0   2.0000     -88.964359     -2420.8433
   1   2.0000     -88.959248     -2420.7042
   2   2.0000     -10.330133      -281.0972
   3   2.0000     -10.320048      -280.8228
   4   2.0000     -10.316230      -280.7189
   5   2.0000     -10.311181      -280.5815
   6   2.0000     -10.298004      -280.2229
   7   2.0000     -10.296166      -280.1729
   8   2.0000     -10.295323      -280.1500
   9   2.0000     -10.294313      -280.1225
  10   2.0000     -10.292327      -280.0685
  11   2.0000     -10.284443      -279.8539
  12   2.0000     -10.280898      -279.7575
  13   2.0000     -10.275612      -279.6136
  14   2.0000     -10.267945      -279.4050
  15   2.0000     -10.262596      -279.2594
  16   2.0000      -8.079195      -219.8461
  17   2.0000      -8.074681      -219.7232
  18   2.0000      -6.037774      -164.2962
  19   2.0000      -6.033632      -164.1835
  20   2.0000      -6.033269      -164.1736
  21   2.0000      -6.029912      -164.0823
  22   2.0000      -6.029083      -164.0597
  23   2.0000      -6.025312      -163.9571
  24   2.0000      -1.010630       -27.5006
  25   2.0000      -0.990325       -26.9481
  26   2.0000      -0.914700       -24.8903
  27   2.0000      -0.909762       -24.7559
  28   2.0000      -0.872030       -23.7291
  29   2.0000      -0.851543       -23.1717
  30   2.0000      -0.844698       -22.9854
  31   2.0000      -0.819863       -22.3096
  32   2.0000      -0.781182       -21.2570
  33   2.0000      -0.774302       -21.0698
  34   2.0000      -0.713083       -19.4040
  35   2.0000      -0.702318       -19.1111
  36   2.0000      -0.696121       -18.9424
  37   2.0000      -0.662906       -18.0386
  38   2.0000      -0.643197       -17.5023
  39   2.0000      -0.615343       -16.7443
  40   2.0000      -0.598795       -16.2940
  41   2.0000      -0.566927       -15.4269
  42   2.0000      -0.559070       -15.2131
  43   2.0000      -0.552838       -15.0435
  44   2.0000      -0.548739       -14.9319
  45   2.0000      -0.537075       -14.6146
  46   2.0000      -0.526934       -14.3386
  47   2.0000      -0.519489       -14.1360
  48   2.0000      -0.506568       -13.7844
  49   2.0000      -0.496667       -13.5150
  50   2.0000      -0.489514       -13.3203
  51   2.0000      -0.480418       -13.0728
  52   2.0000      -0.470062       -12.7910
  53   2.0000      -0.463971       -12.6253
  54   2.0000      -0.457520       -12.4498
  55   2.0000      -0.449758       -12.2386
  56   2.0000      -0.444681       -12.1004
  57   2.0000      -0.436855       -11.8874
  58   2.0000      -0.430771       -11.7219
  59   2.0000      -0.429342       -11.6830
  60   2.0000      -0.416385       -11.3304
  61   2.0000      -0.410429       -11.1684
  62   2.0000      -0.401664       -10.9298
  63   2.0000      -0.336739        -9.1631
  64   2.0000      -0.331636        -9.0243
  65   2.0000      -0.322759        -8.7827
  66   2.0000      -0.313129        -8.5207
  67   0.0000       0.051769         1.4087
  68   0.0000       0.056107         1.5267
  69   0.0000       0.115569         3.1448
  70   0.0000       0.122091         3.3223
  71   0.0000       0.131507         3.5785

MULLIKEN ATOMIC CHARGES
-----------------------
   0 S :    0.107902
   1 C :   -0.165476
   2 C :   -0.048647
   3 C :    0.035886
   4 C :   -0.152301
   5 H :    0.011832
   6 C :    0.036089
   7 H :    0.022214
   8 H :    0.055946
   9 C :   -0.053275
  10 H :    0.016720
  11 H :    0.007706
  12 C :   -0.030714
  13 H :    0.025406
  14 H :    0.022834
  15 H :    0.030743
  16 S :    0.095143
  17 C :   -0.052077
  18 C :   -0.029157
  19 C :   -0.087742
  20 C :   -0.172345
  21 H :    0.035444
  22 C :    0.091409
  23 H :    0.032045
  24 H :    0.017511
  25 C :   -0.034681
  26 H :    0.017158
  27 H :    0.024892
  28 C :   -0.026062
  29 H :    0.019737
  30 H :    0.015406
  31 H :    0.035575
  32 H :    0.074906
  33 H :    0.019970
Sum of atomic charges:    0.0000000

LOEWDIN ATOMIC CHARGES
----------------------
   0 S :    0.400048
   1 C :   -0.196984
   2 C :   -0.070716
   3 C :   -0.056910
   4 C :   -0.197066
   5 H :    0.029919
   6 C :   -0.028458
   7 H :    0.030694
   8 H :    0.040655
   9 C :   -0.041284
  10 H :    0.021124
  11 H :    0.016645
  12 C :   -0.057010
  13 H :    0.020420
  14 H :    0.024645
  15 H :    0.023919
  16 S :    0.402519
  17 C :   -0.157335
  18 C :   -0.076636
  19 C :   -0.059416
  20 C :   -0.209298
  21 H :    0.038595
  22 C :   -0.030142
  23 H :    0.037870
  24 H :    0.025709
  25 C :   -0.034263
  26 H :    0.019397
  27 H :    0.023737
  28 C :   -0.058318
  29 H :    0.027247
  30 H :    0.014561
  31 H :    0.026869
  32 H :    0.040674
  33 H :    0.008588

  Mayer bond orders larger than 0.100000
B(  0-S ,  1-C ) :   1.1198 B(  0-S ,  4-C ) :   1.1524 B(  1-C ,  2-C ) :   1.6239
B(  1-C , 32-H ) :   0.9660 B(  2-C ,  3-C ) :   1.2122 B(  2-C ,  6-C ) :   1.0216
B(  3-C ,  4-C ) :   1.5847 B(  3-C ,  5-H ) :   1.0009 B(  4-C , 20-C ) :   0.9974
B(  6-C ,  7-H ) :   0.9486 B(  6-C ,  8-H ) :   0.9468 B(  6-C ,  9-C ) :   1.0605
B(  9-C , 10-H ) :   0.9591 B(  9-C , 11-H ) :   0.9581 B(  9-C , 12-C ) :   1.0591
B( 12-C , 13-H ) :   0.9775 B( 12-C , 14-H ) :   0.9762 B( 12-C , 15-H ) :   0.9808
B( 16-S , 17-C ) :   1.1582 B( 16-S , 20-C ) :   1.1290 B( 17-C , 18-C ) :   1.6104
B( 17-C , 33-H ) :   0.9850 B( 18-C , 19-C ) :   1.2252 B( 18-C , 21-H ) :   0.9807
B( 19-C , 20-C ) :   1.6395 B( 19-C , 22-C ) :   1.0334 B( 22-C , 23-H ) :   0.9298
B( 22-C , 24-H ) :   0.9265 B( 22-C , 25-C ) :   1.0794 B( 25-C , 26-H ) :   0.9516
B( 25-C , 27-H ) :   0.9558 B( 25-C , 28-C ) :   1.0844 B( 28-C , 29-H ) :   0.9736
B( 28-C , 30-H ) :   0.9678 B( 28-C , 31-H ) :   0.9736

Dispersion correction           -0.015178886
FINAL SINGLE POINT ENERGY     -1339.868448290014

DIPOLE MOMENT
-------------
                                X             Y             Z
Electronic contribution:     15.37249       6.74951      17.52091
Nuclear contribution   :    -15.56283      -6.76037     -17.77923
                        -----------------------------------------
Total Dipole Moment    :     -0.19035      -0.01086      -0.25833
                        -----------------------------------------
Magnitude (a.u.)       :      0.32106
Magnitude (Debye)      :      0.81608

Rotational constants in cm-1:     0.019907     0.008737     0.007500
Rotational constants in MHz :   596.790732   261.924257   224.835430

                             ****ORCA TERMINATED NORMALLY****
TOTAL RUN TIME: 0 days 0 hours 0 minutes 22 seconds 152 msec
