                         Program Version 4.2.1 -  RELEASE  -
|  1> ! wB97X-D3 SP def2-SVP
|  2> %pal
|  3> nprocs 24
|  4> end
|  5>
|  6> * xyz 0 1
|  7> S 	 -0.88697 	 -23.0038 	 -117.775
|  8> C 	 0.646301 	 -23.789 	 -117.934
|  9> C 	 1.33086 	 -23.6984 	 -116.704
| 10> C 	 0.648679 	 -22.8747 	 -115.765
| 11> C 	 -0.559629 	 -22.4544 	 -116.178
| 12> H 	 0.990168 	 -22.5147 	 -114.814
| 13> C 	 2.71901 	 -24.2231 	 -116.353
| 14> H 	 2.82135 	 -25.221 	 -116.782
| 15> H 	 2.74796 	 -24.2965 	 -115.207
| 16> C 	 3.86441 	 -23.2312 	 -116.736
| 17> H 	 3.62797 	 -22.2043 	 -116.429
| 18> H 	 4.79668 	 -23.6034 	 -116.229
| 19> C 	 4.01854 	 -23.019 	 -118.287
| 20> H 	 4.99952 	 -22.4954 	 -118.344
| 21> H 	 3.93935 	 -24.0297 	 -118.701
| 22> H 	 3.23443 	 -22.4365 	 -118.777
| 23> S 	 -2.43186 	 -20.3281 	 -116.435
| 24> C 	 -3.18819 	 -19.584 	 -115.044
| 25> C 	 -2.89163 	 -20.3224 	 -113.892
| 26> C 	 -1.98181 	 -21.4379 	 -114.119
| 27> C 	 -1.61607 	 -21.6268 	 -115.476
| 28> H 	 -3.29531 	 -20.0083 	 -112.889
| 29> C 	 -1.53806 	 -22.3186 	 -112.989
| 30> H 	 -1.05963 	 -23.2018 	 -113.401
| 31> H 	 -2.36323 	 -22.8478 	 -112.579
| 32> C 	 -0.64664 	 -21.7556 	 -111.92
| 33> H 	 -1.17751 	 -21.0131 	 -111.409
| 34> H 	 0.211466 	 -21.221 	 -112.37
| 35> C 	 -0.117623 	 -22.8057 	 -110.943
| 36> H 	 -0.884696 	 -23.2433 	 -110.318
| 37> H 	 0.577397 	 -22.2343 	 -110.246
| 38> H 	 0.387068 	 -23.6558 	 -111.434
| 39> H 	 1.05981 	 -24.1269 	 -118.809
| 40> H 	 -3.81878 	 -18.7419 	 -115.122
| 41> *
| 42>
| 43>                          ****END OF INPUT****

CARTESIAN COORDINATES (ANGSTROEM)
---------------------------------
  S     -0.886970  -23.003800  -117.775000
  C      0.646301  -23.789000  -117.934000
  C      1.330860  -23.698400  -116.704000
  C      0.648679  -22.874700  -115.765000
  C     -0.559629  -22.454400  -116.178000
  H      0.990168  -22.514700  -114.814000
  C      2.719010  -24.223100  -116.353000
  H      2.821350  -25.221000  -116.782000
  H      2.747960  -24.296500  -115.207000
  C      3.864410  -23.231200  -116.736000
  H      3.627970  -22.204300  -116.429000
  H      4.796680  -23.603400  -116.229000
  C      4.018540  -23.019000  -118.287000
  H      4.999520  -22.495400  -118.344000
  H      3.939350  -24.029700  -118.701000
  H      3.234430  -22.436500  -118.777000
  S     -2.431860  -20.328100  -116.435000
  C     -3.188190  -19.584000  -115.044000
  C     -2.891630  -20.322400  -113.892000
  C     -1.981810  -21.437900  -114.119000
  C     -1.616070  -21.626800  -115.476000
  H     -3.295310  -20.008300  -112.889000
  C     -1.538060  -22.318600  -112.989000
  H     -1.059630  -23.201800  -113.401000
  H     -2.363230  -22.847800  -112.579000
  C     -0.646640  -21.755600  -111.920000
  H     -1.177510  -21.013100  -111.409000
  H      0.211466  -21.221000  -112.370000
  C     -0.117623  -22.805700  -110.943000
  H     -0.884696  -23.243300  -110.318000
  H      0.577397  -22.234300  -110.246000
  H      0.387068  -23.655800  -111.434000
  H      1.059810  -24.126900  -118.809000
  H     -3.818780  -18.741900  -115.122000

 Total Charge           Charge          ....    0
 Multiplicity           Mult            ....    1
 Number of Electrons    NEL             ....  134
 Basis Dimension        Dim             ....  322

ORBITAL ENERGIES
----------------

  NO   OCC          E(Eh)            E(eV)
   0   2.0000     -88.964697     -2420.8525
   1   2.0000     -88.964243     -2420.8401
   2   2.0000     -10.340553      -281.3808
   3   2.0000     -10.330315      -281.1022
   4   2.0000     -10.322938      -280.9014
   5   2.0000     -10.313002      -280.6311
   6   2.0000     -10.311187      -280.5817
   7   2.0000     -10.305358      -280.4230
   8   2.0000     -10.304464      -280.3987
   9   2.0000     -10.300075      -280.2793
  10   2.0000     -10.294825      -280.1364
  11   2.0000     -10.288666      -279.9688
  12   2.0000     -10.285757      -279.8897
  13   2.0000     -10.283277      -279.8222
  14   2.0000     -10.282423      -279.7990
  15   2.0000     -10.282187      -279.7925
  16   2.0000      -8.079936      -219.8662
  17   2.0000      -8.078633      -219.8308
  18   2.0000      -6.038408      -164.3134
  19   2.0000      -6.037255      -164.2821
  20   2.0000      -6.034164      -164.1980
  21   2.0000      -6.033075      -164.1683
  22   2.0000      -6.030817      -164.1069
  23   2.0000      -6.029481      -164.0705
  24   2.0000      -1.007760       -27.4226
  25   2.0000      -0.979930       -26.6652
  26   2.0000      -0.915151       -24.9025
  27   2.0000      -0.905545       -24.6411
  28   2.0000      -0.863782       -23.5047
  29   2.0000      -0.850751       -23.1501
  30   2.0000      -0.845317       -23.0022
  31   2.0000      -0.814337       -22.1592
  32   2.0000      -0.780792       -21.2464
  33   2.0000      -0.773123       -21.0377
  34   2.0000      -0.707729       -19.2583
  35   2.0000      -0.698833       -19.0162
  36   2.0000      -0.693673       -18.8758
  37   2.0000      -0.656707       -17.8699
  38   2.0000      -0.648701       -17.6521
  39   2.0000      -0.622356       -16.9352
  40   2.0000      -0.601396       -16.3648
  41   2.0000      -0.567434       -15.4407
  42   2.0000      -0.565177       -15.3792
  43   2.0000      -0.541954       -14.7473
  44   2.0000      -0.537776       -14.6336
  45   2.0000      -0.531737       -14.4693
  46   2.0000      -0.528195       -14.3729
  47   2.0000      -0.515451       -14.0261
  48   2.0000      -0.504876       -13.7384
  49   2.0000      -0.502228       -13.6663
  50   2.0000      -0.487831       -13.2746
  51   2.0000      -0.484372       -13.1804
  52   2.0000      -0.470317       -12.7980
  53   2.0000      -0.461458       -12.5569
  54   2.0000      -0.459725       -12.5097
  55   2.0000      -0.449946       -12.2437
  56   2.0000      -0.443851       -12.0778
  57   2.0000      -0.441023       -12.0008
  58   2.0000      -0.437865       -11.9149
  59   2.0000      -0.420956       -11.4548
  60   2.0000      -0.416662       -11.3380
  61   2.0000      -0.409651       -11.1472
  62   2.0000      -0.403923       -10.9913
  63   2.0000      -0.351910        -9.5760
  64   2.0000      -0.330605        -8.9962
  65   2.0000      -0.328016        -8.9258
  66   2.0000      -0.293008        -7.9731
  67   0.0000       0.025949         0.7061
  68   0.0000       0.072883         1.9832
  69   0.0000       0.107405         2.9227
  70   0.0000       0.119784         3.2595
  71   0.0000       0.125916         3.4263

MULLIKEN ATOMIC CHARGES
-----------------------
   0 S :    0.106405
   1 C :   -0.082569
   2 C :   -0.102422
   3 C :    0.016188
   4 C :   -0.120767
   5 H :   -0.000903
   6 C :    0.032745
   7 H :    0.038036
   8 H :    0.037616
   9 C :   -0.086513
  10 H :    0.033814
  11 H :    0.048318
  12 C :   -0.079376
  13 H :    0.051695
  14 H :    0.026695
  15 H :    0.051065
  16 S :    0.079753
  17 C :   -0.079738
  18 C :   -0.037257
  19 C :   -0.051860
  20 C :   -0.109708
  21 H :    0.041780
  22 C :    0.059867
  23 H :   -0.001480
  24 H :    0.015159
  25 C :   -0.042259
  26 H :    0.010335
  27 H :    0.028695
  28 C :   -0.067140
  29 H :    0.029783
  30 H :    0.044806
  31 H :    0.038665
  32 H :    0.016823
  33 H :    0.053748
Sum of atomic charges:   -0.0000000

LOEWDIN ATOMIC CHARGES
----------------------
   0 S :    0.426271
   1 C :   -0.195074
   2 C :   -0.057552
   3 C :   -0.070041
   4 C :   -0.194457
   5 H :    0.030400
   6 C :   -0.039044
   7 H :    0.028839
   8 H :    0.039311
   9 C :   -0.042655
  10 H :    0.026373
  11 H :    0.029114
  12 C :   -0.071740
  13 H :    0.035623
  14 H :    0.019881
  15 H :    0.026353
  16 S :    0.381579
  17 C :   -0.172935
  18 C :   -0.078180
  19 C :   -0.050982
  20 C :   -0.182983
  21 H :    0.040074
  22 C :   -0.044163
  23 H :    0.028200
  24 H :    0.030237
  25 C :   -0.038098
  26 H :    0.014842
  27 H :    0.026959
  28 C :   -0.065625
  29 H :    0.022243
  30 H :    0.036456
  31 H :    0.026681
  32 H :    0.010325
  33 H :    0.023767

  Mayer bond orders larger than 0.100000
B(  0-S ,  1-C ) :   1.1471 B(  0-S ,  4-C ) :   1.1687 B(  1-C ,  2-C ) :   1.5759
B(  1-C , 32-H ) :   0.9870 B(  2-C ,  3-C ) :   1.2422 B(  2-C ,  6-C ) :   1.0222
B(  3-C ,  4-C ) :   1.5962 B(  3-C ,  5-H ) :   0.9988 B(  4-C , 20-C ) :   0.9898
B(  6-C ,  7-H ) :   0.9443 B(  6-C ,  8-H ) :   0.9425 B(  6-C ,  9-C ) :   1.0661
B(  9-C , 10-H ) :   0.9571 B(  9-C , 11-H ) :   0.9607 B(  9-C , 12-C ) :   1.0572
B( 12-C , 13-H ) :   0.9741 B( 12-C , 14-H ) :   0.9798 B( 12-C , 15-H ) :   0.9748
B( 16-S , 17-C ) :   1.1658 B( 16-S , 20-C ) :   1.1264 B( 17-C , 18-C ) :   1.5853
B( 17-C , 20-C ) :   0.1011 B( 17-C , 33-H ) :   0.9754 B( 18-C , 19-C ) :   1.2411
B( 18-C , 21-H ) :   0.9828 B( 19-C , 20-C ) :   1.5960 B( 19-C , 22-C ) :   1.0521
B( 22-C , 23-H ) :   0.9317 B( 22-C , 24-H ) :   0.9248 B( 22-C , 25-C ) :   1.0593
B( 25-C , 26-H ) :   0.9494 B( 25-C , 27-H ) :   0.9528 B( 25-C , 28-C ) :   1.0868
B( 28-C , 29-H ) :   0.9740 B( 28-C , 30-H ) :   0.9745 B( 28-C , 31-H ) :   0.9749

Dispersion correction           -0.014262447
FINAL SINGLE POINT ENERGY     -1339.873563797539

DIPOLE MOMENT
-------------
                                X             Y             Z
Electronic contribution:    -20.92995       6.98148     -15.82919
Nuclear contribution   :     21.30939      -6.96726      16.42598
                        -----------------------------------------
Total Dipole Moment    :      0.37943       0.01422       0.59679
                        -----------------------------------------
Magnitude (a.u.)       :      0.70734
Magnitude (Debye)      :      1.79792

Rotational constants in cm-1:     0.017629     0.008839     0.006542
Rotational constants in MHz :   528.510432   264.978879   196.121866

                             ****ORCA TERMINATED NORMALLY****
TOTAL RUN TIME: 0 days 0 hours 0 minutes 21 seconds 435 msec
