                         Program Version 4.2.1 -  RELEASE  -
|  1> ! wB97X-D3 SP def2-SVP
|  2> %pal
|  3> nprocs 24
|  4> end
|  5>
|  6> * xyz 0 1
|  7> S 	 -59.3909 	 10.532 	 23.3973
|  8> C 	 -59.9914 	 11.5471 	 22.0619
|  9> C 	 -60.6751 	 10.7947 	 21.0936
| 10> C 	 -60.9183 	 9.42223 	 21.5111
| 11> C 	 -60.4142 	 9.19061 	 22.8182
| 12> H 	 -61.5418 	 8.56889 	 21.0699
| 13> C 	 -61.1244 	 11.2634 	 19.7032
| 14> H 	 -60.7232 	 12.2292 	 19.6235
| 15> H 	 -62.2355 	 11.3938 	 19.7323
| 16> C 	 -60.7592 	 10.4875 	 18.4204
| 17> H 	 -59.6711 	 10.6505 	 18.3152
| 18> H 	 -61.0697 	 9.43849 	 18.4569
| 19> C 	 -61.2784 	 11.2742 	 17.1878
| 20> H 	 -60.8587 	 10.8178 	 16.2507
| 21> H 	 -62.401 	 11.3261 	 17.3312
| 22> H 	 -60.8833 	 12.3461 	 17.1755
| 23> S 	 -61.564 	 8.11362 	 25.0323
| 24> C 	 -61.5928 	 6.37527 	 25.1464
| 25> C 	 -60.6975 	 5.74081 	 24.2646
| 26> C 	 -60.2568 	 6.65136 	 23.3022
| 27> C 	 -60.6174 	 7.97158 	 23.6177
| 28> H 	 -60.734 	 4.68995 	 24.2895
| 29> C 	 -59.6633 	 6.22035 	 22.0317
| 30> H 	 -58.6657 	 5.8228 	 22.2832
| 31> H 	 -59.6236 	 7.1279 	 21.3419
| 32> C 	 -60.436 	 5.18001 	 21.1868
| 33> H 	 -61.4564 	 5.65176 	 21.0016
| 34> H 	 -60.6614 	 4.28197 	 21.8073
| 35> C 	 -59.8481 	 4.88805 	 19.8196
| 36> H 	 -58.7341 	 4.69471 	 19.9633
| 37> H 	 -59.9674 	 5.77586 	 19.1846
| 38> H 	 -60.4204 	 3.98449 	 19.4676
| 39> H 	 -59.7166 	 12.6217 	 22.0866
| 40> H 	 -62.126 	 5.89436 	 25.8946
| 41> *
| 42>
| 43>                          ****END OF INPUT****

CARTESIAN COORDINATES (ANGSTROEM)
---------------------------------
  S    -59.390900   10.532000   23.397300
  C    -59.991400   11.547100   22.061900
  C    -60.675100   10.794700   21.093600
  C    -60.918300    9.422230   21.511100
  C    -60.414200    9.190610   22.818200
  H    -61.541800    8.568890   21.069900
  C    -61.124400   11.263400   19.703200
  H    -60.723200   12.229200   19.623500
  H    -62.235500   11.393800   19.732300
  C    -60.759200   10.487500   18.420400
  H    -59.671100   10.650500   18.315200
  H    -61.069700    9.438490   18.456900
  C    -61.278400   11.274200   17.187800
  H    -60.858700   10.817800   16.250700
  H    -62.401000   11.326100   17.331200
  H    -60.883300   12.346100   17.175500
  S    -61.564000    8.113620   25.032300
  C    -61.592800    6.375270   25.146400
  C    -60.697500    5.740810   24.264600
  C    -60.256800    6.651360   23.302200
  C    -60.617400    7.971580   23.617700
  H    -60.734000    4.689950   24.289500
  C    -59.663300    6.220350   22.031700
  H    -58.665700    5.822800   22.283200
  H    -59.623600    7.127900   21.341900
  C    -60.436000    5.180010   21.186800
  H    -61.456400    5.651760   21.001600
  H    -60.661400    4.281970   21.807300
  C    -59.848100    4.888050   19.819600
  H    -58.734100    4.694710   19.963300
  H    -59.967400    5.775860   19.184600
  H    -60.420400    3.984490   19.467600
  H    -59.716600   12.621700   22.086600
  H    -62.126000    5.894360   25.894600

 Total Charge           Charge          ....    0
 Multiplicity           Mult            ....    1
 Number of Electrons    NEL             ....  134
 Basis Dimension        Dim             ....  322

ORBITAL ENERGIES
----------------

  NO   OCC          E(Eh)            E(eV)
   0   2.0000     -88.968208     -2420.9480
   1   2.0000     -88.965003     -2420.8608
   2   2.0000     -10.332345      -281.1574
   3   2.0000     -10.321452      -280.8610
   4   2.0000     -10.319441      -280.8063
   5   2.0000     -10.313740      -280.6511
   6   2.0000     -10.311759      -280.5972
   7   2.0000     -10.305139      -280.4171
   8   2.0000     -10.299654      -280.2678
   9   2.0000     -10.295217      -280.1471
  10   2.0000     -10.293432      -280.0985
  11   2.0000     -10.292240      -280.0661
  12   2.0000     -10.291452      -280.0446
  13   2.0000     -10.291439      -280.0443
  14   2.0000     -10.289857      -280.0012
  15   2.0000     -10.289811      -280.0000
  16   2.0000      -8.083785      -219.9710
  17   2.0000      -8.078834      -219.8363
  18   2.0000      -6.041908      -164.4087
  19   2.0000      -6.038213      -164.3081
  20   2.0000      -6.037330      -164.2841
  21   2.0000      -6.034862      -164.2169
  22   2.0000      -6.033656      -164.1841
  23   2.0000      -6.029495      -164.0709
  24   2.0000      -1.006482       -27.3878
  25   2.0000      -0.974927       -26.5291
  26   2.0000      -0.912120       -24.8201
  27   2.0000      -0.907981       -24.7074
  28   2.0000      -0.865849       -23.5609
  29   2.0000      -0.857148       -23.3242
  30   2.0000      -0.842574       -22.9276
  31   2.0000      -0.809233       -22.0203
  32   2.0000      -0.777501       -21.1569
  33   2.0000      -0.763164       -20.7667
  34   2.0000      -0.700556       -19.0631
  35   2.0000      -0.691979       -18.8297
  36   2.0000      -0.688122       -18.7248
  37   2.0000      -0.660259       -17.9666
  38   2.0000      -0.639254       -17.3950
  39   2.0000      -0.613434       -16.6924
  40   2.0000      -0.596124       -16.2214
  41   2.0000      -0.574420       -15.6308
  42   2.0000      -0.568578       -15.4718
  43   2.0000      -0.557685       -15.1754
  44   2.0000      -0.528770       -14.3886
  45   2.0000      -0.520817       -14.1721
  46   2.0000      -0.515778       -14.0350
  47   2.0000      -0.510973       -13.9043
  48   2.0000      -0.506469       -13.7817
  49   2.0000      -0.490467       -13.3463
  50   2.0000      -0.483803       -13.1649
  51   2.0000      -0.477838       -13.0026
  52   2.0000      -0.471037       -12.8176
  53   2.0000      -0.464491       -12.6394
  54   2.0000      -0.456979       -12.4350
  55   2.0000      -0.447460       -12.1760
  56   2.0000      -0.443404       -12.0656
  57   2.0000      -0.434920       -11.8348
  58   2.0000      -0.432411       -11.7665
  59   2.0000      -0.426815       -11.6142
  60   2.0000      -0.420152       -11.4329
  61   2.0000      -0.411733       -11.2038
  62   2.0000      -0.411089       -11.1863
  63   2.0000      -0.341198        -9.2845
  64   2.0000      -0.327278        -8.9057
  65   2.0000      -0.321561        -8.7501
  66   2.0000      -0.292952        -7.9716
  67   0.0000       0.034261         0.9323
  68   0.0000       0.057618         1.5679
  69   0.0000       0.102472         2.7884
  70   0.0000       0.115931         3.1546
  71   0.0000       0.124330         3.3832

MULLIKEN ATOMIC CHARGES
-----------------------
   0 S :    0.101384
   1 C :   -0.152092
   2 C :   -0.060893
   3 C :    0.009754
   4 C :   -0.182349
   5 H :    0.052995
   6 C :    0.058091
   7 H :   -0.004699
   8 H :    0.037004
   9 C :   -0.071101
  10 H :    0.037976
  11 H :    0.046249
  12 C :   -0.100170
  13 H :    0.053476
  14 H :    0.044245
  15 H :    0.041184
  16 S :    0.137442
  17 C :   -0.099473
  18 C :   -0.012568
  19 C :    0.000291
  20 C :   -0.180109
  21 H :    0.011787
  22 C :    0.046522
  23 H :    0.034645
  24 H :    0.031974
  25 C :   -0.134042
  26 H :    0.027546
  27 H :    0.032160
  28 C :   -0.044643
  29 H :    0.041953
  30 H :    0.042081
  31 H :    0.054359
  32 H :    0.067042
  33 H :    0.031980
Sum of atomic charges:   -0.0000000

LOEWDIN ATOMIC CHARGES
----------------------
   0 S :    0.374790
   1 C :   -0.198215
   2 C :   -0.058491
   3 C :   -0.076051
   4 C :   -0.181690
   5 H :    0.047386
   6 C :   -0.036011
   7 H :    0.020104
   8 H :    0.033206
   9 C :   -0.042706
  10 H :    0.031132
  11 H :    0.024014
  12 C :   -0.074988
  13 H :    0.033037
  14 H :    0.029119
  15 H :    0.031705
  16 S :    0.441494
  17 C :   -0.168993
  18 C :   -0.061080
  19 C :   -0.054101
  20 C :   -0.229880
  21 H :    0.026568
  22 C :   -0.044483
  23 H :    0.033738
  24 H :    0.037501
  25 C :   -0.053243
  26 H :    0.025653
  27 H :    0.019403
  28 C :   -0.069906
  29 H :    0.032196
  30 H :    0.027371
  31 H :    0.038812
  32 H :    0.033229
  33 H :    0.009380

  Mayer bond orders larger than 0.100000
B(  0-S ,  1-C ) :   1.1220 B(  0-S ,  4-C ) :   1.1562 B(  1-C ,  2-C ) :   1.6204
B(  1-C , 32-H ) :   0.9665 B(  2-C ,  3-C ) :   1.2067 B(  2-C ,  6-C ) :   1.0211
B(  3-C ,  4-C ) :   1.5905 B(  3-C ,  5-H ) :   0.9741 B(  4-C , 20-C ) :   1.0200
B(  6-C ,  7-H ) :   0.9395 B(  6-C ,  8-H ) :   0.9360 B(  6-C ,  9-C ) :   1.0642
B(  9-C , 10-H ) :   0.9562 B(  9-C , 11-H ) :   0.9547 B(  9-C , 12-C ) :   1.0710
B( 12-C , 13-H ) :   0.9730 B( 12-C , 14-H ) :   0.9753 B( 12-C , 15-H ) :   0.9738
B( 16-S , 17-C ) :   1.1884 B( 16-S , 20-C ) :   1.1658 B( 17-C , 18-C ) :   1.5814
B( 17-C , 20-C ) :   0.1074 B( 17-C , 33-H ) :   0.9751 B( 18-C , 19-C ) :   1.2484
B( 18-C , 21-H ) :   0.9950 B( 19-C , 20-C ) :   1.5606 B( 19-C , 22-C ) :   1.0634
B( 22-C , 23-H ) :   0.9133 B( 22-C , 24-H ) :   0.9323 B( 22-C , 25-C ) :   1.0632
B( 25-C , 26-H ) :   0.9521 B( 25-C , 27-H ) :   0.9527 B( 25-C , 28-C ) :   1.0776
B( 28-C , 29-H ) :   0.9727 B( 28-C , 30-H ) :   0.9727 B( 28-C , 31-H ) :   0.9714

Dispersion correction           -0.013974440
FINAL SINGLE POINT ENERGY     -1339.855946168117

DIPOLE MOMENT
-------------
                                X             Y             Z
Electronic contribution:      1.06955       6.64754      31.18448
Nuclear contribution   :     -1.23829      -6.93188     -31.70609
                        -----------------------------------------
Total Dipole Moment    :     -0.16874      -0.28433      -0.52161
                        -----------------------------------------
Magnitude (a.u.)       :      0.61757
Magnitude (Debye)      :      1.56974

Rotational constants in cm-1:     0.016578     0.009050     0.006498
Rotational constants in MHz :   496.996467   271.303140   194.796927

                             ****ORCA TERMINATED NORMALLY****
TOTAL RUN TIME: 0 days 0 hours 0 minutes 22 seconds 621 msec
