                         Program Version 4.2.1 -  RELEASE  -
|  1> ! wB97X-D3 SP def2-SVP
|  2> %pal
|  3> nprocs 24
|  4> end
|  5>
|  6> * xyz 0 1
|  7> S 	 -60.2871 	 8.14977 	 -19.808
|  8> C 	 -60.3617 	 6.50787 	 -20.4976
|  9> C 	 -60.7846 	 5.54354 	 -19.5831
| 10> C 	 -61.2761 	 6.15718 	 -18.4065
| 11> C 	 -61.0599 	 7.54743 	 -18.3768
| 12> H 	 -61.7553 	 5.62407 	 -17.5836
| 13> C 	 -60.7356 	 4.02998 	 -19.7308
| 14> H 	 -60.1447 	 3.79524 	 -20.6039
| 15> H 	 -61.7049 	 3.52109 	 -19.9034
| 16> C 	 -60.0677 	 3.40285 	 -18.5214
| 17> H 	 -58.9872 	 3.61962 	 -18.4967
| 18> H 	 -60.5096 	 3.80165 	 -17.5626
| 19> C 	 -60.0925 	 1.90846 	 -18.4914
| 20> H 	 -59.7243 	 1.56819 	 -19.4131
| 21> H 	 -59.4202 	 1.43615 	 -17.7931
| 22> H 	 -60.9773 	 1.38929 	 -18.1719
| 23> S 	 -60.7106 	 8.60974 	 -15.8501
| 24> C 	 -61.9306 	 9.58799 	 -15.0721
| 25> C 	 -62.9913 	 9.78955 	 -15.9644
| 26> C 	 -62.7364 	 9.19335 	 -17.2711
| 27> C 	 -61.5778 	 8.43063 	 -17.3327
| 28> H 	 -63.8484 	 10.4104 	 -15.7063
| 29> C 	 -63.6798 	 9.42439 	 -18.3822
| 30> H 	 -63.2738 	 8.97849 	 -19.3154
| 31> H 	 -63.7977 	 10.4986 	 -18.6111
| 32> C 	 -65.1583 	 8.94778 	 -18.1843
| 33> H 	 -65.7346 	 9.19718 	 -19.0108
| 34> H 	 -65.6465 	 9.55902 	 -17.4261
| 35> C 	 -65.2679 	 7.40359 	 -17.9723
| 36> H 	 -64.6241 	 6.93679 	 -17.2624
| 37> H 	 -65.1797 	 6.83812 	 -18.8823
| 38> H 	 -66.2048 	 7.21792 	 -17.5492
| 39> H 	 -59.8334 	 6.31176 	 -21.4458
| 40> H 	 -61.8384 	 9.91748 	 -14.0409
| 41> *
| 42>
| 43>                          ****END OF INPUT****

CARTESIAN COORDINATES (ANGSTROEM)
---------------------------------
  S    -60.287100    8.149770  -19.808000
  C    -60.361700    6.507870  -20.497600
  C    -60.784600    5.543540  -19.583100
  C    -61.276100    6.157180  -18.406500
  C    -61.059900    7.547430  -18.376800
  H    -61.755300    5.624070  -17.583600
  C    -60.735600    4.029980  -19.730800
  H    -60.144700    3.795240  -20.603900
  H    -61.704900    3.521090  -19.903400
  C    -60.067700    3.402850  -18.521400
  H    -58.987200    3.619620  -18.496700
  H    -60.509600    3.801650  -17.562600
  C    -60.092500    1.908460  -18.491400
  H    -59.724300    1.568190  -19.413100
  H    -59.420200    1.436150  -17.793100
  H    -60.977300    1.389290  -18.171900
  S    -60.710600    8.609740  -15.850100
  C    -61.930600    9.587990  -15.072100
  C    -62.991300    9.789550  -15.964400
  C    -62.736400    9.193350  -17.271100
  C    -61.577800    8.430630  -17.332700
  H    -63.848400   10.410400  -15.706300
  C    -63.679800    9.424390  -18.382200
  H    -63.273800    8.978490  -19.315400
  H    -63.797700   10.498600  -18.611100
  C    -65.158300    8.947780  -18.184300
  H    -65.734600    9.197180  -19.010800
  H    -65.646500    9.559020  -17.426100
  C    -65.267900    7.403590  -17.972300
  H    -64.624100    6.936790  -17.262400
  H    -65.179700    6.838120  -18.882300
  H    -66.204800    7.217920  -17.549200
  H    -59.833400    6.311760  -21.445800
  H    -61.838400    9.917480  -14.040900

 Total Charge           Charge          ....    0
 Multiplicity           Mult            ....    1
 Number of Electrons    NEL             ....  134
 Basis Dimension        Dim             ....  322

ORBITAL ENERGIES
----------------

  NO   OCC          E(Eh)            E(eV)
   0   2.0000     -88.971199     -2421.0294
   1   2.0000     -88.959884     -2420.7215
   2   2.0000     -10.330440      -281.1056
   3   2.0000     -10.321469      -280.8614
   4   2.0000     -10.320225      -280.8276
   5   2.0000     -10.319728      -280.8141
   6   2.0000     -10.305220      -280.4193
   7   2.0000     -10.300260      -280.2843
   8   2.0000     -10.296943      -280.1941
   9   2.0000     -10.296776      -280.1895
  10   2.0000     -10.295961      -280.1673
  11   2.0000     -10.288400      -279.9616
  12   2.0000     -10.285615      -279.8858
  13   2.0000     -10.281647      -279.7778
  14   2.0000     -10.268093      -279.4090
  15   2.0000     -10.263161      -279.2748
  16   2.0000      -8.085341      -220.0133
  17   2.0000      -8.075219      -219.7379
  18   2.0000      -6.043703      -164.4575
  19   2.0000      -6.040005      -164.3569
  20   2.0000      -6.036212      -164.2537
  21   2.0000      -6.033707      -164.1855
  22   2.0000      -6.029438      -164.0694
  23   2.0000      -6.026172      -163.9805
  24   2.0000      -1.004021       -27.3208
  25   2.0000      -0.981643       -26.7119
  26   2.0000      -0.918256       -24.9870
  27   2.0000      -0.901504       -24.5312
  28   2.0000      -0.868240       -23.6260
  29   2.0000      -0.851255       -23.1638
  30   2.0000      -0.841827       -22.9073
  31   2.0000      -0.810977       -22.0678
  32   2.0000      -0.785502       -21.3746
  33   2.0000      -0.772660       -21.0251
  34   2.0000      -0.710791       -19.3416
  35   2.0000      -0.701105       -19.0780
  36   2.0000      -0.687837       -18.7170
  37   2.0000      -0.657962       -17.9041
  38   2.0000      -0.640624       -17.4323
  39   2.0000      -0.623180       -16.9576
  40   2.0000      -0.593130       -16.1399
  41   2.0000      -0.570575       -15.5261
  42   2.0000      -0.564487       -15.3605
  43   2.0000      -0.543737       -14.7958
  44   2.0000      -0.536243       -14.5919
  45   2.0000      -0.526702       -14.3323
  46   2.0000      -0.520873       -14.1737
  47   2.0000      -0.514813       -14.0088
  48   2.0000      -0.500568       -13.6211
  49   2.0000      -0.496369       -13.5069
  50   2.0000      -0.493583       -13.4311
  51   2.0000      -0.478371       -13.0171
  52   2.0000      -0.467210       -12.7134
  53   2.0000      -0.463048       -12.6002
  54   2.0000      -0.457310       -12.4440
  55   2.0000      -0.454489       -12.3673
  56   2.0000      -0.446050       -12.1376
  57   2.0000      -0.432971       -11.7817
  58   2.0000      -0.424216       -11.5435
  59   2.0000      -0.421236       -11.4624
  60   2.0000      -0.419408       -11.4127
  61   2.0000      -0.418106       -11.3772
  62   2.0000      -0.413028       -11.2391
  63   2.0000      -0.336780        -9.1643
  64   2.0000      -0.327129        -8.9016
  65   2.0000      -0.319758        -8.7011
  66   2.0000      -0.306397        -8.3375
  67   0.0000       0.041345         1.1250
  68   0.0000       0.059114         1.6086
  69   0.0000       0.108482         2.9520
  70   0.0000       0.116168         3.1611
  71   0.0000       0.129204         3.5158

MULLIKEN ATOMIC CHARGES
-----------------------
   0 S :    0.125788
   1 C :   -0.147635
   2 C :   -0.063052
   3 C :    0.033859
   4 C :   -0.178605
   5 H :    0.027689
   6 C :    0.105717
   7 H :    0.009020
   8 H :    0.044387
   9 C :   -0.123926
  10 H :    0.036446
  11 H :    0.037740
  12 C :   -0.005885
  13 H :    0.008193
  14 H :    0.014840
  15 H :    0.023465
  16 S :    0.103434
  17 C :   -0.107580
  18 C :   -0.030671
  19 C :   -0.008416
  20 C :   -0.177067
  21 H :    0.027098
  22 C :    0.042958
  23 H :    0.022070
  24 H :    0.033580
  25 C :   -0.053861
  26 H :    0.010286
  27 H :    0.018323
  28 C :   -0.015244
  29 H :    0.023582
  30 H :    0.030160
  31 H :    0.008116
  32 H :    0.057784
  33 H :    0.067408
Sum of atomic charges:    0.0000000

LOEWDIN ATOMIC CHARGES
----------------------
   0 S :    0.411329
   1 C :   -0.192241
   2 C :   -0.059507
   3 C :   -0.051358
   4 C :   -0.203490
   5 H :    0.034671
   6 C :   -0.029375
   7 H :    0.027661
   8 H :    0.036837
   9 C :   -0.044789
  10 H :    0.032137
  11 H :    0.026899
  12 C :   -0.068042
  13 H :    0.018181
  14 H :    0.028136
  15 H :    0.022326
  16 S :    0.416062
  17 C :   -0.187653
  18 C :   -0.071305
  19 C :   -0.056817
  20 C :   -0.219203
  21 H :    0.032244
  22 C :   -0.038939
  23 H :    0.028503
  24 H :    0.035536
  25 C :   -0.030802
  26 H :    0.017299
  27 H :    0.019967
  28 C :   -0.060447
  29 H :    0.021588
  30 H :    0.025895
  31 H :    0.018947
  32 H :    0.028167
  33 H :    0.031584

  Mayer bond orders larger than 0.100000
B(  0-S ,  1-C ) :   1.1429 B(  0-S ,  4-C ) :   1.1636 B(  1-C ,  2-C ) :   1.6060
B(  1-C ,  4-C ) :   0.1026 B(  1-C , 32-H ) :   0.9613 B(  2-C ,  3-C ) :   1.2463
B(  2-C ,  6-C ) :   1.0248 B(  3-C ,  4-C ) :   1.5788 B(  3-C ,  5-H ) :   0.9841
B(  4-C , 20-C ) :   1.0012 B(  6-C ,  7-H ) :   0.9317 B(  6-C ,  8-H ) :   0.9403
B(  6-C ,  9-C ) :   1.0596 B(  9-C , 10-H ) :   0.9530 B(  9-C , 11-H ) :   0.9563
B(  9-C , 12-C ) :   1.0936 B( 12-C , 13-H ) :   0.9671 B( 12-C , 14-H ) :   0.9682
B( 12-C , 15-H ) :   0.9714 B( 16-S , 17-C ) :   1.1706 B( 16-S , 20-C ) :   1.1507
B( 17-C , 18-C ) :   1.5792 B( 17-C , 33-H ) :   0.9710 B( 18-C , 19-C ) :   1.2350
B( 18-C , 21-H ) :   0.9920 B( 19-C , 20-C ) :   1.5839 B( 19-C , 22-C ) :   1.0693
B( 22-C , 23-H ) :   0.9314 B( 22-C , 24-H ) :   0.9311 B( 22-C , 25-C ) :   1.0791
B( 25-C , 26-H ) :   0.9518 B( 25-C , 27-H ) :   0.9569 B( 25-C , 28-C ) :   1.0663
B( 28-C , 29-H ) :   0.9778 B( 28-C , 30-H ) :   0.9769 B( 28-C , 31-H ) :   0.9711

Dispersion correction           -0.014779594
FINAL SINGLE POINT ENERGY     -1339.880235780446

DIPOLE MOMENT
-------------
                                X             Y             Z
Electronic contribution:     12.74365      18.93429       3.40424
Nuclear contribution   :    -13.05287     -19.31060      -3.46379
                        -----------------------------------------
Total Dipole Moment    :     -0.30922      -0.37632      -0.05955
                        -----------------------------------------
Magnitude (a.u.)       :      0.49069
Magnitude (Debye)      :      1.24723

Rotational constants in cm-1:     0.018943     0.008038     0.007652
Rotational constants in MHz :   567.894694   240.981674   229.403021

                             ****ORCA TERMINATED NORMALLY****
TOTAL RUN TIME: 0 days 0 hours 0 minutes 21 seconds 861 msec
