                         Program Version 4.2.1 -  RELEASE  -
|  1> ! wB97X-D3 SP def2-SVP
|  2> %pal
|  3> nprocs 24
|  4> end
|  5>
|  6> * xyz 0 1
|  7> S 	 -41.2809 	 -53.3993 	 -71.4507
|  8> C 	 -40.9199 	 -53.8482 	 -69.7866
|  9> C 	 -41.3935 	 -52.9416 	 -68.8801
| 10> C 	 -42.1019 	 -51.8593 	 -69.5036
| 11> C 	 -42.1632 	 -52.012 	 -70.9075
| 12> H 	 -42.6691 	 -51.0347 	 -69.0852
| 13> C 	 -41.433 	 -53.0717 	 -67.3452
| 14> H 	 -41.9237 	 -54.0947 	 -67.1235
| 15> H 	 -42.1554 	 -52.378 	 -66.9141
| 16> C 	 -40.0623 	 -53.1059 	 -66.6156
| 17> H 	 -39.756 	 -54.1516 	 -66.7598
| 18> H 	 -39.4004 	 -52.4411 	 -67.1089
| 19> C 	 -40.1471 	 -52.7855 	 -65.0982
| 20> H 	 -39.2315 	 -52.8103 	 -64.5248
| 21> H 	 -40.5404 	 -51.7816 	 -64.8662
| 22> H 	 -40.817 	 -53.3817 	 -64.4864
| 23> S 	 -41.6744 	 -50.5096 	 -73.1278
| 24> C 	 -42.872 	 -49.4486 	 -73.7286
| 25> C 	 -44.0401 	 -49.4963 	 -73.0191
| 26> C 	 -43.993 	 -50.4349 	 -71.9012
| 27> C 	 -42.7553 	 -51.0161 	 -71.8449
| 28> H 	 -44.69 	 -48.6668 	 -73.1049
| 29> C 	 -45.1295 	 -50.614 	 -70.9623
| 30> H 	 -45.6158 	 -49.6534 	 -70.7589
| 31> H 	 -44.772 	 -50.8361 	 -69.9109
| 32> C 	 -46.0664 	 -51.6559 	 -71.4818
| 33> H 	 -45.5422 	 -52.5673 	 -71.8238
| 34> H 	 -46.6682 	 -51.2361 	 -72.2971
| 35> C 	 -47.1294 	 -52.0761 	 -70.498
| 36> H 	 -46.7447 	 -52.4378 	 -69.5141
| 37> H 	 -47.6658 	 -52.8792 	 -70.9279
| 38> H 	 -47.944 	 -51.3765 	 -70.298
| 39> H 	 -40.3934 	 -54.7853 	 -69.633
| 40> H 	 -42.7279 	 -48.6273 	 -74.3906
| 41> *
| 42>
| 43>                          ****END OF INPUT****

CARTESIAN COORDINATES (ANGSTROEM)
---------------------------------
  S    -41.280900  -53.399300  -71.450700
  C    -40.919900  -53.848200  -69.786600
  C    -41.393500  -52.941600  -68.880100
  C    -42.101900  -51.859300  -69.503600
  C    -42.163200  -52.012000  -70.907500
  H    -42.669100  -51.034700  -69.085200
  C    -41.433000  -53.071700  -67.345200
  H    -41.923700  -54.094700  -67.123500
  H    -42.155400  -52.378000  -66.914100
  C    -40.062300  -53.105900  -66.615600
  H    -39.756000  -54.151600  -66.759800
  H    -39.400400  -52.441100  -67.108900
  C    -40.147100  -52.785500  -65.098200
  H    -39.231500  -52.810300  -64.524800
  H    -40.540400  -51.781600  -64.866200
  H    -40.817000  -53.381700  -64.486400
  S    -41.674400  -50.509600  -73.127800
  C    -42.872000  -49.448600  -73.728600
  C    -44.040100  -49.496300  -73.019100
  C    -43.993000  -50.434900  -71.901200
  C    -42.755300  -51.016100  -71.844900
  H    -44.690000  -48.666800  -73.104900
  C    -45.129500  -50.614000  -70.962300
  H    -45.615800  -49.653400  -70.758900
  H    -44.772000  -50.836100  -69.910900
  C    -46.066400  -51.655900  -71.481800
  H    -45.542200  -52.567300  -71.823800
  H    -46.668200  -51.236100  -72.297100
  C    -47.129400  -52.076100  -70.498000
  H    -46.744700  -52.437800  -69.514100
  H    -47.665800  -52.879200  -70.927900
  H    -47.944000  -51.376500  -70.298000
  H    -40.393400  -54.785300  -69.633000
  H    -42.727900  -48.627300  -74.390600

 Total Charge           Charge          ....    0
 Multiplicity           Mult            ....    1
 Number of Electrons    NEL             ....  134
 Basis Dimension        Dim             ....  322

ORBITAL ENERGIES
----------------

  NO   OCC          E(Eh)            E(eV)
   0   2.0000     -88.967703     -2420.9343
   1   2.0000     -88.964173     -2420.8382
   2   2.0000     -10.330211      -281.0993
   3   2.0000     -10.325162      -280.9619
   4   2.0000     -10.314416      -280.6695
   5   2.0000     -10.308652      -280.5127
   6   2.0000     -10.305760      -280.4340
   7   2.0000     -10.301797      -280.3261
   8   2.0000     -10.299853      -280.2733
   9   2.0000     -10.295718      -280.1607
  10   2.0000     -10.292036      -280.0605
  11   2.0000     -10.290440      -280.0171
  12   2.0000     -10.288206      -279.9563
  13   2.0000     -10.283313      -279.8232
  14   2.0000     -10.279842      -279.7287
  15   2.0000     -10.271368      -279.4981
  16   2.0000      -8.082591      -219.9385
  17   2.0000      -8.079813      -219.8629
  18   2.0000      -6.040988      -164.3836
  19   2.0000      -6.038309      -164.3107
  20   2.0000      -6.037045      -164.2763
  21   2.0000      -6.034238      -164.2000
  22   2.0000      -6.033502      -164.1799
  23   2.0000      -6.030478      -164.0976
  24   2.0000      -1.007643       -27.4194
  25   2.0000      -0.985277       -26.8107
  26   2.0000      -0.917835       -24.9756
  27   2.0000      -0.904673       -24.6174
  28   2.0000      -0.865867       -23.5614
  29   2.0000      -0.855457       -23.2782
  30   2.0000      -0.845861       -23.0170
  31   2.0000      -0.812187       -22.1007
  32   2.0000      -0.784040       -21.3348
  33   2.0000      -0.774517       -21.0757
  34   2.0000      -0.707803       -19.2603
  35   2.0000      -0.699776       -19.0419
  36   2.0000      -0.689316       -18.7572
  37   2.0000      -0.664189       -18.0735
  38   2.0000      -0.644678       -17.5426
  39   2.0000      -0.613234       -16.6869
  40   2.0000      -0.597486       -16.2584
  41   2.0000      -0.567997       -15.4560
  42   2.0000      -0.563642       -15.3375
  43   2.0000      -0.557907       -15.1814
  44   2.0000      -0.532210       -14.4822
  45   2.0000      -0.521667       -14.1953
  46   2.0000      -0.515882       -14.0379
  47   2.0000      -0.511188       -13.9101
  48   2.0000      -0.505383       -13.7522
  49   2.0000      -0.499470       -13.5913
  50   2.0000      -0.488202       -13.2846
  51   2.0000      -0.479217       -13.0402
  52   2.0000      -0.471760       -12.8373
  53   2.0000      -0.460241       -12.5238
  54   2.0000      -0.455205       -12.3868
  55   2.0000      -0.451206       -12.2779
  56   2.0000      -0.444898       -12.1063
  57   2.0000      -0.436255       -11.8711
  58   2.0000      -0.433013       -11.7829
  59   2.0000      -0.428099       -11.6492
  60   2.0000      -0.424772       -11.5586
  61   2.0000      -0.413135       -11.2420
  62   2.0000      -0.409983       -11.1562
  63   2.0000      -0.346283        -9.4228
  64   2.0000      -0.333454        -9.0738
  65   2.0000      -0.329216        -8.9584
  66   2.0000      -0.293103        -7.9757
  67   0.0000       0.036974         1.0061
  68   0.0000       0.067816         1.8454
  69   0.0000       0.109303         2.9743
  70   0.0000       0.113532         3.0893
  71   0.0000       0.140437         3.8215

MULLIKEN ATOMIC CHARGES
-----------------------
   0 S :    0.112421
   1 C :   -0.147952
   2 C :   -0.022562
   3 C :    0.014477
   4 C :   -0.158567
   5 H :    0.019603
   6 C :    0.008309
   7 H :    0.045484
   8 H :    0.022116
   9 C :   -0.033365
  10 H :    0.035590
  11 H :    0.036319
  12 C :   -0.058585
  13 H :    0.030736
  14 H :    0.022273
  15 H :    0.018576
  16 S :    0.111331
  17 C :   -0.072341
  18 C :   -0.029481
  19 C :   -0.044682
  20 C :   -0.166713
  21 H :    0.012429
  22 C :    0.071910
  23 H :    0.019324
  24 H :    0.013660
  25 C :   -0.074030
  26 H :    0.047370
  27 H :    0.030946
  28 C :   -0.035818
  29 H :    0.030627
  30 H :    0.016741
  31 H :    0.023996
  32 H :    0.053421
  33 H :    0.046438
Sum of atomic charges:   -0.0000000

LOEWDIN ATOMIC CHARGES
----------------------
   0 S :    0.409964
   1 C :   -0.194819
   2 C :   -0.062487
   3 C :   -0.066016
   4 C :   -0.199762
   5 H :    0.030849
   6 C :   -0.035092
   7 H :    0.041610
   8 H :    0.024327
   9 C :   -0.033632
  10 H :    0.028635
  11 H :    0.021549
  12 C :   -0.075659
  13 H :    0.026237
  14 H :    0.026357
  15 H :    0.023251
  16 S :    0.415443
  17 C :   -0.192648
  18 C :   -0.069042
  19 C :   -0.054088
  20 C :   -0.193939
  21 H :    0.025055
  22 C :   -0.039278
  23 H :    0.032352
  24 H :    0.031277
  25 C :   -0.039690
  26 H :    0.034387
  27 H :    0.031062
  28 C :   -0.069403
  29 H :    0.024874
  30 H :    0.021911
  31 H :    0.023400
  32 H :    0.026735
  33 H :    0.026279

  Mayer bond orders larger than 0.100000
B(  0-S ,  1-C ) :   1.1338 B(  0-S ,  4-C ) :   1.1742 B(  1-C ,  2-C ) :   1.6021
B(  1-C , 32-H ) :   0.9752 B(  2-C ,  3-C ) :   1.2360 B(  2-C ,  6-C ) :   1.0117
B(  3-C ,  4-C ) :   1.5690 B(  3-C ,  5-H ) :   0.9903 B(  4-C , 20-C ) :   1.0084
B(  6-C ,  7-H ) :   0.9469 B(  6-C ,  8-H ) :   0.9559 B(  6-C ,  9-C ) :   1.0337
B(  9-C , 10-H ) :   0.9578 B(  9-C , 11-H ) :   0.9671 B(  9-C , 12-C ) :   1.0771
B( 12-C , 13-H ) :   0.9767 B( 12-C , 14-H ) :   0.9748 B( 12-C , 15-H ) :   0.9749
B( 16-S , 17-C ) :   1.1500 B( 16-S , 20-C ) :   1.1375 B( 17-C , 18-C ) :   1.6602
B( 17-C , 33-H ) :   0.9629 B( 18-C , 19-C ) :   1.2076 B( 18-C , 21-H ) :   0.9811
B( 19-C , 20-C ) :   1.6491 B( 19-C , 22-C ) :   1.0521 B( 22-C , 23-H ) :   0.9238
B( 22-C , 24-H ) :   0.9349 B( 22-C , 25-C ) :   1.0655 B( 25-C , 26-H ) :   0.9584
B( 25-C , 27-H ) :   0.9475 B( 25-C , 28-C ) :   1.0956 B( 28-C , 29-H ) :   0.9721
B( 28-C , 30-H ) :   0.9703 B( 28-C , 31-H ) :   0.9710

Dispersion correction           -0.013581690
FINAL SINGLE POINT ENERGY     -1339.877812247003

DIPOLE MOMENT
-------------
                                X             Y             Z
Electronic contribution:     12.29802       2.56160     -25.06724
Nuclear contribution   :    -12.67214      -2.38318      25.60449
                        -----------------------------------------
Total Dipole Moment    :     -0.37412       0.17841       0.53725
                        -----------------------------------------
Magnitude (a.u.)       :      0.67855
Magnitude (Debye)      :      1.72474

Rotational constants in cm-1:     0.018623     0.007726     0.006387
Rotational constants in MHz :   558.306725   231.619305   191.478590

                             ****ORCA TERMINATED NORMALLY****
TOTAL RUN TIME: 0 days 0 hours 0 minutes 20 seconds 831 msec
