                         Program Version 4.2.1 -  RELEASE  -
|  1> ! wB97X-D3 SP def2-SVP
|  2> %pal
|  3> nprocs 24
|  4> end
|  5>
|  6> * xyz 0 1
|  7> S 	 -78.7903 	 -5.54673 	 5.85875
|  8> C 	 -77.6865 	 -4.92716 	 4.62262
|  9> C 	 -77.7355 	 -5.66183 	 3.46972
| 10> C 	 -78.7482 	 -6.65192 	 3.50519
| 11> C 	 -79.388 	 -6.80806 	 4.74001
| 12> H 	 -78.9575 	 -7.29542 	 2.67796
| 13> C 	 -76.9136 	 -5.43827 	 2.21483
| 14> H 	 -77.2713 	 -4.46074 	 1.85085
| 15> H 	 -77.1113 	 -6.25796 	 1.51845
| 16> C 	 -75.3776 	 -5.29372 	 2.40905
| 17> H 	 -74.9027 	 -4.97836 	 1.55348
| 18> H 	 -75.0879 	 -4.48861 	 3.0497
| 19> C 	 -74.7411 	 -6.6642 	 2.85578
| 20> H 	 -74.926 	 -7.42442 	 2.06735
| 21> H 	 -73.6291 	 -6.49364 	 2.79966
| 22> H 	 -75.1528 	 -7.05214 	 3.76796
| 23> S 	 -82.2054 	 -6.89035 	 5.29989
| 24> C 	 -83.0565 	 -8.3866 	 4.90994
| 25> C 	 -82.1209 	 -9.38447 	 4.76162
| 26> C 	 -80.739 	 -9.00866 	 4.77873
| 27> C 	 -80.5558 	 -7.64705 	 5.02001
| 28> H 	 -82.3387 	 -10.4144 	 4.57962
| 29> C 	 -79.5514 	 -9.91561 	 4.64598
| 30> H 	 -79.8216 	 -10.6728 	 5.38151
| 31> H 	 -78.712 	 -9.31701 	 4.8824
| 32> C 	 -79.4129 	 -10.527 	 3.25524
| 33> H 	 -79.2817 	 -9.62098 	 2.64761
| 34> H 	 -80.3062 	 -11.1602 	 2.98494
| 35> C 	 -78.1606 	 -11.3941 	 3.18302
| 36> H 	 -78.2734 	 -12.2364 	 3.83849
| 37> H 	 -77.2592 	 -10.8534 	 3.57203
| 38> H 	 -77.798 	 -11.7958 	 2.20335
| 39> H 	 -77.0711 	 -4.01513 	 4.8346
| 40> H 	 -84.146 	 -8.57371 	 4.8026
| 41> *
| 42>
| 43>                          ****END OF INPUT****

CARTESIAN COORDINATES (ANGSTROEM)
---------------------------------
  S    -78.790300   -5.546730    5.858750
  C    -77.686500   -4.927160    4.622620
  C    -77.735500   -5.661830    3.469720
  C    -78.748200   -6.651920    3.505190
  C    -79.388000   -6.808060    4.740010
  H    -78.957500   -7.295420    2.677960
  C    -76.913600   -5.438270    2.214830
  H    -77.271300   -4.460740    1.850850
  H    -77.111300   -6.257960    1.518450
  C    -75.377600   -5.293720    2.409050
  H    -74.902700   -4.978360    1.553480
  H    -75.087900   -4.488610    3.049700
  C    -74.741100   -6.664200    2.855780
  H    -74.926000   -7.424420    2.067350
  H    -73.629100   -6.493640    2.799660
  H    -75.152800   -7.052140    3.767960
  S    -82.205400   -6.890350    5.299890
  C    -83.056500   -8.386600    4.909940
  C    -82.120900   -9.384470    4.761620
  C    -80.739000   -9.008660    4.778730
  C    -80.555800   -7.647050    5.020010
  H    -82.338700  -10.414400    4.579620
  C    -79.551400   -9.915610    4.645980
  H    -79.821600  -10.672800    5.381510
  H    -78.712000   -9.317010    4.882400
  C    -79.412900  -10.527000    3.255240
  H    -79.281700   -9.620980    2.647610
  H    -80.306200  -11.160200    2.984940
  C    -78.160600  -11.394100    3.183020
  H    -78.273400  -12.236400    3.838490
  H    -77.259200  -10.853400    3.572030
  H    -77.798000  -11.795800    2.203350
  H    -77.071100   -4.015130    4.834600
  H    -84.146000   -8.573710    4.802600

 Total Charge           Charge          ....    0
 Multiplicity           Mult            ....    1
 Number of Electrons    NEL             ....  134
 Basis Dimension        Dim             ....  322

ORBITAL ENERGIES
----------------

  NO   OCC          E(Eh)            E(eV)
   0   2.0000     -88.966737     -2420.9080
   1   2.0000     -88.962092     -2420.7816
   2   2.0000     -10.336170      -281.2615
   3   2.0000     -10.330093      -281.0961
   4   2.0000     -10.326095      -280.9873
   5   2.0000     -10.319760      -280.8149
   6   2.0000     -10.301601      -280.3208
   7   2.0000     -10.300916      -280.3022
   8   2.0000     -10.297769      -280.2165
   9   2.0000     -10.297099      -280.1983
  10   2.0000     -10.294040      -280.1151
  11   2.0000     -10.292084      -280.0618
  12   2.0000     -10.286878      -279.9202
  13   2.0000     -10.283824      -279.8371
  14   2.0000     -10.283297      -279.8227
  15   2.0000     -10.281604      -279.7767
  16   2.0000      -8.080633      -219.8852
  17   2.0000      -8.075446      -219.7440
  18   2.0000      -6.039161      -164.3339
  19   2.0000      -6.035223      -164.2268
  20   2.0000      -6.034245      -164.2001
  21   2.0000      -6.031463      -164.1245
  22   2.0000      -6.030122      -164.0880
  23   2.0000      -6.025972      -163.9750
  24   2.0000      -0.998840       -27.1798
  25   2.0000      -0.978842       -26.6356
  26   2.0000      -0.915223       -24.9045
  27   2.0000      -0.908632       -24.7251
  28   2.0000      -0.866200       -23.5705
  29   2.0000      -0.849731       -23.1223
  30   2.0000      -0.844211       -22.9722
  31   2.0000      -0.809995       -22.0411
  32   2.0000      -0.780481       -21.2380
  33   2.0000      -0.769373       -20.9357
  34   2.0000      -0.713298       -19.4098
  35   2.0000      -0.703550       -19.1446
  36   2.0000      -0.697542       -18.9811
  37   2.0000      -0.660095       -17.9621
  38   2.0000      -0.639112       -17.3911
  39   2.0000      -0.611014       -16.6265
  40   2.0000      -0.592351       -16.1187
  41   2.0000      -0.577895       -15.7253
  42   2.0000      -0.571045       -15.5389
  43   2.0000      -0.553991       -15.0749
  44   2.0000      -0.538810       -14.6618
  45   2.0000      -0.522670       -14.2226
  46   2.0000      -0.516152       -14.0452
  47   2.0000      -0.512344       -13.9416
  48   2.0000      -0.508744       -13.8436
  49   2.0000      -0.492978       -13.4146
  50   2.0000      -0.489844       -13.3293
  51   2.0000      -0.478563       -13.0224
  52   2.0000      -0.475033       -12.9263
  53   2.0000      -0.465131       -12.6569
  54   2.0000      -0.454421       -12.3654
  55   2.0000      -0.447720       -12.1831
  56   2.0000      -0.442803       -12.0493
  57   2.0000      -0.437561       -11.9066
  58   2.0000      -0.431532       -11.7426
  59   2.0000      -0.427498       -11.6328
  60   2.0000      -0.425761       -11.5855
  61   2.0000      -0.416778       -11.3411
  62   2.0000      -0.409678       -11.1479
  63   2.0000      -0.342675        -9.3247
  64   2.0000      -0.330054        -8.9812
  65   2.0000      -0.325968        -8.8700
  66   2.0000      -0.295370        -8.0374
  67   0.0000       0.026993         0.7345
  68   0.0000       0.055292         1.5046
  69   0.0000       0.111689         3.0392
  70   0.0000       0.120803         3.2872
  71   0.0000       0.125440         3.4134

MULLIKEN ATOMIC CHARGES
-----------------------
   0 S :    0.099378
   1 C :   -0.155872
   2 C :   -0.076855
   3 C :    0.039272
   4 C :   -0.177708
   5 H :    0.005428
   6 C :    0.062520
   7 H :    0.045720
   8 H :    0.024679
   9 C :   -0.027423
  10 H :    0.001439
  11 H :    0.014645
  12 C :   -0.076758
  13 H :    0.025197
  14 H :    0.042985
  15 H :    0.051640
  16 S :    0.085611
  17 C :   -0.093697
  18 C :   -0.006552
  19 C :   -0.076895
  20 C :   -0.131767
  21 H :    0.000098
  22 C :    0.087694
  23 H :    0.032435
  24 H :    0.026223
  25 C :   -0.087758
  26 H :    0.027230
  27 H :    0.046353
  28 C :   -0.042410
  29 H :    0.020673
  30 H :    0.025198
  31 H :    0.040893
  32 H :    0.070498
  33 H :    0.077883
Sum of atomic charges:   -0.0000000

LOEWDIN ATOMIC CHARGES
----------------------
   0 S :    0.384131
   1 C :   -0.191430
   2 C :   -0.072297
   3 C :   -0.052696
   4 C :   -0.187177
   5 H :    0.025704
   6 C :   -0.025725
   7 H :    0.039707
   8 H :    0.029465
   9 C :   -0.034821
  10 H :    0.013942
  11 H :    0.019494
  12 C :   -0.065883
  13 H :    0.024674
  14 H :    0.033226
  15 H :    0.023616
  16 S :    0.361372
  17 C :   -0.177647
  18 C :   -0.078123
  19 C :   -0.048221
  20 C :   -0.184116
  21 H :    0.022839
  22 C :   -0.023383
  23 H :    0.035245
  24 H :    0.028131
  25 C :   -0.041593
  26 H :    0.023741
  27 H :    0.031427
  28 C :   -0.075002
  29 H :    0.020710
  30 H :    0.028667
  31 H :    0.028806
  32 H :    0.037358
  33 H :    0.045859

  Mayer bond orders larger than 0.100000
B(  0-S ,  1-C ) :   1.1422 B(  0-S ,  4-C ) :   1.1408 B(  1-C ,  2-C ) :   1.5970
B(  1-C , 32-H ) :   0.9637 B(  2-C ,  3-C ) :   1.2607 B(  2-C ,  6-C ) :   1.0078
B(  3-C ,  4-C ) :   1.5552 B(  3-C ,  5-H ) :   0.9918 B(  4-C , 20-C ) :   1.0426
B(  6-C ,  7-H ) :   0.9332 B(  6-C ,  8-H ) :   0.9486 B(  6-C ,  9-C ) :   1.0847
B(  9-C , 10-H ) :   0.9508 B(  9-C , 11-H ) :   0.9520 B(  9-C , 12-C ) :   1.0656
B( 12-C , 13-H ) :   0.9760 B( 12-C , 14-H ) :   0.9756 B( 12-C , 15-H ) :   0.9804
B( 16-S , 17-C ) :   1.1504 B( 16-S , 20-C ) :   1.1003 B( 17-C , 18-C ) :   1.6000
B( 17-C , 33-H ) :   0.9627 B( 18-C , 19-C ) :   1.2486 B( 18-C , 21-H ) :   0.9866
B( 19-C , 20-C ) :   1.5989 B( 19-C , 22-C ) :   1.0385 B( 22-C , 23-H ) :   0.9274
B( 22-C , 24-H ) :   0.9312 B( 22-C , 25-C ) :   1.0619 B( 25-C , 26-H ) :   0.9529
B( 25-C , 27-H ) :   0.9545 B( 25-C , 28-C ) :   1.0856 B( 28-C , 29-H ) :   0.9716
B( 28-C , 30-H ) :   0.9699 B( 28-C , 31-H ) :   0.9756

Dispersion correction           -0.014624831
FINAL SINGLE POINT ENERGY     -1339.872507505225

DIPOLE MOMENT
-------------
                                X             Y             Z
Electronic contribution:    -22.06752      13.62805      16.27046
Nuclear contribution   :     22.44645     -13.95174     -16.88738
                        -----------------------------------------
Total Dipole Moment    :      0.37894      -0.32369      -0.61692
                        -----------------------------------------
Magnitude (a.u.)       :      0.79308
Magnitude (Debye)      :      2.01584

Rotational constants in cm-1:     0.017998     0.009267     0.006736
Rotational constants in MHz :   539.552758   277.811894   201.929063

                             ****ORCA TERMINATED NORMALLY****
TOTAL RUN TIME: 0 days 0 hours 0 minutes 22 seconds 28 msec
