                         Program Version 4.2.1 -  RELEASE  -
|  1> ! wB97X-D3 SP def2-SVP
|  2> %pal
|  3> nprocs 24
|  4> end
|  5>
|  6> * xyz 0 1
|  7> S 	 -36.1634 	 -51.3603 	 -77.6593
|  8> C 	 -34.4166 	 -51.4924 	 -78.1655
|  9> C 	 -33.6625 	 -50.4825 	 -77.6053
| 10> C 	 -34.4643 	 -49.4267 	 -77.0638
| 11> C 	 -35.846 	 -49.6882 	 -77.1419
| 12> H 	 -34.1271 	 -48.5361 	 -76.6026
| 13> C 	 -32.0942 	 -50.3151 	 -77.6327
| 14> H 	 -31.6067 	 -51.2674 	 -77.9141
| 15> H 	 -31.7851 	 -49.9769 	 -76.594
| 16> C 	 -31.702 	 -49.2804 	 -78.6571
| 17> H 	 -31.8827 	 -49.624 	 -79.6392
| 18> H 	 -32.3371 	 -48.3668 	 -78.6123
| 19> C 	 -30.1816 	 -48.962 	 -78.7779
| 20> H 	 -29.6059 	 -49.8583 	 -78.7493
| 21> H 	 -29.8985 	 -48.4101 	 -79.6276
| 22> H 	 -29.8738 	 -48.4276 	 -77.8752
| 23> S 	 -37.903 	 -49.5671 	 -75.2487
| 24> C 	 -38.8191 	 -48.0682 	 -75.237
| 25> C 	 -38.4376 	 -47.177 	 -76.1802
| 26> C 	 -37.3064 	 -47.5818 	 -76.8851
| 27> C 	 -36.8961 	 -48.8735 	 -76.5664
| 28> H 	 -39.0825 	 -46.334 	 -76.2687
| 29> C 	 -36.5809 	 -46.6755 	 -77.9033
| 30> H 	 -37.3542 	 -46.0544 	 -78.2377
| 31> H 	 -36.2937 	 -47.38 	 -78.6194
| 32> C 	 -35.4077 	 -45.8262 	 -77.5286
| 33> H 	 -35.0412 	 -45.2028 	 -78.3112
| 34> H 	 -34.5784 	 -46.5532 	 -77.4763
| 35> C 	 -35.3843 	 -44.9546 	 -76.2773
| 36> H 	 -35.6955 	 -45.6046 	 -75.4832
| 37> H 	 -35.9802 	 -44.0667 	 -76.3638
| 38> H 	 -34.3168 	 -44.6454 	 -75.9614
| 39> H 	 -33.9994 	 -52.2793 	 -78.7398
| 40> H 	 -39.7982 	 -47.8993 	 -74.8469
| 41> *
| 42>
| 43>                          ****END OF INPUT****

CARTESIAN COORDINATES (ANGSTROEM)
---------------------------------
  S    -36.163400  -51.360300  -77.659300
  C    -34.416600  -51.492400  -78.165500
  C    -33.662500  -50.482500  -77.605300
  C    -34.464300  -49.426700  -77.063800
  C    -35.846000  -49.688200  -77.141900
  H    -34.127100  -48.536100  -76.602600
  C    -32.094200  -50.315100  -77.632700
  H    -31.606700  -51.267400  -77.914100
  H    -31.785100  -49.976900  -76.594000
  C    -31.702000  -49.280400  -78.657100
  H    -31.882700  -49.624000  -79.639200
  H    -32.337100  -48.366800  -78.612300
  C    -30.181600  -48.962000  -78.777900
  H    -29.605900  -49.858300  -78.749300
  H    -29.898500  -48.410100  -79.627600
  H    -29.873800  -48.427600  -77.875200
  S    -37.903000  -49.567100  -75.248700
  C    -38.819100  -48.068200  -75.237000
  C    -38.437600  -47.177000  -76.180200
  C    -37.306400  -47.581800  -76.885100
  C    -36.896100  -48.873500  -76.566400
  H    -39.082500  -46.334000  -76.268700
  C    -36.580900  -46.675500  -77.903300
  H    -37.354200  -46.054400  -78.237700
  H    -36.293700  -47.380000  -78.619400
  C    -35.407700  -45.826200  -77.528600
  H    -35.041200  -45.202800  -78.311200
  H    -34.578400  -46.553200  -77.476300
  C    -35.384300  -44.954600  -76.277300
  H    -35.695500  -45.604600  -75.483200
  H    -35.980200  -44.066700  -76.363800
  H    -34.316800  -44.645400  -75.961400
  H    -33.999400  -52.279300  -78.739800
  H    -39.798200  -47.899300  -74.846900

 Total Charge           Charge          ....    0
 Multiplicity           Mult            ....    1
 Number of Electrons    NEL             ....  134
 Basis Dimension        Dim             ....  322

ORBITAL ENERGIES
----------------

  NO   OCC          E(Eh)            E(eV)
   0   2.0000     -88.970001     -2420.9968
   1   2.0000     -88.967242     -2420.9217
   2   2.0000     -10.335293      -281.2376
   3   2.0000     -10.328106      -281.0420
   4   2.0000     -10.320869      -280.8451
   5   2.0000     -10.309797      -280.5438
   6   2.0000     -10.308821      -280.5173
   7   2.0000     -10.307532      -280.4822
   8   2.0000     -10.302082      -280.3339
   9   2.0000     -10.298777      -280.2440
  10   2.0000     -10.285159      -279.8734
  11   2.0000     -10.285084      -279.8714
  12   2.0000     -10.280724      -279.7527
  13   2.0000     -10.280627      -279.7501
  14   2.0000     -10.278105      -279.6815
  15   2.0000     -10.274404      -279.5807
  16   2.0000      -8.083152      -219.9537
  17   2.0000      -8.081127      -219.8986
  18   2.0000      -6.041823      -164.4064
  19   2.0000      -6.039668      -164.3477
  20   2.0000      -6.038167      -164.3069
  21   2.0000      -6.035896      -164.2451
  22   2.0000      -6.033539      -164.1809
  23   2.0000      -6.031757      -164.1325
  24   2.0000      -1.002630       -27.2829
  25   2.0000      -0.978870       -26.6364
  26   2.0000      -0.911573       -24.8052
  27   2.0000      -0.910962       -24.7885
  28   2.0000      -0.871061       -23.7028
  29   2.0000      -0.851022       -23.1575
  30   2.0000      -0.844197       -22.9718
  31   2.0000      -0.815637       -22.1946
  32   2.0000      -0.788911       -21.4674
  33   2.0000      -0.778190       -21.1756
  34   2.0000      -0.714464       -19.4416
  35   2.0000      -0.700456       -19.0604
  36   2.0000      -0.692695       -18.8492
  37   2.0000      -0.659297       -17.9404
  38   2.0000      -0.644584       -17.5400
  39   2.0000      -0.620988       -16.8979
  40   2.0000      -0.580912       -15.8074
  41   2.0000      -0.570751       -15.5309
  42   2.0000      -0.565832       -15.3971
  43   2.0000      -0.558166       -15.1885
  44   2.0000      -0.552233       -15.0270
  45   2.0000      -0.528518       -14.3817
  46   2.0000      -0.517622       -14.0852
  47   2.0000      -0.512103       -13.9350
  48   2.0000      -0.499608       -13.5950
  49   2.0000      -0.498282       -13.5589
  50   2.0000      -0.491395       -13.3715
  51   2.0000      -0.480816       -13.0837
  52   2.0000      -0.472898       -12.8682
  53   2.0000      -0.470022       -12.7899
  54   2.0000      -0.463215       -12.6047
  55   2.0000      -0.448682       -12.2093
  56   2.0000      -0.445977       -12.1356
  57   2.0000      -0.444076       -12.0839
  58   2.0000      -0.436232       -11.8705
  59   2.0000      -0.427192       -11.6245
  60   2.0000      -0.415413       -11.3040
  61   2.0000      -0.409892       -11.1537
  62   2.0000      -0.404125       -10.9968
  63   2.0000      -0.343850        -9.3566
  64   2.0000      -0.335031        -9.1167
  65   2.0000      -0.331802        -9.0288
  66   2.0000      -0.292725        -7.9655
  67   0.0000       0.022878         0.6225
  68   0.0000       0.057307         1.5594
  69   0.0000       0.097766         2.6604
  70   0.0000       0.120833         3.2880
  71   0.0000       0.124820         3.3965

MULLIKEN ATOMIC CHARGES
-----------------------
   0 S :    0.099565
   1 C :   -0.111638
   2 C :   -0.061788
   3 C :    0.033752
   4 C :   -0.158583
   5 H :    0.010681
   6 C :    0.064241
   7 H :    0.028243
   8 H :    0.046801
   9 C :   -0.094310
  10 H :    0.012077
  11 H :    0.034587
  12 C :   -0.013750
  13 H :    0.015804
  14 H :    0.032586
  15 H :    0.021599
  16 S :    0.103339
  17 C :   -0.068546
  18 C :   -0.053735
  19 C :   -0.063829
  20 C :   -0.170363
  21 H :    0.009619
  22 C :    0.170423
  23 H :   -0.000219
  24 H :    0.022542
  25 C :   -0.055092
  26 H :    0.017438
  27 H :   -0.003795
  28 C :   -0.054281
  29 H :    0.034491
  30 H :    0.035292
  31 H :    0.037830
  32 H :    0.035107
  33 H :    0.043913
Sum of atomic charges:    0.0000000

LOEWDIN ATOMIC CHARGES
----------------------
   0 S :    0.366169
   1 C :   -0.167798
   2 C :   -0.054187
   3 C :   -0.050195
   4 C :   -0.181555
   5 H :    0.024003
   6 C :   -0.025349
   7 H :    0.031429
   8 H :    0.038518
   9 C :   -0.048192
  10 H :    0.019229
  11 H :    0.025847
  12 C :   -0.058174
  13 H :    0.020951
  14 H :    0.021655
  15 H :    0.022907
  16 S :    0.380290
  17 C :   -0.181613
  18 C :   -0.071519
  19 C :   -0.052336
  20 C :   -0.186842
  21 H :    0.032055
  22 C :   -0.017949
  23 H :    0.021352
  24 H :    0.030966
  25 C :   -0.046773
  26 H :    0.023131
  27 H :    0.021037
  28 C :   -0.066351
  29 H :    0.023490
  30 H :    0.020178
  31 H :    0.037314
  32 H :    0.021650
  33 H :    0.026662

  Mayer bond orders larger than 0.100000
B(  0-S ,  1-C ) :   1.1128 B(  0-S ,  4-C ) :   1.1302 B(  1-C ,  2-C ) :   1.6442
B(  1-C , 32-H ) :   0.9740 B(  2-C ,  3-C ) :   1.2079 B(  2-C ,  6-C ) :   1.0166
B(  3-C ,  4-C ) :   1.5777 B(  3-C ,  5-H ) :   0.9913 B(  4-C , 20-C ) :   1.0646
B(  6-C ,  7-H ) :   0.9406 B(  6-C ,  8-H ) :   0.9444 B(  6-C ,  9-C ) :   1.0629
B(  9-C , 10-H ) :   0.9523 B(  9-C , 11-H ) :   0.9588 B(  9-C , 12-C ) :   1.0764
B( 12-C , 13-H ) :   0.9713 B( 12-C , 14-H ) :   0.9776 B( 12-C , 15-H ) :   0.9758
B( 16-S , 17-C ) :   1.1348 B( 16-S , 20-C ) :   1.1257 B( 17-C , 18-C ) :   1.6661
B( 17-C , 33-H ) :   0.9538 B( 18-C , 19-C ) :   1.2221 B( 18-C , 21-H ) :   0.9936
B( 19-C , 20-C ) :   1.6060 B( 19-C , 22-C ) :   1.0188 B( 22-C , 23-H ) :   0.9273
B( 22-C , 24-H ) :   0.9197 B( 22-C , 25-C ) :   1.0815 B( 25-C , 26-H ) :   0.9462
B( 25-C , 27-H ) :   0.9466 B( 25-C , 28-C ) :   1.0839 B( 28-C , 29-H ) :   0.9727
B( 28-C , 30-H ) :   0.9761 B( 28-C , 31-H ) :   0.9720

Dispersion correction           -0.014787454
FINAL SINGLE POINT ENERGY     -1339.851527785107

DIPOLE MOMENT
-------------
                                X             Y             Z
Electronic contribution:    -23.96580     -18.90424       7.81939
Nuclear contribution   :     24.42087      19.30931      -8.09773
                        -----------------------------------------
Total Dipole Moment    :      0.45507       0.40507      -0.27834
                        -----------------------------------------
Magnitude (a.u.)       :      0.66981
Magnitude (Debye)      :      1.70252

Rotational constants in cm-1:     0.018280     0.009269     0.006678
Rotational constants in MHz :   548.005711   277.869646   200.207655

                             ****ORCA TERMINATED NORMALLY****
TOTAL RUN TIME: 0 days 0 hours 0 minutes 22 seconds 174 msec
