                         Program Version 4.2.1 -  RELEASE  -
|  1> ! wB97X-D3 SP def2-SVP
|  2> %pal
|  3> nprocs 24
|  4> end
|  5>
|  6> * xyz 0 1
|  7> S 	 -134.92 	 57.8622 	 -62.3686
|  8> C 	 -134.713 	 59.3144 	 -63.3277
|  9> C 	 -133.846 	 59.0657 	 -64.3737
| 10> C 	 -133.267 	 57.7829 	 -64.3438
| 11> C 	 -133.735 	 56.987 	 -63.3122
| 12> H 	 -132.537 	 57.3163 	 -65.0318
| 13> C 	 -133.473 	 60.168 	 -65.3907
| 14> H 	 -133.625 	 61.1125 	 -64.9016
| 15> H 	 -134.026 	 60.0241 	 -66.3058
| 16> C 	 -131.948 	 60.1907 	 -65.7366
| 17> H 	 -131.454 	 60.3724 	 -64.7705
| 18> H 	 -131.572 	 59.2118 	 -66.1302
| 19> C 	 -131.494 	 61.276 	 -66.7936
| 20> H 	 -131.938 	 62.2574 	 -66.6322
| 21> H 	 -130.423 	 61.3562 	 -66.7039
| 22> H 	 -131.823 	 60.9673 	 -67.765
| 23> S 	 -134.821 	 54.6102 	 -63.1369
| 24> C 	 -133.807 	 53.2547 	 -62.8303
| 25> C 	 -132.482 	 53.6044 	 -63.0992
| 26> C 	 -132.241 	 54.9971 	 -63.3448
| 27> C 	 -133.419 	 55.6029 	 -63.2084
| 28> H 	 -131.665 	 52.8694 	 -63.12
| 29> C 	 -130.847 	 55.5522 	 -63.579
| 30> H 	 -130.287 	 55.4693 	 -62.6229
| 31> H 	 -130.908 	 56.6141 	 -63.5755
| 32> C 	 -130.33 	 55.1375 	 -64.987
| 33> H 	 -131.083 	 55.3039 	 -65.7345
| 34> H 	 -130.196 	 53.9969 	 -64.9875
| 35> C 	 -129.035 	 55.7242 	 -65.4092
| 36> H 	 -128.396 	 55.6956 	 -64.5043
| 37> H 	 -129.083 	 56.799 	 -65.6256
| 38> H 	 -128.631 	 55.1975 	 -66.2288
| 39> H 	 -135.222 	 60.23 	 -63.1427
| 40> H 	 -134.191 	 52.334 	 -62.4992
| 41> *
| 42>
| 43>                          ****END OF INPUT****

CARTESIAN COORDINATES (ANGSTROEM)
---------------------------------
  S    -134.920000   57.862200  -62.368600
  C    -134.713000   59.314400  -63.327700
  C    -133.846000   59.065700  -64.373700
  C    -133.267000   57.782900  -64.343800
  C    -133.735000   56.987000  -63.312200
  H    -132.537000   57.316300  -65.031800
  C    -133.473000   60.168000  -65.390700
  H    -133.625000   61.112500  -64.901600
  H    -134.026000   60.024100  -66.305800
  C    -131.948000   60.190700  -65.736600
  H    -131.454000   60.372400  -64.770500
  H    -131.572000   59.211800  -66.130200
  C    -131.494000   61.276000  -66.793600
  H    -131.938000   62.257400  -66.632200
  H    -130.423000   61.356200  -66.703900
  H    -131.823000   60.967300  -67.765000
  S    -134.821000   54.610200  -63.136900
  C    -133.807000   53.254700  -62.830300
  C    -132.482000   53.604400  -63.099200
  C    -132.241000   54.997100  -63.344800
  C    -133.419000   55.602900  -63.208400
  H    -131.665000   52.869400  -63.120000
  C    -130.847000   55.552200  -63.579000
  H    -130.287000   55.469300  -62.622900
  H    -130.908000   56.614100  -63.575500
  C    -130.330000   55.137500  -64.987000
  H    -131.083000   55.303900  -65.734500
  H    -130.196000   53.996900  -64.987500
  C    -129.035000   55.724200  -65.409200
  H    -128.396000   55.695600  -64.504300
  H    -129.083000   56.799000  -65.625600
  H    -128.631000   55.197500  -66.228800
  H    -135.222000   60.230000  -63.142700
  H    -134.191000   52.334000  -62.499200

 Total Charge           Charge          ....    0
 Multiplicity           Mult            ....    1
 Number of Electrons    NEL             ....  134
 Basis Dimension        Dim             ....  322

ORBITAL ENERGIES
----------------

  NO   OCC          E(Eh)            E(eV)
   0   2.0000     -88.965763     -2420.8815
   1   2.0000     -88.960328     -2420.7336
   2   2.0000     -10.320358      -280.8312
   3   2.0000     -10.313247      -280.6377
   4   2.0000     -10.311317      -280.5852
   5   2.0000     -10.309425      -280.5337
   6   2.0000     -10.299852      -280.2732
   7   2.0000     -10.296539      -280.1831
   8   2.0000     -10.295060      -280.1428
   9   2.0000     -10.295027      -280.1419
  10   2.0000     -10.293505      -280.1005
  11   2.0000     -10.293369      -280.0968
  12   2.0000     -10.292117      -280.0627
  13   2.0000     -10.290879      -280.0290
  14   2.0000     -10.279682      -279.7244
  15   2.0000     -10.277304      -279.6597
  16   2.0000      -8.080254      -219.8749
  17   2.0000      -8.076801      -219.7809
  18   2.0000      -6.038706      -164.3215
  19   2.0000      -6.035225      -164.2268
  20   2.0000      -6.034699      -164.2125
  21   2.0000      -6.031287      -164.1197
  22   2.0000      -6.031180      -164.1167
  23   2.0000      -6.027303      -164.0113
  24   2.0000      -1.016776       -27.6679
  25   2.0000      -0.986862       -26.8539
  26   2.0000      -0.916174       -24.9304
  27   2.0000      -0.903680       -24.5904
  28   2.0000      -0.871982       -23.7278
  29   2.0000      -0.861042       -23.4302
  30   2.0000      -0.843035       -22.9401
  31   2.0000      -0.810039       -22.0423
  32   2.0000      -0.789087       -21.4722
  33   2.0000      -0.773777       -21.0555
  34   2.0000      -0.705985       -19.2108
  35   2.0000      -0.703136       -19.1333
  36   2.0000      -0.690513       -18.7898
  37   2.0000      -0.665083       -18.0978
  38   2.0000      -0.640455       -17.4277
  39   2.0000      -0.616697       -16.7812
  40   2.0000      -0.602650       -16.3989
  41   2.0000      -0.571296       -15.5457
  42   2.0000      -0.562057       -15.2944
  43   2.0000      -0.555088       -15.1047
  44   2.0000      -0.546236       -14.8638
  45   2.0000      -0.526283       -14.3209
  46   2.0000      -0.520764       -14.1707
  47   2.0000      -0.516805       -14.0630
  48   2.0000      -0.506008       -13.7692
  49   2.0000      -0.496657       -13.5147
  50   2.0000      -0.490844       -13.3565
  51   2.0000      -0.487683       -13.2705
  52   2.0000      -0.470727       -12.8091
  53   2.0000      -0.463655       -12.6167
  54   2.0000      -0.461757       -12.5651
  55   2.0000      -0.452658       -12.3174
  56   2.0000      -0.443285       -12.0624
  57   2.0000      -0.436679       -11.8826
  58   2.0000      -0.431183       -11.7331
  59   2.0000      -0.428395       -11.6572
  60   2.0000      -0.423652       -11.5282
  61   2.0000      -0.414464       -11.2781
  62   2.0000      -0.407696       -11.0940
  63   2.0000      -0.346177        -9.4199
  64   2.0000      -0.334174        -9.0933
  65   2.0000      -0.327016        -8.8986
  66   2.0000      -0.288664        -7.8550
  67   0.0000       0.030643         0.8338
  68   0.0000       0.079207         2.1553
  69   0.0000       0.108972         2.9653
  70   0.0000       0.121002         3.2926
  71   0.0000       0.133395         3.6299

MULLIKEN ATOMIC CHARGES
-----------------------
   0 S :    0.116198
   1 C :   -0.125820
   2 C :   -0.068480
   3 C :    0.013490
   4 C :   -0.166645
   5 H :    0.016456
   6 C :    0.110143
   7 H :    0.019304
   8 H :    0.039267
   9 C :   -0.162681
  10 H :    0.035735
  11 H :    0.037939
  12 C :   -0.022120
  13 H :    0.025519
  14 H :    0.039357
  15 H :    0.028440
  16 S :    0.115019
  17 C :   -0.075158
  18 C :   -0.038187
  19 C :   -0.056569
  20 C :   -0.164125
  21 H :    0.015746
  22 C :    0.098952
  23 H :    0.045455
  24 H :   -0.004974
  25 C :   -0.109149
  26 H :    0.034093
  27 H :    0.036241
  28 C :   -0.001163
  29 H :    0.027476
  30 H :    0.028041
  31 H :    0.035590
  32 H :    0.038774
  33 H :    0.037833
Sum of atomic charges:    0.0000000

LOEWDIN ATOMIC CHARGES
----------------------
   0 S :    0.406674
   1 C :   -0.194938
   2 C :   -0.063615
   3 C :   -0.067601
   4 C :   -0.199903
   5 H :    0.035318
   6 C :   -0.024304
   7 H :    0.028120
   8 H :    0.029114
   9 C :   -0.044551
  10 H :    0.023231
  11 H :    0.021305
  12 C :   -0.060113
  13 H :    0.022742
  14 H :    0.027829
  15 H :    0.021284
  16 S :    0.422835
  17 C :   -0.190902
  18 C :   -0.061145
  19 C :   -0.062972
  20 C :   -0.197647
  21 H :    0.027598
  22 C :   -0.035374
  23 H :    0.043645
  24 H :    0.022832
  25 C :   -0.040348
  26 H :    0.022235
  27 H :    0.031165
  28 C :   -0.063374
  29 H :    0.031279
  30 H :    0.024827
  31 H :    0.023959
  32 H :    0.023812
  33 H :    0.016982

  Mayer bond orders larger than 0.100000
B(  0-S ,  1-C ) :   1.1362 B(  0-S ,  4-C ) :   1.1574 B(  1-C ,  2-C ) :   1.5920
B(  1-C ,  4-C ) :   0.1003 B(  1-C , 32-H ) :   0.9776 B(  2-C ,  3-C ) :   1.2602
B(  2-C ,  6-C ) :   1.0116 B(  3-C ,  4-C ) :   1.5477 B(  3-C ,  5-H ) :   0.9859
B(  4-C , 20-C ) :   1.0466 B(  6-C ,  7-H ) :   0.9470 B(  6-C ,  8-H ) :   0.9363
B(  6-C ,  9-C ) :   1.0653 B(  9-C , 10-H ) :   0.9647 B(  9-C , 11-H ) :   0.9526
B(  9-C , 12-C ) :   1.0744 B( 12-C , 13-H ) :   0.9769 B( 12-C , 14-H ) :   0.9763
B( 12-C , 15-H ) :   0.9769 B( 16-S , 17-C ) :   1.1353 B( 16-S , 20-C ) :   1.1616
B( 17-C , 18-C ) :   1.6039 B( 17-C , 33-H ) :   0.9835 B( 18-C , 19-C ) :   1.2095
B( 18-C , 21-H ) :   0.9858 B( 19-C , 20-C ) :   1.6281 B( 19-C , 22-C ) :   1.0453
B( 22-C , 23-H ) :   0.9278 B( 22-C , 24-H ) :   0.9209 B( 22-C , 25-C ) :   1.0404
B( 25-C , 26-H ) :   0.9512 B( 25-C , 27-H ) :   0.9551 B( 25-C , 28-C ) :   1.0954
B( 28-C , 29-H ) :   0.9687 B( 28-C , 30-H ) :   0.9696 B( 28-C , 31-H ) :   0.9711

Dispersion correction           -0.014322834
FINAL SINGLE POINT ENERGY     -1339.869544824280

DIPOLE MOMENT
-------------
                                X             Y             Z
Electronic contribution:    -25.11534     -12.29082      17.94105
Nuclear contribution   :     25.67471      12.49060     -18.34425
                        -----------------------------------------
Total Dipole Moment    :      0.55936       0.19978      -0.40320
                        -----------------------------------------
Magnitude (a.u.)       :      0.71790
Magnitude (Debye)      :      1.82475

Rotational constants in cm-1:     0.016409     0.010145     0.006652
Rotational constants in MHz :   491.937609   304.136978   199.420353

                             ****ORCA TERMINATED NORMALLY****
TOTAL RUN TIME: 0 days 0 hours 0 minutes 22 seconds 116 msec
