                         Program Version 4.2.1 -  RELEASE  -
|  1> ! wB97X-D3 SP def2-SVP
|  2> %pal
|  3> nprocs 24
|  4> end
|  5>
|  6> * xyz 0 1
|  7> S 	 -104.614 	 3.33332 	 -106.584
|  8> C 	 -103.558 	 4.69773 	 -106.308
|  9> C 	 -102.813 	 4.58749 	 -105.173
| 10> C 	 -102.835 	 3.25894 	 -104.615
| 11> C 	 -103.804 	 2.4715 	 -105.215
| 12> H 	 -102.301 	 2.91089 	 -103.738
| 13> C 	 -101.824 	 5.65918 	 -104.77
| 14> H 	 -102.292 	 6.25618 	 -103.969
| 15> H 	 -101.642 	 6.29038 	 -105.611
| 16> C 	 -100.494 	 5.19875 	 -104.141
| 17> H 	 -100.712 	 4.70225 	 -103.14
| 18> H 	 -100.131 	 4.40334 	 -104.739
| 19> C 	 -99.4483 	 6.30068 	 -104.042
| 20> H 	 -99.2524 	 6.79579 	 -105.013
| 21> H 	 -99.6924 	 6.93663 	 -103.242
| 22> H 	 -98.5102 	 5.91513 	 -103.709
| 23> S 	 -105.577 	 0.844624 	 -103.745
| 24> C 	 -105.256 	 -0.868153 	 -103.754
| 25> C 	 -104.091 	 -1.21256 	 -104.378
| 26> C 	 -103.552 	 -0.0595598 	 -105.067
| 27> C 	 -104.238 	 1.1103 	 -104.8
| 28> H 	 -103.747 	 -2.19512 	 -104.407
| 29> C 	 -102.202 	 -0.100579 	 -105.883
| 30> H 	 -102.014 	 0.838467 	 -106.215
| 31> H 	 -102.338 	 -0.843123 	 -106.789
| 32> C 	 -100.957 	 -0.65593 	 -105.121
| 33> H 	 -100.077 	 -0.343823 	 -105.674
| 34> H 	 -101.039 	 -1.78633 	 -104.974
| 35> C 	 -100.606 	 0.0106238 	 -103.783
| 36> H 	 -101.456 	 -0.014292 	 -103.074
| 37> H 	 -100.243 	 1.02438 	 -103.81
| 38> H 	 -99.7627 	 -0.646914 	 -103.335
| 39> H 	 -103.602 	 5.48372 	 -106.976
| 40> H 	 -105.865 	 -1.5676 	 -103.107
| 41> *
| 42>
| 43>                          ****END OF INPUT****

CARTESIAN COORDINATES (ANGSTROEM)
---------------------------------
  S    -104.614000    3.333320  -106.584000
  C    -103.558000    4.697730  -106.308000
  C    -102.813000    4.587490  -105.173000
  C    -102.835000    3.258940  -104.615000
  C    -103.804000    2.471500  -105.215000
  H    -102.301000    2.910890  -103.738000
  C    -101.824000    5.659180  -104.770000
  H    -102.292000    6.256180  -103.969000
  H    -101.642000    6.290380  -105.611000
  C    -100.494000    5.198750  -104.141000
  H    -100.712000    4.702250  -103.140000
  H    -100.131000    4.403340  -104.739000
  C    -99.448300    6.300680  -104.042000
  H    -99.252400    6.795790  -105.013000
  H    -99.692400    6.936630  -103.242000
  H    -98.510200    5.915130  -103.709000
  S    -105.577000    0.844624  -103.745000
  C    -105.256000   -0.868153  -103.754000
  C    -104.091000   -1.212560  -104.378000
  C    -103.552000   -0.059560  -105.067000
  C    -104.238000    1.110300  -104.800000
  H    -103.747000   -2.195120  -104.407000
  C    -102.202000   -0.100579  -105.883000
  H    -102.014000    0.838467  -106.215000
  H    -102.338000   -0.843123  -106.789000
  C    -100.957000   -0.655930  -105.121000
  H    -100.077000   -0.343823  -105.674000
  H    -101.039000   -1.786330  -104.974000
  C    -100.606000    0.010624  -103.783000
  H    -101.456000   -0.014292  -103.074000
  H    -100.243000    1.024380  -103.810000
  H    -99.762700   -0.646914  -103.335000
  H    -103.602000    5.483720  -106.976000
  H    -105.865000   -1.567600  -103.107000

 Total Charge           Charge          ....    0
 Multiplicity           Mult            ....    1
 Number of Electrons    NEL             ....  134
 Basis Dimension        Dim             ....  322

ORBITAL ENERGIES
----------------

  NO   OCC          E(Eh)            E(eV)
   0   2.0000     -88.965502     -2420.8744
   1   2.0000     -88.962970     -2420.8055
   2   2.0000     -10.333797      -281.1969
   3   2.0000     -10.321917      -280.8736
   4   2.0000     -10.320251      -280.8283
   5   2.0000     -10.307553      -280.4828
   6   2.0000     -10.304455      -280.3985
   7   2.0000     -10.300383      -280.2877
   8   2.0000     -10.299176      -280.2548
   9   2.0000     -10.293458      -280.0992
  10   2.0000     -10.292790      -280.0811
  11   2.0000     -10.291382      -280.0427
  12   2.0000     -10.289278      -279.9855
  13   2.0000     -10.288569      -279.9662
  14   2.0000     -10.281420      -279.7717
  15   2.0000     -10.276708      -279.6434
  16   2.0000      -8.080912      -219.8928
  17   2.0000      -8.077220      -219.7923
  18   2.0000      -6.039332      -164.3386
  19   2.0000      -6.035670      -164.2389
  20   2.0000      -6.035423      -164.2322
  21   2.0000      -6.031884      -164.1359
  22   2.0000      -6.031624      -164.1288
  23   2.0000      -6.027980      -164.0297
  24   2.0000      -1.003593       -27.3091
  25   2.0000      -0.983272       -26.7562
  26   2.0000      -0.910936       -24.7878
  27   2.0000      -0.898848       -24.4589
  28   2.0000      -0.869193       -23.6520
  29   2.0000      -0.848423       -23.0868
  30   2.0000      -0.844934       -22.9918
  31   2.0000      -0.818497       -22.2724
  32   2.0000      -0.781949       -21.2779
  33   2.0000      -0.770082       -20.9550
  34   2.0000      -0.708856       -19.2889
  35   2.0000      -0.689462       -18.7612
  36   2.0000      -0.685775       -18.6609
  37   2.0000      -0.656044       -17.8519
  38   2.0000      -0.648183       -17.6380
  39   2.0000      -0.619629       -16.8610
  40   2.0000      -0.593692       -16.1552
  41   2.0000      -0.575367       -15.6565
  42   2.0000      -0.563870       -15.3437
  43   2.0000      -0.552026       -15.0214
  44   2.0000      -0.532877       -14.5003
  45   2.0000      -0.520596       -14.1661
  46   2.0000      -0.519555       -14.1378
  47   2.0000      -0.514718       -14.0062
  48   2.0000      -0.504778       -13.7357
  49   2.0000      -0.492417       -13.3994
  50   2.0000      -0.491015       -13.3612
  51   2.0000      -0.478022       -13.0076
  52   2.0000      -0.472830       -12.8664
  53   2.0000      -0.462459       -12.5841
  54   2.0000      -0.459854       -12.5133
  55   2.0000      -0.451748       -12.2927
  56   2.0000      -0.444358       -12.0916
  57   2.0000      -0.433572       -11.7981
  58   2.0000      -0.430701       -11.7200
  59   2.0000      -0.425217       -11.5707
  60   2.0000      -0.420082       -11.4310
  61   2.0000      -0.418310       -11.3828
  62   2.0000      -0.405750       -11.0410
  63   2.0000      -0.339669        -9.2429
  64   2.0000      -0.330585        -8.9957
  65   2.0000      -0.320835        -8.7304
  66   2.0000      -0.308402        -8.3921
  67   0.0000       0.047305         1.2872
  68   0.0000       0.055993         1.5236
  69   0.0000       0.115670         3.1475
  70   0.0000       0.119337         3.2473
  71   0.0000       0.124751         3.3946

MULLIKEN ATOMIC CHARGES
-----------------------
   0 S :    0.100887
   1 C :   -0.115275
   2 C :   -0.050691
   3 C :    0.042787
   4 C :   -0.189205
   5 H :    0.019993
   6 C :    0.075068
   7 H :    0.036642
   8 H :    0.013856
   9 C :   -0.126375
  10 H :    0.036567
  11 H :    0.020596
  12 C :    0.003829
  13 H :    0.041720
  14 H :    0.021357
  15 H :    0.016821
  16 S :    0.123054
  17 C :   -0.117313
  18 C :    0.001177
  19 C :   -0.056785
  20 C :   -0.166857
  21 H :    0.000739
  22 C :    0.114322
  23 H :    0.001388
  24 H :    0.049605
  25 C :   -0.102579
  26 H :    0.037454
  27 H :    0.047101
  28 C :   -0.093556
  29 H :    0.040509
  30 H :    0.034316
  31 H :    0.041038
  32 H :    0.022340
  33 H :    0.075469
Sum of atomic charges:    0.0000000

LOEWDIN ATOMIC CHARGES
----------------------
   0 S :    0.377703
   1 C :   -0.176648
   2 C :   -0.062455
   3 C :   -0.055482
   4 C :   -0.170740
   5 H :    0.034799
   6 C :   -0.031046
   7 H :    0.036097
   8 H :    0.024302
   9 C :   -0.045219
  10 H :    0.028671
  11 H :    0.013830
  12 C :   -0.058575
  13 H :    0.032153
  14 H :    0.021359
  15 H :    0.025170
  16 S :    0.416967
  17 C :   -0.186711
  18 C :   -0.066971
  19 C :   -0.049302
  20 C :   -0.224567
  21 H :    0.023727
  22 C :   -0.022329
  23 H :    0.009559
  24 H :    0.045137
  25 C :   -0.049566
  26 H :    0.030477
  27 H :    0.030575
  28 C :   -0.076516
  29 H :    0.022082
  30 H :    0.018206
  31 H :    0.037086
  32 H :    0.009951
  33 H :    0.038278

  Mayer bond orders larger than 0.100000
B(  0-S ,  1-C ) :   1.1355 B(  0-S ,  4-C ) :   1.1379 B(  1-C ,  2-C ) :   1.6290
B(  1-C , 32-H ) :   0.9814 B(  2-C ,  3-C ) :   1.2084 B(  2-C ,  6-C ) :   1.0236
B(  3-C ,  4-C ) :   1.6139 B(  3-C ,  5-H ) :   0.9882 B(  4-C , 20-C ) :   1.0028
B(  6-C ,  7-H ) :   0.9223 B(  6-C ,  8-H ) :   0.9514 B(  6-C ,  9-C ) :   1.0740
B(  9-C , 10-H ) :   0.9439 B(  9-C , 11-H ) :   0.9603 B(  9-C , 12-C ) :   1.0915
B( 12-C , 13-H ) :   0.9731 B( 12-C , 14-H ) :   0.9725 B( 12-C , 15-H ) :   0.9680
B( 16-S , 17-C ) :   1.1618 B( 16-S , 20-C ) :   1.1441 B( 17-C , 18-C ) :   1.6206
B( 17-C , 33-H ) :   0.9570 B( 18-C , 19-C ) :   1.2204 B( 18-C , 21-H ) :   1.0034
B( 19-C , 20-C ) :   1.6212 B( 19-C , 22-C ) :   1.0375 B( 22-C , 23-H ) :   0.9275
B( 22-C , 24-H ) :   0.9402 B( 22-C , 25-C ) :   1.0700 B( 25-C , 26-H ) :   0.9570
B( 25-C , 27-H ) :   0.9562 B( 25-C , 28-C ) :   1.0708 B( 28-C , 29-H ) :   0.9725
B( 28-C , 30-H ) :   0.9759 B( 28-C , 31-H ) :   0.9722

Dispersion correction           -0.015168866
FINAL SINGLE POINT ENERGY     -1339.871498351507

DIPOLE MOMENT
-------------
                                X             Y             Z
Electronic contribution:    -28.88627      -4.74176      -5.50767
Nuclear contribution   :     29.57233       4.77817       5.71669
                        -----------------------------------------
Total Dipole Moment    :      0.68607       0.03641       0.20903
                        -----------------------------------------
Magnitude (a.u.)       :      0.71813
Magnitude (Debye)      :      1.82534

Rotational constants in cm-1:     0.018407     0.008926     0.007112
Rotational constants in MHz :   551.840047   267.599869   213.209857

                             ****ORCA TERMINATED NORMALLY****
TOTAL RUN TIME: 0 days 0 hours 0 minutes 22 seconds 122 msec
