                         Program Version 4.2.1 -  RELEASE  -
|  1> ! wB97X-D3 SP def2-SVP
|  2> %pal
|  3> nprocs 24
|  4> end
|  5>
|  6> * xyz 0 1
|  7> S 	 -138.891 	 16.1897 	 -3.28963
|  8> C 	 -139.994 	 14.9105 	 -2.81064
|  9> C 	 -139.384 	 14.1098 	 -1.82549
| 10> C 	 -137.997 	 14.4985 	 -1.54519
| 11> C 	 -137.627 	 15.62 	 -2.1912
| 12> H 	 -137.318 	 14.043 	 -0.840282
| 13> C 	 -139.991 	 12.9407 	 -1.124
| 14> H 	 -140.908 	 12.6939 	 -1.75415
| 15> H 	 -140.523 	 13.2603 	 -0.190104
| 16> C 	 -139.088 	 11.6694 	 -1.03781
| 17> H 	 -138.523 	 11.5312 	 -1.96095
| 18> H 	 -138.389 	 11.8401 	 -0.203442
| 19> C 	 -139.859 	 10.3065 	 -0.847661
| 20> H 	 -140.596 	 10.1135 	 -1.72179
| 21> H 	 -139.195 	 9.41431 	 -0.887783
| 22> H 	 -140.429 	 10.2955 	 0.0881424
| 23> S 	 -136.155 	 18.0612 	 -1.8984
| 24> C 	 -134.475 	 18.1171 	 -1.84487
| 25> C 	 -133.96 	 16.8215 	 -1.90763
| 26> C 	 -134.973 	 15.8048 	 -2.02535
| 27> C 	 -136.278 	 16.3064 	 -2.06907
| 28> H 	 -132.86 	 16.604 	 -1.84728
| 29> C 	 -134.676 	 14.3436 	 -1.98866
| 30> H 	 -133.689 	 14.3281 	 -2.48216
| 31> H 	 -135.433 	 13.8125 	 -2.58213
| 32> C 	 -134.383 	 13.7373 	 -0.679675
| 33> H 	 -135.208 	 13.6946 	 -0.0498044
| 34> H 	 -133.593 	 14.3215 	 -0.174599
| 35> C 	 -133.972 	 12.2329 	 -0.798408
| 36> H 	 -133.664 	 11.8176 	 0.177746
| 37> H 	 -133.111 	 12.0886 	 -1.44843
| 38> H 	 -134.682 	 11.544 	 -1.32878
| 39> H 	 -140.927 	 14.8017 	 -3.22791
| 40> H 	 -133.893 	 19.014 	 -1.80147
| 41> *
| 42>
| 43>                          ****END OF INPUT****

CARTESIAN COORDINATES (ANGSTROEM)
---------------------------------
  S    -138.891000   16.189700   -3.289630
  C    -139.994000   14.910500   -2.810640
  C    -139.384000   14.109800   -1.825490
  C    -137.997000   14.498500   -1.545190
  C    -137.627000   15.620000   -2.191200
  H    -137.318000   14.043000   -0.840282
  C    -139.991000   12.940700   -1.124000
  H    -140.908000   12.693900   -1.754150
  H    -140.523000   13.260300   -0.190104
  C    -139.088000   11.669400   -1.037810
  H    -138.523000   11.531200   -1.960950
  H    -138.389000   11.840100   -0.203442
  C    -139.859000   10.306500   -0.847661
  H    -140.596000   10.113500   -1.721790
  H    -139.195000    9.414310   -0.887783
  H    -140.429000   10.295500    0.088142
  S    -136.155000   18.061200   -1.898400
  C    -134.475000   18.117100   -1.844870
  C    -133.960000   16.821500   -1.907630
  C    -134.973000   15.804800   -2.025350
  C    -136.278000   16.306400   -2.069070
  H    -132.860000   16.604000   -1.847280
  C    -134.676000   14.343600   -1.988660
  H    -133.689000   14.328100   -2.482160
  H    -135.433000   13.812500   -2.582130
  C    -134.383000   13.737300   -0.679675
  H    -135.208000   13.694600   -0.049804
  H    -133.593000   14.321500   -0.174599
  C    -133.972000   12.232900   -0.798408
  H    -133.664000   11.817600    0.177746
  H    -133.111000   12.088600   -1.448430
  H    -134.682000   11.544000   -1.328780
  H    -140.927000   14.801700   -3.227910
  H    -133.893000   19.014000   -1.801470

 Total Charge           Charge          ....    0
 Multiplicity           Mult            ....    1
 Number of Electrons    NEL             ....  134
 Basis Dimension        Dim             ....  322

ORBITAL ENERGIES
----------------

  NO   OCC          E(Eh)            E(eV)
   0   2.0000     -88.965531     -2420.8752
   1   2.0000     -88.963840     -2420.8292
   2   2.0000     -10.335118      -281.2329
   3   2.0000     -10.331423      -281.1323
   4   2.0000     -10.316702      -280.7317
   5   2.0000     -10.315860      -280.7088
   6   2.0000     -10.309305      -280.5304
   7   2.0000     -10.303162      -280.3633
   8   2.0000     -10.300832      -280.2999
   9   2.0000     -10.299625      -280.2670
  10   2.0000     -10.298587      -280.2388
  11   2.0000     -10.294558      -280.1292
  12   2.0000     -10.293673      -280.1051
  13   2.0000     -10.286521      -279.9105
  14   2.0000     -10.284972      -279.8683
  15   2.0000     -10.284339      -279.8511
  16   2.0000      -8.079975      -219.8673
  17   2.0000      -8.079500      -219.8544
  18   2.0000      -6.038621      -164.3192
  19   2.0000      -6.037892      -164.2994
  20   2.0000      -6.034525      -164.2078
  21   2.0000      -6.033646      -164.1839
  22   2.0000      -6.030594      -164.1008
  23   2.0000      -6.030559      -164.0999
  24   2.0000      -1.005078       -27.3496
  25   2.0000      -0.985593       -26.8193
  26   2.0000      -0.920642       -25.0520
  27   2.0000      -0.904666       -24.6172
  28   2.0000      -0.866859       -23.5884
  29   2.0000      -0.849391       -23.1131
  30   2.0000      -0.843030       -22.9400
  31   2.0000      -0.817098       -22.2344
  32   2.0000      -0.780091       -21.2274
  33   2.0000      -0.768227       -20.9045
  34   2.0000      -0.709073       -19.2949
  35   2.0000      -0.702913       -19.1272
  36   2.0000      -0.694178       -18.8895
  37   2.0000      -0.658725       -17.9248
  38   2.0000      -0.648016       -17.6334
  39   2.0000      -0.620699       -16.8901
  40   2.0000      -0.597894       -16.2695
  41   2.0000      -0.572202       -15.5704
  42   2.0000      -0.569537       -15.4979
  43   2.0000      -0.555227       -15.1085
  44   2.0000      -0.528717       -14.3871
  45   2.0000      -0.523676       -14.2499
  46   2.0000      -0.519359       -14.1325
  47   2.0000      -0.513765       -13.9803
  48   2.0000      -0.509800       -13.8724
  49   2.0000      -0.497162       -13.5285
  50   2.0000      -0.488867       -13.3028
  51   2.0000      -0.481554       -13.1037
  52   2.0000      -0.467901       -12.7322
  53   2.0000      -0.465611       -12.6699
  54   2.0000      -0.456326       -12.4173
  55   2.0000      -0.451141       -12.2762
  56   2.0000      -0.445854       -12.1323
  57   2.0000      -0.441374       -12.0104
  58   2.0000      -0.437724       -11.9111
  59   2.0000      -0.425792       -11.5864
  60   2.0000      -0.420726       -11.4485
  61   2.0000      -0.415103       -11.2955
  62   2.0000      -0.405422       -11.0321
  63   2.0000      -0.352285        -9.5862
  64   2.0000      -0.328297        -8.9334
  65   2.0000      -0.326514        -8.8849
  66   2.0000      -0.295928        -8.0526
  67   0.0000       0.032926         0.8960
  68   0.0000       0.073451         1.9987
  69   0.0000       0.119496         3.2517
  70   0.0000       0.121774         3.3136
  71   0.0000       0.126240         3.4352

MULLIKEN ATOMIC CHARGES
-----------------------
   0 S :    0.103335
   1 C :   -0.088093
   2 C :   -0.085855
   3 C :    0.014658
   4 C :   -0.107107
   5 H :   -0.001866
   6 C :    0.034566
   7 H :    0.015229
   8 H :    0.054644
   9 C :   -0.083514
  10 H :    0.042457
  11 H :    0.044581
  12 C :   -0.091544
  13 H :    0.043314
  14 H :    0.044219
  15 H :    0.041450
  16 S :    0.108615
  17 C :   -0.081495
  18 C :   -0.054857
  19 C :   -0.050402
  20 C :   -0.153889
  21 H :    0.034676
  22 C :    0.039028
  23 H :    0.015216
  24 H :    0.039135
  25 C :   -0.019265
  26 H :    0.013184
  27 H :    0.029085
  28 C :   -0.071131
  29 H :    0.040602
  30 H :    0.015074
  31 H :    0.034768
  32 H :    0.022146
  33 H :    0.059039
Sum of atomic charges:   -0.0000000

LOEWDIN ATOMIC CHARGES
----------------------
   0 S :    0.392485
   1 C :   -0.181820
   2 C :   -0.056339
   3 C :   -0.065680
   4 C :   -0.178350
   5 H :    0.030963
   6 C :   -0.048606
   7 H :    0.033748
   8 H :    0.040516
   9 C :   -0.041712
  10 H :    0.029096
  11 H :    0.025431
  12 C :   -0.075268
  13 H :    0.033357
  14 H :    0.029485
  15 H :    0.023760
  16 S :    0.430762
  17 C :   -0.202221
  18 C :   -0.086131
  19 C :   -0.058523
  20 C :   -0.199500
  21 H :    0.037766
  22 C :   -0.040772
  23 H :    0.035808
  24 H :    0.034043
  25 C :   -0.033132
  26 H :    0.009464
  27 H :    0.031271
  28 C :   -0.072159
  29 H :    0.028575
  30 H :    0.019720
  31 H :    0.030355
  32 H :    0.012583
  33 H :    0.031025

  Mayer bond orders larger than 0.100000
B(  0-S ,  1-C ) :   1.1261 B(  0-S ,  4-C ) :   1.1443 B(  1-C ,  2-C ) :   1.6150
B(  1-C , 32-H ) :   0.9830 B(  2-C ,  3-C ) :   1.1938 B(  2-C ,  6-C ) :   1.0408
B(  3-C ,  4-C ) :   1.6129 B(  3-C ,  5-H ) :   0.9966 B(  4-C , 20-C ) :   1.0106
B(  6-C ,  7-H ) :   0.9413 B(  6-C ,  8-H ) :   0.9311 B(  6-C ,  9-C ) :   1.0433
B(  9-C , 10-H ) :   0.9630 B(  9-C , 11-H ) :   0.9503 B(  9-C , 12-C ) :   1.0791
B( 12-C , 13-H ) :   0.9747 B( 12-C , 14-H ) :   0.9766 B( 12-C , 15-H ) :   0.9771
B( 16-S , 17-C ) :   1.1951 B( 16-S , 20-C ) :   1.1468 B( 17-C , 18-C ) :   1.5492
B( 17-C , 33-H ) :   0.9718 B( 18-C , 19-C ) :   1.2813 B( 18-C , 21-H ) :   0.9824
B( 19-C , 20-C ) :   1.5635 B( 19-C , 22-C ) :   1.0573 B( 22-C , 23-H ) :   0.9197
B( 22-C , 24-H ) :   0.9311 B( 22-C , 25-C ) :   1.0829 B( 25-C , 26-H ) :   0.9487
B( 25-C , 27-H ) :   0.9453 B( 25-C , 28-C ) :   1.0737 B( 28-C , 29-H ) :   0.9752
B( 28-C , 30-H ) :   0.9741 B( 28-C , 31-H ) :   0.9736

Dispersion correction           -0.014293606
FINAL SINGLE POINT ENERGY     -1339.880224564021

DIPOLE MOMENT
-------------
                                X             Y             Z
Electronic contribution:     -3.66504      32.00528     -10.01378
Nuclear contribution   :      3.86257     -32.63051      10.29383
                        -----------------------------------------
Total Dipole Moment    :      0.19752      -0.62524       0.28005
                        -----------------------------------------
Magnitude (a.u.)       :      0.71300
Magnitude (Debye)      :      1.81229

Rotational constants in cm-1:     0.017346     0.009447     0.006421
Rotational constants in MHz :   520.012933   283.207382   192.491563

                             ****ORCA TERMINATED NORMALLY****
TOTAL RUN TIME: 0 days 0 hours 0 minutes 21 seconds 888 msec
