                         Program Version 4.2.1 -  RELEASE  -
|  1> ! wB97X-D3 SP def2-SVP
|  2> %pal
|  3> nprocs 24
|  4> end
|  5>
|  6> * xyz 0 1
|  7> S 	 -91.1593 	 -10.6853 	 -115.153
|  8> C 	 -92.5495 	 -11.4738 	 -115.726
|  9> C 	 -93.2139 	 -10.8762 	 -116.775
| 10> C 	 -92.419 	 -9.80485 	 -117.263
| 11> C 	 -91.3164 	 -9.55374 	 -116.467
| 12> H 	 -92.6168 	 -9.21271 	 -118.116
| 13> C 	 -94.4895 	 -11.3773 	 -117.43
| 14> H 	 -94.7559 	 -12.3457 	 -116.974
| 15> H 	 -94.4504 	 -11.5675 	 -118.535
| 16> C 	 -95.7039 	 -10.3606 	 -117.254
| 17> H 	 -95.6286 	 -9.46984 	 -117.863
| 18> H 	 -96.5253 	 -10.9937 	 -117.589
| 19> C 	 -95.9964 	 -9.9471 	 -115.8
| 20> H 	 -97.0756 	 -9.83029 	 -115.638
| 21> H 	 -95.7097 	 -10.7921 	 -115.122
| 22> H 	 -95.3936 	 -9.03707 	 -115.449
| 23> S 	 -88.8091 	 -8.9815 	 -117.488
| 24> C 	 -88.5015 	 -7.29805 	 -117.978
| 25> C 	 -89.4782 	 -6.45497 	 -117.567
| 26> C 	 -90.5928 	 -7.13729 	 -116.951
| 27> C 	 -90.3436 	 -8.49701 	 -116.84
| 28> H 	 -89.3387 	 -5.40339 	 -117.742
| 29> C 	 -91.843 	 -6.40404 	 -116.454
| 30> H 	 -92.6055 	 -6.83544 	 -117.064
| 31> H 	 -91.835 	 -5.33926 	 -116.744
| 32> C 	 -92.2057 	 -6.49482 	 -114.953
| 33> H 	 -92.3463 	 -7.55449 	 -114.663
| 34> H 	 -93.1645 	 -5.96418 	 -114.87
| 35> C 	 -91.1196 	 -5.8421 	 -114.109
| 36> H 	 -91.0604 	 -4.7954 	 -114.306
| 37> H 	 -90.1426 	 -6.36298 	 -114.31
| 38> H 	 -91.2923 	 -5.87843 	 -113.059
| 39> H 	 -93.0303 	 -12.3271 	 -115.225
| 40> H 	 -87.6117 	 -7.11112 	 -118.583
| 41> *
| 42>
| 43>                          ****END OF INPUT****

CARTESIAN COORDINATES (ANGSTROEM)
---------------------------------
  S    -91.159300  -10.685300  -115.153000
  C    -92.549500  -11.473800  -115.726000
  C    -93.213900  -10.876200  -116.775000
  C    -92.419000   -9.804850  -117.263000
  C    -91.316400   -9.553740  -116.467000
  H    -92.616800   -9.212710  -118.116000
  C    -94.489500  -11.377300  -117.430000
  H    -94.755900  -12.345700  -116.974000
  H    -94.450400  -11.567500  -118.535000
  C    -95.703900  -10.360600  -117.254000
  H    -95.628600   -9.469840  -117.863000
  H    -96.525300  -10.993700  -117.589000
  C    -95.996400   -9.947100  -115.800000
  H    -97.075600   -9.830290  -115.638000
  H    -95.709700  -10.792100  -115.122000
  H    -95.393600   -9.037070  -115.449000
  S    -88.809100   -8.981500  -117.488000
  C    -88.501500   -7.298050  -117.978000
  C    -89.478200   -6.454970  -117.567000
  C    -90.592800   -7.137290  -116.951000
  C    -90.343600   -8.497010  -116.840000
  H    -89.338700   -5.403390  -117.742000
  C    -91.843000   -6.404040  -116.454000
  H    -92.605500   -6.835440  -117.064000
  H    -91.835000   -5.339260  -116.744000
  C    -92.205700   -6.494820  -114.953000
  H    -92.346300   -7.554490  -114.663000
  H    -93.164500   -5.964180  -114.870000
  C    -91.119600   -5.842100  -114.109000
  H    -91.060400   -4.795400  -114.306000
  H    -90.142600   -6.362980  -114.310000
  H    -91.292300   -5.878430  -113.059000
  H    -93.030300  -12.327100  -115.225000
  H    -87.611700   -7.111120  -118.583000

 Total Charge           Charge          ....    0
 Multiplicity           Mult            ....    1
 Number of Electrons    NEL             ....  134
 Basis Dimension        Dim             ....  322

ORBITAL ENERGIES
----------------

  NO   OCC          E(Eh)            E(eV)
   0   2.0000     -88.971481     -2421.0371
   1   2.0000     -88.960764     -2420.7455
   2   2.0000     -10.325114      -280.9606
   3   2.0000     -10.322242      -280.8825
   4   2.0000     -10.315914      -280.7103
   5   2.0000     -10.309370      -280.5322
   6   2.0000     -10.303471      -280.3717
   7   2.0000     -10.302173      -280.3364
   8   2.0000     -10.297757      -280.2162
   9   2.0000     -10.292219      -280.0655
  10   2.0000     -10.290019      -280.0057
  11   2.0000     -10.289041      -279.9790
  12   2.0000     -10.288600      -279.9670
  13   2.0000     -10.284915      -279.8668
  14   2.0000     -10.284100      -279.8446
  15   2.0000     -10.268860      -279.4299
  16   2.0000      -8.086914      -220.0561
  17   2.0000      -8.075822      -219.7543
  18   2.0000      -6.045214      -164.4986
  19   2.0000      -6.041391      -164.3946
  20   2.0000      -6.037803      -164.2970
  21   2.0000      -6.034229      -164.1997
  22   2.0000      -6.030374      -164.0948
  23   2.0000      -6.026592      -163.9919
  24   2.0000      -1.008985       -27.4559
  25   2.0000      -0.985620       -26.8201
  26   2.0000      -0.905033       -24.6272
  27   2.0000      -0.904160       -24.6035
  28   2.0000      -0.866516       -23.5791
  29   2.0000      -0.851469       -23.1696
  30   2.0000      -0.843575       -22.9549
  31   2.0000      -0.811625       -22.0854
  32   2.0000      -0.780902       -21.2494
  33   2.0000      -0.770211       -20.9585
  34   2.0000      -0.705238       -19.1905
  35   2.0000      -0.691571       -18.8186
  36   2.0000      -0.682691       -18.5770
  37   2.0000      -0.660331       -17.9685
  38   2.0000      -0.642262       -17.4768
  39   2.0000      -0.618533       -16.8311
  40   2.0000      -0.591027       -16.0827
  41   2.0000      -0.566153       -15.4058
  42   2.0000      -0.553591       -15.0640
  43   2.0000      -0.548336       -14.9210
  44   2.0000      -0.546498       -14.8710
  45   2.0000      -0.537320       -14.6212
  46   2.0000      -0.512197       -13.9376
  47   2.0000      -0.506807       -13.7909
  48   2.0000      -0.493579       -13.4310
  49   2.0000      -0.486512       -13.2387
  50   2.0000      -0.483889       -13.1673
  51   2.0000      -0.475310       -12.9338
  52   2.0000      -0.469491       -12.7755
  53   2.0000      -0.465181       -12.6582
  54   2.0000      -0.458278       -12.4704
  55   2.0000      -0.451495       -12.2858
  56   2.0000      -0.439500       -11.9594
  57   2.0000      -0.435463       -11.8496
  58   2.0000      -0.434844       -11.8327
  59   2.0000      -0.427368       -11.6293
  60   2.0000      -0.421007       -11.4562
  61   2.0000      -0.415831       -11.3153
  62   2.0000      -0.414525       -11.2798
  63   2.0000      -0.343850        -9.3566
  64   2.0000      -0.332153        -9.0383
  65   2.0000      -0.323161        -8.7937
  66   2.0000      -0.298363        -8.1189
  67   0.0000       0.042117         1.1460
  68   0.0000       0.066239         1.8025
  69   0.0000       0.117454         3.1961
  70   0.0000       0.122779         3.3410
  71   0.0000       0.124667         3.3924

MULLIKEN ATOMIC CHARGES
-----------------------
   0 S :    0.141734
   1 C :   -0.118578
   2 C :   -0.070127
   3 C :    0.052814
   4 C :   -0.195207
   5 H :    0.003076
   6 C :    0.040249
   7 H :    0.018629
   8 H :    0.048149
   9 C :   -0.086933
  10 H :    0.039850
  11 H :    0.031270
  12 C :   -0.082058
  13 H :    0.040497
  14 H :    0.023864
  15 H :    0.056446
  16 S :    0.097608
  17 C :   -0.116880
  18 C :   -0.008573
  19 C :   -0.063989
  20 C :   -0.157937
  21 H :    0.017281
  22 C :    0.093538
  23 H :    0.014603
  24 H :    0.014946
  25 C :   -0.066200
  26 H :    0.044271
  27 H :    0.029621
  28 C :   -0.040969
  29 H :    0.015444
  30 H :    0.050985
  31 H :    0.024796
  32 H :    0.044365
  33 H :    0.063417
Sum of atomic charges:    0.0000000

LOEWDIN ATOMIC CHARGES
----------------------
   0 S :    0.432568
   1 C :   -0.214888
   2 C :   -0.068690
   3 C :   -0.046690
   4 C :   -0.203913
   5 H :    0.025821
   6 C :   -0.031398
   7 H :    0.028617
   8 H :    0.038558
   9 C :   -0.042708
  10 H :    0.021298
  11 H :    0.026369
  12 C :   -0.079601
  13 H :    0.027342
  14 H :    0.026156
  15 H :    0.036231
  16 S :    0.391115
  17 C :   -0.171284
  18 C :   -0.070948
  19 C :   -0.055101
  20 C :   -0.206919
  21 H :    0.032816
  22 C :   -0.031814
  23 H :    0.027482
  24 H :    0.030077
  25 C :   -0.037274
  26 H :    0.025854
  27 H :    0.025600
  28 C :   -0.066665
  29 H :    0.018942
  30 H :    0.035796
  31 H :    0.020575
  32 H :    0.027733
  33 H :    0.028942

  Mayer bond orders larger than 0.100000
B(  0-S ,  1-C ) :   1.1529 B(  0-S ,  4-C ) :   1.1504 B(  1-C ,  2-C ) :   1.6197
B(  1-C , 32-H ) :   0.9515 B(  2-C ,  3-C ) :   1.2329 B(  2-C ,  6-C ) :   1.0331
B(  3-C ,  4-C ) :   1.5883 B(  3-C ,  5-H ) :   0.9982 B(  4-C , 20-C ) :   1.0056
B(  6-C ,  7-H ) :   0.9394 B(  6-C ,  8-H ) :   0.9471 B(  6-C ,  9-C ) :   1.0629
B(  9-C , 10-H ) :   0.9612 B(  9-C , 11-H ) :   0.9594 B(  9-C , 12-C ) :   1.0708
B( 12-C , 13-H ) :   0.9760 B( 12-C , 14-H ) :   0.9759 B( 12-C , 15-H ) :   0.9720
B( 16-S , 17-C ) :   1.1454 B( 16-S , 20-C ) :   1.1492 B( 17-C , 18-C ) :   1.6261
B( 17-C , 33-H ) :   0.9684 B( 18-C , 19-C ) :   1.2104 B( 18-C , 21-H ) :   0.9958
B( 19-C , 20-C ) :   1.6182 B( 19-C , 22-C ) :   1.0285 B( 22-C , 23-H ) :   0.9186
B( 22-C , 24-H ) :   0.9385 B( 22-C , 25-C ) :   1.0756 B( 25-C , 26-H ) :   0.9536
B( 25-C , 27-H ) :   0.9527 B( 25-C , 28-C ) :   1.0763 B( 28-C , 29-H ) :   0.9733
B( 28-C , 30-H ) :   0.9731 B( 28-C , 31-H ) :   0.9739

Dispersion correction           -0.015946401
FINAL SINGLE POINT ENERGY     -1339.892932962188

DIPOLE MOMENT
-------------
                                X             Y             Z
Electronic contribution:     22.99277      -9.51431      -4.37198
Nuclear contribution   :    -23.54742       9.75563       4.15479
                        -----------------------------------------
Total Dipole Moment    :     -0.55465       0.24131      -0.21719
                        -----------------------------------------
Magnitude (a.u.)       :      0.64269
Magnitude (Debye)      :      1.63358

Rotational constants in cm-1:     0.019627     0.009345     0.007964
Rotational constants in MHz :   588.414831   280.151313   238.764596

                             ****ORCA TERMINATED NORMALLY****
TOTAL RUN TIME: 0 days 0 hours 0 minutes 22 seconds 849 msec
