                         Program Version 4.2.1 -  RELEASE  -
|  1> ! wB97X-D3 SP def2-SVP
|  2> %pal
|  3> nprocs 24
|  4> end
|  5>
|  6> * xyz 0 1
|  7> S 	 30.7989 	 -33.5454 	 -128.923
|  8> C 	 31.3713 	 -33.0597 	 -127.391
|  9> C 	 32.6011 	 -33.5488 	 -127.141
| 10> C 	 33.1494 	 -34.3324 	 -128.185
| 11> C 	 32.2352 	 -34.518 	 -129.236
| 12> H 	 34.1437 	 -34.814 	 -128.184
| 13> C 	 33.3777 	 -33.2597 	 -125.869
| 14> H 	 33.4684 	 -34.1889 	 -125.365
| 15> H 	 32.6172 	 -32.7281 	 -125.266
| 16> C 	 34.6941 	 -32.4944 	 -126.011
| 17> H 	 35.0125 	 -32.1871 	 -124.99
| 18> H 	 35.524 	 -33.2296 	 -126.357
| 19> C 	 34.6924 	 -31.3116 	 -127.025
| 20> H 	 35.5974 	 -30.7317 	 -127.036
| 21> H 	 34.457 	 -31.61 	 -128.014
| 22> H 	 33.8591 	 -30.6666 	 -126.793
| 23> S 	 32.1986 	 -33.9568 	 -131.985
| 24> C 	 32.7485 	 -35.1773 	 -133.048
| 25> C 	 33.2052 	 -36.3045 	 -132.379
| 26> C 	 33.0797 	 -36.2865 	 -130.968
| 27> C 	 32.5165 	 -35.0476 	 -130.554
| 28> H 	 33.6291 	 -37.0961 	 -132.917
| 29> C 	 33.4465 	 -37.4178 	 -130.067
| 30> H 	 32.8485 	 -38.2892 	 -130.35
| 31> H 	 33.0605 	 -37.1374 	 -129.092
| 32> C 	 34.9576 	 -37.512 	 -129.954
| 33> H 	 35.3329 	 -36.5071 	 -129.735
| 34> H 	 35.3443 	 -37.7125 	 -130.967
| 35> C 	 35.5293 	 -38.6158 	 -129.016
| 36> H 	 35.0474 	 -38.6742 	 -128.042
| 37> H 	 36.5806 	 -38.5614 	 -129.023
| 38> H 	 35.2803 	 -39.597 	 -129.526
| 39> H 	 30.7598 	 -32.5311 	 -126.659
| 40> H 	 32.5562 	 -35.2403 	 -134.108
| 41> *
| 42>
| 43>                          ****END OF INPUT****

CARTESIAN COORDINATES (ANGSTROEM)
---------------------------------
  S     30.798900  -33.545400  -128.923000
  C     31.371300  -33.059700  -127.391000
  C     32.601100  -33.548800  -127.141000
  C     33.149400  -34.332400  -128.185000
  C     32.235200  -34.518000  -129.236000
  H     34.143700  -34.814000  -128.184000
  C     33.377700  -33.259700  -125.869000
  H     33.468400  -34.188900  -125.365000
  H     32.617200  -32.728100  -125.266000
  C     34.694100  -32.494400  -126.011000
  H     35.012500  -32.187100  -124.990000
  H     35.524000  -33.229600  -126.357000
  C     34.692400  -31.311600  -127.025000
  H     35.597400  -30.731700  -127.036000
  H     34.457000  -31.610000  -128.014000
  H     33.859100  -30.666600  -126.793000
  S     32.198600  -33.956800  -131.985000
  C     32.748500  -35.177300  -133.048000
  C     33.205200  -36.304500  -132.379000
  C     33.079700  -36.286500  -130.968000
  C     32.516500  -35.047600  -130.554000
  H     33.629100  -37.096100  -132.917000
  C     33.446500  -37.417800  -130.067000
  H     32.848500  -38.289200  -130.350000
  H     33.060500  -37.137400  -129.092000
  C     34.957600  -37.512000  -129.954000
  H     35.332900  -36.507100  -129.735000
  H     35.344300  -37.712500  -130.967000
  C     35.529300  -38.615800  -129.016000
  H     35.047400  -38.674200  -128.042000
  H     36.580600  -38.561400  -129.023000
  H     35.280300  -39.597000  -129.526000
  H     30.759800  -32.531100  -126.659000
  H     32.556200  -35.240300  -134.108000

 Total Charge           Charge          ....    0
 Multiplicity           Mult            ....    1
 Number of Electrons    NEL             ....  134
 Basis Dimension        Dim             ....  322

ORBITAL ENERGIES
----------------

  NO   OCC          E(Eh)            E(eV)
   0   2.0000     -88.966085     -2420.8902
   1   2.0000     -88.964978     -2420.8601
   2   2.0000     -10.331185      -281.1258
   3   2.0000     -10.330734      -281.1136
   4   2.0000     -10.312038      -280.6048
   5   2.0000     -10.309537      -280.5368
   6   2.0000     -10.303326      -280.3678
   7   2.0000     -10.299228      -280.2563
   8   2.0000     -10.297806      -280.2176
   9   2.0000     -10.293892      -280.1110
  10   2.0000     -10.291273      -280.0398
  11   2.0000     -10.289550      -279.9929
  12   2.0000     -10.289470      -279.9907
  13   2.0000     -10.286194      -279.9016
  14   2.0000     -10.282702      -279.8065
  15   2.0000     -10.270919      -279.4859
  16   2.0000      -8.080449      -219.8802
  17   2.0000      -8.080236      -219.8744
  18   2.0000      -6.038828      -164.3249
  19   2.0000      -6.038758      -164.3229
  20   2.0000      -6.034841      -164.2164
  21   2.0000      -6.034781      -164.2147
  22   2.0000      -6.031364      -164.1217
  23   2.0000      -6.030998      -164.1118
  24   2.0000      -1.007472       -27.4147
  25   2.0000      -0.983675       -26.7671
  26   2.0000      -0.913898       -24.8684
  27   2.0000      -0.909050       -24.7365
  28   2.0000      -0.868251       -23.6263
  29   2.0000      -0.851335       -23.1660
  30   2.0000      -0.843988       -22.9661
  31   2.0000      -0.812511       -22.1095
  32   2.0000      -0.788407       -21.4537
  33   2.0000      -0.773947       -21.0602
  34   2.0000      -0.710143       -19.3240
  35   2.0000      -0.700440       -19.0599
  36   2.0000      -0.694083       -18.8870
  37   2.0000      -0.658086       -17.9074
  38   2.0000      -0.638995       -17.3879
  39   2.0000      -0.618851       -16.8398
  40   2.0000      -0.594766       -16.1844
  41   2.0000      -0.565683       -15.3930
  42   2.0000      -0.559704       -15.2303
  43   2.0000      -0.551212       -14.9992
  44   2.0000      -0.540324       -14.7030
  45   2.0000      -0.534216       -14.5368
  46   2.0000      -0.514270       -13.9940
  47   2.0000      -0.512889       -13.9564
  48   2.0000      -0.506507       -13.7828
  49   2.0000      -0.499437       -13.5904
  50   2.0000      -0.490103       -13.3364
  51   2.0000      -0.477919       -13.0048
  52   2.0000      -0.470136       -12.7931
  53   2.0000      -0.463634       -12.6161
  54   2.0000      -0.460095       -12.5198
  55   2.0000      -0.452600       -12.3159
  56   2.0000      -0.445727       -12.1289
  57   2.0000      -0.444987       -12.1087
  58   2.0000      -0.436638       -11.8815
  59   2.0000      -0.424688       -11.5563
  60   2.0000      -0.418508       -11.3882
  61   2.0000      -0.413077       -11.2404
  62   2.0000      -0.407305       -11.0833
  63   2.0000      -0.347949        -9.4682
  64   2.0000      -0.333932        -9.0867
  65   2.0000      -0.329294        -8.9605
  66   2.0000      -0.287299        -7.8178
  67   0.0000       0.024214         0.6589
  68   0.0000       0.069846         1.9006
  69   0.0000       0.114752         3.1226
  70   0.0000       0.127094         3.4584
  71   0.0000       0.131430         3.5764

MULLIKEN ATOMIC CHARGES
-----------------------
   0 S :    0.108566
   1 C :   -0.124073
   2 C :   -0.126404
   3 C :    0.026540
   4 C :   -0.168849
   5 H :    0.026147
   6 C :    0.107495
   7 H :    0.028817
   8 H :    0.005984
   9 C :   -0.109643
  10 H :    0.039067
  11 H :    0.036754
  12 C :   -0.011119
  13 H :    0.037930
  14 H :    0.030621
  15 H :    0.016512
  16 S :    0.109220
  17 C :   -0.079648
  18 C :   -0.036750
  19 C :   -0.053118
  20 C :   -0.160863
  21 H :   -0.005657
  22 C :    0.112361
  23 H :    0.037357
  24 H :    0.009821
  25 C :   -0.115981
  26 H :    0.031392
  27 H :    0.025218
  28 C :   -0.009411
  29 H :    0.038023
  30 H :    0.034295
  31 H :    0.027054
  32 H :    0.052626
  33 H :    0.059717
Sum of atomic charges:   -0.0000000

LOEWDIN ATOMIC CHARGES
----------------------
   0 S :    0.418707
   1 C :   -0.210162
   2 C :   -0.074520
   3 C :   -0.058209
   4 C :   -0.195835
   5 H :    0.036674
   6 C :   -0.032678
   7 H :    0.029336
   8 H :    0.028777
   9 C :   -0.044800
  10 H :    0.028442
  11 H :    0.028899
  12 C :   -0.062263
  13 H :    0.026554
  14 H :    0.023859
  15 H :    0.024202
  16 S :    0.393856
  17 C :   -0.201003
  18 C :   -0.069552
  19 C :   -0.047490
  20 C :   -0.180506
  21 H :    0.019680
  22 C :   -0.033258
  23 H :    0.035103
  24 H :    0.027996
  25 C :   -0.040410
  26 H :    0.022972
  27 H :    0.024161
  28 C :   -0.062565
  29 H :    0.025165
  30 H :    0.021745
  31 H :    0.032925
  32 H :    0.032406
  33 H :    0.031792

  Mayer bond orders larger than 0.100000
B(  0-S ,  1-C ) :   1.1449 B(  0-S ,  4-C ) :   1.1627 B(  1-C ,  2-C ) :   1.6106
B(  1-C , 32-H ) :   0.9586 B(  2-C ,  3-C ) :   1.2621 B(  2-C ,  6-C ) :   1.0130
B(  3-C ,  4-C ) :   1.5285 B(  3-C ,  5-H ) :   0.9896 B(  4-C , 20-C ) :   1.0646
B(  6-C ,  7-H ) :   0.9363 B(  6-C ,  8-H ) :   0.9350 B(  6-C ,  9-C ) :   1.0639
B(  9-C , 10-H ) :   0.9580 B(  9-C , 11-H ) :   0.9528 B(  9-C , 12-C ) :   1.0750
B( 12-C , 13-H ) :   0.9759 B( 12-C , 14-H ) :   0.9670 B( 12-C , 15-H ) :   0.9745
B( 16-S , 17-C ) :   1.1591 B( 16-S , 20-C ) :   1.1331 B( 17-C , 18-C ) :   1.6021
B( 17-C , 20-C ) :   0.1028 B( 17-C , 33-H ) :   0.9610 B( 18-C , 19-C ) :   1.2548
B( 18-C , 21-H ) :   0.9939 B( 19-C , 20-C ) :   1.5652 B( 19-C , 22-C ) :   1.0505
B( 22-C , 23-H ) :   0.9333 B( 22-C , 24-H ) :   0.9180 B( 22-C , 25-C ) :   1.0510
B( 25-C , 26-H ) :   0.9512 B( 25-C , 27-H ) :   0.9590 B( 25-C , 28-C ) :   1.0768
B( 28-C , 29-H ) :   0.9760 B( 28-C , 30-H ) :   0.9743 B( 28-C , 31-H ) :   0.9726

Dispersion correction           -0.014732949
FINAL SINGLE POINT ENERGY     -1339.885270925016

DIPOLE MOMENT
-------------
                                X             Y             Z
Electronic contribution:    -20.01321       7.34119     -15.04071
Nuclear contribution   :     20.41474      -7.66082      15.36626
                        -----------------------------------------
Total Dipole Moment    :      0.40153      -0.31963       0.32556
                        -----------------------------------------
Magnitude (a.u.)       :      0.60776
Magnitude (Debye)      :      1.54482

Rotational constants in cm-1:     0.016647     0.009579     0.007257
Rotational constants in MHz :   499.076186   287.182580   217.571011

                             ****ORCA TERMINATED NORMALLY****
TOTAL RUN TIME: 0 days 0 hours 0 minutes 21 seconds 896 msec
