                         Program Version 4.2.1 -  RELEASE  -
|  1> ! wB97X-D3 SP def2-SVP
|  2> %pal
|  3> nprocs 24
|  4> end
|  5>
|  6> * xyz 0 1
|  7> S 	 -60.8063 	 10.2619 	 -94.3646
|  8> C 	 -59.8278 	 11.1371 	 -93.1896
|  9> C 	 -60.6011 	 11.9333 	 -92.3841
| 10> C 	 -61.9862 	 11.8892 	 -92.779
| 11> C 	 -62.2886 	 11.0343 	 -93.8059
| 12> H 	 -62.7817 	 12.5 	 -92.2582
| 13> C 	 -60.0031 	 12.8175 	 -91.3649
| 14> H 	 -60.3924 	 13.8576 	 -91.5197
| 15> H 	 -58.9789 	 13.0169 	 -91.5248
| 16> C 	 -60.1359 	 12.2716 	 -89.8869
| 17> H 	 -59.555 	 11.3502 	 -89.7558
| 18> H 	 -59.6738 	 12.9183 	 -89.2657
| 19> C 	 -61.5077 	 11.7631 	 -89.3602
| 20> H 	 -61.4417 	 11.3292 	 -88.344
| 21> H 	 -62.2228 	 12.5439 	 -89.2801
| 22> H 	 -61.8825 	 10.9711 	 -90.0507
| 23> S 	 -63.7021 	 10.9614 	 -96.1002
| 24> C 	 -65.4329 	 10.7822 	 -96.0907
| 25> C 	 -65.9466 	 10.5528 	 -94.8143
| 26> C 	 -64.9187 	 10.5629 	 -93.7927
| 27> C 	 -63.6413 	 10.772 	 -94.3525
| 28> H 	 -67.0637 	 10.458 	 -94.8035
| 29> C 	 -65.0935 	 10.4611 	 -92.272
| 30> H 	 -64.0453 	 10.3863 	 -91.8572
| 31> H 	 -65.6457 	 9.48645 	 -92.0205
| 32> C 	 -65.828 	 11.7521 	 -91.8167
| 33> H 	 -66.9301 	 11.7445 	 -92.0261
| 34> H 	 -65.4255 	 12.5779 	 -92.3244
| 35> C 	 -65.8747 	 11.948 	 -90.2307
| 36> H 	 -64.8664 	 11.9073 	 -89.7477
| 37> H 	 -66.5068 	 11.1781 	 -89.8357
| 38> H 	 -66.3965 	 12.8625 	 -90.0152
| 39> H 	 -58.7964 	 11.0698 	 -93.1456
| 40> H 	 -66.1011 	 10.7231 	 -96.9002
| 41> *
| 42>
| 43>                          ****END OF INPUT****

CARTESIAN COORDINATES (ANGSTROEM)
---------------------------------
  S    -60.806300   10.261900  -94.364600
  C    -59.827800   11.137100  -93.189600
  C    -60.601100   11.933300  -92.384100
  C    -61.986200   11.889200  -92.779000
  C    -62.288600   11.034300  -93.805900
  H    -62.781700   12.500000  -92.258200
  C    -60.003100   12.817500  -91.364900
  H    -60.392400   13.857600  -91.519700
  H    -58.978900   13.016900  -91.524800
  C    -60.135900   12.271600  -89.886900
  H    -59.555000   11.350200  -89.755800
  H    -59.673800   12.918300  -89.265700
  C    -61.507700   11.763100  -89.360200
  H    -61.441700   11.329200  -88.344000
  H    -62.222800   12.543900  -89.280100
  H    -61.882500   10.971100  -90.050700
  S    -63.702100   10.961400  -96.100200
  C    -65.432900   10.782200  -96.090700
  C    -65.946600   10.552800  -94.814300
  C    -64.918700   10.562900  -93.792700
  C    -63.641300   10.772000  -94.352500
  H    -67.063700   10.458000  -94.803500
  C    -65.093500   10.461100  -92.272000
  H    -64.045300   10.386300  -91.857200
  H    -65.645700    9.486450  -92.020500
  C    -65.828000   11.752100  -91.816700
  H    -66.930100   11.744500  -92.026100
  H    -65.425500   12.577900  -92.324400
  C    -65.874700   11.948000  -90.230700
  H    -64.866400   11.907300  -89.747700
  H    -66.506800   11.178100  -89.835700
  H    -66.396500   12.862500  -90.015200
  H    -58.796400   11.069800  -93.145600
  H    -66.101100   10.723100  -96.900200

 Total Charge           Charge          ....    0
 Multiplicity           Mult            ....    1
 Number of Electrons    NEL             ....  134
 Basis Dimension        Dim             ....  322

ORBITAL ENERGIES
----------------

  NO   OCC          E(Eh)            E(eV)
   0   2.0000     -88.965427     -2420.8723
   1   2.0000     -88.965198     -2420.8661
   2   2.0000     -10.333026      -281.1759
   3   2.0000     -10.330538      -281.1082
   4   2.0000     -10.314027      -280.6589
   5   2.0000     -10.313339      -280.6402
   6   2.0000     -10.310385      -280.5599
   7   2.0000     -10.303966      -280.3852
   8   2.0000     -10.301847      -280.3275
   9   2.0000     -10.299502      -280.2637
  10   2.0000     -10.298554      -280.2379
  11   2.0000     -10.294779      -280.1352
  12   2.0000     -10.291450      -280.0446
  13   2.0000     -10.283734      -279.8346
  14   2.0000     -10.280310      -279.7415
  15   2.0000     -10.280107      -279.7359
  16   2.0000      -8.080152      -219.8721
  17   2.0000      -8.079659      -219.8587
  18   2.0000      -6.038617      -164.3191
  19   2.0000      -6.038294      -164.3103
  20   2.0000      -6.034643      -164.2110
  21   2.0000      -6.034155      -164.1977
  22   2.0000      -6.030974      -164.1112
  23   2.0000      -6.030339      -164.0939
  24   2.0000      -1.003898       -27.3174
  25   2.0000      -0.981994       -26.7214
  26   2.0000      -0.909434       -24.7469
  27   2.0000      -0.901365       -24.5274
  28   2.0000      -0.867561       -23.6075
  29   2.0000      -0.846130       -23.0244
  30   2.0000      -0.841470       -22.8976
  31   2.0000      -0.818711       -22.2782
  32   2.0000      -0.783827       -21.3290
  33   2.0000      -0.769899       -20.9500
  34   2.0000      -0.708011       -19.2660
  35   2.0000      -0.704010       -19.1571
  36   2.0000      -0.697203       -18.9718
  37   2.0000      -0.654581       -17.8121
  38   2.0000      -0.642386       -17.4802
  39   2.0000      -0.619445       -16.8560
  40   2.0000      -0.585984       -15.9454
  41   2.0000      -0.574174       -15.6241
  42   2.0000      -0.561967       -15.2919
  43   2.0000      -0.544194       -14.8083
  44   2.0000      -0.538355       -14.6494
  45   2.0000      -0.523849       -14.2546
  46   2.0000      -0.515658       -14.0318
  47   2.0000      -0.510561       -13.8931
  48   2.0000      -0.509205       -13.8562
  49   2.0000      -0.497077       -13.5262
  50   2.0000      -0.491233       -13.3671
  51   2.0000      -0.480242       -13.0680
  52   2.0000      -0.466485       -12.6937
  53   2.0000      -0.464703       -12.6452
  54   2.0000      -0.457737       -12.4556
  55   2.0000      -0.446924       -12.1614
  56   2.0000      -0.442402       -12.0384
  57   2.0000      -0.441807       -12.0222
  58   2.0000      -0.438720       -11.9382
  59   2.0000      -0.426666       -11.6102
  60   2.0000      -0.419746       -11.4219
  61   2.0000      -0.414557       -11.2807
  62   2.0000      -0.408019       -11.1028
  63   2.0000      -0.346944        -9.4408
  64   2.0000      -0.329945        -8.9783
  65   2.0000      -0.329636        -8.9698
  66   2.0000      -0.294696        -8.0191
  67   0.0000       0.031648         0.8612
  68   0.0000       0.071962         1.9582
  69   0.0000       0.114384         3.1125
  70   0.0000       0.122830         3.3424
  71   0.0000       0.124428         3.3859

MULLIKEN ATOMIC CHARGES
-----------------------
   0 S :    0.104898
   1 C :   -0.095871
   2 C :   -0.083060
   3 C :   -0.000378
   4 C :   -0.129068
   5 H :    0.030871
   6 C :    0.071961
   7 H :    0.036573
   8 H :    0.006074
   9 C :   -0.031253
  10 H :    0.021969
  11 H :    0.002559
  12 C :   -0.086617
  13 H :    0.039052
  14 H :    0.028171
  15 H :    0.055921
  16 S :    0.108776
  17 C :   -0.069963
  18 C :   -0.074355
  19 C :   -0.032170
  20 C :   -0.161898
  21 H :    0.039351
  22 C :    0.041539
  23 H :    0.047085
  24 H :    0.049832
  25 C :   -0.102364
  26 H :    0.037421
  27 H :    0.032246
  28 C :   -0.043749
  29 H :    0.043127
  30 H :    0.025184
  31 H :    0.030946
  32 H :    0.021437
  33 H :    0.035755
Sum of atomic charges:   -0.0000000

LOEWDIN ATOMIC CHARGES
----------------------
   0 S :    0.390396
   1 C :   -0.173697
   2 C :   -0.066447
   3 C :   -0.070334
   4 C :   -0.197875
   5 H :    0.039824
   6 C :   -0.031147
   7 H :    0.038538
   8 H :    0.027141
   9 C :   -0.029864
  10 H :    0.029723
  11 H :    0.006062
  12 C :   -0.068774
  13 H :    0.032408
  14 H :    0.012446
  15 H :    0.031379
  16 S :    0.409782
  17 C :   -0.183993
  18 C :   -0.079555
  19 C :   -0.050801
  20 C :   -0.196619
  21 H :    0.042911
  22 C :   -0.037295
  23 H :    0.037176
  24 H :    0.040190
  25 C :   -0.037728
  26 H :    0.031743
  27 H :    0.014178
  28 C :   -0.066082
  29 H :    0.026637
  30 H :    0.021778
  31 H :    0.023327
  32 H :    0.014035
  33 H :    0.020537

  Mayer bond orders larger than 0.100000
B(  0-S ,  1-C ) :   1.1298 B(  0-S ,  4-C ) :   1.1429 B(  1-C ,  2-C ) :   1.6178
B(  1-C , 32-H ) :   0.9770 B(  2-C ,  3-C ) :   1.2285 B(  2-C ,  6-C ) :   1.0349
B(  3-C ,  4-C ) :   1.5788 B(  3-C ,  5-H ) :   0.9868 B(  4-C , 20-C ) :   1.0146
B(  6-C ,  7-H ) :   0.9407 B(  6-C ,  8-H ) :   0.9363 B(  6-C ,  9-C ) :   1.0576
B(  9-C , 10-H ) :   0.9544 B(  9-C , 11-H ) :   0.9572 B(  9-C , 12-C ) :   1.0807
B( 12-C , 13-H ) :   0.9713 B( 12-C , 14-H ) :   0.9758 B( 12-C , 15-H ) :   0.9700
B( 16-S , 17-C ) :   1.1558 B( 16-S , 20-C ) :   1.1457 B( 17-C , 18-C ) :   1.6395
B( 17-C , 20-C ) :   0.1014 B( 17-C , 33-H ) :   0.9688 B( 18-C , 19-C ) :   1.2064
B( 18-C , 21-H ) :   0.9854 B( 19-C , 20-C ) :   1.5991 B( 19-C , 22-C ) :   1.0396
B( 22-C , 23-H ) :   0.9386 B( 22-C , 24-H ) :   0.9340 B( 22-C , 25-C ) :   1.0454
B( 25-C , 26-H ) :   0.9553 B( 25-C , 27-H ) :   0.9617 B( 25-C , 28-C ) :   1.0749
B( 28-C , 29-H ) :   0.9768 B( 28-C , 30-H ) :   0.9744 B( 28-C , 31-H ) :   0.9762

Dispersion correction           -0.015508685
FINAL SINGLE POINT ENERGY     -1339.871758840946

DIPOLE MOMENT
-------------
                                X             Y             Z
Electronic contribution:      6.27725      -8.02183     -29.95045
Nuclear contribution   :     -6.47679       8.32553      30.54442
                        -----------------------------------------
Total Dipole Moment    :     -0.19954       0.30370       0.59397
                        -----------------------------------------
Magnitude (a.u.)       :      0.69632
Magnitude (Debye)      :      1.76989

Rotational constants in cm-1:     0.017086     0.010672     0.006991
Rotational constants in MHz :   512.229255   319.929096   209.583439

                             ****ORCA TERMINATED NORMALLY****
TOTAL RUN TIME: 0 days 0 hours 0 minutes 22 seconds 659 msec
