                         Program Version 4.2.1 -  RELEASE  -
|  1> ! wB97X-D3 SP def2-SVP
|  2> %pal
|  3> nprocs 24
|  4> end
|  5>
|  6> * xyz 0 1
|  7> S 	 -106.977 	 58.0776 	 -102.316
|  8> C 	 -108.189 	 58.1094 	 -103.522
|  9> C 	 -109.362 	 58.7029 	 -103.101
| 10> C 	 -109.247 	 59.115 	 -101.731
| 11> C 	 -108.104 	 58.7386 	 -101.112
| 12> H 	 -110.04 	 59.5562 	 -101.196
| 13> C 	 -110.634 	 58.969 	 -103.901
| 14> H 	 -111.41 	 59.0084 	 -103.109
| 15> H 	 -110.632 	 58.0575 	 -104.436
| 16> C 	 -110.71 	 60.1836 	 -104.774
| 17> H 	 -111.686 	 60.2263 	 -105.317
| 18> H 	 -110.775 	 61.1224 	 -104.219
| 19> C 	 -109.539 	 60.2984 	 -105.763
| 20> H 	 -109.745 	 61.014 	 -106.58
| 21> H 	 -108.621 	 60.5075 	 -105.278
| 22> H 	 -109.497 	 59.3541 	 -106.34
| 23> S 	 -107.297 	 57.8456 	 -98.7894
| 24> C 	 -107.088 	 58.9313 	 -97.4162
| 25> C 	 -107.549 	 60.2224 	 -97.7042
| 26> C 	 -107.817 	 60.352 	 -99.0915
| 27> C 	 -107.702 	 59.1382 	 -99.8164
| 28> H 	 -107.586 	 60.9526 	 -96.8914
| 29> C 	 -108.317 	 61.7642 	 -99.6109
| 30> H 	 -108.318 	 61.6055 	 -100.721
| 31> H 	 -107.55 	 62.4923 	 -99.5591
| 32> C 	 -109.642 	 62.3292 	 -98.9428
| 33> H 	 -109.84 	 63.2365 	 -99.4839
| 34> H 	 -109.458 	 62.5406 	 -97.8399
| 35> C 	 -110.864 	 61.4316 	 -99.0238
| 36> H 	 -111.671 	 61.8381 	 -98.3191
| 37> H 	 -110.699 	 60.3548 	 -98.766
| 38> H 	 -111.284 	 61.3237 	 -100.055
| 39> H 	 -108.135 	 57.6307 	 -104.48
| 40> H 	 -106.791 	 58.575 	 -96.3967
| 41> *
| 42>
| 43>                          ****END OF INPUT****

CARTESIAN COORDINATES (ANGSTROEM)
---------------------------------
  S    -106.977000   58.077600  -102.316000
  C    -108.189000   58.109400  -103.522000
  C    -109.362000   58.702900  -103.101000
  C    -109.247000   59.115000  -101.731000
  C    -108.104000   58.738600  -101.112000
  H    -110.040000   59.556200  -101.196000
  C    -110.634000   58.969000  -103.901000
  H    -111.410000   59.008400  -103.109000
  H    -110.632000   58.057500  -104.436000
  C    -110.710000   60.183600  -104.774000
  H    -111.686000   60.226300  -105.317000
  H    -110.775000   61.122400  -104.219000
  C    -109.539000   60.298400  -105.763000
  H    -109.745000   61.014000  -106.580000
  H    -108.621000   60.507500  -105.278000
  H    -109.497000   59.354100  -106.340000
  S    -107.297000   57.845600  -98.789400
  C    -107.088000   58.931300  -97.416200
  C    -107.549000   60.222400  -97.704200
  C    -107.817000   60.352000  -99.091500
  C    -107.702000   59.138200  -99.816400
  H    -107.586000   60.952600  -96.891400
  C    -108.317000   61.764200  -99.610900
  H    -108.318000   61.605500  -100.721000
  H    -107.550000   62.492300  -99.559100
  C    -109.642000   62.329200  -98.942800
  H    -109.840000   63.236500  -99.483900
  H    -109.458000   62.540600  -97.839900
  C    -110.864000   61.431600  -99.023800
  H    -111.671000   61.838100  -98.319100
  H    -110.699000   60.354800  -98.766000
  H    -111.284000   61.323700  -100.055000
  H    -108.135000   57.630700  -104.480000
  H    -106.791000   58.575000  -96.396700

 Total Charge           Charge          ....    0
 Multiplicity           Mult            ....    1
 Number of Electrons    NEL             ....  134
 Basis Dimension        Dim             ....  322

ORBITAL ENERGIES
----------------

  NO   OCC          E(Eh)            E(eV)
   0   2.0000     -88.965475     -2420.8737
   1   2.0000     -88.964168     -2420.8381
   2   2.0000     -10.321491      -280.8621
   3   2.0000     -10.321462      -280.8613
   4   2.0000     -10.320673      -280.8398
   5   2.0000     -10.309847      -280.5452
   6   2.0000     -10.309223      -280.5282
   7   2.0000     -10.298684      -280.2414
   8   2.0000     -10.297014      -280.1960
   9   2.0000     -10.296767      -280.1893
  10   2.0000     -10.296499      -280.1820
  11   2.0000     -10.290896      -280.0295
  12   2.0000     -10.289145      -279.9819
  13   2.0000     -10.288344      -279.9601
  14   2.0000     -10.285404      -279.8801
  15   2.0000     -10.276727      -279.6440
  16   2.0000      -8.080970      -219.8944
  17   2.0000      -8.079318      -219.8494
  18   2.0000      -6.039306      -164.3379
  19   2.0000      -6.037878      -164.2990
  20   2.0000      -6.035291      -164.2286
  21   2.0000      -6.033771      -164.1873
  22   2.0000      -6.031932      -164.1372
  23   2.0000      -6.030007      -164.0848
  24   2.0000      -1.011351       -27.5203
  25   2.0000      -0.985359       -26.8130
  26   2.0000      -0.915642       -24.9159
  27   2.0000      -0.898517       -24.4499
  28   2.0000      -0.875033       -23.8109
  29   2.0000      -0.850677       -23.1481
  30   2.0000      -0.844252       -22.9733
  31   2.0000      -0.812325       -22.1045
  32   2.0000      -0.783113       -21.3096
  33   2.0000      -0.771174       -20.9847
  34   2.0000      -0.711035       -19.3482
  35   2.0000      -0.699180       -19.0257
  36   2.0000      -0.690337       -18.7850
  37   2.0000      -0.659127       -17.9358
  38   2.0000      -0.641567       -17.4579
  39   2.0000      -0.622274       -16.9329
  40   2.0000      -0.588819       -16.0226
  41   2.0000      -0.563675       -15.3384
  42   2.0000      -0.551977       -15.0201
  43   2.0000      -0.551700       -15.0125
  44   2.0000      -0.541700       -14.7404
  45   2.0000      -0.538493       -14.6531
  46   2.0000      -0.521552       -14.1922
  47   2.0000      -0.515340       -14.0231
  48   2.0000      -0.504387       -13.7251
  49   2.0000      -0.499307       -13.5868
  50   2.0000      -0.491094       -13.3633
  51   2.0000      -0.478110       -13.0100
  52   2.0000      -0.466254       -12.6874
  53   2.0000      -0.460863       -12.5407
  54   2.0000      -0.448350       -12.2002
  55   2.0000      -0.447360       -12.1733
  56   2.0000      -0.444509       -12.0957
  57   2.0000      -0.436978       -11.8908
  58   2.0000      -0.436372       -11.8743
  59   2.0000      -0.426641       -11.6095
  60   2.0000      -0.422289       -11.4911
  61   2.0000      -0.410693       -11.1755
  62   2.0000      -0.409867       -11.1530
  63   2.0000      -0.345471        -9.4008
  64   2.0000      -0.330875        -9.0036
  65   2.0000      -0.327044        -8.8993
  66   2.0000      -0.293868        -7.9966
  67   0.0000       0.030803         0.8382
  68   0.0000       0.068334         1.8595
  69   0.0000       0.111325         3.0293
  70   0.0000       0.119786         3.2595
  71   0.0000       0.127520         3.4700

MULLIKEN ATOMIC CHARGES
-----------------------
   0 S :    0.117357
   1 C :   -0.110921
   2 C :   -0.136415
   3 C :    0.037302
   4 C :   -0.122993
   5 H :   -0.031341
   6 C :    0.102919
   7 H :    0.026861
   8 H :    0.019365
   9 C :   -0.047554
  10 H :    0.031729
  11 H :    0.020332
  12 C :   -0.062109
  13 H :    0.033007
  14 H :    0.050875
  15 H :    0.019010
  16 S :    0.117202
  17 C :   -0.118478
  18 C :   -0.046410
  19 C :   -0.045433
  20 C :   -0.164526
  21 H :    0.031496
  22 C :    0.061210
  23 H :    0.027397
  24 H :    0.022837
  25 C :   -0.060183
  26 H :    0.037574
  27 H :    0.045158
  28 C :   -0.107194
  29 H :    0.048852
  30 H :    0.053455
  31 H :    0.040611
  32 H :    0.037977
  33 H :    0.071032
Sum of atomic charges:   -0.0000000

LOEWDIN ATOMIC CHARGES
----------------------
   0 S :    0.408979
   1 C :   -0.205137
   2 C :   -0.064557
   3 C :   -0.051371
   4 C :   -0.200831
   5 H :    0.021526
   6 C :   -0.029625
   7 H :    0.036016
   8 H :    0.028486
   9 C :   -0.045187
  10 H :    0.030359
  11 H :    0.023119
  12 C :   -0.065726
  13 H :    0.029919
  14 H :    0.022146
  15 H :    0.024063
  16 S :    0.435483
  17 C :   -0.190797
  18 C :   -0.072414
  19 C :   -0.054961
  20 C :   -0.224708
  21 H :    0.036392
  22 C :   -0.035229
  23 H :    0.034280
  24 H :    0.024467
  25 C :   -0.039859
  26 H :    0.027336
  27 H :    0.032254
  28 C :   -0.084092
  29 H :    0.036785
  30 H :    0.029526
  31 H :    0.023978
  32 H :    0.024756
  33 H :    0.034623

  Mayer bond orders larger than 0.100000
B(  0-S ,  1-C ) :   1.1509 B(  0-S ,  4-C ) :   1.1309 B(  1-C ,  2-C ) :   1.6098
B(  1-C , 32-H ) :   0.9640 B(  2-C ,  3-C ) :   1.2454 B(  2-C ,  6-C ) :   0.9935
B(  3-C ,  4-C ) :   1.5825 B(  3-C ,  5-H ) :   1.0056 B(  4-C , 20-C ) :   1.0284
B(  6-C ,  7-H ) :   0.9383 B(  6-C ,  8-H ) :   0.9364 B(  6-C ,  9-C ) :   1.0819
B(  9-C , 10-H ) :   0.9523 B(  9-C , 11-H ) :   0.9511 B(  9-C , 12-C ) :   1.0770
B( 12-C , 13-H ) :   0.9717 B( 12-C , 14-H ) :   0.9740 B( 12-C , 15-H ) :   0.9750
B( 16-S , 17-C ) :   1.1728 B( 16-S , 20-C ) :   1.1727 B( 17-C , 18-C ) :   1.5815
B( 17-C , 20-C ) :   0.1094 B( 17-C , 33-H ) :   0.9632 B( 18-C , 19-C ) :   1.2594
B( 18-C , 21-H ) :   0.9920 B( 19-C , 20-C ) :   1.5552 B( 19-C , 22-C ) :   1.0232
B( 22-C , 23-H ) :   0.9393 B( 22-C , 24-H ) :   0.9404 B( 22-C , 25-C ) :   1.0573
B( 25-C , 26-H ) :   0.9538 B( 25-C , 27-H ) :   0.9560 B( 25-C , 28-C ) :   1.0784
B( 28-C , 29-H ) :   0.9699 B( 28-C , 30-H ) :   0.9699 B( 28-C , 31-H ) :   0.9675

Dispersion correction           -0.015531015
FINAL SINGLE POINT ENERGY     -1339.870353366126

DIPOLE MOMENT
-------------
                                X             Y             Z
Electronic contribution:     18.81969     -17.95250      10.26443
Nuclear contribution   :    -19.35069      18.46430     -10.29823
                        -----------------------------------------
Total Dipole Moment    :     -0.53101       0.51179      -0.03380
                        -----------------------------------------
Magnitude (a.u.)       :      0.73827
Magnitude (Debye)      :      1.87654

Rotational constants in cm-1:     0.019970     0.009368     0.007063
Rotational constants in MHz :   598.694227   280.853443   211.747495

                             ****ORCA TERMINATED NORMALLY****
TOTAL RUN TIME: 0 days 0 hours 0 minutes 22 seconds 582 msec
