                         Program Version 4.2.1 -  RELEASE  -
|  1> ! wB97X-D3 SP def2-SVP
|  2> %pal
|  3> nprocs 24
|  4> end
|  5>
|  6> * xyz 0 1
|  7> S 	 -107.838 	 36.652 	 -12.5303
|  8> C 	 -106.427 	 37.1967 	 -13.3283
|  9> C 	 -106.163 	 36.3041 	 -14.3791
| 10> C 	 -106.847 	 35.1095 	 -14.2827
| 11> C 	 -107.794 	 35.1296 	 -13.2852
| 12> H 	 -106.817 	 34.1836 	 -14.8007
| 13> C 	 -104.997 	 36.5883 	 -15.3889
| 14> H 	 -104.228 	 37.1436 	 -14.8082
| 15> H 	 -105.288 	 37.2575 	 -16.2295
| 16> C 	 -104.371 	 35.4572 	 -16.1691
| 17> H 	 -103.867 	 34.725 	 -15.5479
| 18> H 	 -105.209 	 34.8125 	 -16.5263
| 19> C 	 -103.481 	 35.805 	 -17.2966
| 20> H 	 -103.344 	 34.9244 	 -17.8894
| 21> H 	 -103.917 	 36.4768 	 -17.9549
| 22> H 	 -102.426 	 36.1776 	 -17.0428
| 23> S 	 -110.49 	 34.1979 	 -13.3158
| 24> C 	 -110.732 	 32.4345 	 -12.9619
| 25> C 	 -109.522 	 31.758 	 -12.8276
| 26> C 	 -108.411 	 32.6433 	 -12.8308
| 27> C 	 -108.752 	 33.9929 	 -13.0155
| 28> H 	 -109.548 	 30.6712 	 -12.7394
| 29> C 	 -107.039 	 32.0901 	 -12.7632
| 30> H 	 -106.421 	 32.4515 	 -13.6135
| 31> H 	 -106.913 	 31.0653 	 -12.7589
| 32> C 	 -106.182 	 32.5674 	 -11.6064
| 33> H 	 -106.605 	 32.1201 	 -10.7098
| 34> H 	 -106.276 	 33.6664 	 -11.5057
| 35> C 	 -104.695 	 32.1247 	 -11.7479
| 36> H 	 -104.488 	 31.1218 	 -11.4443
| 37> H 	 -103.965 	 32.6746 	 -11.0761
| 38> H 	 -104.273 	 32.3872 	 -12.693
| 39> H 	 -106.091 	 38.1817 	 -13.1733
| 40> H 	 -111.774 	 32.0847 	 -12.9067
| 41> *
| 42>
| 43>                          ****END OF INPUT****

CARTESIAN COORDINATES (ANGSTROEM)
---------------------------------
  S    -107.838000   36.652000  -12.530300
  C    -106.427000   37.196700  -13.328300
  C    -106.163000   36.304100  -14.379100
  C    -106.847000   35.109500  -14.282700
  C    -107.794000   35.129600  -13.285200
  H    -106.817000   34.183600  -14.800700
  C    -104.997000   36.588300  -15.388900
  H    -104.228000   37.143600  -14.808200
  H    -105.288000   37.257500  -16.229500
  C    -104.371000   35.457200  -16.169100
  H    -103.867000   34.725000  -15.547900
  H    -105.209000   34.812500  -16.526300
  C    -103.481000   35.805000  -17.296600
  H    -103.344000   34.924400  -17.889400
  H    -103.917000   36.476800  -17.954900
  H    -102.426000   36.177600  -17.042800
  S    -110.490000   34.197900  -13.315800
  C    -110.732000   32.434500  -12.961900
  C    -109.522000   31.758000  -12.827600
  C    -108.411000   32.643300  -12.830800
  C    -108.752000   33.992900  -13.015500
  H    -109.548000   30.671200  -12.739400
  C    -107.039000   32.090100  -12.763200
  H    -106.421000   32.451500  -13.613500
  H    -106.913000   31.065300  -12.758900
  C    -106.182000   32.567400  -11.606400
  H    -106.605000   32.120100  -10.709800
  H    -106.276000   33.666400  -11.505700
  C    -104.695000   32.124700  -11.747900
  H    -104.488000   31.121800  -11.444300
  H    -103.965000   32.674600  -11.076100
  H    -104.273000   32.387200  -12.693000
  H    -106.091000   38.181700  -13.173300
  H    -111.774000   32.084700  -12.906700

 Total Charge           Charge          ....    0
 Multiplicity           Mult            ....    1
 Number of Electrons    NEL             ....  134
 Basis Dimension        Dim             ....  322

ORBITAL ENERGIES
----------------

  NO   OCC          E(Eh)            E(eV)
   0   2.0000     -88.967615     -2420.9319
   1   2.0000     -88.967331     -2420.9242
   2   2.0000     -10.333814      -281.1974
   3   2.0000     -10.326700      -281.0038
   4   2.0000     -10.326124      -280.9881
   5   2.0000     -10.311581      -280.5924
   6   2.0000     -10.306879      -280.4644
   7   2.0000     -10.305666      -280.4314
   8   2.0000     -10.300634      -280.2945
   9   2.0000     -10.295627      -280.1583
  10   2.0000     -10.287875      -279.9473
  11   2.0000     -10.283247      -279.8214
  12   2.0000     -10.282253      -279.7943
  13   2.0000     -10.281666      -279.7783
  14   2.0000     -10.276804      -279.6461
  15   2.0000     -10.275350      -279.6065
  16   2.0000      -8.083539      -219.9643
  17   2.0000      -8.081055      -219.8967
  18   2.0000      -6.041637      -164.4013
  19   2.0000      -6.039570      -164.3451
  20   2.0000      -6.037708      -164.2944
  21   2.0000      -6.035886      -164.2448
  22   2.0000      -6.034777      -164.2146
  23   2.0000      -6.031748      -164.1322
  24   2.0000      -1.014274       -27.5998
  25   2.0000      -0.983000       -26.7488
  26   2.0000      -0.914308       -24.8796
  27   2.0000      -0.910766       -24.7832
  28   2.0000      -0.868192       -23.6247
  29   2.0000      -0.857625       -23.3372
  30   2.0000      -0.846438       -23.0328
  31   2.0000      -0.816127       -22.2080
  32   2.0000      -0.784391       -21.3444
  33   2.0000      -0.772306       -21.0155
  34   2.0000      -0.708298       -19.2738
  35   2.0000      -0.696515       -18.9531
  36   2.0000      -0.687352       -18.7038
  37   2.0000      -0.660585       -17.9754
  38   2.0000      -0.652854       -17.7651
  39   2.0000      -0.621668       -16.9165
  40   2.0000      -0.602313       -16.3898
  41   2.0000      -0.575737       -15.6666
  42   2.0000      -0.573342       -15.6014
  43   2.0000      -0.559915       -15.2361
  44   2.0000      -0.531265       -14.4564
  45   2.0000      -0.518119       -14.0987
  46   2.0000      -0.512942       -13.9579
  47   2.0000      -0.510858       -13.9012
  48   2.0000      -0.503551       -13.7023
  49   2.0000      -0.499448       -13.5907
  50   2.0000      -0.491370       -13.3709
  51   2.0000      -0.486471       -13.2376
  52   2.0000      -0.476678       -12.9711
  53   2.0000      -0.473544       -12.8858
  54   2.0000      -0.456746       -12.4287
  55   2.0000      -0.448976       -12.2173
  56   2.0000      -0.445585       -12.1250
  57   2.0000      -0.430414       -11.7121
  58   2.0000      -0.429133       -11.6773
  59   2.0000      -0.423748       -11.5308
  60   2.0000      -0.419880       -11.4255
  61   2.0000      -0.414904       -11.2901
  62   2.0000      -0.408143       -11.1061
  63   2.0000      -0.344635        -9.3780
  64   2.0000      -0.335701        -9.1349
  65   2.0000      -0.327523        -8.9123
  66   2.0000      -0.294267        -8.0074
  67   0.0000       0.028391         0.7726
  68   0.0000       0.060331         1.6417
  69   0.0000       0.103023         2.8034
  70   0.0000       0.126598         3.4449
  71   0.0000       0.129121         3.5136

MULLIKEN ATOMIC CHARGES
-----------------------
   0 S :    0.127069
   1 C :   -0.116160
   2 C :   -0.030877
   3 C :    0.021619
   4 C :   -0.192625
   5 H :    0.007793
   6 C :    0.052044
   7 H :    0.032170
   8 H :    0.032798
   9 C :   -0.103784
  10 H :    0.017034
  11 H :    0.026960
  12 C :   -0.014124
  13 H :    0.022282
  14 H :    0.010414
  15 H :    0.043894
  16 S :    0.090511
  17 C :   -0.124538
  18 C :   -0.019904
  19 C :   -0.008996
  20 C :   -0.126097
  21 H :    0.031111
  22 C :    0.088688
  23 H :    0.008324
  24 H :   -0.002460
  25 C :   -0.089975
  26 H :    0.022566
  27 H :    0.050486
  28 C :   -0.050785
  29 H :    0.030099
  30 H :    0.027748
  31 H :    0.021869
  32 H :    0.042220
  33 H :    0.072626
Sum of atomic charges:    0.0000000

LOEWDIN ATOMIC CHARGES
----------------------
   0 S :    0.455742
   1 C :   -0.203747
   2 C :   -0.056811
   3 C :   -0.068723
   4 C :   -0.213516
   5 H :    0.030201
   6 C :   -0.037545
   7 H :    0.032277
   8 H :    0.034538
   9 C :   -0.056416
  10 H :    0.020045
  11 H :    0.027996
  12 C :   -0.061067
  13 H :    0.029428
  14 H :    0.013780
  15 H :    0.034735
  16 S :    0.370287
  17 C :   -0.163041
  18 C :   -0.066142
  19 C :   -0.055480
  20 C :   -0.189963
  21 H :    0.038876
  22 C :   -0.034933
  23 H :    0.031115
  24 H :    0.019179
  25 C :   -0.034066
  26 H :    0.020687
  27 H :    0.027807
  28 C :   -0.071437
  29 H :    0.021458
  30 H :    0.035399
  31 H :    0.019030
  32 H :    0.019550
  33 H :    0.030757

  Mayer bond orders larger than 0.100000
B(  0-S ,  1-C ) :   1.1787 B(  0-S ,  4-C ) :   1.1959 B(  1-C ,  2-C ) :   1.5318
B(  1-C ,  4-C ) :   0.1142 B(  1-C , 32-H ) :   0.9837 B(  2-C ,  3-C ) :   1.2829
B(  2-C ,  6-C ) :   1.0016 B(  3-C ,  4-C ) :   1.5223 B(  3-C ,  5-H ) :   1.0014
B(  4-C , 20-C ) :   1.0032 B(  6-C ,  7-H ) :   0.9490 B(  6-C ,  8-H ) :   0.9367
B(  6-C ,  9-C ) :   1.0770 B(  9-C , 10-H ) :   0.9473 B(  9-C , 11-H ) :   0.9410
B(  9-C , 12-C ) :   1.1027 B( 12-C , 13-H ) :   0.9655 B( 12-C , 14-H ) :   0.9678
B( 12-C , 15-H ) :   0.9719 B( 16-S , 17-C ) :   1.1507 B( 16-S , 20-C ) :   1.1425
B( 17-C , 18-C ) :   1.5909 B( 17-C , 20-C ) :   0.1031 B( 17-C , 33-H ) :   0.9670
B( 18-C , 19-C ) :   1.2393 B( 18-C , 21-H ) :   0.9949 B( 19-C , 20-C ) :   1.5873
B( 19-C , 22-C ) :   1.0551 B( 22-C , 23-H ) :   0.9261 B( 22-C , 24-H ) :   0.9382
B( 22-C , 25-C ) :   1.0504 B( 25-C , 26-H ) :   0.9546 B( 25-C , 27-H ) :   0.9592
B( 25-C , 28-C ) :   1.0780 B( 28-C , 29-H ) :   0.9760 B( 28-C , 30-H ) :   0.9720
B( 28-C , 31-H ) :   0.9738

Dispersion correction           -0.014516175
FINAL SINGLE POINT ENERGY     -1339.858724690164

DIPOLE MOMENT
-------------
                                X             Y             Z
Electronic contribution:    -28.30440       8.35504       8.95568
Nuclear contribution   :     28.73127      -8.69769      -9.26254
                        -----------------------------------------
Total Dipole Moment    :      0.42687      -0.34265      -0.30686
                        -----------------------------------------
Magnitude (a.u.)       :      0.62753
Magnitude (Debye)      :      1.59504

Rotational constants in cm-1:     0.017461     0.008821     0.007406
Rotational constants in MHz :   523.480401   264.445336   222.030913

                             ****ORCA TERMINATED NORMALLY****
TOTAL RUN TIME: 0 days 0 hours 0 minutes 22 seconds 244 msec
