                         Program Version 4.2.1 -  RELEASE  -
|  1> ! wB97X-D3 SP def2-SVP
|  2> %pal
|  3> nprocs 24
|  4> end
|  5>
|  6> * xyz 0 1
|  7> S 	 -99.3491 	 24.3126 	 -111.704
|  8> C 	 -100.143 	 22.8236 	 -111.374
|  9> C 	 -101.421 	 23.018 	 -110.809
| 10> C 	 -101.806 	 24.406 	 -110.728
| 11> C 	 -100.839 	 25.2575 	 -111.288
| 12> H 	 -102.72 	 24.8483 	 -110.284
| 13> C 	 -102.375 	 21.8419 	 -110.592
| 14> H 	 -102.746 	 21.8789 	 -109.533
| 15> H 	 -101.747 	 20.952 	 -110.659
| 16> C 	 -103.542 	 21.6256 	 -111.593
| 17> H 	 -104.101 	 20.7248 	 -111.319
| 18> H 	 -104.265 	 22.4238 	 -111.576
| 19> C 	 -103.058 	 21.7025 	 -113.06
| 20> H 	 -103.885 	 21.4387 	 -113.758
| 21> H 	 -102.69 	 22.7381 	 -113.343
| 22> H 	 -102.2 	 21.012 	 -113.224
| 23> S 	 -99.4403 	 27.6112 	 -110.999
| 24> C 	 -99.8504 	 29.0008 	 -111.919
| 25> C 	 -101.059 	 28.7923 	 -112.555
| 26> C 	 -101.652 	 27.522 	 -112.258
| 27> C 	 -100.866 	 26.6899 	 -111.459
| 28> H 	 -101.489 	 29.5337 	 -113.128
| 29> C 	 -103.021 	 27.1681 	 -112.823
| 30> H 	 -103.623 	 28.0741 	 -112.883
| 31> H 	 -103.543 	 26.5282 	 -112.137
| 32> C 	 -102.845 	 26.6148 	 -114.235
| 33> H 	 -102.423 	 25.6702 	 -114.2
| 34> H 	 -102.187 	 27.1209 	 -114.939
| 35> C 	 -104.168 	 26.5395 	 -114.973
| 36> H 	 -104.487 	 27.5155 	 -115.089
| 37> H 	 -104.986 	 26.0087 	 -114.513
| 38> H 	 -104.073 	 26.0776 	 -115.957
| 39> H 	 -99.7164 	 21.8551 	 -111.374
| 40> H 	 -99.3805 	 29.9282 	 -111.966
| 41> *
| 42>
| 43>                          ****END OF INPUT****

CARTESIAN COORDINATES (ANGSTROEM)
---------------------------------
  S    -99.349100   24.312600  -111.704000
  C    -100.143000   22.823600  -111.374000
  C    -101.421000   23.018000  -110.809000
  C    -101.806000   24.406000  -110.728000
  C    -100.839000   25.257500  -111.288000
  H    -102.720000   24.848300  -110.284000
  C    -102.375000   21.841900  -110.592000
  H    -102.746000   21.878900  -109.533000
  H    -101.747000   20.952000  -110.659000
  C    -103.542000   21.625600  -111.593000
  H    -104.101000   20.724800  -111.319000
  H    -104.265000   22.423800  -111.576000
  C    -103.058000   21.702500  -113.060000
  H    -103.885000   21.438700  -113.758000
  H    -102.690000   22.738100  -113.343000
  H    -102.200000   21.012000  -113.224000
  S    -99.440300   27.611200  -110.999000
  C    -99.850400   29.000800  -111.919000
  C    -101.059000   28.792300  -112.555000
  C    -101.652000   27.522000  -112.258000
  C    -100.866000   26.689900  -111.459000
  H    -101.489000   29.533700  -113.128000
  C    -103.021000   27.168100  -112.823000
  H    -103.623000   28.074100  -112.883000
  H    -103.543000   26.528200  -112.137000
  C    -102.845000   26.614800  -114.235000
  H    -102.423000   25.670200  -114.200000
  H    -102.187000   27.120900  -114.939000
  C    -104.168000   26.539500  -114.973000
  H    -104.487000   27.515500  -115.089000
  H    -104.986000   26.008700  -114.513000
  H    -104.073000   26.077600  -115.957000
  H    -99.716400   21.855100  -111.374000
  H    -99.380500   29.928200  -111.966000

 Total Charge           Charge          ....    0
 Multiplicity           Mult            ....    1
 Number of Electrons    NEL             ....  134
 Basis Dimension        Dim             ....  322

ORBITAL ENERGIES
----------------

  NO   OCC          E(Eh)            E(eV)
   0   2.0000     -88.969019     -2420.9701
   1   2.0000     -88.963843     -2420.8293
   2   2.0000     -10.337917      -281.3090
   3   2.0000     -10.325833      -280.9802
   4   2.0000     -10.314053      -280.6596
   5   2.0000     -10.313295      -280.6390
   6   2.0000     -10.305681      -280.4318
   7   2.0000     -10.305280      -280.4209
   8   2.0000     -10.303599      -280.3752
   9   2.0000     -10.296449      -280.1806
  10   2.0000     -10.291135      -280.0360
  11   2.0000     -10.288574      -279.9663
  12   2.0000     -10.288138      -279.9545
  13   2.0000     -10.283567      -279.8301
  14   2.0000     -10.276117      -279.6274
  15   2.0000     -10.265282      -279.3325
  16   2.0000      -8.083011      -219.9499
  17   2.0000      -8.079033      -219.8417
  18   2.0000      -6.041538      -164.3986
  19   2.0000      -6.037615      -164.2919
  20   2.0000      -6.037569      -164.2906
  21   2.0000      -6.033778      -164.1875
  22   2.0000      -6.033242      -164.1729
  23   2.0000      -6.029949      -164.0833
  24   2.0000      -1.005772       -27.3684
  25   2.0000      -0.981239       -26.7009
  26   2.0000      -0.914429       -24.8829
  27   2.0000      -0.904894       -24.6234
  28   2.0000      -0.871610       -23.7177
  29   2.0000      -0.852510       -23.1980
  30   2.0000      -0.842491       -22.9254
  31   2.0000      -0.816032       -22.2054
  32   2.0000      -0.781130       -21.2556
  33   2.0000      -0.767442       -20.8832
  34   2.0000      -0.713265       -19.4089
  35   2.0000      -0.703451       -19.1419
  36   2.0000      -0.692444       -18.8424
  37   2.0000      -0.666461       -18.1353
  38   2.0000      -0.640803       -17.4371
  39   2.0000      -0.618152       -16.8208
  40   2.0000      -0.597536       -16.2598
  41   2.0000      -0.571016       -15.5381
  42   2.0000      -0.565060       -15.3761
  43   2.0000      -0.546568       -14.8729
  44   2.0000      -0.540336       -14.7033
  45   2.0000      -0.530756       -14.4426
  46   2.0000      -0.519278       -14.1303
  47   2.0000      -0.516610       -14.0577
  48   2.0000      -0.506296       -13.7770
  49   2.0000      -0.500092       -13.6082
  50   2.0000      -0.486979       -13.2514
  51   2.0000      -0.480327       -13.0704
  52   2.0000      -0.467155       -12.7119
  53   2.0000      -0.464568       -12.6415
  54   2.0000      -0.457779       -12.4568
  55   2.0000      -0.449074       -12.2199
  56   2.0000      -0.444618       -12.0987
  57   2.0000      -0.439916       -11.9707
  58   2.0000      -0.435223       -11.8430
  59   2.0000      -0.421351       -11.4655
  60   2.0000      -0.418206       -11.3800
  61   2.0000      -0.414204       -11.2711
  62   2.0000      -0.410877       -11.1805
  63   2.0000      -0.350137        -9.5277
  64   2.0000      -0.329739        -8.9727
  65   2.0000      -0.327472        -8.9110
  66   2.0000      -0.289542        -7.8788
  67   0.0000       0.025051         0.6817
  68   0.0000       0.062096         1.6897
  69   0.0000       0.114727         3.1219
  70   0.0000       0.121296         3.3006
  71   0.0000       0.123860         3.3704

MULLIKEN ATOMIC CHARGES
-----------------------
   0 S :    0.122513
   1 C :   -0.092393
   2 C :   -0.117351
   3 C :    0.020389
   4 C :   -0.149320
   5 H :    0.036465
   6 C :    0.047521
   7 H :    0.039886
   8 H :    0.013361
   9 C :   -0.044826
  10 H :    0.037695
  11 H :    0.019985
  12 C :   -0.101845
  13 H :    0.042215
  14 H :    0.059290
  15 H :    0.029036
  16 S :    0.098362
  17 C :   -0.055131
  18 C :   -0.011687
  19 C :   -0.054766
  20 C :   -0.162985
  21 H :   -0.012180
  22 C :    0.102098
  23 H :    0.014947
  24 H :    0.015559
  25 C :   -0.049344
  26 H :    0.013722
  27 H :    0.027332
  28 C :   -0.018168
  29 H :    0.006311
  30 H :    0.018454
  31 H :    0.028248
  32 H :    0.039777
  33 H :    0.036828
Sum of atomic charges:    0.0000000

LOEWDIN ATOMIC CHARGES
----------------------
   0 S :    0.401334
   1 C :   -0.203843
   2 C :   -0.066355
   3 C :   -0.063912
   4 C :   -0.174308
   5 H :    0.040021
   6 C :   -0.036069
   7 H :    0.034968
   8 H :    0.026372
   9 C :   -0.042642
  10 H :    0.027762
  11 H :    0.019408
  12 C :   -0.073832
  13 H :    0.028421
  14 H :    0.034729
  15 H :    0.021217
  16 S :    0.417601
  17 C :   -0.180042
  18 C :   -0.065575
  19 C :   -0.041483
  20 C :   -0.214056
  21 H :    0.017393
  22 C :   -0.021788
  23 H :    0.029479
  24 H :    0.027033
  25 C :   -0.032879
  26 H :    0.015785
  27 H :    0.030171
  28 C :   -0.060297
  29 H :    0.012087
  30 H :    0.020311
  31 H :    0.027495
  32 H :    0.023011
  33 H :    0.022484

  Mayer bond orders larger than 0.100000
B(  0-S ,  1-C ) :   1.1478 B(  0-S ,  4-C ) :   1.1316 B(  1-C ,  2-C ) :   1.5984
B(  1-C , 32-H ) :   0.9654 B(  2-C ,  3-C ) :   1.2291 B(  2-C ,  6-C ) :   1.0363
B(  3-C ,  4-C ) :   1.5738 B(  3-C ,  5-H ) :   0.9879 B(  4-C , 20-C ) :   1.0745
B(  6-C ,  7-H ) :   0.9396 B(  6-C ,  8-H ) :   0.9426 B(  6-C ,  9-C ) :   1.0625
B(  9-C , 10-H ) :   0.9579 B(  9-C , 11-H ) :   0.9558 B(  9-C , 12-C ) :   1.0655
B( 12-C , 13-H ) :   0.9739 B( 12-C , 14-H ) :   0.9695 B( 12-C , 15-H ) :   0.9784
B( 16-S , 17-C ) :   1.1737 B( 16-S , 20-C ) :   1.1292 B( 17-C , 18-C ) :   1.5711
B( 17-C , 33-H ) :   0.9750 B( 18-C , 19-C ) :   1.2775 B( 18-C , 21-H ) :   1.0026
B( 19-C , 20-C ) :   1.5562 B( 19-C , 22-C ) :   1.0388 B( 22-C , 23-H ) :   0.9384
B( 22-C , 24-H ) :   0.9360 B( 22-C , 25-C ) :   1.0513 B( 25-C , 26-H ) :   0.9520
B( 25-C , 27-H ) :   0.9579 B( 25-C , 28-C ) :   1.0851 B( 28-C , 29-H ) :   0.9751
B( 28-C , 30-H ) :   0.9720 B( 28-C , 31-H ) :   0.9716

Dispersion correction           -0.015168711
FINAL SINGLE POINT ENERGY     -1339.875145369289

DIPOLE MOMENT
-------------
                                X             Y             Z
Electronic contribution:     24.29705      11.56318      13.32433
Nuclear contribution   :    -24.88499     -11.56069     -13.57062
                        -----------------------------------------
Total Dipole Moment    :     -0.58794       0.00248      -0.24629
                        -----------------------------------------
Magnitude (a.u.)       :      0.63744
Magnitude (Debye)      :      1.62025

Rotational constants in cm-1:     0.018249     0.010083     0.007230
Rotational constants in MHz :   547.090521   302.290490   216.759079

                             ****ORCA TERMINATED NORMALLY****
TOTAL RUN TIME: 0 days 0 hours 0 minutes 22 seconds 503 msec
