                         Program Version 4.2.1 -  RELEASE  -
|  1> ! wB97X-D3 SP def2-SVP
|  2> %pal
|  3> nprocs 24
|  4> end
|  5>
|  6> * xyz 0 1
|  7> S 	 -145.305 	 28.5882 	 -16.1953
|  8> C 	 -144.81 	 29.5602 	 -17.5839
|  9> C 	 -144.54 	 30.8652 	 -17.2561
| 10> C 	 -144.916 	 31.1148 	 -15.9296
| 11> C 	 -145.337 	 30.0012 	 -15.2166
| 12> H 	 -144.988 	 32.0424 	 -15.4083
| 13> C 	 -144.267 	 32.0092 	 -18.1705
| 14> H 	 -145.235 	 32.2256 	 -18.6405
| 15> H 	 -143.625 	 31.6346 	 -18.9861
| 16> C 	 -143.52 	 33.173 	 -17.711
| 17> H 	 -144.128 	 33.8484 	 -17.1102
| 18> H 	 -142.648 	 32.9655 	 -17.0941
| 19> C 	 -143.05 	 33.9606 	 -18.8939
| 20> H 	 -142.564 	 34.9136 	 -18.6263
| 21> H 	 -142.319 	 33.4429 	 -19.4409
| 22> H 	 -143.894 	 34.4112 	 -19.4264
| 23> S 	 -144.699 	 28.9763 	 -12.7634
| 24> C 	 -145.376 	 29.6632 	 -11.3809
| 25> C 	 -146.399 	 30.5553 	 -11.6932
| 26> C 	 -146.525 	 30.8812 	 -13.0922
| 27> C 	 -145.712 	 30.0081 	 -13.8029
| 28> H 	 -146.998 	 30.8698 	 -10.8644
| 29> C 	 -147.465 	 31.9339 	 -13.5859
| 30> H 	 -148.525 	 31.6693 	 -13.2683
| 31> H 	 -147.49 	 31.7686 	 -14.6546
| 32> C 	 -147.049 	 33.4107 	 -13.2185
| 33> H 	 -147.552 	 34.1844 	 -13.7521
| 34> H 	 -146.058 	 33.6837 	 -13.4188
| 35> C 	 -147.254 	 33.7738 	 -11.7628
| 36> H 	 -148.284 	 33.4269 	 -11.3431
| 37> H 	 -147.301 	 34.8763 	 -11.6926
| 38> H 	 -146.543 	 33.308 	 -11.0543
| 39> H 	 -144.65 	 29.171 	 -18.5594
| 40> H 	 -145.178 	 29.207 	 -10.4097
| 41> *
| 42>
| 43>                          ****END OF INPUT****

CARTESIAN COORDINATES (ANGSTROEM)
---------------------------------
  S    -145.305000   28.588200  -16.195300
  C    -144.810000   29.560200  -17.583900
  C    -144.540000   30.865200  -17.256100
  C    -144.916000   31.114800  -15.929600
  C    -145.337000   30.001200  -15.216600
  H    -144.988000   32.042400  -15.408300
  C    -144.267000   32.009200  -18.170500
  H    -145.235000   32.225600  -18.640500
  H    -143.625000   31.634600  -18.986100
  C    -143.520000   33.173000  -17.711000
  H    -144.128000   33.848400  -17.110200
  H    -142.648000   32.965500  -17.094100
  C    -143.050000   33.960600  -18.893900
  H    -142.564000   34.913600  -18.626300
  H    -142.319000   33.442900  -19.440900
  H    -143.894000   34.411200  -19.426400
  S    -144.699000   28.976300  -12.763400
  C    -145.376000   29.663200  -11.380900
  C    -146.399000   30.555300  -11.693200
  C    -146.525000   30.881200  -13.092200
  C    -145.712000   30.008100  -13.802900
  H    -146.998000   30.869800  -10.864400
  C    -147.465000   31.933900  -13.585900
  H    -148.525000   31.669300  -13.268300
  H    -147.490000   31.768600  -14.654600
  C    -147.049000   33.410700  -13.218500
  H    -147.552000   34.184400  -13.752100
  H    -146.058000   33.683700  -13.418800
  C    -147.254000   33.773800  -11.762800
  H    -148.284000   33.426900  -11.343100
  H    -147.301000   34.876300  -11.692600
  H    -146.543000   33.308000  -11.054300
  H    -144.650000   29.171000  -18.559400
  H    -145.178000   29.207000  -10.409700

 Total Charge           Charge          ....    0
 Multiplicity           Mult            ....    1
 Number of Electrons    NEL             ....  134
 Basis Dimension        Dim             ....  322

ORBITAL ENERGIES
----------------

  NO   OCC          E(Eh)            E(eV)
   0   2.0000     -88.966582     -2420.9038
   1   2.0000     -88.961758     -2420.7725
   2   2.0000     -10.326443      -280.9968
   3   2.0000     -10.321531      -280.8632
   4   2.0000     -10.312014      -280.6042
   5   2.0000     -10.308579      -280.5107
   6   2.0000     -10.306323      -280.4493
   7   2.0000     -10.301447      -280.3166
   8   2.0000     -10.294183      -280.1189
   9   2.0000     -10.290972      -280.0316
  10   2.0000     -10.287610      -279.9401
  11   2.0000     -10.285907      -279.8938
  12   2.0000     -10.285569      -279.8846
  13   2.0000     -10.283480      -279.8277
  14   2.0000     -10.280673      -279.7513
  15   2.0000     -10.274011      -279.5701
  16   2.0000      -8.081470      -219.9080
  17   2.0000      -8.077681      -219.8049
  18   2.0000      -6.039899      -164.3540
  19   2.0000      -6.036022      -164.2485
  20   2.0000      -6.035985      -164.2475
  21   2.0000      -6.032294      -164.1471
  22   2.0000      -6.032043      -164.1402
  23   2.0000      -6.028519      -164.0444
  24   2.0000      -1.008714       -27.4485
  25   2.0000      -0.987180       -26.8625
  26   2.0000      -0.928899       -25.2766
  27   2.0000      -0.910612       -24.7790
  28   2.0000      -0.872800       -23.7501
  29   2.0000      -0.858425       -23.3589
  30   2.0000      -0.846848       -23.0439
  31   2.0000      -0.809477       -22.0270
  32   2.0000      -0.786699       -21.4072
  33   2.0000      -0.774575       -21.0773
  34   2.0000      -0.710254       -19.3270
  35   2.0000      -0.703260       -19.1367
  36   2.0000      -0.690082       -18.7781
  37   2.0000      -0.660144       -17.9634
  38   2.0000      -0.641789       -17.4640
  39   2.0000      -0.621744       -16.9185
  40   2.0000      -0.596262       -16.2251
  41   2.0000      -0.587097       -15.9757
  42   2.0000      -0.567112       -15.4319
  43   2.0000      -0.553712       -15.0673
  44   2.0000      -0.547241       -14.8912
  45   2.0000      -0.525481       -14.2991
  46   2.0000      -0.515007       -14.0141
  47   2.0000      -0.508597       -13.8396
  48   2.0000      -0.504227       -13.7207
  49   2.0000      -0.501381       -13.6433
  50   2.0000      -0.493025       -13.4159
  51   2.0000      -0.480295       -13.0695
  52   2.0000      -0.471233       -12.8229
  53   2.0000      -0.467062       -12.7094
  54   2.0000      -0.459396       -12.5008
  55   2.0000      -0.444312       -12.0904
  56   2.0000      -0.440708       -11.9923
  57   2.0000      -0.435035       -11.8379
  58   2.0000      -0.428796       -11.6681
  59   2.0000      -0.426231       -11.5983
  60   2.0000      -0.422713       -11.5026
  61   2.0000      -0.420673       -11.4471
  62   2.0000      -0.417430       -11.3588
  63   2.0000      -0.340654        -9.2697
  64   2.0000      -0.332865        -9.0577
  65   2.0000      -0.329379        -8.9629
  66   2.0000      -0.289489        -7.8774
  67   0.0000       0.036246         0.9863
  68   0.0000       0.069262         1.8847
  69   0.0000       0.116429         3.1682
  70   0.0000       0.121904         3.3172
  71   0.0000       0.126707         3.4479

MULLIKEN ATOMIC CHARGES
-----------------------
   0 S :    0.119397
   1 C :   -0.122431
   2 C :   -0.036094
   3 C :    0.021621
   4 C :   -0.164882
   5 H :   -0.007187
   6 C :    0.052098
   7 H :    0.049022
   8 H :    0.012282
   9 C :   -0.058164
  10 H :    0.019558
  11 H :    0.032054
  12 C :   -0.041588
  13 H :    0.017218
  14 H :    0.031840
  15 H :    0.027633
  16 S :    0.107953
  17 C :   -0.100399
  18 C :   -0.043619
  19 C :   -0.024960
  20 C :   -0.158598
  21 H :    0.013284
  22 C :    0.056191
  23 H :    0.051189
  24 H :    0.022161
  25 C :   -0.005118
  26 H :    0.017974
  27 H :    0.015614
  28 C :   -0.110733
  29 H :    0.026011
  30 H :    0.037831
  31 H :    0.050950
  32 H :    0.028229
  33 H :    0.063663
Sum of atomic charges:   -0.0000000

LOEWDIN ATOMIC CHARGES
----------------------
   0 S :    0.414390
   1 C :   -0.188185
   2 C :   -0.063914
   3 C :   -0.062819
   4 C :   -0.209209
   5 H :    0.025164
   6 C :   -0.037160
   7 H :    0.042213
   8 H :    0.033100
   9 C :   -0.046771
  10 H :    0.021667
  11 H :    0.029787
  12 C :   -0.061505
  13 H :    0.028073
  14 H :    0.018253
  15 H :    0.028967
  16 S :    0.417479
  17 C :   -0.207338
  18 C :   -0.071782
  19 C :   -0.053320
  20 C :   -0.188114
  21 H :    0.026304
  22 C :   -0.031810
  23 H :    0.044735
  24 H :    0.029804
  25 C :   -0.037281
  26 H :    0.024844
  27 H :    0.021186
  28 C :   -0.075292
  29 H :    0.026456
  30 H :    0.028849
  31 H :    0.024679
  32 H :    0.019094
  33 H :    0.029459

  Mayer bond orders larger than 0.100000
B(  0-S ,  1-C ) :   1.1359 B(  0-S ,  4-C ) :   1.1619 B(  1-C ,  2-C ) :   1.6035
B(  1-C , 32-H ) :   0.9752 B(  2-C ,  3-C ) :   1.2378 B(  2-C ,  6-C ) :   1.0243
B(  3-C ,  4-C ) :   1.5685 B(  3-C ,  5-H ) :   1.0005 B(  4-C , 20-C ) :   1.0086
B(  6-C ,  7-H ) :   0.9301 B(  6-C ,  8-H ) :   0.9380 B(  6-C ,  9-C ) :   1.0759
B(  9-C , 10-H ) :   0.9364 B(  9-C , 11-H ) :   0.9545 B(  9-C , 12-C ) :   1.1061
B( 12-C , 13-H ) :   0.9669 B( 12-C , 14-H ) :   0.9744 B( 12-C , 15-H ) :   0.9688
B( 16-S , 17-C ) :   1.1709 B( 16-S , 20-C ) :   1.1543 B( 17-C , 18-C ) :   1.6052
B( 17-C , 33-H ) :   0.9633 B( 18-C , 19-C ) :   1.2089 B( 18-C , 21-H ) :   0.9901
B( 19-C , 20-C ) :   1.6116 B( 19-C , 22-C ) :   1.0419 B( 22-C , 23-H ) :   0.9427
B( 22-C , 24-H ) :   0.9279 B( 22-C , 25-C ) :   1.0533 B( 25-C , 26-H ) :   0.9572
B( 25-C , 27-H ) :   0.9499 B( 25-C , 28-C ) :   1.0810 B( 28-C , 29-H ) :   0.9740
B( 28-C , 30-H ) :   0.9720 B( 28-C , 31-H ) :   0.9707

Dispersion correction           -0.014221572
FINAL SINGLE POINT ENERGY     -1339.866973671677

DIPOLE MOMENT
-------------
                                X             Y             Z
Electronic contribution:      1.78502     -29.19266       5.97778
Nuclear contribution   :     -1.91657      29.91469      -6.10458
                        -----------------------------------------
Total Dipole Moment    :     -0.13155       0.72203      -0.12680
                        -----------------------------------------
Magnitude (a.u.)       :      0.74479
Magnitude (Debye)      :      1.89310

Rotational constants in cm-1:     0.017243     0.009054     0.006675
Rotational constants in MHz :   516.923077   271.418959   200.101109

                             ****ORCA TERMINATED NORMALLY****
TOTAL RUN TIME: 0 days 0 hours 0 minutes 21 seconds 927 msec
