                         Program Version 4.2.1 -  RELEASE  -
|  1> ! wB97X-D3 SP def2-SVP
|  2> %pal
|  3> nprocs 24
|  4> end
|  5>
|  6> * xyz 0 1
|  7> S 	 -133.65 	 61.3027 	 -58.706
|  8> C 	 -133.546 	 62.3022 	 -60.1656
|  9> C 	 -133.203 	 63.6069 	 -59.816
| 10> C 	 -133.105 	 63.8467 	 -58.3907
| 11> C 	 -133.197 	 62.6791 	 -57.679
| 12> H 	 -132.966 	 64.8044 	 -57.9648
| 13> C 	 -133.416 	 64.6843 	 -60.7745
| 14> H 	 -133.44 	 64.2944 	 -61.7676
| 15> H 	 -132.48 	 65.2392 	 -60.5922
| 16> C 	 -134.499 	 65.7815 	 -60.5064
| 17> H 	 -135.438 	 65.2352 	 -60.3433
| 18> H 	 -134.242 	 66.3297 	 -59.6256
| 19> C 	 -134.527 	 66.8098 	 -61.614
| 20> H 	 -133.689 	 67.4659 	 -61.5854
| 21> H 	 -134.58 	 66.3441 	 -62.5927
| 22> H 	 -135.418 	 67.3899 	 -61.48
| 23> S 	 -134.327 	 61.5539 	 -55.4064
| 24> C 	 -133.64 	 61.9325 	 -53.858
| 25> C 	 -132.582 	 62.776 	 -53.9327
| 26> C 	 -132.184 	 63.0674 	 -55.3458
| 27> C 	 -133.143 	 62.5862 	 -56.2394
| 28> H 	 -132.237 	 63.1459 	 -52.9865
| 29> C 	 -130.898 	 63.8439 	 -55.6918
| 30> H 	 -130.555 	 63.3879 	 -56.7119
| 31> H 	 -130.203 	 63.6587 	 -54.9116
| 32> C 	 -131.079 	 65.3558 	 -55.7742
| 33> H 	 -131.653 	 65.7306 	 -54.9061
| 34> H 	 -131.698 	 65.4909 	 -56.6196
| 35> C 	 -129.818 	 66.1204 	 -55.7863
| 36> H 	 -129.18 	 65.6675 	 -56.5805
| 37> H 	 -129.283 	 66.0215 	 -54.8425
| 38> H 	 -130.045 	 67.1432 	 -56.0086
| 39> H 	 -133.875 	 62.0284 	 -61.0708
| 40> H 	 -134.028 	 61.6488 	 -52.8675
| 41> *
| 42>
| 43>                          ****END OF INPUT****

CARTESIAN COORDINATES (ANGSTROEM)
---------------------------------
  S    -133.650000   61.302700  -58.706000
  C    -133.546000   62.302200  -60.165600
  C    -133.203000   63.606900  -59.816000
  C    -133.105000   63.846700  -58.390700
  C    -133.197000   62.679100  -57.679000
  H    -132.966000   64.804400  -57.964800
  C    -133.416000   64.684300  -60.774500
  H    -133.440000   64.294400  -61.767600
  H    -132.480000   65.239200  -60.592200
  C    -134.499000   65.781500  -60.506400
  H    -135.438000   65.235200  -60.343300
  H    -134.242000   66.329700  -59.625600
  C    -134.527000   66.809800  -61.614000
  H    -133.689000   67.465900  -61.585400
  H    -134.580000   66.344100  -62.592700
  H    -135.418000   67.389900  -61.480000
  S    -134.327000   61.553900  -55.406400
  C    -133.640000   61.932500  -53.858000
  C    -132.582000   62.776000  -53.932700
  C    -132.184000   63.067400  -55.345800
  C    -133.143000   62.586200  -56.239400
  H    -132.237000   63.145900  -52.986500
  C    -130.898000   63.843900  -55.691800
  H    -130.555000   63.387900  -56.711900
  H    -130.203000   63.658700  -54.911600
  C    -131.079000   65.355800  -55.774200
  H    -131.653000   65.730600  -54.906100
  H    -131.698000   65.490900  -56.619600
  C    -129.818000   66.120400  -55.786300
  H    -129.180000   65.667500  -56.580500
  H    -129.283000   66.021500  -54.842500
  H    -130.045000   67.143200  -56.008600
  H    -133.875000   62.028400  -61.070800
  H    -134.028000   61.648800  -52.867500

 Total Charge           Charge          ....    0
 Multiplicity           Mult            ....    1
 Number of Electrons    NEL             ....  134
 Basis Dimension        Dim             ....  322

ORBITAL ENERGIES
----------------

  NO   OCC          E(Eh)            E(eV)
   0   2.0000     -88.965153     -2420.8649
   1   2.0000     -88.963157     -2420.8106
   2   2.0000     -10.332047      -281.1493
   3   2.0000     -10.328291      -281.0471
   4   2.0000     -10.315078      -280.6875
   5   2.0000     -10.313301      -280.6392
   6   2.0000     -10.307276      -280.4752
   7   2.0000     -10.298146      -280.2268
   8   2.0000     -10.296950      -280.1943
   9   2.0000     -10.294723      -280.1336
  10   2.0000     -10.294670      -280.1322
  11   2.0000     -10.287441      -279.9355
  12   2.0000     -10.284297      -279.8500
  13   2.0000     -10.279494      -279.7192
  14   2.0000     -10.276594      -279.6403
  15   2.0000     -10.274213      -279.5755
  16   2.0000      -8.079134      -219.8444
  17   2.0000      -8.077855      -219.8096
  18   2.0000      -6.037821      -164.2975
  19   2.0000      -6.036534      -164.2624
  20   2.0000      -6.033823      -164.1887
  21   2.0000      -6.032451      -164.1513
  22   2.0000      -6.029676      -164.0758
  23   2.0000      -6.028358      -164.0400
  24   2.0000      -1.002836       -27.2886
  25   2.0000      -0.979417       -26.6513
  26   2.0000      -0.916816       -24.9478
  27   2.0000      -0.916116       -24.9288
  28   2.0000      -0.875096       -23.8126
  29   2.0000      -0.855059       -23.2673
  30   2.0000      -0.846447       -23.0330
  31   2.0000      -0.822965       -22.3940
  32   2.0000      -0.781652       -21.2698
  33   2.0000      -0.769204       -20.9311
  34   2.0000      -0.713066       -19.4035
  35   2.0000      -0.702155       -19.1066
  36   2.0000      -0.692274       -18.8377
  37   2.0000      -0.658115       -17.9082
  38   2.0000      -0.643261       -17.5040
  39   2.0000      -0.625646       -17.0247
  40   2.0000      -0.589729       -16.0473
  41   2.0000      -0.577194       -15.7063
  42   2.0000      -0.572807       -15.5869
  43   2.0000      -0.563871       -15.3437
  44   2.0000      -0.534116       -14.5340
  45   2.0000      -0.525985       -14.3128
  46   2.0000      -0.521838       -14.1999
  47   2.0000      -0.512312       -13.9407
  48   2.0000      -0.510407       -13.8889
  49   2.0000      -0.507584       -13.8121
  50   2.0000      -0.502615       -13.6768
  51   2.0000      -0.475386       -12.9359
  52   2.0000      -0.469355       -12.7718
  53   2.0000      -0.468037       -12.7359
  54   2.0000      -0.458226       -12.4690
  55   2.0000      -0.454423       -12.3655
  56   2.0000      -0.448171       -12.1954
  57   2.0000      -0.435005       -11.8371
  58   2.0000      -0.434163       -11.8142
  59   2.0000      -0.426254       -11.5990
  60   2.0000      -0.421289       -11.4638
  61   2.0000      -0.414637       -11.2829
  62   2.0000      -0.410920       -11.1817
  63   2.0000      -0.351628        -9.5683
  64   2.0000      -0.326220        -8.8769
  65   2.0000      -0.323749        -8.8097
  66   2.0000      -0.291758        -7.9391
  67   0.0000       0.026186         0.7126
  68   0.0000       0.076646         2.0856
  69   0.0000       0.106846         2.9074
  70   0.0000       0.117844         3.2067
  71   0.0000       0.128032         3.4839

MULLIKEN ATOMIC CHARGES
-----------------------
   0 S :    0.098216
   1 C :   -0.074350
   2 C :   -0.055226
   3 C :    0.001216
   4 C :   -0.116561
   5 H :    0.010720
   6 C :    0.030385
   7 H :    0.012258
   8 H :    0.019108
   9 C :   -0.060588
  10 H :    0.037131
  11 H :    0.020343
  12 C :   -0.012571
  13 H :    0.025334
  14 H :    0.024928
  15 H :    0.030035
  16 S :    0.096507
  17 C :   -0.089797
  18 C :   -0.031468
  19 C :   -0.057227
  20 C :   -0.148475
  21 H :    0.014654
  22 C :    0.055597
  23 H :    0.057558
  24 H :    0.009041
  25 C :   -0.060163
  26 H :    0.025071
  27 H :   -0.007467
  28 C :   -0.013161
  29 H :    0.028289
  30 H :    0.034177
  31 H :    0.034232
  32 H :    0.001609
  33 H :    0.060646
Sum of atomic charges:   -0.0000000

LOEWDIN ATOMIC CHARGES
----------------------
   0 S :    0.380669
   1 C :   -0.173019
   2 C :   -0.058010
   3 C :   -0.054259
   4 C :   -0.176023
   5 H :    0.023425
   6 C :   -0.038944
   7 H :    0.023473
   8 H :    0.034695
   9 C :   -0.032222
  10 H :    0.024915
  11 H :    0.020628
  12 C :   -0.055477
  13 H :    0.022281
  14 H :    0.023653
  15 H :    0.027726
  16 S :    0.385694
  17 C :   -0.188598
  18 C :   -0.075001
  19 C :   -0.042631
  20 C :   -0.193141
  21 H :    0.029861
  22 C :   -0.031083
  23 H :    0.046243
  24 H :    0.022456
  25 C :   -0.045442
  26 H :    0.026970
  27 H :    0.011380
  28 C :   -0.060301
  29 H :    0.029073
  30 H :    0.026265
  31 H :    0.026283
  32 H :    0.001497
  33 H :    0.036962

  Mayer bond orders larger than 0.100000
B(  0-S ,  1-C ) :   1.1133 B(  0-S ,  4-C ) :   1.1357 B(  1-C ,  2-C ) :   1.6066
B(  1-C , 32-H ) :   0.9851 B(  2-C ,  3-C ) :   1.2073 B(  2-C ,  6-C ) :   1.0546
B(  3-C ,  4-C ) :   1.5744 B(  3-C ,  5-H ) :   0.9968 B(  4-C , 20-C ) :   1.0735
B(  6-C ,  7-H ) :   0.9494 B(  6-C ,  8-H ) :   0.9206 B(  6-C ,  9-C ) :   1.0621
B(  9-C , 10-H ) :   0.9594 B(  9-C , 11-H ) :   0.9462 B(  9-C , 12-C ) :   1.0867
B( 12-C , 13-H ) :   0.9755 B( 12-C , 14-H ) :   0.9756 B( 12-C , 15-H ) :   0.9711
B( 16-S , 17-C ) :   1.1335 B( 16-S , 20-C ) :   1.1067 B( 17-C , 18-C ) :   1.6917
B( 17-C , 33-H ) :   0.9583 B( 18-C , 19-C ) :   1.1693 B( 18-C , 21-H ) :   0.9879
B( 19-C , 20-C ) :   1.6294 B( 19-C , 22-C ) :   1.0496 B( 22-C , 23-H ) :   0.9260
B( 22-C , 24-H ) :   0.9325 B( 22-C , 25-C ) :   1.0691 B( 25-C , 26-H ) :   0.9497
B( 25-C , 27-H ) :   0.9451 B( 25-C , 28-C ) :   1.0984 B( 28-C , 29-H ) :   0.9684
B( 28-C , 30-H ) :   0.9724 B( 28-C , 31-H ) :   0.9691

Dispersion correction           -0.014046674
FINAL SINGLE POINT ENERGY     -1339.864077867364

DIPOLE MOMENT
-------------
                                X             Y             Z
Electronic contribution:     -9.45859     -27.49057       8.87807
Nuclear contribution   :      9.58889      28.28205      -8.83589
                        -----------------------------------------
Total Dipole Moment    :      0.13030       0.79148       0.04219
                        -----------------------------------------
Magnitude (a.u.)       :      0.80324
Magnitude (Debye)      :      2.04167

Rotational constants in cm-1:     0.016729     0.009109     0.006724
Rotational constants in MHz :   501.516629   273.066336   201.590326

                             ****ORCA TERMINATED NORMALLY****
TOTAL RUN TIME: 0 days 0 hours 0 minutes 20 seconds 673 msec
