                         Program Version 4.2.1 -  RELEASE  -
|  1> ! wB97X-D3 SP def2-SVP
|  2> %pal
|  3> nprocs 24
|  4> end
|  5>
|  6> * xyz 0 1
|  7> S 	 -49.3748 	 16.8415 	 22.7935
|  8> C 	 -49.4442 	 17.9307 	 24.1538
|  9> C 	 -49.327 	 19.3072 	 23.771
| 10> C 	 -48.9562 	 19.4291 	 22.3751
| 11> C 	 -48.8629 	 18.1824 	 21.7503
| 12> H 	 -48.7551 	 20.3088 	 21.8238
| 13> C 	 -49.4577 	 20.4726 	 24.7232
| 14> H 	 -49.947 	 20.0946 	 25.6218
| 15> H 	 -50.0811 	 21.2502 	 24.2784
| 16> C 	 -48.0882 	 20.9303 	 24.9725
| 17> H 	 -47.4637 	 21.0022 	 24.0828
| 18> H 	 -48.1495 	 21.8201 	 25.4881
| 19> C 	 -47.337 	 19.9574 	 25.9208
| 20> H 	 -47.8164 	 19.6812 	 26.824
| 21> H 	 -47.2017 	 19.0187 	 25.4221
| 22> H 	 -46.4005 	 20.3378 	 26.2518
| 23> S 	 -50.0375 	 18.0203 	 19.2373
| 24> C 	 -49.0635 	 17.4213 	 17.8914
| 25> C 	 -47.7255 	 17.3205 	 18.2818
| 26> C 	 -47.4181 	 17.7748 	 19.5995
| 27> C 	 -48.5703 	 18.0476 	 20.3196
| 28> H 	 -46.9605 	 16.7322 	 17.7325
| 29> C 	 -46.1113 	 17.395 	 20.1796
| 30> H 	 -45.8768 	 18.2405 	 20.8452
| 31> H 	 -45.3339 	 17.485 	 19.4343
| 32> C 	 -45.928 	 16.0665 	 20.8867
| 33> H 	 -46.6334 	 15.9754 	 21.708
| 34> H 	 -44.9393 	 16.0879 	 21.3839
| 35> C 	 -45.9426 	 14.9063 	 19.9431
| 36> H 	 -45.3534 	 15.0216 	 19.0185
| 37> H 	 -46.859 	 14.7076 	 19.5707
| 38> H 	 -45.6092 	 14.1193 	 20.5161
| 39> H 	 -49.7127 	 17.5833 	 25.1574
| 40> H 	 -49.3819 	 17.0281 	 16.979
| 41> *
| 42>
| 43>                          ****END OF INPUT****

CARTESIAN COORDINATES (ANGSTROEM)
---------------------------------
  S    -49.374800   16.841500   22.793500
  C    -49.444200   17.930700   24.153800
  C    -49.327000   19.307200   23.771000
  C    -48.956200   19.429100   22.375100
  C    -48.862900   18.182400   21.750300
  H    -48.755100   20.308800   21.823800
  C    -49.457700   20.472600   24.723200
  H    -49.947000   20.094600   25.621800
  H    -50.081100   21.250200   24.278400
  C    -48.088200   20.930300   24.972500
  H    -47.463700   21.002200   24.082800
  H    -48.149500   21.820100   25.488100
  C    -47.337000   19.957400   25.920800
  H    -47.816400   19.681200   26.824000
  H    -47.201700   19.018700   25.422100
  H    -46.400500   20.337800   26.251800
  S    -50.037500   18.020300   19.237300
  C    -49.063500   17.421300   17.891400
  C    -47.725500   17.320500   18.281800
  C    -47.418100   17.774800   19.599500
  C    -48.570300   18.047600   20.319600
  H    -46.960500   16.732200   17.732500
  C    -46.111300   17.395000   20.179600
  H    -45.876800   18.240500   20.845200
  H    -45.333900   17.485000   19.434300
  C    -45.928000   16.066500   20.886700
  H    -46.633400   15.975400   21.708000
  H    -44.939300   16.087900   21.383900
  C    -45.942600   14.906300   19.943100
  H    -45.353400   15.021600   19.018500
  H    -46.859000   14.707600   19.570700
  H    -45.609200   14.119300   20.516100
  H    -49.712700   17.583300   25.157400
  H    -49.381900   17.028100   16.979000

 Total Charge           Charge          ....    0
 Multiplicity           Mult            ....    1
 Number of Electrons    NEL             ....  134
 Basis Dimension        Dim             ....  322

ORBITAL ENERGIES
----------------

  NO   OCC          E(Eh)            E(eV)
   0   2.0000     -88.972915     -2421.0761
   1   2.0000     -88.963972     -2420.8327
   2   2.0000     -10.331972      -281.1473
   3   2.0000     -10.329632      -281.0836
   4   2.0000     -10.320753      -280.8420
   5   2.0000     -10.315333      -280.6945
   6   2.0000     -10.309105      -280.5250
   7   2.0000     -10.299186      -280.2551
   8   2.0000     -10.298493      -280.2362
   9   2.0000     -10.293748      -280.1071
  10   2.0000     -10.289593      -279.9941
  11   2.0000     -10.281718      -279.7798
  12   2.0000     -10.280428      -279.7447
  13   2.0000     -10.276988      -279.6511
  14   2.0000     -10.264363      -279.3075
  15   2.0000     -10.258185      -279.1394
  16   2.0000      -8.086579      -220.0470
  17   2.0000      -8.077385      -219.7968
  18   2.0000      -6.045059      -164.4944
  19   2.0000      -6.041287      -164.3918
  20   2.0000      -6.037391      -164.2858
  21   2.0000      -6.036042      -164.2490
  22   2.0000      -6.032058      -164.1406
  23   2.0000      -6.028077      -164.0323
  24   2.0000      -0.998000       -27.1570
  25   2.0000      -0.976598       -26.5746
  26   2.0000      -0.925606       -25.1870
  27   2.0000      -0.913406       -24.8550
  28   2.0000      -0.863325       -23.4923
  29   2.0000      -0.852474       -23.1970
  30   2.0000      -0.846302       -23.0290
  31   2.0000      -0.808046       -21.9881
  32   2.0000      -0.786997       -21.4153
  33   2.0000      -0.774895       -21.0860
  34   2.0000      -0.713211       -19.4075
  35   2.0000      -0.700087       -19.0503
  36   2.0000      -0.688946       -18.7472
  37   2.0000      -0.662168       -18.0185
  38   2.0000      -0.646482       -17.5917
  39   2.0000      -0.618546       -16.8315
  40   2.0000      -0.591956       -16.1080
  41   2.0000      -0.574318       -15.6280
  42   2.0000      -0.558329       -15.1929
  43   2.0000      -0.551499       -15.0071
  44   2.0000      -0.550040       -14.9673
  45   2.0000      -0.542258       -14.7556
  46   2.0000      -0.520384       -14.1604
  47   2.0000      -0.512769       -13.9532
  48   2.0000      -0.498364       -13.5612
  49   2.0000      -0.490169       -13.3382
  50   2.0000      -0.487568       -13.2674
  51   2.0000      -0.479399       -13.0451
  52   2.0000      -0.473768       -12.8919
  53   2.0000      -0.466828       -12.7030
  54   2.0000      -0.460169       -12.5218
  55   2.0000      -0.449466       -12.2306
  56   2.0000      -0.443408       -12.0657
  57   2.0000      -0.438063       -11.9203
  58   2.0000      -0.432133       -11.7589
  59   2.0000      -0.428926       -11.6717
  60   2.0000      -0.419749       -11.4219
  61   2.0000      -0.414227       -11.2717
  62   2.0000      -0.408783       -11.1236
  63   2.0000      -0.336634        -9.1603
  64   2.0000      -0.328970        -8.9517
  65   2.0000      -0.312209        -8.4956
  66   2.0000      -0.307226        -8.3600
  67   0.0000       0.037178         1.0117
  68   0.0000       0.042493         1.1563
  69   0.0000       0.106130         2.8879
  70   0.0000       0.118217         3.2169
  71   0.0000       0.118709         3.2302

MULLIKEN ATOMIC CHARGES
-----------------------
   0 S :    0.130086
   1 C :   -0.127470
   2 C :   -0.133826
   3 C :    0.055273
   4 C :   -0.163237
   5 H :    0.010578
   6 C :    0.102488
   7 H :    0.020057
   8 H :    0.036176
   9 C :   -0.029083
  10 H :    0.040161
  11 H :    0.009697
  12 C :   -0.039917
  13 H :    0.005135
  14 H :    0.030016
  15 H :    0.020642
  16 S :    0.098496
  17 C :   -0.058306
  18 C :   -0.069665
  19 C :    0.004743
  20 C :   -0.205780
  21 H :    0.031514
  22 C :    0.038561
  23 H :    0.022310
  24 H :    0.008812
  25 C :   -0.034725
  26 H :    0.019654
  27 H :    0.025855
  28 C :    0.018005
  29 H :    0.016593
  30 H :    0.008906
  31 H :    0.016301
  32 H :    0.055930
  33 H :    0.036020
Sum of atomic charges:   -0.0000000

LOEWDIN ATOMIC CHARGES
----------------------
   0 S :    0.410163
   1 C :   -0.209950
   2 C :   -0.049020
   3 C :   -0.046312
   4 C :   -0.197817
   5 H :    0.029175
   6 C :   -0.028838
   7 H :    0.031541
   8 H :    0.033986
   9 C :   -0.030206
  10 H :    0.030408
  11 H :    0.012794
  12 C :   -0.058309
  13 H :    0.015981
  14 H :    0.022529
  15 H :    0.020756
  16 S :    0.371604
  17 C :   -0.175965
  18 C :   -0.072815
  19 C :   -0.059227
  20 C :   -0.174220
  21 H :    0.034028
  22 C :   -0.040232
  23 H :    0.034785
  24 H :    0.025691
  25 C :   -0.030976
  26 H :    0.018058
  27 H :    0.029370
  28 C :   -0.052340
  29 H :    0.026853
  30 H :    0.011079
  31 H :    0.020921
  32 H :    0.027626
  33 H :    0.018879

  Mayer bond orders larger than 0.100000
B(  0-S ,  1-C ) :   1.1476 B(  0-S ,  4-C ) :   1.1446 B(  1-C ,  2-C ) :   1.5916
B(  1-C , 32-H ) :   0.9647 B(  2-C ,  3-C ) :   1.2268 B(  2-C ,  6-C ) :   1.0323
B(  3-C ,  4-C ) :   1.5847 B(  3-C ,  5-H ) :   0.9954 B(  4-C , 20-C ) :   1.0299
B(  6-C ,  7-H ) :   0.9367 B(  6-C ,  8-H ) :   0.9350 B(  6-C ,  9-C ) :   1.0748
B(  9-C , 10-H ) :   0.9580 B(  9-C , 11-H ) :   0.9500 B(  9-C , 12-C ) :   1.0723
B( 12-C , 13-H ) :   0.9732 B( 12-C , 14-H ) :   0.9733 B( 12-C , 15-H ) :   0.9725
B( 16-S , 17-C ) :   1.1385 B( 16-S , 20-C ) :   1.1304 B( 17-C , 18-C ) :   1.6244
B( 17-C , 20-C ) :   0.1005 B( 17-C , 33-H ) :   0.9727 B( 18-C , 19-C ) :   1.2328
B( 18-C , 21-H ) :   0.9727 B( 19-C , 20-C ) :   1.5990 B( 19-C , 22-C ) :   1.0712
B( 22-C , 23-H ) :   0.9172 B( 22-C , 24-H ) :   0.9304 B( 22-C , 25-C ) :   1.0799
B( 25-C , 26-H ) :   0.9460 B( 25-C , 27-H ) :   0.9496 B( 25-C , 28-C ) :   1.0830
B( 28-C , 29-H ) :   0.9696 B( 28-C , 30-H ) :   0.9694 B( 28-C , 31-H ) :   0.9674

Dispersion correction           -0.015589746
FINAL SINGLE POINT ENERGY     -1339.853074099155

DIPOLE MOMENT
-------------
                                X             Y             Z
Electronic contribution:    -17.36847      -2.06171     -11.90189
Nuclear contribution   :     17.67021       2.12063      12.25142
                        -----------------------------------------
Total Dipole Moment    :      0.30174       0.05892       0.34953
                        -----------------------------------------
Magnitude (a.u.)       :      0.46550
Magnitude (Debye)      :      1.18321

Rotational constants in cm-1:     0.021936     0.008516     0.007433
Rotational constants in MHz :   657.624646   255.309727   222.826597

                             ****ORCA TERMINATED NORMALLY****
TOTAL RUN TIME: 0 days 0 hours 0 minutes 21 seconds 167 msec
