                         Program Version 4.2.1 -  RELEASE  -
|  1> ! wB97X-D3 SP def2-SVP
|  2> %pal
|  3> nprocs 24
|  4> end
|  5>
|  6> * xyz 0 1
|  7> S 	 -51.9279 	 -49.8491 	 -77.5944
|  8> C 	 -53.1256 	 -49.0327 	 -76.6172
|  9> C 	 -52.8324 	 -47.6616 	 -76.4891
| 10> C 	 -51.6516 	 -47.3123 	 -77.2226
| 11> C 	 -51.1148 	 -48.333 	 -77.9973
| 12> H 	 -51.2632 	 -46.3371 	 -77.2553
| 13> C 	 -53.6651 	 -46.6507 	 -75.6916
| 14> H 	 -53.0014 	 -45.9324 	 -75.2776
| 15> H 	 -54.1522 	 -47.2169 	 -74.9361
| 16> C 	 -54.7943 	 -45.8277 	 -76.4914
| 17> H 	 -54.3483 	 -45.3768 	 -77.3568
| 18> H 	 -55.4425 	 -46.6148 	 -76.9392
| 19> C 	 -55.3598 	 -44.8397 	 -75.5623
| 20> H 	 -54.6536 	 -44.0274 	 -75.4875
| 21> H 	 -56.2146 	 -44.3755 	 -76.0263
| 22> H 	 -55.605 	 -45.2718 	 -74.6033
| 23> S 	 -48.4956 	 -48.9276 	 -78.0667
| 24> C 	 -47.5117 	 -48.3878 	 -79.4188
| 25> C 	 -48.2396 	 -47.8473 	 -80.4371
| 26> C 	 -49.6104 	 -47.7503 	 -80.0518
| 27> C 	 -49.9002 	 -48.3608 	 -78.8592
| 28> H 	 -47.7729 	 -47.6047 	 -81.3866
| 29> C 	 -50.6714 	 -47.0477 	 -80.8748
| 30> H 	 -50.235 	 -46.1773 	 -81.2436
| 31> H 	 -51.3404 	 -46.5672 	 -80.1754
| 32> C 	 -51.403 	 -47.9163 	 -81.9351
| 33> H 	 -50.7018 	 -48.5203 	 -82.4993
| 34> H 	 -51.8605 	 -47.2371 	 -82.6488
| 35> C 	 -52.4368 	 -48.8067 	 -81.1873
| 36> H 	 -53.0446 	 -48.3016 	 -80.5642
| 37> H 	 -52.0096 	 -49.5527 	 -80.4588
| 38> H 	 -52.8727 	 -49.4781 	 -81.9555
| 39> H 	 -53.8619 	 -49.477 	 -75.9943
| 40> H 	 -46.5242 	 -48.6498 	 -79.6366
| 41> *
| 42>
| 43>                          ****END OF INPUT****

CARTESIAN COORDINATES (ANGSTROEM)
---------------------------------
  S    -51.927900  -49.849100  -77.594400
  C    -53.125600  -49.032700  -76.617200
  C    -52.832400  -47.661600  -76.489100
  C    -51.651600  -47.312300  -77.222600
  C    -51.114800  -48.333000  -77.997300
  H    -51.263200  -46.337100  -77.255300
  C    -53.665100  -46.650700  -75.691600
  H    -53.001400  -45.932400  -75.277600
  H    -54.152200  -47.216900  -74.936100
  C    -54.794300  -45.827700  -76.491400
  H    -54.348300  -45.376800  -77.356800
  H    -55.442500  -46.614800  -76.939200
  C    -55.359800  -44.839700  -75.562300
  H    -54.653600  -44.027400  -75.487500
  H    -56.214600  -44.375500  -76.026300
  H    -55.605000  -45.271800  -74.603300
  S    -48.495600  -48.927600  -78.066700
  C    -47.511700  -48.387800  -79.418800
  C    -48.239600  -47.847300  -80.437100
  C    -49.610400  -47.750300  -80.051800
  C    -49.900200  -48.360800  -78.859200
  H    -47.772900  -47.604700  -81.386600
  C    -50.671400  -47.047700  -80.874800
  H    -50.235000  -46.177300  -81.243600
  H    -51.340400  -46.567200  -80.175400
  C    -51.403000  -47.916300  -81.935100
  H    -50.701800  -48.520300  -82.499300
  H    -51.860500  -47.237100  -82.648800
  C    -52.436800  -48.806700  -81.187300
  H    -53.044600  -48.301600  -80.564200
  H    -52.009600  -49.552700  -80.458800
  H    -52.872700  -49.478100  -81.955500
  H    -53.861900  -49.477000  -75.994300
  H    -46.524200  -48.649800  -79.636600

 Total Charge           Charge          ....    0
 Multiplicity           Mult            ....    1
 Number of Electrons    NEL             ....  134
 Basis Dimension        Dim             ....  322

ORBITAL ENERGIES
----------------

  NO   OCC          E(Eh)            E(eV)
   0   2.0000     -88.967648     -2420.9328
   1   2.0000     -88.964122     -2420.8368
   2   2.0000     -10.333247      -281.1820
   3   2.0000     -10.320771      -280.8424
   4   2.0000     -10.314126      -280.6616
   5   2.0000     -10.309446      -280.5343
   6   2.0000     -10.303410      -280.3700
   7   2.0000     -10.298972      -280.2493
   8   2.0000     -10.293544      -280.1016
   9   2.0000     -10.292132      -280.0632
  10   2.0000     -10.290863      -280.0286
  11   2.0000     -10.287266      -279.9308
  12   2.0000     -10.285891      -279.8933
  13   2.0000     -10.278455      -279.6910
  14   2.0000     -10.275123      -279.6003
  15   2.0000     -10.265395      -279.3356
  16   2.0000      -8.081563      -219.9105
  17   2.0000      -8.079560      -219.8560
  18   2.0000      -6.040087      -164.3591
  19   2.0000      -6.038077      -164.3044
  20   2.0000      -6.036036      -164.2489
  21   2.0000      -6.033986      -164.1931
  22   2.0000      -6.032510      -164.1529
  23   2.0000      -6.030233      -164.0910
  24   2.0000      -1.008444       -27.4412
  25   2.0000      -0.983224       -26.7549
  26   2.0000      -0.911986       -24.8164
  27   2.0000      -0.903540       -24.5866
  28   2.0000      -0.872254       -23.7352
  29   2.0000      -0.850862       -23.1531
  30   2.0000      -0.843325       -22.9480
  31   2.0000      -0.818220       -22.2649
  32   2.0000      -0.781474       -21.2650
  33   2.0000      -0.768535       -20.9129
  34   2.0000      -0.706740       -19.2314
  35   2.0000      -0.702479       -19.1154
  36   2.0000      -0.697570       -18.9819
  37   2.0000      -0.662121       -18.0172
  38   2.0000      -0.644287       -17.5319
  39   2.0000      -0.622060       -16.9271
  40   2.0000      -0.595703       -16.2099
  41   2.0000      -0.572740       -15.5850
  42   2.0000      -0.568234       -15.4624
  43   2.0000      -0.547519       -14.8988
  44   2.0000      -0.534907       -14.5556
  45   2.0000      -0.526259       -14.3202
  46   2.0000      -0.518350       -14.1050
  47   2.0000      -0.508332       -13.8324
  48   2.0000      -0.504869       -13.7382
  49   2.0000      -0.503363       -13.6972
  50   2.0000      -0.495642       -13.4871
  51   2.0000      -0.478087       -13.0094
  52   2.0000      -0.467155       -12.7119
  53   2.0000      -0.462706       -12.5909
  54   2.0000      -0.459761       -12.5107
  55   2.0000      -0.453528       -12.3411
  56   2.0000      -0.442360       -12.0372
  57   2.0000      -0.440661       -11.9910
  58   2.0000      -0.432430       -11.7670
  59   2.0000      -0.424320       -11.5463
  60   2.0000      -0.417803       -11.3690
  61   2.0000      -0.415429       -11.3044
  62   2.0000      -0.405295       -11.0286
  63   2.0000      -0.342614        -9.3230
  64   2.0000      -0.327797        -8.9198
  65   2.0000      -0.320797        -8.7293
  66   2.0000      -0.306600        -8.3430
  67   0.0000       0.040881         1.1124
  68   0.0000       0.058830         1.6008
  69   0.0000       0.115377         3.1396
  70   0.0000       0.125698         3.4204
  71   0.0000       0.128937         3.5086

MULLIKEN ATOMIC CHARGES
-----------------------
   0 S :    0.109111
   1 C :   -0.092632
   2 C :   -0.129236
   3 C :    0.090429
   4 C :   -0.191505
   5 H :   -0.007780
   6 C :    0.063071
   7 H :    0.015370
   8 H :    0.014157
   9 C :   -0.079799
  10 H :    0.018508
  11 H :    0.030139
  12 C :    0.007594
  13 H :    0.026208
  14 H :    0.028456
  15 H :    0.033567
  16 S :    0.121527
  17 C :   -0.058547
  18 C :   -0.046793
  19 C :   -0.062909
  20 C :   -0.146603
  21 H :    0.023880
  22 C :    0.098657
  23 H :   -0.009527
  24 H :    0.005344
  25 C :   -0.023574
  26 H :    0.023145
  27 H :    0.028921
  28 C :   -0.023995
  29 H :    0.008988
  30 H :    0.025023
  31 H :    0.034137
  32 H :    0.035400
  33 H :    0.031268
Sum of atomic charges:    0.0000000

LOEWDIN ATOMIC CHARGES
----------------------
   0 S :    0.410980
   1 C :   -0.199684
   2 C :   -0.061398
   3 C :   -0.053750
   4 C :   -0.190957
   5 H :    0.022919
   6 C :   -0.023011
   7 H :    0.023369
   8 H :    0.023060
   9 C :   -0.036764
  10 H :    0.019117
  11 H :    0.024865
  12 C :   -0.059985
  13 H :    0.028633
  14 H :    0.028126
  15 H :    0.025964
  16 S :    0.424156
  17 C :   -0.174772
  18 C :   -0.066216
  19 C :   -0.051587
  20 C :   -0.222119
  21 H :    0.036055
  22 C :   -0.032958
  23 H :    0.017953
  24 H :    0.028714
  25 C :   -0.026381
  26 H :    0.022732
  27 H :    0.023615
  28 C :   -0.062611
  29 H :    0.007038
  30 H :    0.025304
  31 H :    0.029560
  32 H :    0.022421
  33 H :    0.017613

  Mayer bond orders larger than 0.100000
B(  0-S ,  1-C ) :   1.1465 B(  0-S ,  4-C ) :   1.1567 B(  1-C ,  2-C ) :   1.5966
B(  1-C ,  4-C ) :   0.1032 B(  1-C , 32-H ) :   0.9693 B(  2-C ,  3-C ) :   1.2514
B(  2-C ,  6-C ) :   1.0277 B(  3-C ,  4-C ) :   1.5771 B(  3-C ,  5-H ) :   1.0019
B(  4-C , 20-C ) :   0.9707 B(  6-C ,  7-H ) :   0.9441 B(  6-C ,  8-H ) :   0.9402
B(  6-C ,  9-C ) :   1.0504 B(  9-C , 10-H ) :   0.9570 B(  9-C , 11-H ) :   0.9557
B(  9-C , 12-C ) :   1.0833 B( 12-C , 13-H ) :   0.9691 B( 12-C , 14-H ) :   0.9671
B( 12-C , 15-H ) :   0.9729 B( 16-S , 17-C ) :   1.1531 B( 16-S , 20-C ) :   1.1513
B( 17-C , 18-C ) :   1.6383 B( 17-C , 33-H ) :   0.9634 B( 18-C , 19-C ) :   1.2291
B( 18-C , 21-H ) :   0.9914 B( 19-C , 20-C ) :   1.6318 B( 19-C , 22-C ) :   1.0372
B( 22-C , 23-H ) :   0.9232 B( 22-C , 24-H ) :   0.9288 B( 22-C , 25-C ) :   1.0629
B( 25-C , 26-H ) :   0.9582 B( 25-C , 27-H ) :   0.9555 B( 25-C , 28-C ) :   1.0724
B( 28-C , 29-H ) :   0.9772 B( 28-C , 30-H ) :   0.9664 B( 28-C , 31-H ) :   0.9719

Dispersion correction           -0.015217120
FINAL SINGLE POINT ENERGY     -1339.864964818142

DIPOLE MOMENT
-------------
                                X             Y             Z
Electronic contribution:     19.93883     -15.49357       4.21317
Nuclear contribution   :    -20.14764      16.08030      -4.31419
                        -----------------------------------------
Total Dipole Moment    :     -0.20881       0.58674      -0.10102
                        -----------------------------------------
Magnitude (a.u.)       :      0.63093
Magnitude (Debye)      :      1.60369

Rotational constants in cm-1:     0.020889     0.008045     0.007301
Rotational constants in MHz :   626.243934   241.170626   218.885823

                             ****ORCA TERMINATED NORMALLY****
TOTAL RUN TIME: 0 days 0 hours 0 minutes 22 seconds 236 msec
