                         Program Version 4.2.1 -  RELEASE  -
|  1> ! wB97X-D3 SP def2-SVP
|  2> %pal
|  3> nprocs 24
|  4> end
|  5>
|  6> * xyz 0 1
|  7> S 	 -43.8073 	 -50.9437 	 -73.1055
|  8> C 	 -42.2476 	 -50.3886 	 -73.5868
|  9> C 	 -41.329 	 -51.3697 	 -73.6187
| 10> C 	 -41.8969 	 -52.609 	 -73.2612
| 11> C 	 -43.2583 	 -52.6126 	 -72.8852
| 12> H 	 -41.4308 	 -53.6079 	 -73.2349
| 13> C 	 -39.894 	 -51.1638 	 -74.0657
| 14> H 	 -39.7015 	 -50.1767 	 -73.6102
| 15> H 	 -39.8751 	 -51.1132 	 -75.1644
| 16> C 	 -38.8129 	 -52.2148 	 -73.6734
| 17> H 	 -38.7812 	 -53.0445 	 -74.3331
| 18> H 	 -37.859 	 -51.692 	 -73.839
| 19> C 	 -38.7981 	 -52.5679 	 -72.1755
| 20> H 	 -38.9189 	 -51.7332 	 -71.4842
| 21> H 	 -39.5518 	 -53.3261 	 -71.8916
| 22> H 	 -37.8089 	 -53.0611 	 -71.8639
| 23> S 	 -45.6208 	 -53.8328 	 -73.7388
| 24> C 	 -45.9858 	 -55.417 	 -73.1314
| 25> C 	 -44.9788 	 -55.8865 	 -72.2616
| 26> C 	 -43.9331 	 -54.9527 	 -72.0255
| 27> C 	 -44.1521 	 -53.7293 	 -72.6999
| 28> H 	 -45.1866 	 -56.7858 	 -71.7327
| 29> C 	 -42.7327 	 -55.281 	 -71.1566
| 30> H 	 -41.8669 	 -54.6578 	 -71.3613
| 31> H 	 -42.26 	 -56.2624 	 -71.3274
| 32> C 	 -42.9656 	 -55.2653 	 -69.6522
| 33> H 	 -43.742 	 -55.9544 	 -69.3356
| 34> H 	 -43.3516 	 -54.2744 	 -69.3891
| 35> C 	 -41.675 	 -55.5686 	 -68.8202
| 36> H 	 -41.3262 	 -56.5883 	 -69.0534
| 37> H 	 -42.0038 	 -55.4697 	 -67.8136
| 38> H 	 -40.9332 	 -54.8285 	 -69.0568
| 39> H 	 -41.9477 	 -49.3425 	 -73.8669
| 40> H 	 -46.7839 	 -55.9812 	 -73.429
| 41> *
| 42>
| 43>                          ****END OF INPUT****

CARTESIAN COORDINATES (ANGSTROEM)
---------------------------------
  S    -43.807300  -50.943700  -73.105500
  C    -42.247600  -50.388600  -73.586800
  C    -41.329000  -51.369700  -73.618700
  C    -41.896900  -52.609000  -73.261200
  C    -43.258300  -52.612600  -72.885200
  H    -41.430800  -53.607900  -73.234900
  C    -39.894000  -51.163800  -74.065700
  H    -39.701500  -50.176700  -73.610200
  H    -39.875100  -51.113200  -75.164400
  C    -38.812900  -52.214800  -73.673400
  H    -38.781200  -53.044500  -74.333100
  H    -37.859000  -51.692000  -73.839000
  C    -38.798100  -52.567900  -72.175500
  H    -38.918900  -51.733200  -71.484200
  H    -39.551800  -53.326100  -71.891600
  H    -37.808900  -53.061100  -71.863900
  S    -45.620800  -53.832800  -73.738800
  C    -45.985800  -55.417000  -73.131400
  C    -44.978800  -55.886500  -72.261600
  C    -43.933100  -54.952700  -72.025500
  C    -44.152100  -53.729300  -72.699900
  H    -45.186600  -56.785800  -71.732700
  C    -42.732700  -55.281000  -71.156600
  H    -41.866900  -54.657800  -71.361300
  H    -42.260000  -56.262400  -71.327400
  C    -42.965600  -55.265300  -69.652200
  H    -43.742000  -55.954400  -69.335600
  H    -43.351600  -54.274400  -69.389100
  C    -41.675000  -55.568600  -68.820200
  H    -41.326200  -56.588300  -69.053400
  H    -42.003800  -55.469700  -67.813600
  H    -40.933200  -54.828500  -69.056800
  H    -41.947700  -49.342500  -73.866900
  H    -46.783900  -55.981200  -73.429000

 Total Charge           Charge          ....    0
 Multiplicity           Mult            ....    1
 Number of Electrons    NEL             ....  134
 Basis Dimension        Dim             ....  322

ORBITAL ENERGIES
----------------

  NO   OCC          E(Eh)            E(eV)
   0   2.0000     -88.969152     -2420.9737
   1   2.0000     -88.964574     -2420.8491
   2   2.0000     -10.333934      -281.2007
   3   2.0000     -10.330194      -281.0989
   4   2.0000     -10.315063      -280.6871
   5   2.0000     -10.311472      -280.5894
   6   2.0000     -10.309987      -280.5490
   7   2.0000     -10.298279      -280.2304
   8   2.0000     -10.295064      -280.1429
   9   2.0000     -10.294582      -280.1298
  10   2.0000     -10.294319      -280.1227
  11   2.0000     -10.292011      -280.0599
  12   2.0000     -10.291160      -280.0367
  13   2.0000     -10.286271      -279.9037
  14   2.0000     -10.282902      -279.8120
  15   2.0000     -10.277622      -279.6683
  16   2.0000      -8.083098      -219.9523
  17   2.0000      -8.079272      -219.8482
  18   2.0000      -6.041549      -164.3989
  19   2.0000      -6.037767      -164.2960
  20   2.0000      -6.037676      -164.2935
  21   2.0000      -6.033996      -164.1934
  22   2.0000      -6.033696      -164.1852
  23   2.0000      -6.030139      -164.0884
  24   2.0000      -1.004862       -27.3437
  25   2.0000      -0.982657       -26.7395
  26   2.0000      -0.909952       -24.7611
  27   2.0000      -0.908449       -24.7201
  28   2.0000      -0.871537       -23.7157
  29   2.0000      -0.851653       -23.1747
  30   2.0000      -0.840722       -22.8772
  31   2.0000      -0.812597       -22.1119
  32   2.0000      -0.785588       -21.3769
  33   2.0000      -0.773282       -21.0421
  34   2.0000      -0.713925       -19.4269
  35   2.0000      -0.696644       -18.9566
  36   2.0000      -0.696121       -18.9424
  37   2.0000      -0.660918       -17.9845
  38   2.0000      -0.636165       -17.3109
  39   2.0000      -0.619573       -16.8594
  40   2.0000      -0.601687       -16.3727
  41   2.0000      -0.566984       -15.4284
  42   2.0000      -0.563145       -15.3240
  43   2.0000      -0.559957       -15.2372
  44   2.0000      -0.528197       -14.3730
  45   2.0000      -0.526966       -14.3395
  46   2.0000      -0.521212       -14.1829
  47   2.0000      -0.512298       -13.9403
  48   2.0000      -0.502053       -13.6615
  49   2.0000      -0.494419       -13.4538
  50   2.0000      -0.491811       -13.3828
  51   2.0000      -0.485333       -13.2066
  52   2.0000      -0.472671       -12.8620
  53   2.0000      -0.467740       -12.7279
  54   2.0000      -0.459108       -12.4930
  55   2.0000      -0.449949       -12.2437
  56   2.0000      -0.441401       -12.0111
  57   2.0000      -0.439514       -11.9598
  58   2.0000      -0.428670       -11.6647
  59   2.0000      -0.426423       -11.6036
  60   2.0000      -0.420018       -11.4293
  61   2.0000      -0.415041       -11.2938
  62   2.0000      -0.410698       -11.1757
  63   2.0000      -0.350660        -9.5420
  64   2.0000      -0.332954        -9.0601
  65   2.0000      -0.329793        -8.9741
  66   2.0000      -0.284749        -7.7484
  67   0.0000       0.022541         0.6134
  68   0.0000       0.069357         1.8873
  69   0.0000       0.108356         2.9485
  70   0.0000       0.120152         3.2695
  71   0.0000       0.134130         3.6499

MULLIKEN ATOMIC CHARGES
-----------------------
   0 S :    0.105644
   1 C :   -0.140064
   2 C :   -0.081650
   3 C :    0.011955
   4 C :   -0.175898
   5 H :    0.021623
   6 C :    0.056913
   7 H :    0.031593
   8 H :    0.051563
   9 C :   -0.045281
  10 H :    0.029836
  11 H :    0.032213
  12 C :   -0.092407
  13 H :    0.039407
  14 H :    0.035323
  15 H :    0.037025
  16 S :    0.110727
  17 C :   -0.066232
  18 C :   -0.027945
  19 C :   -0.004910
  20 C :   -0.136296
  21 H :    0.015354
  22 C :    0.071070
  23 H :   -0.005845
  24 H :    0.017267
  25 C :   -0.103149
  26 H :    0.023908
  27 H :    0.027601
  28 C :   -0.030003
  29 H :    0.035394
  30 H :    0.036290
  31 H :    0.033941
  32 H :    0.057366
  33 H :    0.027665
Sum of atomic charges:    0.0000000

LOEWDIN ATOMIC CHARGES
----------------------
   0 S :    0.407285
   1 C :   -0.209066
   2 C :   -0.081230
   3 C :   -0.062321
   4 C :   -0.197237
   5 H :    0.030386
   6 C :   -0.029695
   7 H :    0.034965
   8 H :    0.038780
   9 C :   -0.041993
  10 H :    0.021258
  11 H :    0.033680
  12 C :   -0.076202
  13 H :    0.027396
  14 H :    0.021854
  15 H :    0.033126
  16 S :    0.401967
  17 C :   -0.172533
  18 C :   -0.064144
  19 C :   -0.047961
  20 C :   -0.186818
  21 H :    0.027742
  22 C :   -0.041034
  23 H :    0.024489
  24 H :    0.032077
  25 C :   -0.037080
  26 H :    0.018399
  27 H :    0.022983
  28 C :   -0.056056
  29 H :    0.026011
  30 H :    0.026112
  31 H :    0.022899
  32 H :    0.041215
  33 H :    0.010748

  Mayer bond orders larger than 0.100000
B(  0-S ,  1-C ) :   1.1500 B(  0-S ,  4-C ) :   1.1453 B(  1-C ,  2-C ) :   1.6167
B(  1-C , 32-H ) :   0.9581 B(  2-C ,  3-C ) :   1.2659 B(  2-C ,  6-C ) :   0.9906
B(  3-C ,  4-C ) :   1.5455 B(  3-C ,  5-H ) :   0.9795 B(  4-C , 20-C ) :   1.0752
B(  6-C ,  7-H ) :   0.9420 B(  6-C ,  8-H ) :   0.9396 B(  6-C ,  9-C ) :   1.0878
B(  9-C , 10-H ) :   0.9515 B(  9-C , 11-H ) :   0.9535 B(  9-C , 12-C ) :   1.0735
B( 12-C , 13-H ) :   0.9754 B( 12-C , 14-H ) :   0.9748 B( 12-C , 15-H ) :   0.9735
B( 16-S , 17-C ) :   1.1659 B( 16-S , 20-C ) :   1.1353 B( 17-C , 18-C ) :   1.5883
B( 17-C , 20-C ) :   0.1044 B( 17-C , 33-H ) :   0.9781 B( 18-C , 19-C ) :   1.2551
B( 18-C , 21-H ) :   0.9937 B( 19-C , 20-C ) :   1.5638 B( 19-C , 22-C ) :   1.0433
B( 22-C , 23-H ) :   0.9297 B( 22-C , 24-H ) :   0.9342 B( 22-C , 25-C ) :   1.0643
B( 25-C , 26-H ) :   0.9584 B( 25-C , 27-H ) :   0.9531 B( 25-C , 28-C ) :   1.0778
B( 28-C , 29-H ) :   0.9752 B( 28-C , 30-H ) :   0.9749 B( 28-C , 31-H ) :   0.9767

Dispersion correction           -0.014410802
FINAL SINGLE POINT ENERGY     -1339.877860101717

DIPOLE MOMENT
-------------
                                X             Y             Z
Electronic contribution:    -26.03026       8.77093     -13.85681
Nuclear contribution   :     26.64307      -9.09832      13.92488
                        -----------------------------------------
Total Dipole Moment    :      0.61281      -0.32739       0.06807
                        -----------------------------------------
Magnitude (a.u.)       :      0.69811
Magnitude (Debye)      :      1.77445

Rotational constants in cm-1:     0.015726     0.010270     0.007082
Rotational constants in MHz :   471.451069   307.896450   212.323795

                             ****ORCA TERMINATED NORMALLY****
TOTAL RUN TIME: 0 days 0 hours 0 minutes 22 seconds 95 msec
