                         Program Version 4.2.1 -  RELEASE  -
|  1> ! wB97X-D3 SP def2-SVP
|  2> %pal
|  3> nprocs 24
|  4> end
|  5>
|  6> * xyz 0 1
|  7> S 	 -101.44 	 7.02052 	 -5.57288
|  8> C 	 -100.295 	 8.35973 	 -5.48473
|  9> C 	 -100.873 	 9.47414 	 -5.02417
| 10> C 	 -102.301 	 9.3066 	 -4.85665
| 11> C 	 -102.752 	 8.03466 	 -5.11156
| 12> H 	 -102.991 	 10.1077 	 -4.57555
| 13> C 	 -100.348 	 10.773 	 -4.65843
| 14> H 	 -101.128 	 11.584 	 -4.6953
| 15> H 	 -99.7569 	 11.0594 	 -5.575
| 16> C 	 -99.5361 	 10.9158 	 -3.34498
| 17> H 	 -98.8034 	 10.0547 	 -3.35056
| 18> H 	 -98.9822 	 11.7869 	 -3.43098
| 19> C 	 -100.304 	 10.8812 	 -2.01187
| 20> H 	 -100.859 	 9.95699 	 -1.77903
| 21> H 	 -99.5509 	 11.0961 	 -1.23724
| 22> H 	 -100.967 	 11.7303 	 -1.98741
| 23> S 	 -104.739 	 8.06163 	 -6.91496
| 24> C 	 -106.361 	 7.57651 	 -6.47908
| 25> C 	 -106.411 	 7.22365 	 -5.19139
| 26> C 	 -105.171 	 7.42952 	 -4.56129
| 27> C 	 -104.143 	 7.79665 	 -5.35193
| 28> H 	 -107.296 	 6.83869 	 -4.75833
| 29> C 	 -104.941 	 7.13466 	 -3.07104
| 30> H 	 -104.263 	 6.25053 	 -3.03836
| 31> H 	 -105.819 	 6.73832 	 -2.54813
| 32> C 	 -104.468 	 8.2116 	 -2.1485
| 33> H 	 -103.403 	 8.38426 	 -2.32136
| 34> H 	 -104.576 	 7.80942 	 -1.14238
| 35> C 	 -105.168 	 9.67637 	 -2.37206
| 36> H 	 -106.203 	 9.66645 	 -2.39222
| 37> H 	 -104.994 	 10.0039 	 -3.43137
| 38> H 	 -104.856 	 10.5417 	 -1.68379
| 39> H 	 -99.2496 	 8.26748 	 -5.79604
| 40> H 	 -107.109 	 7.57458 	 -7.27774
| 41> *
| 42>
| 43>                          ****END OF INPUT****

CARTESIAN COORDINATES (ANGSTROEM)
---------------------------------
  S    -101.440000    7.020520   -5.572880
  C    -100.295000    8.359730   -5.484730
  C    -100.873000    9.474140   -5.024170
  C    -102.301000    9.306600   -4.856650
  C    -102.752000    8.034660   -5.111560
  H    -102.991000   10.107700   -4.575550
  C    -100.348000   10.773000   -4.658430
  H    -101.128000   11.584000   -4.695300
  H    -99.756900   11.059400   -5.575000
  C    -99.536100   10.915800   -3.344980
  H    -98.803400   10.054700   -3.350560
  H    -98.982200   11.786900   -3.430980
  C    -100.304000   10.881200   -2.011870
  H    -100.859000    9.956990   -1.779030
  H    -99.550900   11.096100   -1.237240
  H    -100.967000   11.730300   -1.987410
  S    -104.739000    8.061630   -6.914960
  C    -106.361000    7.576510   -6.479080
  C    -106.411000    7.223650   -5.191390
  C    -105.171000    7.429520   -4.561290
  C    -104.143000    7.796650   -5.351930
  H    -107.296000    6.838690   -4.758330
  C    -104.941000    7.134660   -3.071040
  H    -104.263000    6.250530   -3.038360
  H    -105.819000    6.738320   -2.548130
  C    -104.468000    8.211600   -2.148500
  H    -103.403000    8.384260   -2.321360
  H    -104.576000    7.809420   -1.142380
  C    -105.168000    9.676370   -2.372060
  H    -106.203000    9.666450   -2.392220
  H    -104.994000   10.003900   -3.431370
  H    -104.856000   10.541700   -1.683790
  H    -99.249600    8.267480   -5.796040
  H    -107.109000    7.574580   -7.277740

 Total Charge           Charge          ....    0
 Multiplicity           Mult            ....    1
 Number of Electrons    NEL             ....  134
 Basis Dimension        Dim             ....  322

ORBITAL ENERGIES
----------------

  NO   OCC          E(Eh)            E(eV)
   0   2.0000     -88.966045     -2420.8892
   1   2.0000     -88.955851     -2420.6118
   2   2.0000     -10.321027      -280.8494
   3   2.0000     -10.313986      -280.6578
   4   2.0000     -10.312808      -280.6258
   5   2.0000     -10.312441      -280.6158
   6   2.0000     -10.293632      -280.1040
   7   2.0000     -10.293539      -280.1014
   8   2.0000     -10.293224      -280.0929
   9   2.0000     -10.289923      -280.0031
  10   2.0000     -10.288696      -279.9697
  11   2.0000     -10.286959      -279.9224
  12   2.0000     -10.286569      -279.9118
  13   2.0000     -10.285770      -279.8900
  14   2.0000     -10.282540      -279.8021
  15   2.0000     -10.280178      -279.7379
  16   2.0000      -8.081098      -219.8979
  17   2.0000      -8.072466      -219.6630
  18   2.0000      -6.039768      -164.3504
  19   2.0000      -6.035517      -164.2348
  20   2.0000      -6.031709      -164.1311
  21   2.0000      -6.030854      -164.1079
  22   2.0000      -6.026607      -163.9923
  23   2.0000      -6.023332      -163.9032
  24   2.0000      -1.019675       -27.7468
  25   2.0000      -0.994461       -27.0607
  26   2.0000      -0.915405       -24.9094
  27   2.0000      -0.901349       -24.5270
  28   2.0000      -0.878331       -23.9006
  29   2.0000      -0.851504       -23.1706
  30   2.0000      -0.836855       -22.7720
  31   2.0000      -0.816663       -22.2225
  32   2.0000      -0.783132       -21.3101
  33   2.0000      -0.776957       -21.1421
  34   2.0000      -0.711163       -19.3517
  35   2.0000      -0.704483       -19.1700
  36   2.0000      -0.688414       -18.7327
  37   2.0000      -0.668512       -18.1911
  38   2.0000      -0.643863       -17.5204
  39   2.0000      -0.608674       -16.5629
  40   2.0000      -0.593852       -16.1595
  41   2.0000      -0.579938       -15.7809
  42   2.0000      -0.554003       -15.0752
  43   2.0000      -0.549033       -14.9400
  44   2.0000      -0.544059       -14.8046
  45   2.0000      -0.536386       -14.5958
  46   2.0000      -0.514456       -13.9991
  47   2.0000      -0.512819       -13.9545
  48   2.0000      -0.500080       -13.6079
  49   2.0000      -0.497801       -13.5459
  50   2.0000      -0.481941       -13.1143
  51   2.0000      -0.479229       -13.0405
  52   2.0000      -0.476960       -12.9787
  53   2.0000      -0.472049       -12.8451
  54   2.0000      -0.462183       -12.5766
  55   2.0000      -0.445570       -12.1246
  56   2.0000      -0.441623       -12.0172
  57   2.0000      -0.434880       -11.8337
  58   2.0000      -0.433777       -11.8037
  59   2.0000      -0.422973       -11.5097
  60   2.0000      -0.410688       -11.1754
  61   2.0000      -0.407677       -11.0935
  62   2.0000      -0.404483       -11.0065
  63   2.0000      -0.341304        -9.2874
  64   2.0000      -0.325069        -8.8456
  65   2.0000      -0.320672        -8.7259
  66   2.0000      -0.314815        -8.5666
  67   0.0000       0.046347         1.2612
  68   0.0000       0.060713         1.6521
  69   0.0000       0.120135         3.2690
  70   0.0000       0.123410         3.3582
  71   0.0000       0.130652         3.5552

MULLIKEN ATOMIC CHARGES
-----------------------
   0 S :    0.115554
   1 C :   -0.151892
   2 C :   -0.025616
   3 C :    0.007596
   4 C :   -0.146791
   5 H :    0.019524
   6 C :    0.011831
   7 H :    0.024368
   8 H :    0.031715
   9 C :   -0.039653
  10 H :    0.026997
  11 H :    0.016693
  12 C :   -0.046973
  13 H :    0.057447
  14 H :    0.036026
  15 H :    0.020227
  16 S :    0.103176
  17 C :   -0.101604
  18 C :    0.002483
  19 C :   -0.046424
  20 C :   -0.161332
  21 H :    0.002896
  22 C :    0.053476
  23 H :    0.039623
  24 H :    0.008728
  25 C :   -0.059601
  26 H :    0.040508
  27 H :    0.031731
  28 C :   -0.077967
  29 H :    0.010769
  30 H :    0.032030
  31 H :    0.051736
  32 H :    0.050948
  33 H :    0.061773
Sum of atomic charges:    0.0000000

LOEWDIN ATOMIC CHARGES
----------------------
   0 S :    0.410848
   1 C :   -0.187265
   2 C :   -0.073772
   3 C :   -0.049130
   4 C :   -0.214615
   5 H :    0.032126
   6 C :   -0.046397
   7 H :    0.031898
   8 H :    0.040136
   9 C :   -0.032429
  10 H :    0.027735
  11 H :    0.016244
  12 C :   -0.065009
  13 H :    0.031336
  14 H :    0.032418
  15 H :    0.020504
  16 S :    0.426361
  17 C :   -0.174806
  18 C :   -0.070942
  19 C :   -0.063403
  20 C :   -0.217712
  21 H :    0.029992
  22 C :   -0.039458
  23 H :    0.039142
  24 H :    0.026638
  25 C :   -0.037183
  26 H :    0.021197
  27 H :    0.025557
  28 C :   -0.077077
  29 H :    0.010170
  30 H :    0.028073
  31 H :    0.036130
  32 H :    0.033037
  33 H :    0.029655

  Mayer bond orders larger than 0.100000
B(  0-S ,  1-C ) :   1.1261 B(  0-S ,  4-C ) :   1.1492 B(  1-C ,  2-C ) :   1.6292
B(  1-C , 32-H ) :   0.9674 B(  2-C ,  3-C ) :   1.2233 B(  2-C ,  6-C ) :   1.0263
B(  3-C ,  4-C ) :   1.5841 B(  3-C ,  5-H ) :   0.9898 B(  4-C , 20-C ) :   1.0099
B(  6-C ,  7-H ) :   0.9409 B(  6-C ,  8-H ) :   0.9286 B(  6-C ,  9-C ) :   1.0687
B(  9-C , 10-H ) :   0.9570 B(  9-C , 11-H ) :   0.9530 B(  9-C , 12-C ) :   1.0775
B( 12-C , 13-H ) :   0.9759 B( 12-C , 14-H ) :   0.9708 B( 12-C , 15-H ) :   0.9731
B( 16-S , 17-C ) :   1.1714 B( 16-S , 20-C ) :   1.1493 B( 17-C , 18-C ) :   1.5776
B( 17-C , 33-H ) :   0.9693 B( 18-C , 19-C ) :   1.2520 B( 18-C , 21-H ) :   1.0098
B( 19-C , 20-C ) :   1.6180 B( 19-C , 22-C ) :   1.0249 B( 22-C , 23-H ) :   0.9347
B( 22-C , 24-H ) :   0.9414 B( 22-C , 25-C ) :   1.0762 B( 25-C , 26-H ) :   0.9548
B( 25-C , 27-H ) :   0.9576 B( 25-C , 28-C ) :   1.0525 B( 28-C , 29-H ) :   0.9764
B( 28-C , 30-H ) :   0.9661 B( 28-C , 31-H ) :   0.9798

Dispersion correction           -0.016271579
FINAL SINGLE POINT ENERGY     -1339.863893788637

DIPOLE MOMENT
-------------
                                X             Y             Z
Electronic contribution:     -4.00916     -15.08596     -22.02241
Nuclear contribution   :      4.03554      15.44499      22.31656
                        -----------------------------------------
Total Dipole Moment    :      0.02638       0.35903       0.29415
                        -----------------------------------------
Magnitude (a.u.)       :      0.46489
Magnitude (Debye)      :      1.18166

Rotational constants in cm-1:     0.020504     0.009871     0.007928
Rotational constants in MHz :   614.703677   295.916731   237.661357

                             ****ORCA TERMINATED NORMALLY****
TOTAL RUN TIME: 0 days 0 hours 0 minutes 22 seconds 125 msec
