                         Program Version 4.2.1 -  RELEASE  -
|  1> ! wB97X-D3 SP def2-SVP
|  2> %pal
|  3> nprocs 24
|  4> end
|  5>
|  6> * xyz 0 1
|  7> S 	 -125.252 	 60.647 	 -57.8576
|  8> C 	 -123.762 	 61.5208 	 -58.4779
|  9> C 	 -124.046 	 62.7671 	 -58.9781
| 10> C 	 -125.341 	 63.1053 	 -58.6051
| 11> C 	 -126.137 	 62.1148 	 -58.0781
| 12> H 	 -125.855 	 64.0675 	 -58.817
| 13> C 	 -123.016 	 63.5798 	 -59.7294
| 14> H 	 -122.488 	 62.9395 	 -60.4191
| 15> H 	 -122.256 	 64.0269 	 -59.1302
| 16> C 	 -123.688 	 64.6456 	 -60.5609
| 17> H 	 -124.482 	 64.1628 	 -61.1292
| 18> H 	 -124.11 	 65.248 	 -59.8078
| 19> C 	 -122.764 	 65.47 	 -61.5195
| 20> H 	 -122.35 	 64.973 	 -62.399
| 21> H 	 -123.321 	 66.3669 	 -61.7551
| 22> H 	 -121.924 	 65.9222 	 -60.9998
| 23> S 	 -127.812 	 61.7393 	 -55.9328
| 24> C 	 -129.487 	 62.1154 	 -56.0411
| 25> C 	 -129.741 	 62.9365 	 -57.099
| 26> C 	 -128.634 	 62.9955 	 -58.0281
| 27> C 	 -127.529 	 62.244 	 -57.5985
| 28> H 	 -130.711 	 63.3713 	 -57.2496
| 29> C 	 -128.762 	 63.8521 	 -59.309
| 30> H 	 -127.761 	 64.0715 	 -59.6182
| 31> H 	 -129.126 	 64.8525 	 -59.0069
| 32> C 	 -129.575 	 63.2918 	 -60.456
| 33> H 	 -130.636 	 63.337 	 -60.1353
| 34> H 	 -129.174 	 62.2615 	 -60.5975
| 35> C 	 -129.53 	 64.1601 	 -61.8055
| 36> H 	 -130.338 	 64.015 	 -62.5173
| 37> H 	 -128.579 	 64.0353 	 -62.2859
| 38> H 	 -129.654 	 65.1457 	 -61.4651
| 39> H 	 -122.78 	 61.0678 	 -58.502
| 40> H 	 -130.116 	 61.934 	 -55.1889
| 41> *
| 42>
| 43>                          ****END OF INPUT****

CARTESIAN COORDINATES (ANGSTROEM)
---------------------------------
  S    -125.252000   60.647000  -57.857600
  C    -123.762000   61.520800  -58.477900
  C    -124.046000   62.767100  -58.978100
  C    -125.341000   63.105300  -58.605100
  C    -126.137000   62.114800  -58.078100
  H    -125.855000   64.067500  -58.817000
  C    -123.016000   63.579800  -59.729400
  H    -122.488000   62.939500  -60.419100
  H    -122.256000   64.026900  -59.130200
  C    -123.688000   64.645600  -60.560900
  H    -124.482000   64.162800  -61.129200
  H    -124.110000   65.248000  -59.807800
  C    -122.764000   65.470000  -61.519500
  H    -122.350000   64.973000  -62.399000
  H    -123.321000   66.366900  -61.755100
  H    -121.924000   65.922200  -60.999800
  S    -127.812000   61.739300  -55.932800
  C    -129.487000   62.115400  -56.041100
  C    -129.741000   62.936500  -57.099000
  C    -128.634000   62.995500  -58.028100
  C    -127.529000   62.244000  -57.598500
  H    -130.711000   63.371300  -57.249600
  C    -128.762000   63.852100  -59.309000
  H    -127.761000   64.071500  -59.618200
  H    -129.126000   64.852500  -59.006900
  C    -129.575000   63.291800  -60.456000
  H    -130.636000   63.337000  -60.135300
  H    -129.174000   62.261500  -60.597500
  C    -129.530000   64.160100  -61.805500
  H    -130.338000   64.015000  -62.517300
  H    -128.579000   64.035300  -62.285900
  H    -129.654000   65.145700  -61.465100
  H    -122.780000   61.067800  -58.502000
  H    -130.116000   61.934000  -55.188900

 Total Charge           Charge          ....    0
 Multiplicity           Mult            ....    1
 Number of Electrons    NEL             ....  134
 Basis Dimension        Dim             ....  322

ORBITAL ENERGIES
----------------

  NO   OCC          E(Eh)            E(eV)
   0   2.0000     -88.967677     -2420.9336
   1   2.0000     -88.960685     -2420.7433
   2   2.0000     -10.330232      -281.0999
   3   2.0000     -10.327962      -281.0381
   4   2.0000     -10.316516      -280.7267
   5   2.0000     -10.312597      -280.6200
   6   2.0000     -10.309077      -280.5243
   7   2.0000     -10.300244      -280.2839
   8   2.0000     -10.292854      -280.0828
   9   2.0000     -10.292819      -280.0819
  10   2.0000     -10.292482      -280.0727
  11   2.0000     -10.291582      -280.0482
  12   2.0000     -10.288294      -279.9587
  13   2.0000     -10.284801      -279.8637
  14   2.0000     -10.282079      -279.7896
  15   2.0000     -10.277097      -279.6540
  16   2.0000      -8.081510      -219.9091
  17   2.0000      -8.076224      -219.7652
  18   2.0000      -6.039940      -164.3551
  19   2.0000      -6.036310      -164.2563
  20   2.0000      -6.034648      -164.2111
  21   2.0000      -6.032228      -164.1453
  22   2.0000      -6.030768      -164.1055
  23   2.0000      -6.026854      -163.9990
  24   2.0000      -1.006828       -27.3972
  25   2.0000      -0.985840       -26.8261
  26   2.0000      -0.919573       -25.0228
  27   2.0000      -0.904747       -24.6194
  28   2.0000      -0.869435       -23.6585
  29   2.0000      -0.846805       -23.0427
  30   2.0000      -0.840538       -22.8722
  31   2.0000      -0.814194       -22.1554
  32   2.0000      -0.789054       -21.4712
  33   2.0000      -0.777594       -21.1594
  34   2.0000      -0.714322       -19.4377
  35   2.0000      -0.697451       -18.9786
  36   2.0000      -0.687357       -18.7039
  37   2.0000      -0.658693       -17.9240
  38   2.0000      -0.643542       -17.5117
  39   2.0000      -0.619096       -16.8464
  40   2.0000      -0.597186       -16.2503
  41   2.0000      -0.581456       -15.8222
  42   2.0000      -0.569922       -15.5084
  43   2.0000      -0.564703       -15.3663
  44   2.0000      -0.525893       -14.3103
  45   2.0000      -0.517559       -14.0835
  46   2.0000      -0.513205       -13.9650
  47   2.0000      -0.509241       -13.8572
  48   2.0000      -0.502350       -13.6696
  49   2.0000      -0.497502       -13.5377
  50   2.0000      -0.490775       -13.3547
  51   2.0000      -0.485605       -13.2140
  52   2.0000      -0.480169       -13.0661
  53   2.0000      -0.467614       -12.7244
  54   2.0000      -0.459626       -12.5071
  55   2.0000      -0.453439       -12.3387
  56   2.0000      -0.447791       -12.1850
  57   2.0000      -0.434437       -11.8216
  58   2.0000      -0.433178       -11.7874
  59   2.0000      -0.429867       -11.6973
  60   2.0000      -0.418815       -11.3965
  61   2.0000      -0.416429       -11.3316
  62   2.0000      -0.408149       -11.1063
  63   2.0000      -0.344284        -9.3684
  64   2.0000      -0.338654        -9.2152
  65   2.0000      -0.326528        -8.8853
  66   2.0000      -0.291289        -7.9264
  67   0.0000       0.024938         0.6786
  68   0.0000       0.073199         1.9919
  69   0.0000       0.102756         2.7961
  70   0.0000       0.105616         2.8740
  71   0.0000       0.136888         3.7249

MULLIKEN ATOMIC CHARGES
-----------------------
   0 S :    0.107703
   1 C :   -0.139662
   2 C :   -0.063840
   3 C :   -0.008528
   4 C :   -0.156093
   5 H :    0.026824
   6 C :    0.120239
   7 H :    0.016354
   8 H :    0.030678
   9 C :   -0.131560
  10 H :    0.037296
  11 H :    0.029418
  12 C :   -0.012619
  13 H :    0.046533
  14 H :    0.027108
  15 H :    0.015689
  16 S :    0.091492
  17 C :   -0.081663
  18 C :   -0.019821
  19 C :   -0.067869
  20 C :   -0.127655
  21 H :    0.017240
  22 C :    0.078213
  23 H :   -0.012299
  24 H :    0.022184
  25 C :   -0.089933
  26 H :    0.033715
  27 H :    0.048870
  28 C :   -0.027027
  29 H :    0.039091
  30 H :    0.036805
  31 H :    0.012394
  32 H :    0.043693
  33 H :    0.057030
Sum of atomic charges:   -0.0000000

LOEWDIN ATOMIC CHARGES
----------------------
   0 S :    0.385211
   1 C :   -0.161345
   2 C :   -0.062672
   3 C :   -0.072607
   4 C :   -0.203608
   5 H :    0.033183
   6 C :   -0.024453
   7 H :    0.028626
   8 H :    0.028361
   9 C :   -0.037658
  10 H :    0.026129
  11 H :    0.018274
  12 C :   -0.066230
  13 H :    0.028430
  14 H :    0.029840
  15 H :    0.024194
  16 S :    0.408482
  17 C :   -0.184943
  18 C :   -0.069250
  19 C :   -0.051501
  20 C :   -0.194966
  21 H :    0.029709
  22 C :   -0.037157
  23 H :    0.017544
  24 H :    0.031206
  25 C :   -0.038815
  26 H :    0.025496
  27 H :    0.030979
  28 C :   -0.059646
  29 H :    0.028508
  30 H :    0.023363
  31 H :    0.017401
  32 H :    0.024166
  33 H :    0.025749

  Mayer bond orders larger than 0.100000
B(  0-S ,  1-C ) :   1.1328 B(  0-S ,  4-C ) :   1.1521 B(  1-C ,  2-C ) :   1.6144
B(  1-C ,  4-C ) :   0.1049 B(  1-C , 32-H ) :   0.9708 B(  2-C ,  3-C ) :   1.2490
B(  2-C ,  6-C ) :   1.0061 B(  3-C ,  4-C ) :   1.5887 B(  3-C ,  5-H ) :   0.9714
B(  4-C , 20-C ) :   1.0200 B(  6-C ,  7-H ) :   0.9371 B(  6-C ,  8-H ) :   0.9322
B(  6-C ,  9-C ) :   1.0769 B(  9-C , 10-H ) :   0.9620 B(  9-C , 11-H ) :   0.9461
B(  9-C , 12-C ) :   1.0831 B( 12-C , 13-H ) :   0.9766 B( 12-C , 14-H ) :   0.9710
B( 12-C , 15-H ) :   0.9698 B( 16-S , 17-C ) :   1.1627 B( 16-S , 20-C ) :   1.1493
B( 17-C , 18-C ) :   1.5975 B( 17-C , 33-H ) :   0.9705 B( 18-C , 19-C ) :   1.2377
B( 18-C , 21-H ) :   0.9968 B( 19-C , 20-C ) :   1.5964 B( 19-C , 22-C ) :   1.0389
B( 22-C , 23-H ) :   0.9289 B( 22-C , 24-H ) :   0.9288 B( 22-C , 25-C ) :   1.0652
B( 25-C , 26-H ) :   0.9578 B( 25-C , 27-H ) :   0.9582 B( 25-C , 28-C ) :   1.0675
B( 28-C , 29-H ) :   0.9787 B( 28-C , 30-H ) :   0.9787 B( 28-C , 31-H ) :   0.9741

Dispersion correction           -0.013533431
FINAL SINGLE POINT ENERGY     -1339.865809228736

DIPOLE MOMENT
-------------
                                X             Y             Z
Electronic contribution:     -2.06197     -20.43556      25.11505
Nuclear contribution   :      2.12214      21.12379     -25.51983
                        -----------------------------------------
Total Dipole Moment    :      0.06017       0.68823      -0.40478
                        -----------------------------------------
Magnitude (a.u.)       :      0.80070
Magnitude (Debye)      :      2.03523

Rotational constants in cm-1:     0.015784     0.009339     0.006481
Rotational constants in MHz :   473.204551   279.965821   194.300819

                             ****ORCA TERMINATED NORMALLY****
TOTAL RUN TIME: 0 days 0 hours 0 minutes 21 seconds 334 msec
