                         Program Version 4.2.1 -  RELEASE  -
|  1> ! wB97X-D3 SP def2-SVP
|  2> %pal
|  3> nprocs 24
|  4> end
|  5>
|  6> * xyz 0 1
|  7> S 	 -62.9493 	 -1.75729 	 -22.7119
|  8> C 	 -64.2038 	 -1.58913 	 -21.5142
|  9> C 	 -65.4469 	 -1.30832 	 -22.0914
| 10> C 	 -65.2755 	 -0.940136 	 -23.4657
| 11> C 	 -64.0115 	 -1.02571 	 -23.919
| 12> H 	 -66.0455 	 -0.600269 	 -24.2124
| 13> C 	 -66.791 	 -1.2152 	 -21.3142
| 14> H 	 -66.9942 	 -2.27404 	 -20.9015
| 15> H 	 -67.5798 	 -0.903149 	 -21.9491
| 16> C 	 -66.7601 	 -0.131317 	 -20.188
| 17> H 	 -65.9348 	 -0.384163 	 -19.4511
| 18> H 	 -66.4623 	 0.806096 	 -20.653
| 19> C 	 -68.1378 	 0.130302 	 -19.5467
| 20> H 	 -68.8163 	 0.527347 	 -20.341
| 21> H 	 -68.626 	 -0.769149 	 -19.1688
| 22> H 	 -68.1476 	 0.860039 	 -18.7537
| 23> S 	 -62.084 	 0.529108 	 -25.1146
| 24> C 	 -61.9054 	 0.712897 	 -26.8693
| 25> C 	 -62.9746 	 0.0478493 	 -27.4388
| 26> C 	 -63.8996 	 -0.565629 	 -26.5191
| 27> C 	 -63.4678 	 -0.550951 	 -25.1949
| 28> H 	 -63.1178 	 0.0948497 	 -28.5281
| 29> C 	 -65.1193 	 -1.27735 	 -26.9109
| 30> H 	 -65.3345 	 -0.831458 	 -27.9088
| 31> H 	 -65.8636 	 -1.00024 	 -26.1909
| 32> C 	 -64.9208 	 -2.76969 	 -27.1318
| 33> H 	 -65.8663 	 -3.17808 	 -27.2944
| 34> H 	 -64.5929 	 -3.26206 	 -26.2348
| 35> C 	 -64.1493 	 -3.24885 	 -28.3298
| 36> H 	 -64.896 	 -3.36699 	 -29.1683
| 37> H 	 -63.8141 	 -4.32199 	 -28.1562
| 38> H 	 -63.3569 	 -2.54766 	 -28.4779
| 39> H 	 -64.1882 	 -1.84391 	 -20.4974
| 40> H 	 -61.1055 	 1.23997 	 -27.4373
| 41> *
| 42>
| 43>                          ****END OF INPUT****

CARTESIAN COORDINATES (ANGSTROEM)
---------------------------------
  S    -62.949300   -1.757290  -22.711900
  C    -64.203800   -1.589130  -21.514200
  C    -65.446900   -1.308320  -22.091400
  C    -65.275500   -0.940136  -23.465700
  C    -64.011500   -1.025710  -23.919000
  H    -66.045500   -0.600269  -24.212400
  C    -66.791000   -1.215200  -21.314200
  H    -66.994200   -2.274040  -20.901500
  H    -67.579800   -0.903149  -21.949100
  C    -66.760100   -0.131317  -20.188000
  H    -65.934800   -0.384163  -19.451100
  H    -66.462300    0.806096  -20.653000
  C    -68.137800    0.130302  -19.546700
  H    -68.816300    0.527347  -20.341000
  H    -68.626000   -0.769149  -19.168800
  H    -68.147600    0.860039  -18.753700
  S    -62.084000    0.529108  -25.114600
  C    -61.905400    0.712897  -26.869300
  C    -62.974600    0.047849  -27.438800
  C    -63.899600   -0.565629  -26.519100
  C    -63.467800   -0.550951  -25.194900
  H    -63.117800    0.094850  -28.528100
  C    -65.119300   -1.277350  -26.910900
  H    -65.334500   -0.831458  -27.908800
  H    -65.863600   -1.000240  -26.190900
  C    -64.920800   -2.769690  -27.131800
  H    -65.866300   -3.178080  -27.294400
  H    -64.592900   -3.262060  -26.234800
  C    -64.149300   -3.248850  -28.329800
  H    -64.896000   -3.366990  -29.168300
  H    -63.814100   -4.321990  -28.156200
  H    -63.356900   -2.547660  -28.477900
  H    -64.188200   -1.843910  -20.497400
  H    -61.105500    1.239970  -27.437300

 Total Charge           Charge          ....    0
 Multiplicity           Mult            ....    1
 Number of Electrons    NEL             ....  134
 Basis Dimension        Dim             ....  322

ORBITAL ENERGIES
----------------

  NO   OCC          E(Eh)            E(eV)
   0   2.0000     -88.969578     -2420.9853
   1   2.0000     -88.960791     -2420.7462
   2   2.0000     -10.329508      -281.0802
   3   2.0000     -10.327094      -281.0145
   4   2.0000     -10.323216      -280.9090
   5   2.0000     -10.312600      -280.6201
   6   2.0000     -10.307448      -280.4799
   7   2.0000     -10.303258      -280.3659
   8   2.0000     -10.299468      -280.2628
   9   2.0000     -10.298293      -280.2308
  10   2.0000     -10.297159      -280.1999
  11   2.0000     -10.295544      -280.1560
  12   2.0000     -10.287260      -279.9306
  13   2.0000     -10.283310      -279.8231
  14   2.0000     -10.279734      -279.7258
  15   2.0000     -10.270619      -279.4778
  16   2.0000      -8.083970      -219.9760
  17   2.0000      -8.075021      -219.7325
  18   2.0000      -6.042551      -164.4262
  19   2.0000      -6.038614      -164.3190
  20   2.0000      -6.034574      -164.2091
  21   2.0000      -6.033627      -164.1833
  22   2.0000      -6.029404      -164.0684
  23   2.0000      -6.025853      -163.9718
  24   2.0000      -1.007890       -27.4261
  25   2.0000      -0.984089       -26.7784
  26   2.0000      -0.916525       -24.9399
  27   2.0000      -0.906428       -24.6652
  28   2.0000      -0.869902       -23.6712
  29   2.0000      -0.852405       -23.1951
  30   2.0000      -0.845343       -23.0029
  31   2.0000      -0.818352       -22.2685
  32   2.0000      -0.780459       -21.2374
  33   2.0000      -0.770123       -20.9561
  34   2.0000      -0.708441       -19.2777
  35   2.0000      -0.700246       -19.0547
  36   2.0000      -0.688191       -18.7266
  37   2.0000      -0.663334       -18.0502
  38   2.0000      -0.642746       -17.4900
  39   2.0000      -0.614171       -16.7124
  40   2.0000      -0.587319       -15.9818
  41   2.0000      -0.574499       -15.6329
  42   2.0000      -0.562917       -15.3177
  43   2.0000      -0.557319       -15.1654
  44   2.0000      -0.553229       -15.0541
  45   2.0000      -0.522937       -14.2298
  46   2.0000      -0.514627       -14.0037
  47   2.0000      -0.510608       -13.8943
  48   2.0000      -0.507273       -13.8036
  49   2.0000      -0.500232       -13.6120
  50   2.0000      -0.484789       -13.1918
  51   2.0000      -0.481742       -13.1089
  52   2.0000      -0.476299       -12.9608
  53   2.0000      -0.468362       -12.7448
  54   2.0000      -0.456181       -12.4133
  55   2.0000      -0.452552       -12.3146
  56   2.0000      -0.443818       -12.0769
  57   2.0000      -0.436340       -11.8734
  58   2.0000      -0.428094       -11.6490
  59   2.0000      -0.421827       -11.4785
  60   2.0000      -0.419602       -11.4179
  61   2.0000      -0.418160       -11.3787
  62   2.0000      -0.402230       -10.9452
  63   2.0000      -0.351172        -9.5559
  64   2.0000      -0.330444        -8.9918
  65   2.0000      -0.324854        -8.8397
  66   2.0000      -0.293284        -7.9807
  67   0.0000       0.024385         0.6635
  68   0.0000       0.070840         1.9276
  69   0.0000       0.105652         2.8749
  70   0.0000       0.115600         3.1456
  71   0.0000       0.138488         3.7685

MULLIKEN ATOMIC CHARGES
-----------------------
   0 S :    0.131944
   1 C :   -0.094512
   2 C :   -0.096621
   3 C :    0.006772
   4 C :   -0.154218
   5 H :    0.031482
   6 C :    0.062128
   7 H :    0.055062
   8 H :    0.009718
   9 C :   -0.104411
  10 H :    0.038369
  11 H :    0.036642
  12 C :   -0.046857
  13 H :    0.031493
  14 H :    0.030555
  15 H :    0.037091
  16 S :    0.091386
  17 C :   -0.106566
  18 C :   -0.046913
  19 C :   -0.066944
  20 C :   -0.142627
  21 H :    0.028406
  22 C :    0.083031
  23 H :    0.013158
  24 H :    0.013460
  25 C :   -0.024935
  26 H :    0.003516
  27 H :    0.022713
  28 C :   -0.063159
  29 H :    0.034509
  30 H :    0.044875
  31 H :    0.035832
  32 H :    0.027436
  33 H :    0.078183
Sum of atomic charges:   -0.0000000

LOEWDIN ATOMIC CHARGES
----------------------
   0 S :    0.407613
   1 C :   -0.190452
   2 C :   -0.058985
   3 C :   -0.068858
   4 C :   -0.191928
   5 H :    0.040123
   6 C :   -0.030030
   7 H :    0.041940
   8 H :    0.021428
   9 C :   -0.043718
  10 H :    0.025484
  11 H :    0.026870
  12 C :   -0.069621
  13 H :    0.029992
  14 H :    0.023598
  15 H :    0.025478
  16 S :    0.396526
  17 C :   -0.189349
  18 C :   -0.083324
  19 C :   -0.064909
  20 C :   -0.196243
  21 H :    0.032483
  22 C :   -0.031478
  23 H :    0.034642
  24 H :    0.027501
  25 C :   -0.040260
  26 H :    0.016436
  27 H :    0.021655
  28 C :   -0.064207
  29 H :    0.030227
  30 H :    0.038792
  31 H :    0.019413
  32 H :    0.017676
  33 H :    0.045484

  Mayer bond orders larger than 0.100000
B(  0-S ,  1-C ) :   1.1399 B(  0-S ,  4-C ) :   1.1370 B(  1-C ,  2-C ) :   1.6145
B(  1-C , 32-H ) :   0.9708 B(  2-C ,  3-C ) :   1.2311 B(  2-C ,  6-C ) :   1.0208
B(  3-C ,  4-C ) :   1.6162 B(  3-C ,  5-H ) :   0.9760 B(  4-C , 20-C ) :   1.0303
B(  6-C ,  7-H ) :   0.9371 B(  6-C ,  8-H ) :   0.9465 B(  6-C ,  9-C ) :   1.0574
B(  9-C , 10-H ) :   0.9567 B(  9-C , 11-H ) :   0.9575 B(  9-C , 12-C ) :   1.0787
B( 12-C , 13-H ) :   0.9723 B( 12-C , 14-H ) :   0.9762 B( 12-C , 15-H ) :   0.9753
B( 16-S , 17-C ) :   1.1524 B( 16-S , 20-C ) :   1.1460 B( 17-C , 18-C ) :   1.5923
B( 17-C , 20-C ) :   0.1058 B( 17-C , 33-H ) :   0.9645 B( 18-C , 19-C ) :   1.2547
B( 18-C , 21-H ) :   0.9788 B( 19-C , 20-C ) :   1.5651 B( 19-C , 22-C ) :   1.0556
B( 22-C , 23-H ) :   0.9224 B( 22-C , 24-H ) :   0.9273 B( 22-C , 25-C ) :   1.0789
B( 25-C , 26-H ) :   0.9524 B( 25-C , 27-H ) :   0.9559 B( 25-C , 28-C ) :   1.0713
B( 28-C , 29-H ) :   0.9787 B( 28-C , 30-H ) :   0.9704 B( 28-C , 31-H ) :   0.9781

Dispersion correction           -0.014077600
FINAL SINGLE POINT ENERGY     -1339.864992100454

DIPOLE MOMENT
-------------
                                X             Y             Z
Electronic contribution:     21.88353       5.12452      -0.40564
Nuclear contribution   :    -22.56583      -5.17059       0.30617
                        -----------------------------------------
Total Dipole Moment    :     -0.68230      -0.04607      -0.09947
                        -----------------------------------------
Magnitude (a.u.)       :      0.69105
Magnitude (Debye)      :      1.75650

Rotational constants in cm-1:     0.022016     0.007263     0.006481
Rotational constants in MHz :   660.037631   217.733018   194.296389

                             ****ORCA TERMINATED NORMALLY****
TOTAL RUN TIME: 0 days 0 hours 0 minutes 21 seconds 328 msec
