                         Program Version 4.2.1 -  RELEASE  -
|  1> ! wB97X-D3 SP def2-SVP
|  2> %pal
|  3> nprocs 24
|  4> end
|  5>
|  6> * xyz 0 1
|  7> S 	 -96.0133 	 50.0688 	 -100.108
|  8> C 	 -95.4588 	 50.1093 	 -98.4219
|  9> C 	 -95.9551 	 51.2592 	 -97.7707
| 10> C 	 -96.6335 	 52.155 	 -98.6793
| 11> C 	 -96.6283 	 51.6781 	 -100.004
| 12> H 	 -96.9591 	 53.1378 	 -98.3904
| 13> C 	 -95.7698 	 51.5455 	 -96.3161
| 14> H 	 -95.7118 	 50.6378 	 -95.7024
| 15> H 	 -96.4975 	 52.2496 	 -96.0015
| 16> C 	 -94.3708 	 52.1322 	 -96.0981
| 17> H 	 -93.5856 	 51.6503 	 -96.6125
| 18> H 	 -94.2322 	 53.129 	 -96.5549
| 19> C 	 -94.0886 	 52.27 	 -94.5708
| 20> H 	 -93.1818 	 52.7915 	 -94.2885
| 21> H 	 -94.8508 	 52.7886 	 -93.9909
| 22> H 	 -93.9996 	 51.352 	 -94.0279
| 23> S 	 -97.5223 	 51.3524 	 -102.507
| 24> C 	 -98.3313 	 52.6569 	 -103.384
| 25> C 	 -98.2202 	 53.8289 	 -102.717
| 26> C 	 -97.5021 	 53.739 	 -101.452
| 27> C 	 -97.2043 	 52.384 	 -101.129
| 28> H 	 -98.5873 	 54.7911 	 -103.183
| 29> C 	 -96.9596 	 54.9854 	 -100.758
| 30> H 	 -96.2405 	 55.4966 	 -101.428
| 31> H 	 -96.422 	 54.7721 	 -99.8269
| 32> C 	 -98.0406 	 55.9675 	 -100.253
| 33> H 	 -98.7003 	 55.4519 	 -99.5104
| 34> H 	 -98.7132 	 56.3556 	 -101.061
| 35> C 	 -97.4864 	 57.2467 	 -99.6283
| 36> H 	 -97.5685 	 58.0138 	 -100.44
| 37> H 	 -96.4641 	 57.2178 	 -99.1721
| 38> H 	 -98.2293 	 57.6037 	 -98.8175
| 39> H 	 -94.9627 	 49.2475 	 -97.891
| 40> H 	 -98.8129 	 52.5817 	 -104.335
| 41> *
| 42>
| 43>                          ****END OF INPUT****

CARTESIAN COORDINATES (ANGSTROEM)
---------------------------------
  S    -96.013300   50.068800  -100.108000
  C    -95.458800   50.109300  -98.421900
  C    -95.955100   51.259200  -97.770700
  C    -96.633500   52.155000  -98.679300
  C    -96.628300   51.678100  -100.004000
  H    -96.959100   53.137800  -98.390400
  C    -95.769800   51.545500  -96.316100
  H    -95.711800   50.637800  -95.702400
  H    -96.497500   52.249600  -96.001500
  C    -94.370800   52.132200  -96.098100
  H    -93.585600   51.650300  -96.612500
  H    -94.232200   53.129000  -96.554900
  C    -94.088600   52.270000  -94.570800
  H    -93.181800   52.791500  -94.288500
  H    -94.850800   52.788600  -93.990900
  H    -93.999600   51.352000  -94.027900
  S    -97.522300   51.352400  -102.507000
  C    -98.331300   52.656900  -103.384000
  C    -98.220200   53.828900  -102.717000
  C    -97.502100   53.739000  -101.452000
  C    -97.204300   52.384000  -101.129000
  H    -98.587300   54.791100  -103.183000
  C    -96.959600   54.985400  -100.758000
  H    -96.240500   55.496600  -101.428000
  H    -96.422000   54.772100  -99.826900
  C    -98.040600   55.967500  -100.253000
  H    -98.700300   55.451900  -99.510400
  H    -98.713200   56.355600  -101.061000
  C    -97.486400   57.246700  -99.628300
  H    -97.568500   58.013800  -100.440000
  H    -96.464100   57.217800  -99.172100
  H    -98.229300   57.603700  -98.817500
  H    -94.962700   49.247500  -97.891000
  H    -98.812900   52.581700  -104.335000

 Total Charge           Charge          ....    0
 Multiplicity           Mult            ....    1
 Number of Electrons    NEL             ....  134
 Basis Dimension        Dim             ....  322

ORBITAL ENERGIES
----------------

  NO   OCC          E(Eh)            E(eV)
   0   2.0000     -88.970891     -2421.0210
   1   2.0000     -88.963274     -2420.8137
   2   2.0000     -10.333696      -281.1942
   3   2.0000     -10.333520      -281.1894
   4   2.0000     -10.320964      -280.8477
   5   2.0000     -10.316017      -280.7131
   6   2.0000     -10.312648      -280.6214
   7   2.0000     -10.305814      -280.4355
   8   2.0000     -10.299544      -280.2648
   9   2.0000     -10.299499      -280.2636
  10   2.0000     -10.297210      -280.2013
  11   2.0000     -10.293028      -280.0875
  12   2.0000     -10.291708      -280.0516
  13   2.0000     -10.290931      -280.0305
  14   2.0000     -10.286815      -279.9185
  15   2.0000     -10.275573      -279.6126
  16   2.0000      -8.085286      -220.0118
  17   2.0000      -8.078230      -219.8198
  18   2.0000      -6.043919      -164.4634
  19   2.0000      -6.039900      -164.3540
  20   2.0000      -6.036923      -164.2730
  21   2.0000      -6.035882      -164.2447
  22   2.0000      -6.032808      -164.1610
  23   2.0000      -6.028695      -164.0491
  24   2.0000      -1.005973       -27.3739
  25   2.0000      -0.979662       -26.6579
  26   2.0000      -0.917558       -24.9680
  27   2.0000      -0.906824       -24.6759
  28   2.0000      -0.869347       -23.6561
  29   2.0000      -0.851184       -23.1619
  30   2.0000      -0.842077       -22.9141
  31   2.0000      -0.813795       -22.1445
  32   2.0000      -0.780696       -21.2438
  33   2.0000      -0.769021       -20.9261
  34   2.0000      -0.712253       -19.3814
  35   2.0000      -0.703315       -19.1382
  36   2.0000      -0.687819       -18.7165
  37   2.0000      -0.659308       -17.9407
  38   2.0000      -0.633266       -17.2320
  39   2.0000      -0.624564       -16.9953
  40   2.0000      -0.599644       -16.3171
  41   2.0000      -0.571961       -15.5638
  42   2.0000      -0.564972       -15.3737
  43   2.0000      -0.556772       -15.1505
  44   2.0000      -0.524861       -14.2822
  45   2.0000      -0.520197       -14.1553
  46   2.0000      -0.515156       -14.0181
  47   2.0000      -0.508578       -13.8391
  48   2.0000      -0.503961       -13.7135
  49   2.0000      -0.497451       -13.5363
  50   2.0000      -0.491935       -13.3862
  51   2.0000      -0.483735       -13.1631
  52   2.0000      -0.477525       -12.9941
  53   2.0000      -0.464215       -12.6319
  54   2.0000      -0.457705       -12.4548
  55   2.0000      -0.453079       -12.3289
  56   2.0000      -0.446810       -12.1583
  57   2.0000      -0.441825       -12.0227
  58   2.0000      -0.430169       -11.7055
  59   2.0000      -0.426614       -11.6088
  60   2.0000      -0.419513       -11.4155
  61   2.0000      -0.414374       -11.2757
  62   2.0000      -0.411010       -11.1842
  63   2.0000      -0.360976        -9.8226
  64   2.0000      -0.335218        -9.1218
  65   2.0000      -0.322623        -8.7790
  66   2.0000      -0.278354        -7.5744
  67   0.0000       0.013762         0.3745
  68   0.0000       0.080657         2.1948
  69   0.0000       0.093499         2.5442
  70   0.0000       0.112568         3.0631
  71   0.0000       0.129851         3.5334

MULLIKEN ATOMIC CHARGES
-----------------------
   0 S :    0.110937
   1 C :   -0.140891
   2 C :   -0.099860
   3 C :    0.009550
   4 C :   -0.100226
   5 H :    0.003263
   6 C :    0.104592
   7 H :    0.029268
   8 H :    0.020950
   9 C :   -0.068238
  10 H :    0.019704
  11 H :    0.019208
  12 C :   -0.040640
  13 H :    0.025700
  14 H :    0.019595
  15 H :    0.017880
  16 S :    0.071385
  17 C :   -0.067836
  18 C :   -0.045575
  19 C :   -0.036678
  20 C :   -0.126093
  21 H :    0.041710
  22 C :    0.048507
  23 H :    0.048200
  24 H :    0.018935
  25 C :   -0.122835
  26 H :    0.039799
  27 H :    0.034195
  28 C :   -0.088501
  29 H :    0.039990
  30 H :    0.047606
  31 H :    0.044655
  32 H :    0.071428
  33 H :    0.050314
Sum of atomic charges:   -0.0000000

LOEWDIN ATOMIC CHARGES
----------------------
   0 S :    0.408156
   1 C :   -0.210872
   2 C :   -0.052231
   3 C :   -0.065468
   4 C :   -0.196722
   5 H :    0.025625
   6 C :   -0.025084
   7 H :    0.036183
   8 H :    0.028663
   9 C :   -0.035413
  10 H :    0.019288
  11 H :    0.025712
  12 C :   -0.073764
  13 H :    0.025452
  14 H :    0.024592
  15 H :    0.019464
  16 S :    0.385803
  17 C :   -0.176107
  18 C :   -0.074074
  19 C :   -0.059180
  20 C :   -0.182765
  21 H :    0.042273
  22 C :   -0.033822
  23 H :    0.037438
  24 H :    0.028416
  25 C :   -0.053322
  26 H :    0.025568
  27 H :    0.024832
  28 C :   -0.082339
  29 H :    0.029874
  30 H :    0.027270
  31 H :    0.037048
  32 H :    0.040613
  33 H :    0.028894

  Mayer bond orders larger than 0.100000
B(  0-S ,  1-C ) :   1.1206 B(  0-S ,  4-C ) :   1.1634 B(  1-C ,  2-C ) :   1.5864
B(  1-C , 32-H ) :   0.9623 B(  2-C ,  3-C ) :   1.2665 B(  2-C ,  6-C ) :   1.0446
B(  3-C ,  4-C ) :   1.5220 B(  3-C ,  5-H ) :   0.9918 B(  4-C , 20-C ) :   1.1037
B(  6-C ,  7-H ) :   0.9420 B(  6-C ,  8-H ) :   0.9354 B(  6-C ,  9-C ) :   1.0517
B(  9-C , 10-H ) :   0.9601 B(  9-C , 11-H ) :   0.9520 B(  9-C , 12-C ) :   1.0706
B( 12-C , 13-H ) :   0.9744 B( 12-C , 14-H ) :   0.9735 B( 12-C , 15-H ) :   0.9751
B( 16-S , 17-C ) :   1.1277 B( 16-S , 20-C ) :   1.1315 B( 17-C , 18-C ) :   1.6514
B( 17-C , 33-H ) :   0.9698 B( 18-C , 19-C ) :   1.2187 B( 18-C , 21-H ) :   0.9762
B( 19-C , 20-C ) :   1.5703 B( 19-C , 22-C ) :   1.0406 B( 22-C , 23-H ) :   0.9425
B( 22-C , 24-H ) :   0.9386 B( 22-C , 25-C ) :   1.0496 B( 25-C , 26-H ) :   0.9625
B( 25-C , 27-H ) :   0.9619 B( 25-C , 28-C ) :   1.0618 B( 28-C , 29-H ) :   0.9815
B( 28-C , 30-H ) :   0.9742 B( 28-C , 31-H ) :   0.9763

Dispersion correction           -0.013387543
FINAL SINGLE POINT ENERGY     -1339.869952491425

DIPOLE MOMENT
-------------
                                X             Y             Z
Electronic contribution:     -5.28570     -22.72257     -23.25760
Nuclear contribution   :      5.35661      23.32224      23.63124
                        -----------------------------------------
Total Dipole Moment    :      0.07091       0.59967       0.37364
                        -----------------------------------------
Magnitude (a.u.)       :      0.71010
Magnitude (Debye)      :      1.80492

Rotational constants in cm-1:     0.016825     0.008813     0.005941
Rotational constants in MHz :   504.392771   264.204899   178.117007

                             ****ORCA TERMINATED NORMALLY****
TOTAL RUN TIME: 0 days 0 hours 0 minutes 20 seconds 990 msec
