                         Program Version 4.2.1 -  RELEASE  -
|  1> ! wB97X-D3 SP def2-SVP
|  2> %pal
|  3> nprocs 24
|  4> end
|  5>
|  6> * xyz 0 1
|  7> S 	 -57.468 	 -3.28982 	 -17.5484
|  8> C 	 -58.2511 	 -2.53383 	 -16.2046
|  9> C 	 -57.7828 	 -2.99057 	 -14.9979
| 10> C 	 -56.8178 	 -4.03402 	 -15.1405
| 11> C 	 -56.5338 	 -4.3452 	 -16.4462
| 12> H 	 -56.3391 	 -4.51289 	 -14.2615
| 13> C 	 -57.9228 	 -2.38736 	 -13.6142
| 14> H 	 -57.0203 	 -2.75797 	 -13.0611
| 15> H 	 -58.7739 	 -2.77793 	 -13.0464
| 16> C 	 -58.1078 	 -0.861369 	 -13.5369
| 17> H 	 -57.3335 	 -0.29469 	 -14.0586
| 18> H 	 -59.0856 	 -0.679512 	 -14.0172
| 19> C 	 -58.318 	 -0.407728 	 -12.1198
| 20> H 	 -58.5133 	 0.627716 	 -11.8712
| 21> H 	 -59.1243 	 -0.950359 	 -11.6175
| 22> H 	 -57.4915 	 -0.609076 	 -11.5465
| 23> S 	 -54.6003 	 -5.0771 	 -18.1857
| 24> C 	 -54.305 	 -6.80378 	 -18.4861
| 25> C 	 -54.8775 	 -7.57055 	 -17.5021
| 26> C 	 -55.6759 	 -6.75506 	 -16.6455
| 27> C 	 -55.7755 	 -5.41153 	 -17.0074
| 28> H 	 -54.7253 	 -8.64466 	 -17.3246
| 29> C 	 -56.4532 	 -7.35605 	 -15.5117
| 30> H 	 -56.8123 	 -6.59115 	 -14.8237
| 31> H 	 -55.873 	 -7.96767 	 -14.9006
| 32> C 	 -57.6416 	 -8.04636 	 -16.0254
| 33> H 	 -57.908 	 -8.75505 	 -15.2363
| 34> H 	 -57.4005 	 -8.69958 	 -16.8762
| 35> C 	 -58.7471 	 -7.04262 	 -16.4703
| 36> H 	 -59.7672 	 -7.50764 	 -16.535
| 37> H 	 -58.5638 	 -6.61246 	 -17.4906
| 38> H 	 -58.902 	 -6.13354 	 -15.7798
| 39> H 	 -58.8437 	 -1.65132 	 -16.2548
| 40> H 	 -53.5107 	 -7.23975 	 -19.1194
| 41> *
| 42>
| 43>                          ****END OF INPUT****

CARTESIAN COORDINATES (ANGSTROEM)
---------------------------------
  S    -57.468000   -3.289820  -17.548400
  C    -58.251100   -2.533830  -16.204600
  C    -57.782800   -2.990570  -14.997900
  C    -56.817800   -4.034020  -15.140500
  C    -56.533800   -4.345200  -16.446200
  H    -56.339100   -4.512890  -14.261500
  C    -57.922800   -2.387360  -13.614200
  H    -57.020300   -2.757970  -13.061100
  H    -58.773900   -2.777930  -13.046400
  C    -58.107800   -0.861369  -13.536900
  H    -57.333500   -0.294690  -14.058600
  H    -59.085600   -0.679512  -14.017200
  C    -58.318000   -0.407728  -12.119800
  H    -58.513300    0.627716  -11.871200
  H    -59.124300   -0.950359  -11.617500
  H    -57.491500   -0.609076  -11.546500
  S    -54.600300   -5.077100  -18.185700
  C    -54.305000   -6.803780  -18.486100
  C    -54.877500   -7.570550  -17.502100
  C    -55.675900   -6.755060  -16.645500
  C    -55.775500   -5.411530  -17.007400
  H    -54.725300   -8.644660  -17.324600
  C    -56.453200   -7.356050  -15.511700
  H    -56.812300   -6.591150  -14.823700
  H    -55.873000   -7.967670  -14.900600
  C    -57.641600   -8.046360  -16.025400
  H    -57.908000   -8.755050  -15.236300
  H    -57.400500   -8.699580  -16.876200
  C    -58.747100   -7.042620  -16.470300
  H    -59.767200   -7.507640  -16.535000
  H    -58.563800   -6.612460  -17.490600
  H    -58.902000   -6.133540  -15.779800
  H    -58.843700   -1.651320  -16.254800
  H    -53.510700   -7.239750  -19.119400

 Total Charge           Charge          ....    0
 Multiplicity           Mult            ....    1
 Number of Electrons    NEL             ....  134
 Basis Dimension        Dim             ....  322

ORBITAL ENERGIES
----------------

  NO   OCC          E(Eh)            E(eV)
   0   2.0000     -88.966719     -2420.9075
   1   2.0000     -88.964084     -2420.8358
   2   2.0000     -10.329943      -281.0920
   3   2.0000     -10.320136      -280.8252
   4   2.0000     -10.319193      -280.7995
   5   2.0000     -10.311112      -280.5796
   6   2.0000     -10.299161      -280.2544
   7   2.0000     -10.297540      -280.2103
   8   2.0000     -10.297498      -280.2092
   9   2.0000     -10.296388      -280.1790
  10   2.0000     -10.296304      -280.1767
  11   2.0000     -10.290489      -280.0184
  12   2.0000     -10.281312      -279.7687
  13   2.0000     -10.280145      -279.7370
  14   2.0000     -10.273993      -279.5696
  15   2.0000     -10.270165      -279.4654
  16   2.0000      -8.081198      -219.9006
  17   2.0000      -8.079425      -219.8523
  18   2.0000      -6.039767      -164.3504
  19   2.0000      -6.037901      -164.2996
  20   2.0000      -6.035745      -164.2410
  21   2.0000      -6.033983      -164.1930
  22   2.0000      -6.031879      -164.1358
  23   2.0000      -6.030017      -164.0851
  24   2.0000      -1.012340       -27.5472
  25   2.0000      -0.987458       -26.8701
  26   2.0000      -0.917444       -24.9649
  27   2.0000      -0.915395       -24.9092
  28   2.0000      -0.877082       -23.8666
  29   2.0000      -0.855120       -23.2690
  30   2.0000      -0.837941       -22.8015
  31   2.0000      -0.813626       -22.1399
  32   2.0000      -0.781182       -21.2570
  33   2.0000      -0.768997       -20.9255
  34   2.0000      -0.715202       -19.4616
  35   2.0000      -0.702342       -19.1117
  36   2.0000      -0.691544       -18.8179
  37   2.0000      -0.661485       -17.9999
  38   2.0000      -0.639868       -17.4117
  39   2.0000      -0.621741       -16.9184
  40   2.0000      -0.602103       -16.3840
  41   2.0000      -0.572643       -15.5824
  42   2.0000      -0.569587       -15.4992
  43   2.0000      -0.555601       -15.1187
  44   2.0000      -0.535454       -14.5705
  45   2.0000      -0.521211       -14.1829
  46   2.0000      -0.515571       -14.0294
  47   2.0000      -0.509623       -13.8676
  48   2.0000      -0.501673       -13.6512
  49   2.0000      -0.493853       -13.4384
  50   2.0000      -0.493792       -13.4368
  51   2.0000      -0.479528       -13.0486
  52   2.0000      -0.471096       -12.8192
  53   2.0000      -0.464144       -12.6300
  54   2.0000      -0.459054       -12.4915
  55   2.0000      -0.447464       -12.1761
  56   2.0000      -0.440798       -11.9947
  57   2.0000      -0.436523       -11.8784
  58   2.0000      -0.430677       -11.7193
  59   2.0000      -0.429309       -11.6821
  60   2.0000      -0.419220       -11.4076
  61   2.0000      -0.415978       -11.3193
  62   2.0000      -0.406864       -11.0713
  63   2.0000      -0.352523        -9.5926
  64   2.0000      -0.331576        -9.0226
  65   2.0000      -0.326892        -8.8952
  66   2.0000      -0.289399        -7.8749
  67   0.0000       0.026086         0.7098
  68   0.0000       0.071524         1.9463
  69   0.0000       0.102808         2.7975
  70   0.0000       0.120432         3.2771
  71   0.0000       0.131539         3.5794

MULLIKEN ATOMIC CHARGES
-----------------------
   0 S :    0.111439
   1 C :   -0.099380
   2 C :   -0.073261
   3 C :   -0.003959
   4 C :   -0.146006
   5 H :    0.038247
   6 C :    0.032479
   7 H :    0.029516
   8 H :    0.032586
   9 C :   -0.081467
  10 H :    0.043740
  11 H :    0.032985
  12 C :   -0.013145
  13 H :    0.029026
  14 H :    0.016112
  15 H :    0.000704
  16 S :    0.108418
  17 C :   -0.089429
  18 C :   -0.039668
  19 C :   -0.067731
  20 C :   -0.137322
  21 H :    0.032470
  22 C :    0.110354
  23 H :   -0.002597
  24 H :    0.001186
  25 C :   -0.049154
  26 H :    0.020713
  27 H :    0.025325
  28 C :   -0.100281
  29 H :    0.038205
  30 H :    0.050071
  31 H :    0.045723
  32 H :    0.036187
  33 H :    0.067914
Sum of atomic charges:   -0.0000000

LOEWDIN ATOMIC CHARGES
----------------------
   0 S :    0.403236
   1 C :   -0.197977
   2 C :   -0.067770
   3 C :   -0.063752
   4 C :   -0.178619
   5 H :    0.038034
   6 C :   -0.033238
   7 H :    0.032384
   8 H :    0.033293
   9 C :   -0.040473
  10 H :    0.026473
  11 H :    0.027248
  12 C :   -0.065365
  13 H :    0.027999
  14 H :    0.026663
  15 H :    0.012544
  16 S :    0.418159
  17 C :   -0.183957
  18 C :   -0.069432
  19 C :   -0.049611
  20 C :   -0.226138
  21 H :    0.038852
  22 C :   -0.035448
  23 H :    0.028190
  24 H :    0.020408
  25 C :   -0.040831
  26 H :    0.022666
  27 H :    0.024288
  28 C :   -0.079933
  29 H :    0.028191
  30 H :    0.031422
  31 H :    0.032880
  32 H :    0.022681
  33 H :    0.036934

  Mayer bond orders larger than 0.100000
B(  0-S ,  1-C ) :   1.1335 B(  0-S ,  4-C ) :   1.1386 B(  1-C ,  2-C ) :   1.6323
B(  1-C , 32-H ) :   0.9635 B(  2-C ,  3-C ) :   1.2438 B(  2-C ,  6-C ) :   1.0063
B(  3-C ,  4-C ) :   1.5898 B(  3-C ,  5-H ) :   0.9798 B(  4-C , 20-C ) :   1.0441
B(  6-C ,  7-H ) :   0.9525 B(  6-C ,  8-H ) :   0.9269 B(  6-C ,  9-C ) :   1.0650
B(  9-C , 10-H ) :   0.9615 B(  9-C , 11-H ) :   0.9478 B(  9-C , 12-C ) :   1.0842
B( 12-C , 13-H ) :   0.9720 B( 12-C , 14-H ) :   0.9689 B( 12-C , 15-H ) :   0.9714
B( 16-S , 17-C ) :   1.1494 B( 16-S , 20-C ) :   1.1499 B( 17-C , 18-C ) :   1.5911
B( 17-C , 33-H ) :   0.9628 B( 18-C , 19-C ) :   1.2672 B( 18-C , 21-H ) :   0.9840
B( 19-C , 20-C ) :   1.5640 B( 19-C , 22-C ) :   1.0541 B( 22-C , 23-H ) :   0.9274
B( 22-C , 24-H ) :   0.9205 B( 22-C , 25-C ) :   1.0872 B( 25-C , 26-H ) :   0.9536
B( 25-C , 27-H ) :   0.9547 B( 25-C , 28-C ) :   1.0584 B( 28-C , 29-H ) :   0.9758
B( 28-C , 30-H ) :   0.9716 B( 28-C , 31-H ) :   0.9747

Dispersion correction           -0.015490187
FINAL SINGLE POINT ENERGY     -1339.872672568110

DIPOLE MOMENT
-------------
                                X             Y             Z
Electronic contribution:     13.53666      -0.98826     -21.53670
Nuclear contribution   :    -13.54959       0.82061      22.25402
                        -----------------------------------------
Total Dipole Moment    :     -0.01293      -0.16765       0.71732
                        -----------------------------------------
Magnitude (a.u.)       :      0.73676
Magnitude (Debye)      :      1.87270

Rotational constants in cm-1:     0.024295     0.007809     0.006950
Rotational constants in MHz :   728.353558   234.103461   208.363905

                             ****ORCA TERMINATED NORMALLY****
TOTAL RUN TIME: 0 days 0 hours 0 minutes 22 seconds 783 msec
