                         Program Version 4.2.1 -  RELEASE  -
|  1> ! wB97X-D3 SP def2-SVP
|  2> %pal
|  3> nprocs 24
|  4> end
|  5>
|  6> * xyz 0 1
|  7> S 	 -124.038 	 53.007 	 -32.9938
|  8> C 	 -122.466 	 52.6749 	 -32.1516
|  9> C 	 -121.467 	 53.4793 	 -32.6246
| 10> C 	 -122.011 	 54.4555 	 -33.5254
| 11> C 	 -123.36 	 54.3063 	 -33.8328
| 12> H 	 -121.478 	 55.2016 	 -34.0212
| 13> C 	 -120.066 	 53.6409 	 -32.1018
| 14> H 	 -119.439 	 53.755 	 -32.9501
| 15> H 	 -119.8 	 52.715 	 -31.723
| 16> C 	 -120.04 	 54.7662 	 -30.9758
| 17> H 	 -120.53 	 55.536 	 -31.4323
| 18> H 	 -120.551 	 54.4231 	 -30.1304
| 19> C 	 -118.599 	 55.3394 	 -30.5322
| 20> H 	 -118.812 	 56.0335 	 -29.7033
| 21> H 	 -117.847 	 54.6352 	 -30.0376
| 22> H 	 -118.125 	 55.9692 	 -31.2612
| 23> S 	 -125.012 	 54.5365 	 -35.9568
| 24> C 	 -125.653 	 56.1216 	 -36.4332
| 25> C 	 -125.399 	 57.0278 	 -35.4573
| 26> C 	 -124.554 	 56.5884 	 -34.4134
| 27> C 	 -124.273 	 55.1994 	 -34.5245
| 28> H 	 -125.907 	 57.9735 	 -35.4847
| 29> C 	 -124.148 	 57.4695 	 -33.3154
| 30> H 	 -124.109 	 56.7786 	 -32.3679
| 31> H 	 -124.925 	 58.2053 	 -33.1385
| 32> C 	 -122.717 	 58.0816 	 -33.454
| 33> H 	 -122.736 	 58.7518 	 -34.2801
| 34> H 	 -121.933 	 57.3483 	 -33.7344
| 35> C 	 -122.385 	 58.9554 	 -32.1638
| 36> H 	 -121.558 	 59.6376 	 -32.4122
| 37> H 	 -122.152 	 58.4182 	 -31.2872
| 38> H 	 -123.279 	 59.534 	 -32.088
| 39> H 	 -122.233 	 51.8404 	 -31.5936
| 40> H 	 -126.329 	 56.2011 	 -37.2733
| 41> *
| 42>
| 43>                          ****END OF INPUT****

CARTESIAN COORDINATES (ANGSTROEM)
---------------------------------
  S    -124.038000   53.007000  -32.993800
  C    -122.466000   52.674900  -32.151600
  C    -121.467000   53.479300  -32.624600
  C    -122.011000   54.455500  -33.525400
  C    -123.360000   54.306300  -33.832800
  H    -121.478000   55.201600  -34.021200
  C    -120.066000   53.640900  -32.101800
  H    -119.439000   53.755000  -32.950100
  H    -119.800000   52.715000  -31.723000
  C    -120.040000   54.766200  -30.975800
  H    -120.530000   55.536000  -31.432300
  H    -120.551000   54.423100  -30.130400
  C    -118.599000   55.339400  -30.532200
  H    -118.812000   56.033500  -29.703300
  H    -117.847000   54.635200  -30.037600
  H    -118.125000   55.969200  -31.261200
  S    -125.012000   54.536500  -35.956800
  C    -125.653000   56.121600  -36.433200
  C    -125.399000   57.027800  -35.457300
  C    -124.554000   56.588400  -34.413400
  C    -124.273000   55.199400  -34.524500
  H    -125.907000   57.973500  -35.484700
  C    -124.148000   57.469500  -33.315400
  H    -124.109000   56.778600  -32.367900
  H    -124.925000   58.205300  -33.138500
  C    -122.717000   58.081600  -33.454000
  H    -122.736000   58.751800  -34.280100
  H    -121.933000   57.348300  -33.734400
  C    -122.385000   58.955400  -32.163800
  H    -121.558000   59.637600  -32.412200
  H    -122.152000   58.418200  -31.287200
  H    -123.279000   59.534000  -32.088000
  H    -122.233000   51.840400  -31.593600
  H    -126.329000   56.201100  -37.273300

 Total Charge           Charge          ....    0
 Multiplicity           Mult            ....    1
 Number of Electrons    NEL             ....  134
 Basis Dimension        Dim             ....  322

ORBITAL ENERGIES
----------------

  NO   OCC          E(Eh)            E(eV)
   0   2.0000     -88.964134     -2420.8372
   1   2.0000     -88.962252     -2420.7859
   2   2.0000     -10.327148      -281.0160
   3   2.0000     -10.324873      -280.9541
   4   2.0000     -10.316835      -280.7353
   5   2.0000     -10.309427      -280.5338
   6   2.0000     -10.302717      -280.3512
   7   2.0000     -10.299105      -280.2529
   8   2.0000     -10.296237      -280.1749
   9   2.0000     -10.290805      -280.0270
  10   2.0000     -10.290541      -280.0198
  11   2.0000     -10.290014      -280.0055
  12   2.0000     -10.288976      -279.9773
  13   2.0000     -10.287746      -279.9438
  14   2.0000     -10.287176      -279.9283
  15   2.0000     -10.277439      -279.6633
  16   2.0000      -8.079194      -219.8461
  17   2.0000      -8.077104      -219.7892
  18   2.0000      -6.037751      -164.2956
  19   2.0000      -6.035533      -164.2352
  20   2.0000      -6.033554      -164.1813
  21   2.0000      -6.031497      -164.1254
  22   2.0000      -6.029967      -164.0837
  23   2.0000      -6.028034      -164.0312
  24   2.0000      -1.008694       -27.4480
  25   2.0000      -0.984163       -26.7804
  26   2.0000      -0.912762       -24.8375
  27   2.0000      -0.905728       -24.6461
  28   2.0000      -0.868176       -23.6243
  29   2.0000      -0.848562       -23.0905
  30   2.0000      -0.841636       -22.9021
  31   2.0000      -0.815586       -22.1932
  32   2.0000      -0.787023       -21.4160
  33   2.0000      -0.769228       -20.9318
  34   2.0000      -0.716626       -19.5004
  35   2.0000      -0.709790       -19.3144
  36   2.0000      -0.696178       -18.9440
  37   2.0000      -0.663966       -18.0674
  38   2.0000      -0.646647       -17.5962
  39   2.0000      -0.620885       -16.8951
  40   2.0000      -0.596515       -16.2320
  41   2.0000      -0.567548       -15.4438
  42   2.0000      -0.566799       -15.4234
  43   2.0000      -0.559545       -15.2260
  44   2.0000      -0.524937       -14.2843
  45   2.0000      -0.520984       -14.1767
  46   2.0000      -0.516972       -14.0675
  47   2.0000      -0.513729       -13.9793
  48   2.0000      -0.508854       -13.8466
  49   2.0000      -0.500029       -13.6065
  50   2.0000      -0.497916       -13.5490
  51   2.0000      -0.477044       -12.9810
  52   2.0000      -0.468170       -12.7395
  53   2.0000      -0.465922       -12.6784
  54   2.0000      -0.458347       -12.4723
  55   2.0000      -0.446915       -12.1612
  56   2.0000      -0.441816       -12.0224
  57   2.0000      -0.439121       -11.9491
  58   2.0000      -0.438229       -11.9248
  59   2.0000      -0.430156       -11.7052
  60   2.0000      -0.421470       -11.4688
  61   2.0000      -0.420318       -11.4374
  62   2.0000      -0.418625       -11.3914
  63   2.0000      -0.344225        -9.3669
  64   2.0000      -0.332705        -9.0534
  65   2.0000      -0.320085        -8.7099
  66   2.0000      -0.298285        -8.1167
  67   0.0000       0.033082         0.9002
  68   0.0000       0.064280         1.7491
  69   0.0000       0.104694         2.8489
  70   0.0000       0.119806         3.2601
  71   0.0000       0.127441         3.4678

MULLIKEN ATOMIC CHARGES
-----------------------
   0 S :    0.105678
   1 C :   -0.090605
   2 C :   -0.127323
   3 C :    0.028538
   4 C :   -0.130518
   5 H :   -0.012371
   6 C :    0.134179
   7 H :    0.017909
   8 H :   -0.008070
   9 C :   -0.010246
  10 H :    0.011174
  11 H :    0.026000
  12 C :   -0.080307
  13 H :    0.028446
  14 H :    0.047496
  15 H :    0.035357
  16 S :    0.093604
  17 C :   -0.092889
  18 C :   -0.026438
  19 C :   -0.000776
  20 C :   -0.164742
  21 H :    0.014777
  22 C :    0.008636
  23 H :    0.049535
  24 H :    0.024035
  25 C :   -0.070725
  26 H :    0.014026
  27 H :    0.025968
  28 C :   -0.023996
  29 H :    0.035129
  30 H :    0.038966
  31 H :    0.022576
  32 H :    0.017034
  33 H :    0.059942
Sum of atomic charges:   -0.0000000

LOEWDIN ATOMIC CHARGES
----------------------
   0 S :    0.410837
   1 C :   -0.172285
   2 C :   -0.054917
   3 C :   -0.060946
   4 C :   -0.213962
   5 H :    0.015290
   6 C :   -0.019447
   7 H :    0.028582
   8 H :    0.017039
   9 C :   -0.008818
  10 H :    0.013868
  11 H :    0.022067
  12 C :   -0.077358
  13 H :    0.028939
  14 H :    0.033112
  15 H :    0.021245
  16 S :    0.401600
  17 C :   -0.173703
  18 C :   -0.072143
  19 C :   -0.057771
  20 C :   -0.206121
  21 H :    0.031627
  22 C :   -0.040666
  23 H :    0.045629
  24 H :    0.028884
  25 C :   -0.032714
  26 H :    0.016659
  27 H :    0.021758
  28 C :   -0.055913
  29 H :    0.028760
  30 H :    0.018367
  31 H :    0.023139
  32 H :    0.011200
  33 H :    0.028161

  Mayer bond orders larger than 0.100000
B(  0-S ,  1-C ) :   1.1231 B(  0-S ,  4-C ) :   1.1704 B(  1-C ,  2-C ) :   1.6331
B(  1-C , 32-H ) :   0.9697 B(  2-C ,  3-C ) :   1.2120 B(  2-C ,  6-C ) :   1.0387
B(  3-C ,  4-C ) :   1.5879 B(  3-C ,  5-H ) :   1.0064 B(  4-C , 20-C ) :   0.9835
B(  6-C ,  7-H ) :   0.9357 B(  6-C ,  8-H ) :   0.9289 B(  6-C ,  9-C ) :   1.0418
B(  9-C , 10-H ) :   0.9617 B(  9-C , 11-H ) :   0.9599 B(  9-C , 12-C ) :   1.0719
B( 12-C , 13-H ) :   0.9737 B( 12-C , 14-H ) :   0.9778 B( 12-C , 15-H ) :   0.9789
B( 16-S , 17-C ) :   1.1558 B( 16-S , 20-C ) :   1.1596 B( 17-C , 18-C ) :   1.5913
B( 17-C , 20-C ) :   0.1091 B( 17-C , 33-H ) :   0.9694 B( 18-C , 19-C ) :   1.2536
B( 18-C , 21-H ) :   0.9912 B( 19-C , 20-C ) :   1.5658 B( 19-C , 22-C ) :   1.0572
B( 22-C , 23-H ) :   0.9373 B( 22-C , 24-H ) :   0.9336 B( 22-C , 25-C ) :   1.0516
B( 25-C , 26-H ) :   0.9530 B( 25-C , 27-H ) :   0.9560 B( 25-C , 28-C ) :   1.0681
B( 28-C , 29-H ) :   0.9769 B( 28-C , 30-H ) :   0.9813 B( 28-C , 31-H ) :   0.9732

Dispersion correction           -0.014798020
FINAL SINGLE POINT ENERGY     -1339.853403560091

DIPOLE MOMENT
-------------
                                X             Y             Z
Electronic contribution:    -21.74876     -18.23892     -16.91624
Nuclear contribution   :     22.10844      18.80346      17.17701
                        -----------------------------------------
Total Dipole Moment    :      0.35968       0.56453       0.26077
                        -----------------------------------------
Magnitude (a.u.)       :      0.71838
Magnitude (Debye)      :      1.82598

Rotational constants in cm-1:     0.018324     0.009599     0.006859
Rotational constants in MHz :   549.353744   287.756953   205.620598

                             ****ORCA TERMINATED NORMALLY****
TOTAL RUN TIME: 0 days 0 hours 0 minutes 22 seconds 280 msec
