                         Program Version 4.2.1 -  RELEASE  -
|  1> ! wB97X-D3 SP def2-SVP
|  2> %pal
|  3> nprocs 24
|  4> end
|  5>
|  6> * xyz 0 1
|  7> S 	 34.1236 	 -31.0539 	 -117.588
|  8> C 	 34.4466 	 -29.6506 	 -116.666
|  9> C 	 35.7173 	 -29.6541 	 -116.12
| 10> C 	 36.3457 	 -30.9272 	 -116.352
| 11> C 	 35.7244 	 -31.7617 	 -117.213
| 12> H 	 37.3961 	 -31.1338 	 -115.939
| 13> C 	 36.2973 	 -28.5769 	 -115.253
| 14> H 	 35.7681 	 -27.6302 	 -115.415
| 15> H 	 37.348 	 -28.4813 	 -115.626
| 16> C 	 36.2528 	 -28.8933 	 -113.779
| 17> H 	 36.404 	 -29.9522 	 -113.689
| 18> H 	 37.0461 	 -28.2339 	 -113.314
| 19> C 	 34.841 	 -28.717 	 -113.039
| 20> H 	 34.7358 	 -29.0393 	 -111.987
| 21> H 	 34.7938 	 -27.5912 	 -113.022
| 22> H 	 34.0102 	 -29.1843 	 -113.56
| 23> S 	 35.8313 	 -33.1289 	 -119.534
| 24> C 	 36.6431 	 -34.6708 	 -119.529
| 25> C 	 37.115 	 -35.0197 	 -118.31
| 26> C 	 36.6646 	 -34.1322 	 -117.26
| 27> C 	 36.1655 	 -33.0048 	 -117.814
| 28> H 	 37.5449 	 -35.9835 	 -118.331
| 29> C 	 36.8477 	 -34.4105 	 -115.752
| 30> H 	 37.499 	 -33.6097 	 -115.424
| 31> H 	 37.3635 	 -35.3527 	 -115.556
| 32> C 	 35.5049 	 -34.4766 	 -114.954
| 33> H 	 34.7536 	 -35.0717 	 -115.568
| 34> H 	 35.1159 	 -33.4996 	 -114.881
| 35> C 	 35.6212 	 -35.1294 	 -113.57
| 36> H 	 36.397 	 -35.8511 	 -113.553
| 37> H 	 34.6913 	 -35.6147 	 -113.24
| 38> H 	 35.8829 	 -34.4308 	 -112.825
| 39> H 	 33.8824 	 -28.6862 	 -116.628
| 40> H 	 36.5183 	 -35.3394 	 -120.358
| 41> *
| 42>
| 43>                          ****END OF INPUT****

CARTESIAN COORDINATES (ANGSTROEM)
---------------------------------
  S     34.123600  -31.053900  -117.588000
  C     34.446600  -29.650600  -116.666000
  C     35.717300  -29.654100  -116.120000
  C     36.345700  -30.927200  -116.352000
  C     35.724400  -31.761700  -117.213000
  H     37.396100  -31.133800  -115.939000
  C     36.297300  -28.576900  -115.253000
  H     35.768100  -27.630200  -115.415000
  H     37.348000  -28.481300  -115.626000
  C     36.252800  -28.893300  -113.779000
  H     36.404000  -29.952200  -113.689000
  H     37.046100  -28.233900  -113.314000
  C     34.841000  -28.717000  -113.039000
  H     34.735800  -29.039300  -111.987000
  H     34.793800  -27.591200  -113.022000
  H     34.010200  -29.184300  -113.560000
  S     35.831300  -33.128900  -119.534000
  C     36.643100  -34.670800  -119.529000
  C     37.115000  -35.019700  -118.310000
  C     36.664600  -34.132200  -117.260000
  C     36.165500  -33.004800  -117.814000
  H     37.544900  -35.983500  -118.331000
  C     36.847700  -34.410500  -115.752000
  H     37.499000  -33.609700  -115.424000
  H     37.363500  -35.352700  -115.556000
  C     35.504900  -34.476600  -114.954000
  H     34.753600  -35.071700  -115.568000
  H     35.115900  -33.499600  -114.881000
  C     35.621200  -35.129400  -113.570000
  H     36.397000  -35.851100  -113.553000
  H     34.691300  -35.614700  -113.240000
  H     35.882900  -34.430800  -112.825000
  H     33.882400  -28.686200  -116.628000
  H     36.518300  -35.339400  -120.358000

 Total Charge           Charge          ....    0
 Multiplicity           Mult            ....    1
 Number of Electrons    NEL             ....  134
 Basis Dimension        Dim             ....  322

ORBITAL ENERGIES
----------------

  NO   OCC          E(Eh)            E(eV)
   0   2.0000     -88.964048     -2420.8348
   1   2.0000     -88.961451     -2420.7641
   2   2.0000     -10.328485      -281.0524
   3   2.0000     -10.322586      -280.8918
   4   2.0000     -10.312782      -280.6251
   5   2.0000     -10.311194      -280.5818
   6   2.0000     -10.307352      -280.4773
   7   2.0000     -10.298263      -280.2300
   8   2.0000     -10.297079      -280.1978
   9   2.0000     -10.296396      -280.1792
  10   2.0000     -10.295413      -280.1524
  11   2.0000     -10.293087      -280.0891
  12   2.0000     -10.290467      -280.0179
  13   2.0000     -10.286298      -279.9044
  14   2.0000     -10.285541      -279.8838
  15   2.0000     -10.271189      -279.4933
  16   2.0000      -8.078883      -219.8376
  17   2.0000      -8.076914      -219.7840
  18   2.0000      -6.037498      -164.2887
  19   2.0000      -6.035320      -164.2294
  20   2.0000      -6.033354      -164.1759
  21   2.0000      -6.031567      -164.1273
  22   2.0000      -6.029533      -164.0719
  23   2.0000      -6.027476      -164.0160
  24   2.0000      -1.011317       -27.5193
  25   2.0000      -0.988353       -26.8944
  26   2.0000      -0.913282       -24.8517
  27   2.0000      -0.904148       -24.6031
  28   2.0000      -0.871437       -23.7130
  29   2.0000      -0.852505       -23.1978
  30   2.0000      -0.840432       -22.8693
  31   2.0000      -0.817820       -22.2540
  32   2.0000      -0.784130       -21.3373
  33   2.0000      -0.774268       -21.0689
  34   2.0000      -0.711079       -19.3495
  35   2.0000      -0.697170       -18.9710
  36   2.0000      -0.688312       -18.7299
  37   2.0000      -0.663328       -18.0501
  38   2.0000      -0.636423       -17.3180
  39   2.0000      -0.621223       -16.9043
  40   2.0000      -0.593862       -16.1598
  41   2.0000      -0.573582       -15.6080
  42   2.0000      -0.566872       -15.4254
  43   2.0000      -0.544463       -14.8156
  44   2.0000      -0.540610       -14.7108
  45   2.0000      -0.523048       -14.2329
  46   2.0000      -0.518292       -14.1034
  47   2.0000      -0.510888       -13.9020
  48   2.0000      -0.501769       -13.6538
  49   2.0000      -0.496078       -13.4990
  50   2.0000      -0.489315       -13.3150
  51   2.0000      -0.484682       -13.1889
  52   2.0000      -0.468840       -12.7578
  53   2.0000      -0.465528       -12.6677
  54   2.0000      -0.458546       -12.4777
  55   2.0000      -0.451699       -12.2913
  56   2.0000      -0.445203       -12.1146
  57   2.0000      -0.442147       -12.0314
  58   2.0000      -0.430904       -11.7255
  59   2.0000      -0.429611       -11.6903
  60   2.0000      -0.416685       -11.3386
  61   2.0000      -0.415329       -11.3017
  62   2.0000      -0.400485       -10.8977
  63   2.0000      -0.350688        -9.5427
  64   2.0000      -0.332304        -9.0425
  65   2.0000      -0.327713        -8.9175
  66   2.0000      -0.294574        -8.0158
  67   0.0000       0.030380         0.8267
  68   0.0000       0.074348         2.0231
  69   0.0000       0.110253         3.0001
  70   0.0000       0.118907         3.2356
  71   0.0000       0.129687         3.5290

MULLIKEN ATOMIC CHARGES
-----------------------
   0 S :    0.107437
   1 C :   -0.109349
   2 C :   -0.149115
   3 C :   -0.000465
   4 C :   -0.136394
   5 H :    0.038245
   6 C :    0.072376
   7 H :    0.015926
   8 H :    0.042197
   9 C :   -0.073707
  10 H :    0.025884
  11 H :    0.048002
  12 C :   -0.090942
  13 H :    0.046009
  14 H :    0.031024
  15 H :    0.045027
  16 S :    0.096058
  17 C :   -0.095503
  18 C :   -0.012063
  19 C :   -0.044732
  20 C :   -0.151997
  21 H :    0.005288
  22 C :    0.088225
  23 H :    0.032149
  24 H :    0.014575
  25 C :   -0.095869
  26 H :    0.041824
  27 H :    0.034938
  28 C :   -0.009121
  29 H :    0.009910
  30 H :    0.037802
  31 H :    0.019386
  32 H :    0.060668
  33 H :    0.056303
Sum of atomic charges:   -0.0000000

LOEWDIN ATOMIC CHARGES
----------------------
   0 S :    0.396557
   1 C :   -0.218383
   2 C :   -0.073347
   3 C :   -0.072892
   4 C :   -0.184144
   5 H :    0.041050
   6 C :   -0.036097
   7 H :    0.028457
   8 H :    0.040480
   9 C :   -0.040741
  10 H :    0.018835
  11 H :    0.032946
  12 C :   -0.074378
  13 H :    0.030055
  14 H :    0.027139
  15 H :    0.024847
  16 S :    0.394017
  17 C :   -0.176154
  18 C :   -0.068223
  19 C :   -0.046677
  20 C :   -0.193230
  21 H :    0.028241
  22 C :   -0.025608
  23 H :    0.030317
  24 H :    0.027779
  25 C :   -0.036620
  26 H :    0.032948
  27 H :    0.018640
  28 C :   -0.061160
  29 H :    0.017021
  30 H :    0.032052
  31 H :    0.020255
  32 H :    0.040519
  33 H :    0.025500

  Mayer bond orders larger than 0.100000
B(  0-S ,  1-C ) :   1.1383 B(  0-S ,  4-C ) :   1.1194 B(  1-C ,  2-C ) :   1.6328
B(  1-C , 32-H ) :   0.9508 B(  2-C ,  3-C ) :   1.2333 B(  2-C ,  6-C ) :   1.0398
B(  3-C ,  4-C ) :   1.6196 B(  3-C ,  5-H ) :   0.9722 B(  4-C , 20-C ) :   1.0468
B(  6-C ,  7-H ) :   0.9374 B(  6-C ,  8-H ) :   0.9326 B(  6-C ,  9-C ) :   1.0608
B(  9-C , 10-H ) :   0.9591 B(  9-C , 11-H ) :   0.9588 B(  9-C , 12-C ) :   1.0536
B( 12-C , 13-H ) :   0.9785 B( 12-C , 14-H ) :   0.9798 B( 12-C , 15-H ) :   0.9762
B( 16-S , 17-C ) :   1.1390 B( 16-S , 20-C ) :   1.1259 B( 17-C , 18-C ) :   1.6605
B( 17-C , 33-H ) :   0.9656 B( 18-C , 19-C ) :   1.1869 B( 18-C , 21-H ) :   0.9925
B( 19-C , 20-C ) :   1.6369 B( 19-C , 22-C ) :   1.0361 B( 22-C , 23-H ) :   0.9329
B( 22-C , 24-H ) :   0.9385 B( 22-C , 25-C ) :   1.0535 B( 25-C , 26-H ) :   0.9633
B( 25-C , 27-H ) :   0.9562 B( 25-C , 28-C ) :   1.0817 B( 28-C , 29-H ) :   0.9745
B( 28-C , 30-H ) :   0.9765 B( 28-C , 31-H ) :   0.9733

Dispersion correction           -0.014641656
FINAL SINGLE POINT ENERGY     -1339.866832425327

DIPOLE MOMENT
-------------
                                X             Y             Z
Electronic contribution:     -3.30459      -2.47633     -28.57407
Nuclear contribution   :      3.57543       2.37046      29.09581
                        -----------------------------------------
Total Dipole Moment    :      0.27084      -0.10587       0.52175
                        -----------------------------------------
Magnitude (a.u.)       :      0.59731
Magnitude (Debye)      :      1.51825

Rotational constants in cm-1:     0.018819     0.009266     0.007094
Rotational constants in MHz :   564.167381   277.773364   212.664146

                             ****ORCA TERMINATED NORMALLY****
TOTAL RUN TIME: 0 days 0 hours 0 minutes 22 seconds 17 msec
