                         Program Version 4.2.1 -  RELEASE  -
|  1> ! wB97X-D3 SP def2-SVP
|  2> %pal
|  3> nprocs 24
|  4> end
|  5>
|  6> * xyz 0 1
|  7> S 	 -111.864 	 16.6854 	 -11.572
|  8> C 	 -111.098 	 16.0844 	 -10.1732
|  9> C 	 -112.044 	 15.4296 	 -9.42447
| 10> C 	 -113.358 	 15.4153 	 -9.9572
| 11> C 	 -113.44 	 16.146 	 -11.1164
| 12> H 	 -114.269 	 14.9918 	 -9.61626
| 13> C 	 -111.678 	 14.6362 	 -8.1849
| 14> H 	 -112.417 	 14.8409 	 -7.42479
| 15> H 	 -110.825 	 14.9036 	 -7.61273
| 16> C 	 -111.343 	 13.1304 	 -8.39959
| 17> H 	 -110.297 	 13.0584 	 -8.57422
| 18> H 	 -111.526 	 12.5229 	 -7.51138
| 19> C 	 -112.073 	 12.4612 	 -9.53447
| 20> H 	 -111.997 	 11.3754 	 -9.56746
| 21> H 	 -113.165 	 12.5661 	 -9.35316
| 22> H 	 -111.706 	 12.9875 	 -10.4431
| 23> S 	 -114.441 	 15.8627 	 -13.7238
| 24> C 	 -116.13 	 16.0915 	 -14.0037
| 25> C 	 -116.778 	 16.3214 	 -12.8261
| 26> C 	 -115.951 	 16.3093 	 -11.6389
| 27> C 	 -114.619 	 16.2301 	 -11.9845
| 28> H 	 -117.906 	 16.4117 	 -12.7662
| 29> C 	 -116.568 	 16.3789 	 -10.215
| 30> H 	 -115.826 	 16.4455 	 -9.46409
| 31> H 	 -116.95 	 15.363 	 -10.0537
| 32> C 	 -117.378 	 17.615 	 -9.949
| 33> H 	 -117.451 	 17.5784 	 -8.93796
| 34> H 	 -118.4 	 17.4808 	 -10.3472
| 35> C 	 -116.844 	 18.8976 	 -10.5315
| 36> H 	 -117.48 	 19.7068 	 -10.1871
| 37> H 	 -117.032 	 18.7862 	 -11.5825
| 38> H 	 -115.783 	 18.9732 	 -10.2685
| 39> H 	 -110.048 	 16.1099 	 -9.91202
| 40> H 	 -116.623 	 15.9944 	 -14.9283
| 41> *
| 42>
| 43>                          ****END OF INPUT****

CARTESIAN COORDINATES (ANGSTROEM)
---------------------------------
  S    -111.864000   16.685400  -11.572000
  C    -111.098000   16.084400  -10.173200
  C    -112.044000   15.429600   -9.424470
  C    -113.358000   15.415300   -9.957200
  C    -113.440000   16.146000  -11.116400
  H    -114.269000   14.991800   -9.616260
  C    -111.678000   14.636200   -8.184900
  H    -112.417000   14.840900   -7.424790
  H    -110.825000   14.903600   -7.612730
  C    -111.343000   13.130400   -8.399590
  H    -110.297000   13.058400   -8.574220
  H    -111.526000   12.522900   -7.511380
  C    -112.073000   12.461200   -9.534470
  H    -111.997000   11.375400   -9.567460
  H    -113.165000   12.566100   -9.353160
  H    -111.706000   12.987500  -10.443100
  S    -114.441000   15.862700  -13.723800
  C    -116.130000   16.091500  -14.003700
  C    -116.778000   16.321400  -12.826100
  C    -115.951000   16.309300  -11.638900
  C    -114.619000   16.230100  -11.984500
  H    -117.906000   16.411700  -12.766200
  C    -116.568000   16.378900  -10.215000
  H    -115.826000   16.445500   -9.464090
  H    -116.950000   15.363000  -10.053700
  C    -117.378000   17.615000   -9.949000
  H    -117.451000   17.578400   -8.937960
  H    -118.400000   17.480800  -10.347200
  C    -116.844000   18.897600  -10.531500
  H    -117.480000   19.706800  -10.187100
  H    -117.032000   18.786200  -11.582500
  H    -115.783000   18.973200  -10.268500
  H    -110.048000   16.109900   -9.912020
  H    -116.623000   15.994400  -14.928300

 Total Charge           Charge          ....    0
 Multiplicity           Mult            ....    1
 Number of Electrons    NEL             ....  134
 Basis Dimension        Dim             ....  322

ORBITAL ENERGIES
----------------

  NO   OCC          E(Eh)            E(eV)
   0   2.0000     -88.964995     -2420.8606
   1   2.0000     -88.963606     -2420.8228
   2   2.0000     -10.329051      -281.0678
   3   2.0000     -10.326605      -281.0012
   4   2.0000     -10.313723      -280.6507
   5   2.0000     -10.311232      -280.5829
   6   2.0000     -10.305025      -280.4140
   7   2.0000     -10.299920      -280.2751
   8   2.0000     -10.297314      -280.2042
   9   2.0000     -10.291412      -280.0436
  10   2.0000     -10.289831      -280.0005
  11   2.0000     -10.284091      -279.8443
  12   2.0000     -10.278905      -279.7032
  13   2.0000     -10.274957      -279.5958
  14   2.0000     -10.272261      -279.5224
  15   2.0000     -10.272202      -279.5208
  16   2.0000      -8.080849      -219.8911
  17   2.0000      -8.078402      -219.8245
  18   2.0000      -6.039315      -164.3381
  19   2.0000      -6.037049      -164.2764
  20   2.0000      -6.034983      -164.2202
  21   2.0000      -6.032987      -164.1659
  22   2.0000      -6.031798      -164.1336
  23   2.0000      -6.028911      -164.0550
  24   2.0000      -1.013630       -27.5823
  25   2.0000      -0.989328       -26.9210
  26   2.0000      -0.920409       -25.0456
  27   2.0000      -0.910734       -24.7823
  28   2.0000      -0.874122       -23.7861
  29   2.0000      -0.850411       -23.1409
  30   2.0000      -0.842301       -22.9202
  31   2.0000      -0.816943       -22.2302
  32   2.0000      -0.791974       -21.5507
  33   2.0000      -0.778217       -21.1763
  34   2.0000      -0.707028       -19.2392
  35   2.0000      -0.698532       -19.0080
  36   2.0000      -0.692297       -18.8384
  37   2.0000      -0.657688       -17.8966
  38   2.0000      -0.644914       -17.5490
  39   2.0000      -0.617090       -16.7919
  40   2.0000      -0.602737       -16.4013
  41   2.0000      -0.573956       -15.6181
  42   2.0000      -0.566692       -15.4205
  43   2.0000      -0.555786       -15.1237
  44   2.0000      -0.546650       -14.8751
  45   2.0000      -0.539404       -14.6779
  46   2.0000      -0.519751       -14.1431
  47   2.0000      -0.513778       -13.9806
  48   2.0000      -0.506640       -13.7864
  49   2.0000      -0.495547       -13.4845
  50   2.0000      -0.489719       -13.3259
  51   2.0000      -0.482163       -13.1203
  52   2.0000      -0.480325       -13.0703
  53   2.0000      -0.463874       -12.6226
  54   2.0000      -0.463135       -12.6025
  55   2.0000      -0.450020       -12.2457
  56   2.0000      -0.440331       -11.9820
  57   2.0000      -0.434724       -11.8294
  58   2.0000      -0.426865       -11.6156
  59   2.0000      -0.419320       -11.4103
  60   2.0000      -0.416422       -11.3314
  61   2.0000      -0.407162       -11.0795
  62   2.0000      -0.402627       -10.9560
  63   2.0000      -0.357288        -9.7223
  64   2.0000      -0.330498        -8.9933
  65   2.0000      -0.329330        -8.9615
  66   2.0000      -0.293058        -7.9745
  67   0.0000       0.030996         0.8435
  68   0.0000       0.079316         2.1583
  69   0.0000       0.112840         3.0705
  70   0.0000       0.124713         3.3936
  71   0.0000       0.136516         3.7148

MULLIKEN ATOMIC CHARGES
-----------------------
   0 S :    0.112084
   1 C :   -0.098419
   2 C :   -0.104027
   3 C :    0.036450
   4 C :   -0.154080
   5 H :    0.001233
   6 C :    0.087713
   7 H :    0.017303
   8 H :    0.004878
   9 C :   -0.076082
  10 H :    0.017115
  11 H :    0.021511
  12 C :   -0.057753
  13 H :    0.030978
  14 H :    0.023707
  15 H :    0.057802
  16 S :    0.099853
  17 C :   -0.064923
  18 C :   -0.049781
  19 C :   -0.101780
  20 C :   -0.132625
  21 H :    0.036288
  22 C :    0.068091
  23 H :    0.004615
  24 H :    0.047743
  25 C :   -0.054313
  26 H :    0.002665
  27 H :    0.017750
  28 C :    0.004964
  29 H :    0.036244
  30 H :    0.030221
  31 H :    0.041626
  32 H :    0.050224
  33 H :    0.042726
Sum of atomic charges:   -0.0000000

LOEWDIN ATOMIC CHARGES
----------------------
   0 S :    0.434001
   1 C :   -0.211563
   2 C :   -0.066458
   3 C :   -0.058622
   4 C :   -0.197474
   5 H :    0.026585
   6 C :   -0.037719
   7 H :    0.027658
   8 H :    0.027660
   9 C :   -0.039604
  10 H :    0.015640
  11 H :    0.023948
  12 C :   -0.072253
  13 H :    0.024332
  14 H :    0.025225
  15 H :    0.033757
  16 S :    0.393012
  17 C :   -0.183264
  18 C :   -0.081046
  19 C :   -0.055311
  20 C :   -0.186917
  21 H :    0.038207
  22 C :   -0.031066
  23 H :    0.021999
  24 H :    0.039317
  25 C :   -0.036956
  26 H :    0.009556
  27 H :    0.020814
  28 C :   -0.052156
  29 H :    0.029585
  30 H :    0.027757
  31 H :    0.030886
  32 H :    0.035650
  33 H :    0.024820

  Mayer bond orders larger than 0.100000
B(  0-S ,  1-C ) :   1.1431 B(  0-S ,  4-C ) :   1.1695 B(  1-C ,  2-C ) :   1.5831
B(  1-C , 32-H ) :   0.9756 B(  2-C ,  3-C ) :   1.2424 B(  2-C ,  6-C ) :   1.0369
B(  3-C ,  4-C ) :   1.5467 B(  3-C ,  5-H ) :   0.9986 B(  4-C , 20-C ) :   1.0398
B(  6-C ,  7-H ) :   0.9378 B(  6-C ,  8-H ) :   0.9450 B(  6-C ,  9-C ) :   1.0491
B(  9-C , 10-H ) :   0.9612 B(  9-C , 11-H ) :   0.9533 B(  9-C , 12-C ) :   1.1058
B( 12-C , 13-H ) :   0.9719 B( 12-C , 14-H ) :   0.9716 B( 12-C , 15-H ) :   0.9634
B( 16-S , 17-C ) :   1.1423 B( 16-S , 20-C ) :   1.1295 B( 17-C , 18-C ) :   1.6266
B( 17-C , 33-H ) :   0.9748 B( 18-C , 19-C ) :   1.2292 B( 18-C , 21-H ) :   0.9755
B( 19-C , 20-C ) :   1.6259 B( 19-C , 22-C ) :   1.0315 B( 22-C , 23-H ) :   0.9286
B( 22-C , 24-H ) :   0.9356 B( 22-C , 25-C ) :   1.0554 B( 25-C , 26-H ) :   0.9571
B( 25-C , 27-H ) :   0.9479 B( 25-C , 28-C ) :   1.0897 B( 28-C , 29-H ) :   0.9684
B( 28-C , 30-H ) :   0.9620 B( 28-C , 31-H ) :   0.9744

Dispersion correction           -0.015341692
FINAL SINGLE POINT ENERGY     -1339.862598040422

DIPOLE MOMENT
-------------
                                X             Y             Z
Electronic contribution:      7.37944       5.49533     -18.68219
Nuclear contribution   :     -7.73894      -5.77326      19.23338
                        -----------------------------------------
Total Dipole Moment    :     -0.35950      -0.27793       0.55118
                        -----------------------------------------
Magnitude (a.u.)       :      0.71434
Magnitude (Debye)      :      1.81571

Rotational constants in cm-1:     0.020356     0.008744     0.007759
Rotational constants in MHz :   610.254623   262.150611   232.597813

                             ****ORCA TERMINATED NORMALLY****
TOTAL RUN TIME: 0 days 0 hours 0 minutes 22 seconds 593 msec
