                         Program Version 4.2.1 -  RELEASE  -
|  1> ! wB97X-D3 SP def2-SVP
|  2> %pal
|  3> nprocs 24
|  4> end
|  5>
|  6> * xyz 0 1
|  7> S 	 -60.9532 	 10.1007 	 -95.6216
|  8> C 	 -60.2038 	 10.5816 	 -94.0735
|  9> C 	 -60.4504 	 11.9139 	 -93.7882
| 10> C 	 -61.4668 	 12.3971 	 -94.6497
| 11> C 	 -61.9958 	 11.5097 	 -95.6413
| 12> H 	 -61.9424 	 13.3867 	 -94.5547
| 13> C 	 -59.818 	 12.6502 	 -92.6381
| 14> H 	 -60.0575 	 13.7142 	 -92.762
| 15> H 	 -58.7477 	 12.6173 	 -92.755
| 16> C 	 -60.3339 	 12.2113 	 -91.2427
| 17> H 	 -59.7896 	 11.3078 	 -91.0946
| 18> H 	 -60.0464 	 12.9852 	 -90.5788
| 19> C 	 -61.811 	 12.0028 	 -91.1108
| 20> H 	 -62.1274 	 11.8799 	 -90.0763
| 21> H 	 -62.3156 	 12.8268 	 -91.576
| 22> H 	 -62.211 	 11.1187 	 -91.4895
| 23> S 	 -62.9315 	 12.8243 	 -97.9891
| 24> C 	 -64.6615 	 12.6713 	 -98.3501
| 25> C 	 -65.2418 	 12.0576 	 -97.2892
| 26> C 	 -64.4324 	 11.4861 	 -96.3228
| 27> C 	 -63.0776 	 11.7462 	 -96.6197
| 28> H 	 -66.3459 	 12.0043 	 -97.1637
| 29> C 	 -64.9602 	 10.9211 	 -95.0278
| 30> H 	 -64.1859 	 10.4871 	 -94.4446
| 31> H 	 -65.6196 	 10.0883 	 -95.2942
| 32> C 	 -65.856 	 11.8599 	 -94.2178
| 33> H 	 -66.8439 	 11.9074 	 -94.658
| 34> H 	 -65.5023 	 12.9077 	 -94.1536
| 35> C 	 -66.0664 	 11.5556 	 -92.7472
| 36> H 	 -65.1614 	 11.4511 	 -92.0602
| 37> H 	 -66.7161 	 10.6206 	 -92.6896
| 38> H 	 -66.7813 	 12.249 	 -92.3322
| 39> H 	 -59.3559 	 10.0184 	 -93.7354
| 40> H 	 -65.3127 	 13.2666 	 -99.0328
| 41> *
| 42>
| 43>                          ****END OF INPUT****

CARTESIAN COORDINATES (ANGSTROEM)
---------------------------------
  S    -60.953200   10.100700  -95.621600
  C    -60.203800   10.581600  -94.073500
  C    -60.450400   11.913900  -93.788200
  C    -61.466800   12.397100  -94.649700
  C    -61.995800   11.509700  -95.641300
  H    -61.942400   13.386700  -94.554700
  C    -59.818000   12.650200  -92.638100
  H    -60.057500   13.714200  -92.762000
  H    -58.747700   12.617300  -92.755000
  C    -60.333900   12.211300  -91.242700
  H    -59.789600   11.307800  -91.094600
  H    -60.046400   12.985200  -90.578800
  C    -61.811000   12.002800  -91.110800
  H    -62.127400   11.879900  -90.076300
  H    -62.315600   12.826800  -91.576000
  H    -62.211000   11.118700  -91.489500
  S    -62.931500   12.824300  -97.989100
  C    -64.661500   12.671300  -98.350100
  C    -65.241800   12.057600  -97.289200
  C    -64.432400   11.486100  -96.322800
  C    -63.077600   11.746200  -96.619700
  H    -66.345900   12.004300  -97.163700
  C    -64.960200   10.921100  -95.027800
  H    -64.185900   10.487100  -94.444600
  H    -65.619600   10.088300  -95.294200
  C    -65.856000   11.859900  -94.217800
  H    -66.843900   11.907400  -94.658000
  H    -65.502300   12.907700  -94.153600
  C    -66.066400   11.555600  -92.747200
  H    -65.161400   11.451100  -92.060200
  H    -66.716100   10.620600  -92.689600
  H    -66.781300   12.249000  -92.332200
  H    -59.355900   10.018400  -93.735400
  H    -65.312700   13.266600  -99.032800

 Total Charge           Charge          ....    0
 Multiplicity           Mult            ....    1
 Number of Electrons    NEL             ....  134
 Basis Dimension        Dim             ....  322

ORBITAL ENERGIES
----------------

  NO   OCC          E(Eh)            E(eV)
   0   2.0000     -88.970420     -2421.0082
   1   2.0000     -88.963483     -2420.8194
   2   2.0000     -10.334148      -281.2065
   3   2.0000     -10.329158      -281.0707
   4   2.0000     -10.320145      -280.8254
   5   2.0000     -10.313224      -280.6371
   6   2.0000     -10.301912      -280.3293
   7   2.0000     -10.299496      -280.2635
   8   2.0000     -10.298627      -280.2399
   9   2.0000     -10.292457      -280.0720
  10   2.0000     -10.288866      -279.9743
  11   2.0000     -10.288496      -279.9642
  12   2.0000     -10.287343      -279.9328
  13   2.0000     -10.285521      -279.8833
  14   2.0000     -10.282134      -279.7911
  15   2.0000     -10.267910      -279.4040
  16   2.0000      -8.084296      -219.9849
  17   2.0000      -8.077501      -219.8000
  18   2.0000      -6.042870      -164.4349
  19   2.0000      -6.038983      -164.3291
  20   2.0000      -6.035883      -164.2447
  21   2.0000      -6.034943      -164.2192
  22   2.0000      -6.032051      -164.1404
  23   2.0000      -6.028487      -164.0435
  24   2.0000      -1.004016       -27.3207
  25   2.0000      -0.982851       -26.7447
  26   2.0000      -0.916345       -24.9350
  27   2.0000      -0.911070       -24.7915
  28   2.0000      -0.867722       -23.6119
  29   2.0000      -0.853324       -23.2201
  30   2.0000      -0.843817       -22.9614
  31   2.0000      -0.810552       -22.0562
  32   2.0000      -0.789748       -21.4901
  33   2.0000      -0.774645       -21.0792
  34   2.0000      -0.706923       -19.2364
  35   2.0000      -0.702117       -19.1056
  36   2.0000      -0.694763       -18.9055
  37   2.0000      -0.651077       -17.7167
  38   2.0000      -0.637654       -17.3515
  39   2.0000      -0.610007       -16.5991
  40   2.0000      -0.596667       -16.2361
  41   2.0000      -0.580809       -15.8046
  42   2.0000      -0.566998       -15.4288
  43   2.0000      -0.559218       -15.2171
  44   2.0000      -0.542161       -14.7529
  45   2.0000      -0.525774       -14.3070
  46   2.0000      -0.512155       -13.9365
  47   2.0000      -0.509497       -13.8641
  48   2.0000      -0.506239       -13.7755
  49   2.0000      -0.500360       -13.6155
  50   2.0000      -0.484858       -13.1937
  51   2.0000      -0.474931       -12.9235
  52   2.0000      -0.474005       -12.8983
  53   2.0000      -0.466184       -12.6855
  54   2.0000      -0.456298       -12.4165
  55   2.0000      -0.454506       -12.3677
  56   2.0000      -0.447048       -12.1648
  57   2.0000      -0.432366       -11.7653
  58   2.0000      -0.430784       -11.7222
  59   2.0000      -0.429259       -11.6807
  60   2.0000      -0.420305       -11.4371
  61   2.0000      -0.413487       -11.2516
  62   2.0000      -0.405756       -11.0412
  63   2.0000      -0.336518        -9.1571
  64   2.0000      -0.328452        -8.9376
  65   2.0000      -0.318835        -8.6759
  66   2.0000      -0.308058        -8.3827
  67   0.0000       0.034925         0.9503
  68   0.0000       0.044880         1.2213
  69   0.0000       0.105745         2.8775
  70   0.0000       0.115996         3.1564
  71   0.0000       0.124910         3.3990

MULLIKEN ATOMIC CHARGES
-----------------------
   0 S :    0.103316
   1 C :   -0.129064
   2 C :   -0.098288
   3 C :    0.028117
   4 C :   -0.206438
   5 H :    0.015733
   6 C :    0.064053
   7 H :    0.012803
   8 H :    0.035351
   9 C :   -0.034694
  10 H :    0.021896
  11 H :    0.028388
  12 C :   -0.010983
  13 H :    0.026320
  14 H :    0.019654
  15 H :    0.018228
  16 S :    0.119780
  17 C :   -0.091219
  18 C :   -0.059320
  19 C :   -0.034609
  20 C :   -0.160853
  21 H :    0.024139
  22 C :    0.148124
  23 H :    0.020480
  24 H :    0.023966
  25 C :   -0.095462
  26 H :    0.024752
  27 H :    0.034605
  28 C :   -0.084193
  29 H :    0.061077
  30 H :    0.020903
  31 H :    0.027903
  32 H :    0.051033
  33 H :    0.074502
Sum of atomic charges:    0.0000000

LOEWDIN ATOMIC CHARGES
----------------------
   0 S :    0.397524
   1 C :   -0.187118
   2 C :   -0.064958
   3 C :   -0.065686
   4 C :   -0.199981
   5 H :    0.029468
   6 C :   -0.030264
   7 H :    0.027903
   8 H :    0.032262
   9 C :   -0.027791
  10 H :    0.020283
  11 H :    0.023510
  12 C :   -0.060971
  13 H :    0.030888
  14 H :    0.023509
  15 H :    0.018957
  16 S :    0.410091
  17 C :   -0.193833
  18 C :   -0.076291
  19 C :   -0.050085
  20 C :   -0.211574
  21 H :    0.033974
  22 C :   -0.025644
  23 H :    0.027325
  24 H :    0.037290
  25 C :   -0.045969
  26 H :    0.023466
  27 H :    0.026647
  28 C :   -0.075939
  29 H :    0.034240
  30 H :    0.026217
  31 H :    0.025355
  32 H :    0.021084
  33 H :    0.046111

  Mayer bond orders larger than 0.100000
B(  0-S ,  1-C ) :   1.1593 B(  0-S ,  4-C ) :   1.1596 B(  1-C ,  2-C ) :   1.5656
B(  1-C ,  4-C ) :   0.1149 B(  1-C , 32-H ) :   0.9688 B(  2-C ,  3-C ) :   1.2770
B(  2-C ,  6-C ) :   1.0264 B(  3-C ,  4-C ) :   1.5482 B(  3-C ,  5-H ) :   0.9875
B(  4-C , 20-C ) :   1.0267 B(  6-C ,  7-H ) :   0.9351 B(  6-C ,  8-H ) :   0.9415
B(  6-C ,  9-C ) :   1.0662 B(  9-C , 10-H ) :   0.9543 B(  9-C , 11-H ) :   0.9564
B(  9-C , 12-C ) :   1.0947 B( 12-C , 13-H ) :   0.9681 B( 12-C , 14-H ) :   0.9743
B( 12-C , 15-H ) :   0.9647 B( 16-S , 17-C ) :   1.1441 B( 16-S , 20-C ) :   1.1606
B( 17-C , 18-C ) :   1.6008 B( 17-C , 20-C ) :   0.1007 B( 17-C , 33-H ) :   0.9582
B( 18-C , 19-C ) :   1.3026 B( 18-C , 21-H ) :   0.9740 B( 19-C , 20-C ) :   1.5454
B( 19-C , 22-C ) :   1.0573 B( 22-C , 23-H ) :   0.9286 B( 22-C , 24-H ) :   0.9194
B( 22-C , 25-C ) :   1.0532 B( 25-C , 26-H ) :   0.9457 B( 25-C , 27-H ) :   0.9619
B( 25-C , 28-C ) :   1.1013 B( 28-C , 29-H ) :   0.9722 B( 28-C , 30-H ) :   0.9701
B( 28-C , 31-H ) :   0.9700

Dispersion correction           -0.015504943
FINAL SINGLE POINT ENERGY     -1339.859610436113

DIPOLE MOMENT
-------------
                                X             Y             Z
Electronic contribution:     10.00035      -2.93249     -27.86237
Nuclear contribution   :    -10.33670       3.30108      28.53429
                        -----------------------------------------
Total Dipole Moment    :     -0.33635       0.36858       0.67192
                        -----------------------------------------
Magnitude (a.u.)       :      0.83693
Magnitude (Debye)      :      2.12732

Rotational constants in cm-1:     0.017780     0.009781     0.007406
Rotational constants in MHz :   533.027380   293.237441   222.023451

                             ****ORCA TERMINATED NORMALLY****
TOTAL RUN TIME: 0 days 0 hours 0 minutes 22 seconds 564 msec
