                         Program Version 4.2.1 -  RELEASE  -
|  1> ! wB97X-D3 SP def2-SVP
|  2> %pal
|  3> nprocs 24
|  4> end
|  5>
|  6> * xyz 0 1
|  7> S 	 -36.2228 	 5.441 	 -5.69455
|  8> C 	 -35.6976 	 3.78665 	 -5.96253
|  9> C 	 -35.3758 	 3.12466 	 -4.77164
| 10> C 	 -35.4381 	 4.04183 	 -3.67167
| 11> C 	 -35.8092 	 5.32334 	 -4.0253
| 12> H 	 -35.2886 	 3.75772 	 -2.66007
| 13> C 	 -35.0268 	 1.64322 	 -4.72992
| 14> H 	 -34.8593 	 1.23908 	 -5.73654
| 15> H 	 -35.8548 	 0.99185 	 -4.49138
| 16> C 	 -33.7392 	 1.22354 	 -4.02906
| 17> H 	 -33.0207 	 1.97382 	 -4.29941
| 18> H 	 -33.7585 	 1.25745 	 -3.00952
| 19> C 	 -33.1783 	 -0.217426 	 -4.31584
| 20> H 	 -33.9062 	 -0.963861 	 -3.89631
| 21> H 	 -32.984 	 -0.325953 	 -5.40741
| 22> H 	 -32.2235 	 -0.260632 	 -3.78055
| 23> S 	 -36.9399 	 7.79409 	 -3.33885
| 24> C 	 -36.5365 	 8.61308 	 -1.91416
| 25> C 	 -35.5641 	 7.95278 	 -1.2979
| 26> C 	 -35.0263 	 6.82536 	 -2.01164
| 27> C 	 -35.7547 	 6.51971 	 -3.13537
| 28> H 	 -35.1528 	 8.29603 	 -0.395715
| 29> C 	 -33.793 	 5.97005 	 -1.51529
| 30> H 	 -34.0691 	 4.91201 	 -1.47462
| 31> H 	 -33.8034 	 6.13462 	 -0.436545
| 32> C 	 -32.4069 	 6.33955 	 -1.95713
| 33> H 	 -31.6887 	 5.78726 	 -1.33978
| 34> H 	 -32.2973 	 7.36444 	 -1.74418
| 35> C 	 -32.233 	 6.04593 	 -3.50535
| 36> H 	 -32.4177 	 4.97127 	 -3.69608
| 37> H 	 -31.2782 	 6.16177 	 -3.88964
| 38> H 	 -32.9221 	 6.67344 	 -4.07144
| 39> H 	 -35.6395 	 3.31931 	 -6.97295
| 40> H 	 -36.86 	 9.55395 	 -1.59115
| 41> *
| 42>
| 43>                          ****END OF INPUT****

CARTESIAN COORDINATES (ANGSTROEM)
---------------------------------
  S    -36.222800    5.441000   -5.694550
  C    -35.697600    3.786650   -5.962530
  C    -35.375800    3.124660   -4.771640
  C    -35.438100    4.041830   -3.671670
  C    -35.809200    5.323340   -4.025300
  H    -35.288600    3.757720   -2.660070
  C    -35.026800    1.643220   -4.729920
  H    -34.859300    1.239080   -5.736540
  H    -35.854800    0.991850   -4.491380
  C    -33.739200    1.223540   -4.029060
  H    -33.020700    1.973820   -4.299410
  H    -33.758500    1.257450   -3.009520
  C    -33.178300   -0.217426   -4.315840
  H    -33.906200   -0.963861   -3.896310
  H    -32.984000   -0.325953   -5.407410
  H    -32.223500   -0.260632   -3.780550
  S    -36.939900    7.794090   -3.338850
  C    -36.536500    8.613080   -1.914160
  C    -35.564100    7.952780   -1.297900
  C    -35.026300    6.825360   -2.011640
  C    -35.754700    6.519710   -3.135370
  H    -35.152800    8.296030   -0.395715
  C    -33.793000    5.970050   -1.515290
  H    -34.069100    4.912010   -1.474620
  H    -33.803400    6.134620   -0.436545
  C    -32.406900    6.339550   -1.957130
  H    -31.688700    5.787260   -1.339780
  H    -32.297300    7.364440   -1.744180
  C    -32.233000    6.045930   -3.505350
  H    -32.417700    4.971270   -3.696080
  H    -31.278200    6.161770   -3.889640
  H    -32.922100    6.673440   -4.071440
  H    -35.639500    3.319310   -6.972950
  H    -36.860000    9.553950   -1.591150

 Total Charge           Charge          ....    0
 Multiplicity           Mult            ....    1
 Number of Electrons    NEL             ....  134
 Basis Dimension        Dim             ....  322

ORBITAL ENERGIES
----------------

  NO   OCC          E(Eh)            E(eV)
   0   2.0000     -88.970128     -2421.0003
   1   2.0000     -88.958803     -2420.6921
   2   2.0000     -10.332591      -281.1641
   3   2.0000     -10.328683      -281.0577
   4   2.0000     -10.320224      -280.8276
   5   2.0000     -10.307642      -280.4852
   6   2.0000     -10.305705      -280.4325
   7   2.0000     -10.303617      -280.3757
   8   2.0000     -10.294191      -280.1192
   9   2.0000     -10.293608      -280.1033
  10   2.0000     -10.290524      -280.0194
  11   2.0000     -10.290407      -280.0162
  12   2.0000     -10.284497      -279.8554
  13   2.0000     -10.284038      -279.8429
  14   2.0000     -10.278857      -279.7019
  15   2.0000     -10.267386      -279.3898
  16   2.0000      -8.085120      -220.0073
  17   2.0000      -8.075114      -219.7350
  18   2.0000      -6.043549      -164.4533
  19   2.0000      -6.039655      -164.3474
  20   2.0000      -6.035890      -164.2449
  21   2.0000      -6.033650      -164.1840
  22   2.0000      -6.029264      -164.0646
  23   2.0000      -6.025883      -163.9726
  24   2.0000      -1.012805       -27.5598
  25   2.0000      -0.991317       -26.9751
  26   2.0000      -0.912170       -24.8214
  27   2.0000      -0.905395       -24.6370
  28   2.0000      -0.870577       -23.6896
  29   2.0000      -0.851198       -23.1623
  30   2.0000      -0.839389       -22.8409
  31   2.0000      -0.819020       -22.2867
  32   2.0000      -0.783920       -21.3316
  33   2.0000      -0.776819       -21.1383
  34   2.0000      -0.711164       -19.3518
  35   2.0000      -0.699345       -19.0301
  36   2.0000      -0.692218       -18.8362
  37   2.0000      -0.661748       -18.0071
  38   2.0000      -0.643128       -17.5004
  39   2.0000      -0.627976       -17.0881
  40   2.0000      -0.598682       -16.2910
  41   2.0000      -0.574869       -15.6430
  42   2.0000      -0.567720       -15.4485
  43   2.0000      -0.551630       -15.0106
  44   2.0000      -0.539136       -14.6706
  45   2.0000      -0.523491       -14.2449
  46   2.0000      -0.515234       -14.0202
  47   2.0000      -0.510530       -13.8922
  48   2.0000      -0.501441       -13.6449
  49   2.0000      -0.497784       -13.5454
  50   2.0000      -0.490640       -13.3510
  51   2.0000      -0.478706       -13.0262
  52   2.0000      -0.476050       -12.9540
  53   2.0000      -0.472256       -12.8507
  54   2.0000      -0.459229       -12.4962
  55   2.0000      -0.453272       -12.3342
  56   2.0000      -0.440317       -11.9816
  57   2.0000      -0.437074       -11.8934
  58   2.0000      -0.431966       -11.7544
  59   2.0000      -0.427866       -11.6428
  60   2.0000      -0.419586       -11.4175
  61   2.0000      -0.413310       -11.2467
  62   2.0000      -0.401400       -10.9226
  63   2.0000      -0.357904        -9.7391
  64   2.0000      -0.335565        -9.1312
  65   2.0000      -0.328338        -8.9345
  66   2.0000      -0.290466        -7.9040
  67   0.0000       0.026027         0.7082
  68   0.0000       0.083039         2.2596
  69   0.0000       0.107604         2.9281
  70   0.0000       0.122842         3.3427
  71   0.0000       0.132440         3.6039

MULLIKEN ATOMIC CHARGES
-----------------------
   0 S :    0.121063
   1 C :   -0.141202
   2 C :   -0.070330
   3 C :    0.010638
   4 C :   -0.102014
   5 H :    0.002673
   6 C :    0.090863
   7 H :   -0.001337
   8 H :    0.030385
   9 C :   -0.083332
  10 H :    0.027254
  11 H :    0.007449
  12 C :   -0.081154
  13 H :    0.049808
  14 H :    0.043284
  15 H :    0.042793
  16 S :    0.081737
  17 C :   -0.034149
  18 C :   -0.017774
  19 C :   -0.099387
  20 C :   -0.116012
  21 H :   -0.009236
  22 C :    0.043297
  23 H :    0.016937
  24 H :    0.000992
  25 C :   -0.004350
  26 H :    0.029692
  27 H :    0.014351
  28 C :   -0.037262
  29 H :    0.027372
  30 H :    0.012067
  31 H :    0.045404
  32 H :    0.064956
  33 H :    0.034522
Sum of atomic charges:   -0.0000000

LOEWDIN ATOMIC CHARGES
----------------------
   0 S :    0.417747
   1 C :   -0.196677
   2 C :   -0.058583
   3 C :   -0.056648
   4 C :   -0.195053
   5 H :    0.024542
   6 C :   -0.037868
   7 H :    0.032387
   8 H :    0.031083
   9 C :   -0.041664
  10 H :    0.023306
  11 H :    0.006994
  12 C :   -0.063819
  13 H :    0.031816
  14 H :    0.026240
  15 H :    0.030788
  16 S :    0.412509
  17 C :   -0.189056
  18 C :   -0.071101
  19 C :   -0.062114
  20 C :   -0.190990
  21 H :    0.020839
  22 C :   -0.036134
  23 H :    0.025718
  24 H :    0.028980
  25 C :   -0.028279
  26 H :    0.027158
  27 H :    0.018673
  28 C :   -0.061661
  29 H :    0.028160
  30 H :    0.011251
  31 H :    0.029463
  32 H :    0.035916
  33 H :    0.026077

  Mayer bond orders larger than 0.100000
B(  0-S ,  1-C ) :   1.1455 B(  0-S ,  4-C ) :   1.1619 B(  1-C ,  2-C ) :   1.6011
B(  1-C , 32-H ) :   0.9616 B(  2-C ,  3-C ) :   1.2464 B(  2-C ,  6-C ) :   1.0318
B(  3-C ,  4-C ) :   1.5612 B(  3-C ,  5-H ) :   1.0057 B(  4-C , 20-C ) :   1.0239
B(  6-C ,  7-H ) :   0.9357 B(  6-C ,  8-H ) :   0.9318 B(  6-C ,  9-C ) :   1.0501
B(  9-C , 10-H ) :   0.9578 B(  9-C , 11-H ) :   0.9523 B(  9-C , 12-C ) :   1.0895
B( 12-C , 13-H ) :   0.9756 B( 12-C , 14-H ) :   0.9755 B( 12-C , 15-H ) :   0.9749
B( 16-S , 17-C ) :   1.1536 B( 16-S , 20-C ) :   1.1352 B( 17-C , 18-C ) :   1.6072
B( 17-C , 33-H ) :   0.9731 B( 18-C , 19-C ) :   1.2648 B( 18-C , 21-H ) :   0.9973
B( 19-C , 20-C ) :   1.6112 B( 19-C , 22-C ) :   1.0092 B( 22-C , 23-H ) :   0.9432
B( 22-C , 24-H ) :   0.9228 B( 22-C , 25-C ) :   1.0817 B( 25-C , 26-H ) :   0.9516
B( 25-C , 27-H ) :   0.9502 B( 25-C , 28-C ) :   1.0735 B( 28-C , 29-H ) :   0.9744
B( 28-C , 30-H ) :   0.9765 B( 28-C , 31-H ) :   0.9754

Dispersion correction           -0.015199369
FINAL SINGLE POINT ENERGY     -1339.866354053933

DIPOLE MOMENT
-------------
                                X             Y             Z
Electronic contribution:    -21.97718      21.05455      -5.90021
Nuclear contribution   :     22.46596     -21.47195       6.27333
                        -----------------------------------------
Total Dipole Moment    :      0.48878      -0.41740       0.37312
                        -----------------------------------------
Magnitude (a.u.)       :      0.74320
Magnitude (Debye)      :      1.88907

Rotational constants in cm-1:     0.021028     0.008682     0.006920
Rotational constants in MHz :   630.413099   260.276965   207.460142

                             ****ORCA TERMINATED NORMALLY****
TOTAL RUN TIME: 0 days 0 hours 0 minutes 22 seconds 350 msec
