                         Program Version 4.2.1 -  RELEASE  -
|  1> ! wB97X-D3 SP def2-SVP
|  2> %pal
|  3> nprocs 24
|  4> end
|  5>
|  6> * xyz 0 1
|  7> S 	 -45.1075 	 12.8964 	 21.804
|  8> C 	 -44.4131 	 14.4999 	 21.6362
|  9> C 	 -44.0512 	 15.0562 	 22.8374
| 10> C 	 -44.297 	 14.2009 	 23.8993
| 11> C 	 -45.0014 	 13.0592 	 23.5569
| 12> H 	 -44.0458 	 14.4121 	 24.9299
| 13> C 	 -43.1287 	 16.3103 	 22.9999
| 14> H 	 -42.8624 	 16.4551 	 24.0853
| 15> H 	 -43.767 	 17.0635 	 22.5678
| 16> C 	 -41.8912 	 16.2589 	 22.1073
| 17> H 	 -42.1458 	 16.1318 	 21.0289
| 18> H 	 -41.3629 	 17.2068 	 22.1126
| 19> C 	 -40.8818 	 15.285 	 22.5346
| 20> H 	 -39.9544 	 15.2488 	 22.0053
| 21> H 	 -40.63 	 15.4846 	 23.5663
| 22> H 	 -41.3259 	 14.3059 	 22.4442
| 23> S 	 -44.5303 	 10.3631 	 23.979
| 24> C 	 -45.1579 	 9.60533 	 25.3676
| 25> C 	 -46.0862 	 10.3872 	 25.9742
| 26> C 	 -46.1197 	 11.7551 	 25.5361
| 27> C 	 -45.2789 	 11.916 	 24.4326
| 28> H 	 -46.6271 	 9.93042 	 26.8047
| 29> C 	 -46.9302 	 12.948 	 26.1279
| 30> H 	 -46.8761 	 13.8227 	 25.4847
| 31> H 	 -46.5667 	 13.269 	 27.1625
| 32> C 	 -48.3718 	 12.6584 	 26.2896
| 33> H 	 -48.3996 	 11.8505 	 27.0274
| 34> H 	 -48.7855 	 12.3138 	 25.3372
| 35> C 	 -49.2936 	 13.7907 	 26.7532
| 36> H 	 -49.5535 	 14.4828 	 25.9406
| 37> H 	 -48.852 	 14.3613 	 27.554
| 38> H 	 -50.2638 	 13.3327 	 27.0774
| 39> H 	 -44.4184 	 14.983 	 20.6284
| 40> H 	 -44.8573 	 8.65856 	 25.7081
| 41> *
| 42>
| 43>                          ****END OF INPUT****

CARTESIAN COORDINATES (ANGSTROEM)
---------------------------------
  S    -45.107500   12.896400   21.804000
  C    -44.413100   14.499900   21.636200
  C    -44.051200   15.056200   22.837400
  C    -44.297000   14.200900   23.899300
  C    -45.001400   13.059200   23.556900
  H    -44.045800   14.412100   24.929900
  C    -43.128700   16.310300   22.999900
  H    -42.862400   16.455100   24.085300
  H    -43.767000   17.063500   22.567800
  C    -41.891200   16.258900   22.107300
  H    -42.145800   16.131800   21.028900
  H    -41.362900   17.206800   22.112600
  C    -40.881800   15.285000   22.534600
  H    -39.954400   15.248800   22.005300
  H    -40.630000   15.484600   23.566300
  H    -41.325900   14.305900   22.444200
  S    -44.530300   10.363100   23.979000
  C    -45.157900    9.605330   25.367600
  C    -46.086200   10.387200   25.974200
  C    -46.119700   11.755100   25.536100
  C    -45.278900   11.916000   24.432600
  H    -46.627100    9.930420   26.804700
  C    -46.930200   12.948000   26.127900
  H    -46.876100   13.822700   25.484700
  H    -46.566700   13.269000   27.162500
  C    -48.371800   12.658400   26.289600
  H    -48.399600   11.850500   27.027400
  H    -48.785500   12.313800   25.337200
  C    -49.293600   13.790700   26.753200
  H    -49.553500   14.482800   25.940600
  H    -48.852000   14.361300   27.554000
  H    -50.263800   13.332700   27.077400
  H    -44.418400   14.983000   20.628400
  H    -44.857300    8.658560   25.708100

 Total Charge           Charge          ....    0
 Multiplicity           Mult            ....    1
 Number of Electrons    NEL             ....  134
 Basis Dimension        Dim             ....  322

ORBITAL ENERGIES
----------------

  NO   OCC          E(Eh)            E(eV)
   0   2.0000     -88.968261     -2420.9495
   1   2.0000     -88.960874     -2420.7484
   2   2.0000     -10.328551      -281.0542
   3   2.0000     -10.327775      -281.0331
   4   2.0000     -10.316182      -280.7176
   5   2.0000     -10.309671      -280.5404
   6   2.0000     -10.308720      -280.5145
   7   2.0000     -10.298974      -280.2493
   8   2.0000     -10.297774      -280.2167
   9   2.0000     -10.294767      -280.1349
  10   2.0000     -10.292886      -280.0837
  11   2.0000     -10.289948      -280.0037
  12   2.0000     -10.281453      -279.7725
  13   2.0000     -10.279520      -279.7200
  14   2.0000     -10.279015      -279.7062
  15   2.0000     -10.262474      -279.2561
  16   2.0000      -8.082719      -219.9420
  17   2.0000      -8.076451      -219.7714
  18   2.0000      -6.041109      -164.3869
  19   2.0000      -6.037362      -164.2850
  20   2.0000      -6.034925      -164.2186
  21   2.0000      -6.033530      -164.1807
  22   2.0000      -6.030850      -164.1078
  23   2.0000      -6.027180      -164.0079
  24   2.0000      -1.007674       -27.4202
  25   2.0000      -0.987566       -26.8730
  26   2.0000      -0.916016       -24.9261
  27   2.0000      -0.912796       -24.8384
  28   2.0000      -0.869339       -23.6559
  29   2.0000      -0.854041       -23.2396
  30   2.0000      -0.844697       -22.9854
  31   2.0000      -0.812847       -22.1187
  32   2.0000      -0.785238       -21.3674
  33   2.0000      -0.773589       -21.0504
  34   2.0000      -0.702127       -19.1059
  35   2.0000      -0.694889       -18.9089
  36   2.0000      -0.690000       -18.7758
  37   2.0000      -0.651676       -17.7330
  38   2.0000      -0.638229       -17.3671
  39   2.0000      -0.616263       -16.7694
  40   2.0000      -0.599776       -16.3207
  41   2.0000      -0.575772       -15.6676
  42   2.0000      -0.572895       -15.5893
  43   2.0000      -0.559254       -15.2181
  44   2.0000      -0.541668       -14.7395
  45   2.0000      -0.521688       -14.1959
  46   2.0000      -0.515819       -14.0361
  47   2.0000      -0.512699       -13.9512
  48   2.0000      -0.503089       -13.6898
  49   2.0000      -0.494678       -13.4609
  50   2.0000      -0.481791       -13.1102
  51   2.0000      -0.480259       -13.0685
  52   2.0000      -0.474983       -12.9249
  53   2.0000      -0.467677       -12.7261
  54   2.0000      -0.461669       -12.5626
  55   2.0000      -0.450013       -12.2455
  56   2.0000      -0.441880       -12.0242
  57   2.0000      -0.439082       -11.9480
  58   2.0000      -0.428844       -11.6694
  59   2.0000      -0.426163       -11.5965
  60   2.0000      -0.418233       -11.3807
  61   2.0000      -0.410357       -11.1664
  62   2.0000      -0.405010       -11.0209
  63   2.0000      -0.345778        -9.4091
  64   2.0000      -0.335455        -9.1282
  65   2.0000      -0.330052        -8.9812
  66   2.0000      -0.289968        -7.8904
  67   0.0000       0.033289         0.9059
  68   0.0000       0.059511         1.6194
  69   0.0000       0.111025         3.0211
  70   0.0000       0.126485         3.4418
  71   0.0000       0.134634         3.6636

MULLIKEN ATOMIC CHARGES
-----------------------
   0 S :    0.110661
   1 C :   -0.170387
   2 C :   -0.065491
   3 C :    0.026690
   4 C :   -0.160511
   5 H :    0.013696
   6 C :    0.081566
   7 H :    0.038114
   8 H :    0.032326
   9 C :   -0.081647
  10 H :    0.025356
  11 H :    0.019399
  12 C :   -0.018759
  13 H :    0.026924
  14 H :    0.013195
  15 H :    0.032526
  16 S :    0.101346
  17 C :   -0.072951
  18 C :   -0.044630
  19 C :   -0.001436
  20 C :   -0.177182
  21 H :    0.021287
  22 C :    0.083578
  23 H :    0.023440
  24 H :    0.035455
  25 C :   -0.119573
  26 H :    0.025075
  27 H :    0.031815
  28 C :   -0.041452
  29 H :    0.037360
  30 H :    0.024072
  31 H :    0.041004
  32 H :    0.070376
  33 H :    0.038759
Sum of atomic charges:   -0.0000000

LOEWDIN ATOMIC CHARGES
----------------------
   0 S :    0.402635
   1 C :   -0.201603
   2 C :   -0.070717
   3 C :   -0.060007
   4 C :   -0.191566
   5 H :    0.032378
   6 C :   -0.021070
   7 H :    0.035808
   8 H :    0.035115
   9 C :   -0.048511
  10 H :    0.025150
  11 H :    0.022002
  12 C :   -0.062767
  13 H :    0.023240
  14 H :    0.021966
  15 H :    0.025776
  16 S :    0.402645
  17 C :   -0.186775
  18 C :   -0.076133
  19 C :   -0.050661
  20 C :   -0.186723
  21 H :    0.031927
  22 C :   -0.032041
  23 H :    0.027406
  24 H :    0.035046
  25 C :   -0.049717
  26 H :    0.019829
  27 H :    0.026064
  28 C :   -0.065364
  29 H :    0.026880
  30 H :    0.019380
  31 H :    0.034824
  32 H :    0.033968
  33 H :    0.021617

  Mayer bond orders larger than 0.100000
B(  0-S ,  1-C ) :   1.1502 B(  0-S ,  4-C ) :   1.1602 B(  1-C ,  2-C ) :   1.5816
B(  1-C ,  4-C ) :   0.1045 B(  1-C , 32-H ) :   0.9602 B(  2-C ,  3-C ) :   1.2772
B(  2-C ,  6-C ) :   1.0000 B(  3-C ,  4-C ) :   1.5540 B(  3-C ,  5-H ) :   0.9924
B(  4-C , 20-C ) :   1.0345 B(  6-C ,  7-H ) :   0.9515 B(  6-C ,  8-H ) :   0.9247
B(  6-C ,  9-C ) :   1.0884 B(  9-C , 10-H ) :   0.9471 B(  9-C , 11-H ) :   0.9512
B(  9-C , 12-C ) :   1.0839 B( 12-C , 13-H ) :   0.9708 B( 12-C , 14-H ) :   0.9697
B( 12-C , 15-H ) :   0.9745 B( 16-S , 17-C ) :   1.1560 B( 16-S , 20-C ) :   1.1437
B( 17-C , 18-C ) :   1.6245 B( 17-C , 33-H ) :   0.9737 B( 18-C , 19-C ) :   1.2163
B( 18-C , 21-H ) :   0.9892 B( 19-C , 20-C ) :   1.6080 B( 19-C , 22-C ) :   1.0339
B( 22-C , 23-H ) :   0.9351 B( 22-C , 24-H ) :   0.9320 B( 22-C , 25-C ) :   1.0698
B( 25-C , 26-H ) :   0.9558 B( 25-C , 27-H ) :   0.9544 B( 25-C , 28-C ) :   1.0897
B( 28-C , 29-H ) :   0.9745 B( 28-C , 30-H ) :   0.9726 B( 28-C , 31-H ) :   0.9734

Dispersion correction           -0.013904327
FINAL SINGLE POINT ENERGY     -1339.877605571282

DIPOLE MOMENT
-------------
                                X             Y             Z
Electronic contribution:      1.22884     -17.80319      -9.49160
Nuclear contribution   :     -1.18874      18.16885       9.80841
                        -----------------------------------------
Total Dipole Moment    :      0.04011       0.36566       0.31681
                        -----------------------------------------
Magnitude (a.u.)       :      0.48548
Magnitude (Debye)      :      1.23398

Rotational constants in cm-1:     0.019492     0.008032     0.006672
Rotational constants in MHz :   584.342879   240.792201   200.016444

                             ****ORCA TERMINATED NORMALLY****
TOTAL RUN TIME: 0 days 0 hours 0 minutes 21 seconds 300 msec
