                         Program Version 4.2.1 -  RELEASE  -
|  1> ! wB97X-D3 SP def2-SVP
|  2> %pal
|  3> nprocs 24
|  4> end
|  5>
|  6> * xyz 0 1
|  7> S 	 -76.1172 	 -0.866319 	 -69.8639
|  8> C 	 -74.6791 	 0.0662412 	 -70.2268
|  9> C 	 -74.5329 	 1.14342 	 -69.3913
| 10> C 	 -75.593 	 1.20922 	 -68.4434
| 11> C 	 -76.5098 	 0.200167 	 -68.5514
| 12> H 	 -75.7833 	 1.97935 	 -67.7036
| 13> C 	 -73.3768 	 2.07392 	 -69.3985
| 14> H 	 -73.0342 	 2.26025 	 -70.4499
| 15> H 	 -72.6234 	 1.60526 	 -68.8649
| 16> C 	 -73.5393 	 3.48039 	 -68.8687
| 17> H 	 -74.1663 	 4.01677 	 -69.6755
| 18> H 	 -74.044 	 3.54436 	 -67.936
| 19> C 	 -72.1925 	 4.24983 	 -68.7788
| 20> H 	 -71.4625 	 3.6853 	 -68.2645
| 21> H 	 -71.806 	 4.40986 	 -69.8101
| 22> H 	 -72.3307 	 5.21472 	 -68.3282
| 23> S 	 -78.0447 	 -1.39715 	 -67.0006
| 24> C 	 -79.4053 	 -0.610455 	 -66.2277
| 25> C 	 -79.6532 	 0.692079 	 -66.591
| 26> C 	 -78.7068 	 1.11821 	 -67.5997
| 27> C 	 -77.7308 	 0.07815 	 -67.7837
| 28> H 	 -80.4285 	 1.18561 	 -66.1559
| 29> C 	 -78.681 	 2.54994 	 -68.1795
| 30> H 	 -79.7469 	 2.67054 	 -68.5089
| 31> H 	 -78.065 	 2.60024 	 -69.0719
| 32> C 	 -78.2024 	 3.71177 	 -67.2491
| 33> H 	 -77.6512 	 4.45664 	 -67.9093
| 34> H 	 -77.4345 	 3.31749 	 -66.6669
| 35> C 	 -79.2505 	 4.3372 	 -66.3405
| 36> H 	 -80.075 	 3.63852 	 -66.0636
| 37> H 	 -79.7011 	 5.29762 	 -66.7098
| 38> H 	 -78.7878 	 4.61098 	 -65.3551
| 39> H 	 -73.9716 	 -0.0138053 	 -71.0655
| 40> H 	 -79.8957 	 -1.10253 	 -65.4438
| 41> *
| 42>
| 43>                          ****END OF INPUT****

CARTESIAN COORDINATES (ANGSTROEM)
---------------------------------
  S    -76.117200   -0.866319  -69.863900
  C    -74.679100    0.066241  -70.226800
  C    -74.532900    1.143420  -69.391300
  C    -75.593000    1.209220  -68.443400
  C    -76.509800    0.200167  -68.551400
  H    -75.783300    1.979350  -67.703600
  C    -73.376800    2.073920  -69.398500
  H    -73.034200    2.260250  -70.449900
  H    -72.623400    1.605260  -68.864900
  C    -73.539300    3.480390  -68.868700
  H    -74.166300    4.016770  -69.675500
  H    -74.044000    3.544360  -67.936000
  C    -72.192500    4.249830  -68.778800
  H    -71.462500    3.685300  -68.264500
  H    -71.806000    4.409860  -69.810100
  H    -72.330700    5.214720  -68.328200
  S    -78.044700   -1.397150  -67.000600
  C    -79.405300   -0.610455  -66.227700
  C    -79.653200    0.692079  -66.591000
  C    -78.706800    1.118210  -67.599700
  C    -77.730800    0.078150  -67.783700
  H    -80.428500    1.185610  -66.155900
  C    -78.681000    2.549940  -68.179500
  H    -79.746900    2.670540  -68.508900
  H    -78.065000    2.600240  -69.071900
  C    -78.202400    3.711770  -67.249100
  H    -77.651200    4.456640  -67.909300
  H    -77.434500    3.317490  -66.666900
  C    -79.250500    4.337200  -66.340500
  H    -80.075000    3.638520  -66.063600
  H    -79.701100    5.297620  -66.709800
  H    -78.787800    4.610980  -65.355100
  H    -73.971600   -0.013805  -71.065500
  H    -79.895700   -1.102530  -65.443800

 Total Charge           Charge          ....    0
 Multiplicity           Mult            ....    1
 Number of Electrons    NEL             ....  134
 Basis Dimension        Dim             ....  322

ORBITAL ENERGIES
----------------

  NO   OCC          E(Eh)            E(eV)
   0   2.0000     -88.969574     -2420.9852
   1   2.0000     -88.965348     -2420.8702
   2   2.0000     -10.323393      -280.9138
   3   2.0000     -10.320319      -280.8302
   4   2.0000     -10.310792      -280.5709
   5   2.0000     -10.310368      -280.5594
   6   2.0000     -10.309464      -280.5348
   7   2.0000     -10.296467      -280.1811
   8   2.0000     -10.295233      -280.1475
   9   2.0000     -10.290988      -280.0320
  10   2.0000     -10.290357      -280.0149
  11   2.0000     -10.290258      -280.0121
  12   2.0000     -10.288545      -279.9655
  13   2.0000     -10.287132      -279.9271
  14   2.0000     -10.286054      -279.8978
  15   2.0000     -10.278963      -279.7048
  16   2.0000      -8.085294      -220.0120
  17   2.0000      -8.080172      -219.8727
  18   2.0000      -6.043429      -164.4501
  19   2.0000      -6.039857      -164.3529
  20   2.0000      -6.038723      -164.3220
  21   2.0000      -6.036204      -164.2535
  22   2.0000      -6.034679      -164.2120
  23   2.0000      -6.030883      -164.1087
  24   2.0000      -1.009439       -27.4682
  25   2.0000      -0.985392       -26.8139
  26   2.0000      -0.917545       -24.9677
  27   2.0000      -0.904283       -24.6068
  28   2.0000      -0.872304       -23.7366
  29   2.0000      -0.851494       -23.1703
  30   2.0000      -0.847585       -23.0640
  31   2.0000      -0.815167       -22.1818
  32   2.0000      -0.785723       -21.3806
  33   2.0000      -0.770666       -20.9709
  34   2.0000      -0.711653       -19.3651
  35   2.0000      -0.699197       -19.0261
  36   2.0000      -0.687148       -18.6983
  37   2.0000      -0.666853       -18.1460
  38   2.0000      -0.638247       -17.3676
  39   2.0000      -0.620045       -16.8723
  40   2.0000      -0.596615       -16.2347
  41   2.0000      -0.577862       -15.7244
  42   2.0000      -0.569416       -15.4946
  43   2.0000      -0.547192       -14.8899
  44   2.0000      -0.537539       -14.6272
  45   2.0000      -0.527135       -14.3441
  46   2.0000      -0.517309       -14.0767
  47   2.0000      -0.506434       -13.7808
  48   2.0000      -0.501257       -13.6399
  49   2.0000      -0.496979       -13.5235
  50   2.0000      -0.491004       -13.3609
  51   2.0000      -0.478754       -13.0276
  52   2.0000      -0.474859       -12.9216
  53   2.0000      -0.466907       -12.7052
  54   2.0000      -0.459524       -12.5043
  55   2.0000      -0.455552       -12.3962
  56   2.0000      -0.449257       -12.2249
  57   2.0000      -0.435247       -11.8437
  58   2.0000      -0.429253       -11.6806
  59   2.0000      -0.426551       -11.6070
  60   2.0000      -0.424081       -11.5398
  61   2.0000      -0.422325       -11.4920
  62   2.0000      -0.413252       -11.2451
  63   2.0000      -0.347019        -9.4429
  64   2.0000      -0.331247        -9.0137
  65   2.0000      -0.329480        -8.9656
  66   2.0000      -0.287851        -7.8328
  67   0.0000       0.035843         0.9753
  68   0.0000       0.069612         1.8942
  69   0.0000       0.110489         3.0066
  70   0.0000       0.124086         3.3766
  71   0.0000       0.129583         3.5261

MULLIKEN ATOMIC CHARGES
-----------------------
   0 S :    0.118122
   1 C :   -0.124314
   2 C :   -0.066020
   3 C :    0.018907
   4 C :   -0.141630
   5 H :   -0.007237
   6 C :    0.077692
   7 H :    0.026148
   8 H :    0.025484
   9 C :   -0.130061
  10 H :    0.039574
  11 H :    0.031704
  12 C :   -0.021182
  13 H :    0.022546
  14 H :    0.027549
  15 H :    0.035317
  16 S :    0.130471
  17 C :   -0.075985
  18 C :    0.003846
  19 C :   -0.028949
  20 C :   -0.183734
  21 H :   -0.016795
  22 C :    0.036225
  23 H :    0.040848
  24 H :    0.034296
  25 C :   -0.052544
  26 H :    0.039206
  27 H :    0.022505
  28 C :   -0.074095
  29 H :    0.036208
  30 H :    0.045845
  31 H :    0.033830
  32 H :    0.042929
  33 H :    0.033295
Sum of atomic charges:   -0.0000000

LOEWDIN ATOMIC CHARGES
----------------------
   0 S :    0.407560
   1 C :   -0.205456
   2 C :   -0.063900
   3 C :   -0.067714
   4 C :   -0.199021
   5 H :    0.028163
   6 C :   -0.033908
   7 H :    0.037824
   8 H :    0.024185
   9 C :   -0.041958
  10 H :    0.032671
  11 H :    0.013124
  12 C :   -0.056818
  13 H :    0.017135
  14 H :    0.028552
  15 H :    0.025997
  16 S :    0.431304
  17 C :   -0.172634
  18 C :   -0.053418
  19 C :   -0.046780
  20 C :   -0.220303
  21 H :    0.015748
  22 C :   -0.035163
  23 H :    0.037518
  24 H :    0.031853
  25 C :   -0.044740
  26 H :    0.035594
  27 H :    0.014286
  28 C :   -0.077068
  29 H :    0.027379
  30 H :    0.031691
  31 H :    0.031975
  32 H :    0.033852
  33 H :    0.012469

  Mayer bond orders larger than 0.100000
B(  0-S ,  1-C ) :   1.1249 B(  0-S ,  4-C ) :   1.1541 B(  1-C ,  2-C ) :   1.6353
B(  1-C , 32-H ) :   0.9639 B(  2-C ,  3-C ) :   1.2251 B(  2-C ,  6-C ) :   1.0165
B(  3-C ,  4-C ) :   1.5877 B(  3-C ,  5-H ) :   0.9992 B(  4-C , 20-C ) :   1.0261
B(  6-C ,  7-H ) :   0.9411 B(  6-C ,  8-H ) :   0.9328 B(  6-C ,  9-C ) :   1.0683
B(  9-C , 10-H ) :   0.9613 B(  9-C , 11-H ) :   0.9513 B(  9-C , 12-C ) :   1.0850
B( 12-C , 13-H ) :   0.9762 B( 12-C , 14-H ) :   0.9743 B( 12-C , 15-H ) :   0.9736
B( 16-S , 17-C ) :   1.1496 B( 16-S , 20-C ) :   1.1737 B( 17-C , 18-C ) :   1.6264
B( 17-C , 33-H ) :   0.9722 B( 18-C , 19-C ) :   1.2123 B( 18-C , 21-H ) :   1.0060
B( 19-C , 20-C ) :   1.5587 B( 19-C , 22-C ) :   1.0549 B( 22-C , 23-H ) :   0.9409
B( 22-C , 24-H ) :   0.9324 B( 22-C , 25-C ) :   1.0498 B( 25-C , 26-H ) :   0.9592
B( 25-C , 27-H ) :   0.9560 B( 25-C , 28-C ) :   1.0664 B( 28-C , 29-H ) :   0.9763
B( 28-C , 30-H ) :   0.9747 B( 28-C , 31-H ) :   0.9759

Dispersion correction           -0.014607056
FINAL SINGLE POINT ENERGY     -1339.870765106759

DIPOLE MOMENT
-------------
                                X             Y             Z
Electronic contribution:     -8.46797     -31.07535      -2.99391
Nuclear contribution   :      8.60325      31.78874       3.21792
                        -----------------------------------------
Total Dipole Moment    :      0.13528       0.71339       0.22402
                        -----------------------------------------
Magnitude (a.u.)       :      0.75988
Magnitude (Debye)      :      1.93145

Rotational constants in cm-1:     0.016711     0.009670     0.006685
Rotational constants in MHz :   500.995596   289.895516   200.408691

                             ****ORCA TERMINATED NORMALLY****
TOTAL RUN TIME: 0 days 0 hours 0 minutes 22 seconds 17 msec
