                         Program Version 4.2.1 -  RELEASE  -
|  1> ! wB97X-D3 SP def2-SVP
|  2> %pal
|  3> nprocs 24
|  4> end
|  5>
|  6> * xyz 0 1
|  7> S 	 -52.6443 	 -43.9246 	 -77.6923
|  8> C 	 -53.1794 	 -43.2699 	 -79.2215
|  9> C 	 -52.4806 	 -43.8836 	 -80.2786
| 10> C 	 -51.5071 	 -44.8235 	 -79.8221
| 11> C 	 -51.2471 	 -44.7105 	 -78.4897
| 12> H 	 -50.9602 	 -45.5562 	 -80.4119
| 13> C 	 -52.744 	 -43.5623 	 -81.7258
| 14> H 	 -51.8149 	 -43.4033 	 -82.2071
| 15> H 	 -53.2579 	 -42.5835 	 -81.8688
| 16> C 	 -53.7853 	 -44.4755 	 -82.4045
| 17> H 	 -53.5052 	 -45.5454 	 -82.2794
| 18> H 	 -54.7582 	 -44.2158 	 -81.9467
| 19> C 	 -53.8819 	 -44.1198 	 -83.8573
| 20> H 	 -54.1689 	 -43.0408 	 -83.974
| 21> H 	 -52.9157 	 -44.3332 	 -84.2702
| 22> H 	 -54.6138 	 -44.7714 	 -84.3227
| 23> S 	 -50.7149 	 -46.0281 	 -76.109
| 24> C 	 -49.1604 	 -46.8457 	 -75.9313
| 25> C 	 -48.1904 	 -46.3805 	 -76.7903
| 26> C 	 -48.8233 	 -45.6335 	 -77.8943
| 27> C 	 -50.1804 	 -45.3777 	 -77.6924
| 28> H 	 -47.2349 	 -46.8932 	 -76.7873
| 29> C 	 -48.1038 	 -45.1572 	 -79.1025
| 30> H 	 -47.1601 	 -44.8801 	 -78.7614
| 31> H 	 -48.6087 	 -44.2929 	 -79.3568
| 32> C 	 -47.846 	 -46.2244 	 -80.0882
| 33> H 	 -48.7712 	 -46.4177 	 -80.625
| 34> H 	 -47.5818 	 -47.1827 	 -79.6137
| 35> C 	 -46.7383 	 -45.8665 	 -81.075
| 36> H 	 -46.8757 	 -44.8133 	 -81.4069
| 37> H 	 -46.7031 	 -46.359 	 -82.0826
| 38> H 	 -45.7496 	 -45.9394 	 -80.5959
| 39> H 	 -54.0837 	 -42.6802 	 -79.3091
| 40> H 	 -48.963 	 -47.6177 	 -75.2849
| 41> *
| 42>
| 43>                          ****END OF INPUT****

CARTESIAN COORDINATES (ANGSTROEM)
---------------------------------
  S    -52.644300  -43.924600  -77.692300
  C    -53.179400  -43.269900  -79.221500
  C    -52.480600  -43.883600  -80.278600
  C    -51.507100  -44.823500  -79.822100
  C    -51.247100  -44.710500  -78.489700
  H    -50.960200  -45.556200  -80.411900
  C    -52.744000  -43.562300  -81.725800
  H    -51.814900  -43.403300  -82.207100
  H    -53.257900  -42.583500  -81.868800
  C    -53.785300  -44.475500  -82.404500
  H    -53.505200  -45.545400  -82.279400
  H    -54.758200  -44.215800  -81.946700
  C    -53.881900  -44.119800  -83.857300
  H    -54.168900  -43.040800  -83.974000
  H    -52.915700  -44.333200  -84.270200
  H    -54.613800  -44.771400  -84.322700
  S    -50.714900  -46.028100  -76.109000
  C    -49.160400  -46.845700  -75.931300
  C    -48.190400  -46.380500  -76.790300
  C    -48.823300  -45.633500  -77.894300
  C    -50.180400  -45.377700  -77.692400
  H    -47.234900  -46.893200  -76.787300
  C    -48.103800  -45.157200  -79.102500
  H    -47.160100  -44.880100  -78.761400
  H    -48.608700  -44.292900  -79.356800
  C    -47.846000  -46.224400  -80.088200
  H    -48.771200  -46.417700  -80.625000
  H    -47.581800  -47.182700  -79.613700
  C    -46.738300  -45.866500  -81.075000
  H    -46.875700  -44.813300  -81.406900
  H    -46.703100  -46.359000  -82.082600
  H    -45.749600  -45.939400  -80.595900
  H    -54.083700  -42.680200  -79.309100
  H    -48.963000  -47.617700  -75.284900

 Total Charge           Charge          ....    0
 Multiplicity           Mult            ....    1
 Number of Electrons    NEL             ....  134
 Basis Dimension        Dim             ....  322

ORBITAL ENERGIES
----------------

  NO   OCC          E(Eh)            E(eV)
   0   2.0000     -88.962680     -2420.7976
   1   2.0000     -88.962635     -2420.7964
   2   2.0000     -10.334712      -281.2218
   3   2.0000     -10.331888      -281.1450
   4   2.0000     -10.317038      -280.7409
   5   2.0000     -10.315373      -280.6956
   6   2.0000     -10.309761      -280.5429
   7   2.0000     -10.303917      -280.3838
   8   2.0000     -10.299553      -280.2651
   9   2.0000     -10.295792      -280.1628
  10   2.0000     -10.288693      -279.9696
  11   2.0000     -10.288427      -279.9623
  12   2.0000     -10.286355      -279.9060
  13   2.0000     -10.284535      -279.8564
  14   2.0000     -10.277495      -279.6648
  15   2.0000     -10.274867      -279.5933
  16   2.0000      -8.077098      -219.7890
  17   2.0000      -8.076982      -219.7859
  18   2.0000      -6.035702      -164.2398
  19   2.0000      -6.035637      -164.2380
  20   2.0000      -6.031916      -164.1368
  21   2.0000      -6.031734      -164.1318
  22   2.0000      -6.027516      -164.0171
  23   2.0000      -6.027417      -164.0144
  24   2.0000      -1.001847       -27.2616
  25   2.0000      -0.980441       -26.6792
  26   2.0000      -0.923959       -25.1422
  27   2.0000      -0.916106       -24.9285
  28   2.0000      -0.868620       -23.6363
  29   2.0000      -0.853095       -23.2139
  30   2.0000      -0.845300       -23.0018
  31   2.0000      -0.821102       -22.3433
  32   2.0000      -0.781056       -21.2536
  33   2.0000      -0.766857       -20.8672
  34   2.0000      -0.707526       -19.2528
  35   2.0000      -0.698290       -19.0014
  36   2.0000      -0.693665       -18.8756
  37   2.0000      -0.664814       -18.0905
  38   2.0000      -0.644548       -17.5390
  39   2.0000      -0.622533       -16.9400
  40   2.0000      -0.596931       -16.2433
  41   2.0000      -0.579309       -15.7638
  42   2.0000      -0.573343       -15.6015
  43   2.0000      -0.563498       -15.3336
  44   2.0000      -0.532288       -14.4843
  45   2.0000      -0.528497       -14.3811
  46   2.0000      -0.519603       -14.1391
  47   2.0000      -0.514327       -13.9955
  48   2.0000      -0.506341       -13.7782
  49   2.0000      -0.503344       -13.6967
  50   2.0000      -0.493743       -13.4354
  51   2.0000      -0.477547       -12.9947
  52   2.0000      -0.467604       -12.7242
  53   2.0000      -0.463497       -12.6124
  54   2.0000      -0.462991       -12.5986
  55   2.0000      -0.455364       -12.3911
  56   2.0000      -0.442167       -12.0320
  57   2.0000      -0.433996       -11.8096
  58   2.0000      -0.433149       -11.7866
  59   2.0000      -0.428098       -11.6491
  60   2.0000      -0.421615       -11.4727
  61   2.0000      -0.417669       -11.3654
  62   2.0000      -0.406859       -11.0712
  63   2.0000      -0.353843        -9.6286
  64   2.0000      -0.331566        -9.0224
  65   2.0000      -0.322484        -8.7752
  66   2.0000      -0.284251        -7.7348
  67   0.0000       0.023210         0.6316
  68   0.0000       0.063159         1.7186
  69   0.0000       0.094609         2.5744
  70   0.0000       0.109906         2.9907
  71   0.0000       0.132524         3.6062

MULLIKEN ATOMIC CHARGES
-----------------------
   0 S :    0.082436
   1 C :   -0.100524
   2 C :   -0.076887
   3 C :    0.013730
   4 C :   -0.118444
   5 H :    0.017812
   6 C :    0.036578
   7 H :    0.019828
   8 H :    0.013092
   9 C :   -0.094377
  10 H :    0.038216
  11 H :    0.031281
  12 C :   -0.019546
  13 H :    0.035738
  14 H :    0.022459
  15 H :    0.035845
  16 S :    0.079689
  17 C :   -0.059382
  18 C :   -0.009913
  19 C :   -0.126530
  20 C :   -0.127844
  21 H :    0.031662
  22 C :    0.158554
  23 H :   -0.011796
  24 H :    0.015422
  25 C :   -0.048433
  26 H :    0.014215
  27 H :    0.032679
  28 C :   -0.078558
  29 H :    0.026929
  30 H :    0.041859
  31 H :    0.040902
  32 H :    0.054071
  33 H :    0.029238
Sum of atomic charges:    0.0000000

LOEWDIN ATOMIC CHARGES
----------------------
   0 S :    0.375530
   1 C :   -0.195315
   2 C :   -0.058575
   3 C :   -0.066785
   4 C :   -0.170717
   5 H :    0.032858
   6 C :   -0.038311
   7 H :    0.021715
   8 H :    0.034594
   9 C :   -0.039144
  10 H :    0.024489
  11 H :    0.026258
  12 C :   -0.062694
  13 H :    0.029559
  14 H :    0.021015
  15 H :    0.025931
  16 S :    0.364838
  17 C :   -0.147577
  18 C :   -0.072805
  19 C :   -0.039382
  20 C :   -0.183939
  21 H :    0.034644
  22 C :   -0.026782
  23 H :    0.025547
  24 H :    0.025689
  25 C :   -0.039036
  26 H :    0.019242
  27 H :    0.028629
  28 C :   -0.076203
  29 H :    0.027318
  30 H :    0.031969
  31 H :    0.026257
  32 H :    0.028440
  33 H :    0.012743

  Mayer bond orders larger than 0.100000
B(  0-S ,  1-C ) :   1.1265 B(  0-S ,  4-C ) :   1.1359 B(  1-C ,  2-C ) :   1.6080
B(  1-C , 32-H ) :   0.9695 B(  2-C ,  3-C ) :   1.2224 B(  2-C ,  6-C ) :   1.0292
B(  3-C ,  4-C ) :   1.5812 B(  3-C ,  5-H ) :   0.9949 B(  4-C , 20-C ) :   1.0504
B(  6-C ,  7-H ) :   0.9482 B(  6-C ,  8-H ) :   0.9426 B(  6-C ,  9-C ) :   1.0475
B(  9-C , 10-H ) :   0.9581 B(  9-C , 11-H ) :   0.9558 B(  9-C , 12-C ) :   1.0895
B( 12-C , 13-H ) :   0.9695 B( 12-C , 14-H ) :   0.9741 B( 12-C , 15-H ) :   0.9720
B( 16-S , 17-C ) :   1.1470 B( 16-S , 20-C ) :   1.0938 B( 17-C , 18-C ) :   1.6628
B( 17-C , 33-H ) :   0.9735 B( 18-C , 19-C ) :   1.1846 B( 18-C , 21-H ) :   0.9791
B( 19-C , 20-C ) :   1.6519 B( 19-C , 22-C ) :   1.0538 B( 22-C , 23-H ) :   0.9165
B( 22-C , 24-H ) :   0.9208 B( 22-C , 25-C ) :   1.0570 B( 25-C , 26-H ) :   0.9446
B( 25-C , 27-H ) :   0.9576 B( 25-C , 28-C ) :   1.0760 B( 28-C , 29-H ) :   0.9713
B( 28-C , 30-H ) :   0.9750 B( 28-C , 31-H ) :   0.9761

Dispersion correction           -0.013737389
FINAL SINGLE POINT ENERGY     -1339.850883191250

DIPOLE MOMENT
-------------
                                X             Y             Z
Electronic contribution:     -6.65079       0.05100      30.51756
Nuclear contribution   :      6.96045      -0.29410     -31.22414
                        -----------------------------------------
Total Dipole Moment    :      0.30966      -0.24309      -0.70658
                        -----------------------------------------
Magnitude (a.u.)       :      0.80885
Magnitude (Debye)      :      2.05593

Rotational constants in cm-1:     0.017697     0.008625     0.006168
Rotational constants in MHz :   530.554756   258.568848   184.906951

                             ****ORCA TERMINATED NORMALLY****
TOTAL RUN TIME: 0 days 0 hours 0 minutes 21 seconds 333 msec
