                         Program Version 4.2.1 -  RELEASE  -
|  1> ! wB97X-D3 SP def2-SVP
|  2> %pal
|  3> nprocs 24
|  4> end
|  5>
|  6> * xyz 0 1
|  7> S 	 -119.845 	 38.3651 	 -122.144
|  8> C 	 -118.409 	 37.7825 	 -123.008
|  9> C 	 -117.916 	 36.6861 	 -122.38
| 10> C 	 -118.712 	 36.165 	 -121.368
| 11> C 	 -119.694 	 37.0966 	 -121.006
| 12> H 	 -118.404 	 35.3709 	 -120.686
| 13> C 	 -116.614 	 35.9347 	 -122.781
| 14> H 	 -116.963 	 35.3444 	 -123.576
| 15> H 	 -116.383 	 35.2297 	 -121.984
| 16> C 	 -115.387 	 36.7301 	 -123.241
| 17> H 	 -114.677 	 36.0584 	 -123.797
| 18> H 	 -115.684 	 37.3839 	 -124.021
| 19> C 	 -114.543 	 37.1724 	 -122.047
| 20> H 	 -113.455 	 37.2155 	 -122.3
| 21> H 	 -114.821 	 38.1274 	 -121.748
| 22> H 	 -114.594 	 36.4542 	 -121.219
| 23> S 	 -122.162 	 36.871 	 -119.824
| 24> C 	 -122.248 	 36.7493 	 -118.071
| 25> C 	 -120.974 	 36.6952 	 -117.484
| 26> C 	 -119.943 	 36.8626 	 -118.381
| 27> C 	 -120.397 	 37.0384 	 -119.737
| 28> H 	 -120.963 	 36.3847 	 -116.425
| 29> C 	 -118.495 	 37.0065 	 -117.939
| 30> H 	 -118.407 	 37.9415 	 -117.351
| 31> H 	 -117.803 	 37.2197 	 -118.843
| 32> C 	 -117.81 	 35.7945 	 -117.343
| 33> H 	 -116.775 	 36.0631 	 -117.27
| 34> H 	 -117.757 	 34.9173 	 -117.939
| 35> C 	 -118.52 	 35.2283 	 -116.064
| 36> H 	 -119.489 	 34.7516 	 -116.224
| 37> H 	 -118.552 	 35.9481 	 -115.293
| 38> H 	 -117.933 	 34.3783 	 -115.622
| 39> H 	 -117.929 	 38.2465 	 -123.865
| 40> H 	 -123.143 	 36.6972 	 -117.617
| 41> *
| 42>
| 43>                          ****END OF INPUT****

CARTESIAN COORDINATES (ANGSTROEM)
---------------------------------
  S    -119.845000   38.365100  -122.144000
  C    -118.409000   37.782500  -123.008000
  C    -117.916000   36.686100  -122.380000
  C    -118.712000   36.165000  -121.368000
  C    -119.694000   37.096600  -121.006000
  H    -118.404000   35.370900  -120.686000
  C    -116.614000   35.934700  -122.781000
  H    -116.963000   35.344400  -123.576000
  H    -116.383000   35.229700  -121.984000
  C    -115.387000   36.730100  -123.241000
  H    -114.677000   36.058400  -123.797000
  H    -115.684000   37.383900  -124.021000
  C    -114.543000   37.172400  -122.047000
  H    -113.455000   37.215500  -122.300000
  H    -114.821000   38.127400  -121.748000
  H    -114.594000   36.454200  -121.219000
  S    -122.162000   36.871000  -119.824000
  C    -122.248000   36.749300  -118.071000
  C    -120.974000   36.695200  -117.484000
  C    -119.943000   36.862600  -118.381000
  C    -120.397000   37.038400  -119.737000
  H    -120.963000   36.384700  -116.425000
  C    -118.495000   37.006500  -117.939000
  H    -118.407000   37.941500  -117.351000
  H    -117.803000   37.219700  -118.843000
  C    -117.810000   35.794500  -117.343000
  H    -116.775000   36.063100  -117.270000
  H    -117.757000   34.917300  -117.939000
  C    -118.520000   35.228300  -116.064000
  H    -119.489000   34.751600  -116.224000
  H    -118.552000   35.948100  -115.293000
  H    -117.933000   34.378300  -115.622000
  H    -117.929000   38.246500  -123.865000
  H    -123.143000   36.697200  -117.617000

 Total Charge           Charge          ....    0
 Multiplicity           Mult            ....    1
 Number of Electrons    NEL             ....  134
 Basis Dimension        Dim             ....  322

ORBITAL ENERGIES
----------------

  NO   OCC          E(Eh)            E(eV)
   0   2.0000     -88.967268     -2420.9224
   1   2.0000     -88.965302     -2420.8689
   2   2.0000     -10.329244      -281.0730
   3   2.0000     -10.326316      -280.9933
   4   2.0000     -10.311890      -280.6008
   5   2.0000     -10.308485      -280.5081
   6   2.0000     -10.306483      -280.4537
   7   2.0000     -10.297581      -280.2114
   8   2.0000     -10.294530      -280.1284
   9   2.0000     -10.293442      -280.0988
  10   2.0000     -10.288827      -279.9732
  11   2.0000     -10.288302      -279.9589
  12   2.0000     -10.286879      -279.9202
  13   2.0000     -10.286164      -279.9008
  14   2.0000     -10.279005      -279.7059
  15   2.0000     -10.276731      -279.6441
  16   2.0000      -8.082170      -219.9270
  17   2.0000      -8.079574      -219.8564
  18   2.0000      -6.040587      -164.3727
  19   2.0000      -6.037781      -164.2964
  20   2.0000      -6.036618      -164.2647
  21   2.0000      -6.034109      -164.1965
  22   2.0000      -6.033042      -164.1674
  23   2.0000      -6.030745      -164.1049
  24   2.0000      -1.007176       -27.4067
  25   2.0000      -0.982578       -26.7373
  26   2.0000      -0.911978       -24.8162
  27   2.0000      -0.907603       -24.6971
  28   2.0000      -0.867628       -23.6094
  29   2.0000      -0.851504       -23.1706
  30   2.0000      -0.846783       -23.0421
  31   2.0000      -0.809179       -22.0189
  32   2.0000      -0.787156       -21.4196
  33   2.0000      -0.775257       -21.0958
  34   2.0000      -0.713976       -19.4283
  35   2.0000      -0.707240       -19.2450
  36   2.0000      -0.695798       -18.9336
  37   2.0000      -0.659786       -17.9537
  38   2.0000      -0.635689       -17.2980
  39   2.0000      -0.610766       -16.6198
  40   2.0000      -0.597389       -16.2558
  41   2.0000      -0.574608       -15.6359
  42   2.0000      -0.555925       -15.1275
  43   2.0000      -0.552926       -15.0459
  44   2.0000      -0.540751       -14.7146
  45   2.0000      -0.533724       -14.5234
  46   2.0000      -0.519319       -14.1314
  47   2.0000      -0.510060       -13.8794
  48   2.0000      -0.504803       -13.7364
  49   2.0000      -0.497100       -13.5268
  50   2.0000      -0.490753       -13.3541
  51   2.0000      -0.483107       -13.1460
  52   2.0000      -0.479891       -13.0585
  53   2.0000      -0.468668       -12.7531
  54   2.0000      -0.459611       -12.5066
  55   2.0000      -0.450351       -12.2547
  56   2.0000      -0.440304       -11.9813
  57   2.0000      -0.436717       -11.8837
  58   2.0000      -0.432815       -11.7775
  59   2.0000      -0.431305       -11.7364
  60   2.0000      -0.424538       -11.5523
  61   2.0000      -0.404965       -11.0197
  62   2.0000      -0.399381       -10.8677
  63   2.0000      -0.338314        -9.2060
  64   2.0000      -0.332364        -9.0441
  65   2.0000      -0.326903        -8.8955
  66   2.0000      -0.291033        -7.9194
  67   0.0000       0.026651         0.7252
  68   0.0000       0.064101         1.7443
  69   0.0000       0.112331         3.0567
  70   0.0000       0.119944         3.2638
  71   0.0000       0.124749         3.3946

MULLIKEN ATOMIC CHARGES
-----------------------
   0 S :    0.125755
   1 C :   -0.131677
   2 C :   -0.101167
   3 C :    0.040795
   4 C :   -0.160611
   5 H :    0.019864
   6 C :    0.068625
   7 H :    0.029227
   8 H :    0.010784
   9 C :   -0.062929
  10 H :    0.024693
  11 H :    0.017605
  12 C :   -0.021181
  13 H :    0.032734
  14 H :    0.027504
  15 H :    0.027484
  16 S :    0.100978
  17 C :   -0.057570
  18 C :   -0.059377
  19 C :    0.015225
  20 C :   -0.172286
  21 H :    0.038782
  22 C :    0.005751
  23 H :    0.052741
  24 H :    0.038249
  25 C :   -0.032595
  26 H :    0.025415
  27 H :    0.017891
  28 C :   -0.077286
  29 H :    0.048422
  30 H :    0.023223
  31 H :    0.028383
  32 H :    0.043208
  33 H :    0.013344
Sum of atomic charges:   -0.0000000

LOEWDIN ATOMIC CHARGES
----------------------
   0 S :    0.420023
   1 C :   -0.206248
   2 C :   -0.062720
   3 C :   -0.067162
   4 C :   -0.206436
   5 H :    0.033766
   6 C :   -0.025434
   7 H :    0.030125
   8 H :    0.024608
   9 C :   -0.043428
  10 H :    0.031927
  11 H :    0.018564
  12 C :   -0.058276
  13 H :    0.030381
  14 H :    0.016146
  15 H :    0.027611
  16 S :    0.402309
  17 C :   -0.160235
  18 C :   -0.076241
  19 C :   -0.054905
  20 C :   -0.194601
  21 H :    0.041707
  22 C :   -0.040209
  23 H :    0.038194
  24 H :    0.042112
  25 C :   -0.038565
  26 H :    0.026047
  27 H :    0.021219
  28 C :   -0.071378
  29 H :    0.027832
  30 H :    0.013779
  31 H :    0.030876
  32 H :    0.028179
  33 H :    0.000435

  Mayer bond orders larger than 0.100000
B(  0-S ,  1-C ) :   1.1130 B(  0-S ,  4-C ) :   1.1901 B(  1-C ,  2-C ) :   1.6215
B(  1-C , 32-H ) :   0.9708 B(  2-C ,  3-C ) :   1.2682 B(  2-C ,  6-C ) :   0.9891
B(  3-C ,  4-C ) :   1.5239 B(  3-C ,  5-H ) :   0.9881 B(  4-C , 20-C ) :   1.0342
B(  6-C ,  7-H ) :   0.9319 B(  6-C ,  8-H ) :   0.9484 B(  6-C ,  9-C ) :   1.0903
B(  9-C , 10-H ) :   0.9550 B(  9-C , 11-H ) :   0.9553 B(  9-C , 12-C ) :   1.0579
B( 12-C , 13-H ) :   0.9788 B( 12-C , 14-H ) :   0.9800 B( 12-C , 15-H ) :   0.9739
B( 16-S , 17-C ) :   1.1805 B( 16-S , 20-C ) :   1.1664 B( 17-C , 18-C ) :   1.5532
B( 17-C , 20-C ) :   0.1256 B( 17-C , 33-H ) :   0.9834 B( 18-C , 19-C ) :   1.2862
B( 18-C , 21-H ) :   0.9837 B( 19-C , 20-C ) :   1.5374 B( 19-C , 22-C ) :   1.0247
B( 22-C , 23-H ) :   0.9456 B( 22-C , 24-H ) :   0.9327 B( 22-C , 25-C ) :   1.0755
B( 25-C , 26-H ) :   0.9553 B( 25-C , 27-H ) :   0.9519 B( 25-C , 28-C ) :   1.0743
B( 28-C , 29-H ) :   0.9679 B( 28-C , 30-H ) :   0.9779 B( 28-C , 31-H ) :   0.9702

Dispersion correction           -0.014680145
FINAL SINGLE POINT ENERGY     -1339.847496234974

DIPOLE MOMENT
-------------
                                X             Y             Z
Electronic contribution:    -27.57553       8.96972      -8.39603
Nuclear contribution   :     28.23884      -9.29457       8.65654
                        -----------------------------------------
Total Dipole Moment    :      0.66331      -0.32484       0.26051
                        -----------------------------------------
Magnitude (a.u.)       :      0.78318
Magnitude (Debye)      :      1.99069

Rotational constants in cm-1:     0.018866     0.009204     0.006635
Rotational constants in MHz :   565.582038   275.919358   198.923945

                             ****ORCA TERMINATED NORMALLY****
TOTAL RUN TIME: 0 days 0 hours 0 minutes 22 seconds 393 msec
