                         Program Version 4.2.1 -  RELEASE  -
|  1> ! wB97X-D3 SP def2-SVP
|  2> %pal
|  3> nprocs 24
|  4> end
|  5>
|  6> * xyz 0 1
|  7> S 	 -85.6319 	 -18.5081 	 -50.6427
|  8> C 	 -86.4775 	 -16.9909 	 -50.8022
|  9> C 	 -85.5825 	 -15.9246 	 -50.8472
| 10> C 	 -84.2196 	 -16.3166 	 -50.8064
| 11> C 	 -84.0564 	 -17.7066 	 -50.6257
| 12> H 	 -83.4153 	 -15.5635 	 -50.7877
| 13> C 	 -85.9733 	 -14.4855 	 -51.0222
| 14> H 	 -85.0827 	 -13.928 	 -51.1585
| 15> H 	 -86.4837 	 -14.2517 	 -50.0405
| 16> C 	 -86.9208 	 -14.0769 	 -52.1579
| 17> H 	 -86.4502 	 -14.5276 	 -53.0125
| 18> H 	 -87.861 	 -14.5052 	 -51.9913
| 19> C 	 -86.9468 	 -12.5483 	 -52.4664
| 20> H 	 -87.7435 	 -12.2319 	 -53.1503
| 21> H 	 -87.1809 	 -12.1079 	 -51.566
| 22> H 	 -86.0609 	 -12.1408 	 -52.8344
| 23> S 	 -83.1087 	 -19.9022 	 -49.2277
| 24> C 	 -81.4353 	 -20.0956 	 -48.8385
| 25> C 	 -80.6977 	 -19.2702 	 -49.6764
| 26> C 	 -81.4359 	 -18.2679 	 -50.368
| 27> C 	 -82.8096 	 -18.4095 	 -50.2298
| 28> H 	 -79.6381 	 -19.2076 	 -49.7139
| 29> C 	 -80.7816 	 -17.1975 	 -51.2995
| 30> H 	 -80.3012 	 -16.4143 	 -50.6685
| 31> H 	 -81.698 	 -16.7876 	 -51.8339
| 32> C 	 -79.8405 	 -17.7423 	 -52.3044
| 33> H 	 -80.1196 	 -18.6789 	 -52.718
| 34> H 	 -79.0402 	 -18.1365 	 -51.7269
| 35> C 	 -79.5134 	 -16.7146 	 -53.3733
| 36> H 	 -79.6862 	 -15.6757 	 -52.9843
| 37> H 	 -80.0366 	 -16.8995 	 -54.2683
| 38> H 	 -78.5212 	 -16.749 	 -53.7602
| 39> H 	 -87.5446 	 -16.9305 	 -50.7809
| 40> H 	 -80.9924 	 -20.8864 	 -48.1632
| 41> *
| 42>
| 43>                          ****END OF INPUT****

CARTESIAN COORDINATES (ANGSTROEM)
---------------------------------
  S    -85.631900  -18.508100  -50.642700
  C    -86.477500  -16.990900  -50.802200
  C    -85.582500  -15.924600  -50.847200
  C    -84.219600  -16.316600  -50.806400
  C    -84.056400  -17.706600  -50.625700
  H    -83.415300  -15.563500  -50.787700
  C    -85.973300  -14.485500  -51.022200
  H    -85.082700  -13.928000  -51.158500
  H    -86.483700  -14.251700  -50.040500
  C    -86.920800  -14.076900  -52.157900
  H    -86.450200  -14.527600  -53.012500
  H    -87.861000  -14.505200  -51.991300
  C    -86.946800  -12.548300  -52.466400
  H    -87.743500  -12.231900  -53.150300
  H    -87.180900  -12.107900  -51.566000
  H    -86.060900  -12.140800  -52.834400
  S    -83.108700  -19.902200  -49.227700
  C    -81.435300  -20.095600  -48.838500
  C    -80.697700  -19.270200  -49.676400
  C    -81.435900  -18.267900  -50.368000
  C    -82.809600  -18.409500  -50.229800
  H    -79.638100  -19.207600  -49.713900
  C    -80.781600  -17.197500  -51.299500
  H    -80.301200  -16.414300  -50.668500
  H    -81.698000  -16.787600  -51.833900
  C    -79.840500  -17.742300  -52.304400
  H    -80.119600  -18.678900  -52.718000
  H    -79.040200  -18.136500  -51.726900
  C    -79.513400  -16.714600  -53.373300
  H    -79.686200  -15.675700  -52.984300
  H    -80.036600  -16.899500  -54.268300
  H    -78.521200  -16.749000  -53.760200
  H    -87.544600  -16.930500  -50.780900
  H    -80.992400  -20.886400  -48.163200

 Total Charge           Charge          ....    0
 Multiplicity           Mult            ....    1
 Number of Electrons    NEL             ....  134
 Basis Dimension        Dim             ....  322

ORBITAL ENERGIES
----------------

  NO   OCC          E(Eh)            E(eV)
   0   2.0000     -88.970083     -2420.9990
   1   2.0000     -88.961009     -2420.7521
   2   2.0000     -10.340375      -281.3759
   3   2.0000     -10.335768      -281.2506
   4   2.0000     -10.324449      -280.9425
   5   2.0000     -10.313354      -280.6406
   6   2.0000     -10.305255      -280.4203
   7   2.0000     -10.300258      -280.2843
   8   2.0000     -10.298871      -280.2465
   9   2.0000     -10.298696      -280.2418
  10   2.0000     -10.292023      -280.0602
  11   2.0000     -10.289735      -279.9979
  12   2.0000     -10.281670      -279.7785
  13   2.0000     -10.276485      -279.6374
  14   2.0000     -10.275462      -279.6095
  15   2.0000     -10.270871      -279.4846
  16   2.0000      -8.084349      -219.9863
  17   2.0000      -8.075451      -219.7442
  18   2.0000      -6.043003      -164.4385
  19   2.0000      -6.038848      -164.3254
  20   2.0000      -6.035059      -164.2223
  21   2.0000      -6.034026      -164.1942
  22   2.0000      -6.030061      -164.0863
  23   2.0000      -6.026069      -163.9777
  24   2.0000      -1.001677       -27.2570
  25   2.0000      -0.981797       -26.7161
  26   2.0000      -0.916582       -24.9415
  27   2.0000      -0.912485       -24.8300
  28   2.0000      -0.865763       -23.5586
  29   2.0000      -0.855340       -23.2750
  30   2.0000      -0.844983       -22.9932
  31   2.0000      -0.811271       -22.0758
  32   2.0000      -0.783398       -21.3173
  33   2.0000      -0.774266       -21.0689
  34   2.0000      -0.712147       -19.3785
  35   2.0000      -0.710186       -19.3251
  36   2.0000      -0.695550       -18.9269
  37   2.0000      -0.660932       -17.9849
  38   2.0000      -0.638350       -17.3704
  39   2.0000      -0.615663       -16.7530
  40   2.0000      -0.597820       -16.2675
  41   2.0000      -0.579595       -15.7716
  42   2.0000      -0.565306       -15.3828
  43   2.0000      -0.560697       -15.2573
  44   2.0000      -0.533201       -14.5091
  45   2.0000      -0.524184       -14.2638
  46   2.0000      -0.514969       -14.0130
  47   2.0000      -0.509991       -13.8776
  48   2.0000      -0.503981       -13.7140
  49   2.0000      -0.502802       -13.6819
  50   2.0000      -0.490730       -13.3534
  51   2.0000      -0.481663       -13.1067
  52   2.0000      -0.476500       -12.9662
  53   2.0000      -0.469431       -12.7739
  54   2.0000      -0.460633       -12.5345
  55   2.0000      -0.452216       -12.3054
  56   2.0000      -0.451042       -12.2735
  57   2.0000      -0.444075       -12.0839
  58   2.0000      -0.434282       -11.8174
  59   2.0000      -0.430682       -11.7194
  60   2.0000      -0.411050       -11.1852
  61   2.0000      -0.408960       -11.1284
  62   2.0000      -0.401693       -10.9306
  63   2.0000      -0.358277        -9.7492
  64   2.0000      -0.333120        -9.0646
  65   2.0000      -0.327544        -8.9129
  66   2.0000      -0.280119        -7.6224
  67   0.0000       0.017839         0.4854
  68   0.0000       0.070787         1.9262
  69   0.0000       0.104127         2.8334
  70   0.0000       0.123134         3.3506
  71   0.0000       0.136809         3.7228

MULLIKEN ATOMIC CHARGES
-----------------------
   0 S :    0.110104
   1 C :   -0.122211
   2 C :   -0.092914
   3 C :   -0.001268
   4 C :   -0.109492
   5 H :    0.027488
   6 C :    0.055767
   7 H :    0.002752
   8 H :    0.045187
   9 C :   -0.053032
  10 H :    0.024727
  11 H :    0.018646
  12 C :   -0.006178
  13 H :    0.033347
  14 H :    0.006767
  15 H :    0.021047
  16 S :    0.070727
  17 C :   -0.094238
  18 C :   -0.018645
  19 C :   -0.077782
  20 C :   -0.136179
  21 H :    0.004095
  22 C :    0.020536
  23 H :    0.048870
  24 H :    0.041016
  25 C :   -0.038009
  26 H :    0.014760
  27 H :    0.005331
  28 C :   -0.014160
  29 H :    0.037877
  30 H :    0.027733
  31 H :    0.016866
  32 H :    0.044119
  33 H :    0.086344
Sum of atomic charges:   -0.0000000

LOEWDIN ATOMIC CHARGES
----------------------
   0 S :    0.408827
   1 C :   -0.199557
   2 C :   -0.063076
   3 C :   -0.070580
   4 C :   -0.185330
   5 H :    0.035062
   6 C :   -0.033166
   7 H :    0.021494
   8 H :    0.040217
   9 C :   -0.029737
  10 H :    0.023313
  11 H :    0.013934
  12 C :   -0.052681
  13 H :    0.032511
  14 H :    0.013949
  15 H :    0.018005
  16 S :    0.376862
  17 C :   -0.193590
  18 C :   -0.078437
  19 C :   -0.060677
  20 C :   -0.167458
  21 H :    0.021812
  22 C :   -0.031268
  23 H :    0.035100
  24 H :    0.035750
  25 C :   -0.048943
  26 H :    0.024562
  27 H :    0.018173
  28 C :   -0.059246
  29 H :    0.032995
  30 H :    0.025347
  31 H :    0.024505
  32 H :    0.023574
  33 H :    0.047757

  Mayer bond orders larger than 0.100000
B(  0-S ,  1-C ) :   1.1365 B(  0-S ,  4-C ) :   1.1658 B(  1-C ,  2-C ) :   1.5696
B(  1-C ,  4-C ) :   0.1005 B(  1-C , 32-H ) :   0.9782 B(  2-C ,  3-C ) :   1.2971
B(  2-C ,  6-C ) :   1.0292 B(  3-C ,  4-C ) :   1.5134 B(  3-C ,  5-H ) :   0.9810
B(  4-C , 20-C ) :   1.0609 B(  6-C ,  7-H ) :   0.9446 B(  6-C ,  8-H ) :   0.9248
B(  6-C ,  9-C ) :   1.0674 B(  9-C , 10-H ) :   0.9607 B(  9-C , 11-H ) :   0.9546
B(  9-C , 12-C ) :   1.0824 B( 12-C , 13-H ) :   0.9741 B( 12-C , 14-H ) :   0.9750
B( 12-C , 15-H ) :   0.9754 B( 16-S , 17-C ) :   1.1628 B( 16-S , 20-C ) :   1.1188
B( 17-C , 18-C ) :   1.5780 B( 17-C , 20-C ) :   0.1001 B( 17-C , 33-H ) :   0.9608
B( 18-C , 19-C ) :   1.2648 B( 18-C , 21-H ) :   0.9875 B( 19-C , 20-C ) :   1.6081
B( 19-C , 22-C ) :   1.0128 B( 22-C , 23-H ) :   0.9279 B( 22-C , 24-H ) :   0.9449
B( 22-C , 25-C ) :   1.0738 B( 25-C , 26-H ) :   0.9535 B( 25-C , 27-H ) :   0.9452
B( 25-C , 28-C ) :   1.0699 B( 28-C , 29-H ) :   0.9768 B( 28-C , 30-H ) :   0.9733
B( 28-C , 31-H ) :   0.9696

Dispersion correction           -0.013050137
FINAL SINGLE POINT ENERGY     -1339.855916647334

DIPOLE MOMENT
-------------
                                X             Y             Z
Electronic contribution:     -6.09565     -24.99460      15.23839
Nuclear contribution   :      6.41401      25.54861     -15.44415
                        -----------------------------------------
Total Dipole Moment    :      0.31836       0.55401      -0.20576
                        -----------------------------------------
Magnitude (a.u.)       :      0.67128
Magnitude (Debye)      :      1.70626

Rotational constants in cm-1:     0.018149     0.007787     0.005772
Rotational constants in MHz :   544.093980   233.456704   173.030613

                             ****ORCA TERMINATED NORMALLY****
TOTAL RUN TIME: 0 days 0 hours 0 minutes 20 seconds 719 msec
