                         Program Version 4.2.1 -  RELEASE  -
|  1> ! wB97X-D3 SP def2-SVP
|  2> %pal
|  3> nprocs 24
|  4> end
|  5>
|  6> * xyz 0 1
|  7> S 	 -39.7497 	 -51.7234 	 -73.665
|  8> C 	 -40.1418 	 -50.3827 	 -74.7151
|  9> C 	 -40.3873 	 -49.2413 	 -74.0055
| 10> C 	 -40.1291 	 -49.3641 	 -72.6153
| 11> C 	 -39.8385 	 -50.657 	 -72.2004
| 12> H 	 -40.1417 	 -48.542 	 -71.876
| 13> C 	 -40.6581 	 -47.8647 	 -74.7394
| 14> H 	 -39.973 	 -47.8451 	 -75.5754
| 15> H 	 -40.3907 	 -46.9718 	 -74.2486
| 16> C 	 -42.0997 	 -47.6661 	 -75.305
| 17> H 	 -42.2085 	 -46.646 	 -75.7358
| 18> H 	 -42.222 	 -48.3761 	 -76.1106
| 19> C 	 -43.2106 	 -47.7834 	 -74.3231
| 20> H 	 -44.2212 	 -47.7325 	 -74.7718
| 21> H 	 -43.2372 	 -48.7363 	 -73.8898
| 22> H 	 -43.1522 	 -47.0695 	 -73.4938
| 23> S 	 -37.9045 	 -51.7201 	 -70.5091
| 24> C 	 -38.4492 	 -52.398 	 -68.9634
| 25> C 	 -39.7915 	 -52.0242 	 -68.7529
| 26> C 	 -40.45 	 -51.3259 	 -69.8261
| 27> C 	 -39.5681 	 -51.1841 	 -70.8807
| 28> H 	 -40.2638 	 -52.3371 	 -67.8517
| 29> C 	 -41.8497 	 -50.7594 	 -69.6797
| 30> H 	 -41.934 	 -49.9973 	 -70.4616
| 31> H 	 -41.8101 	 -50.2109 	 -68.7015
| 32> C 	 -42.978 	 -51.7908 	 -69.7072
| 33> H 	 -43.0713 	 -52.3104 	 -68.6926
| 34> H 	 -42.8076 	 -52.5824 	 -70.4148
| 35> C 	 -44.4475 	 -51.1503 	 -69.9966
| 36> H 	 -44.4652 	 -50.4309 	 -70.8142
| 37> H 	 -44.804 	 -50.5878 	 -69.1183
| 38> H 	 -45.1491 	 -51.9604 	 -70.1373
| 39> H 	 -40.2737 	 -50.3452 	 -75.7232
| 40> H 	 -37.7767 	 -53.0481 	 -68.4002
| 41> *
| 42>
| 43>                          ****END OF INPUT****

CARTESIAN COORDINATES (ANGSTROEM)
---------------------------------
  S    -39.749700  -51.723400  -73.665000
  C    -40.141800  -50.382700  -74.715100
  C    -40.387300  -49.241300  -74.005500
  C    -40.129100  -49.364100  -72.615300
  C    -39.838500  -50.657000  -72.200400
  H    -40.141700  -48.542000  -71.876000
  C    -40.658100  -47.864700  -74.739400
  H    -39.973000  -47.845100  -75.575400
  H    -40.390700  -46.971800  -74.248600
  C    -42.099700  -47.666100  -75.305000
  H    -42.208500  -46.646000  -75.735800
  H    -42.222000  -48.376100  -76.110600
  C    -43.210600  -47.783400  -74.323100
  H    -44.221200  -47.732500  -74.771800
  H    -43.237200  -48.736300  -73.889800
  H    -43.152200  -47.069500  -73.493800
  S    -37.904500  -51.720100  -70.509100
  C    -38.449200  -52.398000  -68.963400
  C    -39.791500  -52.024200  -68.752900
  C    -40.450000  -51.325900  -69.826100
  C    -39.568100  -51.184100  -70.880700
  H    -40.263800  -52.337100  -67.851700
  C    -41.849700  -50.759400  -69.679700
  H    -41.934000  -49.997300  -70.461600
  H    -41.810100  -50.210900  -68.701500
  C    -42.978000  -51.790800  -69.707200
  H    -43.071300  -52.310400  -68.692600
  H    -42.807600  -52.582400  -70.414800
  C    -44.447500  -51.150300  -69.996600
  H    -44.465200  -50.430900  -70.814200
  H    -44.804000  -50.587800  -69.118300
  H    -45.149100  -51.960400  -70.137300
  H    -40.273700  -50.345200  -75.723200
  H    -37.776700  -53.048100  -68.400200

 Total Charge           Charge          ....    0
 Multiplicity           Mult            ....    1
 Number of Electrons    NEL             ....  134
 Basis Dimension        Dim             ....  322

ORBITAL ENERGIES
----------------

  NO   OCC          E(Eh)            E(eV)
   0   2.0000     -88.966754     -2420.9085
   1   2.0000     -88.964007     -2420.8337
   2   2.0000     -10.332175      -281.1528
   3   2.0000     -10.327350      -281.0215
   4   2.0000     -10.324908      -280.9550
   5   2.0000     -10.307724      -280.4874
   6   2.0000     -10.306833      -280.4632
   7   2.0000     -10.302055      -280.3332
   8   2.0000     -10.299183      -280.2550
   9   2.0000     -10.298874      -280.2466
  10   2.0000     -10.297357      -280.2053
  11   2.0000     -10.296728      -280.1882
  12   2.0000     -10.292249      -280.0663
  13   2.0000     -10.285570      -279.8846
  14   2.0000     -10.283554      -279.8297
  15   2.0000     -10.268971      -279.4329
  16   2.0000      -8.080400      -219.8789
  17   2.0000      -8.078066      -219.8154
  18   2.0000      -6.039003      -164.3296
  19   2.0000      -6.036596      -164.2641
  20   2.0000      -6.035070      -164.2226
  21   2.0000      -6.032700      -164.1581
  22   2.0000      -6.031096      -164.1145
  23   2.0000      -6.028806      -164.0521
  24   2.0000      -0.999804       -27.2061
  25   2.0000      -0.978045       -26.6140
  26   2.0000      -0.906293       -24.6615
  27   2.0000      -0.901732       -24.5374
  28   2.0000      -0.868593       -23.6356
  29   2.0000      -0.845420       -23.0050
  30   2.0000      -0.841495       -22.8982
  31   2.0000      -0.812734       -22.1156
  32   2.0000      -0.784905       -21.3583
  33   2.0000      -0.774505       -21.0754
  34   2.0000      -0.708348       -19.2751
  35   2.0000      -0.699724       -19.0405
  36   2.0000      -0.694491       -18.8981
  37   2.0000      -0.661752       -18.0072
  38   2.0000      -0.641938       -17.4680
  39   2.0000      -0.611476       -16.6391
  40   2.0000      -0.593761       -16.1571
  41   2.0000      -0.575911       -15.6713
  42   2.0000      -0.558690       -15.2027
  43   2.0000      -0.547359       -14.8944
  44   2.0000      -0.541813       -14.7435
  45   2.0000      -0.528251       -14.3744
  46   2.0000      -0.512743       -13.9525
  47   2.0000      -0.508654       -13.8412
  48   2.0000      -0.502626       -13.6771
  49   2.0000      -0.495422       -13.4811
  50   2.0000      -0.486912       -13.2495
  51   2.0000      -0.480239       -13.0680
  52   2.0000      -0.468793       -12.7565
  53   2.0000      -0.465940       -12.6789
  54   2.0000      -0.460813       -12.5394
  55   2.0000      -0.447643       -12.1810
  56   2.0000      -0.437655       -11.9092
  57   2.0000      -0.436702       -11.8833
  58   2.0000      -0.433932       -11.8079
  59   2.0000      -0.421615       -11.4727
  60   2.0000      -0.419318       -11.4102
  61   2.0000      -0.418105       -11.3772
  62   2.0000      -0.411971       -11.2103
  63   2.0000      -0.338654        -9.2152
  64   2.0000      -0.331189        -9.0121
  65   2.0000      -0.325676        -8.8621
  66   2.0000      -0.301575        -8.2063
  67   0.0000       0.029229         0.7954
  68   0.0000       0.059239         1.6120
  69   0.0000       0.105007         2.8574
  70   0.0000       0.121215         3.2984
  71   0.0000       0.130258         3.5445

MULLIKEN ATOMIC CHARGES
-----------------------
   0 S :    0.113505
   1 C :   -0.058048
   2 C :   -0.095668
   3 C :    0.049063
   4 C :   -0.184271
   5 H :    0.026574
   6 C :    0.068919
   7 H :    0.024419
   8 H :    0.010802
   9 C :   -0.075984
  10 H :    0.031997
  11 H :    0.019827
  12 C :   -0.034094
  13 H :    0.030817
  14 H :    0.017138
  15 H :    0.024886
  16 S :    0.102508
  17 C :   -0.111939
  18 C :   -0.020391
  19 C :   -0.009533
  20 C :   -0.202604
  21 H :    0.008696
  22 C :    0.093635
  23 H :    0.019542
  24 H :    0.044860
  25 C :   -0.099104
  26 H :    0.040046
  27 H :    0.042850
  28 C :   -0.064266
  29 H :    0.039618
  30 H :    0.030703
  31 H :    0.038433
  32 H :    0.004885
  33 H :    0.072180
Sum of atomic charges:   -0.0000000

LOEWDIN ATOMIC CHARGES
----------------------
   0 S :    0.386937
   1 C :   -0.178179
   2 C :   -0.065452
   3 C :   -0.060074
   4 C :   -0.179054
   5 H :    0.037561
   6 C :   -0.025117
   7 H :    0.031243
   8 H :    0.021523
   9 C :   -0.042101
  10 H :    0.028352
  11 H :    0.018545
  12 C :   -0.069070
  13 H :    0.031376
  14 H :    0.016597
  15 H :    0.024057
  16 S :    0.380248
  17 C :   -0.176594
  18 C :   -0.066027
  19 C :   -0.047072
  20 C :   -0.198796
  21 H :    0.023518
  22 C :   -0.033422
  23 H :    0.030188
  24 H :    0.042883
  25 C :   -0.038630
  26 H :    0.031750
  27 H :    0.023382
  28 C :   -0.066424
  29 H :    0.023329
  30 H :    0.025516
  31 H :    0.025398
  32 H :    0.011324
  33 H :    0.032285

  Mayer bond orders larger than 0.100000
B(  0-S ,  1-C ) :   1.1387 B(  0-S ,  4-C ) :   1.1284 B(  1-C ,  2-C ) :   1.6330
B(  1-C ,  4-C ) :   0.1015 B(  1-C , 32-H ) :   0.9701 B(  2-C ,  3-C ) :   1.2368
B(  2-C ,  6-C ) :   0.9948 B(  3-C ,  4-C ) :   1.5942 B(  3-C ,  5-H ) :   0.9868
B(  4-C , 20-C ) :   1.0431 B(  6-C ,  7-H ) :   0.9480 B(  6-C ,  8-H ) :   0.9532
B(  6-C ,  9-C ) :   1.0704 B(  9-C , 10-H ) :   0.9558 B(  9-C , 11-H ) :   0.9573
B(  9-C , 12-C ) :   1.0887 B( 12-C , 13-H ) :   0.9698 B( 12-C , 14-H ) :   0.9689
B( 12-C , 15-H ) :   0.9741 B( 16-S , 17-C ) :   1.1443 B( 16-S , 20-C ) :   1.1434
B( 17-C , 18-C ) :   1.6002 B( 17-C , 20-C ) :   0.1001 B( 17-C , 33-H ) :   0.9718
B( 18-C , 19-C ) :   1.2217 B( 18-C , 21-H ) :   0.9924 B( 19-C , 20-C ) :   1.6001
B( 19-C , 22-C ) :   1.0348 B( 22-C , 23-H ) :   0.9326 B( 22-C , 24-H ) :   0.9341
B( 22-C , 25-C ) :   1.0500 B( 25-C , 26-H ) :   0.9547 B( 25-C , 27-H ) :   0.9658
B( 25-C , 28-C ) :   1.0706 B( 28-C , 29-H ) :   0.9803 B( 28-C , 30-H ) :   0.9778
B( 28-C , 31-H ) :   0.9785

Dispersion correction           -0.014303794
FINAL SINGLE POINT ENERGY     -1339.873193560686

DIPOLE MOMENT
-------------
                                X             Y             Z
Electronic contribution:     26.35316     -13.81195       1.65716
Nuclear contribution   :    -26.81330      14.13537      -1.48297
                        -----------------------------------------
Total Dipole Moment    :     -0.46014       0.32342       0.17419
                        -----------------------------------------
Magnitude (a.u.)       :      0.58879
Magnitude (Debye)      :      1.49658

Rotational constants in cm-1:     0.017444     0.009180     0.006812
Rotational constants in MHz :   522.955405   275.195001   204.230561

                             ****ORCA TERMINATED NORMALLY****
TOTAL RUN TIME: 0 days 0 hours 0 minutes 20 seconds 300 msec
