                         Program Version 4.2.1 -  RELEASE  -
|  1> ! wB97X-D3 SP def2-SVP
|  2> %pal
|  3> nprocs 24
|  4> end
|  5>
|  6> * xyz 0 1
|  7> S 	 -31.8619 	 -5.3342 	 7.62796
|  8> C 	 -31.0926 	 -4.22391 	 8.81571
|  9> C 	 -32.0003 	 -3.86959 	 9.83313
| 10> C 	 -33.2563 	 -4.50587 	 9.6215
| 11> C 	 -33.4089 	 -5.35504 	 8.55528
| 12> H 	 -34.1273 	 -4.44953 	 10.319
| 13> C 	 -31.5767 	 -3.13671 	 11.0693
| 14> H 	 -30.5866 	 -3.60328 	 11.2643
| 15> H 	 -32.2005 	 -3.42132 	 11.9527
| 16> C 	 -31.237 	 -1.65929 	 10.8907
| 17> H 	 -30.4226 	 -1.67795 	 10.1868
| 18> H 	 -32.0667 	 -1.18038 	 10.3802
| 19> C 	 -30.8748 	 -0.845139 	 12.1916
| 20> H 	 -29.9991 	 -1.22357 	 12.686
| 21> H 	 -30.8437 	 0.28555 	 12.0261
| 22> H 	 -31.7481 	 -1.02258 	 12.8915
| 23> S 	 -34.0373 	 -7.87471 	 7.82361
| 24> C 	 -35.7852 	 -8.28994 	 7.79078
| 25> C 	 -36.5974 	 -7.22933 	 8.02195
| 26> C 	 -35.8701 	 -6.05019 	 8.35983
| 27> C 	 -34.4936 	 -6.22807 	 8.31282
| 28> H 	 -37.6812 	 -7.39192 	 7.8375
| 29> C 	 -36.5874 	 -4.72345 	 8.55506
| 30> H 	 -37.3505 	 -4.61829 	 7.79652
| 31> H 	 -35.7799 	 -4.00829 	 8.398
| 32> C 	 -37.2639 	 -4.77266 	 9.93861
| 33> H 	 -36.3676 	 -4.95533 	 10.714
| 34> H 	 -37.9454 	 -5.54031 	 10.0808
| 35> C 	 -37.9741 	 -3.49299 	 10.3444
| 36> H 	 -39.0654 	 -3.6688 	 10.0996
| 37> H 	 -37.7057 	 -2.62597 	 9.75042
| 38> H 	 -37.8264 	 -3.36356 	 11.4205
| 39> H 	 -30.097 	 -3.76788 	 8.67159
| 40> H 	 -36.1049 	 -9.24549 	 7.5879
| 41> *
| 42>
| 43>                          ****END OF INPUT****

CARTESIAN COORDINATES (ANGSTROEM)
---------------------------------
  S    -31.861900   -5.334200    7.627960
  C    -31.092600   -4.223910    8.815710
  C    -32.000300   -3.869590    9.833130
  C    -33.256300   -4.505870    9.621500
  C    -33.408900   -5.355040    8.555280
  H    -34.127300   -4.449530   10.319000
  C    -31.576700   -3.136710   11.069300
  H    -30.586600   -3.603280   11.264300
  H    -32.200500   -3.421320   11.952700
  C    -31.237000   -1.659290   10.890700
  H    -30.422600   -1.677950   10.186800
  H    -32.066700   -1.180380   10.380200
  C    -30.874800   -0.845139   12.191600
  H    -29.999100   -1.223570   12.686000
  H    -30.843700    0.285550   12.026100
  H    -31.748100   -1.022580   12.891500
  S    -34.037300   -7.874710    7.823610
  C    -35.785200   -8.289940    7.790780
  C    -36.597400   -7.229330    8.021950
  C    -35.870100   -6.050190    8.359830
  C    -34.493600   -6.228070    8.312820
  H    -37.681200   -7.391920    7.837500
  C    -36.587400   -4.723450    8.555060
  H    -37.350500   -4.618290    7.796520
  H    -35.779900   -4.008290    8.398000
  C    -37.263900   -4.772660    9.938610
  H    -36.367600   -4.955330   10.714000
  H    -37.945400   -5.540310   10.080800
  C    -37.974100   -3.492990   10.344400
  H    -39.065400   -3.668800   10.099600
  H    -37.705700   -2.625970    9.750420
  H    -37.826400   -3.363560   11.420500
  H    -30.097000   -3.767880    8.671590
  H    -36.104900   -9.245490    7.587900

 Total Charge           Charge          ....    0
 Multiplicity           Mult            ....    1
 Number of Electrons    NEL             ....  134
 Basis Dimension        Dim             ....  322

ORBITAL ENERGIES
----------------

  NO   OCC          E(Eh)            E(eV)
   0   2.0000     -88.967093     -2420.9177
   1   2.0000     -88.963928     -2420.8315
   2   2.0000     -10.330038      -281.0946
   3   2.0000     -10.327102      -281.0147
   4   2.0000     -10.323363      -280.9130
   5   2.0000     -10.312987      -280.6306
   6   2.0000     -10.306429      -280.4522
   7   2.0000     -10.304439      -280.3980
   8   2.0000     -10.296501      -280.1820
   9   2.0000     -10.296094      -280.1710
  10   2.0000     -10.295912      -280.1660
  11   2.0000     -10.292836      -280.0823
  12   2.0000     -10.292405      -280.0706
  13   2.0000     -10.291816      -280.0546
  14   2.0000     -10.289282      -279.9856
  15   2.0000     -10.280058      -279.7346
  16   2.0000      -8.080100      -219.8707
  17   2.0000      -8.077908      -219.8110
  18   2.0000      -6.038808      -164.3243
  19   2.0000      -6.036496      -164.2614
  20   2.0000      -6.034857      -164.2168
  21   2.0000      -6.032755      -164.1596
  22   2.0000      -6.030734      -164.1046
  23   2.0000      -6.028393      -164.0409
  24   2.0000      -1.003321       -27.3018
  25   2.0000      -0.977070       -26.5874
  26   2.0000      -0.912935       -24.8422
  27   2.0000      -0.910229       -24.7686
  28   2.0000      -0.872298       -23.7364
  29   2.0000      -0.851908       -23.1816
  30   2.0000      -0.840955       -22.8835
  31   2.0000      -0.816608       -22.2210
  32   2.0000      -0.780979       -21.2515
  33   2.0000      -0.767988       -20.8980
  34   2.0000      -0.707794       -19.2601
  35   2.0000      -0.703116       -19.1328
  36   2.0000      -0.695004       -18.9120
  37   2.0000      -0.664045       -18.0696
  38   2.0000      -0.638759       -17.3815
  39   2.0000      -0.614418       -16.7192
  40   2.0000      -0.593457       -16.1488
  41   2.0000      -0.569902       -15.5078
  42   2.0000      -0.566519       -15.4158
  43   2.0000      -0.557799       -15.1785
  44   2.0000      -0.538714       -14.6592
  45   2.0000      -0.526193       -14.3184
  46   2.0000      -0.519319       -14.1314
  47   2.0000      -0.510125       -13.8812
  48   2.0000      -0.505133       -13.7454
  49   2.0000      -0.496673       -13.5152
  50   2.0000      -0.494439       -13.4544
  51   2.0000      -0.477775       -13.0009
  52   2.0000      -0.468338       -12.7441
  53   2.0000      -0.463626       -12.6159
  54   2.0000      -0.461129       -12.5480
  55   2.0000      -0.447228       -12.1697
  56   2.0000      -0.444218       -12.0878
  57   2.0000      -0.436687       -11.8829
  58   2.0000      -0.431255       -11.7351
  59   2.0000      -0.420840       -11.4516
  60   2.0000      -0.418518       -11.3885
  61   2.0000      -0.415522       -11.3069
  62   2.0000      -0.409568       -11.1449
  63   2.0000      -0.355177        -9.6649
  64   2.0000      -0.332690        -9.0529
  65   2.0000      -0.329053        -8.9540
  66   2.0000      -0.283139        -7.7046
  67   0.0000       0.020934         0.5696
  68   0.0000       0.065681         1.7873
  69   0.0000       0.104391         2.8406
  70   0.0000       0.120444         3.2774
  71   0.0000       0.126457         3.4411

MULLIKEN ATOMIC CHARGES
-----------------------
   0 S :    0.094621
   1 C :   -0.141697
   2 C :   -0.064356
   3 C :   -0.000928
   4 C :   -0.144873
   5 H :    0.013521
   6 C :    0.033444
   7 H :    0.034773
   8 H :    0.034109
   9 C :   -0.066294
  10 H :    0.018207
  11 H :    0.030133
  12 C :   -0.068561
  13 H :    0.036481
  14 H :    0.056893
  15 H :    0.034556
  16 S :    0.087515
  17 C :   -0.062223
  18 C :   -0.031391
  19 C :   -0.053882
  20 C :   -0.145119
  21 H :    0.037157
  22 C :    0.102606
  23 H :    0.024807
  24 H :    0.037400
  25 C :   -0.134602
  26 H :    0.039856
  27 H :    0.022662
  28 C :   -0.026177
  29 H :    0.033102
  30 H :    0.032988
  31 H :    0.045219
  32 H :    0.068890
  33 H :    0.021167
Sum of atomic charges:    0.0000000

LOEWDIN ATOMIC CHARGES
----------------------
   0 S :    0.362153
   1 C :   -0.184508
   2 C :   -0.063178
   3 C :   -0.069753
   4 C :   -0.183101
   5 H :    0.034179
   6 C :   -0.040798
   7 H :    0.039601
   8 H :    0.032698
   9 C :   -0.040256
  10 H :    0.018190
  11 H :    0.022605
  12 C :   -0.071622
  13 H :    0.020820
  14 H :    0.038315
  15 H :    0.030811
  16 S :    0.368945
  17 C :   -0.147798
  18 C :   -0.071702
  19 C :   -0.049800
  20 C :   -0.186654
  21 H :    0.043508
  22 C :   -0.025056
  23 H :    0.028339
  24 H :    0.033233
  25 C :   -0.041816
  26 H :    0.030057
  27 H :    0.014142
  28 C :   -0.070851
  29 H :    0.031304
  30 H :    0.023713
  31 H :    0.030914
  32 H :    0.034226
  33 H :    0.009137

  Mayer bond orders larger than 0.100000
B(  0-S ,  1-C ) :   1.1315 B(  0-S ,  4-C ) :   1.1143 B(  1-C ,  2-C ) :   1.5939
B(  1-C ,  4-C ) :   0.1033 B(  1-C , 32-H ) :   0.9609 B(  2-C ,  3-C ) :   1.2559
B(  2-C ,  6-C ) :   1.0156 B(  3-C ,  4-C ) :   1.5740 B(  3-C ,  5-H ) :   0.9819
B(  4-C , 20-C ) :   1.0999 B(  6-C ,  7-H ) :   0.9429 B(  6-C ,  8-H ) :   0.9486
B(  6-C ,  9-C ) :   1.0435 B(  9-C , 10-H ) :   0.9578 B(  9-C , 11-H ) :   0.9618
B(  9-C , 12-C ) :   1.0701 B( 12-C , 13-H ) :   0.9769 B( 12-C , 14-H ) :   0.9757
B( 12-C , 15-H ) :   0.9758 B( 16-S , 17-C ) :   1.1298 B( 16-S , 20-C ) :   1.1106
B( 17-C , 18-C ) :   1.6572 B( 17-C , 33-H ) :   0.9761 B( 18-C , 19-C ) :   1.1963
B( 18-C , 21-H ) :   0.9831 B( 19-C , 20-C ) :   1.6155 B( 19-C , 22-C ) :   1.0388
B( 22-C , 23-H ) :   0.9344 B( 22-C , 24-H ) :   0.9331 B( 22-C , 25-C ) :   1.0534
B( 25-C , 26-H ) :   0.9580 B( 25-C , 27-H ) :   0.9630 B( 25-C , 28-C ) :   1.0650
B( 28-C , 29-H ) :   0.9765 B( 28-C , 30-H ) :   0.9756 B( 28-C , 31-H ) :   0.9772

Dispersion correction           -0.013703882
FINAL SINGLE POINT ENERGY     -1339.861395803442

DIPOLE MOMENT
-------------
                                X             Y             Z
Electronic contribution:      7.68967     -23.46714     -19.29054
Nuclear contribution   :     -8.10975      23.81608      19.68347
                        -----------------------------------------
Total Dipole Moment    :     -0.42008       0.34894       0.39293
                        -----------------------------------------
Magnitude (a.u.)       :      0.67277
Magnitude (Debye)      :      1.71005

Rotational constants in cm-1:     0.017878     0.008408     0.006041
Rotational constants in MHz :   535.967819   252.076633   181.103505

                             ****ORCA TERMINATED NORMALLY****
TOTAL RUN TIME: 0 days 0 hours 0 minutes 22 seconds 331 msec
