                         Program Version 4.2.1 -  RELEASE  -
|  1> ! wB97X-D3 SP def2-SVP
|  2> %pal
|  3> nprocs 24
|  4> end
|  5>
|  6> * xyz 0 1
|  7> S 	 -108.282 	 43.5976 	 -9.38257
|  8> C 	 -108.371 	 44.0048 	 -7.76518
|  9> C 	 -109.491 	 44.8408 	 -7.49216
| 10> C 	 -110.133 	 45.1428 	 -8.71647
| 11> C 	 -109.701 	 44.4742 	 -9.79708
| 12> H 	 -110.931 	 45.8736 	 -8.7944
| 13> C 	 -109.934 	 45.5315 	 -6.22651
| 14> H 	 -110.43 	 44.8138 	 -5.54043
| 15> H 	 -110.658 	 46.2924 	 -6.37522
| 16> C 	 -108.775 	 46.1196 	 -5.46276
| 17> H 	 -109.186 	 46.5143 	 -4.4994
| 18> H 	 -108.071 	 45.3088 	 -5.25899
| 19> C 	 -108.171 	 47.2608 	 -6.18086
| 20> H 	 -107.529 	 46.7229 	 -6.95089
| 21> H 	 -108.842 	 47.9047 	 -6.70756
| 22> H 	 -107.54 	 47.6777 	 -5.44431
| 23> S 	 -110.367 	 42.5888 	 -11.6777
| 24> C 	 -111.234 	 43.1081 	 -13.1218
| 25> C 	 -111.409 	 44.4545 	 -13.1739
| 26> C 	 -111.047 	 45.1425 	 -12.0049
| 27> C 	 -110.316 	 44.3347 	 -11.1109
| 28> H 	 -111.928 	 44.861 	 -14.0773
| 29> C 	 -111.223 	 46.6355 	 -11.8959
| 30> H 	 -111.567 	 46.8742 	 -10.9151
| 31> H 	 -111.873 	 46.9865 	 -12.5997
| 32> C 	 -109.959 	 47.3752 	 -12.1482
| 33> H 	 -109.3 	 46.9584 	 -12.9199
| 34> H 	 -109.36 	 47.2837 	 -11.2382
| 35> C 	 -110.017 	 48.8603 	 -12.5108
| 36> H 	 -109.023 	 49.3045 	 -12.5159
| 37> H 	 -110.554 	 49.372 	 -11.7323
| 38> H 	 -110.581 	 49.0733 	 -13.4152
| 39> H 	 -107.698 	 43.7873 	 -6.87712
| 40> H 	 -111.584 	 42.3715 	 -13.8258
| 41> *
| 42>
| 43>                          ****END OF INPUT****

CARTESIAN COORDINATES (ANGSTROEM)
---------------------------------
  S    -108.282000   43.597600   -9.382570
  C    -108.371000   44.004800   -7.765180
  C    -109.491000   44.840800   -7.492160
  C    -110.133000   45.142800   -8.716470
  C    -109.701000   44.474200   -9.797080
  H    -110.931000   45.873600   -8.794400
  C    -109.934000   45.531500   -6.226510
  H    -110.430000   44.813800   -5.540430
  H    -110.658000   46.292400   -6.375220
  C    -108.775000   46.119600   -5.462760
  H    -109.186000   46.514300   -4.499400
  H    -108.071000   45.308800   -5.258990
  C    -108.171000   47.260800   -6.180860
  H    -107.529000   46.722900   -6.950890
  H    -108.842000   47.904700   -6.707560
  H    -107.540000   47.677700   -5.444310
  S    -110.367000   42.588800  -11.677700
  C    -111.234000   43.108100  -13.121800
  C    -111.409000   44.454500  -13.173900
  C    -111.047000   45.142500  -12.004900
  C    -110.316000   44.334700  -11.110900
  H    -111.928000   44.861000  -14.077300
  C    -111.223000   46.635500  -11.895900
  H    -111.567000   46.874200  -10.915100
  H    -111.873000   46.986500  -12.599700
  C    -109.959000   47.375200  -12.148200
  H    -109.300000   46.958400  -12.919900
  H    -109.360000   47.283700  -11.238200
  C    -110.017000   48.860300  -12.510800
  H    -109.023000   49.304500  -12.515900
  H    -110.554000   49.372000  -11.732300
  H    -110.581000   49.073300  -13.415200
  H    -107.698000   43.787300   -6.877120
  H    -111.584000   42.371500  -13.825800

 Total Charge           Charge          ....    0
 Multiplicity           Mult            ....    1
 Number of Electrons    NEL             ....  134
 Basis Dimension        Dim             ....  322

ORBITAL ENERGIES
----------------

  NO   OCC          E(Eh)            E(eV)
   0   2.0000     -88.970410     -2421.0079
   1   2.0000     -88.962746     -2420.7994
   2   2.0000     -10.335532      -281.2441
   3   2.0000     -10.322792      -280.8974
   4   2.0000     -10.317243      -280.7465
   5   2.0000     -10.315138      -280.6892
   6   2.0000     -10.306971      -280.4669
   7   2.0000     -10.300057      -280.2788
   8   2.0000     -10.294081      -280.1162
   9   2.0000     -10.287099      -279.9262
  10   2.0000     -10.285688      -279.8878
  11   2.0000     -10.282143      -279.7913
  12   2.0000     -10.281852      -279.7834
  13   2.0000     -10.277714      -279.6708
  14   2.0000     -10.274067      -279.5716
  15   2.0000     -10.269389      -279.4443
  16   2.0000      -8.086604      -220.0477
  17   2.0000      -8.076418      -219.7705
  18   2.0000      -6.044989      -164.4925
  19   2.0000      -6.040769      -164.3777
  20   2.0000      -6.037518      -164.2892
  21   2.0000      -6.034920      -164.2185
  22   2.0000      -6.031169      -164.1164
  23   2.0000      -6.027143      -164.0069
  24   2.0000      -1.016241       -27.6533
  25   2.0000      -0.985036       -26.8042
  26   2.0000      -0.925838       -25.1933
  27   2.0000      -0.917450       -24.9651
  28   2.0000      -0.870110       -23.6769
  29   2.0000      -0.858202       -23.3529
  30   2.0000      -0.848966       -23.1015
  31   2.0000      -0.813941       -22.1485
  32   2.0000      -0.788774       -21.4636
  33   2.0000      -0.775795       -21.1104
  34   2.0000      -0.706476       -19.2242
  35   2.0000      -0.697289       -18.9742
  36   2.0000      -0.688162       -18.7259
  37   2.0000      -0.664968       -18.0947
  38   2.0000      -0.636531       -17.3209
  39   2.0000      -0.617946       -16.8152
  40   2.0000      -0.602681       -16.3998
  41   2.0000      -0.583445       -15.8764
  42   2.0000      -0.573705       -15.6113
  43   2.0000      -0.560653       -15.2561
  44   2.0000      -0.542004       -14.7487
  45   2.0000      -0.527823       -14.3628
  46   2.0000      -0.522230       -14.2106
  47   2.0000      -0.515756       -14.0344
  48   2.0000      -0.502919       -13.6851
  49   2.0000      -0.500704       -13.6249
  50   2.0000      -0.498971       -13.5777
  51   2.0000      -0.486229       -13.2310
  52   2.0000      -0.473965       -12.8973
  53   2.0000      -0.463746       -12.6192
  54   2.0000      -0.462164       -12.5761
  55   2.0000      -0.447060       -12.1651
  56   2.0000      -0.441257       -12.0072
  57   2.0000      -0.436966       -11.8905
  58   2.0000      -0.429636       -11.6910
  59   2.0000      -0.427340       -11.6285
  60   2.0000      -0.417990       -11.3741
  61   2.0000      -0.409649       -11.1471
  62   2.0000      -0.407193       -11.0803
  63   2.0000      -0.356509        -9.7011
  64   2.0000      -0.333249        -9.0682
  65   2.0000      -0.328675        -8.9437
  66   2.0000      -0.282874        -7.6974
  67   0.0000       0.027390         0.7453
  68   0.0000       0.065309         1.7772
  69   0.0000       0.110053         2.9947
  70   0.0000       0.119915         3.2630
  71   0.0000       0.131418         3.5761

MULLIKEN ATOMIC CHARGES
-----------------------
   0 S :    0.145205
   1 C :   -0.126677
   2 C :   -0.129787
   3 C :    0.006519
   4 C :   -0.131679
   5 H :   -0.001299
   6 C :    0.096350
   7 H :    0.037868
   8 H :    0.008391
   9 C :   -0.127377
  10 H :    0.024041
  11 H :    0.026950
  12 C :   -0.007231
  13 H :    0.037449
  14 H :    0.029473
  15 H :    0.029358
  16 S :    0.075308
  17 C :   -0.092238
  18 C :   -0.045016
  19 C :   -0.046898
  20 C :   -0.137370
  21 H :    0.035693
  22 C :    0.181501
  23 H :    0.013974
  24 H :   -0.019832
  25 C :   -0.110792
  26 H :    0.031736
  27 H :    0.025243
  28 C :   -0.032803
  29 H :    0.039372
  30 H :    0.010421
  31 H :    0.030708
  32 H :    0.066875
  33 H :    0.056566
Sum of atomic charges:    0.0000000

LOEWDIN ATOMIC CHARGES
----------------------
   0 S :    0.464239
   1 C :   -0.244767
   2 C :   -0.062667
   3 C :   -0.068323
   4 C :   -0.215000
   5 H :    0.026791
   6 C :   -0.032184
   7 H :    0.037544
   8 H :    0.022656
   9 C :   -0.044598
  10 H :    0.022204
  11 H :    0.020661
  12 C :   -0.061942
  13 H :    0.035992
  14 H :    0.021637
  15 H :    0.023020
  16 S :    0.362359
  17 C :   -0.173128
  18 C :   -0.079572
  19 C :   -0.047516
  20 C :   -0.161501
  21 H :    0.042331
  22 C :   -0.018943
  23 H :    0.028500
  24 H :    0.016851
  25 C :   -0.044589
  26 H :    0.026141
  27 H :    0.025128
  28 C :   -0.064174
  29 H :    0.031497
  30 H :    0.018006
  31 H :    0.022013
  32 H :    0.044568
  33 H :    0.026770

  Mayer bond orders larger than 0.100000
B(  0-S ,  1-C ) :   1.1710 B(  0-S ,  4-C ) :   1.1646 B(  1-C ,  2-C ) :   1.5568
B(  1-C , 32-H ) :   0.9550 B(  2-C ,  3-C ) :   1.2964 B(  2-C ,  6-C ) :   1.0165
B(  3-C ,  4-C ) :   1.5490 B(  3-C ,  5-H ) :   0.9966 B(  4-C , 20-C ) :   1.0420
B(  6-C ,  7-H ) :   0.9264 B(  6-C ,  8-H ) :   0.9463 B(  6-C ,  9-C ) :   1.0893
B(  9-C , 10-H ) :   0.9538 B(  9-C , 11-H ) :   0.9536 B(  9-C , 12-C ) :   1.0704
B( 12-C , 13-H ) :   0.9688 B( 12-C , 14-H ) :   0.9761 B( 12-C , 15-H ) :   0.9726
B( 16-S , 17-C ) :   1.1471 B( 16-S , 20-C ) :   1.1275 B( 17-C , 18-C ) :   1.6230
B( 17-C , 20-C ) :   0.1108 B( 17-C , 33-H ) :   0.9677 B( 18-C , 19-C ) :   1.2332
B( 18-C , 21-H ) :   0.9809 B( 19-C , 20-C ) :   1.5814 B( 19-C , 22-C ) :   1.0648
B( 22-C , 23-H ) :   0.9183 B( 22-C , 24-H ) :   0.9198 B( 22-C , 25-C ) :   1.0635
B( 25-C , 26-H ) :   0.9583 B( 25-C , 27-H ) :   0.9493 B( 25-C , 28-C ) :   1.0940
B( 28-C , 29-H ) :   0.9721 B( 28-C , 30-H ) :   0.9714 B( 28-C , 31-H ) :   0.9739

Dispersion correction           -0.014353407
FINAL SINGLE POINT ENERGY     -1339.859790567439

DIPOLE MOMENT
-------------
                                X             Y             Z
Electronic contribution:     -0.04578     -26.24829      -9.19962
Nuclear contribution   :     -0.21513      26.80172       9.36001
                        -----------------------------------------
Total Dipole Moment    :     -0.26091       0.55344       0.16039
                        -----------------------------------------
Magnitude (a.u.)       :      0.63253
Magnitude (Debye)      :      1.60776

Rotational constants in cm-1:     0.018877     0.009087     0.006799
Rotational constants in MHz :   565.924266   272.411169   203.842375

                             ****ORCA TERMINATED NORMALLY****
TOTAL RUN TIME: 0 days 0 hours 0 minutes 22 seconds 134 msec
