                         Program Version 4.2.1 -  RELEASE  -
|  1> ! wB97X-D3 SP def2-SVP
|  2> %pal
|  3> nprocs 24
|  4> end
|  5>
|  6> * xyz 0 1
|  7> S 	 -42.3558 	 17.2539 	 26.5403
|  8> C 	 -43.4503 	 18.3184 	 25.7205
|  9> C 	 -44.3959 	 18.777 	 26.6288
| 10> C 	 -44.308 	 18.1558 	 27.9074
| 11> C 	 -43.3216 	 17.2147 	 27.9853
| 12> H 	 -44.9258 	 18.3707 	 28.7825
| 13> C 	 -45.4054 	 19.9328 	 26.3847
| 14> H 	 -46.1268 	 20.0999 	 27.233
| 15> H 	 -45.9561 	 19.5896 	 25.4935
| 16> C 	 -44.7505 	 21.3159 	 26.0643
| 17> H 	 -43.6706 	 21.2386 	 25.8675
| 18> H 	 -45.1738 	 21.5266 	 25.057
| 19> C 	 -44.9939 	 22.2365 	 27.2365
| 20> H 	 -44.4907 	 21.8604 	 28.1649
| 21> H 	 -44.5899 	 23.3006 	 27.0906
| 22> H 	 -45.9704 	 22.4575 	 27.4901
| 23> S 	 -42.7462 	 14.6213 	 28.6342
| 24> C 	 -42.7168 	 14.1209 	 30.3398
| 25> C 	 -43.0109 	 15.1516 	 31.1544
| 26> C 	 -43.1676 	 16.3792 	 30.465
| 27> C 	 -43.0684 	 16.2588 	 29.0816
| 28> H 	 -43.1412 	 14.982 	 32.1648
| 29> C 	 -43.5474 	 17.689 	 31.1456
| 30> H 	 -43.1343 	 18.5153 	 30.629
| 31> H 	 -43.0341 	 17.6322 	 32.1348
| 32> C 	 -45.0174 	 17.8955 	 31.4716
| 33> H 	 -45.3653 	 17.18 	 32.217
| 34> H 	 -45.6407 	 17.5856 	 30.6502
| 35> C 	 -45.1718 	 19.3642 	 31.8836
| 36> H 	 -44.8832 	 19.631 	 32.9435
| 37> H 	 -46.2266 	 19.7217 	 31.8049
| 38> H 	 -44.6476 	 19.9866 	 31.1458
| 39> H 	 -43.1687 	 18.8702 	 24.8433
| 40> H 	 -42.6912 	 13.0888 	 30.6855
| 41> *
| 42>
| 43>                          ****END OF INPUT****

CARTESIAN COORDINATES (ANGSTROEM)
---------------------------------
  S    -42.355800   17.253900   26.540300
  C    -43.450300   18.318400   25.720500
  C    -44.395900   18.777000   26.628800
  C    -44.308000   18.155800   27.907400
  C    -43.321600   17.214700   27.985300
  H    -44.925800   18.370700   28.782500
  C    -45.405400   19.932800   26.384700
  H    -46.126800   20.099900   27.233000
  H    -45.956100   19.589600   25.493500
  C    -44.750500   21.315900   26.064300
  H    -43.670600   21.238600   25.867500
  H    -45.173800   21.526600   25.057000
  C    -44.993900   22.236500   27.236500
  H    -44.490700   21.860400   28.164900
  H    -44.589900   23.300600   27.090600
  H    -45.970400   22.457500   27.490100
  S    -42.746200   14.621300   28.634200
  C    -42.716800   14.120900   30.339800
  C    -43.010900   15.151600   31.154400
  C    -43.167600   16.379200   30.465000
  C    -43.068400   16.258800   29.081600
  H    -43.141200   14.982000   32.164800
  C    -43.547400   17.689000   31.145600
  H    -43.134300   18.515300   30.629000
  H    -43.034100   17.632200   32.134800
  C    -45.017400   17.895500   31.471600
  H    -45.365300   17.180000   32.217000
  H    -45.640700   17.585600   30.650200
  C    -45.171800   19.364200   31.883600
  H    -44.883200   19.631000   32.943500
  H    -46.226600   19.721700   31.804900
  H    -44.647600   19.986600   31.145800
  H    -43.168700   18.870200   24.843300
  H    -42.691200   13.088800   30.685500

 Total Charge           Charge          ....    0
 Multiplicity           Mult            ....    1
 Number of Electrons    NEL             ....  134
 Basis Dimension        Dim             ....  322

ORBITAL ENERGIES
----------------

  NO   OCC          E(Eh)            E(eV)
   0   2.0000     -88.965539     -2420.8754
   1   2.0000     -88.963917     -2420.8313
   2   2.0000     -10.329750      -281.0868
   3   2.0000     -10.326714      -281.0042
   4   2.0000     -10.315028      -280.6862
   5   2.0000     -10.311343      -280.5859
   6   2.0000     -10.304257      -280.3931
   7   2.0000     -10.300321      -280.2860
   8   2.0000     -10.298041      -280.2239
   9   2.0000     -10.292058      -280.0611
  10   2.0000     -10.291396      -280.0431
  11   2.0000     -10.289424      -279.9895
  12   2.0000     -10.288076      -279.9528
  13   2.0000     -10.287954      -279.9495
  14   2.0000     -10.286524      -279.9106
  15   2.0000     -10.283296      -279.8227
  16   2.0000      -8.080712      -219.8874
  17   2.0000      -8.078729      -219.8334
  18   2.0000      -6.039182      -164.3345
  19   2.0000      -6.037253      -164.2820
  20   2.0000      -6.035141      -164.2245
  21   2.0000      -6.033233      -164.1726
  22   2.0000      -6.031499      -164.1254
  23   2.0000      -6.029447      -164.0696
  24   2.0000      -1.010792       -27.5050
  25   2.0000      -0.988586       -26.9008
  26   2.0000      -0.913906       -24.8687
  27   2.0000      -0.908798       -24.7297
  28   2.0000      -0.873173       -23.7602
  29   2.0000      -0.851219       -23.1628
  30   2.0000      -0.845168       -22.9982
  31   2.0000      -0.819807       -22.3081
  32   2.0000      -0.778300       -21.1786
  33   2.0000      -0.767622       -20.8880
  34   2.0000      -0.709345       -19.3023
  35   2.0000      -0.705919       -19.2090
  36   2.0000      -0.696801       -18.9609
  37   2.0000      -0.667657       -18.1679
  38   2.0000      -0.641571       -17.4580
  39   2.0000      -0.618225       -16.8227
  40   2.0000      -0.598938       -16.2979
  41   2.0000      -0.574444       -15.6314
  42   2.0000      -0.566340       -15.4109
  43   2.0000      -0.558593       -15.2001
  44   2.0000      -0.532401       -14.4874
  45   2.0000      -0.524669       -14.2770
  46   2.0000      -0.520316       -14.1585
  47   2.0000      -0.508462       -13.8360
  48   2.0000      -0.502153       -13.6643
  49   2.0000      -0.499305       -13.5868
  50   2.0000      -0.487031       -13.2528
  51   2.0000      -0.481828       -13.1112
  52   2.0000      -0.474271       -12.9056
  53   2.0000      -0.466149       -12.6846
  54   2.0000      -0.460489       -12.5305
  55   2.0000      -0.454468       -12.3667
  56   2.0000      -0.450417       -12.2565
  57   2.0000      -0.444059       -12.0835
  58   2.0000      -0.429859       -11.6971
  59   2.0000      -0.425970       -11.5912
  60   2.0000      -0.419985       -11.4284
  61   2.0000      -0.413265       -11.2455
  62   2.0000      -0.405714       -11.0401
  63   2.0000      -0.356967        -9.7136
  64   2.0000      -0.331289        -9.0148
  65   2.0000      -0.327899        -8.9226
  66   2.0000      -0.290586        -7.9072
  67   0.0000       0.027498         0.7483
  68   0.0000       0.073904         2.0110
  69   0.0000       0.111997         3.0476
  70   0.0000       0.119574         3.2538
  71   0.0000       0.125229         3.4077

MULLIKEN ATOMIC CHARGES
-----------------------
   0 S :    0.110383
   1 C :   -0.108080
   2 C :   -0.094493
   3 C :    0.016721
   4 C :   -0.133233
   5 H :   -0.005542
   6 C :    0.017573
   7 H :    0.038345
   8 H :    0.043351
   9 C :   -0.052896
  10 H :    0.037744
  11 H :    0.031613
  12 C :   -0.070594
  13 H :    0.042874
  14 H :    0.034789
  15 H :    0.020844
  16 S :    0.099916
  17 C :   -0.087905
  18 C :   -0.004285
  19 C :   -0.043984
  20 C :   -0.133330
  21 H :   -0.009723
  22 C :    0.043130
  23 H :    0.022247
  24 H :    0.024718
  25 C :   -0.049043
  26 H :    0.019894
  27 H :    0.028404
  28 C :   -0.065273
  29 H :    0.051652
  30 H :    0.032525
  31 H :    0.031456
  32 H :    0.051982
  33 H :    0.058221
Sum of atomic charges:   -0.0000000

LOEWDIN ATOMIC CHARGES
----------------------
   0 S :    0.418981
   1 C :   -0.211826
   2 C :   -0.057751
   3 C :   -0.073692
   4 C :   -0.191914
   5 H :    0.032316
   6 C :   -0.033324
   7 H :    0.034011
   8 H :    0.035631
   9 C :   -0.047376
  10 H :    0.026740
  11 H :    0.028738
  12 C :   -0.071013
  13 H :    0.034046
  14 H :    0.033216
  15 H :    0.011705
  16 S :    0.403359
  17 C :   -0.174064
  18 C :   -0.062910
  19 C :   -0.060184
  20 C :   -0.200263
  21 H :    0.022481
  22 C :   -0.032568
  23 H :    0.022448
  24 H :    0.036468
  25 C :   -0.045038
  26 H :    0.026183
  27 H :    0.019254
  28 C :   -0.071315
  29 H :    0.035052
  30 H :    0.028483
  31 H :    0.024876
  32 H :    0.026518
  33 H :    0.032733

  Mayer bond orders larger than 0.100000
B(  0-S ,  1-C ) :   1.1378 B(  0-S ,  4-C ) :   1.1748 B(  1-C ,  2-C ) :   1.5923
B(  1-C ,  4-C ) :   0.1003 B(  1-C , 32-H ) :   0.9670 B(  2-C ,  3-C ) :   1.2684
B(  2-C ,  6-C ) :   1.0113 B(  3-C ,  4-C ) :   1.5487 B(  3-C ,  5-H ) :   0.9943
B(  4-C , 20-C ) :   1.0204 B(  6-C ,  7-H ) :   0.9563 B(  6-C ,  8-H ) :   0.9458
B(  6-C ,  9-C ) :   1.0250 B(  9-C , 10-H ) :   0.9647 B(  9-C , 11-H ) :   0.9597
B(  9-C , 12-C ) :   1.0781 B( 12-C , 13-H ) :   0.9720 B( 12-C , 14-H ) :   0.9711
B( 12-C , 15-H ) :   0.9783 B( 16-S , 17-C ) :   1.1421 B( 16-S , 20-C ) :   1.1485
B( 17-C , 18-C ) :   1.6214 B( 17-C , 33-H ) :   0.9642 B( 18-C , 19-C ) :   1.2394
B( 18-C , 21-H ) :   1.0044 B( 19-C , 20-C ) :   1.5932 B( 19-C , 22-C ) :   1.0489
B( 22-C , 23-H ) :   0.9417 B( 22-C , 24-H ) :   0.9283 B( 22-C , 25-C ) :   1.0567
B( 25-C , 26-H ) :   0.9441 B( 25-C , 27-H ) :   0.9547 B( 25-C , 28-C ) :   1.0687
B( 28-C , 29-H ) :   0.9752 B( 28-C , 30-H ) :   0.9739 B( 28-C , 31-H ) :   0.9751

Dispersion correction           -0.014677591
FINAL SINGLE POINT ENERGY     -1339.873364189586

DIPOLE MOMENT
-------------
                                X             Y             Z
Electronic contribution:     15.03158     -26.68049      -9.85821
Nuclear contribution   :    -15.49771      27.18641      10.29972
                        -----------------------------------------
Total Dipole Moment    :     -0.46612       0.50592       0.44151
                        -----------------------------------------
Magnitude (a.u.)       :      0.81741
Magnitude (Debye)      :      2.07769

Rotational constants in cm-1:     0.018763     0.009574     0.006672
Rotational constants in MHz :   562.503588   287.023201   200.020873

                             ****ORCA TERMINATED NORMALLY****
TOTAL RUN TIME: 0 days 0 hours 0 minutes 22 seconds 249 msec
