                         Program Version 4.2.1 -  RELEASE  -
|  1> ! wB97X-D3 SP def2-SVP
|  2> %pal
|  3> nprocs 24
|  4> end
|  5>
|  6> * xyz 0 1
|  7> S 	 -35.1378 	 -31.0829 	 -98.3525
|  8> C 	 -33.7791 	 -30.9739 	 -99.4851
|  9> C 	 -33.8271 	 -32.0263 	 -100.411
| 10> C 	 -34.8995 	 -32.9269 	 -100.108
| 11> C 	 -35.6399 	 -32.6031 	 -98.9944
| 12> H 	 -35.0562 	 -33.8007 	 -100.697
| 13> C 	 -32.7755 	 -32.2662 	 -101.59
| 14> H 	 -32.1653 	 -33.1974 	 -101.531
| 15> H 	 -32.0489 	 -31.4744 	 -101.486
| 16> C 	 -33.4373 	 -32.0553 	 -102.981
| 17> H 	 -34.2743 	 -32.7454 	 -103.075
| 18> H 	 -33.9528 	 -31.0567 	 -103.039
| 19> C 	 -32.4546 	 -32.2034 	 -104.163
| 20> H 	 -31.508 	 -31.6918 	 -103.974
| 21> H 	 -32.2561 	 -33.2569 	 -104.371
| 22> H 	 -32.9317 	 -31.7721 	 -105.09
| 23> S 	 -38.1668 	 -32.3249 	 -98.0153
| 24> C 	 -39.2473 	 -33.6768 	 -97.984
| 25> C 	 -38.5194 	 -34.8284 	 -98.1871
| 26> C 	 -37.1488 	 -34.6473 	 -98.4673
| 27> C 	 -36.776 	 -33.3008 	 -98.5242
| 28> H 	 -39.0656 	 -35.771 	 -98.1433
| 29> C 	 -36.1453 	 -35.849 	 -98.6502
| 30> H 	 -35.4961 	 -35.5282 	 -99.4274
| 31> H 	 -36.547 	 -36.8277 	 -98.8837
| 32> C 	 -35.3218 	 -36.0831 	 -97.343
| 33> H 	 -35.9306 	 -36.0889 	 -96.4331
| 34> H 	 -34.6558 	 -35.2142 	 -97.1339
| 35> C 	 -34.5805 	 -37.4012 	 -97.367
| 36> H 	 -33.955 	 -37.4897 	 -98.2729
| 37> H 	 -35.2815 	 -38.2623 	 -97.5365
| 38> H 	 -33.9751 	 -37.613 	 -96.4486
| 39> H 	 -33.0196 	 -30.1622 	 -99.5026
| 40> H 	 -40.2791 	 -33.6613 	 -97.8922
| 41> *
| 42>
| 43>                          ****END OF INPUT****

CARTESIAN COORDINATES (ANGSTROEM)
---------------------------------
  S    -35.137800  -31.082900  -98.352500
  C    -33.779100  -30.973900  -99.485100
  C    -33.827100  -32.026300  -100.411000
  C    -34.899500  -32.926900  -100.108000
  C    -35.639900  -32.603100  -98.994400
  H    -35.056200  -33.800700  -100.697000
  C    -32.775500  -32.266200  -101.590000
  H    -32.165300  -33.197400  -101.531000
  H    -32.048900  -31.474400  -101.486000
  C    -33.437300  -32.055300  -102.981000
  H    -34.274300  -32.745400  -103.075000
  H    -33.952800  -31.056700  -103.039000
  C    -32.454600  -32.203400  -104.163000
  H    -31.508000  -31.691800  -103.974000
  H    -32.256100  -33.256900  -104.371000
  H    -32.931700  -31.772100  -105.090000
  S    -38.166800  -32.324900  -98.015300
  C    -39.247300  -33.676800  -97.984000
  C    -38.519400  -34.828400  -98.187100
  C    -37.148800  -34.647300  -98.467300
  C    -36.776000  -33.300800  -98.524200
  H    -39.065600  -35.771000  -98.143300
  C    -36.145300  -35.849000  -98.650200
  H    -35.496100  -35.528200  -99.427400
  H    -36.547000  -36.827700  -98.883700
  C    -35.321800  -36.083100  -97.343000
  H    -35.930600  -36.088900  -96.433100
  H    -34.655800  -35.214200  -97.133900
  C    -34.580500  -37.401200  -97.367000
  H    -33.955000  -37.489700  -98.272900
  H    -35.281500  -38.262300  -97.536500
  H    -33.975100  -37.613000  -96.448600
  H    -33.019600  -30.162200  -99.502600
  H    -40.279100  -33.661300  -97.892200

 Total Charge           Charge          ....    0
 Multiplicity           Mult            ....    1
 Number of Electrons    NEL             ....  134
 Basis Dimension        Dim             ....  322

ORBITAL ENERGIES
----------------

  NO   OCC          E(Eh)            E(eV)
   0   2.0000     -88.969519     -2420.9837
   1   2.0000     -88.963916     -2420.8312
   2   2.0000     -10.328913      -281.0640
   3   2.0000     -10.328607      -281.0557
   4   2.0000     -10.322302      -280.8841
   5   2.0000     -10.312150      -280.6079
   6   2.0000     -10.309812      -280.5442
   7   2.0000     -10.308950      -280.5208
   8   2.0000     -10.303495      -280.3724
   9   2.0000     -10.295550      -280.1562
  10   2.0000     -10.291987      -280.0592
  11   2.0000     -10.291868      -280.0560
  12   2.0000     -10.291798      -280.0541
  13   2.0000     -10.284914      -279.8667
  14   2.0000     -10.284494      -279.8553
  15   2.0000     -10.282718      -279.8070
  16   2.0000      -8.084206      -219.9824
  17   2.0000      -8.078853      -219.8368
  18   2.0000      -6.042765      -164.4320
  19   2.0000      -6.038725      -164.3221
  20   2.0000      -6.037384      -164.2856
  21   2.0000      -6.034913      -164.2183
  22   2.0000      -6.033256      -164.1733
  23   2.0000      -6.029644      -164.0750
  24   2.0000      -1.011062       -27.5124
  25   2.0000      -0.984032       -26.7769
  26   2.0000      -0.904500       -24.6127
  27   2.0000      -0.904130       -24.6026
  28   2.0000      -0.873491       -23.7689
  29   2.0000      -0.851306       -23.1652
  30   2.0000      -0.841321       -22.8935
  31   2.0000      -0.812771       -22.1166
  32   2.0000      -0.780730       -21.2448
  33   2.0000      -0.771081       -20.9822
  34   2.0000      -0.710949       -19.3459
  35   2.0000      -0.694370       -18.8948
  36   2.0000      -0.693291       -18.8654
  37   2.0000      -0.664328       -18.0773
  38   2.0000      -0.639433       -17.3999
  39   2.0000      -0.625754       -17.0276
  40   2.0000      -0.595974       -16.2173
  41   2.0000      -0.565586       -15.3904
  42   2.0000      -0.562257       -15.2998
  43   2.0000      -0.555305       -15.1106
  44   2.0000      -0.524000       -14.2588
  45   2.0000      -0.521953       -14.2031
  46   2.0000      -0.520414       -14.1612
  47   2.0000      -0.512043       -13.9334
  48   2.0000      -0.508501       -13.8370
  49   2.0000      -0.498769       -13.5722
  50   2.0000      -0.494499       -13.4560
  51   2.0000      -0.482654       -13.1337
  52   2.0000      -0.467896       -12.7321
  53   2.0000      -0.463039       -12.5999
  54   2.0000      -0.461258       -12.5515
  55   2.0000      -0.449899       -12.2424
  56   2.0000      -0.444116       -12.0850
  57   2.0000      -0.437537       -11.9060
  58   2.0000      -0.436135       -11.8678
  59   2.0000      -0.423502       -11.5241
  60   2.0000      -0.418233       -11.3807
  61   2.0000      -0.413890       -11.2625
  62   2.0000      -0.405150       -11.0247
  63   2.0000      -0.357764        -9.7352
  64   2.0000      -0.336018        -9.1435
  65   2.0000      -0.329928        -8.9778
  66   2.0000      -0.283300        -7.7090
  67   0.0000       0.021614         0.5881
  68   0.0000       0.072374         1.9694
  69   0.0000       0.104176         2.8348
  70   0.0000       0.122386         3.3303
  71   0.0000       0.139876         3.8062

MULLIKEN ATOMIC CHARGES
-----------------------
   0 S :    0.110125
   1 C :   -0.140131
   2 C :   -0.085942
   3 C :    0.010680
   4 C :   -0.115505
   5 H :    0.009467
   6 C :    0.061657
   7 H :    0.049439
   8 H :    0.007655
   9 C :   -0.109195
  10 H :    0.027739
  11 H :    0.040028
  12 C :   -0.050085
  13 H :    0.034276
  14 H :    0.034812
  15 H :    0.044234
  16 S :    0.093541
  17 C :   -0.061575
  18 C :   -0.050152
  19 C :   -0.036074
  20 C :   -0.142971
  21 H :    0.019480
  22 C :    0.110518
  23 H :    0.007338
  24 H :    0.014996
  25 C :   -0.079869
  26 H :    0.029037
  27 H :    0.038662
  28 C :   -0.072836
  29 H :    0.025070
  30 H :    0.027304
  31 H :    0.051444
  32 H :    0.063290
  33 H :    0.033543
Sum of atomic charges:   -0.0000000

LOEWDIN ATOMIC CHARGES
----------------------
   0 S :    0.408901
   1 C :   -0.200092
   2 C :   -0.055827
   3 C :   -0.064324
   4 C :   -0.200585
   5 H :    0.024816
   6 C :   -0.029029
   7 H :    0.035020
   8 H :    0.023518
   9 C :   -0.048413
  10 H :    0.019592
  11 H :    0.031608
  12 C :   -0.069911
  13 H :    0.024194
  14 H :    0.024869
  15 H :    0.034959
  16 S :    0.402874
  17 C :   -0.179420
  18 C :   -0.074637
  19 C :   -0.051660
  20 C :   -0.188645
  21 H :    0.033265
  22 C :   -0.017807
  23 H :    0.022835
  24 H :    0.026554
  25 C :   -0.046988
  26 H :    0.024529
  27 H :    0.029174
  28 C :   -0.077405
  29 H :    0.023166
  30 H :    0.025703
  31 H :    0.033502
  32 H :    0.036316
  33 H :    0.019344

  Mayer bond orders larger than 0.100000
B(  0-S ,  1-C ) :   1.1335 B(  0-S ,  4-C ) :   1.1440 B(  1-C ,  2-C ) :   1.6161
B(  1-C , 32-H ) :   0.9622 B(  2-C ,  3-C ) :   1.2604 B(  2-C ,  6-C ) :   1.0103
B(  3-C ,  4-C ) :   1.5512 B(  3-C ,  5-H ) :   0.9915 B(  4-C , 20-C ) :   1.0876
B(  6-C ,  7-H ) :   0.9527 B(  6-C ,  8-H ) :   0.9405 B(  6-C ,  9-C ) :   1.0472
B(  9-C , 10-H ) :   0.9615 B(  9-C , 11-H ) :   0.9570 B(  9-C , 12-C ) :   1.0767
B( 12-C , 13-H ) :   0.9757 B( 12-C , 14-H ) :   0.9754 B( 12-C , 15-H ) :   0.9752
B( 16-S , 17-C ) :   1.1593 B( 16-S , 20-C ) :   1.1342 B( 17-C , 18-C ) :   1.5887
B( 17-C , 20-C ) :   0.1095 B( 17-C , 33-H ) :   0.9785 B( 18-C , 19-C ) :   1.2641
B( 18-C , 21-H ) :   0.9929 B( 19-C , 20-C ) :   1.5605 B( 19-C , 22-C ) :   1.0330
B( 22-C , 23-H ) :   0.9274 B( 22-C , 24-H ) :   0.9479 B( 22-C , 25-C ) :   1.0527
B( 25-C , 26-H ) :   0.9582 B( 25-C , 27-H ) :   0.9526 B( 25-C , 28-C ) :   1.0843
B( 28-C , 29-H ) :   0.9726 B( 28-C , 30-H ) :   0.9713 B( 28-C , 31-H ) :   0.9729

Dispersion correction           -0.013588620
FINAL SINGLE POINT ENERGY     -1339.882557228626

DIPOLE MOMENT
-------------
                                X             Y             Z
Electronic contribution:    -17.28151      16.86884      14.70868
Nuclear contribution   :     17.50657     -17.33664     -15.12477
                        -----------------------------------------
Total Dipole Moment    :      0.22507      -0.46780      -0.41609
                        -----------------------------------------
Magnitude (a.u.)       :      0.66530
Magnitude (Debye)      :      1.69106

Rotational constants in cm-1:     0.017096     0.008122     0.006688
Rotational constants in MHz :   512.519695   243.499052   200.500938

                             ****ORCA TERMINATED NORMALLY****
TOTAL RUN TIME: 0 days 0 hours 0 minutes 20 seconds 135 msec
