                         Program Version 4.2.1 -  RELEASE  -
|  1> ! wB97X-D3 SP def2-SVP
|  2> %pal
|  3> nprocs 24
|  4> end
|  5>
|  6> * xyz 0 1
|  7> S 	 45.2304 	 -17.4712 	 -104.331
|  8> C 	 43.8732 	 -16.7263 	 -105.071
|  9> C 	 44.1926 	 -15.8586 	 -106.098
| 10> C 	 45.575 	 -15.9895 	 -106.419
| 11> C 	 46.3097 	 -16.7532 	 -105.55
| 12> H 	 45.9581 	 -15.3614 	 -107.209
| 13> C 	 43.3049 	 -15.0332 	 -107.04
| 14> H 	 42.2324 	 -15.3713 	 -106.883
| 15> H 	 43.3806 	 -15.4024 	 -108.017
| 16> C 	 43.4493 	 -13.5415 	 -107.11
| 17> H 	 43.2418 	 -13.0268 	 -106.15
| 18> H 	 44.5676 	 -13.5056 	 -107.311
| 19> C 	 42.572 	 -12.8895 	 -108.132
| 20> H 	 42.8791 	 -11.9128 	 -108.41
| 21> H 	 42.512 	 -13.4531 	 -108.963
| 22> H 	 41.4512 	 -12.7855 	 -107.943
| 23> S 	 48.5944 	 -16.5044 	 -104.053
| 24> C 	 50.1803 	 -16.9223 	 -104.682
| 25> C 	 50.0592 	 -17.456 	 -105.943
| 26> C 	 48.7282 	 -17.315 	 -106.456
| 27> C 	 47.7845 	 -16.9197 	 -105.539
| 28> H 	 50.9834 	 -17.7712 	 -106.466
| 29> C 	 48.5616 	 -17.5603 	 -107.958
| 30> H 	 49.5567 	 -17.3387 	 -108.465
| 31> H 	 47.8618 	 -16.7961 	 -108.319
| 32> C 	 48.1202 	 -18.9673 	 -108.286
| 33> H 	 48.693 	 -19.699 	 -107.814
| 34> H 	 48.2163 	 -19.1721 	 -109.39
| 35> C 	 46.7363 	 -19.274 	 -107.768
| 36> H 	 45.9714 	 -18.6678 	 -108.177
| 37> H 	 46.6534 	 -18.9074 	 -106.643
| 38> H 	 46.5784 	 -20.2993 	 -107.848
| 39> H 	 42.9049 	 -16.8417 	 -104.596
| 40> H 	 51.0549 	 -16.9862 	 -104.036
| 41> *
| 42>
| 43>                          ****END OF INPUT****

CARTESIAN COORDINATES (ANGSTROEM)
---------------------------------
  S     45.230400  -17.471200  -104.331000
  C     43.873200  -16.726300  -105.071000
  C     44.192600  -15.858600  -106.098000
  C     45.575000  -15.989500  -106.419000
  C     46.309700  -16.753200  -105.550000
  H     45.958100  -15.361400  -107.209000
  C     43.304900  -15.033200  -107.040000
  H     42.232400  -15.371300  -106.883000
  H     43.380600  -15.402400  -108.017000
  C     43.449300  -13.541500  -107.110000
  H     43.241800  -13.026800  -106.150000
  H     44.567600  -13.505600  -107.311000
  C     42.572000  -12.889500  -108.132000
  H     42.879100  -11.912800  -108.410000
  H     42.512000  -13.453100  -108.963000
  H     41.451200  -12.785500  -107.943000
  S     48.594400  -16.504400  -104.053000
  C     50.180300  -16.922300  -104.682000
  C     50.059200  -17.456000  -105.943000
  C     48.728200  -17.315000  -106.456000
  C     47.784500  -16.919700  -105.539000
  H     50.983400  -17.771200  -106.466000
  C     48.561600  -17.560300  -107.958000
  H     49.556700  -17.338700  -108.465000
  H     47.861800  -16.796100  -108.319000
  C     48.120200  -18.967300  -108.286000
  H     48.693000  -19.699000  -107.814000
  H     48.216300  -19.172100  -109.390000
  C     46.736300  -19.274000  -107.768000
  H     45.971400  -18.667800  -108.177000
  H     46.653400  -18.907400  -106.643000
  H     46.578400  -20.299300  -107.848000
  H     42.904900  -16.841700  -104.596000
  H     51.054900  -16.986200  -104.036000

 Total Charge           Charge          ....    0
 Multiplicity           Mult            ....    1
 Number of Electrons    NEL             ....  134
 Basis Dimension        Dim             ....  322

ORBITAL ENERGIES
----------------

  NO   OCC          E(Eh)            E(eV)
   0   2.0000     -88.971912     -2421.0488
   1   2.0000     -88.960832     -2420.7473
   2   2.0000     -10.335926      -281.2548
   3   2.0000     -10.328617      -281.0559
   4   2.0000     -10.317607      -280.7563
   5   2.0000     -10.316826      -280.7351
   6   2.0000     -10.304056      -280.3876
   7   2.0000     -10.302721      -280.3513
   8   2.0000     -10.295733      -280.1611
   9   2.0000     -10.294114      -280.1171
  10   2.0000     -10.293835      -280.1095
  11   2.0000     -10.293550      -280.1017
  12   2.0000     -10.292982      -280.0863
  13   2.0000     -10.275998      -279.6241
  14   2.0000     -10.273356      -279.5522
  15   2.0000     -10.262823      -279.2656
  16   2.0000      -8.086527      -220.0456
  17   2.0000      -8.075960      -219.7580
  18   2.0000      -6.045049      -164.4942
  19   2.0000      -6.041046      -164.3852
  20   2.0000      -6.037275      -164.2826
  21   2.0000      -6.034548      -164.2084
  22   2.0000      -6.030287      -164.0925
  23   2.0000      -6.026742      -163.9960
  24   2.0000      -1.008996       -27.4562
  25   2.0000      -0.988741       -26.9050
  26   2.0000      -0.920076       -25.0365
  27   2.0000      -0.909786       -24.7565
  28   2.0000      -0.871669       -23.7193
  29   2.0000      -0.857630       -23.3373
  30   2.0000      -0.843086       -22.9415
  31   2.0000      -0.816561       -22.2198
  32   2.0000      -0.786379       -21.3985
  33   2.0000      -0.771995       -21.0070
  34   2.0000      -0.708054       -19.2671
  35   2.0000      -0.698614       -19.0102
  36   2.0000      -0.689991       -18.7756
  37   2.0000      -0.661923       -18.0118
  38   2.0000      -0.645079       -17.5535
  39   2.0000      -0.631219       -17.1763
  40   2.0000      -0.596648       -16.2356
  41   2.0000      -0.574403       -15.6303
  42   2.0000      -0.558277       -15.1915
  43   2.0000      -0.552800       -15.0424
  44   2.0000      -0.533922       -14.5288
  45   2.0000      -0.530528       -14.4364
  46   2.0000      -0.526326       -14.3221
  47   2.0000      -0.515727       -14.0336
  48   2.0000      -0.504551       -13.7295
  49   2.0000      -0.499472       -13.5913
  50   2.0000      -0.495090       -13.4721
  51   2.0000      -0.480181       -13.0664
  52   2.0000      -0.471065       -12.8183
  53   2.0000      -0.463281       -12.6065
  54   2.0000      -0.452773       -12.3206
  55   2.0000      -0.451414       -12.2836
  56   2.0000      -0.442956       -12.0534
  57   2.0000      -0.439526       -11.9601
  58   2.0000      -0.431825       -11.7506
  59   2.0000      -0.428838       -11.6693
  60   2.0000      -0.415998       -11.3199
  61   2.0000      -0.404766       -11.0142
  62   2.0000      -0.398735       -10.8501
  63   2.0000      -0.350301        -9.5322
  64   2.0000      -0.333821        -9.0837
  65   2.0000      -0.327697        -8.9171
  66   2.0000      -0.298251        -8.1158
  67   0.0000       0.032992         0.8978
  68   0.0000       0.065046         1.7700
  69   0.0000       0.113100         3.0776
  70   0.0000       0.114903         3.1267
  71   0.0000       0.129061         3.5119

MULLIKEN ATOMIC CHARGES
-----------------------
   0 S :    0.126747
   1 C :   -0.133639
   2 C :   -0.048701
   3 C :    0.028978
   4 C :   -0.159777
   5 H :    0.017862
   6 C :    0.031388
   7 H :    0.010215
   8 H :    0.013618
   9 C :   -0.065406
  10 H :    0.041323
  11 H :    0.030750
  12 C :    0.005145
  13 H :    0.028045
  14 H :   -0.012940
  15 H :    0.032978
  16 S :    0.088492
  17 C :   -0.099292
  18 C :   -0.044035
  19 C :   -0.072118
  20 C :   -0.139311
  21 H :    0.038761
  22 C :    0.056350
  23 H :    0.031324
  24 H :    0.023835
  25 C :   -0.028653
  26 H :    0.007094
  27 H :    0.032399
  28 C :   -0.043241
  29 H :    0.014209
  30 H :    0.045107
  31 H :    0.023606
  32 H :    0.053496
  33 H :    0.065391
Sum of atomic charges:    0.0000000

LOEWDIN ATOMIC CHARGES
----------------------
   0 S :    0.416210
   1 C :   -0.195565
   2 C :   -0.063227
   3 C :   -0.056891
   4 C :   -0.191278
   5 H :    0.028641
   6 C :   -0.039645
   7 H :    0.030073
   8 H :    0.024133
   9 C :   -0.043825
  10 H :    0.030573
  11 H :    0.032540
  12 C :   -0.061726
  13 H :    0.025887
  14 H :    0.007086
  15 H :    0.038939
  16 S :    0.401728
  17 C :   -0.183442
  18 C :   -0.074682
  19 C :   -0.061313
  20 C :   -0.204258
  21 H :    0.040217
  22 C :   -0.031717
  23 H :    0.036211
  24 H :    0.027911
  25 C :   -0.042007
  26 H :    0.016920
  27 H :    0.027141
  28 C :   -0.063958
  29 H :    0.013882
  30 H :    0.041702
  31 H :    0.015356
  32 H :    0.027378
  33 H :    0.031007

  Mayer bond orders larger than 0.100000
B(  0-S ,  1-C ) :   1.1548 B(  0-S ,  4-C ) :   1.1401 B(  1-C ,  2-C ) :   1.6110
B(  1-C , 32-H ) :   0.9633 B(  2-C ,  3-C ) :   1.2540 B(  2-C ,  6-C ) :   1.0156
B(  3-C ,  4-C ) :   1.5794 B(  3-C ,  5-H ) :   0.9893 B(  4-C , 20-C ) :   1.0153
B(  6-C ,  7-H ) :   0.9385 B(  6-C ,  8-H ) :   0.9413 B(  6-C ,  9-C ) :   1.0553
B(  9-C , 10-H ) :   0.9543 B(  9-C , 11-H ) :   0.9509 B(  9-C , 12-C ) :   1.0843
B( 12-C , 13-H ) :   0.9703 B( 12-C , 14-H ) :   0.9671 B( 12-C , 15-H ) :   0.9686
B( 16-S , 17-C ) :   1.1560 B( 16-S , 20-C ) :   1.1415 B( 17-C , 18-C ) :   1.6203
B( 17-C , 33-H ) :   0.9641 B( 18-C , 19-C ) :   1.2370 B( 18-C , 21-H ) :   0.9833
B( 19-C , 20-C ) :   1.6171 B( 19-C , 22-C ) :   1.0226 B( 22-C , 23-H ) :   0.9368
B( 22-C , 24-H ) :   0.9421 B( 22-C , 25-C ) :   1.0755 B( 25-C , 26-H ) :   0.9506
B( 25-C , 27-H ) :   0.9508 B( 25-C , 28-C ) :   1.0831 B( 28-C , 29-H ) :   0.9737
B( 28-C , 30-H ) :   0.9608 B( 28-C , 31-H ) :   0.9720

Dispersion correction           -0.014983924
FINAL SINGLE POINT ENERGY     -1339.858132253913

DIPOLE MOMENT
-------------
                                X             Y             Z
Electronic contribution:     11.13626      -5.35057      22.28681
Nuclear contribution   :    -11.25635       5.51886     -22.84361
                        -----------------------------------------
Total Dipole Moment    :     -0.12009       0.16829      -0.55680
                        -----------------------------------------
Magnitude (a.u.)       :      0.59394
Magnitude (Debye)      :      1.50968

Rotational constants in cm-1:     0.019966     0.008063     0.007394
Rotational constants in MHz :   598.566134   241.716251   221.660417

                             ****ORCA TERMINATED NORMALLY****
TOTAL RUN TIME: 0 days 0 hours 0 minutes 22 seconds 152 msec
