                         Program Version 4.2.1 -  RELEASE  -
|  1> ! wB97X-D3 SP def2-SVP
|  2> %pal
|  3> nprocs 24
|  4> end
|  5>
|  6> * xyz 0 1
|  7> S 	 -107.488 	 51.3317 	 -83.2146
|  8> C 	 -105.757 	 51.8965 	 -83.2716
|  9> C 	 -104.988 	 50.9272 	 -83.8835
| 10> C 	 -105.761 	 49.9097 	 -84.535
| 11> C 	 -107.125 	 49.9281 	 -84.2772
| 12> H 	 -105.293 	 49.1552 	 -85.2471
| 13> C 	 -103.508 	 51.063 	 -84.052
| 14> H 	 -102.995 	 50.0824 	 -83.8249
| 15> H 	 -103.092 	 51.6869 	 -83.3198
| 16> C 	 -103.043 	 51.5368 	 -85.5095
| 17> H 	 -101.981 	 51.2246 	 -85.5589
| 18> H 	 -103.555 	 51.0537 	 -86.3574
| 19> C 	 -103.192 	 53.0361 	 -85.7408
| 20> H 	 -103.462 	 53.388 	 -86.7333
| 21> H 	 -104.085 	 53.2949 	 -85.1778
| 22> H 	 -102.397 	 53.5656 	 -85.2755
| 23> S 	 -109.64 	 49.9077 	 -85.38
| 24> C 	 -110.534 	 48.5023 	 -85.4841
| 25> C 	 -109.823 	 47.3768 	 -85.135
| 26> C 	 -108.492 	 47.703 	 -84.7765
| 27> C 	 -108.183 	 49.0611 	 -84.7206
| 28> H 	 -110.176 	 46.3848 	 -85.2189
| 29> C 	 -107.594 	 46.6651 	 -84.3188
| 30> H 	 -106.556 	 47.1337 	 -84.2023
| 31> H 	 -107.611 	 45.7977 	 -85.0087
| 32> C 	 -107.822 	 46.1409 	 -82.8397
| 33> H 	 -107.094 	 45.42 	 -82.4113
| 34> H 	 -108.625 	 45.4429 	 -82.9369
| 35> C 	 -108.375 	 47.1367 	 -81.7594
| 36> H 	 -109.418 	 47.4706 	 -81.9624
| 37> H 	 -107.758 	 48.0645 	 -81.8242
| 38> H 	 -108.33 	 46.7733 	 -80.8045
| 39> H 	 -105.428 	 52.8357 	 -82.8643
| 40> H 	 -111.502 	 48.4832 	 -85.8892
| 41> *
| 42>
| 43>                          ****END OF INPUT****

CARTESIAN COORDINATES (ANGSTROEM)
---------------------------------
  S    -107.488000   51.331700  -83.214600
  C    -105.757000   51.896500  -83.271600
  C    -104.988000   50.927200  -83.883500
  C    -105.761000   49.909700  -84.535000
  C    -107.125000   49.928100  -84.277200
  H    -105.293000   49.155200  -85.247100
  C    -103.508000   51.063000  -84.052000
  H    -102.995000   50.082400  -83.824900
  H    -103.092000   51.686900  -83.319800
  C    -103.043000   51.536800  -85.509500
  H    -101.981000   51.224600  -85.558900
  H    -103.555000   51.053700  -86.357400
  C    -103.192000   53.036100  -85.740800
  H    -103.462000   53.388000  -86.733300
  H    -104.085000   53.294900  -85.177800
  H    -102.397000   53.565600  -85.275500
  S    -109.640000   49.907700  -85.380000
  C    -110.534000   48.502300  -85.484100
  C    -109.823000   47.376800  -85.135000
  C    -108.492000   47.703000  -84.776500
  C    -108.183000   49.061100  -84.720600
  H    -110.176000   46.384800  -85.218900
  C    -107.594000   46.665100  -84.318800
  H    -106.556000   47.133700  -84.202300
  H    -107.611000   45.797700  -85.008700
  C    -107.822000   46.140900  -82.839700
  H    -107.094000   45.420000  -82.411300
  H    -108.625000   45.442900  -82.936900
  C    -108.375000   47.136700  -81.759400
  H    -109.418000   47.470600  -81.962400
  H    -107.758000   48.064500  -81.824200
  H    -108.330000   46.773300  -80.804500
  H    -105.428000   52.835700  -82.864300
  H    -111.502000   48.483200  -85.889200

 Total Charge           Charge          ....    0
 Multiplicity           Mult            ....    1
 Number of Electrons    NEL             ....  134
 Basis Dimension        Dim             ....  322

ORBITAL ENERGIES
----------------

  NO   OCC          E(Eh)            E(eV)
   0   2.0000     -88.964511     -2420.8474
   1   2.0000     -88.962960     -2420.8052
   2   2.0000     -10.338476      -281.3242
   3   2.0000     -10.330368      -281.1036
   4   2.0000     -10.321428      -280.8603
   5   2.0000     -10.313595      -280.6472
   6   2.0000     -10.304531      -280.4006
   7   2.0000     -10.303096      -280.3615
   8   2.0000     -10.303003      -280.3590
   9   2.0000     -10.296362      -280.1783
  10   2.0000     -10.295386      -280.1517
  11   2.0000     -10.292931      -280.0849
  12   2.0000     -10.289704      -279.9971
  13   2.0000     -10.285680      -279.8876
  14   2.0000     -10.270913      -279.4858
  15   2.0000     -10.270357      -279.4706
  16   2.0000      -8.078785      -219.8349
  17   2.0000      -8.077553      -219.8014
  18   2.0000      -6.037072      -164.2771
  19   2.0000      -6.036288      -164.2558
  20   2.0000      -6.032989      -164.1660
  21   2.0000      -6.032352      -164.1486
  22   2.0000      -6.029819      -164.0797
  23   2.0000      -6.028072      -164.0322
  24   2.0000      -1.008218       -27.4350
  25   2.0000      -0.981182       -26.6993
  26   2.0000      -0.908766       -24.7288
  27   2.0000      -0.907739       -24.7008
  28   2.0000      -0.870225       -23.6800
  29   2.0000      -0.847429       -23.0597
  30   2.0000      -0.839731       -22.8502
  31   2.0000      -0.814979       -22.1767
  32   2.0000      -0.783945       -21.3322
  33   2.0000      -0.772696       -21.0261
  34   2.0000      -0.714554       -19.4440
  35   2.0000      -0.698193       -18.9988
  36   2.0000      -0.695834       -18.9346
  37   2.0000      -0.665605       -18.1120
  38   2.0000      -0.642482       -17.4828
  39   2.0000      -0.618231       -16.8229
  40   2.0000      -0.594133       -16.1672
  41   2.0000      -0.573299       -15.6002
  42   2.0000      -0.554626       -15.0921
  43   2.0000      -0.547786       -14.9060
  44   2.0000      -0.542636       -14.7659
  45   2.0000      -0.532577       -14.4922
  46   2.0000      -0.518702       -14.1146
  47   2.0000      -0.507905       -13.8208
  48   2.0000      -0.504942       -13.7402
  49   2.0000      -0.498098       -13.5539
  50   2.0000      -0.493564       -13.4306
  51   2.0000      -0.479034       -13.0352
  52   2.0000      -0.468145       -12.7389
  53   2.0000      -0.462560       -12.5869
  54   2.0000      -0.459126       -12.4934
  55   2.0000      -0.447756       -12.1841
  56   2.0000      -0.444858       -12.1052
  57   2.0000      -0.436908       -11.8889
  58   2.0000      -0.429760       -11.6944
  59   2.0000      -0.427256       -11.6262
  60   2.0000      -0.419479       -11.4146
  61   2.0000      -0.407756       -11.0956
  62   2.0000      -0.391517       -10.6537
  63   2.0000      -0.347810        -9.4644
  64   2.0000      -0.332649        -9.0519
  65   2.0000      -0.325834        -8.8664
  66   2.0000      -0.292800        -7.9675
  67   0.0000       0.021709         0.5907
  68   0.0000       0.066610         1.8126
  69   0.0000       0.102812         2.7977
  70   0.0000       0.111418         3.0318
  71   0.0000       0.133671         3.6374

MULLIKEN ATOMIC CHARGES
-----------------------
   0 S :    0.090430
   1 C :   -0.127631
   2 C :   -0.071206
   3 C :    0.019029
   4 C :   -0.141405
   5 H :    0.045353
   6 C :    0.048499
   7 H :    0.036464
   8 H :    0.008754
   9 C :   -0.087583
  10 H :    0.032691
  11 H :    0.037430
  12 C :   -0.024635
  13 H :    0.037259
  14 H :    0.009867
  15 H :    0.026737
  16 S :    0.103393
  17 C :   -0.052904
  18 C :   -0.020873
  19 C :   -0.016172
  20 C :   -0.166034
  21 H :    0.003452
  22 C :    0.031985
  23 H :    0.036450
  24 H :    0.041088
  25 C :   -0.100617
  26 H :    0.034197
  27 H :    0.002499
  28 C :   -0.025558
  29 H :    0.039188
  30 H :    0.031302
  31 H :    0.019810
  32 H :    0.053699
  33 H :    0.045044
Sum of atomic charges:   -0.0000000

LOEWDIN ATOMIC CHARGES
----------------------
   0 S :    0.354519
   1 C :   -0.169974
   2 C :   -0.066156
   3 C :   -0.068543
   4 C :   -0.179862
   5 H :    0.043860
   6 C :   -0.031180
   7 H :    0.039544
   8 H :    0.021737
   9 C :   -0.038053
  10 H :    0.023782
  11 H :    0.027278
  12 C :   -0.069864
  13 H :    0.029019
  14 H :    0.025817
  15 H :    0.020580
  16 S :    0.423417
  17 C :   -0.185500
  18 C :   -0.072815
  19 C :   -0.053269
  20 C :   -0.189094
  21 H :    0.026790
  22 C :   -0.039088
  23 H :    0.037825
  24 H :    0.037378
  25 C :   -0.049222
  26 H :    0.029712
  27 H :    0.012712
  28 C :   -0.061916
  29 H :    0.031286
  30 H :    0.027962
  31 H :    0.013022
  32 H :    0.026507
  33 H :    0.021790

  Mayer bond orders larger than 0.100000
B(  0-S ,  1-C ) :   1.1095 B(  0-S ,  4-C ) :   1.1235 B(  1-C ,  2-C ) :   1.6124
B(  1-C , 32-H ) :   0.9716 B(  2-C ,  3-C ) :   1.2143 B(  2-C ,  6-C ) :   1.0489
B(  3-C ,  4-C ) :   1.5958 B(  3-C ,  5-H ) :   0.9770 B(  4-C , 20-C ) :   1.0698
B(  6-C ,  7-H ) :   0.9378 B(  6-C ,  8-H ) :   0.9436 B(  6-C ,  9-C ) :   1.0493
B(  9-C , 10-H ) :   0.9611 B(  9-C , 11-H ) :   0.9643 B(  9-C , 12-C ) :   1.0650
B( 12-C , 13-H ) :   0.9753 B( 12-C , 14-H ) :   0.9722 B( 12-C , 15-H ) :   0.9754
B( 16-S , 17-C ) :   1.2026 B( 16-S , 20-C ) :   1.1259 B( 17-C , 18-C ) :   1.5450
B( 17-C , 33-H ) :   0.9711 B( 18-C , 19-C ) :   1.2578 B( 18-C , 21-H ) :   1.0046
B( 19-C , 20-C ) :   1.5476 B( 19-C , 22-C ) :   1.0813 B( 22-C , 23-H ) :   0.9353
B( 22-C , 24-H ) :   0.9338 B( 22-C , 25-C ) :   1.0429 B( 25-C , 26-H ) :   0.9630
B( 25-C , 27-H ) :   0.9510 B( 25-C , 28-C ) :   1.0750 B( 28-C , 29-H ) :   0.9697
B( 28-C , 30-H ) :   0.9777 B( 28-C , 31-H ) :   0.9743

Dispersion correction           -0.015249676
FINAL SINGLE POINT ENERGY     -1339.859269602265

DIPOLE MOMENT
-------------
                                X             Y             Z
Electronic contribution:    -17.92470       6.06695      -2.60587
Nuclear contribution   :     18.24609      -6.43864       2.49398
                        -----------------------------------------
Total Dipole Moment    :      0.32138      -0.37169      -0.11188
                        -----------------------------------------
Magnitude (a.u.)       :      0.50394
Magnitude (Debye)      :      1.28092

Rotational constants in cm-1:     0.022618     0.007935     0.007197
Rotational constants in MHz :   678.061189   237.879975   215.753967

                             ****ORCA TERMINATED NORMALLY****
TOTAL RUN TIME: 0 days 0 hours 0 minutes 22 seconds 29 msec
