                         Program Version 4.2.1 -  RELEASE  -
|  1> ! wB97X-D3 SP def2-SVP
|  2> %pal
|  3> nprocs 24
|  4> end
|  5>
|  6> * xyz 0 1
|  7> S 	 -99.596 	 3.31532 	 -105.314
|  8> C 	 -99.2026 	 4.69486 	 -106.306
|  9> C 	 -97.8704 	 4.79214 	 -106.717
| 10> C 	 -97.1016 	 3.72674 	 -106.058
| 11> C 	 -97.9214 	 2.8333 	 -105.338
| 12> H 	 -96.0643 	 3.56693 	 -106.05
| 13> C 	 -97.326 	 5.78347 	 -107.777
| 14> H 	 -97.6315 	 6.83613 	 -107.562
| 15> H 	 -97.9125 	 5.40422 	 -108.604
| 16> C 	 -95.869 	 5.6372 	 -108.179
| 17> H 	 -95.3728 	 6.07669 	 -107.332
| 18> H 	 -95.5438 	 4.58018 	 -108.359
| 19> C 	 -95.5617 	 6.34752 	 -109.415
| 20> H 	 -96.2398 	 6.12162 	 -110.205
| 21> H 	 -95.5279 	 7.40915 	 -109.193
| 22> H 	 -94.5561 	 6.02156 	 -109.679
| 23> S 	 -98.0718 	 0.0971751 	 -105.873
| 24> C 	 -97.4953 	 -0.984059 	 -104.608
| 25> C 	 -96.5839 	 -0.371315 	 -103.793
| 26> C 	 -96.6847 	 1.04409 	 -103.897
| 27> C 	 -97.5184 	 1.49671 	 -104.898
| 28> H 	 -95.914 	 -0.904627 	 -103.127
| 29> C 	 -95.9528 	 1.95728 	 -103.053
| 30> H 	 -96.7075 	 2.28318 	 -102.425
| 31> H 	 -95.8617 	 2.86774 	 -103.71
| 32> C 	 -94.6968 	 1.61957 	 -102.32
| 33> H 	 -94.0068 	 1.12827 	 -103.01
| 34> H 	 -95.0101 	 0.824276 	 -101.622
| 35> C 	 -94.0019 	 2.85051 	 -101.672
| 36> H 	 -93.4939 	 3.36399 	 -102.431
| 37> H 	 -93.2462 	 2.36272 	 -100.997
| 38> H 	 -94.6605 	 3.5147 	 -101.232
| 39> H 	 -99.8611 	 5.36331 	 -106.848
| 40> H 	 -97.5162 	 -2.07449 	 -104.708
| 41> *
| 42>
| 43>                          ****END OF INPUT****

CARTESIAN COORDINATES (ANGSTROEM)
---------------------------------
  S    -99.596000    3.315320  -105.314000
  C    -99.202600    4.694860  -106.306000
  C    -97.870400    4.792140  -106.717000
  C    -97.101600    3.726740  -106.058000
  C    -97.921400    2.833300  -105.338000
  H    -96.064300    3.566930  -106.050000
  C    -97.326000    5.783470  -107.777000
  H    -97.631500    6.836130  -107.562000
  H    -97.912500    5.404220  -108.604000
  C    -95.869000    5.637200  -108.179000
  H    -95.372800    6.076690  -107.332000
  H    -95.543800    4.580180  -108.359000
  C    -95.561700    6.347520  -109.415000
  H    -96.239800    6.121620  -110.205000
  H    -95.527900    7.409150  -109.193000
  H    -94.556100    6.021560  -109.679000
  S    -98.071800    0.097175  -105.873000
  C    -97.495300   -0.984059  -104.608000
  C    -96.583900   -0.371315  -103.793000
  C    -96.684700    1.044090  -103.897000
  C    -97.518400    1.496710  -104.898000
  H    -95.914000   -0.904627  -103.127000
  C    -95.952800    1.957280  -103.053000
  H    -96.707500    2.283180  -102.425000
  H    -95.861700    2.867740  -103.710000
  C    -94.696800    1.619570  -102.320000
  H    -94.006800    1.128270  -103.010000
  H    -95.010100    0.824276  -101.622000
  C    -94.001900    2.850510  -101.672000
  H    -93.493900    3.363990  -102.431000
  H    -93.246200    2.362720  -100.997000
  H    -94.660500    3.514700  -101.232000
  H    -99.861100    5.363310  -106.848000
  H    -97.516200   -2.074490  -104.708000

 Total Charge           Charge          ....    0
 Multiplicity           Mult            ....    1
 Number of Electrons    NEL             ....  134
 Basis Dimension        Dim             ....  322

ORBITAL ENERGIES
----------------

  NO   OCC          E(Eh)            E(eV)
   0   2.0000     -88.970417     -2421.0081
   1   2.0000     -88.958754     -2420.6908
   2   2.0000     -10.327260      -281.0190
   3   2.0000     -10.318532      -280.7815
   4   2.0000     -10.314588      -280.6742
   5   2.0000     -10.309872      -280.5459
   6   2.0000     -10.307514      -280.4817
   7   2.0000     -10.297826      -280.2181
   8   2.0000     -10.296579      -280.1842
   9   2.0000     -10.294414      -280.1253
  10   2.0000     -10.289701      -279.9970
  11   2.0000     -10.287990      -279.9505
  12   2.0000     -10.284281      -279.8495
  13   2.0000     -10.276473      -279.6370
  14   2.0000     -10.272890      -279.5396
  15   2.0000     -10.272518      -279.5294
  16   2.0000      -8.084739      -219.9969
  17   2.0000      -8.072962      -219.6765
  18   2.0000      -6.043213      -164.4442
  19   2.0000      -6.039324      -164.3384
  20   2.0000      -6.035538      -164.2353
  21   2.0000      -6.031560      -164.1271
  22   2.0000      -6.027873      -164.0268
  23   2.0000      -6.023330      -163.9032
  24   2.0000      -1.001334       -27.2477
  25   2.0000      -0.979274       -26.6474
  26   2.0000      -0.923419       -25.1275
  27   2.0000      -0.915926       -24.9236
  28   2.0000      -0.870507       -23.6877
  29   2.0000      -0.854741       -23.2587
  30   2.0000      -0.847669       -23.0663
  31   2.0000      -0.813415       -22.1341
  32   2.0000      -0.784491       -21.3471
  33   2.0000      -0.771076       -20.9820
  34   2.0000      -0.713315       -19.4103
  35   2.0000      -0.704047       -19.1581
  36   2.0000      -0.684181       -18.6175
  37   2.0000      -0.650094       -17.6899
  38   2.0000      -0.638951       -17.3867
  39   2.0000      -0.612417       -16.6647
  40   2.0000      -0.595388       -16.2013
  41   2.0000      -0.587604       -15.9895
  42   2.0000      -0.570732       -15.5304
  43   2.0000      -0.565516       -15.3885
  44   2.0000      -0.536240       -14.5918
  45   2.0000      -0.532954       -14.5024
  46   2.0000      -0.515387       -14.0244
  47   2.0000      -0.508187       -13.8285
  48   2.0000      -0.504854       -13.7378
  49   2.0000      -0.498592       -13.5674
  50   2.0000      -0.487461       -13.2645
  51   2.0000      -0.480869       -13.0851
  52   2.0000      -0.471561       -12.8318
  53   2.0000      -0.466597       -12.6967
  54   2.0000      -0.458825       -12.4853
  55   2.0000      -0.452827       -12.3221
  56   2.0000      -0.446690       -12.1551
  57   2.0000      -0.435032       -11.8378
  58   2.0000      -0.431328       -11.7370
  59   2.0000      -0.425304       -11.5731
  60   2.0000      -0.419970       -11.4280
  61   2.0000      -0.417807       -11.3691
  62   2.0000      -0.413973       -11.2648
  63   2.0000      -0.335447        -9.1280
  64   2.0000      -0.321939        -8.7604
  65   2.0000      -0.319424        -8.6920
  66   2.0000      -0.293741        -7.9931
  67   0.0000       0.032873         0.8945
  68   0.0000       0.058596         1.5945
  69   0.0000       0.107739         2.9317
  70   0.0000       0.123674         3.3653
  71   0.0000       0.125809         3.4234

MULLIKEN ATOMIC CHARGES
-----------------------
   0 S :    0.144334
   1 C :   -0.103856
   2 C :   -0.112853
   3 C :    0.057497
   4 C :   -0.203080
   5 H :    0.003952
   6 C :    0.034147
   7 H :    0.050584
   8 H :    0.033150
   9 C :   -0.101121
  10 H :    0.030777
  11 H :    0.040654
  12 C :    0.000451
  13 H :    0.027724
  14 H :    0.026325
  15 H :    0.028949
  16 S :    0.097122
  17 C :   -0.082070
  18 C :   -0.049061
  19 C :   -0.036774
  20 C :   -0.177701
  21 H :    0.021168
  22 C :    0.080755
  23 H :    0.014432
  24 H :    0.004983
  25 C :   -0.084213
  26 H :    0.026048
  27 H :    0.031543
  28 C :    0.013097
  29 H :    0.021648
  30 H :    0.044279
  31 H :    0.024276
  32 H :    0.034650
  33 H :    0.058181
Sum of atomic charges:   -0.0000000

LOEWDIN ATOMIC CHARGES
----------------------
   0 S :    0.425671
   1 C :   -0.213533
   2 C :   -0.055256
   3 C :   -0.051402
   4 C :   -0.208902
   5 H :    0.020485
   6 C :   -0.036994
   7 H :    0.038073
   8 H :    0.034547
   9 C :   -0.049110
  10 H :    0.024614
  11 H :    0.031760
  12 C :   -0.055620
  13 H :    0.021736
  14 H :    0.025767
  15 H :    0.029862
  16 S :    0.377343
  17 C :   -0.175337
  18 C :   -0.075279
  19 C :   -0.049078
  20 C :   -0.201452
  21 H :    0.032074
  22 C :   -0.050840
  23 H :    0.032015
  24 H :    0.035214
  25 C :   -0.039985
  26 H :    0.023545
  27 H :    0.023516
  28 C :   -0.045148
  29 H :    0.021194
  30 H :    0.038858
  31 H :    0.016382
  32 H :    0.026363
  33 H :    0.028919

  Mayer bond orders larger than 0.100000
B(  0-S ,  1-C ) :   1.1385 B(  0-S ,  4-C ) :   1.1568 B(  1-C ,  2-C ) :   1.6462
B(  1-C , 32-H ) :   0.9614 B(  2-C ,  3-C ) :   1.2359 B(  2-C ,  6-C ) :   0.9836
B(  3-C ,  4-C ) :   1.5627 B(  3-C ,  5-H ) :   0.9904 B(  4-C , 20-C ) :   1.0345
B(  6-C ,  7-H ) :   0.9438 B(  6-C ,  8-H ) :   0.9364 B(  6-C ,  9-C ) :   1.0859
B(  9-C , 10-H ) :   0.9486 B(  9-C , 11-H ) :   0.9507 B(  9-C , 12-C ) :   1.0967
B( 12-C , 13-H ) :   0.9740 B( 12-C , 14-H ) :   0.9698 B( 12-C , 15-H ) :   0.9709
B( 16-S , 17-C ) :   1.1588 B( 16-S , 20-C ) :   1.1162 B( 17-C , 18-C ) :   1.6097
B( 17-C , 33-H ) :   0.9584 B( 18-C , 19-C ) :   1.2333 B( 18-C , 21-H ) :   0.9888
B( 19-C , 20-C ) :   1.6119 B( 19-C , 22-C ) :   1.0442 B( 22-C , 23-H ) :   0.8941
B( 22-C , 24-H ) :   0.9182 B( 22-C , 25-C ) :   1.0716 B( 25-C , 26-H ) :   0.9587
B( 25-C , 27-H ) :   0.9425 B( 25-C , 28-C ) :   1.0745 B( 28-C , 29-H ) :   0.9737
B( 28-C , 30-H ) :   0.9744 B( 28-C , 31-H ) :   0.9782

Dispersion correction           -0.013486470
FINAL SINGLE POINT ENERGY     -1339.841212134102

DIPOLE MOMENT
-------------
                                X             Y             Z
Electronic contribution:    -22.11230     -15.14802       0.21078
Nuclear contribution   :     22.77647      15.46490      -0.32920
                        -----------------------------------------
Total Dipole Moment    :      0.66418       0.31687      -0.11842
                        -----------------------------------------
Magnitude (a.u.)       :      0.74536
Magnitude (Debye)      :      1.89456

Rotational constants in cm-1:     0.016415     0.008122     0.006659
Rotational constants in MHz :   492.115072   243.478794   199.622960

                             ****ORCA TERMINATED NORMALLY****
TOTAL RUN TIME: 0 days 0 hours 0 minutes 21 seconds 163 msec
