                         Program Version 4.2.1 -  RELEASE  -
|  1> ! wB97X-D3 SP def2-SVP
|  2> %pal
|  3> nprocs 24
|  4> end
|  5>
|  6> * xyz 0 1
|  7> S 	 -42.3013 	 -2.73963 	 -8.69552
|  8> C 	 -43.0882 	 -2.67472 	 -7.15169
|  9> C 	 -44.4249 	 -3.06678 	 -7.32967
| 10> C 	 -44.7973 	 -3.23813 	 -8.70486
| 11> C 	 -43.6893 	 -3.31646 	 -9.50575
| 12> H 	 -45.7487 	 -3.49973 	 -9.15376
| 13> C 	 -45.456 	 -3.13346 	 -6.20048
| 14> H 	 -45.2679 	 -2.2975 	 -5.52277
| 15> H 	 -45.2238 	 -4.0235 	 -5.57105
| 16> C 	 -46.9943 	 -3.11754 	 -6.64782
| 17> H 	 -47.0089 	 -2.17825 	 -7.24439
| 18> H 	 -47.3671 	 -3.95267 	 -7.29931
| 19> C 	 -47.9159 	 -3.12893 	 -5.45512
| 20> H 	 -47.9163 	 -3.96431 	 -4.75119
| 21> H 	 -47.6995 	 -2.15688 	 -4.94723
| 22> H 	 -48.9945 	 -3.08705 	 -5.66314
| 23> S 	 -42.6874 	 -2.62773 	 -12.0782
| 24> C 	 -43.3695 	 -3.47352 	 -13.4713
| 25> C 	 -44.0832 	 -4.63514 	 -13.0705
| 26> C 	 -44.136 	 -4.73395 	 -11.6125
| 27> C 	 -43.5027 	 -3.69413 	 -10.9197
| 28> H 	 -44.6217 	 -5.25427 	 -13.7193
| 29> C 	 -44.9367 	 -5.76852 	 -10.9128
| 30> H 	 -44.6409 	 -5.72418 	 -9.85827
| 31> H 	 -44.5899 	 -6.76738 	 -11.1942
| 32> C 	 -46.4693 	 -5.63699 	 -11.0806
| 33> H 	 -46.7528 	 -5.89072 	 -12.1661
| 34> H 	 -46.7838 	 -4.68665 	 -10.8808
| 35> C 	 -47.275 	 -6.71046 	 -10.2144
| 36> H 	 -47.1065 	 -7.61372 	 -10.6651
| 37> H 	 -48.3255 	 -6.62984 	 -10.1116
| 38> H 	 -46.9924 	 -6.73977 	 -9.18216
| 39> H 	 -42.6015 	 -2.49254 	 -6.16106
| 40> H 	 -43.1549 	 -3.23381 	 -14.5042
| 41> *
| 42>
| 43>                          ****END OF INPUT****

CARTESIAN COORDINATES (ANGSTROEM)
---------------------------------
  S    -42.301300   -2.739630   -8.695520
  C    -43.088200   -2.674720   -7.151690
  C    -44.424900   -3.066780   -7.329670
  C    -44.797300   -3.238130   -8.704860
  C    -43.689300   -3.316460   -9.505750
  H    -45.748700   -3.499730   -9.153760
  C    -45.456000   -3.133460   -6.200480
  H    -45.267900   -2.297500   -5.522770
  H    -45.223800   -4.023500   -5.571050
  C    -46.994300   -3.117540   -6.647820
  H    -47.008900   -2.178250   -7.244390
  H    -47.367100   -3.952670   -7.299310
  C    -47.915900   -3.128930   -5.455120
  H    -47.916300   -3.964310   -4.751190
  H    -47.699500   -2.156880   -4.947230
  H    -48.994500   -3.087050   -5.663140
  S    -42.687400   -2.627730  -12.078200
  C    -43.369500   -3.473520  -13.471300
  C    -44.083200   -4.635140  -13.070500
  C    -44.136000   -4.733950  -11.612500
  C    -43.502700   -3.694130  -10.919700
  H    -44.621700   -5.254270  -13.719300
  C    -44.936700   -5.768520  -10.912800
  H    -44.640900   -5.724180   -9.858270
  H    -44.589900   -6.767380  -11.194200
  C    -46.469300   -5.636990  -11.080600
  H    -46.752800   -5.890720  -12.166100
  H    -46.783800   -4.686650  -10.880800
  C    -47.275000   -6.710460  -10.214400
  H    -47.106500   -7.613720  -10.665100
  H    -48.325500   -6.629840  -10.111600
  H    -46.992400   -6.739770   -9.182160
  H    -42.601500   -2.492540   -6.161060
  H    -43.154900   -3.233810  -14.504200

 Total Charge           Charge          ....    0
 Multiplicity           Mult            ....    1
 Number of Electrons    NEL             ....  134
 Basis Dimension        Dim             ....  322

ORBITAL ENERGIES
----------------

  NO   OCC          E(Eh)            E(eV)
   0   2.0000     -88.967995     -2420.9422
   1   2.0000     -88.963216     -2420.8122
   2   2.0000     -10.329877      -281.0902
   3   2.0000     -10.327742      -281.0321
   4   2.0000     -10.327225      -281.0181
   5   2.0000     -10.316821      -280.7350
   6   2.0000     -10.307038      -280.4688
   7   2.0000     -10.305553      -280.4284
   8   2.0000     -10.300095      -280.2798
   9   2.0000     -10.299853      -280.2733
  10   2.0000     -10.299773      -280.2711
  11   2.0000     -10.294846      -280.1370
  12   2.0000     -10.294117      -280.1172
  13   2.0000     -10.288663      -279.9688
  14   2.0000     -10.282731      -279.8073
  15   2.0000     -10.270311      -279.4694
  16   2.0000      -8.081890      -219.9194
  17   2.0000      -8.079160      -219.8451
  18   2.0000      -6.040611      -164.3734
  19   2.0000      -6.037630      -164.2923
  20   2.0000      -6.036399      -164.2588
  21   2.0000      -6.033330      -164.1752
  22   2.0000      -6.032592      -164.1552
  23   2.0000      -6.030060      -164.0863
  24   2.0000      -1.009195       -27.4616
  25   2.0000      -0.980004       -26.6673
  26   2.0000      -0.906701       -24.6726
  27   2.0000      -0.905262       -24.6334
  28   2.0000      -0.867564       -23.6076
  29   2.0000      -0.851167       -23.1614
  30   2.0000      -0.844352       -22.9760
  31   2.0000      -0.817502       -22.2454
  32   2.0000      -0.782735       -21.2993
  33   2.0000      -0.768389       -20.9089
  34   2.0000      -0.713672       -19.4200
  35   2.0000      -0.705490       -19.1974
  36   2.0000      -0.688387       -18.7320
  37   2.0000      -0.660780       -17.9807
  38   2.0000      -0.644301       -17.5323
  39   2.0000      -0.618447       -16.8288
  40   2.0000      -0.593991       -16.1633
  41   2.0000      -0.568983       -15.4828
  42   2.0000      -0.568241       -15.4626
  43   2.0000      -0.562622       -15.3097
  44   2.0000      -0.523815       -14.2537
  45   2.0000      -0.522619       -14.2212
  46   2.0000      -0.515195       -14.0192
  47   2.0000      -0.510990       -13.9048
  48   2.0000      -0.508660       -13.8413
  49   2.0000      -0.498770       -13.5722
  50   2.0000      -0.496226       -13.5030
  51   2.0000      -0.479250       -13.0410
  52   2.0000      -0.474113       -12.9013
  53   2.0000      -0.469461       -12.7747
  54   2.0000      -0.459031       -12.4909
  55   2.0000      -0.454862       -12.3774
  56   2.0000      -0.446156       -12.1405
  57   2.0000      -0.440557       -11.9882
  58   2.0000      -0.426625       -11.6091
  59   2.0000      -0.421422       -11.4675
  60   2.0000      -0.421201       -11.4615
  61   2.0000      -0.417612       -11.3638
  62   2.0000      -0.408690       -11.1210
  63   2.0000      -0.346421        -9.4266
  64   2.0000      -0.330831        -9.0024
  65   2.0000      -0.327584        -8.9140
  66   2.0000      -0.290025        -7.8920
  67   0.0000       0.027555         0.7498
  68   0.0000       0.065947         1.7945
  69   0.0000       0.107783         2.9329
  70   0.0000       0.117944         3.2094
  71   0.0000       0.124864         3.3977

MULLIKEN ATOMIC CHARGES
-----------------------
   0 S :    0.108184
   1 C :   -0.126873
   2 C :   -0.107517
   3 C :    0.035841
   4 C :   -0.162259
   5 H :    0.004278
   6 C :    0.033558
   7 H :    0.029964
   8 H :    0.041526
   9 C :   -0.112526
  10 H :    0.048690
  11 H :    0.047184
  12 C :   -0.046668
  13 H :    0.038309
  14 H :    0.029564
  15 H :    0.029711
  16 S :    0.103229
  17 C :   -0.097075
  18 C :    0.004685
  19 C :   -0.065317
  20 C :   -0.106444
  21 H :    0.004569
  22 C :    0.044342
  23 H :    0.033058
  24 H :    0.023394
  25 C :   -0.065837
  26 H :    0.037803
  27 H :    0.015006
  28 C :   -0.012246
  29 H :    0.012626
  30 H :    0.021701
  31 H :    0.020538
  32 H :    0.069374
  33 H :    0.065627
Sum of atomic charges:    0.0000000

LOEWDIN ATOMIC CHARGES
----------------------
   0 S :    0.432095
   1 C :   -0.220343
   2 C :   -0.062004
   3 C :   -0.070430
   4 C :   -0.195777
   5 H :    0.032544
   6 C :   -0.036054
   7 H :    0.031246
   8 H :    0.034699
   9 C :   -0.048988
  10 H :    0.032660
  11 H :    0.027588
  12 C :   -0.077292
  13 H :    0.027267
  14 H :    0.029909
  15 H :    0.027943
  16 S :    0.390788
  17 C :   -0.172897
  18 C :   -0.059780
  19 C :   -0.049832
  20 C :   -0.205197
  21 H :    0.021586
  22 C :   -0.039983
  23 H :    0.032928
  24 H :    0.031830
  25 C :   -0.023046
  26 H :    0.032499
  27 H :    0.003496
  28 C :   -0.059071
  29 H :    0.014693
  30 H :    0.023067
  31 H :    0.022127
  32 H :    0.041633
  33 H :    0.030096

  Mayer bond orders larger than 0.100000
B(  0-S ,  1-C ) :   1.1434 B(  0-S ,  4-C ) :   1.1852 B(  1-C ,  2-C ) :   1.5919
B(  1-C ,  4-C ) :   0.1025 B(  1-C , 32-H ) :   0.9697 B(  2-C ,  3-C ) :   1.2444
B(  2-C ,  6-C ) :   1.0095 B(  3-C ,  4-C ) :   1.5521 B(  3-C ,  5-H ) :   0.9916
B(  4-C , 20-C ) :   1.0082 B(  6-C ,  7-H ) :   0.9481 B(  6-C ,  8-H ) :   0.9352
B(  6-C ,  9-C ) :   1.0607 B(  9-C , 10-H ) :   0.9546 B(  9-C , 11-H ) :   0.9536
B(  9-C , 12-C ) :   1.0790 B( 12-C , 13-H ) :   0.9750 B( 12-C , 14-H ) :   0.9724
B( 12-C , 15-H ) :   0.9718 B( 16-S , 17-C ) :   1.1634 B( 16-S , 20-C ) :   1.1182
B( 17-C , 18-C ) :   1.5873 B( 17-C , 33-H ) :   0.9677 B( 18-C , 19-C ) :   1.2339
B( 18-C , 21-H ) :   0.9989 B( 19-C , 20-C ) :   1.5985 B( 19-C , 22-C ) :   1.0666
B( 22-C , 23-H ) :   0.9336 B( 22-C , 24-H ) :   0.9280 B( 22-C , 25-C ) :   1.0464
B( 25-C , 26-H ) :   0.9570 B( 25-C , 27-H ) :   0.9614 B( 25-C , 28-C ) :   1.0653
B( 28-C , 29-H ) :   0.9777 B( 28-C , 30-H ) :   0.9770 B( 28-C , 31-H ) :   0.9763

Dispersion correction           -0.014584109
FINAL SINGLE POINT ENERGY     -1339.859952248269

DIPOLE MOMENT
-------------
                                X             Y             Z
Electronic contribution:     28.23908      12.23658     -13.90515
Nuclear contribution   :    -28.93277     -12.61437      14.08671
                        -----------------------------------------
Total Dipole Moment    :     -0.69369      -0.37780       0.18157
                        -----------------------------------------
Magnitude (a.u.)       :      0.81050
Magnitude (Debye)      :      2.06012

Rotational constants in cm-1:     0.017414     0.009578     0.006705
Rotational constants in MHz :   522.047601   287.148599   201.021327

                             ****ORCA TERMINATED NORMALLY****
TOTAL RUN TIME: 0 days 0 hours 0 minutes 20 seconds 836 msec
