                         Program Version 4.2.1 -  RELEASE  -
|  1> ! wB97X-D3 SP def2-SVP
|  2> %pal
|  3> nprocs 24
|  4> end
|  5>
|  6> * xyz 0 1
|  7> S 	 -127.595 	 58.9667 	 -54.9747
|  8> C 	 -128.472 	 57.683 	 -55.6731
|  9> C 	 -129.815 	 57.94 	 -55.5888
| 10> C 	 -130.129 	 59.1209 	 -54.8415
| 11> C 	 -129.043 	 59.7287 	 -54.3713
| 12> H 	 -131.133 	 59.3951 	 -54.5306
| 13> C 	 -130.957 	 57.0681 	 -56.1665
| 14> H 	 -130.592 	 56.0525 	 -56.4717
| 15> H 	 -131.213 	 57.4801 	 -57.122
| 16> C 	 -132.204 	 56.906 	 -55.2373
| 17> H 	 -131.786 	 56.899 	 -54.2308
| 18> H 	 -132.904 	 57.7495 	 -55.3602
| 19> C 	 -132.967 	 55.5884 	 -55.3714
| 20> H 	 -133.976 	 55.5648 	 -54.9434
| 21> H 	 -133.026 	 55.2708 	 -56.3952
| 22> H 	 -132.449 	 54.7452 	 -54.8268
| 23> S 	 -128.523 	 62.3757 	 -54.2454
| 24> C 	 -128.879 	 63.2493 	 -52.7615
| 25> C 	 -129.264 	 62.3946 	 -51.7956
| 26> C 	 -129.441 	 61.0336 	 -52.2652
| 27> C 	 -128.984 	 60.86 	 -53.5478
| 28> H 	 -129.602 	 62.8209 	 -50.8644
| 29> C 	 -129.98 	 60.0155 	 -51.3216
| 30> H 	 -129.137 	 59.632 	 -50.9048
| 31> H 	 -130.431 	 59.1752 	 -51.9252
| 32> C 	 -131.029 	 60.4203 	 -50.3515
| 33> H 	 -131.941 	 60.7008 	 -50.8688
| 34> H 	 -130.686 	 61.3026 	 -49.78
| 35> C 	 -131.54 	 59.2921 	 -49.4259
| 36> H 	 -132.361 	 59.6263 	 -48.9273
| 37> H 	 -130.873 	 59.0852 	 -48.5309
| 38> H 	 -131.568 	 58.3377 	 -49.8569
| 39> H 	 -128.107 	 56.8098 	 -56.1366
| 40> H 	 -128.733 	 64.3299 	 -52.58
| 41> *
| 42>
| 43>                          ****END OF INPUT****

CARTESIAN COORDINATES (ANGSTROEM)
---------------------------------
  S    -127.595000   58.966700  -54.974700
  C    -128.472000   57.683000  -55.673100
  C    -129.815000   57.940000  -55.588800
  C    -130.129000   59.120900  -54.841500
  C    -129.043000   59.728700  -54.371300
  H    -131.133000   59.395100  -54.530600
  C    -130.957000   57.068100  -56.166500
  H    -130.592000   56.052500  -56.471700
  H    -131.213000   57.480100  -57.122000
  C    -132.204000   56.906000  -55.237300
  H    -131.786000   56.899000  -54.230800
  H    -132.904000   57.749500  -55.360200
  C    -132.967000   55.588400  -55.371400
  H    -133.976000   55.564800  -54.943400
  H    -133.026000   55.270800  -56.395200
  H    -132.449000   54.745200  -54.826800
  S    -128.523000   62.375700  -54.245400
  C    -128.879000   63.249300  -52.761500
  C    -129.264000   62.394600  -51.795600
  C    -129.441000   61.033600  -52.265200
  C    -128.984000   60.860000  -53.547800
  H    -129.602000   62.820900  -50.864400
  C    -129.980000   60.015500  -51.321600
  H    -129.137000   59.632000  -50.904800
  H    -130.431000   59.175200  -51.925200
  C    -131.029000   60.420300  -50.351500
  H    -131.941000   60.700800  -50.868800
  H    -130.686000   61.302600  -49.780000
  C    -131.540000   59.292100  -49.425900
  H    -132.361000   59.626300  -48.927300
  H    -130.873000   59.085200  -48.530900
  H    -131.568000   58.337700  -49.856900
  H    -128.107000   56.809800  -56.136600
  H    -128.733000   64.329900  -52.580000

 Total Charge           Charge          ....    0
 Multiplicity           Mult            ....    1
 Number of Electrons    NEL             ....  134
 Basis Dimension        Dim             ....  322

ORBITAL ENERGIES
----------------

  NO   OCC          E(Eh)            E(eV)
   0   2.0000     -88.961479     -2420.7649
   1   2.0000     -88.960140     -2420.7285
   2   2.0000     -10.317030      -280.7407
   3   2.0000     -10.315627      -280.7025
   4   2.0000     -10.314950      -280.6841
   5   2.0000     -10.305939      -280.4389
   6   2.0000     -10.300297      -280.2853
   7   2.0000     -10.298160      -280.2272
   8   2.0000     -10.295581      -280.1570
   9   2.0000     -10.290959      -280.0312
  10   2.0000     -10.287640      -279.9409
  11   2.0000     -10.287284      -279.9312
  12   2.0000     -10.286767      -279.9172
  13   2.0000     -10.281550      -279.7752
  14   2.0000     -10.280251      -279.7399
  15   2.0000     -10.272196      -279.5207
  16   2.0000      -8.077485      -219.7995
  17   2.0000      -8.075407      -219.7430
  18   2.0000      -6.035964      -164.2469
  19   2.0000      -6.034056      -164.1950
  20   2.0000      -6.031818      -164.1341
  21   2.0000      -6.029823      -164.0798
  22   2.0000      -6.028184      -164.0352
  23   2.0000      -6.026003      -163.9759
  24   2.0000      -1.017077       -27.6761
  25   2.0000      -0.990102       -26.9420
  26   2.0000      -0.917137       -24.9566
  27   2.0000      -0.906188       -24.6586
  28   2.0000      -0.881079       -23.9754
  29   2.0000      -0.851920       -23.1819
  30   2.0000      -0.847098       -23.0507
  31   2.0000      -0.821724       -22.3602
  32   2.0000      -0.784975       -21.3603
  33   2.0000      -0.772983       -21.0339
  34   2.0000      -0.716009       -19.4836
  35   2.0000      -0.704388       -19.1674
  36   2.0000      -0.693853       -18.8807
  37   2.0000      -0.655106       -17.8263
  38   2.0000      -0.645775       -17.5724
  39   2.0000      -0.623511       -16.9666
  40   2.0000      -0.600850       -16.3500
  41   2.0000      -0.571503       -15.5514
  42   2.0000      -0.569505       -15.4970
  43   2.0000      -0.560824       -15.2608
  44   2.0000      -0.540806       -14.7161
  45   2.0000      -0.527320       -14.3491
  46   2.0000      -0.520779       -14.1711
  47   2.0000      -0.515742       -14.0341
  48   2.0000      -0.507363       -13.8060
  49   2.0000      -0.500795       -13.6273
  50   2.0000      -0.488066       -13.2809
  51   2.0000      -0.484565       -13.1857
  52   2.0000      -0.474790       -12.9197
  53   2.0000      -0.470568       -12.8048
  54   2.0000      -0.458198       -12.4682
  55   2.0000      -0.454541       -12.3687
  56   2.0000      -0.446821       -12.1586
  57   2.0000      -0.432505       -11.7691
  58   2.0000      -0.428663       -11.6645
  59   2.0000      -0.423407       -11.5215
  60   2.0000      -0.416084       -11.3222
  61   2.0000      -0.414384       -11.2760
  62   2.0000      -0.412421       -11.2225
  63   2.0000      -0.345954        -9.4139
  64   2.0000      -0.329363        -8.9624
  65   2.0000      -0.324443        -8.8285
  66   2.0000      -0.301786        -8.2120
  67   0.0000       0.047966         1.3052
  68   0.0000       0.064990         1.7685
  69   0.0000       0.127555         3.4710
  70   0.0000       0.129816         3.5325
  71   0.0000       0.133044         3.6203

MULLIKEN ATOMIC CHARGES
-----------------------
   0 S :    0.118327
   1 C :   -0.091091
   2 C :   -0.121310
   3 C :    0.056815
   4 C :   -0.186767
   5 H :    0.015653
   6 C :    0.074784
   7 H :    0.013415
   8 H :    0.034202
   9 C :   -0.096206
  10 H :    0.038528
  11 H :    0.044656
  12 C :   -0.063351
  13 H :    0.037809
  14 H :    0.028153
  15 H :    0.034356
  16 S :    0.105045
  17 C :   -0.100456
  18 C :   -0.033003
  19 C :   -0.044951
  20 C :   -0.143182
  21 H :    0.016705
  22 C :    0.121826
  23 H :    0.016164
  24 H :    0.019979
  25 C :   -0.105732
  26 H :    0.029387
  27 H :    0.033444
  28 C :    0.004204
  29 H :    0.012590
  30 H :    0.016942
  31 H :    0.022489
  32 H :    0.024926
  33 H :    0.065651
Sum of atomic charges:   -0.0000000

LOEWDIN ATOMIC CHARGES
----------------------
   0 S :    0.421884
   1 C :   -0.204449
   2 C :   -0.064025
   3 C :   -0.056331
   4 C :   -0.198456
   5 H :    0.034455
   6 C :   -0.032324
   7 H :    0.029684
   8 H :    0.029301
   9 C :   -0.047525
  10 H :    0.026885
  11 H :    0.026212
  12 C :   -0.071616
  13 H :    0.028847
  14 H :    0.019704
  15 H :    0.031300
  16 S :    0.404289
  17 C :   -0.181095
  18 C :   -0.077717
  19 C :   -0.044562
  20 C :   -0.214810
  21 H :    0.029278
  22 C :   -0.033160
  23 H :    0.024120
  24 H :    0.036804
  25 C :   -0.038642
  26 H :    0.027035
  27 H :    0.023824
  28 C :   -0.056345
  29 H :    0.014674
  30 H :    0.031188
  31 H :    0.020003
  32 H :    0.023101
  33 H :    0.038471

  Mayer bond orders larger than 0.100000
B(  0-S ,  1-C ) :   1.1356 B(  0-S ,  4-C ) :   1.1436 B(  1-C ,  2-C ) :   1.6373
B(  1-C , 32-H ) :   0.9742 B(  2-C ,  3-C ) :   1.2201 B(  2-C ,  6-C ) :   1.0179
B(  3-C ,  4-C ) :   1.6145 B(  3-C ,  5-H ) :   0.9955 B(  4-C , 20-C ) :   1.0214
B(  6-C ,  7-H ) :   0.9487 B(  6-C ,  8-H ) :   0.9312 B(  6-C ,  9-C ) :   1.0470
B(  9-C , 10-H ) :   0.9676 B(  9-C , 11-H ) :   0.9506 B(  9-C , 12-C ) :   1.0850
B( 12-C , 13-H ) :   0.9743 B( 12-C , 14-H ) :   0.9764 B( 12-C , 15-H ) :   0.9746
B( 16-S , 17-C ) :   1.1437 B( 16-S , 20-C ) :   1.1348 B( 17-C , 18-C ) :   1.6584
B( 17-C , 33-H ) :   0.9595 B( 18-C , 19-C ) :   1.2037 B( 18-C , 21-H ) :   0.9835
B( 19-C , 20-C ) :   1.6291 B( 19-C , 22-C ) :   1.0421 B( 22-C , 23-H ) :   0.9229
B( 22-C , 24-H ) :   0.9212 B( 22-C , 25-C ) :   1.0741 B( 25-C , 26-H ) :   0.9580
B( 25-C , 27-H ) :   0.9467 B( 25-C , 28-C ) :   1.0883 B( 28-C , 29-H ) :   0.9721
B( 28-C , 30-H ) :   0.9688 B( 28-C , 31-H ) :   0.9737

Dispersion correction           -0.013770710
FINAL SINGLE POINT ENERGY     -1339.866013465056

DIPOLE MOMENT
-------------
                                X             Y             Z
Electronic contribution:     23.51377      17.39807     -11.86290
Nuclear contribution   :    -24.15338     -17.68949      12.23226
                        -----------------------------------------
Total Dipole Moment    :     -0.63961      -0.29143       0.36936
                        -----------------------------------------
Magnitude (a.u.)       :      0.79401
Magnitude (Debye)      :      2.01822

Rotational constants in cm-1:     0.015907     0.009362     0.006688
Rotational constants in MHz :   476.872325   280.676116   200.501848

                             ****ORCA TERMINATED NORMALLY****
TOTAL RUN TIME: 0 days 0 hours 0 minutes 20 seconds 377 msec
