                         Program Version 4.2.1 -  RELEASE  -
|  1> ! wB97X-D3 SP def2-SVP
|  2> %pal
|  3> nprocs 24
|  4> end
|  5>
|  6> * xyz 0 1
|  7> S 	 -147.564 	 4.69262 	 9.90193
|  8> C 	 -147.483 	 3.12482 	 9.11791
|  9> C 	 -146.183 	 2.99284 	 8.57949
| 10> C 	 -145.336 	 4.11523 	 8.80335
| 11> C 	 -145.964 	 5.21012 	 9.43468
| 12> H 	 -144.404 	 4.22662 	 8.27223
| 13> C 	 -145.656 	 1.90404 	 7.59405
| 14> H 	 -145.625 	 2.38748 	 6.62413
| 15> H 	 -146.451 	 1.17301 	 7.47839
| 16> C 	 -144.304 	 1.14164 	 7.85097
| 17> H 	 -143.412 	 1.80827 	 7.75106
| 18> H 	 -144.222 	 0.874308 	 8.86729
| 19> C 	 -144.008 	 -0.124867 	 7.02515
| 20> H 	 -144.722 	 -0.902032 	 7.29251
| 21> H 	 -144.004 	 0.200164 	 5.95996
| 22> H 	 -143.02 	 -0.576328 	 7.11509
| 23> S 	 -143.991 	 6.47026 	 10.8147
| 24> C 	 -143.905 	 8.19622 	 10.8688
| 25> C 	 -145.009 	 8.82339 	 10.2382
| 26> C 	 -145.861 	 7.7975 	 9.61941
| 27> C 	 -145.462 	 6.5 	 9.86902
| 28> H 	 -145.07 	 9.86408 	 10.2436
| 29> C 	 -147.091 	 8.25493 	 8.87696
| 30> H 	 -147.686 	 7.43772 	 8.57051
| 31> H 	 -146.769 	 8.83015 	 8.04918
| 32> C 	 -148.051 	 9.12117 	 9.69016
| 33> H 	 -147.581 	 9.85847 	 10.3698
| 34> H 	 -148.619 	 8.57913 	 10.5209
| 35> C 	 -149.077 	 9.77685 	 8.78552
| 36> H 	 -149.843 	 10.1887 	 9.46954
| 37> H 	 -149.513 	 8.96631 	 8.14499
| 38> H 	 -148.679 	 10.5756 	 8.2402
| 39> H 	 -148.266 	 2.38122 	 9.06698
| 40> H 	 -143.233 	 8.71852 	 11.4514
| 41> *
| 42>
| 43>                          ****END OF INPUT****

CARTESIAN COORDINATES (ANGSTROEM)
---------------------------------
  S    -147.564000    4.692620    9.901930
  C    -147.483000    3.124820    9.117910
  C    -146.183000    2.992840    8.579490
  C    -145.336000    4.115230    8.803350
  C    -145.964000    5.210120    9.434680
  H    -144.404000    4.226620    8.272230
  C    -145.656000    1.904040    7.594050
  H    -145.625000    2.387480    6.624130
  H    -146.451000    1.173010    7.478390
  C    -144.304000    1.141640    7.850970
  H    -143.412000    1.808270    7.751060
  H    -144.222000    0.874308    8.867290
  C    -144.008000   -0.124867    7.025150
  H    -144.722000   -0.902032    7.292510
  H    -144.004000    0.200164    5.959960
  H    -143.020000   -0.576328    7.115090
  S    -143.991000    6.470260   10.814700
  C    -143.905000    8.196220   10.868800
  C    -145.009000    8.823390   10.238200
  C    -145.861000    7.797500    9.619410
  C    -145.462000    6.500000    9.869020
  H    -145.070000    9.864080   10.243600
  C    -147.091000    8.254930    8.876960
  H    -147.686000    7.437720    8.570510
  H    -146.769000    8.830150    8.049180
  C    -148.051000    9.121170    9.690160
  H    -147.581000    9.858470   10.369800
  H    -148.619000    8.579130   10.520900
  C    -149.077000    9.776850    8.785520
  H    -149.843000   10.188700    9.469540
  H    -149.513000    8.966310    8.144990
  H    -148.679000   10.575600    8.240200
  H    -148.266000    2.381220    9.066980
  H    -143.233000    8.718520   11.451400

 Total Charge           Charge          ....    0
 Multiplicity           Mult            ....    1
 Number of Electrons    NEL             ....  134
 Basis Dimension        Dim             ....  322

ORBITAL ENERGIES
----------------

  NO   OCC          E(Eh)            E(eV)
   0   2.0000     -88.967218     -2420.9211
   1   2.0000     -88.965923     -2420.8858
   2   2.0000     -10.334690      -281.2212
   3   2.0000     -10.327087      -281.0143
   4   2.0000     -10.320705      -280.8407
   5   2.0000     -10.316284      -280.7204
   6   2.0000     -10.308497      -280.5085
   7   2.0000     -10.307931      -280.4931
   8   2.0000     -10.298123      -280.2262
   9   2.0000     -10.297741      -280.2158
  10   2.0000     -10.294085      -280.1163
  11   2.0000     -10.288224      -279.9568
  12   2.0000     -10.286544      -279.9111
  13   2.0000     -10.282901      -279.8120
  14   2.0000     -10.282528      -279.8018
  15   2.0000     -10.275722      -279.6166
  16   2.0000      -8.081434      -219.9070
  17   2.0000      -8.081005      -219.8953
  18   2.0000      -6.039943      -164.3552
  19   2.0000      -6.039490      -164.3429
  20   2.0000      -6.035695      -164.2396
  21   2.0000      -6.035374      -164.2309
  22   2.0000      -6.032523      -164.1533
  23   2.0000      -6.031848      -164.1349
  24   2.0000      -1.004894       -27.3446
  25   2.0000      -0.981020       -26.6949
  26   2.0000      -0.913401       -24.8549
  27   2.0000      -0.901078       -24.5196
  28   2.0000      -0.869461       -23.6592
  29   2.0000      -0.851712       -23.1763
  30   2.0000      -0.845308       -23.0020
  31   2.0000      -0.812393       -22.1063
  32   2.0000      -0.782880       -21.3033
  33   2.0000      -0.771096       -20.9826
  34   2.0000      -0.707408       -19.2496
  35   2.0000      -0.698032       -18.9944
  36   2.0000      -0.693520       -18.8716
  37   2.0000      -0.669536       -18.2190
  38   2.0000      -0.638324       -17.3697
  39   2.0000      -0.620168       -16.8756
  40   2.0000      -0.601640       -16.3715
  41   2.0000      -0.569157       -15.4875
  42   2.0000      -0.565153       -15.3786
  43   2.0000      -0.559700       -15.2302
  44   2.0000      -0.527355       -14.3501
  45   2.0000      -0.524510       -14.2726
  46   2.0000      -0.520637       -14.1673
  47   2.0000      -0.513276       -13.9670
  48   2.0000      -0.509817       -13.8728
  49   2.0000      -0.505969       -13.7681
  50   2.0000      -0.493565       -13.4306
  51   2.0000      -0.474810       -12.9202
  52   2.0000      -0.469768       -12.7830
  53   2.0000      -0.461614       -12.5611
  54   2.0000      -0.460530       -12.5317
  55   2.0000      -0.451552       -12.2873
  56   2.0000      -0.445840       -12.1319
  57   2.0000      -0.438738       -11.9387
  58   2.0000      -0.423186       -11.5155
  59   2.0000      -0.419470       -11.4144
  60   2.0000      -0.417102       -11.3499
  61   2.0000      -0.414506       -11.2793
  62   2.0000      -0.408587       -11.1182
  63   2.0000      -0.343697        -9.3525
  64   2.0000      -0.331500        -9.0206
  65   2.0000      -0.326890        -8.8951
  66   2.0000      -0.295962        -8.0535
  67   0.0000       0.030362         0.8262
  68   0.0000       0.067633         1.8404
  69   0.0000       0.107864         2.9351
  70   0.0000       0.115617         3.1461
  71   0.0000       0.134623         3.6633

MULLIKEN ATOMIC CHARGES
-----------------------
   0 S :    0.110485
   1 C :   -0.121120
   2 C :   -0.093119
   3 C :    0.030058
   4 C :   -0.166475
   5 H :    0.020627
   6 C :    0.053212
   7 H :    0.041139
   8 H :    0.007758
   9 C :   -0.067407
  10 H :    0.026673
  11 H :    0.019375
  12 C :   -0.069540
  13 H :    0.040928
  14 H :    0.034199
  15 H :    0.035635
  16 S :    0.122195
  17 C :   -0.066875
  18 C :   -0.025379
  19 C :   -0.033528
  20 C :   -0.141502
  21 H :    0.007129
  22 C :    0.140255
  23 H :    0.009668
  24 H :    0.021709
  25 C :   -0.147771
  26 H :    0.021897
  27 H :    0.031429
  28 C :   -0.028832
  29 H :    0.033467
  30 H :    0.041218
  31 H :    0.028005
  32 H :    0.051751
  33 H :    0.032738
Sum of atomic charges:    0.0000000

LOEWDIN ATOMIC CHARGES
----------------------
   0 S :    0.420700
   1 C :   -0.205066
   2 C :   -0.060496
   3 C :   -0.070865
   4 C :   -0.194739
   5 H :    0.030848
   6 C :   -0.030250
   7 H :    0.033744
   8 H :    0.024859
   9 C :   -0.045808
  10 H :    0.025395
  11 H :    0.017509
  12 C :   -0.069135
  13 H :    0.025396
  14 H :    0.029158
  15 H :    0.029256
  16 S :    0.423996
  17 C :   -0.173670
  18 C :   -0.058712
  19 C :   -0.043019
  20 C :   -0.213590
  21 H :    0.022038
  22 C :   -0.026753
  23 H :    0.020834
  24 H :    0.030455
  25 C :   -0.051139
  26 H :    0.018951
  27 H :    0.029609
  28 C :   -0.061177
  29 H :    0.031518
  30 H :    0.032372
  31 H :    0.014833
  32 H :    0.030901
  33 H :    0.012050

  Mayer bond orders larger than 0.100000
B(  0-S ,  1-C ) :   1.1475 B(  0-S ,  4-C ) :   1.1750 B(  1-C ,  2-C ) :   1.5683
B(  1-C ,  4-C ) :   0.1121 B(  1-C , 32-H ) :   0.9732 B(  2-C ,  3-C ) :   1.2811
B(  2-C ,  6-C ) :   1.0224 B(  3-C ,  4-C ) :   1.5342 B(  3-C ,  5-H ) :   0.9944
B(  4-C , 20-C ) :   1.0277 B(  6-C ,  7-H ) :   0.9442 B(  6-C ,  8-H ) :   0.9455
B(  6-C ,  9-C ) :   1.0418 B(  9-C , 10-H ) :   0.9535 B(  9-C , 11-H ) :   0.9599
B(  9-C , 12-C ) :   1.0869 B( 12-C , 13-H ) :   0.9764 B( 12-C , 14-H ) :   0.9764
B( 12-C , 15-H ) :   0.9742 B( 16-S , 17-C ) :   1.1755 B( 16-S , 20-C ) :   1.1286
B( 17-C , 18-C ) :   1.6019 B( 17-C , 33-H ) :   0.9744 B( 18-C , 19-C ) :   1.2133
B( 18-C , 21-H ) :   1.0008 B( 19-C , 20-C ) :   1.6063 B( 19-C , 22-C ) :   1.0562
B( 22-C , 23-H ) :   0.9258 B( 22-C , 24-H ) :   0.9294 B( 22-C , 25-C ) :   1.0478
B( 25-C , 26-H ) :   0.9567 B( 25-C , 27-H ) :   0.9547 B( 25-C , 28-C ) :   1.0809
B( 28-C , 29-H ) :   0.9724 B( 28-C , 30-H ) :   0.9719 B( 28-C , 31-H ) :   0.9771

Dispersion correction           -0.013447042
FINAL SINGLE POINT ENERGY     -1339.869515027278

DIPOLE MOMENT
-------------
                                X             Y             Z
Electronic contribution:      4.21233       4.18485      13.32880
Nuclear contribution   :     -4.17895      -4.05897     -13.62668
                        -----------------------------------------
Total Dipole Moment    :      0.03338       0.12589      -0.29788
                        -----------------------------------------
Magnitude (a.u.)       :      0.32511
Magnitude (Debye)      :      0.82636

Rotational constants in cm-1:     0.022312     0.006984     0.005809
Rotational constants in MHz :   668.899462   209.370694   174.135679

                             ****ORCA TERMINATED NORMALLY****
TOTAL RUN TIME: 0 days 0 hours 0 minutes 21 seconds 210 msec
