                         Program Version 4.2.1 -  RELEASE  -
|  1> ! wB97X-D3 SP def2-SVP
|  2> %pal
|  3> nprocs 24
|  4> end
|  5>
|  6> * xyz 0 1
|  7> S 	 -126.249 	 16.5035 	 -23.5442
|  8> C 	 -124.827 	 16.4999 	 -22.5615
|  9> C 	 -123.846 	 17.3487 	 -23.0758
| 10> C 	 -124.222 	 17.8073 	 -24.3655
| 11> C 	 -125.514 	 17.5655 	 -24.7426
| 12> H 	 -123.63 	 18.3302 	 -25.1023
| 13> C 	 -122.433 	 17.4498 	 -22.5455
| 14> H 	 -121.676 	 17.2092 	 -23.3386
| 15> H 	 -122.402 	 16.649 	 -21.8414
| 16> C 	 -122.05 	 18.7796 	 -21.8662
| 17> H 	 -122.183 	 19.4964 	 -22.7355
| 18> H 	 -122.662 	 19.106 	 -21.058
| 19> C 	 -120.642 	 18.8166 	 -21.3263
| 20> H 	 -120.391 	 18.0501 	 -20.5735
| 21> H 	 -119.939 	 18.8279 	 -22.1233
| 22> H 	 -120.413 	 19.7518 	 -20.7938
| 23> S 	 -126.951 	 19.2919 	 -26.1843
| 24> C 	 -127.618 	 18.7464 	 -27.6662
| 25> C 	 -126.986 	 17.5989 	 -28.1963
| 26> C 	 -126.235 	 16.9763 	 -27.1297
| 27> C 	 -126.138 	 17.7999 	 -25.9994
| 28> H 	 -127.337 	 17.1962 	 -29.1411
| 29> C 	 -125.397 	 15.6934 	 -27.2482
| 30> H 	 -125.794 	 15.0384 	 -28.0352
| 31> H 	 -125.51 	 15.1721 	 -26.3114
| 32> C 	 -123.914 	 16.0278 	 -27.6142
| 33> H 	 -123.385 	 15.1768 	 -27.2696
| 34> H 	 -123.439 	 16.8607 	 -27.006
| 35> C 	 -123.722 	 16.2181 	 -29.178
| 36> H 	 -122.697 	 16.2238 	 -29.6028
| 37> H 	 -124.346 	 17.1616 	 -29.3483
| 38> H 	 -124.181 	 15.4299 	 -29.7318
| 39> H 	 -124.631 	 15.8763 	 -21.6598
| 40> H 	 -128.313 	 19.3101 	 -28.2633
| 41> *
| 42>
| 43>                          ****END OF INPUT****

CARTESIAN COORDINATES (ANGSTROEM)
---------------------------------
  S    -126.249000   16.503500  -23.544200
  C    -124.827000   16.499900  -22.561500
  C    -123.846000   17.348700  -23.075800
  C    -124.222000   17.807300  -24.365500
  C    -125.514000   17.565500  -24.742600
  H    -123.630000   18.330200  -25.102300
  C    -122.433000   17.449800  -22.545500
  H    -121.676000   17.209200  -23.338600
  H    -122.402000   16.649000  -21.841400
  C    -122.050000   18.779600  -21.866200
  H    -122.183000   19.496400  -22.735500
  H    -122.662000   19.106000  -21.058000
  C    -120.642000   18.816600  -21.326300
  H    -120.391000   18.050100  -20.573500
  H    -119.939000   18.827900  -22.123300
  H    -120.413000   19.751800  -20.793800
  S    -126.951000   19.291900  -26.184300
  C    -127.618000   18.746400  -27.666200
  C    -126.986000   17.598900  -28.196300
  C    -126.235000   16.976300  -27.129700
  C    -126.138000   17.799900  -25.999400
  H    -127.337000   17.196200  -29.141100
  C    -125.397000   15.693400  -27.248200
  H    -125.794000   15.038400  -28.035200
  H    -125.510000   15.172100  -26.311400
  C    -123.914000   16.027800  -27.614200
  H    -123.385000   15.176800  -27.269600
  H    -123.439000   16.860700  -27.006000
  C    -123.722000   16.218100  -29.178000
  H    -122.697000   16.223800  -29.602800
  H    -124.346000   17.161600  -29.348300
  H    -124.181000   15.429900  -29.731800
  H    -124.631000   15.876300  -21.659800
  H    -128.313000   19.310100  -28.263300

 Total Charge           Charge          ....    0
 Multiplicity           Mult            ....    1
 Number of Electrons    NEL             ....  134
 Basis Dimension        Dim             ....  322

ORBITAL ENERGIES
----------------

  NO   OCC          E(Eh)            E(eV)
   0   2.0000     -88.967510     -2420.9290
   1   2.0000     -88.965187     -2420.8658
   2   2.0000     -10.320556      -280.8366
   3   2.0000     -10.318284      -280.7748
   4   2.0000     -10.316093      -280.7152
   5   2.0000     -10.315488      -280.6987
   6   2.0000     -10.306957      -280.4665
   7   2.0000     -10.300016      -280.2777
   8   2.0000     -10.299102      -280.2528
   9   2.0000     -10.292955      -280.0856
  10   2.0000     -10.292770      -280.0805
  11   2.0000     -10.290721      -280.0247
  12   2.0000     -10.289941      -280.0035
  13   2.0000     -10.286933      -279.9217
  14   2.0000     -10.283832      -279.8373
  15   2.0000     -10.275746      -279.6173
  16   2.0000      -8.083543      -219.9644
  17   2.0000      -8.079826      -219.8632
  18   2.0000      -6.041726      -164.4037
  19   2.0000      -6.038277      -164.3099
  20   2.0000      -6.037861      -164.2986
  21   2.0000      -6.034574      -164.2091
  22   2.0000      -6.034208      -164.1992
  23   2.0000      -6.030775      -164.1057
  24   2.0000      -1.011683       -27.5293
  25   2.0000      -0.986962       -26.8566
  26   2.0000      -0.911618       -24.8064
  27   2.0000      -0.901589       -24.5335
  28   2.0000      -0.872726       -23.7481
  29   2.0000      -0.850503       -23.1434
  30   2.0000      -0.842665       -22.9301
  31   2.0000      -0.814716       -22.1695
  32   2.0000      -0.781612       -21.2687
  33   2.0000      -0.766988       -20.8708
  34   2.0000      -0.707929       -19.2637
  35   2.0000      -0.697349       -18.9758
  36   2.0000      -0.688705       -18.7406
  37   2.0000      -0.662755       -18.0345
  38   2.0000      -0.645856       -17.5746
  39   2.0000      -0.617127       -16.7929
  40   2.0000      -0.590413       -16.0660
  41   2.0000      -0.576388       -15.6843
  42   2.0000      -0.560048       -15.2397
  43   2.0000      -0.552746       -15.0410
  44   2.0000      -0.531235       -14.4556
  45   2.0000      -0.518744       -14.1157
  46   2.0000      -0.517636       -14.0856
  47   2.0000      -0.508894       -13.8477
  48   2.0000      -0.504990       -13.7415
  49   2.0000      -0.500004       -13.6058
  50   2.0000      -0.487550       -13.2669
  51   2.0000      -0.474399       -12.9091
  52   2.0000      -0.468174       -12.7397
  53   2.0000      -0.464235       -12.6325
  54   2.0000      -0.460607       -12.5338
  55   2.0000      -0.452927       -12.3248
  56   2.0000      -0.444611       -12.0985
  57   2.0000      -0.436622       -11.8811
  58   2.0000      -0.430747       -11.7212
  59   2.0000      -0.428598       -11.6627
  60   2.0000      -0.423158       -11.5147
  61   2.0000      -0.413588       -11.2543
  62   2.0000      -0.406487       -11.0611
  63   2.0000      -0.335732        -9.1357
  64   2.0000      -0.333332        -9.0704
  65   2.0000      -0.315801        -8.5934
  66   2.0000      -0.306646        -8.3443
  67   0.0000       0.043450         1.1823
  68   0.0000       0.051960         1.4139
  69   0.0000       0.107421         2.9231
  70   0.0000       0.118881         3.2349
  71   0.0000       0.128919         3.5081

MULLIKEN ATOMIC CHARGES
-----------------------
   0 S :    0.119251
   1 C :   -0.136547
   2 C :   -0.064482
   3 C :    0.039263
   4 C :   -0.169428
   5 H :    0.012400
   6 C :    0.057224
   7 H :    0.039266
   8 H :   -0.003772
   9 C :   -0.072320
  10 H :    0.032169
  11 H :    0.028856
  12 C :   -0.037303
  13 H :    0.035580
  14 H :    0.018323
  15 H :    0.028610
  16 S :    0.145653
  17 C :   -0.098266
  18 C :   -0.043460
  19 C :   -0.036099
  20 C :   -0.206341
  21 H :    0.030641
  22 C :    0.081660
  23 H :    0.021868
  24 H :    0.028033
  25 C :   -0.064136
  26 H :    0.017010
  27 H :    0.038276
  28 C :   -0.072888
  29 H :    0.048430
  30 H :    0.049466
  31 H :    0.018822
  32 H :    0.065116
  33 H :    0.049125
Sum of atomic charges:   -0.0000000

LOEWDIN ATOMIC CHARGES
----------------------
   0 S :    0.413811
   1 C :   -0.204617
   2 C :   -0.070333
   3 C :   -0.056622
   4 C :   -0.204922
   5 H :    0.028553
   6 C :   -0.031578
   7 H :    0.038016
   8 H :    0.019358
   9 C :   -0.042099
  10 H :    0.030925
  11 H :    0.021905
  12 C :   -0.069163
  13 H :    0.028139
  14 H :    0.018466
  15 H :    0.029856
  16 S :    0.452143
  17 C :   -0.190620
  18 C :   -0.076366
  19 C :   -0.043244
  20 C :   -0.235162
  21 H :    0.033670
  22 C :   -0.025780
  23 H :    0.030344
  24 H :    0.028513
  25 C :   -0.037822
  26 H :    0.015035
  27 H :    0.029932
  28 C :   -0.075938
  29 H :    0.030805
  30 H :    0.037519
  31 H :    0.016656
  32 H :    0.038511
  33 H :    0.022108

  Mayer bond orders larger than 0.100000
B(  0-S ,  1-C ) :   1.1640 B(  0-S ,  4-C ) :   1.1279 B(  1-C ,  2-C ) :   1.5973
B(  1-C , 32-H ) :   0.9570 B(  2-C ,  3-C ) :   1.2323 B(  2-C ,  6-C ) :   1.0277
B(  3-C ,  4-C ) :   1.6145 B(  3-C ,  5-H ) :   0.9857 B(  4-C , 20-C ) :   1.0254
B(  6-C ,  7-H ) :   0.9477 B(  6-C ,  8-H ) :   0.9361 B(  6-C ,  9-C ) :   1.0515
B(  9-C , 10-H ) :   0.9569 B(  9-C , 11-H ) :   0.9583 B(  9-C , 12-C ) :   1.0902
B( 12-C , 13-H ) :   0.9728 B( 12-C , 14-H ) :   0.9724 B( 12-C , 15-H ) :   0.9720
B( 16-S , 17-C ) :   1.1934 B( 16-S , 20-C ) :   1.1646 B( 17-C , 18-C ) :   1.5844
B( 17-C , 20-C ) :   0.1046 B( 17-C , 33-H ) :   0.9677 B( 18-C , 19-C ) :   1.2492
B( 18-C , 21-H ) :   0.9842 B( 19-C , 20-C ) :   1.5677 B( 19-C , 22-C ) :   1.0572
B( 22-C , 23-H ) :   0.9378 B( 22-C , 24-H ) :   0.9218 B( 22-C , 25-C ) :   1.0598
B( 25-C , 26-H ) :   0.9559 B( 25-C , 27-H ) :   0.9589 B( 25-C , 28-C ) :   1.0540
B( 28-C , 29-H ) :   0.9766 B( 28-C , 30-H ) :   0.9766 B( 28-C , 31-H ) :   0.9759

Dispersion correction           -0.014954395
FINAL SINGLE POINT ENERGY     -1339.868060058953

DIPOLE MOMENT
-------------
                                X             Y             Z
Electronic contribution:    -24.86756       3.76673       1.02042
Nuclear contribution   :     25.33957      -3.98525      -1.18098
                        -----------------------------------------
Total Dipole Moment    :      0.47201      -0.21852      -0.16056
                        -----------------------------------------
Magnitude (a.u.)       :      0.54436
Magnitude (Debye)      :      1.38365

Rotational constants in cm-1:     0.020197     0.007822     0.007035
Rotational constants in MHz :   605.498009   234.508206   210.913695

                             ****ORCA TERMINATED NORMALLY****
TOTAL RUN TIME: 0 days 0 hours 0 minutes 20 seconds 691 msec
