                         Program Version 4.2.1 -  RELEASE  -
|  1> ! wB97X-D3 SP def2-SVP
|  2> %pal
|  3> nprocs 24
|  4> end
|  5>
|  6> * xyz 0 1
|  7> S 	 -99.46 	 1.10348 	 -121.657
|  8> C 	 -100.499 	 1.803 	 -120.53
|  9> C 	 -101.323 	 0.854073 	 -119.956
| 10> C 	 -101.128 	 -0.458821 	 -120.531
| 11> C 	 -100.227 	 -0.419989 	 -121.576
| 12> H 	 -101.71 	 -1.39567 	 -120.379
| 13> C 	 -102.434 	 1.08653 	 -118.935
| 14> H 	 -103.476 	 0.885805 	 -119.304
| 15> H 	 -102.383 	 2.06675 	 -118.542
| 16> C 	 -102.312 	 0.227454 	 -117.638
| 17> H 	 -102.546 	 -0.783312 	 -118.002
| 18> H 	 -101.257 	 0.108175 	 -117.319
| 19> C 	 -103.38 	 0.50556 	 -116.54
| 20> H 	 -103.489 	 1.51457 	 -116.317
| 21> H 	 -104.347 	 0.151454 	 -116.781
| 22> H 	 -103.107 	 0.0620233 	 -115.505
| 23> S 	 -100.2 	 -0.968141 	 -124.112
| 24> C 	 -99.8549 	 -2.60982 	 -124.684
| 25> C 	 -99.5342 	 -3.44495 	 -123.647
| 26> C 	 -99.5422 	 -2.81687 	 -122.343
| 27> C 	 -99.8385 	 -1.49056 	 -122.505
| 28> H 	 -99.397 	 -4.57752 	 -123.898
| 29> C 	 -99.3291 	 -3.52502 	 -120.957
| 30> H 	 -99.31 	 -4.5863 	 -121.172
| 31> H 	 -100.172 	 -3.4997 	 -120.293
| 32> C 	 -98.1337 	 -3.09757 	 -120.098
| 33> H 	 -98.2599 	 -3.5008 	 -119.071
| 34> H 	 -98.0747 	 -2.04271 	 -120.071
| 35> C 	 -96.8095 	 -3.64388 	 -120.407
| 36> H 	 -96.1543 	 -3.39637 	 -119.656
| 37> H 	 -96.4335 	 -3.27504 	 -121.303
| 38> H 	 -96.7693 	 -4.726 	 -120.471
| 39> H 	 -100.48 	 2.84894 	 -120.297
| 40> H 	 -99.9174 	 -2.92366 	 -125.767
| 41> *
| 42>
| 43>                          ****END OF INPUT****

CARTESIAN COORDINATES (ANGSTROEM)
---------------------------------
  S    -99.460000    1.103480  -121.657000
  C    -100.499000    1.803000  -120.530000
  C    -101.323000    0.854073  -119.956000
  C    -101.128000   -0.458821  -120.531000
  C    -100.227000   -0.419989  -121.576000
  H    -101.710000   -1.395670  -120.379000
  C    -102.434000    1.086530  -118.935000
  H    -103.476000    0.885805  -119.304000
  H    -102.383000    2.066750  -118.542000
  C    -102.312000    0.227454  -117.638000
  H    -102.546000   -0.783312  -118.002000
  H    -101.257000    0.108175  -117.319000
  C    -103.380000    0.505560  -116.540000
  H    -103.489000    1.514570  -116.317000
  H    -104.347000    0.151454  -116.781000
  H    -103.107000    0.062023  -115.505000
  S    -100.200000   -0.968141  -124.112000
  C    -99.854900   -2.609820  -124.684000
  C    -99.534200   -3.444950  -123.647000
  C    -99.542200   -2.816870  -122.343000
  C    -99.838500   -1.490560  -122.505000
  H    -99.397000   -4.577520  -123.898000
  C    -99.329100   -3.525020  -120.957000
  H    -99.310000   -4.586300  -121.172000
  H    -100.172000   -3.499700  -120.293000
  C    -98.133700   -3.097570  -120.098000
  H    -98.259900   -3.500800  -119.071000
  H    -98.074700   -2.042710  -120.071000
  C    -96.809500   -3.643880  -120.407000
  H    -96.154300   -3.396370  -119.656000
  H    -96.433500   -3.275040  -121.303000
  H    -96.769300   -4.726000  -120.471000
  H    -100.480000    2.848940  -120.297000
  H    -99.917400   -2.923660  -125.767000

 Total Charge           Charge          ....    0
 Multiplicity           Mult            ....    1
 Number of Electrons    NEL             ....  134
 Basis Dimension        Dim             ....  322

ORBITAL ENERGIES
----------------

  NO   OCC          E(Eh)            E(eV)
   0   2.0000     -88.965412     -2420.8719
   1   2.0000     -88.964076     -2420.8356
   2   2.0000     -10.323916      -280.9280
   3   2.0000     -10.323646      -280.9207
   4   2.0000     -10.320784      -280.8428
   5   2.0000     -10.310455      -280.5617
   6   2.0000     -10.308893      -280.5192
   7   2.0000     -10.305196      -280.4186
   8   2.0000     -10.304336      -280.3952
   9   2.0000     -10.295552      -280.1562
  10   2.0000     -10.294341      -280.1233
  11   2.0000     -10.292504      -280.0733
  12   2.0000     -10.289211      -279.9837
  13   2.0000     -10.280035      -279.7340
  14   2.0000     -10.276462      -279.6367
  15   2.0000     -10.254318      -279.0342
  16   2.0000      -8.080930      -219.8933
  17   2.0000      -8.080451      -219.8802
  18   2.0000      -6.039207      -164.3352
  19   2.0000      -6.038953      -164.3283
  20   2.0000      -6.035052      -164.2221
  21   2.0000      -6.034945      -164.2192
  22   2.0000      -6.031889      -164.1360
  23   2.0000      -6.031137      -164.1156
  24   2.0000      -1.016319       -27.6555
  25   2.0000      -0.988973       -26.9113
  26   2.0000      -0.911737       -24.8096
  27   2.0000      -0.905925       -24.6515
  28   2.0000      -0.870304       -23.6822
  29   2.0000      -0.855243       -23.2723
  30   2.0000      -0.845930       -23.0189
  31   2.0000      -0.814747       -22.1704
  32   2.0000      -0.788332       -21.4516
  33   2.0000      -0.775981       -21.1155
  34   2.0000      -0.706592       -19.2273
  35   2.0000      -0.696777       -18.9603
  36   2.0000      -0.683878       -18.6093
  37   2.0000      -0.659698       -17.9513
  38   2.0000      -0.644319       -17.5328
  39   2.0000      -0.618159       -16.8210
  40   2.0000      -0.596151       -16.2221
  41   2.0000      -0.567913       -15.4537
  42   2.0000      -0.558341       -15.1932
  43   2.0000      -0.554834       -15.0978
  44   2.0000      -0.545539       -14.8449
  45   2.0000      -0.518167       -14.1000
  46   2.0000      -0.512633       -13.9495
  47   2.0000      -0.509078       -13.8527
  48   2.0000      -0.505950       -13.7676
  49   2.0000      -0.493766       -13.4361
  50   2.0000      -0.490071       -13.3355
  51   2.0000      -0.484454       -13.1827
  52   2.0000      -0.478135       -13.0107
  53   2.0000      -0.470941       -12.8150
  54   2.0000      -0.459759       -12.5107
  55   2.0000      -0.450475       -12.2580
  56   2.0000      -0.443298       -12.0627
  57   2.0000      -0.432554       -11.7704
  58   2.0000      -0.431595       -11.7443
  59   2.0000      -0.424151       -11.5417
  60   2.0000      -0.421908       -11.4807
  61   2.0000      -0.411943       -11.2095
  62   2.0000      -0.408005       -11.1024
  63   2.0000      -0.348066        -9.4714
  64   2.0000      -0.332022        -9.0348
  65   2.0000      -0.328175        -8.9301
  66   2.0000      -0.299063        -8.1379
  67   0.0000       0.037455         1.0192
  68   0.0000       0.073023         1.9871
  69   0.0000       0.107756         2.9322
  70   0.0000       0.122095         3.3224
  71   0.0000       0.129161         3.5147

MULLIKEN ATOMIC CHARGES
-----------------------
   0 S :    0.125939
   1 C :   -0.113351
   2 C :   -0.076206
   3 C :    0.018786
   4 C :   -0.179503
   5 H :    0.035419
   6 C :    0.076776
   7 H :    0.045640
   8 H :    0.003001
   9 C :   -0.121759
  10 H :    0.020551
  11 H :    0.040464
  12 C :   -0.025310
  13 H :    0.012588
  14 H :    0.024387
  15 H :    0.042763
  16 S :    0.109356
  17 C :   -0.114422
  18 C :   -0.078578
  19 C :   -0.017685
  20 C :   -0.157618
  21 H :    0.055491
  22 C :    0.102314
  23 H :    0.000172
  24 H :    0.022882
  25 C :   -0.072597
  26 H :    0.021674
  27 H :    0.030629
  28 C :    0.018133
  29 H :    0.009885
  30 H :    0.011129
  31 H :    0.010639
  32 H :    0.042955
  33 H :    0.075458
Sum of atomic charges:   -0.0000000

LOEWDIN ATOMIC CHARGES
----------------------
   0 S :    0.447486
   1 C :   -0.215437
   2 C :   -0.062499
   3 C :   -0.070972
   4 C :   -0.216298
   5 H :    0.039731
   6 C :   -0.031205
   7 H :    0.037365
   8 H :    0.018110
   9 C :   -0.047486
  10 H :    0.019432
  11 H :    0.027250
  12 C :   -0.064119
  13 H :    0.012407
  14 H :    0.020456
  15 H :    0.041185
  16 S :    0.410691
  17 C :   -0.194375
  18 C :   -0.082492
  19 C :   -0.059575
  20 C :   -0.198726
  21 H :    0.049690
  22 C :   -0.026392
  23 H :    0.027442
  24 H :    0.030595
  25 C :   -0.036000
  26 H :    0.030969
  27 H :    0.022448
  28 C :   -0.053696
  29 H :    0.018342
  30 H :    0.014948
  31 H :    0.022510
  32 H :    0.026859
  33 H :    0.041357

  Mayer bond orders larger than 0.100000
B(  0-S ,  1-C ) :   1.1521 B(  0-S ,  4-C ) :   1.1806 B(  1-C ,  2-C ) :   1.5974
B(  1-C , 32-H ) :   0.9745 B(  2-C ,  3-C ) :   1.2274 B(  2-C ,  6-C ) :   1.0360
B(  3-C ,  4-C ) :   1.5853 B(  3-C ,  5-H ) :   0.9879 B(  4-C , 20-C ) :   0.9785
B(  6-C ,  7-H ) :   0.9468 B(  6-C ,  8-H ) :   0.9428 B(  6-C ,  9-C ) :   1.0407
B(  9-C , 10-H ) :   0.9571 B(  9-C , 11-H ) :   0.9637 B(  9-C , 12-C ) :   1.0696
B( 12-C , 13-H ) :   0.9779 B( 12-C , 14-H ) :   0.9750 B( 12-C , 15-H ) :   0.9746
B( 16-S , 17-C ) :   1.1312 B( 16-S , 20-C ) :   1.1630 B( 17-C , 18-C ) :   1.6569
B( 17-C , 33-H ) :   0.9602 B( 18-C , 19-C ) :   1.2071 B( 18-C , 21-H ) :   0.9690
B( 19-C , 20-C ) :   1.6333 B( 19-C , 22-C ) :   1.0236 B( 22-C , 23-H ) :   0.9292
B( 22-C , 24-H ) :   0.9393 B( 22-C , 25-C ) :   1.0731 B( 25-C , 26-H ) :   0.9532
B( 25-C , 27-H ) :   0.9561 B( 25-C , 28-C ) :   1.0993 B( 28-C , 29-H ) :   0.9674
B( 28-C , 30-H ) :   0.9707 B( 28-C , 31-H ) :   0.9677

Dispersion correction           -0.014071766
FINAL SINGLE POINT ENERGY     -1339.861225979896

DIPOLE MOMENT
-------------
                                X             Y             Z
Electronic contribution:      3.31807       9.76492     -25.65120
Nuclear contribution   :     -3.57451     -10.11037      26.04264
                        -----------------------------------------
Total Dipole Moment    :     -0.25645      -0.34545       0.39144
                        -----------------------------------------
Magnitude (a.u.)       :      0.58166
Magnitude (Debye)      :      1.47846

Rotational constants in cm-1:     0.018451     0.008426     0.006982
Rotational constants in MHz :   553.158925   252.611335   209.310425

                             ****ORCA TERMINATED NORMALLY****
TOTAL RUN TIME: 0 days 0 hours 0 minutes 21 seconds 407 msec
