                         Program Version 4.2.1 -  RELEASE  -
|  1> ! wB97X-D3 SP def2-SVP
|  2> %pal
|  3> nprocs 24
|  4> end
|  5>
|  6> * xyz 0 1
|  7> S 	 -133.397 	 21.0373 	 -18.7422
|  8> C 	 -133.749 	 19.8109 	 -17.5914
|  9> C 	 -133.863 	 18.5472 	 -18.2074
| 10> C 	 -133.347 	 18.6066 	 -19.5459
| 11> C 	 -133.068 	 19.8522 	 -19.9692
| 12> H 	 -133.122 	 17.71 	 -20.1734
| 13> C 	 -134.274 	 17.2665 	 -17.4827
| 14> H 	 -133.623 	 17.2052 	 -16.7114
| 15> H 	 -134.122 	 16.3127 	 -18.0245
| 16> C 	 -135.658 	 17.1835 	 -16.9141
| 17> H 	 -136.299 	 17.1668 	 -17.8012
| 18> H 	 -135.787 	 16.2241 	 -16.5412
| 19> C 	 -136.069 	 18.2604 	 -15.9727
| 20> H 	 -137.056 	 17.9885 	 -15.5106
| 21> H 	 -135.42 	 18.349 	 -15.0641
| 22> H 	 -136.116 	 19.2141 	 -16.5319
| 23> S 	 -131.617 	 21.7327 	 -21.3515
| 24> C 	 -131.553 	 21.6932 	 -23.0663
| 25> C 	 -132.39 	 20.6673 	 -23.5326
| 26> C 	 -132.939 	 19.7674 	 -22.5578
| 27> C 	 -132.659 	 20.2822 	 -21.3057
| 28> H 	 -132.36 	 20.522 	 -24.6238
| 29> C 	 -133.703 	 18.4995 	 -22.9633
| 30> H 	 -133.266 	 17.5969 	 -22.4535
| 31> H 	 -133.458 	 18.281 	 -24.0574
| 32> C 	 -135.194 	 18.465 	 -22.5872
| 33> H 	 -135.705 	 19.2373 	 -23.1959
| 34> H 	 -135.309 	 19.0646 	 -21.6427
| 35> C 	 -135.872 	 17.1102 	 -22.4356
| 36> H 	 -136.222 	 16.7812 	 -23.4264
| 37> H 	 -136.711 	 17.3277 	 -21.8803
| 38> H 	 -135.34 	 16.3631 	 -21.7476
| 39> H 	 -134.001 	 20.0157 	 -16.5852
| 40> H 	 -130.937 	 22.3652 	 -23.7018
| 41> *
| 42>
| 43>                          ****END OF INPUT****

CARTESIAN COORDINATES (ANGSTROEM)
---------------------------------
  S    -133.397000   21.037300  -18.742200
  C    -133.749000   19.810900  -17.591400
  C    -133.863000   18.547200  -18.207400
  C    -133.347000   18.606600  -19.545900
  C    -133.068000   19.852200  -19.969200
  H    -133.122000   17.710000  -20.173400
  C    -134.274000   17.266500  -17.482700
  H    -133.623000   17.205200  -16.711400
  H    -134.122000   16.312700  -18.024500
  C    -135.658000   17.183500  -16.914100
  H    -136.299000   17.166800  -17.801200
  H    -135.787000   16.224100  -16.541200
  C    -136.069000   18.260400  -15.972700
  H    -137.056000   17.988500  -15.510600
  H    -135.420000   18.349000  -15.064100
  H    -136.116000   19.214100  -16.531900
  S    -131.617000   21.732700  -21.351500
  C    -131.553000   21.693200  -23.066300
  C    -132.390000   20.667300  -23.532600
  C    -132.939000   19.767400  -22.557800
  C    -132.659000   20.282200  -21.305700
  H    -132.360000   20.522000  -24.623800
  C    -133.703000   18.499500  -22.963300
  H    -133.266000   17.596900  -22.453500
  H    -133.458000   18.281000  -24.057400
  C    -135.194000   18.465000  -22.587200
  H    -135.705000   19.237300  -23.195900
  H    -135.309000   19.064600  -21.642700
  C    -135.872000   17.110200  -22.435600
  H    -136.222000   16.781200  -23.426400
  H    -136.711000   17.327700  -21.880300
  H    -135.340000   16.363100  -21.747600
  H    -134.001000   20.015700  -16.585200
  H    -130.937000   22.365200  -23.701800

 Total Charge           Charge          ....    0
 Multiplicity           Mult            ....    1
 Number of Electrons    NEL             ....  134
 Basis Dimension        Dim             ....  322

ORBITAL ENERGIES
----------------

  NO   OCC          E(Eh)            E(eV)
   0   2.0000     -88.965883     -2420.8848
   1   2.0000     -88.964508     -2420.8473
   2   2.0000     -10.329282      -281.0740
   3   2.0000     -10.322650      -280.8936
   4   2.0000     -10.319736      -280.8143
   5   2.0000     -10.310069      -280.5512
   6   2.0000     -10.308676      -280.5133
   7   2.0000     -10.304935      -280.4115
   8   2.0000     -10.304297      -280.3942
   9   2.0000     -10.296158      -280.1727
  10   2.0000     -10.291759      -280.0530
  11   2.0000     -10.288621      -279.9676
  12   2.0000     -10.282935      -279.8129
  13   2.0000     -10.282437      -279.7993
  14   2.0000     -10.282271      -279.7948
  15   2.0000     -10.275624      -279.6139
  16   2.0000      -8.080629      -219.8851
  17   2.0000      -8.080164      -219.8725
  18   2.0000      -6.039089      -164.3320
  19   2.0000      -6.038635      -164.3196
  20   2.0000      -6.035061      -164.2224
  21   2.0000      -6.034576      -164.2092
  22   2.0000      -6.031517      -164.1259
  23   2.0000      -6.030872      -164.1084
  24   2.0000      -1.009856       -27.4796
  25   2.0000      -0.984837       -26.7988
  26   2.0000      -0.921493       -25.0751
  27   2.0000      -0.906348       -24.6630
  28   2.0000      -0.866399       -23.5759
  29   2.0000      -0.856043       -23.2941
  30   2.0000      -0.847770       -23.0690
  31   2.0000      -0.810454       -22.0536
  32   2.0000      -0.788176       -21.4474
  33   2.0000      -0.779234       -21.2040
  34   2.0000      -0.706932       -19.2366
  35   2.0000      -0.698850       -19.0167
  36   2.0000      -0.687804       -18.7161
  37   2.0000      -0.660252       -17.9664
  38   2.0000      -0.640062       -17.4170
  39   2.0000      -0.619452       -16.8562
  40   2.0000      -0.596525       -16.2323
  41   2.0000      -0.576215       -15.6796
  42   2.0000      -0.555420       -15.1137
  43   2.0000      -0.548835       -14.9346
  44   2.0000      -0.540182       -14.6991
  45   2.0000      -0.521490       -14.1905
  46   2.0000      -0.518356       -14.1052
  47   2.0000      -0.514375       -13.9969
  48   2.0000      -0.504933       -13.7399
  49   2.0000      -0.497855       -13.5473
  50   2.0000      -0.491790       -13.3823
  51   2.0000      -0.486915       -13.2496
  52   2.0000      -0.478635       -13.0243
  53   2.0000      -0.465195       -12.6586
  54   2.0000      -0.463827       -12.6214
  55   2.0000      -0.449539       -12.2326
  56   2.0000      -0.437623       -11.9083
  57   2.0000      -0.434327       -11.8186
  58   2.0000      -0.432308       -11.7637
  59   2.0000      -0.423808       -11.5324
  60   2.0000      -0.421414       -11.4673
  61   2.0000      -0.415965       -11.3190
  62   2.0000      -0.402058       -10.9405
  63   2.0000      -0.352282        -9.5861
  64   2.0000      -0.332434        -9.0460
  65   2.0000      -0.328974        -8.9518
  66   2.0000      -0.283905        -7.7254
  67   0.0000       0.025537         0.6949
  68   0.0000       0.075933         2.0662
  69   0.0000       0.106289         2.8923
  70   0.0000       0.117949         3.2095
  71   0.0000       0.126763         3.4494

MULLIKEN ATOMIC CHARGES
-----------------------
   0 S :    0.113359
   1 C :   -0.111444
   2 C :   -0.101036
   3 C :   -0.031010
   4 C :   -0.100041
   5 H :    0.022868
   6 C :    0.098298
   7 H :    0.001839
   8 H :    0.018404
   9 C :   -0.034857
  10 H :    0.016536
  11 H :    0.005355
  12 C :   -0.081749
  13 H :    0.037940
  14 H :    0.032456
  15 H :    0.057919
  16 S :    0.106826
  17 C :   -0.110855
  18 C :   -0.056744
  19 C :   -0.025316
  20 C :   -0.156040
  21 H :    0.022944
  22 C :    0.056744
  23 H :    0.025985
  24 H :    0.033919
  25 C :   -0.128310
  26 H :    0.025749
  27 H :    0.040464
  28 C :    0.007077
  29 H :    0.044436
  30 H :    0.012816
  31 H :    0.042332
  32 H :    0.038626
  33 H :    0.074510
Sum of atomic charges:    0.0000000

LOEWDIN ATOMIC CHARGES
----------------------
   0 S :    0.420031
   1 C :   -0.203411
   2 C :   -0.051769
   3 C :   -0.075672
   4 C :   -0.197393
   5 H :    0.038613
   6 C :   -0.029116
   7 H :    0.016720
   8 H :    0.035308
   9 C :   -0.041177
  10 H :    0.026038
  11 H :    0.015632
  12 C :   -0.074115
  13 H :    0.033541
  14 H :    0.025566
  15 H :    0.031625
  16 S :    0.404621
  17 C :   -0.206116
  18 C :   -0.077259
  19 C :   -0.056839
  20 C :   -0.181254
  21 H :    0.030528
  22 C :   -0.037720
  23 H :    0.030639
  24 H :    0.036176
  25 C :   -0.058921
  26 H :    0.029586
  27 H :    0.033744
  28 C :   -0.065478
  29 H :    0.031808
  30 H :    0.020787
  31 H :    0.038032
  32 H :    0.017368
  33 H :    0.039878

  Mayer bond orders larger than 0.100000
B(  0-S ,  1-C ) :   1.1444 B(  0-S ,  4-C ) :   1.1498 B(  1-C ,  2-C ) :   1.5882
B(  1-C , 32-H ) :   0.9697 B(  2-C ,  3-C ) :   1.2494 B(  2-C ,  6-C ) :   1.0048
B(  3-C ,  4-C ) :   1.5880 B(  3-C ,  5-H ) :   0.9910 B(  4-C , 20-C ) :   1.0446
B(  6-C ,  7-H ) :   0.9312 B(  6-C ,  8-H ) :   0.9436 B(  6-C ,  9-C ) :   1.0859
B(  9-C , 10-H ) :   0.9466 B(  9-C , 11-H ) :   0.9487 B(  9-C , 12-C ) :   1.0939
B( 12-C , 13-H ) :   0.9667 B( 12-C , 14-H ) :   0.9717 B( 12-C , 15-H ) :   0.9634
B( 16-S , 17-C ) :   1.1562 B( 16-S , 20-C ) :   1.1476 B( 17-C , 18-C ) :   1.6053
B( 17-C , 20-C ) :   0.1036 B( 17-C , 33-H ) :   0.9645 B( 18-C , 19-C ) :   1.2455
B( 18-C , 21-H ) :   0.9789 B( 19-C , 20-C ) :   1.5856 B( 19-C , 22-C ) :   1.0373
B( 22-C , 23-H ) :   0.9386 B( 22-C , 24-H ) :   0.9326 B( 22-C , 25-C ) :   1.0435
B( 25-C , 26-H ) :   0.9445 B( 25-C , 27-H ) :   0.9598 B( 25-C , 28-C ) :   1.0741
B( 28-C , 29-H ) :   0.9735 B( 28-C , 30-H ) :   0.9668 B( 28-C , 31-H ) :   0.9676

Dispersion correction           -0.014922919
FINAL SINGLE POINT ENERGY     -1339.862481430218

DIPOLE MOMENT
-------------
                                X             Y             Z
Electronic contribution:     18.73092      22.25461      -3.89734
Nuclear contribution   :    -19.05015     -22.85058       3.82457
                        -----------------------------------------
Total Dipole Moment    :     -0.31923      -0.59597      -0.07277
                        -----------------------------------------
Magnitude (a.u.)       :      0.67998
Magnitude (Debye)      :      1.72838

Rotational constants in cm-1:     0.020617     0.009212     0.006790
Rotational constants in MHz :   618.096199   276.156577   203.548593

                             ****ORCA TERMINATED NORMALLY****
TOTAL RUN TIME: 0 days 0 hours 0 minutes 22 seconds 246 msec
