                         Program Version 4.2.1 -  RELEASE  -
|  1> ! wB97X-D3 SP def2-SVP
|  2> %pal
|  3> nprocs 24
|  4> end
|  5>
|  6> * xyz 0 1
|  7> S 	 -23.6091 	 -34.6602 	 -91.8885
|  8> C 	 -22.2329 	 -35.5845 	 -92.4826
|  9> C 	 -21.2466 	 -34.6822 	 -92.8957
| 10> C 	 -21.6046 	 -33.295 	 -92.7667
| 11> C 	 -22.8757 	 -33.1245 	 -92.2977
| 12> H 	 -20.9419 	 -32.4731 	 -92.9732
| 13> C 	 -19.9012 	 -35.0874 	 -93.488
| 14> H 	 -20.1122 	 -35.8278 	 -94.2118
| 15> H 	 -19.3709 	 -35.5641 	 -92.619
| 16> C 	 -18.855 	 -34.0343 	 -94.0752
| 17> H 	 -19.3083 	 -33.5548 	 -94.9197
| 18> H 	 -18.6236 	 -33.2172 	 -93.3147
| 19> C 	 -17.5332 	 -34.7672 	 -94.3553
| 20> H 	 -16.8107 	 -34.1175 	 -94.7438
| 21> H 	 -17.2038 	 -35.2482 	 -93.4895
| 22> H 	 -17.7182 	 -35.5177 	 -95.167
| 23> S 	 -24.8447 	 -31.5867 	 -93.1612
| 24> C 	 -24.9754 	 -29.8598 	 -92.798
| 25> C 	 -23.9134 	 -29.5291 	 -92.0368
| 26> C 	 -23.0952 	 -30.592 	 -91.6108
| 27> C 	 -23.5065 	 -31.8137 	 -92.1354
| 28> H 	 -23.7331 	 -28.4807 	 -91.7977
| 29> C 	 -21.8946 	 -30.3321 	 -90.754
| 30> H 	 -21.3073 	 -31.1777 	 -90.8099
| 31> H 	 -22.2667 	 -30.279 	 -89.7562
| 32> C 	 -20.8551 	 -29.2268 	 -91.2816
| 33> H 	 -20.028 	 -29.196 	 -90.598
| 34> H 	 -21.4074 	 -28.2542 	 -91.2267
| 35> C 	 -20.2908 	 -29.5289 	 -92.6304
| 36> H 	 -21.0524 	 -29.9239 	 -93.2892
| 37> H 	 -19.4931 	 -30.3328 	 -92.5075
| 38> H 	 -19.7778 	 -28.7203 	 -93.012
| 39> H 	 -22.1832 	 -36.691 	 -92.5772
| 40> H 	 -25.7988 	 -29.2553 	 -93.0923
| 41> *
| 42>
| 43>                          ****END OF INPUT****

CARTESIAN COORDINATES (ANGSTROEM)
---------------------------------
  S    -23.609100  -34.660200  -91.888500
  C    -22.232900  -35.584500  -92.482600
  C    -21.246600  -34.682200  -92.895700
  C    -21.604600  -33.295000  -92.766700
  C    -22.875700  -33.124500  -92.297700
  H    -20.941900  -32.473100  -92.973200
  C    -19.901200  -35.087400  -93.488000
  H    -20.112200  -35.827800  -94.211800
  H    -19.370900  -35.564100  -92.619000
  C    -18.855000  -34.034300  -94.075200
  H    -19.308300  -33.554800  -94.919700
  H    -18.623600  -33.217200  -93.314700
  C    -17.533200  -34.767200  -94.355300
  H    -16.810700  -34.117500  -94.743800
  H    -17.203800  -35.248200  -93.489500
  H    -17.718200  -35.517700  -95.167000
  S    -24.844700  -31.586700  -93.161200
  C    -24.975400  -29.859800  -92.798000
  C    -23.913400  -29.529100  -92.036800
  C    -23.095200  -30.592000  -91.610800
  C    -23.506500  -31.813700  -92.135400
  H    -23.733100  -28.480700  -91.797700
  C    -21.894600  -30.332100  -90.754000
  H    -21.307300  -31.177700  -90.809900
  H    -22.266700  -30.279000  -89.756200
  C    -20.855100  -29.226800  -91.281600
  H    -20.028000  -29.196000  -90.598000
  H    -21.407400  -28.254200  -91.226700
  C    -20.290800  -29.528900  -92.630400
  H    -21.052400  -29.923900  -93.289200
  H    -19.493100  -30.332800  -92.507500
  H    -19.777800  -28.720300  -93.012000
  H    -22.183200  -36.691000  -92.577200
  H    -25.798800  -29.255300  -93.092300

 Total Charge           Charge          ....    0
 Multiplicity           Mult            ....    1
 Number of Electrons    NEL             ....  134
 Basis Dimension        Dim             ....  322

ORBITAL ENERGIES
----------------

  NO   OCC          E(Eh)            E(eV)
   0   2.0000     -88.966316     -2420.8965
   1   2.0000     -88.957930     -2420.6683
   2   2.0000     -10.327740      -281.0321
   3   2.0000     -10.322244      -280.8825
   4   2.0000     -10.318402      -280.7780
   5   2.0000     -10.312034      -280.6047
   6   2.0000     -10.303435      -280.3707
   7   2.0000     -10.297832      -280.2182
   8   2.0000     -10.297387      -280.2061
   9   2.0000     -10.293878      -280.1106
  10   2.0000     -10.291925      -280.0575
  11   2.0000     -10.290036      -280.0061
  12   2.0000     -10.287383      -279.9339
  13   2.0000     -10.281562      -279.7755
  14   2.0000     -10.276596      -279.6404
  15   2.0000     -10.276528      -279.6385
  16   2.0000      -8.080589      -219.8840
  17   2.0000      -8.073739      -219.6976
  18   2.0000      -6.039242      -164.3361
  19   2.0000      -6.035046      -164.2220
  20   2.0000      -6.032173      -164.1438
  21   2.0000      -6.031336      -164.1210
  22   2.0000      -6.027934      -164.0284
  23   2.0000      -6.024644      -163.9389
  24   2.0000      -1.010834       -27.5062
  25   2.0000      -0.984863       -26.7995
  26   2.0000      -0.910777       -24.7835
  27   2.0000      -0.905138       -24.6301
  28   2.0000      -0.873715       -23.7750
  29   2.0000      -0.853124       -23.2147
  30   2.0000      -0.847390       -23.0586
  31   2.0000      -0.819654       -22.3039
  32   2.0000      -0.780058       -21.2265
  33   2.0000      -0.769937       -20.9511
  34   2.0000      -0.712780       -19.3957
  35   2.0000      -0.700397       -19.0588
  36   2.0000      -0.692241       -18.8368
  37   2.0000      -0.658142       -17.9090
  38   2.0000      -0.637706       -17.3529
  39   2.0000      -0.620689       -16.8898
  40   2.0000      -0.599589       -16.3157
  41   2.0000      -0.572774       -15.5860
  42   2.0000      -0.566499       -15.4152
  43   2.0000      -0.563939       -15.3455
  44   2.0000      -0.546027       -14.8581
  45   2.0000      -0.527313       -14.3489
  46   2.0000      -0.517738       -14.0884
  47   2.0000      -0.509187       -13.8557
  48   2.0000      -0.508396       -13.8342
  49   2.0000      -0.501548       -13.6478
  50   2.0000      -0.489125       -13.3098
  51   2.0000      -0.484835       -13.1930
  52   2.0000      -0.472435       -12.8556
  53   2.0000      -0.468107       -12.7378
  54   2.0000      -0.459382       -12.5004
  55   2.0000      -0.455231       -12.3875
  56   2.0000      -0.449531       -12.2324
  57   2.0000      -0.439916       -11.9707
  58   2.0000      -0.430235       -11.7073
  59   2.0000      -0.421998       -11.4831
  60   2.0000      -0.417047       -11.3484
  61   2.0000      -0.414315       -11.2741
  62   2.0000      -0.407498       -11.0886
  63   2.0000      -0.346099        -9.4178
  64   2.0000      -0.327719        -8.9177
  65   2.0000      -0.322797        -8.7838
  66   2.0000      -0.298641        -8.1264
  67   0.0000       0.034544         0.9400
  68   0.0000       0.071197         1.9374
  69   0.0000       0.121262         3.2997
  70   0.0000       0.123243         3.3536
  71   0.0000       0.130799         3.5592

MULLIKEN ATOMIC CHARGES
-----------------------
   0 S :    0.117082
   1 C :   -0.148109
   2 C :   -0.076534
   3 C :    0.042999
   4 C :   -0.137812
   5 H :   -0.010037
   6 C :    0.011976
   7 H :    0.029067
   8 H :    0.042026
   9 C :   -0.107063
  10 H :    0.037516
  11 H :    0.042926
  12 C :    0.002770
  13 H :    0.024609
  14 H :    0.023198
  15 H :    0.030037
  16 S :    0.092509
  17 C :   -0.084211
  18 C :   -0.035247
  19 C :   -0.085655
  20 C :   -0.144225
  21 H :    0.019659
  22 C :    0.130092
  23 H :   -0.017940
  24 H :    0.038777
  25 C :   -0.093543
  26 H :    0.029489
  27 H :    0.035601
  28 C :   -0.036159
  29 H :    0.055874
  30 H :    0.031308
  31 H :    0.024666
  32 H :    0.064283
  33 H :    0.050071
Sum of atomic charges:    0.0000000

LOEWDIN ATOMIC CHARGES
----------------------
   0 S :    0.405873
   1 C :   -0.210585
   2 C :   -0.060386
   3 C :   -0.063830
   4 C :   -0.198933
   5 H :    0.028031
   6 C :   -0.037621
   7 H :    0.025236
   8 H :    0.039352
   9 C :   -0.039697
  10 H :    0.019466
  11 H :    0.027507
  12 C :   -0.052240
  13 H :    0.019973
  14 H :    0.018281
  15 H :    0.031426
  16 S :    0.420751
  17 C :   -0.173613
  18 C :   -0.074157
  19 C :   -0.066686
  20 C :   -0.210473
  21 H :    0.032360
  22 C :   -0.025500
  23 H :    0.016063
  24 H :    0.034203
  25 C :   -0.032009
  26 H :    0.023181
  27 H :    0.021001
  28 C :   -0.060732
  29 H :    0.027433
  30 H :    0.031357
  31 H :    0.019436
  32 H :    0.039474
  33 H :    0.026061

  Mayer bond orders larger than 0.100000
B(  0-S ,  1-C ) :   1.1266 B(  0-S ,  4-C ) :   1.1633 B(  1-C ,  2-C ) :   1.6008
B(  1-C , 32-H ) :   0.9722 B(  2-C ,  3-C ) :   1.2592 B(  2-C ,  6-C ) :   0.9934
B(  3-C ,  4-C ) :   1.5569 B(  3-C ,  5-H ) :   0.9911 B(  4-C , 20-C ) :   0.9924
B(  6-C ,  7-H ) :   0.9479 B(  6-C ,  8-H ) :   0.9418 B(  6-C ,  9-C ) :   1.0693
B(  9-C , 10-H ) :   0.9559 B(  9-C , 11-H ) :   0.9506 B(  9-C , 12-C ) :   1.0810
B( 12-C , 13-H ) :   0.9718 B( 12-C , 14-H ) :   0.9755 B( 12-C , 15-H ) :   0.9740
B( 16-S , 17-C ) :   1.1522 B( 16-S , 20-C ) :   1.1795 B( 17-C , 18-C ) :   1.5874
B( 17-C , 20-C ) :   0.1013 B( 17-C , 33-H ) :   0.9776 B( 18-C , 19-C ) :   1.2565
B( 18-C , 21-H ) :   0.9923 B( 19-C , 20-C ) :   1.5706 B( 19-C , 22-C ) :   1.0406
B( 22-C , 23-H ) :   0.9238 B( 22-C , 24-H ) :   0.9327 B( 22-C , 25-C ) :   1.0558
B( 25-C , 26-H ) :   0.9583 B( 25-C , 27-H ) :   0.9590 B( 25-C , 28-C ) :   1.0799
B( 28-C , 29-H ) :   0.9707 B( 28-C , 30-H ) :   0.9674 B( 28-C , 31-H ) :   0.9661

Dispersion correction           -0.015008831
FINAL SINGLE POINT ENERGY     -1339.868594514528

DIPOLE MOMENT
-------------
                                X             Y             Z
Electronic contribution:    -29.85385      -5.81989       3.74605
Nuclear contribution   :     30.63461       6.10304      -3.84446
                        -----------------------------------------
Total Dipole Moment    :      0.78076       0.28314      -0.09840
                        -----------------------------------------
Magnitude (a.u.)       :      0.83632
Magnitude (Debye)      :      2.12576

Rotational constants in cm-1:     0.017449     0.009588     0.006987
Rotational constants in MHz :   523.112599   287.433707   209.468916

                             ****ORCA TERMINATED NORMALLY****
TOTAL RUN TIME: 0 days 0 hours 0 minutes 22 seconds 449 msec
