                         Program Version 4.2.1 -  RELEASE  -
|  1> ! wB97X-D3 SP def2-SVP
|  2> %pal
|  3> nprocs 24
|  4> end
|  5>
|  6> * xyz 0 1
|  7> S 	 -137.133 	 24.0621 	 -18.6245
|  8> C 	 -138.85 	 23.7486 	 -18.9331
|  9> C 	 -139.628 	 23.6903 	 -17.7253
| 10> C 	 -138.753 	 23.8256 	 -16.5601
| 11> C 	 -137.385 	 24.0284 	 -16.8275
| 12> H 	 -138.94 	 23.7705 	 -15.5115
| 13> C 	 -141.121 	 23.4635 	 -17.4388
| 14> H 	 -141.512 	 24.2692 	 -18.0335
| 15> H 	 -141.377 	 23.7228 	 -16.4149
| 16> C 	 -141.52 	 22.0688 	 -17.7338
| 17> H 	 -141.337 	 21.7655 	 -18.7565
| 18> H 	 -141.017 	 21.3171 	 -17.1239
| 19> C 	 -143.04 	 21.9346 	 -17.697
| 20> H 	 -143.452 	 21.6992 	 -16.6875
| 21> H 	 -143.58 	 22.8313 	 -18.1969
| 22> H 	 -143.293 	 21.0485 	 -18.2862
| 23> S 	 -135.475 	 25.7078 	 -15.7343
| 24> C 	 -134.38 	 25.1581 	 -14.4699
| 25> C 	 -134.871 	 23.9915 	 -14.0057
| 26> C 	 -135.909 	 23.4091 	 -14.7437
| 27> C 	 -136.301 	 24.1807 	 -15.8544
| 28> H 	 -134.414 	 23.5242 	 -13.1146
| 29> C 	 -136.552 	 22.0742 	 -14.4235
| 30> H 	 -136.024 	 21.2842 	 -15.0538
| 31> H 	 -137.618 	 22.184 	 -14.8532
| 32> C 	 -136.688 	 21.7431 	 -12.9077
| 33> H 	 -135.726 	 21.5351 	 -12.4328
| 34> H 	 -137.309 	 20.8822 	 -12.7835
| 35> C 	 -137.471 	 22.7827 	 -12.1264
| 36> H 	 -137.982 	 22.5351 	 -11.1698
| 37> H 	 -138.265 	 23.2613 	 -12.7813
| 38> H 	 -136.85 	 23.6931 	 -11.8501
| 39> H 	 -139.232 	 23.5493 	 -19.9377
| 40> H 	 -133.691 	 25.7957 	 -13.9553
| 41> *
| 42>
| 43>                          ****END OF INPUT****

CARTESIAN COORDINATES (ANGSTROEM)
---------------------------------
  S    -137.133000   24.062100  -18.624500
  C    -138.850000   23.748600  -18.933100
  C    -139.628000   23.690300  -17.725300
  C    -138.753000   23.825600  -16.560100
  C    -137.385000   24.028400  -16.827500
  H    -138.940000   23.770500  -15.511500
  C    -141.121000   23.463500  -17.438800
  H    -141.512000   24.269200  -18.033500
  H    -141.377000   23.722800  -16.414900
  C    -141.520000   22.068800  -17.733800
  H    -141.337000   21.765500  -18.756500
  H    -141.017000   21.317100  -17.123900
  C    -143.040000   21.934600  -17.697000
  H    -143.452000   21.699200  -16.687500
  H    -143.580000   22.831300  -18.196900
  H    -143.293000   21.048500  -18.286200
  S    -135.475000   25.707800  -15.734300
  C    -134.380000   25.158100  -14.469900
  C    -134.871000   23.991500  -14.005700
  C    -135.909000   23.409100  -14.743700
  C    -136.301000   24.180700  -15.854400
  H    -134.414000   23.524200  -13.114600
  C    -136.552000   22.074200  -14.423500
  H    -136.024000   21.284200  -15.053800
  H    -137.618000   22.184000  -14.853200
  C    -136.688000   21.743100  -12.907700
  H    -135.726000   21.535100  -12.432800
  H    -137.309000   20.882200  -12.783500
  C    -137.471000   22.782700  -12.126400
  H    -137.982000   22.535100  -11.169800
  H    -138.265000   23.261300  -12.781300
  H    -136.850000   23.693100  -11.850100
  H    -139.232000   23.549300  -19.937700
  H    -133.691000   25.795700  -13.955300

 Total Charge           Charge          ....    0
 Multiplicity           Mult            ....    1
 Number of Electrons    NEL             ....  134
 Basis Dimension        Dim             ....  322

ORBITAL ENERGIES
----------------

  NO   OCC          E(Eh)            E(eV)
   0   2.0000     -88.969029     -2420.9704
   1   2.0000     -88.960436     -2420.7365
   2   2.0000     -10.336116      -281.2600
   3   2.0000     -10.327898      -281.0364
   4   2.0000     -10.327751      -281.0324
   5   2.0000     -10.314887      -280.6824
   6   2.0000     -10.313905      -280.6556
   7   2.0000     -10.303099      -280.3616
   8   2.0000     -10.301815      -280.3266
   9   2.0000     -10.299123      -280.2534
  10   2.0000     -10.293132      -280.0904
  11   2.0000     -10.290549      -280.0201
  12   2.0000     -10.290291      -280.0131
  13   2.0000     -10.286835      -279.9190
  14   2.0000     -10.286412      -279.9075
  15   2.0000     -10.285409      -279.8802
  16   2.0000      -8.082081      -219.9246
  17   2.0000      -8.075460      -219.7444
  18   2.0000      -6.040693      -164.3756
  19   2.0000      -6.036786      -164.2693
  20   2.0000      -6.033908      -164.1910
  21   2.0000      -6.032855      -164.1623
  22   2.0000      -6.029922      -164.0825
  23   2.0000      -6.026233      -163.9821
  24   2.0000      -1.003686       -27.3117
  25   2.0000      -0.973709       -26.4960
  26   2.0000      -0.919240       -25.0138
  27   2.0000      -0.906841       -24.6764
  28   2.0000      -0.870185       -23.6789
  29   2.0000      -0.847774       -23.0691
  30   2.0000      -0.842986       -22.9388
  31   2.0000      -0.813531       -22.1373
  32   2.0000      -0.777517       -21.1573
  33   2.0000      -0.766455       -20.8563
  34   2.0000      -0.704219       -19.1628
  35   2.0000      -0.702622       -19.1193
  36   2.0000      -0.696984       -18.9659
  37   2.0000      -0.653483       -17.7822
  38   2.0000      -0.646089       -17.5810
  39   2.0000      -0.610985       -16.6257
  40   2.0000      -0.594022       -16.1642
  41   2.0000      -0.578591       -15.7443
  42   2.0000      -0.560798       -15.2601
  43   2.0000      -0.555001       -15.1024
  44   2.0000      -0.538100       -14.6424
  45   2.0000      -0.531444       -14.4613
  46   2.0000      -0.521114       -14.1802
  47   2.0000      -0.510965       -13.9041
  48   2.0000      -0.504538       -13.7292
  49   2.0000      -0.494654       -13.4602
  50   2.0000      -0.486170       -13.2294
  51   2.0000      -0.478378       -13.0173
  52   2.0000      -0.472674       -12.8621
  53   2.0000      -0.458448       -12.4750
  54   2.0000      -0.455445       -12.3933
  55   2.0000      -0.450584       -12.2610
  56   2.0000      -0.445618       -12.1259
  57   2.0000      -0.434492       -11.8231
  58   2.0000      -0.429623       -11.6906
  59   2.0000      -0.420446       -11.4409
  60   2.0000      -0.417684       -11.3657
  61   2.0000      -0.411608       -11.2004
  62   2.0000      -0.407433       -11.0868
  63   2.0000      -0.343964        -9.3597
  64   2.0000      -0.328952        -8.9512
  65   2.0000      -0.324448        -8.8287
  66   2.0000      -0.293634        -7.9902
  67   0.0000       0.026566         0.7229
  68   0.0000       0.058067         1.5801
  69   0.0000       0.112477         3.0607
  70   0.0000       0.118883         3.2350
  71   0.0000       0.124684         3.3928

MULLIKEN ATOMIC CHARGES
-----------------------
   0 S :    0.111333
   1 C :   -0.134634
   2 C :   -0.097780
   3 C :    0.049393
   4 C :   -0.189935
   5 H :    0.005126
   6 C :    0.098009
   7 H :    0.033785
   8 H :    0.022769
   9 C :   -0.053032
  10 H :    0.020837
  11 H :    0.034330
  12 C :   -0.082792
  13 H :    0.038706
  14 H :    0.047949
  15 H :    0.027901
  16 S :    0.093947
  17 C :   -0.076698
  18 C :   -0.046083
  19 C :   -0.047171
  20 C :   -0.152022
  21 H :    0.025646
  22 C :    0.030224
  23 H :    0.064935
  24 H :    0.026367
  25 C :   -0.032569
  26 H :    0.036955
  27 H :    0.029821
  28 C :   -0.112261
  29 H :    0.046769
  30 H :    0.029532
  31 H :    0.034515
  32 H :    0.060427
  33 H :    0.055700
Sum of atomic charges:   -0.0000000

LOEWDIN ATOMIC CHARGES
----------------------
   0 S :    0.380650
   1 C :   -0.196747
   2 C :   -0.051969
   3 C :   -0.057552
   4 C :   -0.184932
   5 H :    0.024885
   6 C :   -0.029292
   7 H :    0.035071
   8 H :    0.032430
   9 C :   -0.044075
  10 H :    0.025072
  11 H :    0.030449
  12 C :   -0.075019
  13 H :    0.024502
  14 H :    0.036311
  15 H :    0.023981
  16 S :    0.408569
  17 C :   -0.177773
  18 C :   -0.079182
  19 C :   -0.066291
  20 C :   -0.207942
  21 H :    0.035907
  22 C :   -0.038183
  23 H :    0.045215
  24 H :    0.037747
  25 C :   -0.045657
  26 H :    0.023744
  27 H :    0.027698
  28 C :   -0.083246
  29 H :    0.029523
  30 H :    0.028494
  31 H :    0.028168
  32 H :    0.030105
  33 H :    0.029339

  Mayer bond orders larger than 0.100000
B(  0-S ,  1-C ) :   1.1482 B(  0-S ,  4-C ) :   1.1307 B(  1-C ,  2-C ) :   1.5927
B(  1-C ,  4-C ) :   0.1058 B(  1-C , 32-H ) :   0.9697 B(  2-C ,  3-C ) :   1.2295
B(  2-C ,  6-C ) :   0.9996 B(  3-C ,  4-C ) :   1.5918 B(  3-C ,  5-H ) :   0.9837
B(  4-C , 20-C ) :   1.0396 B(  6-C ,  7-H ) :   0.9342 B(  6-C ,  8-H ) :   0.9441
B(  6-C ,  9-C ) :   1.0764 B(  9-C , 10-H ) :   0.9612 B(  9-C , 11-H ) :   0.9503
B(  9-C , 12-C ) :   1.0738 B( 12-C , 13-H ) :   0.9744 B( 12-C , 14-H ) :   0.9734
B( 12-C , 15-H ) :   0.9778 B( 16-S , 17-C ) :   1.1567 B( 16-S , 20-C ) :   1.1662
B( 17-C , 18-C ) :   1.5802 B( 17-C , 20-C ) :   0.1069 B( 17-C , 33-H ) :   0.9702
B( 18-C , 19-C ) :   1.2831 B( 18-C , 21-H ) :   0.9832 B( 19-C , 20-C ) :   1.5494
B( 19-C , 22-C ) :   1.0256 B( 22-C , 23-H ) :   0.9352 B( 22-C , 24-H ) :   0.9342
B( 22-C , 25-C ) :   1.0743 B( 25-C , 26-H ) :   0.9516 B( 25-C , 27-H ) :   0.9558
B( 25-C , 28-C ) :   1.0616 B( 28-C , 29-H ) :   0.9776 B( 28-C , 30-H ) :   0.9727
B( 28-C , 31-H ) :   0.9695

Dispersion correction           -0.014393257
FINAL SINGLE POINT ENERGY     -1339.857854647437

DIPOLE MOMENT
-------------
                                X             Y             Z
Electronic contribution:     21.85133      15.72981     -12.27500
Nuclear contribution   :    -22.36415     -16.18145      12.71405
                        -----------------------------------------
Total Dipole Moment    :     -0.51282      -0.45164       0.43906
                        -----------------------------------------
Magnitude (a.u.)       :      0.81224
Magnitude (Debye)      :      2.06454

Rotational constants in cm-1:     0.019226     0.008254     0.006295
Rotational constants in MHz :   576.368695   247.446835   188.716398

                             ****ORCA TERMINATED NORMALLY****
TOTAL RUN TIME: 0 days 0 hours 0 minutes 21 seconds 531 msec
