                         Program Version 4.2.1 -  RELEASE  -
|  1> ! wB97X-D3 SP def2-SVP
|  2> %pal
|  3> nprocs 24
|  4> end
|  5>
|  6> * xyz 0 1
|  7> S 	 -36.9037 	 3.87469 	 12.5743
|  8> C 	 -35.4323 	 3.39474 	 13.4087
|  9> C 	 -35.4886 	 2.08583 	 13.8664
| 10> C 	 -36.7241 	 1.51181 	 13.5769
| 11> C 	 -37.6554 	 2.32863 	 12.9525
| 12> H 	 -36.8746 	 0.427373 	 13.7789
| 13> C 	 -34.4092 	 1.328 	 14.5849
| 14> H 	 -33.6102 	 1.04 	 13.8855
| 15> H 	 -34.8646 	 0.349995 	 14.9118
| 16> C 	 -33.7438 	 2.0788 	 15.7482
| 17> H 	 -32.8676 	 1.52825 	 15.9987
| 18> H 	 -33.414 	 3.06593 	 15.3988
| 19> C 	 -34.5915 	 2.20407 	 16.9214
| 20> H 	 -35.0324 	 1.26496 	 17.2361
| 21> H 	 -34.0301 	 2.52796 	 17.7981
| 22> H 	 -35.3823 	 2.85358 	 16.7805
| 23> S 	 -39.7988 	 0.639204 	 13.4431
| 24> C 	 -41.2885 	 0.806317 	 12.5509
| 25> C 	 -41.1934 	 1.81976 	 11.6083
| 26> C 	 -39.9019 	 2.50615 	 11.631
| 27> C 	 -38.9909 	 1.89816 	 12.4948
| 28> H 	 -42.0236 	 2.06767 	 10.9661
| 29> C 	 -39.7001 	 3.75473 	 10.7246
| 30> H 	 -40.2292 	 3.42411 	 9.76534
| 31> H 	 -38.6537 	 3.97957 	 10.4678
| 32> C 	 -40.514 	 5.00229 	 11.2619
| 33> H 	 -40.0462 	 5.35533 	 12.2114
| 34> H 	 -41.5132 	 4.65444 	 11.5205
| 35> C 	 -40.6801 	 6.15678 	 10.1875
| 36> H 	 -40.876 	 7.09622 	 10.5877
| 37> H 	 -41.5183 	 5.84752 	 9.52221
| 38> H 	 -39.7427 	 6.39772 	 9.5579
| 39> H 	 -34.693 	 4.07737 	 13.8123
| 40> H 	 -42.182 	 0.24518 	 12.6212
| 41> *
| 42>
| 43>                          ****END OF INPUT****

CARTESIAN COORDINATES (ANGSTROEM)
---------------------------------
  S    -36.903700    3.874690   12.574300
  C    -35.432300    3.394740   13.408700
  C    -35.488600    2.085830   13.866400
  C    -36.724100    1.511810   13.576900
  C    -37.655400    2.328630   12.952500
  H    -36.874600    0.427373   13.778900
  C    -34.409200    1.328000   14.584900
  H    -33.610200    1.040000   13.885500
  H    -34.864600    0.349995   14.911800
  C    -33.743800    2.078800   15.748200
  H    -32.867600    1.528250   15.998700
  H    -33.414000    3.065930   15.398800
  C    -34.591500    2.204070   16.921400
  H    -35.032400    1.264960   17.236100
  H    -34.030100    2.527960   17.798100
  H    -35.382300    2.853580   16.780500
  S    -39.798800    0.639204   13.443100
  C    -41.288500    0.806317   12.550900
  C    -41.193400    1.819760   11.608300
  C    -39.901900    2.506150   11.631000
  C    -38.990900    1.898160   12.494800
  H    -42.023600    2.067670   10.966100
  C    -39.700100    3.754730   10.724600
  H    -40.229200    3.424110    9.765340
  H    -38.653700    3.979570   10.467800
  C    -40.514000    5.002290   11.261900
  H    -40.046200    5.355330   12.211400
  H    -41.513200    4.654440   11.520500
  C    -40.680100    6.156780   10.187500
  H    -40.876000    7.096220   10.587700
  H    -41.518300    5.847520    9.522210
  H    -39.742700    6.397720    9.557900
  H    -34.693000    4.077370   13.812300
  H    -42.182000    0.245180   12.621200

 Total Charge           Charge          ....    0
 Multiplicity           Mult            ....    1
 Number of Electrons    NEL             ....  134
 Basis Dimension        Dim             ....  322

ORBITAL ENERGIES
----------------

  NO   OCC          E(Eh)            E(eV)
   0   2.0000     -88.972420     -2421.0626
   1   2.0000     -88.967239     -2420.9216
   2   2.0000     -10.334975      -281.2290
   3   2.0000     -10.332561      -281.1633
   4   2.0000     -10.317471      -280.7527
   5   2.0000     -10.312183      -280.6088
   6   2.0000     -10.309742      -280.5423
   7   2.0000     -10.304639      -280.4035
   8   2.0000     -10.297132      -280.1992
   9   2.0000     -10.296242      -280.1750
  10   2.0000     -10.296173      -280.1731
  11   2.0000     -10.294942      -280.1396
  12   2.0000     -10.291323      -280.0411
  13   2.0000     -10.284797      -279.8636
  14   2.0000     -10.281327      -279.7691
  15   2.0000     -10.262822      -279.2656
  16   2.0000      -8.085911      -220.0288
  17   2.0000      -8.081414      -219.9065
  18   2.0000      -6.044579      -164.4814
  19   2.0000      -6.040522      -164.3710
  20   2.0000      -6.040169      -164.3613
  21   2.0000      -6.036677      -164.2663
  22   2.0000      -6.036008      -164.2481
  23   2.0000      -6.031933      -164.1373
  24   2.0000      -1.004460       -27.3328
  25   2.0000      -0.982566       -26.7370
  26   2.0000      -0.920445       -25.0466
  27   2.0000      -0.895605       -24.3707
  28   2.0000      -0.869753       -23.6672
  29   2.0000      -0.855458       -23.2782
  30   2.0000      -0.840487       -22.8708
  31   2.0000      -0.811483       -22.0816
  32   2.0000      -0.783572       -21.3221
  33   2.0000      -0.771051       -20.9814
  34   2.0000      -0.710930       -19.3454
  35   2.0000      -0.701046       -19.0764
  36   2.0000      -0.692344       -18.8396
  37   2.0000      -0.664412       -18.0796
  38   2.0000      -0.630159       -17.1475
  39   2.0000      -0.612073       -16.6554
  40   2.0000      -0.592183       -16.1141
  41   2.0000      -0.581704       -15.8290
  42   2.0000      -0.557586       -15.1727
  43   2.0000      -0.555258       -15.1094
  44   2.0000      -0.546951       -14.8833
  45   2.0000      -0.516778       -14.0622
  46   2.0000      -0.513836       -13.9822
  47   2.0000      -0.507412       -13.8074
  48   2.0000      -0.505617       -13.7585
  49   2.0000      -0.499476       -13.5914
  50   2.0000      -0.490003       -13.3337
  51   2.0000      -0.471896       -12.8409
  52   2.0000      -0.470094       -12.7919
  53   2.0000      -0.466157       -12.6848
  54   2.0000      -0.462586       -12.5876
  55   2.0000      -0.449057       -12.2195
  56   2.0000      -0.442711       -12.0468
  57   2.0000      -0.436180       -11.8691
  58   2.0000      -0.430130       -11.7044
  59   2.0000      -0.425257       -11.5718
  60   2.0000      -0.423550       -11.5254
  61   2.0000      -0.422123       -11.4866
  62   2.0000      -0.411357       -11.1936
  63   2.0000      -0.360796        -9.8178
  64   2.0000      -0.334610        -9.1052
  65   2.0000      -0.327655        -8.9160
  66   2.0000      -0.281486        -7.6596
  67   0.0000       0.019094         0.5196
  68   0.0000       0.079052         2.1511
  69   0.0000       0.104672         2.8483
  70   0.0000       0.115236         3.1357
  71   0.0000       0.129500         3.5239

MULLIKEN ATOMIC CHARGES
-----------------------
   0 S :    0.101670
   1 C :   -0.131079
   2 C :   -0.078802
   3 C :   -0.037530
   4 C :   -0.097408
   5 H :    0.028345
   6 C :    0.043739
   7 H :    0.046620
   8 H :    0.021941
   9 C :   -0.053248
  10 H :    0.016189
  11 H :    0.020958
  12 C :    0.001198
  13 H :    0.012464
  14 H :    0.026568
  15 H :    0.019468
  16 S :    0.093004
  17 C :   -0.062976
  18 C :   -0.039259
  19 C :   -0.079770
  20 C :   -0.099337
  21 H :    0.019394
  22 C :    0.006339
  23 H :    0.037522
  24 H :    0.042181
  25 C :   -0.072462
  26 H :    0.039676
  27 H :    0.029024
  28 C :   -0.057233
  29 H :    0.024021
  30 H :    0.041718
  31 H :    0.040627
  32 H :    0.051688
  33 H :    0.044752
Sum of atomic charges:   -0.0000000

LOEWDIN ATOMIC CHARGES
----------------------
   0 S :    0.415204
   1 C :   -0.205327
   2 C :   -0.065273
   3 C :   -0.079890
   4 C :   -0.182194
   5 H :    0.033821
   6 C :   -0.030141
   7 H :    0.038150
   8 H :    0.031977
   9 C :   -0.037759
  10 H :    0.022135
  11 H :    0.023501
  12 C :   -0.058568
  13 H :    0.024441
  14 H :    0.029045
  15 H :    0.017113
  16 S :    0.402377
  17 C :   -0.182184
  18 C :   -0.068422
  19 C :   -0.060510
  20 C :   -0.187998
  21 H :    0.029272
  22 C :   -0.040115
  23 H :    0.038973
  24 H :    0.020110
  25 C :   -0.037520
  26 H :    0.025730
  27 H :    0.022630
  28 C :   -0.072397
  29 H :    0.015367
  30 H :    0.030369
  31 H :    0.034839
  32 H :    0.026728
  33 H :    0.026518

  Mayer bond orders larger than 0.100000
B(  0-S ,  1-C ) :   1.1386 B(  0-S ,  4-C ) :   1.1524 B(  1-C ,  2-C ) :   1.5833
B(  1-C , 32-H ) :   0.9584 B(  2-C ,  3-C ) :   1.3086 B(  2-C ,  6-C ) :   1.0115
B(  3-C ,  4-C ) :   1.5142 B(  3-C ,  5-H ) :   0.9779 B(  4-C , 20-C ) :   1.0757
B(  6-C ,  7-H ) :   0.9318 B(  6-C ,  8-H ) :   0.9447 B(  6-C ,  9-C ) :   1.0839
B(  9-C , 10-H ) :   0.9481 B(  9-C , 11-H ) :   0.9500 B(  9-C , 12-C ) :   1.0927
B( 12-C , 13-H ) :   0.9675 B( 12-C , 14-H ) :   0.9682 B( 12-C , 15-H ) :   0.9725
B( 16-S , 17-C ) :   1.1419 B( 16-S , 20-C ) :   1.1225 B( 17-C , 18-C ) :   1.6312
B( 17-C , 33-H ) :   0.9693 B( 18-C , 19-C ) :   1.2253 B( 18-C , 21-H ) :   0.9856
B( 19-C , 20-C ) :   1.6067 B( 19-C , 22-C ) :   1.0229 B( 22-C , 23-H ) :   0.9405
B( 22-C , 24-H ) :   0.9440 B( 22-C , 25-C ) :   1.0433 B( 25-C , 26-H ) :   0.9585
B( 25-C , 27-H ) :   0.9617 B( 25-C , 28-C ) :   1.0628 B( 28-C , 29-H ) :   0.9778
B( 28-C , 30-H ) :   0.9777 B( 28-C , 31-H ) :   0.9769

Dispersion correction           -0.013957750
FINAL SINGLE POINT ENERGY     -1339.880692008446

DIPOLE MOMENT
-------------
                                X             Y             Z
Electronic contribution:     -5.76821      -9.23308      -2.74430
Nuclear contribution   :      5.78392       9.29870       2.80644
                        -----------------------------------------
Total Dipole Moment    :      0.01571       0.06563       0.06214
                        -----------------------------------------
Magnitude (a.u.)       :      0.09173
Magnitude (Debye)      :      0.23317

Rotational constants in cm-1:     0.022063     0.007775     0.006126
Rotational constants in MHz :   661.438211   233.091588   183.641776

                             ****ORCA TERMINATED NORMALLY****
TOTAL RUN TIME: 0 days 0 hours 0 minutes 21 seconds 50 msec
