                         Program Version 4.2.1 -  RELEASE  -
|  1> ! wB97X-D3 SP def2-SVP
|  2> %pal
|  3> nprocs 24
|  4> end
|  5>
|  6> * xyz 0 1
|  7> S 	 29.2236 	 0.0555255 	 -117.943
|  8> C 	 29.2994 	 0.976229 	 -119.427
|  9> C 	 29.1695 	 2.33052 	 -119.197
| 10> C 	 28.8698 	 2.61493 	 -117.818
| 11> C 	 28.6975 	 1.5037 	 -117.065
| 12> H 	 28.7092 	 3.54315 	 -117.376
| 13> C 	 29.4355 	 3.40657 	 -120.132
| 14> H 	 28.4973 	 3.85716 	 -120.434
| 15> H 	 29.6807 	 2.94655 	 -121.07
| 16> C 	 30.6197 	 4.37279 	 -119.792
| 17> H 	 30.3029 	 4.94708 	 -118.968
| 18> H 	 31.4381 	 3.76433 	 -119.383
| 19> C 	 30.9539 	 5.33561 	 -120.945
| 20> H 	 31.7745 	 5.97916 	 -120.751
| 21> H 	 31.2532 	 4.81513 	 -121.861
| 22> H 	 30.0687 	 5.97987 	 -121.138
| 23> S 	 26.8884 	 1.77428 	 -114.997
| 24> C 	 27.3871 	 1.42626 	 -113.365
| 25> C 	 28.6826 	 0.988141 	 -113.365
| 26> C 	 29.3206 	 0.983324 	 -114.626
| 27> C 	 28.454 	 1.42642 	 -115.621
| 28> H 	 29.1579 	 0.819057 	 -112.416
| 29> C 	 30.725 	 0.613426 	 -114.864
| 30> H 	 30.8138 	 -0.294775 	 -115.51
| 31> H 	 31.1117 	 0.242438 	 -113.936
| 32> C 	 31.5685 	 1.86605 	 -115.381
| 33> H 	 31.2239 	 2.09324 	 -116.436
| 34> H 	 32.6115 	 1.45135 	 -115.495
| 35> C 	 31.7059 	 3.15831 	 -114.494
| 36> H 	 32.3767 	 3.14429 	 -113.602
| 37> H 	 30.7564 	 3.48208 	 -114.088
| 38> H 	 32.0043 	 3.99893 	 -115.151
| 39> H 	 29.6607 	 0.590035 	 -120.361
| 40> H 	 26.8423 	 1.54286 	 -112.451
| 41> *
| 42>
| 43>                          ****END OF INPUT****

CARTESIAN COORDINATES (ANGSTROEM)
---------------------------------
  S     29.223600    0.055525  -117.943000
  C     29.299400    0.976229  -119.427000
  C     29.169500    2.330520  -119.197000
  C     28.869800    2.614930  -117.818000
  C     28.697500    1.503700  -117.065000
  H     28.709200    3.543150  -117.376000
  C     29.435500    3.406570  -120.132000
  H     28.497300    3.857160  -120.434000
  H     29.680700    2.946550  -121.070000
  C     30.619700    4.372790  -119.792000
  H     30.302900    4.947080  -118.968000
  H     31.438100    3.764330  -119.383000
  C     30.953900    5.335610  -120.945000
  H     31.774500    5.979160  -120.751000
  H     31.253200    4.815130  -121.861000
  H     30.068700    5.979870  -121.138000
  S     26.888400    1.774280  -114.997000
  C     27.387100    1.426260  -113.365000
  C     28.682600    0.988141  -113.365000
  C     29.320600    0.983324  -114.626000
  C     28.454000    1.426420  -115.621000
  H     29.157900    0.819057  -112.416000
  C     30.725000    0.613426  -114.864000
  H     30.813800   -0.294775  -115.510000
  H     31.111700    0.242438  -113.936000
  C     31.568500    1.866050  -115.381000
  H     31.223900    2.093240  -116.436000
  H     32.611500    1.451350  -115.495000
  C     31.705900    3.158310  -114.494000
  H     32.376700    3.144290  -113.602000
  H     30.756400    3.482080  -114.088000
  H     32.004300    3.998930  -115.151000
  H     29.660700    0.590035  -120.361000
  H     26.842300    1.542860  -112.451000

 Total Charge           Charge          ....    0
 Multiplicity           Mult            ....    1
 Number of Electrons    NEL             ....  134
 Basis Dimension        Dim             ....  322

ORBITAL ENERGIES
----------------

  NO   OCC          E(Eh)            E(eV)
   0   2.0000     -88.965645     -2420.8783
   1   2.0000     -88.964232     -2420.8398
   2   2.0000     -10.326393      -280.9954
   3   2.0000     -10.319409      -280.8054
   4   2.0000     -10.312647      -280.6214
   5   2.0000     -10.311143      -280.5805
   6   2.0000     -10.297300      -280.2038
   7   2.0000     -10.297066      -280.1974
   8   2.0000     -10.294608      -280.1305
   9   2.0000     -10.290019      -280.0056
  10   2.0000     -10.289966      -280.0042
  11   2.0000     -10.287552      -279.9385
  12   2.0000     -10.286768      -279.9172
  13   2.0000     -10.284398      -279.8527
  14   2.0000     -10.282252      -279.7943
  15   2.0000     -10.281853      -279.7834
  16   2.0000      -8.080682      -219.8865
  17   2.0000      -8.078519      -219.8277
  18   2.0000      -6.039144      -164.3335
  19   2.0000      -6.037121      -164.2784
  20   2.0000      -6.034985      -164.2203
  21   2.0000      -6.033223      -164.1723
  22   2.0000      -6.031660      -164.1298
  23   2.0000      -6.029082      -164.0597
  24   2.0000      -1.009661       -27.4743
  25   2.0000      -0.987697       -26.8766
  26   2.0000      -0.914252       -24.8781
  27   2.0000      -0.899595       -24.4792
  28   2.0000      -0.870451       -23.6862
  29   2.0000      -0.851213       -23.1627
  30   2.0000      -0.840053       -22.8590
  31   2.0000      -0.820949       -22.3391
  32   2.0000      -0.782632       -21.2965
  33   2.0000      -0.770280       -20.9604
  34   2.0000      -0.716410       -19.4945
  35   2.0000      -0.702659       -19.1203
  36   2.0000      -0.686592       -18.6831
  37   2.0000      -0.664464       -18.0810
  38   2.0000      -0.645371       -17.5614
  39   2.0000      -0.623532       -16.9672
  40   2.0000      -0.589528       -16.0419
  41   2.0000      -0.573168       -15.5967
  42   2.0000      -0.560456       -15.2508
  43   2.0000      -0.543735       -14.7958
  44   2.0000      -0.535262       -14.5652
  45   2.0000      -0.523826       -14.2540
  46   2.0000      -0.514760       -14.0073
  47   2.0000      -0.511791       -13.9265
  48   2.0000      -0.508528       -13.8377
  49   2.0000      -0.493534       -13.4297
  50   2.0000      -0.483058       -13.1447
  51   2.0000      -0.478588       -13.0231
  52   2.0000      -0.476032       -12.9535
  53   2.0000      -0.467001       -12.7077
  54   2.0000      -0.459490       -12.5034
  55   2.0000      -0.454958       -12.3800
  56   2.0000      -0.441136       -12.0039
  57   2.0000      -0.440376       -11.9832
  58   2.0000      -0.434188       -11.8149
  59   2.0000      -0.428881       -11.6704
  60   2.0000      -0.416241       -11.3265
  61   2.0000      -0.414245       -11.2722
  62   2.0000      -0.410311       -11.1651
  63   2.0000      -0.340535        -9.2664
  64   2.0000      -0.332427        -9.0458
  65   2.0000      -0.322759        -8.7827
  66   2.0000      -0.299760        -8.1569
  67   0.0000       0.035695         0.9713
  68   0.0000       0.067149         1.8272
  69   0.0000       0.108866         2.9624
  70   0.0000       0.126158         3.4329
  71   0.0000       0.134653         3.6641

MULLIKEN ATOMIC CHARGES
-----------------------
   0 S :    0.101279
   1 C :   -0.099866
   2 C :   -0.097839
   3 C :    0.051869
   4 C :   -0.160244
   5 H :   -0.010304
   6 C :    0.096477
   7 H :    0.027387
   8 H :   -0.015877
   9 C :   -0.064406
  10 H :    0.020827
  11 H :    0.038086
  12 C :   -0.039863
  13 H :    0.028965
  14 H :    0.032557
  15 H :    0.038608
  16 S :    0.125066
  17 C :   -0.085305
  18 C :   -0.041057
  19 C :   -0.036820
  20 C :   -0.180261
  21 H :    0.009953
  22 C :    0.099381
  23 H :    0.043851
  24 H :   -0.003682
  25 C :   -0.111199
  26 H :    0.058996
  27 H :    0.035176
  28 C :   -0.053449
  29 H :    0.040557
  30 H :    0.029201
  31 H :    0.035948
  32 H :    0.039244
  33 H :    0.046742
Sum of atomic charges:   -0.0000000

LOEWDIN ATOMIC CHARGES
----------------------
   0 S :    0.396287
   1 C :   -0.191142
   2 C :   -0.063592
   3 C :   -0.049409
   4 C :   -0.178566
   5 H :    0.022665
   6 C :   -0.039262
   7 H :    0.033241
   8 H :    0.023658
   9 C :   -0.031871
  10 H :    0.016581
  11 H :    0.028801
  12 C :   -0.063020
  13 H :    0.022731
  14 H :    0.025840
  15 H :    0.033131
  16 S :    0.429635
  17 C :   -0.191696
  18 C :   -0.071775
  19 C :   -0.064434
  20 C :   -0.215329
  21 H :    0.028703
  22 C :   -0.039981
  23 H :    0.035430
  24 H :    0.023447
  25 C :   -0.042558
  26 H :    0.032852
  27 H :    0.027623
  28 C :   -0.075635
  29 H :    0.029084
  30 H :    0.021743
  31 H :    0.032773
  32 H :    0.024544
  33 H :    0.029502

  Mayer bond orders larger than 0.100000
B(  0-S ,  1-C ) :   1.1308 B(  0-S ,  4-C ) :   1.1336 B(  1-C ,  2-C ) :   1.6291
B(  1-C , 32-H ) :   0.9639 B(  2-C ,  3-C ) :   1.1958 B(  2-C ,  6-C ) :   1.0549
B(  3-C ,  4-C ) :   1.6211 B(  3-C ,  5-H ) :   1.0067 B(  4-C , 20-C ) :   1.0059
B(  6-C ,  7-H ) :   0.9219 B(  6-C ,  8-H ) :   0.9258 B(  6-C ,  9-C ) :   1.0418
B(  9-C , 10-H ) :   0.9522 B(  9-C , 11-H ) :   0.9582 B(  9-C , 12-C ) :   1.0846
B( 12-C , 13-H ) :   0.9744 B( 12-C , 14-H ) :   0.9770 B( 12-C , 15-H ) :   0.9732
B( 16-S , 17-C ) :   1.1570 B( 16-S , 20-C ) :   1.1698 B( 17-C , 18-C ) :   1.6012
B( 17-C , 20-C ) :   0.1004 B( 17-C , 33-H ) :   0.9679 B( 18-C , 19-C ) :   1.2658
B( 18-C , 21-H ) :   0.9879 B( 19-C , 20-C ) :   1.5470 B( 19-C , 22-C ) :   1.0551
B( 22-C , 23-H ) :   0.9279 B( 22-C , 24-H ) :   0.9219 B( 22-C , 25-C ) :   1.0526
B( 25-C , 26-H ) :   0.9583 B( 25-C , 27-H ) :   0.9579 B( 25-C , 28-C ) :   1.0591
B( 28-C , 29-H ) :   0.9771 B( 28-C , 30-H ) :   0.9757 B( 28-C , 31-H ) :   0.9737

Dispersion correction           -0.015808721
FINAL SINGLE POINT ENERGY     -1339.882725467132

DIPOLE MOMENT
-------------
                                X             Y             Z
Electronic contribution:    -19.33402     -16.59932       7.66900
Nuclear contribution   :     19.82566      17.02728      -7.70809
                        -----------------------------------------
Total Dipole Moment    :      0.49163       0.42797      -0.03909
                        -----------------------------------------
Magnitude (a.u.)       :      0.65298
Magnitude (Debye)      :      1.65975

Rotational constants in cm-1:     0.020816     0.008514     0.007782
Rotational constants in MHz :   624.047304   255.231206   233.306358

                             ****ORCA TERMINATED NORMALLY****
TOTAL RUN TIME: 0 days 0 hours 0 minutes 21 seconds 513 msec
