                         Program Version 4.2.1 -  RELEASE  -
|  1> ! wB97X-D3 SP def2-SVP
|  2> %pal
|  3> nprocs 24
|  4> end
|  5>
|  6> * xyz 0 1
|  7> S 	 37.2594 	 -1.40323 	 -120.894
|  8> C 	 37.6642 	 -2.85253 	 -121.715
|  9> C 	 37.7365 	 -3.91319 	 -120.788
| 10> C 	 37.4447 	 -3.46901 	 -119.444
| 11> C 	 37.2079 	 -2.15694 	 -119.302
| 12> H 	 37.3991 	 -4.13188 	 -118.626
| 13> C 	 37.9377 	 -5.43417 	 -121.196
| 14> H 	 38.6249 	 -5.98794 	 -120.558
| 15> H 	 38.3754 	 -5.40171 	 -122.123
| 16> C 	 36.633 	 -6.2991 	 -121.233
| 17> H 	 36.3709 	 -6.5849 	 -120.251
| 18> H 	 35.8387 	 -5.64925 	 -121.583
| 19> C 	 36.7629 	 -7.57665 	 -122.042
| 20> H 	 36.8057 	 -7.30468 	 -123.097
| 21> H 	 37.6366 	 -8.14854 	 -121.694
| 22> H 	 35.8856 	 -8.20986 	 -121.848
| 23> S 	 37.0971 	 0.319869 	 -118.348
| 24> C 	 36.6122 	 0.633219 	 -116.735
| 25> C 	 36.6336 	 -0.50588 	 -115.968
| 26> C 	 36.8099 	 -1.72062 	 -116.765
| 27> C 	 37.0447 	 -1.41306 	 -118.099
| 28> H 	 36.4862 	 -0.489954 	 -114.891
| 29> C 	 36.5526 	 -3.09162 	 -116.208
| 30> H 	 36.5283 	 -2.79924 	 -115.145
| 31> H 	 37.3831 	 -3.73227 	 -116.54
| 32> C 	 35.2713 	 -3.66989 	 -116.672
| 33> H 	 35.2411 	 -3.91973 	 -117.733
| 34> H 	 34.4291 	 -2.98029 	 -116.476
| 35> C 	 35.0775 	 -5.00981 	 -115.963
| 36> H 	 34.9897 	 -4.88234 	 -114.898
| 37> H 	 35.8608 	 -5.67462 	 -116.314
| 38> H 	 34.1712 	 -5.4831 	 -116.269
| 39> H 	 37.7218 	 -2.99243 	 -122.754
| 40> H 	 36.6188 	 1.57512 	 -116.237
| 41> *
| 42>
| 43>                          ****END OF INPUT****

CARTESIAN COORDINATES (ANGSTROEM)
---------------------------------
  S     37.259400   -1.403230  -120.894000
  C     37.664200   -2.852530  -121.715000
  C     37.736500   -3.913190  -120.788000
  C     37.444700   -3.469010  -119.444000
  C     37.207900   -2.156940  -119.302000
  H     37.399100   -4.131880  -118.626000
  C     37.937700   -5.434170  -121.196000
  H     38.624900   -5.987940  -120.558000
  H     38.375400   -5.401710  -122.123000
  C     36.633000   -6.299100  -121.233000
  H     36.370900   -6.584900  -120.251000
  H     35.838700   -5.649250  -121.583000
  C     36.762900   -7.576650  -122.042000
  H     36.805700   -7.304680  -123.097000
  H     37.636600   -8.148540  -121.694000
  H     35.885600   -8.209860  -121.848000
  S     37.097100    0.319869  -118.348000
  C     36.612200    0.633219  -116.735000
  C     36.633600   -0.505880  -115.968000
  C     36.809900   -1.720620  -116.765000
  C     37.044700   -1.413060  -118.099000
  H     36.486200   -0.489954  -114.891000
  C     36.552600   -3.091620  -116.208000
  H     36.528300   -2.799240  -115.145000
  H     37.383100   -3.732270  -116.540000
  C     35.271300   -3.669890  -116.672000
  H     35.241100   -3.919730  -117.733000
  H     34.429100   -2.980290  -116.476000
  C     35.077500   -5.009810  -115.963000
  H     34.989700   -4.882340  -114.898000
  H     35.860800   -5.674620  -116.314000
  H     34.171200   -5.483100  -116.269000
  H     37.721800   -2.992430  -122.754000
  H     36.618800    1.575120  -116.237000

 Total Charge           Charge          ....    0
 Multiplicity           Mult            ....    1
 Number of Electrons    NEL             ....  134
 Basis Dimension        Dim             ....  322

ORBITAL ENERGIES
----------------

  NO   OCC          E(Eh)            E(eV)
   0   2.0000     -88.965971     -2420.8872
   1   2.0000     -88.963548     -2420.8212
   2   2.0000     -10.326593      -281.0009
   3   2.0000     -10.324583      -280.9462
   4   2.0000     -10.314137      -280.6619
   5   2.0000     -10.312068      -280.6056
   6   2.0000     -10.308671      -280.5132
   7   2.0000     -10.303224      -280.3650
   8   2.0000     -10.296358      -280.1781
   9   2.0000     -10.292576      -280.0752
  10   2.0000     -10.291316      -280.0410
  11   2.0000     -10.287856      -279.9468
  12   2.0000     -10.283012      -279.8150
  13   2.0000     -10.281558      -279.7754
  14   2.0000     -10.281100      -279.7630
  15   2.0000     -10.272408      -279.5264
  16   2.0000      -8.081055      -219.8967
  17   2.0000      -8.079221      -219.8468
  18   2.0000      -6.039788      -164.3510
  19   2.0000      -6.037748      -164.2955
  20   2.0000      -6.035422      -164.2322
  21   2.0000      -6.033635      -164.1836
  22   2.0000      -6.031629      -164.1290
  23   2.0000      -6.029859      -164.0808
  24   2.0000      -1.014080       -27.5945
  25   2.0000      -0.986727       -26.8502
  26   2.0000      -0.923771       -25.1371
  27   2.0000      -0.907461       -24.6933
  28   2.0000      -0.877864       -23.8879
  29   2.0000      -0.857166       -23.3247
  30   2.0000      -0.845559       -23.0088
  31   2.0000      -0.819824       -22.3085
  32   2.0000      -0.782512       -21.2932
  33   2.0000      -0.771860       -21.0034
  34   2.0000      -0.711439       -19.3592
  35   2.0000      -0.699916       -19.0457
  36   2.0000      -0.692288       -18.8381
  37   2.0000      -0.672354       -18.2957
  38   2.0000      -0.644253       -17.5310
  39   2.0000      -0.627888       -17.0857
  40   2.0000      -0.596507       -16.2318
  41   2.0000      -0.579738       -15.7755
  42   2.0000      -0.574403       -15.6303
  43   2.0000      -0.558674       -15.2023
  44   2.0000      -0.528191       -14.3728
  45   2.0000      -0.523988       -14.2584
  46   2.0000      -0.520317       -14.1585
  47   2.0000      -0.516316       -14.0497
  48   2.0000      -0.509708       -13.8699
  49   2.0000      -0.507021       -13.7967
  50   2.0000      -0.498778       -13.5724
  51   2.0000      -0.486579       -13.2405
  52   2.0000      -0.473978       -12.8976
  53   2.0000      -0.466414       -12.6918
  54   2.0000      -0.459900       -12.5145
  55   2.0000      -0.452349       -12.3090
  56   2.0000      -0.440860       -11.9964
  57   2.0000      -0.439759       -11.9664
  58   2.0000      -0.431585       -11.7440
  59   2.0000      -0.429134       -11.6773
  60   2.0000      -0.424017       -11.5381
  61   2.0000      -0.417747       -11.3675
  62   2.0000      -0.406336       -11.0570
  63   2.0000      -0.370039       -10.0693
  64   2.0000      -0.333570        -9.0769
  65   2.0000      -0.325227        -8.8499
  66   2.0000      -0.282037        -7.6746
  67   0.0000       0.019939         0.5426
  68   0.0000       0.089199         2.4272
  69   0.0000       0.097138         2.6433
  70   0.0000       0.117379         3.1941
  71   0.0000       0.125519         3.4156

MULLIKEN ATOMIC CHARGES
-----------------------
   0 S :    0.104889
   1 C :   -0.087401
   2 C :   -0.116218
   3 C :   -0.004083
   4 C :   -0.065354
   5 H :   -0.031641
   6 C :    0.095321
   7 H :    0.023992
   8 H :   -0.007611
   9 C :   -0.063699
  10 H :    0.011119
  11 H :    0.028295
  12 C :   -0.057150
  13 H :    0.040392
  14 H :    0.034565
  15 H :    0.039172
  16 S :    0.092438
  17 C :   -0.053270
  18 C :   -0.057307
  19 C :   -0.083332
  20 C :   -0.114444
  21 H :    0.022124
  22 C :    0.058606
  23 H :    0.023661
  24 H :    0.040372
  25 C :   -0.087561
  26 H :    0.036174
  27 H :    0.031731
  28 C :   -0.008054
  29 H :    0.029463
  30 H :    0.022657
  31 H :    0.018540
  32 H :    0.034304
  33 H :    0.049313
Sum of atomic charges:    0.0000000

LOEWDIN ATOMIC CHARGES
----------------------
   0 S :    0.409390
   1 C :   -0.201191
   2 C :   -0.053608
   3 C :   -0.067875
   4 C :   -0.185834
   5 H :    0.018418
   6 C :   -0.021794
   7 H :    0.028527
   8 H :    0.013586
   9 C :   -0.038273
  10 H :    0.013874
  11 H :    0.022427
  12 C :   -0.064256
  13 H :    0.026072
  14 H :    0.027313
  15 H :    0.030494
  16 S :    0.415099
  17 C :   -0.193268
  18 C :   -0.073643
  19 C :   -0.055606
  20 C :   -0.186883
  21 H :    0.030899
  22 C :   -0.035758
  23 H :    0.037631
  24 H :    0.032825
  25 C :   -0.041841
  26 H :    0.026456
  27 H :    0.028360
  28 C :   -0.058124
  29 H :    0.022214
  30 H :    0.024230
  31 H :    0.020695
  32 H :    0.021893
  33 H :    0.027554

  Mayer bond orders larger than 0.100000
B(  0-S ,  1-C ) :   1.1442 B(  0-S ,  4-C ) :   1.1221 B(  1-C ,  2-C ) :   1.5960
B(  1-C , 32-H ) :   0.9752 B(  2-C ,  3-C ) :   1.2493 B(  2-C ,  6-C ) :   1.0301
B(  3-C ,  4-C ) :   1.5688 B(  3-C ,  5-H ) :   1.0034 B(  4-C , 20-C ) :   1.1147
B(  6-C ,  7-H ) :   0.9420 B(  6-C ,  8-H ) :   0.9420 B(  6-C ,  9-C ) :   1.0519
B(  9-C , 10-H ) :   0.9549 B(  9-C , 11-H ) :   0.9593 B(  9-C , 12-C ) :   1.0887
B( 12-C , 13-H ) :   0.9771 B( 12-C , 14-H ) :   0.9731 B( 12-C , 15-H ) :   0.9731
B( 16-S , 17-C ) :   1.1562 B( 16-S , 20-C ) :   1.1268 B( 17-C , 18-C ) :   1.6235
B( 17-C , 33-H ) :   0.9629 B( 18-C , 19-C ) :   1.2438 B( 18-C , 21-H ) :   0.9818
B( 19-C , 20-C ) :   1.5775 B( 19-C , 22-C ) :   1.0423 B( 22-C , 23-H ) :   0.9264
B( 22-C , 24-H ) :   0.9202 B( 22-C , 25-C ) :   1.0923 B( 25-C , 26-H ) :   0.9487
B( 25-C , 27-H ) :   0.9481 B( 25-C , 28-C ) :   1.0907 B( 28-C , 29-H ) :   0.9749
B( 28-C , 30-H ) :   0.9704 B( 28-C , 31-H ) :   0.9714

Dispersion correction           -0.014126497
FINAL SINGLE POINT ENERGY     -1339.875078827737

DIPOLE MOMENT
-------------
                                X             Y             Z
Electronic contribution:      6.88026      31.56639      -3.62358
Nuclear contribution   :     -7.05549     -32.18643       3.90806
                        -----------------------------------------
Total Dipole Moment    :     -0.17523      -0.62005       0.28448
                        -----------------------------------------
Magnitude (a.u.)       :      0.70434
Magnitude (Debye)      :      1.79029

Rotational constants in cm-1:     0.019296     0.009082     0.006424
Rotational constants in MHz :   578.481241   272.259165   192.574812

                             ****ORCA TERMINATED NORMALLY****
TOTAL RUN TIME: 0 days 0 hours 0 minutes 20 seconds 973 msec
