                         Program Version 4.2.1 -  RELEASE  -
|  1> ! wB97X-D3 SP def2-SVP
|  2> %pal
|  3> nprocs 24
|  4> end
|  5>
|  6> * xyz 0 1
|  7> S 	 29.2419 	 -30.2019 	 -132.208
|  8> C 	 28.8022 	 -28.5406 	 -131.968
|  9> C 	 28.8644 	 -28.175 	 -130.597
| 10> C 	 29.2426 	 -29.285 	 -129.788
| 11> C 	 29.3981 	 -30.4447 	 -130.5
| 12> H 	 29.3402 	 -29.203 	 -128.77
| 13> C 	 28.4282 	 -26.8158 	 -129.947
| 14> H 	 28.9592 	 -25.9428 	 -130.402
| 15> H 	 28.7864 	 -26.8079 	 -128.878
| 16> C 	 26.9278 	 -26.5807 	 -129.818
| 17> H 	 26.4721 	 -26.2033 	 -130.785
| 18> H 	 26.3878 	 -27.4802 	 -129.456
| 19> C 	 26.7556 	 -25.4527 	 -128.798
| 20> H 	 27.6017 	 -24.7889 	 -128.749
| 21> H 	 25.903 	 -24.8089 	 -128.862
| 22> H 	 26.6979 	 -25.8689 	 -127.819
| 23> S 	 31.071 	 -32.4733 	 -130.826
| 24> C 	 31.041 	 -33.8863 	 -129.771
| 25> C 	 30.0985 	 -33.691 	 -128.81
| 26> C 	 29.3318 	 -32.481 	 -128.828
| 27> C 	 29.7386 	 -31.7345 	 -129.951
| 28> H 	 30.0236 	 -34.4288 	 -127.999
| 29> C 	 28.4015 	 -32.0751 	 -127.672
| 30> H 	 28.6773 	 -31.1163 	 -127.323
| 31> H 	 28.5656 	 -32.8952 	 -126.901
| 32> C 	 26.9059 	 -32.0763 	 -128.002
| 33> H 	 26.5709 	 -33.0821 	 -128.205
| 34> H 	 26.7172 	 -31.4838 	 -128.878
| 35> C 	 26.1049 	 -31.4439 	 -126.855
| 36> H 	 26.1244 	 -31.8912 	 -125.845
| 37> H 	 24.99 	 -31.4284 	 -127.184
| 38> H 	 26.3108 	 -30.3789 	 -126.772
| 39> H 	 28.539 	 -27.7992 	 -132.769
| 40> H 	 31.7573 	 -34.6745 	 -129.861
| 41> *
| 42>
| 43>                          ****END OF INPUT****

CARTESIAN COORDINATES (ANGSTROEM)
---------------------------------
  S     29.241900  -30.201900  -132.208000
  C     28.802200  -28.540600  -131.968000
  C     28.864400  -28.175000  -130.597000
  C     29.242600  -29.285000  -129.788000
  C     29.398100  -30.444700  -130.500000
  H     29.340200  -29.203000  -128.770000
  C     28.428200  -26.815800  -129.947000
  H     28.959200  -25.942800  -130.402000
  H     28.786400  -26.807900  -128.878000
  C     26.927800  -26.580700  -129.818000
  H     26.472100  -26.203300  -130.785000
  H     26.387800  -27.480200  -129.456000
  C     26.755600  -25.452700  -128.798000
  H     27.601700  -24.788900  -128.749000
  H     25.903000  -24.808900  -128.862000
  H     26.697900  -25.868900  -127.819000
  S     31.071000  -32.473300  -130.826000
  C     31.041000  -33.886300  -129.771000
  C     30.098500  -33.691000  -128.810000
  C     29.331800  -32.481000  -128.828000
  C     29.738600  -31.734500  -129.951000
  H     30.023600  -34.428800  -127.999000
  C     28.401500  -32.075100  -127.672000
  H     28.677300  -31.116300  -127.323000
  H     28.565600  -32.895200  -126.901000
  C     26.905900  -32.076300  -128.002000
  H     26.570900  -33.082100  -128.205000
  H     26.717200  -31.483800  -128.878000
  C     26.104900  -31.443900  -126.855000
  H     26.124400  -31.891200  -125.845000
  H     24.990000  -31.428400  -127.184000
  H     26.310800  -30.378900  -126.772000
  H     28.539000  -27.799200  -132.769000
  H     31.757300  -34.674500  -129.861000

 Total Charge           Charge          ....    0
 Multiplicity           Mult            ....    1
 Number of Electrons    NEL             ....  134
 Basis Dimension        Dim             ....  322

ORBITAL ENERGIES
----------------

  NO   OCC          E(Eh)            E(eV)
   0   2.0000     -88.971135     -2421.0277
   1   2.0000     -88.962094     -2420.7816
   2   2.0000     -10.327957      -281.0380
   3   2.0000     -10.324994      -280.9574
   4   2.0000     -10.319218      -280.8002
   5   2.0000     -10.313200      -280.6364
   6   2.0000     -10.306863      -280.4640
   7   2.0000     -10.305488      -280.4266
   8   2.0000     -10.303766      -280.3797
   9   2.0000     -10.298047      -280.2241
  10   2.0000     -10.294436      -280.1259
  11   2.0000     -10.293334      -280.0959
  12   2.0000     -10.286311      -279.9047
  13   2.0000     -10.286064      -279.8980
  14   2.0000     -10.284165      -279.8464
  15   2.0000     -10.271280      -279.4957
  16   2.0000      -8.086047      -220.0325
  17   2.0000      -8.076850      -219.7823
  18   2.0000      -6.044509      -164.4794
  19   2.0000      -6.040480      -164.3698
  20   2.0000      -6.036884      -164.2720
  21   2.0000      -6.035349      -164.2302
  22   2.0000      -6.031300      -164.1200
  23   2.0000      -6.027665      -164.0211
  24   2.0000      -1.009097       -27.4589
  25   2.0000      -0.981743       -26.7146
  26   2.0000      -0.912405       -24.8278
  27   2.0000      -0.909093       -24.7377
  28   2.0000      -0.870012       -23.6742
  29   2.0000      -0.855493       -23.2791
  30   2.0000      -0.845962       -23.0198
  31   2.0000      -0.809720       -22.0336
  32   2.0000      -0.779142       -21.2015
  33   2.0000      -0.768980       -20.9250
  34   2.0000      -0.705171       -19.1887
  35   2.0000      -0.700744       -19.0682
  36   2.0000      -0.691669       -18.8213
  37   2.0000      -0.664601       -18.0847
  38   2.0000      -0.640036       -17.4163
  39   2.0000      -0.624921       -17.0050
  40   2.0000      -0.598776       -16.2935
  41   2.0000      -0.570339       -15.5197
  42   2.0000      -0.566764       -15.4224
  43   2.0000      -0.558086       -15.1863
  44   2.0000      -0.524868       -14.2824
  45   2.0000      -0.517688       -14.0870
  46   2.0000      -0.516915       -14.0660
  47   2.0000      -0.511017       -13.9055
  48   2.0000      -0.501826       -13.6554
  49   2.0000      -0.496169       -13.5015
  50   2.0000      -0.492722       -13.4076
  51   2.0000      -0.483572       -13.1587
  52   2.0000      -0.472346       -12.8532
  53   2.0000      -0.461804       -12.5663
  54   2.0000      -0.460594       -12.5334
  55   2.0000      -0.449315       -12.2265
  56   2.0000      -0.445200       -12.1145
  57   2.0000      -0.439606       -11.9623
  58   2.0000      -0.433137       -11.7863
  59   2.0000      -0.426358       -11.6018
  60   2.0000      -0.421825       -11.4784
  61   2.0000      -0.418771       -11.3953
  62   2.0000      -0.413980       -11.2650
  63   2.0000      -0.350028        -9.5248
  64   2.0000      -0.333862        -9.0849
  65   2.0000      -0.329666        -8.9707
  66   2.0000      -0.287050        -7.8110
  67   0.0000       0.027587         0.7507
  68   0.0000       0.070682         1.9234
  69   0.0000       0.105372         2.8673
  70   0.0000       0.116409         3.1676
  71   0.0000       0.132822         3.6143

MULLIKEN ATOMIC CHARGES
-----------------------
   0 S :    0.135403
   1 C :   -0.140057
   2 C :   -0.075531
   3 C :    0.046090
   4 C :   -0.126352
   5 H :   -0.029225
   6 C :   -0.002382
   7 H :    0.046483
   8 H :    0.026169
   9 C :   -0.057201
  10 H :    0.040573
  11 H :    0.044042
  12 C :   -0.042811
  13 H :    0.019743
  14 H :    0.025004
  15 H :    0.020780
  16 S :    0.084713
  17 C :   -0.082585
  18 C :   -0.048020
  19 C :   -0.009827
  20 C :   -0.170674
  21 H :    0.019008
  22 C :    0.072285
  23 H :    0.018555
  24 H :    0.030287
  25 C :   -0.046423
  26 H :    0.027351
  27 H :    0.035709
  28 C :   -0.089192
  29 H :    0.044468
  30 H :    0.039454
  31 H :    0.026969
  32 H :    0.066124
  33 H :    0.051070
Sum of atomic charges:    0.0000000

LOEWDIN ATOMIC CHARGES
----------------------
   0 S :    0.430222
   1 C :   -0.217446
   2 C :   -0.060696
   3 C :   -0.056912
   4 C :   -0.205843
   5 H :    0.015692
   6 C :   -0.037953
   7 H :    0.035541
   8 H :    0.032467
   9 C :   -0.042456
  10 H :    0.028760
  11 H :    0.030448
  12 C :   -0.067284
  13 H :    0.021952
  14 H :    0.022431
  15 H :    0.022181
  16 S :    0.394041
  17 C :   -0.182918
  18 C :   -0.072797
  19 C :   -0.059653
  20 C :   -0.185202
  21 H :    0.030814
  22 C :   -0.023565
  23 H :    0.021613
  24 H :    0.039697
  25 C :   -0.035666
  26 H :    0.023716
  27 H :    0.026480
  28 C :   -0.077217
  29 H :    0.026028
  30 H :    0.036494
  31 H :    0.021340
  32 H :    0.039439
  33 H :    0.026252

  Mayer bond orders larger than 0.100000
B(  0-S ,  1-C ) :   1.1484 B(  0-S ,  4-C ) :   1.1615 B(  1-C ,  2-C ) :   1.5847
B(  1-C , 32-H ) :   0.9640 B(  2-C ,  3-C ) :   1.2727 B(  2-C ,  6-C ) :   1.0109
B(  3-C ,  4-C ) :   1.5366 B(  3-C ,  5-H ) :   1.0131 B(  4-C , 20-C ) :   1.0436
B(  6-C ,  7-H ) :   0.9380 B(  6-C ,  8-H ) :   0.9528 B(  6-C ,  9-C ) :   1.0589
B(  9-C , 10-H ) :   0.9568 B(  9-C , 11-H ) :   0.9609 B(  9-C , 12-C ) :   1.0647
B( 12-C , 13-H ) :   0.9741 B( 12-C , 14-H ) :   0.9739 B( 12-C , 15-H ) :   0.9741
B( 16-S , 17-C ) :   1.1308 B( 16-S , 20-C ) :   1.1656 B( 17-C , 18-C ) :   1.6149
B( 17-C , 20-C ) :   0.1017 B( 17-C , 33-H ) :   0.9757 B( 18-C , 19-C ) :   1.2492
B( 18-C , 21-H ) :   0.9782 B( 19-C , 20-C ) :   1.5707 B( 19-C , 22-C ) :   1.0281
B( 22-C , 23-H ) :   0.9401 B( 22-C , 24-H ) :   0.9328 B( 22-C , 25-C ) :   1.0720
B( 25-C , 26-H ) :   0.9527 B( 25-C , 27-H ) :   0.9562 B( 25-C , 28-C ) :   1.0821
B( 28-C , 29-H ) :   0.9757 B( 28-C , 30-H ) :   0.9734 B( 28-C , 31-H ) :   0.9730

Dispersion correction           -0.013803408
FINAL SINGLE POINT ENERGY     -1339.879189365790

DIPOLE MOMENT
-------------
                                X             Y             Z
Electronic contribution:     20.46445     -16.15486     -20.39477
Nuclear contribution   :    -20.76130      16.46539      20.96846
                        -----------------------------------------
Total Dipole Moment    :     -0.29685       0.31053       0.57369
                        -----------------------------------------
Magnitude (a.u.)       :      0.71670
Magnitude (Debye)      :      1.82172

Rotational constants in cm-1:     0.017908     0.009139     0.006571
Rotational constants in MHz :   536.882081   273.966105   196.992970

                             ****ORCA TERMINATED NORMALLY****
TOTAL RUN TIME: 0 days 0 hours 0 minutes 20 seconds 307 msec
