                         Program Version 4.2.1 -  RELEASE  -
|  1> ! wB97X-D3 SP def2-SVP
|  2> %pal
|  3> nprocs 24
|  4> end
|  5>
|  6> * xyz 0 1
|  7> S 	 46.7643 	 -21.3809 	 -113.485
|  8> C 	 47.7183 	 -19.8929 	 -113.209
|  9> C 	 47.4358 	 -19.3218 	 -111.978
| 10> C 	 46.4871 	 -20.1218 	 -111.235
| 11> C 	 46.0503 	 -21.2609 	 -111.94
| 12> H 	 46.0395 	 -19.8701 	 -110.343
| 13> C 	 47.9844 	 -17.9484 	 -111.446
| 14> H 	 47.1397 	 -17.4785 	 -110.969
| 15> H 	 48.2549 	 -17.2483 	 -112.243
| 16> C 	 49.1991 	 -18.0762 	 -110.498
| 17> H 	 49.9589 	 -18.7298 	 -110.983
| 18> H 	 49.6415 	 -17.0741 	 -110.408
| 19> C 	 48.8912 	 -18.769 	 -109.149
| 20> H 	 48.0527 	 -18.4189 	 -108.703
| 21> H 	 48.5994 	 -19.7669 	 -109.318
| 22> H 	 49.7684 	 -18.6045 	 -108.513
| 23> S 	 43.8546 	 -22.5756 	 -112.617
| 24> C 	 43.0953 	 -23.6547 	 -111.391
| 25> C 	 43.9179 	 -23.8608 	 -110.311
| 26> C 	 45.0476 	 -23.0102 	 -110.317
| 27> C 	 45.1275 	 -22.2461 	 -111.437
| 28> H 	 43.6061 	 -24.5671 	 -109.553
| 29> C 	 46.1631 	 -23.0623 	 -109.285
| 30> H 	 45.6796 	 -23.0957 	 -108.278
| 31> H 	 46.6976 	 -22.0891 	 -109.32
| 32> C 	 47.1794 	 -24.2154 	 -109.453
| 33> H 	 46.5772 	 -25.1139 	 -109.386
| 34> H 	 48.0553 	 -24.1437 	 -108.751
| 35> C 	 48.0447 	 -24.3096 	 -110.745
| 36> H 	 47.4412 	 -25.015 	 -111.275
| 37> H 	 49.0252 	 -24.7544 	 -110.532
| 38> H 	 48.2006 	 -23.3867 	 -111.263
| 39> H 	 48.4558 	 -19.4689 	 -113.878
| 40> H 	 42.1598 	 -24.1736 	 -111.59
| 41> *
| 42>
| 43>                          ****END OF INPUT****

CARTESIAN COORDINATES (ANGSTROEM)
---------------------------------
  S     46.764300  -21.380900  -113.485000
  C     47.718300  -19.892900  -113.209000
  C     47.435800  -19.321800  -111.978000
  C     46.487100  -20.121800  -111.235000
  C     46.050300  -21.260900  -111.940000
  H     46.039500  -19.870100  -110.343000
  C     47.984400  -17.948400  -111.446000
  H     47.139700  -17.478500  -110.969000
  H     48.254900  -17.248300  -112.243000
  C     49.199100  -18.076200  -110.498000
  H     49.958900  -18.729800  -110.983000
  H     49.641500  -17.074100  -110.408000
  C     48.891200  -18.769000  -109.149000
  H     48.052700  -18.418900  -108.703000
  H     48.599400  -19.766900  -109.318000
  H     49.768400  -18.604500  -108.513000
  S     43.854600  -22.575600  -112.617000
  C     43.095300  -23.654700  -111.391000
  C     43.917900  -23.860800  -110.311000
  C     45.047600  -23.010200  -110.317000
  C     45.127500  -22.246100  -111.437000
  H     43.606100  -24.567100  -109.553000
  C     46.163100  -23.062300  -109.285000
  H     45.679600  -23.095700  -108.278000
  H     46.697600  -22.089100  -109.320000
  C     47.179400  -24.215400  -109.453000
  H     46.577200  -25.113900  -109.386000
  H     48.055300  -24.143700  -108.751000
  C     48.044700  -24.309600  -110.745000
  H     47.441200  -25.015000  -111.275000
  H     49.025200  -24.754400  -110.532000
  H     48.200600  -23.386700  -111.263000
  H     48.455800  -19.468900  -113.878000
  H     42.159800  -24.173600  -111.590000

 Total Charge           Charge          ....    0
 Multiplicity           Mult            ....    1
 Number of Electrons    NEL             ....  134
 Basis Dimension        Dim             ....  322

ORBITAL ENERGIES
----------------

  NO   OCC          E(Eh)            E(eV)
   0   2.0000     -88.971655     -2421.0418
   1   2.0000     -88.963874     -2420.8301
   2   2.0000     -10.328759      -281.0598
   3   2.0000     -10.324440      -280.9423
   4   2.0000     -10.321825      -280.8711
   5   2.0000     -10.316409      -280.7238
   6   2.0000     -10.307812      -280.4898
   7   2.0000     -10.302202      -280.3372
   8   2.0000     -10.297061      -280.1973
   9   2.0000     -10.296806      -280.1903
  10   2.0000     -10.295854      -280.1644
  11   2.0000     -10.291304      -280.0406
  12   2.0000     -10.290876      -280.0290
  13   2.0000     -10.287108      -279.9264
  14   2.0000     -10.267109      -279.3822
  15   2.0000     -10.266922      -279.3772
  16   2.0000      -8.086061      -220.0329
  17   2.0000      -8.078180      -219.8185
  18   2.0000      -6.044539      -164.4803
  19   2.0000      -6.040610      -164.3734
  20   2.0000      -6.036863      -164.2714
  21   2.0000      -6.036668      -164.2661
  22   2.0000      -6.032963      -164.1653
  23   2.0000      -6.028761      -164.0509
  24   2.0000      -1.009528       -27.4707
  25   2.0000      -0.981195       -26.6997
  26   2.0000      -0.908751       -24.7284
  27   2.0000      -0.901782       -24.5387
  28   2.0000      -0.871565       -23.7165
  29   2.0000      -0.849741       -23.1226
  30   2.0000      -0.843270       -22.9465
  31   2.0000      -0.813839       -22.1457
  32   2.0000      -0.788435       -21.4544
  33   2.0000      -0.775050       -21.0902
  34   2.0000      -0.703734       -19.1496
  35   2.0000      -0.702736       -19.1224
  36   2.0000      -0.686330       -18.6760
  37   2.0000      -0.665204       -18.1011
  38   2.0000      -0.643357       -17.5066
  39   2.0000      -0.615739       -16.7551
  40   2.0000      -0.594524       -16.1778
  41   2.0000      -0.569503       -15.4970
  42   2.0000      -0.555421       -15.1138
  43   2.0000      -0.548332       -14.9209
  44   2.0000      -0.544016       -14.8034
  45   2.0000      -0.536919       -14.6103
  46   2.0000      -0.521521       -14.1913
  47   2.0000      -0.514940       -14.0122
  48   2.0000      -0.500894       -13.6300
  49   2.0000      -0.497340       -13.5333
  50   2.0000      -0.489876       -13.3302
  51   2.0000      -0.480637       -13.0788
  52   2.0000      -0.477253       -12.9867
  53   2.0000      -0.467340       -12.7170
  54   2.0000      -0.460158       -12.5215
  55   2.0000      -0.447888       -12.1876
  56   2.0000      -0.441285       -12.0080
  57   2.0000      -0.434762       -11.8305
  58   2.0000      -0.433110       -11.7855
  59   2.0000      -0.426589       -11.6081
  60   2.0000      -0.420652       -11.4465
  61   2.0000      -0.413948       -11.2641
  62   2.0000      -0.391134       -10.6433
  63   2.0000      -0.348882        -9.4936
  64   2.0000      -0.335200        -9.1213
  65   2.0000      -0.332600        -9.0505
  66   2.0000      -0.290212        -7.8971
  67   0.0000       0.029003         0.7892
  68   0.0000       0.064279         1.7491
  69   0.0000       0.098872         2.6904
  70   0.0000       0.119448         3.2504
  71   0.0000       0.128306         3.4914

MULLIKEN ATOMIC CHARGES
-----------------------
   0 S :    0.122845
   1 C :   -0.129191
   2 C :   -0.085204
   3 C :    0.049152
   4 C :   -0.150014
   5 H :   -0.016464
   6 C :    0.060717
   7 H :    0.027369
   8 H :    0.025883
   9 C :   -0.092019
  10 H :    0.033606
  11 H :    0.034703
  12 C :    0.003490
  13 H :   -0.005841
  14 H :    0.025454
  15 H :    0.044852
  16 S :    0.080965
  17 C :   -0.091631
  18 C :   -0.039154
  19 C :   -0.030512
  20 C :   -0.156331
  21 H :    0.023106
  22 C :    0.081109
  23 H :    0.031621
  24 H :    0.017338
  25 C :   -0.094478
  26 H :    0.025347
  27 H :    0.041732
  28 C :   -0.044489
  29 H :    0.029850
  30 H :    0.033006
  31 H :    0.038509
  32 H :    0.045564
  33 H :    0.059111
Sum of atomic charges:   -0.0000000

LOEWDIN ATOMIC CHARGES
----------------------
   0 S :    0.416002
   1 C :   -0.194837
   2 C :   -0.053961
   3 C :   -0.062931
   4 C :   -0.207536
   5 H :    0.014976
   6 C :   -0.028674
   7 H :    0.027909
   8 H :    0.031373
   9 C :   -0.038722
  10 H :    0.028505
  11 H :    0.023697
  12 C :   -0.056985
  13 H :    0.007272
  14 H :    0.022616
  15 H :    0.034231
  16 S :    0.370189
  17 C :   -0.160358
  18 C :   -0.068443
  19 C :   -0.063985
  20 C :   -0.181262
  21 H :    0.035449
  22 C :   -0.034074
  23 H :    0.034750
  24 H :    0.029611
  25 C :   -0.043120
  26 H :    0.019811
  27 H :    0.032662
  28 C :   -0.063256
  29 H :    0.024793
  30 H :    0.026899
  31 H :    0.020830
  32 H :    0.028540
  33 H :    0.028029

  Mayer bond orders larger than 0.100000
B(  0-S ,  1-C ) :   1.1202 B(  0-S ,  4-C ) :   1.1659 B(  1-C ,  2-C ) :   1.6314
B(  1-C , 32-H ) :   0.9681 B(  2-C ,  3-C ) :   1.2345 B(  2-C ,  6-C ) :   1.0058
B(  3-C ,  4-C ) :   1.5578 B(  3-C ,  5-H ) :   1.0023 B(  4-C , 20-C ) :   1.0277
B(  6-C ,  7-H ) :   0.9469 B(  6-C ,  8-H ) :   0.9469 B(  6-C ,  9-C ) :   1.0699
B(  9-C , 10-H ) :   0.9566 B(  9-C , 11-H ) :   0.9593 B(  9-C , 12-C ) :   1.0746
B( 12-C , 13-H ) :   0.9724 B( 12-C , 14-H ) :   0.9689 B( 12-C , 15-H ) :   0.9727
B( 16-S , 17-C ) :   1.1311 B( 16-S , 20-C ) :   1.1248 B( 17-C , 18-C ) :   1.6401
B( 17-C , 20-C ) :   0.1043 B( 17-C , 33-H ) :   0.9682 B( 18-C , 19-C ) :   1.1955
B( 18-C , 21-H ) :   0.9927 B( 19-C , 20-C ) :   1.6421 B( 19-C , 22-C ) :   1.0373
B( 22-C , 23-H ) :   0.9310 B( 22-C , 24-H ) :   0.9321 B( 22-C , 25-C ) :   1.0722
B( 25-C , 26-H ) :   0.9668 B( 25-C , 27-H ) :   0.9658 B( 25-C , 28-C ) :   1.0459
B( 28-C , 29-H ) :   0.9824 B( 28-C , 30-H ) :   0.9827 B( 28-C , 31-H ) :   0.9768

Dispersion correction           -0.015877585
FINAL SINGLE POINT ENERGY     -1339.864563288537

DIPOLE MOMENT
-------------
                                X             Y             Z
Electronic contribution:    -18.14119      -4.43461     -18.23578
Nuclear contribution   :     18.35075       4.56207      18.70979
                        -----------------------------------------
Total Dipole Moment    :      0.20956       0.12745       0.47401
                        -----------------------------------------
Magnitude (a.u.)       :      0.53371
Magnitude (Debye)      :      1.35658

Rotational constants in cm-1:     0.019940     0.009481     0.007919
Rotational constants in MHz :   597.778912   284.247658   237.397319

                             ****ORCA TERMINATED NORMALLY****
TOTAL RUN TIME: 0 days 0 hours 0 minutes 22 seconds 821 msec
