                         Program Version 4.2.1 -  RELEASE  -
|  1> ! wB97X-D3 SP def2-SVP
|  2> %pal
|  3> nprocs 24
|  4> end
|  5>
|  6> * xyz 0 1
|  7> S 	 -95.0663 	 47.2591 	 -90.5682
|  8> C 	 -94.3658 	 46.1397 	 -89.4465
|  9> C 	 -95.3777 	 45.3579 	 -88.8277
| 10> C 	 -96.6945 	 45.7284 	 -89.2101
| 11> C 	 -96.7116 	 46.7687 	 -90.0968
| 12> H 	 -97.5955 	 45.2191 	 -88.8881
| 13> C 	 -95.1722 	 44.1816 	 -87.8294
| 14> H 	 -96.0832 	 43.8822 	 -87.449
| 15> H 	 -94.5976 	 44.725 	 -87.0702
| 16> C 	 -94.1616 	 43.0687 	 -88.2121
| 17> H 	 -93.2736 	 43.6133 	 -88.6255
| 18> H 	 -93.8033 	 42.4188 	 -87.3335
| 19> C 	 -94.7962 	 42.1778 	 -89.3001
| 20> H 	 -94.1944 	 41.2531 	 -89.3717
| 21> H 	 -95.8123 	 41.8521 	 -88.8585
| 22> H 	 -94.9646 	 42.6702 	 -90.2518
| 23> S 	 -99.4616 	 47.1256 	 -89.9069
| 24> C 	 -100.37 	 47.9352 	 -91.1728
| 25> C 	 -99.5195 	 48.1469 	 -92.2462
| 26> C 	 -98.1314 	 47.8705 	 -92.0087
| 27> C 	 -97.8952 	 47.2602 	 -90.7845
| 28> H 	 -99.9761 	 48.4871 	 -93.193
| 29> C 	 -97.0404 	 48.1193 	 -93.0997
| 30> H 	 -96.1216 	 48.5045 	 -92.6653
| 31> H 	 -97.4151 	 48.9625 	 -93.7089
| 32> C 	 -96.6231 	 46.948 	 -93.9912
| 33> H 	 -97.4865 	 46.535 	 -94.58
| 34> H 	 -96.3407 	 46.1824 	 -93.4085
| 35> C 	 -95.5574 	 47.2344 	 -95.0583
| 36> H 	 -95.8619 	 48.113 	 -95.6288
| 37> H 	 -95.3896 	 46.4524 	 -95.7989
| 38> H 	 -94.5285 	 47.4209 	 -94.6881
| 39> H 	 -93.3142 	 46.0119 	 -89.1948
| 40> H 	 -101.407 	 47.9753 	 -91.1899
| 41> *
| 42>
| 43>                          ****END OF INPUT****

CARTESIAN COORDINATES (ANGSTROEM)
---------------------------------
  S    -95.066300   47.259100  -90.568200
  C    -94.365800   46.139700  -89.446500
  C    -95.377700   45.357900  -88.827700
  C    -96.694500   45.728400  -89.210100
  C    -96.711600   46.768700  -90.096800
  H    -97.595500   45.219100  -88.888100
  C    -95.172200   44.181600  -87.829400
  H    -96.083200   43.882200  -87.449000
  H    -94.597600   44.725000  -87.070200
  C    -94.161600   43.068700  -88.212100
  H    -93.273600   43.613300  -88.625500
  H    -93.803300   42.418800  -87.333500
  C    -94.796200   42.177800  -89.300100
  H    -94.194400   41.253100  -89.371700
  H    -95.812300   41.852100  -88.858500
  H    -94.964600   42.670200  -90.251800
  S    -99.461600   47.125600  -89.906900
  C    -100.370000   47.935200  -91.172800
  C    -99.519500   48.146900  -92.246200
  C    -98.131400   47.870500  -92.008700
  C    -97.895200   47.260200  -90.784500
  H    -99.976100   48.487100  -93.193000
  C    -97.040400   48.119300  -93.099700
  H    -96.121600   48.504500  -92.665300
  H    -97.415100   48.962500  -93.708900
  C    -96.623100   46.948000  -93.991200
  H    -97.486500   46.535000  -94.580000
  H    -96.340700   46.182400  -93.408500
  C    -95.557400   47.234400  -95.058300
  H    -95.861900   48.113000  -95.628800
  H    -95.389600   46.452400  -95.798900
  H    -94.528500   47.420900  -94.688100
  H    -93.314200   46.011900  -89.194800
  H    -101.407000   47.975300  -91.189900

 Total Charge           Charge          ....    0
 Multiplicity           Mult            ....    1
 Number of Electrons    NEL             ....  134
 Basis Dimension        Dim             ....  322

ORBITAL ENERGIES
----------------

  NO   OCC          E(Eh)            E(eV)
   0   2.0000     -88.975089     -2421.1353
   1   2.0000     -88.963595     -2420.8225
   2   2.0000     -10.335396      -281.2404
   3   2.0000     -10.334702      -281.2215
   4   2.0000     -10.319449      -280.8065
   5   2.0000     -10.316505      -280.7264
   6   2.0000     -10.309678      -280.5406
   7   2.0000     -10.308957      -280.5210
   8   2.0000     -10.299844      -280.2730
   9   2.0000     -10.299796      -280.2717
  10   2.0000     -10.295745      -280.1615
  11   2.0000     -10.295269      -280.1485
  12   2.0000     -10.290605      -280.0216
  13   2.0000     -10.282685      -279.8061
  14   2.0000     -10.278369      -279.6886
  15   2.0000     -10.277785      -279.6727
  16   2.0000      -8.088557      -220.1008
  17   2.0000      -8.077576      -219.8020
  18   2.0000      -6.047220      -164.5532
  19   2.0000      -6.043203      -164.4439
  20   2.0000      -6.039282      -164.3372
  21   2.0000      -6.036276      -164.2554
  22   2.0000      -6.032177      -164.1439
  23   2.0000      -6.028198      -164.0356
  24   2.0000      -1.005504       -27.3611
  25   2.0000      -0.981313       -26.7029
  26   2.0000      -0.908795       -24.7296
  27   2.0000      -0.903730       -24.5918
  28   2.0000      -0.871355       -23.7108
  29   2.0000      -0.853487       -23.2246
  30   2.0000      -0.843503       -22.9529
  31   2.0000      -0.810977       -22.0678
  32   2.0000      -0.781300       -21.2603
  33   2.0000      -0.772023       -21.0078
  34   2.0000      -0.709977       -19.3194
  35   2.0000      -0.699513       -19.0347
  36   2.0000      -0.695047       -18.9132
  37   2.0000      -0.666780       -18.1440
  38   2.0000      -0.638852       -17.3840
  39   2.0000      -0.611230       -16.6324
  40   2.0000      -0.594623       -16.1805
  41   2.0000      -0.575618       -15.6634
  42   2.0000      -0.562547       -15.3077
  43   2.0000      -0.549740       -14.9592
  44   2.0000      -0.546093       -14.8600
  45   2.0000      -0.519385       -14.1332
  46   2.0000      -0.514724       -14.0064
  47   2.0000      -0.512906       -13.9569
  48   2.0000      -0.510116       -13.8810
  49   2.0000      -0.493681       -13.4337
  50   2.0000      -0.491679       -13.3793
  51   2.0000      -0.479847       -13.0573
  52   2.0000      -0.476030       -12.9534
  53   2.0000      -0.466926       -12.7057
  54   2.0000      -0.463215       -12.6047
  55   2.0000      -0.446887       -12.1604
  56   2.0000      -0.442293       -12.0354
  57   2.0000      -0.433244       -11.7892
  58   2.0000      -0.429785       -11.6951
  59   2.0000      -0.426510       -11.6059
  60   2.0000      -0.416356       -11.3296
  61   2.0000      -0.413340       -11.2476
  62   2.0000      -0.408155       -11.1065
  63   2.0000      -0.364696        -9.9239
  64   2.0000      -0.333263        -9.0685
  65   2.0000      -0.329543        -8.9673
  66   2.0000      -0.282047        -7.6749
  67   0.0000       0.015285         0.4159
  68   0.0000       0.078319         2.1312
  69   0.0000       0.108498         2.9524
  70   0.0000       0.112072         3.0496
  71   0.0000       0.123937         3.3725

MULLIKEN ATOMIC CHARGES
-----------------------
   0 S :    0.106675
   1 C :   -0.121428
   2 C :   -0.112336
   3 C :   -0.017197
   4 C :   -0.087931
   5 H :    0.025014
   6 C :    0.099574
   7 H :    0.002750
   8 H :    0.036366
   9 C :   -0.102006
  10 H :    0.029211
  11 H :    0.050520
  12 C :   -0.068648
  13 H :    0.039005
  14 H :    0.028133
  15 H :    0.054389
  16 S :    0.068082
  17 C :   -0.060884
  18 C :   -0.049727
  19 C :   -0.059310
  20 C :   -0.119203
  21 H :    0.031288
  22 C :    0.038230
  23 H :    0.028572
  24 H :    0.020019
  25 C :   -0.003567
  26 H :    0.024652
  27 H :   -0.001511
  28 C :   -0.064468
  29 H :    0.024637
  30 H :    0.033088
  31 H :    0.030716
  32 H :    0.054977
  33 H :    0.042319
Sum of atomic charges:    0.0000000

LOEWDIN ATOMIC CHARGES
----------------------
   0 S :    0.421675
   1 C :   -0.217426
   2 C :   -0.052507
   3 C :   -0.068409
   4 C :   -0.177278
   5 H :    0.031988
   6 C :   -0.027314
   7 H :    0.013838
   8 H :    0.041006
   9 C :   -0.046694
  10 H :    0.024119
  11 H :    0.034780
  12 C :   -0.073263
  13 H :    0.025891
  14 H :    0.029906
  15 H :    0.027182
  16 S :    0.379800
  17 C :   -0.173589
  18 C :   -0.069417
  19 C :   -0.064581
  20 C :   -0.168839
  21 H :    0.036261
  22 C :   -0.034139
  23 H :    0.018323
  24 H :    0.031343
  25 C :   -0.035106
  26 H :    0.030769
  27 H :    0.004634
  28 C :   -0.068919
  29 H :    0.023730
  30 H :    0.027931
  31 H :    0.024961
  32 H :    0.031067
  33 H :    0.018277

  Mayer bond orders larger than 0.100000
B(  0-S ,  1-C ) :   1.1365 B(  0-S ,  4-C ) :   1.1445 B(  1-C ,  2-C ) :   1.5853
B(  1-C , 32-H ) :   0.9659 B(  2-C ,  3-C ) :   1.2733 B(  2-C ,  6-C ) :   1.0067
B(  3-C ,  4-C ) :   1.5358 B(  3-C ,  5-H ) :   0.9891 B(  4-C , 20-C ) :   1.0791
B(  6-C ,  7-H ) :   0.9526 B(  6-C ,  8-H ) :   0.9312 B(  6-C ,  9-C ) :   1.0641
B(  9-C , 10-H ) :   0.9516 B(  9-C , 11-H ) :   0.9570 B(  9-C , 12-C ) :   1.0680
B( 12-C , 13-H ) :   0.9761 B( 12-C , 14-H ) :   0.9754 B( 12-C , 15-H ) :   0.9764
B( 16-S , 17-C ) :   1.1423 B( 16-S , 20-C ) :   1.1283 B( 17-C , 18-C ) :   1.6156
B( 17-C , 33-H ) :   0.9750 B( 18-C , 19-C ) :   1.2422 B( 18-C , 21-H ) :   0.9836
B( 19-C , 20-C ) :   1.5838 B( 19-C , 22-C ) :   1.0366 B( 22-C , 23-H ) :   0.9376
B( 22-C , 24-H ) :   0.9294 B( 22-C , 25-C ) :   1.0620 B( 25-C , 26-H ) :   0.9516
B( 25-C , 27-H ) :   0.9516 B( 25-C , 28-C ) :   1.0802 B( 28-C , 29-H ) :   0.9753
B( 28-C , 30-H ) :   0.9749 B( 28-C , 31-H ) :   0.9746

Dispersion correction           -0.014197495
FINAL SINGLE POINT ENERGY     -1339.870956574241

DIPOLE MOMENT
-------------
                                X             Y             Z
Electronic contribution:    -12.03326      13.92435       8.77448
Nuclear contribution   :     12.16937     -14.29884      -8.92054
                        -----------------------------------------
Total Dipole Moment    :      0.13611      -0.37449      -0.14607
                        -----------------------------------------
Magnitude (a.u.)       :      0.42439
Magnitude (Debye)      :      1.07872

Rotational constants in cm-1:     0.018228     0.008741     0.006873
Rotational constants in MHz :   546.455189   262.047552   206.056882

                             ****ORCA TERMINATED NORMALLY****
TOTAL RUN TIME: 0 days 0 hours 0 minutes 23 seconds 229 msec
