                         Program Version 4.2.1 -  RELEASE  -
|  1> ! wB97X-D3 SP def2-SVP
|  2> %pal
|  3> nprocs 24
|  4> end
|  5>
|  6> * xyz 0 1
|  7> S 	 -64.3392 	 15.3443 	 -117.083
|  8> C 	 -64.1285 	 13.7911 	 -116.283
|  9> C 	 -62.9272 	 13.837 	 -115.545
| 10> C 	 -62.2767 	 15.12 	 -115.678
| 11> C 	 -62.9106 	 16.1111 	 -116.476
| 12> H 	 -61.334 	 15.4416 	 -115.171
| 13> C 	 -62.5229 	 12.7184 	 -114.676
| 14> H 	 -61.4923 	 12.3329 	 -114.912
| 15> H 	 -63.1648 	 11.8747 	 -114.767
| 16> C 	 -62.604 	 13.1473 	 -113.164
| 17> H 	 -61.8888 	 13.9755 	 -113.004
| 18> H 	 -63.6172 	 13.5159 	 -113.014
| 19> C 	 -62.4118 	 12.1323 	 -112.023
| 20> H 	 -63.3112 	 11.5492 	 -111.876
| 21> H 	 -61.5158 	 11.5568 	 -112.155
| 22> H 	 -62.2485 	 12.5454 	 -111.015
| 23> S 	 -62.4632 	 18.2972 	 -118.28
| 24> C 	 -61.8712 	 19.7251 	 -117.56
| 25> C 	 -61.9581 	 19.7523 	 -116.18
| 26> C 	 -62.3437 	 18.5006 	 -115.651
| 27> C 	 -62.546 	 17.5025 	 -116.613
| 28> H 	 -61.6973 	 20.603 	 -115.632
| 29> C 	 -62.3516 	 18.2317 	 -114.174
| 30> H 	 -61.3841 	 17.7294 	 -114.009
| 31> H 	 -63.0505 	 17.4284 	 -114.029
| 32> C 	 -62.691 	 19.3352 	 -113.182
| 33> H 	 -63.7191 	 19.6 	 -113.414
| 34> H 	 -61.9957 	 20.1634 	 -113.382
| 35> C 	 -62.6504 	 19.064 	 -111.726
| 36> H 	 -61.6403 	 18.9526 	 -111.331
| 37> H 	 -63.2646 	 18.1462 	 -111.537
| 38> H 	 -62.971 	 19.8895 	 -111.155
| 39> H 	 -64.8583 	 12.936 	 -116.384
| 40> H 	 -61.8205 	 20.7758 	 -117.974
| 41> *
| 42>
| 43>                          ****END OF INPUT****

CARTESIAN COORDINATES (ANGSTROEM)
---------------------------------
  S    -64.339200   15.344300  -117.083000
  C    -64.128500   13.791100  -116.283000
  C    -62.927200   13.837000  -115.545000
  C    -62.276700   15.120000  -115.678000
  C    -62.910600   16.111100  -116.476000
  H    -61.334000   15.441600  -115.171000
  C    -62.522900   12.718400  -114.676000
  H    -61.492300   12.332900  -114.912000
  H    -63.164800   11.874700  -114.767000
  C    -62.604000   13.147300  -113.164000
  H    -61.888800   13.975500  -113.004000
  H    -63.617200   13.515900  -113.014000
  C    -62.411800   12.132300  -112.023000
  H    -63.311200   11.549200  -111.876000
  H    -61.515800   11.556800  -112.155000
  H    -62.248500   12.545400  -111.015000
  S    -62.463200   18.297200  -118.280000
  C    -61.871200   19.725100  -117.560000
  C    -61.958100   19.752300  -116.180000
  C    -62.343700   18.500600  -115.651000
  C    -62.546000   17.502500  -116.613000
  H    -61.697300   20.603000  -115.632000
  C    -62.351600   18.231700  -114.174000
  H    -61.384100   17.729400  -114.009000
  H    -63.050500   17.428400  -114.029000
  C    -62.691000   19.335200  -113.182000
  H    -63.719100   19.600000  -113.414000
  H    -61.995700   20.163400  -113.382000
  C    -62.650400   19.064000  -111.726000
  H    -61.640300   18.952600  -111.331000
  H    -63.264600   18.146200  -111.537000
  H    -62.971000   19.889500  -111.155000
  H    -64.858300   12.936000  -116.384000
  H    -61.820500   20.775800  -117.974000

 Total Charge           Charge          ....    0
 Multiplicity           Mult            ....    1
 Number of Electrons    NEL             ....  134
 Basis Dimension        Dim             ....  322

ORBITAL ENERGIES
----------------

  NO   OCC          E(Eh)            E(eV)
   0   2.0000     -88.968949     -2420.9682
   1   2.0000     -88.964275     -2420.8410
   2   2.0000     -10.333953      -281.2011
   3   2.0000     -10.333649      -281.1929
   4   2.0000     -10.325489      -280.9708
   5   2.0000     -10.319626      -280.8113
   6   2.0000     -10.308179      -280.4998
   7   2.0000     -10.307720      -280.4873
   8   2.0000     -10.303337      -280.3680
   9   2.0000     -10.295423      -280.1527
  10   2.0000     -10.289365      -279.9879
  11   2.0000     -10.287470      -279.9363
  12   2.0000     -10.287386      -279.9340
  13   2.0000     -10.285948      -279.8949
  14   2.0000     -10.277779      -279.6726
  15   2.0000     -10.277334      -279.6605
  16   2.0000      -8.082915      -219.9473
  17   2.0000      -8.079041      -219.8419
  18   2.0000      -6.041401      -164.3949
  19   2.0000      -6.037668      -164.2933
  20   2.0000      -6.037569      -164.2906
  21   2.0000      -6.033589      -164.1823
  22   2.0000      -6.033203      -164.1718
  23   2.0000      -6.030083      -164.0869
  24   2.0000      -1.002525       -27.2801
  25   2.0000      -0.983183       -26.7538
  26   2.0000      -0.916617       -24.9424
  27   2.0000      -0.911291       -24.7975
  28   2.0000      -0.870794       -23.6955
  29   2.0000      -0.859130       -23.3781
  30   2.0000      -0.842844       -22.9350
  31   2.0000      -0.813369       -22.1329
  32   2.0000      -0.788594       -21.4587
  33   2.0000      -0.772713       -21.0266
  34   2.0000      -0.710059       -19.3217
  35   2.0000      -0.698987       -19.0204
  36   2.0000      -0.692508       -18.8441
  37   2.0000      -0.651478       -17.7276
  38   2.0000      -0.642611       -17.4863
  39   2.0000      -0.616691       -16.7810
  40   2.0000      -0.593911       -16.1611
  41   2.0000      -0.576497       -15.6873
  42   2.0000      -0.571496       -15.5512
  43   2.0000      -0.564145       -15.3512
  44   2.0000      -0.527148       -14.3444
  45   2.0000      -0.523283       -14.2393
  46   2.0000      -0.519374       -14.1329
  47   2.0000      -0.513865       -13.9830
  48   2.0000      -0.508293       -13.8313
  49   2.0000      -0.506204       -13.7745
  50   2.0000      -0.497161       -13.5284
  51   2.0000      -0.480561       -13.0767
  52   2.0000      -0.474140       -12.9020
  53   2.0000      -0.466562       -12.6958
  54   2.0000      -0.458725       -12.4825
  55   2.0000      -0.455291       -12.3891
  56   2.0000      -0.451084       -12.2746
  57   2.0000      -0.428158       -11.6508
  58   2.0000      -0.427032       -11.6201
  59   2.0000      -0.423162       -11.5148
  60   2.0000      -0.413961       -11.2644
  61   2.0000      -0.413145       -11.2422
  62   2.0000      -0.410350       -11.1662
  63   2.0000      -0.341707        -9.2983
  64   2.0000      -0.332849        -9.0573
  65   2.0000      -0.326413        -8.8821
  66   2.0000      -0.292685        -7.9644
  67   0.0000       0.022563         0.6140
  68   0.0000       0.060473         1.6455
  69   0.0000       0.112349         3.0572
  70   0.0000       0.121331         3.3016
  71   0.0000       0.126300         3.4368

MULLIKEN ATOMIC CHARGES
-----------------------
   0 S :    0.105930
   1 C :   -0.151569
   2 C :   -0.078866
   3 C :    0.000529
   4 C :   -0.156631
   5 H :    0.026853
   6 C :    0.097403
   7 H :    0.039919
   8 H :    0.004167
   9 C :   -0.120101
  10 H :    0.033773
  11 H :    0.029425
  12 C :   -0.031836
  13 H :    0.031125
  14 H :    0.024535
  15 H :    0.028312
  16 S :    0.112392
  17 C :   -0.068625
  18 C :   -0.064323
  19 C :   -0.002730
  20 C :   -0.182931
  21 H :    0.000287
  22 C :    0.055750
  23 H :    0.038520
  24 H :    0.022362
  25 C :   -0.081502
  26 H :    0.032321
  27 H :    0.027541
  28 C :   -0.014372
  29 H :    0.021686
  30 H :    0.037242
  31 H :    0.025164
  32 H :    0.082439
  33 H :    0.075812
Sum of atomic charges:   -0.0000000

LOEWDIN ATOMIC CHARGES
----------------------
   0 S :    0.414624
   1 C :   -0.203505
   2 C :   -0.067173
   3 C :   -0.067800
   4 C :   -0.211194
   5 H :    0.033934
   6 C :   -0.031186
   7 H :    0.036095
   8 H :    0.023603
   9 C :   -0.042024
  10 H :    0.022788
  11 H :    0.024792
  12 C :   -0.071571
  13 H :    0.024023
  14 H :    0.021002
  15 H :    0.031943
  16 S :    0.392116
  17 C :   -0.201972
  18 C :   -0.076718
  19 C :   -0.035443
  20 C :   -0.185100
  21 H :    0.021693
  22 C :   -0.038703
  23 H :    0.036024
  24 H :    0.028814
  25 C :   -0.044145
  26 H :    0.029252
  27 H :    0.022380
  28 C :   -0.061152
  29 H :    0.024523
  30 H :    0.032117
  31 H :    0.024387
  32 H :    0.045594
  33 H :    0.047982

  Mayer bond orders larger than 0.100000
B(  0-S ,  1-C ) :   1.1612 B(  0-S ,  4-C ) :   1.1614 B(  1-C ,  2-C ) :   1.5475
B(  1-C ,  4-C ) :   0.1048 B(  1-C , 32-H ) :   0.9636 B(  2-C ,  3-C ) :   1.2616
B(  2-C ,  6-C ) :   1.0596 B(  3-C ,  4-C ) :   1.5234 B(  3-C ,  5-H ) :   0.9889
B(  4-C , 20-C ) :   1.0938 B(  6-C ,  7-H ) :   0.9316 B(  6-C ,  8-H ) :   0.9380
B(  6-C ,  9-C ) :   1.0460 B(  9-C , 10-H ) :   0.9609 B(  9-C , 11-H ) :   0.9595
B(  9-C , 12-C ) :   1.0852 B( 12-C , 13-H ) :   0.9773 B( 12-C , 14-H ) :   0.9731
B( 12-C , 15-H ) :   0.9721 B( 16-S , 17-C ) :   1.1778 B( 16-S , 20-C ) :   1.1040
B( 17-C , 18-C ) :   1.6041 B( 17-C , 33-H ) :   0.9453 B( 18-C , 19-C ) :   1.2550
B( 18-C , 21-H ) :   0.9973 B( 19-C , 20-C ) :   1.5664 B( 19-C , 22-C ) :   1.0413
B( 22-C , 23-H ) :   0.9291 B( 22-C , 24-H ) :   0.9193 B( 22-C , 25-C ) :   1.0657
B( 25-C , 26-H ) :   0.9542 B( 25-C , 27-H ) :   0.9452 B( 25-C , 28-C ) :   1.1113
B( 28-C , 29-H ) :   0.9689 B( 28-C , 30-H ) :   0.9704 B( 28-C , 31-H ) :   0.9670

Dispersion correction           -0.013745447
FINAL SINGLE POINT ENERGY     -1339.863170368403

DIPOLE MOMENT
-------------
                                X             Y             Z
Electronic contribution:     -4.82093       6.74097     -31.95385
Nuclear contribution   :      4.92178      -6.71028      32.81628
                        -----------------------------------------
Total Dipole Moment    :      0.10086       0.03069       0.86243
                        -----------------------------------------
Magnitude (a.u.)       :      0.86885
Magnitude (Debye)      :      2.20844

Rotational constants in cm-1:     0.016361     0.008972     0.006286
Rotational constants in MHz :   490.493603   268.964057   188.448877

                             ****ORCA TERMINATED NORMALLY****
TOTAL RUN TIME: 0 days 0 hours 0 minutes 21 seconds 278 msec
