                         Program Version 4.2.1 -  RELEASE  -
|  1> ! wB97X-D3 SP def2-SVP
|  2> %pal
|  3> nprocs 24
|  4> end
|  5>
|  6> * xyz 0 1
|  7> S 	 -93.4124 	 14.8314 	 -116.889
|  8> C 	 -91.8729 	 14.4182 	 -116.204
|  9> C 	 -91.4691 	 13.1235 	 -116.642
| 10> C 	 -92.3895 	 12.5843 	 -117.592
| 11> C 	 -93.5905 	 13.2647 	 -117.741
| 12> H 	 -92.2428 	 11.6478 	 -117.921
| 13> C 	 -90.2969 	 12.367 	 -116.105
| 14> H 	 -89.6502 	 13.1164 	 -115.605
| 15> H 	 -89.743 	 11.7839 	 -116.812
| 16> C 	 -90.6753 	 11.4087 	 -114.98
| 17> H 	 -89.7563 	 11.1857 	 -114.5
| 18> H 	 -91.19 	 12.0392 	 -114.235
| 19> C 	 -91.3499 	 10.157 	 -115.499
| 20> H 	 -92.4295 	 10.338 	 -115.573
| 21> H 	 -90.7535 	 9.81853 	 -116.408
| 22> H 	 -91.2385 	 9.34807 	 -114.79
| 23> S 	 -96.3019 	 12.8516 	 -117.359
| 24> C 	 -97.2871 	 12.1635 	 -118.56
| 25> C 	 -96.5386 	 11.8501 	 -119.652
| 26> C 	 -95.1357 	 12.131 	 -119.5
| 27> C 	 -94.807 	 12.7605 	 -118.29
| 28> H 	 -96.9864 	 11.3392 	 -120.492
| 29> C 	 -94.0995 	 11.7634 	 -120.554
| 30> H 	 -94.5549 	 11.017 	 -121.208
| 31> H 	 -93.2621 	 11.2138 	 -120.012
| 32> C 	 -93.5324 	 12.9102 	 -121.374
| 33> H 	 -93.0941 	 13.6986 	 -120.679
| 34> H 	 -94.3602 	 13.4505 	 -121.842
| 35> C 	 -92.5303 	 12.4679 	 -122.416
| 36> H 	 -91.8279 	 11.8358 	 -121.892
| 37> H 	 -92.1652 	 13.3951 	 -123.012
| 38> H 	 -93.0163 	 11.8389 	 -123.138
| 39> H 	 -91.3879 	 15.0418 	 -115.447
| 40> H 	 -98.2706 	 11.8829 	 -118.321
| 41> *
| 42>
| 43>                          ****END OF INPUT****

CARTESIAN COORDINATES (ANGSTROEM)
---------------------------------
  S    -93.412400   14.831400  -116.889000
  C    -91.872900   14.418200  -116.204000
  C    -91.469100   13.123500  -116.642000
  C    -92.389500   12.584300  -117.592000
  C    -93.590500   13.264700  -117.741000
  H    -92.242800   11.647800  -117.921000
  C    -90.296900   12.367000  -116.105000
  H    -89.650200   13.116400  -115.605000
  H    -89.743000   11.783900  -116.812000
  C    -90.675300   11.408700  -114.980000
  H    -89.756300   11.185700  -114.500000
  H    -91.190000   12.039200  -114.235000
  C    -91.349900   10.157000  -115.499000
  H    -92.429500   10.338000  -115.573000
  H    -90.753500    9.818530  -116.408000
  H    -91.238500    9.348070  -114.790000
  S    -96.301900   12.851600  -117.359000
  C    -97.287100   12.163500  -118.560000
  C    -96.538600   11.850100  -119.652000
  C    -95.135700   12.131000  -119.500000
  C    -94.807000   12.760500  -118.290000
  H    -96.986400   11.339200  -120.492000
  C    -94.099500   11.763400  -120.554000
  H    -94.554900   11.017000  -121.208000
  H    -93.262100   11.213800  -120.012000
  C    -93.532400   12.910200  -121.374000
  H    -93.094100   13.698600  -120.679000
  H    -94.360200   13.450500  -121.842000
  C    -92.530300   12.467900  -122.416000
  H    -91.827900   11.835800  -121.892000
  H    -92.165200   13.395100  -123.012000
  H    -93.016300   11.838900  -123.138000
  H    -91.387900   15.041800  -115.447000
  H    -98.270600   11.882900  -118.321000

 Total Charge           Charge          ....    0
 Multiplicity           Mult            ....    1
 Number of Electrons    NEL             ....  134
 Basis Dimension        Dim             ....  322

ORBITAL ENERGIES
----------------

  NO   OCC          E(Eh)            E(eV)
   0   2.0000     -88.967273     -2420.9226
   1   2.0000     -88.961599     -2420.7682
   2   2.0000     -10.334183      -281.2074
   3   2.0000     -10.328088      -281.0416
   4   2.0000     -10.318808      -280.7890
   5   2.0000     -10.311368      -280.5866
   6   2.0000     -10.306151      -280.4446
   7   2.0000     -10.303653      -280.3767
   8   2.0000     -10.293917      -280.1117
   9   2.0000     -10.293503      -280.1004
  10   2.0000     -10.288597      -279.9670
  11   2.0000     -10.287299      -279.9316
  12   2.0000     -10.282810      -279.8095
  13   2.0000     -10.282399      -279.7983
  14   2.0000     -10.279966      -279.7321
  15   2.0000     -10.279226      -279.7120
  16   2.0000      -8.081337      -219.9044
  17   2.0000      -8.077365      -219.7963
  18   2.0000      -6.039920      -164.3546
  19   2.0000      -6.035795      -164.2423
  20   2.0000      -6.035731      -164.2406
  21   2.0000      -6.032257      -164.1461
  22   2.0000      -6.031507      -164.1257
  23   2.0000      -6.028344      -164.0396
  24   2.0000      -1.007727       -27.4216
  25   2.0000      -0.984470       -26.7888
  26   2.0000      -0.919145       -25.0112
  27   2.0000      -0.909471       -24.7480
  28   2.0000      -0.874583       -23.7986
  29   2.0000      -0.850926       -23.1549
  30   2.0000      -0.845285       -23.0014
  31   2.0000      -0.817462       -22.2443
  32   2.0000      -0.782188       -21.2844
  33   2.0000      -0.768838       -20.9211
  34   2.0000      -0.707534       -19.2530
  35   2.0000      -0.698190       -18.9987
  36   2.0000      -0.688626       -18.7385
  37   2.0000      -0.665263       -18.1027
  38   2.0000      -0.644699       -17.5432
  39   2.0000      -0.623114       -16.9558
  40   2.0000      -0.599029       -16.3004
  41   2.0000      -0.583264       -15.8714
  42   2.0000      -0.561853       -15.2888
  43   2.0000      -0.550429       -14.9779
  44   2.0000      -0.546044       -14.8586
  45   2.0000      -0.528102       -14.3704
  46   2.0000      -0.519656       -14.1406
  47   2.0000      -0.509792       -13.8722
  48   2.0000      -0.508263       -13.8305
  49   2.0000      -0.502012       -13.6604
  50   2.0000      -0.492843       -13.4110
  51   2.0000      -0.481147       -13.0927
  52   2.0000      -0.473074       -12.8730
  53   2.0000      -0.464455       -12.6385
  54   2.0000      -0.455690       -12.4000
  55   2.0000      -0.444962       -12.1080
  56   2.0000      -0.441356       -12.0099
  57   2.0000      -0.436377       -11.8744
  58   2.0000      -0.430351       -11.7105
  59   2.0000      -0.426236       -11.5985
  60   2.0000      -0.416412       -11.3312
  61   2.0000      -0.412369       -11.2211
  62   2.0000      -0.407312       -11.0835
  63   2.0000      -0.353045        -9.6068
  64   2.0000      -0.329268        -8.9598
  65   2.0000      -0.326629        -8.8880
  66   2.0000      -0.286524        -7.7967
  67   0.0000       0.023168         0.6304
  68   0.0000       0.068013         1.8507
  69   0.0000       0.113124         3.0783
  70   0.0000       0.121296         3.3006
  71   0.0000       0.138092         3.7577

MULLIKEN ATOMIC CHARGES
-----------------------
   0 S :    0.114285
   1 C :   -0.131488
   2 C :   -0.109267
   3 C :    0.100350
   4 C :   -0.148800
   5 H :   -0.044376
   6 C :    0.050114
   7 H :    0.020070
   8 H :    0.020313
   9 C :   -0.057923
  10 H :    0.014519
  11 H :    0.021853
  12 C :   -0.050320
  13 H :    0.060945
  14 H :    0.036361
  15 H :    0.028471
  16 S :    0.100708
  17 C :   -0.074578
  18 C :   -0.025439
  19 C :   -0.039545
  20 C :   -0.148584
  21 H :    0.016779
  22 C :    0.036747
  23 H :    0.011134
  24 H :    0.032241
  25 C :   -0.091986
  26 H :    0.047678
  27 H :    0.021845
  28 C :   -0.023181
  29 H :    0.026765
  30 H :    0.056328
  31 H :    0.017708
  32 H :    0.061436
  33 H :    0.048836
Sum of atomic charges:   -0.0000000

LOEWDIN ATOMIC CHARGES
----------------------
   0 S :    0.401711
   1 C :   -0.208791
   2 C :   -0.057354
   3 C :   -0.044841
   4 C :   -0.183525
   5 H :    0.006114
   6 C :   -0.031996
   7 H :    0.034621
   8 H :    0.022628
   9 C :   -0.040770
  10 H :    0.016771
  11 H :    0.025153
  12 C :   -0.070828
  13 H :    0.035446
  14 H :    0.034158
  15 H :    0.024991
  16 S :    0.424704
  17 C :   -0.189025
  18 C :   -0.076779
  19 C :   -0.051853
  20 C :   -0.199791
  21 H :    0.031256
  22 C :   -0.038320
  23 H :    0.026342
  24 H :    0.034063
  25 C :   -0.051021
  26 H :    0.032109
  27 H :    0.022008
  28 C :   -0.067009
  29 H :    0.023610
  30 H :    0.042982
  31 H :    0.018790
  32 H :    0.031726
  33 H :    0.022717

  Mayer bond orders larger than 0.100000
B(  0-S ,  1-C ) :   1.1521 B(  0-S ,  4-C ) :   1.1411 B(  1-C ,  2-C ) :   1.5632
B(  1-C ,  4-C ) :   0.1056 B(  1-C , 32-H ) :   0.9665 B(  2-C ,  3-C ) :   1.2894
B(  2-C ,  6-C ) :   1.0453 B(  3-C ,  4-C ) :   1.5231 B(  3-C ,  5-H ) :   0.9961
B(  4-C , 20-C ) :   1.0988 B(  6-C ,  7-H ) :   0.9333 B(  6-C ,  8-H ) :   0.9435
B(  6-C ,  9-C ) :   1.0793 B(  9-C , 10-H ) :   0.9547 B(  9-C , 11-H ) :   0.9496
B(  9-C , 12-C ) :   1.0763 B( 12-C , 13-H ) :   0.9699 B( 12-C , 14-H ) :   0.9688
B( 12-C , 15-H ) :   0.9712 B( 16-S , 17-C ) :   1.1854 B( 16-S , 20-C ) :   1.1416
B( 17-C , 18-C ) :   1.5557 B( 17-C , 33-H ) :   0.9755 B( 18-C , 19-C ) :   1.2777
B( 18-C , 21-H ) :   0.9947 B( 19-C , 20-C ) :   1.5483 B( 19-C , 22-C ) :   1.0449
B( 22-C , 23-H ) :   0.9313 B( 22-C , 24-H ) :   0.9324 B( 22-C , 25-C ) :   1.0659
B( 25-C , 26-H ) :   0.9530 B( 25-C , 27-H ) :   0.9495 B( 25-C , 28-C ) :   1.0813
B( 28-C , 29-H ) :   0.9724 B( 28-C , 30-H ) :   0.9704 B( 28-C , 31-H ) :   0.9725

Dispersion correction           -0.014676040
FINAL SINGLE POINT ENERGY     -1339.874067180418

DIPOLE MOMENT
-------------
                                X             Y             Z
Electronic contribution:    -17.74559      13.54509       8.16404
Nuclear contribution   :     18.02071     -14.12512      -8.18109
                        -----------------------------------------
Total Dipole Moment    :      0.27512      -0.58004      -0.01705
                        -----------------------------------------
Magnitude (a.u.)       :      0.64220
Magnitude (Debye)      :      1.63235

Rotational constants in cm-1:     0.016665     0.009311     0.007956
Rotational constants in MHz :   499.595186   279.130016   238.527169

                             ****ORCA TERMINATED NORMALLY****
TOTAL RUN TIME: 0 days 0 hours 0 minutes 21 seconds 614 msec
