                         Program Version 4.2.1 -  RELEASE  -
|  1> ! wB97X-D3 SP def2-SVP
|  2> %pal
|  3> nprocs 24
|  4> end
|  5>
|  6> * xyz 0 1
|  7> S 	 -50.2799 	 0.617067 	 -24.4812
|  8> C 	 -49.4114 	 0.908347 	 -23.0013
|  9> C 	 -50.2284 	 0.98155 	 -21.8652
| 10> C 	 -51.6023 	 1.02389 	 -22.2836
| 11> C 	 -51.7673 	 0.851381 	 -23.6292
| 12> H 	 -52.4564 	 1.15148 	 -21.6274
| 13> C 	 -49.8401 	 0.948799 	 -20.4353
| 14> H 	 -49.9036 	 1.93799 	 -20.0929
| 15> H 	 -48.782 	 0.746269 	 -20.4256
| 16> C 	 -50.577 	 -0.167263 	 -19.5812
| 17> H 	 -51.6101 	 0.0440972 	 -19.585
| 18> H 	 -50.4558 	 -1.11291 	 -20.0471
| 19> C 	 -50.1252 	 -0.0927017 	 -18.1198
| 20> H 	 -49.043 	 -0.424347 	 -18.0492
| 21> H 	 -50.2254 	 0.93589 	 -17.7105
| 22> H 	 -50.735 	 -0.799685 	 -17.5455
| 23> S 	 -52.933 	 1.76772 	 -26.0118
| 24> C 	 -54.6526 	 1.89605 	 -26.1709
| 25> C 	 -55.2984 	 1.54866 	 -25.0103
| 26> C 	 -54.4227 	 1.11125 	 -23.9644
| 27> C 	 -53.0528 	 1.087 	 -24.3235
| 28> H 	 -56.3978 	 1.61588 	 -25.0329
| 29> C 	 -55.0004 	 0.575499 	 -22.6564
| 30> H 	 -55.4229 	 1.46372 	 -22.1457
| 31> H 	 -54.2908 	 0.175059 	 -21.9372
| 32> C 	 -56.1469 	 -0.404548 	 -22.7446
| 33> H 	 -56.0536 	 -1.4482 	 -23.252
| 34> H 	 -56.8331 	 0.0409833 	 -23.4107
| 35> C 	 -56.9299 	 -0.575476 	 -21.4563
| 36> H 	 -57.198 	 0.318592 	 -20.8562
| 37> H 	 -56.2434 	 -1.06148 	 -20.733
| 38> H 	 -57.8294 	 -1.24813 	 -21.4561
| 39> H 	 -48.3831 	 0.843409 	 -22.9859
| 40> H 	 -55.1928 	 2.25124 	 -27.0635
| 41> *
| 42>
| 43>                          ****END OF INPUT****

CARTESIAN COORDINATES (ANGSTROEM)
---------------------------------
  S    -50.279900    0.617067  -24.481200
  C    -49.411400    0.908347  -23.001300
  C    -50.228400    0.981550  -21.865200
  C    -51.602300    1.023890  -22.283600
  C    -51.767300    0.851381  -23.629200
  H    -52.456400    1.151480  -21.627400
  C    -49.840100    0.948799  -20.435300
  H    -49.903600    1.937990  -20.092900
  H    -48.782000    0.746269  -20.425600
  C    -50.577000   -0.167263  -19.581200
  H    -51.610100    0.044097  -19.585000
  H    -50.455800   -1.112910  -20.047100
  C    -50.125200   -0.092702  -18.119800
  H    -49.043000   -0.424347  -18.049200
  H    -50.225400    0.935890  -17.710500
  H    -50.735000   -0.799685  -17.545500
  S    -52.933000    1.767720  -26.011800
  C    -54.652600    1.896050  -26.170900
  C    -55.298400    1.548660  -25.010300
  C    -54.422700    1.111250  -23.964400
  C    -53.052800    1.087000  -24.323500
  H    -56.397800    1.615880  -25.032900
  C    -55.000400    0.575499  -22.656400
  H    -55.422900    1.463720  -22.145700
  H    -54.290800    0.175059  -21.937200
  C    -56.146900   -0.404548  -22.744600
  H    -56.053600   -1.448200  -23.252000
  H    -56.833100    0.040983  -23.410700
  C    -56.929900   -0.575476  -21.456300
  H    -57.198000    0.318592  -20.856200
  H    -56.243400   -1.061480  -20.733000
  H    -57.829400   -1.248130  -21.456100
  H    -48.383100    0.843409  -22.985900
  H    -55.192800    2.251240  -27.063500

 Total Charge           Charge          ....    0
 Multiplicity           Mult            ....    1
 Number of Electrons    NEL             ....  134
 Basis Dimension        Dim             ....  322

ORBITAL ENERGIES
----------------

  NO   OCC          E(Eh)            E(eV)
   0   2.0000     -88.969013     -2420.9699
   1   2.0000     -88.961699     -2420.7709
   2   2.0000     -10.337178      -281.2889
   3   2.0000     -10.328872      -281.0629
   4   2.0000     -10.316780      -280.7339
   5   2.0000     -10.311490      -280.5899
   6   2.0000     -10.309230      -280.5284
   7   2.0000     -10.301717      -280.3240
   8   2.0000     -10.297004      -280.1957
   9   2.0000     -10.295293      -280.1492
  10   2.0000     -10.290251      -280.0120
  11   2.0000     -10.288754      -279.9712
  12   2.0000     -10.288592      -279.9668
  13   2.0000     -10.288377      -279.9610
  14   2.0000     -10.288311      -279.9592
  15   2.0000     -10.284403      -279.8528
  16   2.0000      -8.084185      -219.9819
  17   2.0000      -8.075815      -219.7541
  18   2.0000      -6.042684      -164.4298
  19   2.0000      -6.038810      -164.3244
  20   2.0000      -6.034771      -164.2145
  21   2.0000      -6.034394      -164.2042
  22   2.0000      -6.030399      -164.0955
  23   2.0000      -6.026545      -163.9906
  24   2.0000      -1.005186       -27.3525
  25   2.0000      -0.980724       -26.6869
  26   2.0000      -0.914919       -24.8962
  27   2.0000      -0.912242       -24.8234
  28   2.0000      -0.867913       -23.6171
  29   2.0000      -0.855724       -23.2854
  30   2.0000      -0.844261       -22.9735
  31   2.0000      -0.814909       -22.1748
  32   2.0000      -0.781768       -21.2730
  33   2.0000      -0.770831       -20.9754
  34   2.0000      -0.713077       -19.4038
  35   2.0000      -0.702212       -19.1082
  36   2.0000      -0.696064       -18.9409
  37   2.0000      -0.655411       -17.8347
  38   2.0000      -0.640749       -17.4357
  39   2.0000      -0.625683       -17.0257
  40   2.0000      -0.599979       -16.3263
  41   2.0000      -0.572224       -15.5710
  42   2.0000      -0.563165       -15.3245
  43   2.0000      -0.556730       -15.1494
  44   2.0000      -0.530739       -14.4421
  45   2.0000      -0.522647       -14.2219
  46   2.0000      -0.517523       -14.0825
  47   2.0000      -0.511040       -13.9061
  48   2.0000      -0.508047       -13.8247
  49   2.0000      -0.498574       -13.5669
  50   2.0000      -0.488346       -13.2886
  51   2.0000      -0.481401       -13.0996
  52   2.0000      -0.469492       -12.7755
  53   2.0000      -0.460670       -12.5355
  54   2.0000      -0.459179       -12.4949
  55   2.0000      -0.456584       -12.4243
  56   2.0000      -0.449767       -12.2388
  57   2.0000      -0.446446       -12.1484
  58   2.0000      -0.438479       -11.9316
  59   2.0000      -0.428212       -11.6522
  60   2.0000      -0.422593       -11.4994
  61   2.0000      -0.410806       -11.1786
  62   2.0000      -0.401919       -10.9368
  63   2.0000      -0.358172        -9.7464
  64   2.0000      -0.330941        -9.0054
  65   2.0000      -0.328130        -8.9289
  66   2.0000      -0.281963        -7.6726
  67   0.0000       0.023187         0.6309
  68   0.0000       0.083546         2.2734
  69   0.0000       0.098634         2.6840
  70   0.0000       0.117335         3.1929
  71   0.0000       0.134636         3.6636

MULLIKEN ATOMIC CHARGES
-----------------------
   0 S :    0.117987
   1 C :   -0.099159
   2 C :   -0.091275
   3 C :   -0.021777
   4 C :   -0.099108
   5 H :    0.012116
   6 C :    0.101343
   7 H :    0.025880
   8 H :    0.003942
   9 C :   -0.059756
  10 H :    0.019894
  11 H :    0.035101
  12 C :   -0.065721
  13 H :    0.041410
  14 H :    0.041937
  15 H :    0.039296
  16 S :    0.073284
  17 C :   -0.097635
  18 C :   -0.057453
  19 C :   -0.020529
  20 C :   -0.127120
  21 H :    0.034604
  22 C :    0.046963
  23 H :    0.032679
  24 H :    0.026450
  25 C :   -0.047400
  26 H :    0.049616
  27 H :    0.005262
  28 C :   -0.095824
  29 H :    0.029571
  30 H :    0.017607
  31 H :    0.046355
  32 H :    0.014401
  33 H :    0.067061
Sum of atomic charges:   -0.0000000

LOEWDIN ATOMIC CHARGES
----------------------
   0 S :    0.416495
   1 C :   -0.188580
   2 C :   -0.053564
   3 C :   -0.062031
   4 C :   -0.197355
   5 H :    0.028487
   6 C :   -0.028805
   7 H :    0.028214
   8 H :    0.028080
   9 C :   -0.026178
  10 H :    0.015938
  11 H :    0.024927
  12 C :   -0.067235
  13 H :    0.030674
  14 H :    0.029967
  15 H :    0.026818
  16 S :    0.374076
  17 C :   -0.191834
  18 C :   -0.081537
  19 C :   -0.058553
  20 C :   -0.165189
  21 H :    0.037510
  22 C :   -0.033628
  23 H :    0.040829
  24 H :    0.024816
  25 C :   -0.051941
  26 H :    0.041241
  27 H :    0.013007
  28 C :   -0.081077
  29 H :    0.025570
  30 H :    0.022710
  31 H :    0.033580
  32 H :    0.006695
  33 H :    0.037875

  Mayer bond orders larger than 0.100000
B(  0-S ,  1-C ) :   1.1377 B(  0-S ,  4-C ) :   1.1470 B(  1-C ,  2-C ) :   1.6033
B(  1-C , 32-H ) :   0.9752 B(  2-C ,  3-C ) :   1.2290 B(  2-C ,  6-C ) :   1.0326
B(  3-C ,  4-C ) :   1.5819 B(  3-C ,  5-H ) :   0.9865 B(  4-C , 20-C ) :   1.0543
B(  6-C ,  7-H ) :   0.9284 B(  6-C ,  8-H ) :   0.9340 B(  6-C ,  9-C ) :   1.0535
B(  9-C , 10-H ) :   0.9536 B(  9-C , 11-H ) :   0.9590 B(  9-C , 12-C ) :   1.0875
B( 12-C , 13-H ) :   0.9757 B( 12-C , 14-H ) :   0.9739 B( 12-C , 15-H ) :   0.9742
B( 16-S , 17-C ) :   1.1540 B( 16-S , 20-C ) :   1.1188 B( 17-C , 18-C ) :   1.6279
B( 17-C , 33-H ) :   0.9605 B( 18-C , 19-C ) :   1.2285 B( 18-C , 21-H ) :   0.9837
B( 19-C , 20-C ) :   1.5991 B( 19-C , 22-C ) :   1.0314 B( 22-C , 23-H ) :   0.9257
B( 22-C , 24-H ) :   0.9458 B( 22-C , 25-C ) :   1.0594 B( 25-C , 26-H ) :   0.9489
B( 25-C , 27-H ) :   0.9459 B( 25-C , 28-C ) :   1.0785 B( 28-C , 29-H ) :   0.9724
B( 28-C , 30-H ) :   0.9737 B( 28-C , 31-H ) :   0.9736

Dispersion correction           -0.013289669
FINAL SINGLE POINT ENERGY     -1339.868925808069

DIPOLE MOMENT
-------------
                                X             Y             Z
Electronic contribution:     10.83340       8.23699     -29.80975
Nuclear contribution   :    -11.12282      -8.30463      30.50656
                        -----------------------------------------
Total Dipole Moment    :     -0.28942      -0.06763       0.69680
                        -----------------------------------------
Magnitude (a.u.)       :      0.75754
Magnitude (Debye)      :      1.92552

Rotational constants in cm-1:     0.015844     0.009207     0.006063
Rotational constants in MHz :   474.988811   276.018866   181.760127

                             ****ORCA TERMINATED NORMALLY****
TOTAL RUN TIME: 0 days 0 hours 0 minutes 21 seconds 82 msec
