                         Program Version 4.2.1 -  RELEASE  -
|  1> ! wB97X-D3 SP def2-SVP
|  2> %pal
|  3> nprocs 24
|  4> end
|  5>
|  6> * xyz 0 1
|  7> S 	 -77.078 	 -4.40373 	 2.25552
|  8> C 	 -75.5202 	 -3.7606 	 2.53679
|  9> C 	 -75.3023 	 -3.47698 	 3.89437
| 10> C 	 -76.4498 	 -3.72275 	 4.73599
| 11> C 	 -77.5123 	 -4.09635 	 3.99951
| 12> H 	 -76.4889 	 -3.63525 	 5.862
| 13> C 	 -74.0204 	 -2.93176 	 4.45091
| 14> H 	 -73.3218 	 -2.63522 	 3.69382
| 15> H 	 -73.4337 	 -3.65662 	 5.05291
| 16> C 	 -74.1572 	 -1.66109 	 5.27642
| 17> H 	 -73.1872 	 -1.11444 	 5.40691
| 18> H 	 -74.821 	 -1.00223 	 4.82855
| 19> C 	 -74.5972 	 -1.85714 	 6.78319
| 20> H 	 -74.064 	 -1.30692 	 7.5278
| 21> H 	 -75.6267 	 -1.50684 	 6.85631
| 22> H 	 -74.6071 	 -2.96496 	 6.98196
| 23> S 	 -79.5558 	 -3.24417 	 5.68297
| 24> C 	 -80.9557 	 -4.22154 	 5.82084
| 25> C 	 -80.8594 	 -5.38167 	 5.1255
| 26> C 	 -79.6975 	 -5.49359 	 4.32812
| 27> C 	 -78.8631 	 -4.3695 	 4.48356
| 28> H 	 -81.6414 	 -6.11525 	 5.06018
| 29> C 	 -79.5358 	 -6.71837 	 3.43742
| 30> H 	 -79.8441 	 -7.62171 	 3.92532
| 31> H 	 -78.4081 	 -6.69142 	 3.36223
| 32> C 	 -80.2833 	 -6.34396 	 2.10173
| 33> H 	 -79.992 	 -5.40419 	 1.74568
| 34> H 	 -81.3693 	 -6.27324 	 2.29391
| 35> C 	 -79.8292 	 -7.23301 	 0.923352
| 36> H 	 -79.7742 	 -8.29162 	 1.07335
| 37> H 	 -78.7665 	 -7.03827 	 0.741036
| 38> H 	 -80.3486 	 -7.18575 	 -0.057511
| 39> H 	 -74.6452 	 -3.7135 	 1.81821
| 40> H 	 -81.8565 	 -3.99238 	 6.32958
| 41> *
| 42>
| 43>                          ****END OF INPUT****

CARTESIAN COORDINATES (ANGSTROEM)
---------------------------------
  S    -77.078000   -4.403730    2.255520
  C    -75.520200   -3.760600    2.536790
  C    -75.302300   -3.476980    3.894370
  C    -76.449800   -3.722750    4.735990
  C    -77.512300   -4.096350    3.999510
  H    -76.488900   -3.635250    5.862000
  C    -74.020400   -2.931760    4.450910
  H    -73.321800   -2.635220    3.693820
  H    -73.433700   -3.656620    5.052910
  C    -74.157200   -1.661090    5.276420
  H    -73.187200   -1.114440    5.406910
  H    -74.821000   -1.002230    4.828550
  C    -74.597200   -1.857140    6.783190
  H    -74.064000   -1.306920    7.527800
  H    -75.626700   -1.506840    6.856310
  H    -74.607100   -2.964960    6.981960
  S    -79.555800   -3.244170    5.682970
  C    -80.955700   -4.221540    5.820840
  C    -80.859400   -5.381670    5.125500
  C    -79.697500   -5.493590    4.328120
  C    -78.863100   -4.369500    4.483560
  H    -81.641400   -6.115250    5.060180
  C    -79.535800   -6.718370    3.437420
  H    -79.844100   -7.621710    3.925320
  H    -78.408100   -6.691420    3.362230
  C    -80.283300   -6.343960    2.101730
  H    -79.992000   -5.404190    1.745680
  H    -81.369300   -6.273240    2.293910
  C    -79.829200   -7.233010    0.923352
  H    -79.774200   -8.291620    1.073350
  H    -78.766500   -7.038270    0.741036
  H    -80.348600   -7.185750   -0.057511
  H    -74.645200   -3.713500    1.818210
  H    -81.856500   -3.992380    6.329580

 Total Charge           Charge          ....    0
 Multiplicity           Mult            ....    1
 Number of Electrons    NEL             ....  134
 Basis Dimension        Dim             ....  322

ORBITAL ENERGIES
----------------

  NO   OCC          E(Eh)            E(eV)
   0   2.0000     -88.970466     -2421.0095
   1   2.0000     -88.968594     -2420.9585
   2   2.0000     -10.333088      -281.1776
   3   2.0000     -10.328437      -281.0511
   4   2.0000     -10.318388      -280.7776
   5   2.0000     -10.310068      -280.5512
   6   2.0000     -10.303617      -280.3757
   7   2.0000     -10.301909      -280.3292
   8   2.0000     -10.298201      -280.2283
   9   2.0000     -10.297942      -280.2213
  10   2.0000     -10.290233      -280.0115
  11   2.0000     -10.289067      -279.9798
  12   2.0000     -10.284609      -279.8584
  13   2.0000     -10.281846      -279.7833
  14   2.0000     -10.277420      -279.6628
  15   2.0000     -10.273810      -279.5646
  16   2.0000      -8.084258      -219.9838
  17   2.0000      -8.083160      -219.9540
  18   2.0000      -6.042905      -164.4358
  19   2.0000      -6.041687      -164.4027
  20   2.0000      -6.039017      -164.3300
  21   2.0000      -6.037710      -164.2945
  22   2.0000      -6.034824      -164.2159
  23   2.0000      -6.033915      -164.1912
  24   2.0000      -1.006180       -27.3795
  25   2.0000      -0.985767       -26.8241
  26   2.0000      -0.910044       -24.7636
  27   2.0000      -0.907099       -24.6834
  28   2.0000      -0.872417       -23.7397
  29   2.0000      -0.849843       -23.1254
  30   2.0000      -0.843490       -22.9525
  31   2.0000      -0.815624       -22.1943
  32   2.0000      -0.783015       -21.3069
  33   2.0000      -0.766930       -20.8692
  34   2.0000      -0.709421       -19.3043
  35   2.0000      -0.700328       -19.0569
  36   2.0000      -0.691560       -18.8183
  37   2.0000      -0.667266       -18.1572
  38   2.0000      -0.634254       -17.2589
  39   2.0000      -0.621123       -16.9016
  40   2.0000      -0.594399       -16.1744
  41   2.0000      -0.569532       -15.4977
  42   2.0000      -0.563125       -15.3234
  43   2.0000      -0.543059       -14.7774
  44   2.0000      -0.536920       -14.6103
  45   2.0000      -0.523414       -14.2428
  46   2.0000      -0.513020       -13.9600
  47   2.0000      -0.511409       -13.9161
  48   2.0000      -0.505512       -13.7557
  49   2.0000      -0.499850       -13.6016
  50   2.0000      -0.491797       -13.3825
  51   2.0000      -0.487202       -13.2574
  52   2.0000      -0.469652       -12.7799
  53   2.0000      -0.464035       -12.6270
  54   2.0000      -0.457895       -12.4600
  55   2.0000      -0.448126       -12.1941
  56   2.0000      -0.438565       -11.9339
  57   2.0000      -0.435920       -11.8620
  58   2.0000      -0.434105       -11.8126
  59   2.0000      -0.422826       -11.5057
  60   2.0000      -0.422172       -11.4879
  61   2.0000      -0.415089       -11.2952
  62   2.0000      -0.404816       -11.0156
  63   2.0000      -0.358135        -9.7454
  64   2.0000      -0.334170        -9.0932
  65   2.0000      -0.326871        -8.8946
  66   2.0000      -0.286523        -7.7967
  67   0.0000       0.029093         0.7917
  68   0.0000       0.070680         1.9233
  69   0.0000       0.099673         2.7122
  70   0.0000       0.110806         3.0152
  71   0.0000       0.137316         3.7366

MULLIKEN ATOMIC CHARGES
-----------------------
   0 S :    0.103396
   1 C :   -0.118906
   2 C :   -0.092425
   3 C :   -0.007682
   4 C :   -0.133626
   5 H :    0.047666
   6 C :    0.071624
   7 H :    0.009177
   8 H :    0.038974
   9 C :   -0.089946
  10 H :    0.034832
  11 H :    0.022566
  12 C :   -0.079793
  13 H :    0.034309
  14 H :    0.032202
  15 H :    0.038204
  16 S :    0.114696
  17 C :   -0.059500
  18 C :   -0.023635
  19 C :   -0.071640
  20 C :   -0.168324
  21 H :    0.005860
  22 C :    0.055969
  23 H :    0.035537
  24 H :    0.038931
  25 C :   -0.029521
  26 H :    0.022648
  27 H :    0.036278
  28 C :   -0.051296
  29 H :    0.011645
  30 H :    0.021714
  31 H :    0.038912
  32 H :    0.070325
  33 H :    0.040829
Sum of atomic charges:   -0.0000000

LOEWDIN ATOMIC CHARGES
----------------------
   0 S :    0.395977
   1 C :   -0.222751
   2 C :   -0.062057
   3 C :   -0.071179
   4 C :   -0.164096
   5 H :    0.048210
   6 C :   -0.038315
   7 H :    0.029376
   8 H :    0.034695
   9 C :   -0.038744
  10 H :    0.030965
  11 H :    0.014647
  12 C :   -0.072978
  13 H :    0.021180
  14 H :    0.024425
  15 H :    0.025295
  16 S :    0.413450
  17 C :   -0.188946
  18 C :   -0.074642
  19 C :   -0.049128
  20 C :   -0.198232
  21 H :    0.026738
  22 C :   -0.026564
  23 H :    0.028993
  24 H :    0.032807
  25 C :   -0.029564
  26 H :    0.018106
  27 H :    0.027787
  28 C :   -0.078583
  29 H :    0.016731
  30 H :    0.026117
  31 H :    0.029683
  32 H :    0.044690
  33 H :    0.025910

  Mayer bond orders larger than 0.100000
B(  0-S ,  1-C ) :   1.1288 B(  0-S ,  4-C ) :   1.1178 B(  1-C ,  2-C ) :   1.6391
B(  1-C , 32-H ) :   0.9526 B(  2-C ,  3-C ) :   1.2082 B(  2-C ,  6-C ) :   1.0403
B(  3-C ,  4-C ) :   1.6193 B(  3-C ,  5-H ) :   0.9737 B(  4-C , 20-C ) :   1.0457
B(  6-C ,  7-H ) :   0.9365 B(  6-C ,  8-H ) :   0.9357 B(  6-C ,  9-C ) :   1.0739
B(  9-C , 10-H ) :   0.9636 B(  9-C , 11-H ) :   0.9633 B(  9-C , 12-C ) :   1.0494
B( 12-C , 13-H ) :   0.9764 B( 12-C , 14-H ) :   0.9788 B( 12-C , 15-H ) :   0.9773
B( 16-S , 17-C ) :   1.1597 B( 16-S , 20-C ) :   1.1349 B( 17-C , 18-C ) :   1.5999
B( 17-C , 33-H ) :   0.9673 B( 18-C , 19-C ) :   1.2686 B( 18-C , 21-H ) :   0.9866
B( 19-C , 20-C ) :   1.5625 B( 19-C , 22-C ) :   1.0285 B( 22-C , 23-H ) :   0.9407
B( 22-C , 24-H ) :   0.9334 B( 22-C , 25-C ) :   1.0455 B( 25-C , 26-H ) :   0.9578
B( 25-C , 27-H ) :   0.9602 B( 25-C , 28-C ) :   1.0614 B( 28-C , 29-H ) :   0.9743
B( 28-C , 30-H ) :   0.9743 B( 28-C , 31-H ) :   0.9764

Dispersion correction           -0.014967143
FINAL SINGLE POINT ENERGY     -1339.863270408185

DIPOLE MOMENT
-------------
                                X             Y             Z
Electronic contribution:     -7.97962       3.45080       1.07602
Nuclear contribution   :      8.09320      -3.61013      -0.96034
                        -----------------------------------------
Total Dipole Moment    :      0.11359      -0.15933       0.11568
                        -----------------------------------------
Magnitude (a.u.)       :      0.22731
Magnitude (Debye)      :      0.57778

Rotational constants in cm-1:     0.020455     0.009219     0.006688
Rotational constants in MHz :   613.230072   276.373977   200.508679

                             ****ORCA TERMINATED NORMALLY****
TOTAL RUN TIME: 0 days 0 hours 0 minutes 20 seconds 533 msec
