                         Program Version 4.2.1 -  RELEASE  -
|  1> ! wB97X-D3 SP def2-SVP
|  2> %pal
|  3> nprocs 24
|  4> end
|  5>
|  6> * xyz 0 1
|  7> S 	 -54.3908 	 13.7798 	 21.5927
|  8> C 	 -54.3736 	 12.6375 	 20.2913
|  9> C 	 -53.5661 	 11.5281 	 20.5365
| 10> C 	 -52.9456 	 11.596 	 21.8356
| 11> C 	 -53.2439 	 12.7683 	 22.461
| 12> H 	 -52.3063 	 10.8703 	 22.2817
| 13> C 	 -53.1982 	 10.5312 	 19.4781
| 14> H 	 -53.8319 	 10.6583 	 18.6146
| 15> H 	 -53.1751 	 9.55248 	 19.8569
| 16> C 	 -51.7846 	 10.9581 	 18.8265
| 17> H 	 -52.0258 	 11.9779 	 18.5485
| 18> H 	 -50.9696 	 11.01 	 19.5864
| 19> C 	 -51.4192 	 10.0877 	 17.6328
| 20> H 	 -50.4288 	 10.3312 	 17.2118
| 21> H 	 -51.3772 	 9.04972 	 17.8712
| 22> H 	 -52.0877 	 10.1903 	 16.7762
| 23> S 	 -53.8941 	 13.7952 	 24.9187
| 24> C 	 -52.6437 	 13.7219 	 26.1977
| 25> C 	 -51.4017 	 13.2875 	 25.7313
| 26> C 	 -51.417 	 12.9322 	 24.3718
| 27> C 	 -52.7382 	 13.1421 	 23.7651
| 28> H 	 -50.5572 	 13.2177 	 26.4053
| 29> C 	 -50.1359 	 12.4042 	 23.743
| 30> H 	 -50.415 	 11.6174 	 23.0337
| 31> H 	 -49.6449 	 11.8601 	 24.6157
| 32> C 	 -49.2095 	 13.5434 	 23.2108
| 33> H 	 -48.6481 	 13.8452 	 24.1394
| 34> H 	 -49.7864 	 14.4908 	 22.9453
| 35> C 	 -48.1782 	 13.0555 	 22.1033
| 36> H 	 -48.5921 	 12.669 	 21.2161
| 37> H 	 -47.4714 	 12.2429 	 22.3998
| 38> H 	 -47.534 	 13.8621 	 21.7774
| 39> H 	 -55.0176 	 12.6816 	 19.436
| 40> H 	 -52.7406 	 14.0653 	 27.1937
| 41> *
| 42>
| 43>                          ****END OF INPUT****

CARTESIAN COORDINATES (ANGSTROEM)
---------------------------------
  S    -54.390800   13.779800   21.592700
  C    -54.373600   12.637500   20.291300
  C    -53.566100   11.528100   20.536500
  C    -52.945600   11.596000   21.835600
  C    -53.243900   12.768300   22.461000
  H    -52.306300   10.870300   22.281700
  C    -53.198200   10.531200   19.478100
  H    -53.831900   10.658300   18.614600
  H    -53.175100    9.552480   19.856900
  C    -51.784600   10.958100   18.826500
  H    -52.025800   11.977900   18.548500
  H    -50.969600   11.010000   19.586400
  C    -51.419200   10.087700   17.632800
  H    -50.428800   10.331200   17.211800
  H    -51.377200    9.049720   17.871200
  H    -52.087700   10.190300   16.776200
  S    -53.894100   13.795200   24.918700
  C    -52.643700   13.721900   26.197700
  C    -51.401700   13.287500   25.731300
  C    -51.417000   12.932200   24.371800
  C    -52.738200   13.142100   23.765100
  H    -50.557200   13.217700   26.405300
  C    -50.135900   12.404200   23.743000
  H    -50.415000   11.617400   23.033700
  H    -49.644900   11.860100   24.615700
  C    -49.209500   13.543400   23.210800
  H    -48.648100   13.845200   24.139400
  H    -49.786400   14.490800   22.945300
  C    -48.178200   13.055500   22.103300
  H    -48.592100   12.669000   21.216100
  H    -47.471400   12.242900   22.399800
  H    -47.534000   13.862100   21.777400
  H    -55.017600   12.681600   19.436000
  H    -52.740600   14.065300   27.193700

 Total Charge           Charge          ....    0
 Multiplicity           Mult            ....    1
 Number of Electrons    NEL             ....  134
 Basis Dimension        Dim             ....  322

ORBITAL ENERGIES
----------------

  NO   OCC          E(Eh)            E(eV)
   0   2.0000     -88.971710     -2421.0433
   1   2.0000     -88.967227     -2420.9213
   2   2.0000     -10.331727      -281.1406
   3   2.0000     -10.326157      -280.9890
   4   2.0000     -10.317022      -280.7404
   5   2.0000     -10.309615      -280.5389
   6   2.0000     -10.308176      -280.4997
   7   2.0000     -10.303294      -280.3669
   8   2.0000     -10.300653      -280.2950
   9   2.0000     -10.299859      -280.2734
  10   2.0000     -10.293866      -280.1103
  11   2.0000     -10.292187      -280.0646
  12   2.0000     -10.290598      -280.0214
  13   2.0000     -10.289806      -279.9999
  14   2.0000     -10.280884      -279.7571
  15   2.0000     -10.278266      -279.6858
  16   2.0000      -8.085171      -220.0087
  17   2.0000      -8.082189      -219.9275
  18   2.0000      -6.043660      -164.4564
  19   2.0000      -6.040653      -164.3745
  20   2.0000      -6.039812      -164.3517
  21   2.0000      -6.036799      -164.2696
  22   2.0000      -6.036097      -164.2506
  23   2.0000      -6.032878      -164.1630
  24   2.0000      -1.003815       -27.3152
  25   2.0000      -0.976881       -26.5823
  26   2.0000      -0.908931       -24.7333
  27   2.0000      -0.898758       -24.4564
  28   2.0000      -0.867912       -23.6171
  29   2.0000      -0.852286       -23.1919
  30   2.0000      -0.843890       -22.9634
  31   2.0000      -0.813169       -22.1274
  32   2.0000      -0.781335       -21.2612
  33   2.0000      -0.765040       -20.8178
  34   2.0000      -0.709232       -19.2992
  35   2.0000      -0.699849       -19.0439
  36   2.0000      -0.693662       -18.8755
  37   2.0000      -0.661544       -18.0015
  38   2.0000      -0.642262       -17.4768
  39   2.0000      -0.622073       -16.9275
  40   2.0000      -0.587895       -15.9974
  41   2.0000      -0.572123       -15.5683
  42   2.0000      -0.557942       -15.1824
  43   2.0000      -0.547014       -14.8850
  44   2.0000      -0.521235       -14.1835
  45   2.0000      -0.519307       -14.1311
  46   2.0000      -0.516044       -14.0423
  47   2.0000      -0.508422       -13.8349
  48   2.0000      -0.498374       -13.5614
  49   2.0000      -0.496819       -13.5191
  50   2.0000      -0.494405       -13.4534
  51   2.0000      -0.483033       -13.1440
  52   2.0000      -0.474160       -12.9025
  53   2.0000      -0.464066       -12.6279
  54   2.0000      -0.458464       -12.4754
  55   2.0000      -0.454302       -12.3622
  56   2.0000      -0.443563       -12.0700
  57   2.0000      -0.441099       -12.0029
  58   2.0000      -0.433352       -11.7921
  59   2.0000      -0.428654       -11.6643
  60   2.0000      -0.425384       -11.5753
  61   2.0000      -0.418855       -11.3976
  62   2.0000      -0.410738       -11.1768
  63   2.0000      -0.351275        -9.5587
  64   2.0000      -0.335725        -9.1355
  65   2.0000      -0.324472        -8.8293
  66   2.0000      -0.279737        -7.6120
  67   0.0000       0.022081         0.6008
  68   0.0000       0.073547         2.0013
  69   0.0000       0.100120         2.7244
  70   0.0000       0.115116         3.1325
  71   0.0000       0.133315         3.6277

MULLIKEN ATOMIC CHARGES
-----------------------
   0 S :    0.113977
   1 C :   -0.111984
   2 C :   -0.090121
   3 C :    0.016252
   4 C :   -0.126081
   5 H :    0.009764
   6 C :    0.082083
   7 H :    0.012887
   8 H :    0.021041
   9 C :   -0.101974
  10 H :    0.028012
  11 H :    0.038597
  12 C :   -0.025085
  13 H :    0.032600
  14 H :    0.024938
  15 H :    0.028267
  16 S :    0.112383
  17 C :   -0.079733
  18 C :   -0.042205
  19 C :   -0.055640
  20 C :   -0.157447
  21 H :    0.021130
  22 C :    0.055538
  23 H :    0.015575
  24 H :    0.037757
  25 C :   -0.082640
  26 H :    0.034643
  27 H :    0.063723
  28 C :   -0.045886
  29 H :    0.025639
  30 H :    0.031257
  31 H :    0.031802
  32 H :    0.040335
  33 H :    0.040595
Sum of atomic charges:   -0.0000000

LOEWDIN ATOMIC CHARGES
----------------------
   0 S :    0.401659
   1 C :   -0.207089
   2 C :   -0.054853
   3 C :   -0.056284
   4 C :   -0.187877
   5 H :    0.028231
   6 C :   -0.021829
   7 H :    0.028134
   8 H :    0.019431
   9 C :   -0.034260
  10 H :    0.023445
  11 H :    0.023125
  12 C :   -0.070192
  13 H :    0.030365
  14 H :    0.021358
  15 H :    0.025745
  16 S :    0.399378
  17 C :   -0.174590
  18 C :   -0.069447
  19 C :   -0.054211
  20 C :   -0.200764
  21 H :    0.033378
  22 C :   -0.038523
  23 H :    0.023084
  24 H :    0.039156
  25 C :   -0.042402
  26 H :    0.030544
  27 H :    0.038248
  28 C :   -0.071745
  29 H :    0.017604
  30 H :    0.031092
  31 H :    0.026963
  32 H :    0.022978
  33 H :    0.020146

  Mayer bond orders larger than 0.100000
B(  0-S ,  1-C ) :   1.1254 B(  0-S ,  4-C ) :   1.1395 B(  1-C ,  2-C ) :   1.6222
B(  1-C , 32-H ) :   0.9656 B(  2-C ,  3-C ) :   1.2123 B(  2-C ,  6-C ) :   1.0595
B(  3-C ,  4-C ) :   1.5901 B(  3-C ,  5-H ) :   0.9969 B(  4-C , 20-C ) :   1.0663
B(  6-C ,  7-H ) :   0.9436 B(  6-C ,  8-H ) :   0.9372 B(  6-C ,  9-C ) :   1.0357
B(  9-C , 10-H ) :   0.9590 B(  9-C , 11-H ) :   0.9608 B(  9-C , 12-C ) :   1.0813
B( 12-C , 13-H ) :   0.9718 B( 12-C , 14-H ) :   0.9737 B( 12-C , 15-H ) :   0.9732
B( 16-S , 17-C ) :   1.1511 B( 16-S , 20-C ) :   1.1572 B( 17-C , 18-C ) :   1.5918
B( 17-C , 20-C ) :   0.1168 B( 17-C , 33-H ) :   0.9686 B( 18-C , 19-C ) :   1.2877
B( 18-C , 21-H ) :   0.9840 B( 19-C , 20-C ) :   1.5183 B( 19-C , 22-C ) :   1.0354
B( 22-C , 23-H ) :   0.9425 B( 22-C , 24-H ) :   0.9389 B( 22-C , 25-C ) :   1.0268
B( 25-C , 26-H ) :   0.9550 B( 25-C , 27-H ) :   0.9653 B( 25-C , 28-C ) :   1.0651
B( 28-C , 29-H ) :   0.9803 B( 28-C , 30-H ) :   0.9749 B( 28-C , 31-H ) :   0.9757

Dispersion correction           -0.014151082
FINAL SINGLE POINT ENERGY     -1339.872128037530

DIPOLE MOMENT
-------------
                                X             Y             Z
Electronic contribution:    -24.22662      12.39887      17.58163
Nuclear contribution   :     24.82596     -12.76475     -17.77110
                        -----------------------------------------
Total Dipole Moment    :      0.59935      -0.36588      -0.18947
                        -----------------------------------------
Magnitude (a.u.)       :      0.72731
Magnitude (Debye)      :      1.84868

Rotational constants in cm-1:     0.017409     0.009369     0.006675
Rotational constants in MHz :   521.910533   280.888665   200.108496

                             ****ORCA TERMINATED NORMALLY****
TOTAL RUN TIME: 0 days 0 hours 0 minutes 21 seconds 538 msec
