                         Program Version 4.2.1 -  RELEASE  -
|  1> ! wB97X-D3 SP def2-SVP
|  2> %pal
|  3> nprocs 24
|  4> end
|  5>
|  6> * xyz 0 1
|  7> S 	 -131.843 	 15.1981 	 -7.98336
|  8> C 	 -130.393 	 15.4278 	 -7.17175
|  9> C 	 -129.619 	 14.3102 	 -7.05452
| 10> C 	 -130.102 	 13.2789 	 -7.86873
| 11> C 	 -131.257 	 13.6537 	 -8.53103
| 12> H 	 -129.72 	 12.274 	 -7.97466
| 13> C 	 -128.376 	 14.2746 	 -6.23664
| 14> H 	 -128.568 	 13.747 	 -5.32269
| 15> H 	 -128.056 	 15.2603 	 -5.7748
| 16> C 	 -127.061 	 13.8521 	 -7.0302
| 17> H 	 -126.253 	 13.6781 	 -6.29902
| 18> H 	 -127.216 	 12.8593 	 -7.50021
| 19> C 	 -126.558 	 14.9281 	 -7.99228
| 20> H 	 -127.368 	 15.2022 	 -8.6054
| 21> H 	 -126.302 	 15.9094 	 -7.48132
| 22> H 	 -125.74 	 14.6212 	 -8.6186
| 23> S 	 -132.92 	 13.788 	 -10.7887
| 24> C 	 -133.551 	 12.317 	 -11.4838
| 25> C 	 -133.14 	 11.2049 	 -10.7832
| 26> C 	 -132.229 	 11.5322 	 -9.70173
| 27> C 	 -132.076 	 12.9218 	 -9.54383
| 28> H 	 -133.494 	 10.24 	 -11.0604
| 29> C 	 -131.64 	 10.3762 	 -8.9566
| 30> H 	 -132.49 	 9.57916 	 -9.01731
| 31> H 	 -131.375 	 10.8102 	 -7.97789
| 32> C 	 -130.286 	 9.71768 	 -9.40712
| 33> H 	 -129.562 	 10.5536 	 -9.33468
| 34> H 	 -130.341 	 9.38173 	 -10.4275
| 35> C 	 -129.832 	 8.57968 	 -8.55578
| 36> H 	 -129.65 	 8.78668 	 -7.54519
| 37> H 	 -129.053 	 7.94384 	 -8.93467
| 38> H 	 -130.604 	 7.8437 	 -8.67247
| 39> H 	 -130.165 	 16.3599 	 -6.6521
| 40> H 	 -134.412 	 12.2688 	 -12.164
| 41> *
| 42>
| 43>                          ****END OF INPUT****

CARTESIAN COORDINATES (ANGSTROEM)
---------------------------------
  S    -131.843000   15.198100   -7.983360
  C    -130.393000   15.427800   -7.171750
  C    -129.619000   14.310200   -7.054520
  C    -130.102000   13.278900   -7.868730
  C    -131.257000   13.653700   -8.531030
  H    -129.720000   12.274000   -7.974660
  C    -128.376000   14.274600   -6.236640
  H    -128.568000   13.747000   -5.322690
  H    -128.056000   15.260300   -5.774800
  C    -127.061000   13.852100   -7.030200
  H    -126.253000   13.678100   -6.299020
  H    -127.216000   12.859300   -7.500210
  C    -126.558000   14.928100   -7.992280
  H    -127.368000   15.202200   -8.605400
  H    -126.302000   15.909400   -7.481320
  H    -125.740000   14.621200   -8.618600
  S    -132.920000   13.788000  -10.788700
  C    -133.551000   12.317000  -11.483800
  C    -133.140000   11.204900  -10.783200
  C    -132.229000   11.532200   -9.701730
  C    -132.076000   12.921800   -9.543830
  H    -133.494000   10.240000  -11.060400
  C    -131.640000   10.376200   -8.956600
  H    -132.490000    9.579160   -9.017310
  H    -131.375000   10.810200   -7.977890
  C    -130.286000    9.717680   -9.407120
  H    -129.562000   10.553600   -9.334680
  H    -130.341000    9.381730  -10.427500
  C    -129.832000    8.579680   -8.555780
  H    -129.650000    8.786680   -7.545190
  H    -129.053000    7.943840   -8.934670
  H    -130.604000    7.843700   -8.672470
  H    -130.165000   16.359900   -6.652100
  H    -134.412000   12.268800  -12.164000

 Total Charge           Charge          ....    0
 Multiplicity           Mult            ....    1
 Number of Electrons    NEL             ....  134
 Basis Dimension        Dim             ....  322

ORBITAL ENERGIES
----------------

  NO   OCC          E(Eh)            E(eV)
   0   2.0000     -88.967289     -2420.9230
   1   2.0000     -88.967238     -2420.9216
   2   2.0000     -10.331569      -281.1363
   3   2.0000     -10.331210      -281.1265
   4   2.0000     -10.316039      -280.7137
   5   2.0000     -10.305209      -280.4190
   6   2.0000     -10.304068      -280.3879
   7   2.0000     -10.301663      -280.3225
   8   2.0000     -10.296467      -280.1811
   9   2.0000     -10.296285      -280.1762
  10   2.0000     -10.295311      -280.1497
  11   2.0000     -10.293247      -280.0935
  12   2.0000     -10.292259      -280.0666
  13   2.0000     -10.289992      -280.0049
  14   2.0000     -10.274418      -279.5811
  15   2.0000     -10.270601      -279.4773
  16   2.0000      -8.083767      -219.9705
  17   2.0000      -8.082140      -219.9262
  18   2.0000      -6.041896      -164.4083
  19   2.0000      -6.040741      -164.3769
  20   2.0000      -6.038205      -164.3079
  21   2.0000      -6.036541      -164.2626
  22   2.0000      -6.034646      -164.2111
  23   2.0000      -6.032882      -164.1631
  24   2.0000      -1.015889       -27.6438
  25   2.0000      -0.989889       -26.9363
  26   2.0000      -0.911919       -24.8146
  27   2.0000      -0.908034       -24.7088
  28   2.0000      -0.866836       -23.5878
  29   2.0000      -0.860628       -23.4189
  30   2.0000      -0.852692       -23.2029
  31   2.0000      -0.818711       -22.2783
  32   2.0000      -0.783800       -21.3283
  33   2.0000      -0.770479       -20.9658
  34   2.0000      -0.710024       -19.3207
  35   2.0000      -0.698343       -19.0029
  36   2.0000      -0.686666       -18.6851
  37   2.0000      -0.665653       -18.1133
  38   2.0000      -0.642448       -17.4819
  39   2.0000      -0.629457       -17.1284
  40   2.0000      -0.593402       -16.1473
  41   2.0000      -0.572344       -15.5743
  42   2.0000      -0.567529       -15.4432
  43   2.0000      -0.554353       -15.0847
  44   2.0000      -0.536601       -14.6017
  45   2.0000      -0.525891       -14.3102
  46   2.0000      -0.521505       -14.1909
  47   2.0000      -0.509842       -13.8735
  48   2.0000      -0.501495       -13.6464
  49   2.0000      -0.495071       -13.4716
  50   2.0000      -0.489743       -13.3266
  51   2.0000      -0.485720       -13.2171
  52   2.0000      -0.469854       -12.7854
  53   2.0000      -0.468674       -12.7533
  54   2.0000      -0.462476       -12.5846
  55   2.0000      -0.458730       -12.4827
  56   2.0000      -0.448746       -12.2110
  57   2.0000      -0.447695       -12.1824
  58   2.0000      -0.427523       -11.6335
  59   2.0000      -0.425465       -11.5775
  60   2.0000      -0.418804       -11.3962
  61   2.0000      -0.411293       -11.1919
  62   2.0000      -0.410370       -11.1667
  63   2.0000      -0.355214        -9.6659
  64   2.0000      -0.336156        -9.1473
  65   2.0000      -0.326846        -8.8939
  66   2.0000      -0.286699        -7.8015
  67   0.0000       0.024621         0.6700
  68   0.0000       0.081288         2.2120
  69   0.0000       0.108392         2.9495
  70   0.0000       0.120775         3.2865
  71   0.0000       0.124048         3.3755

MULLIKEN ATOMIC CHARGES
-----------------------
   0 S :    0.127205
   1 C :   -0.121091
   2 C :   -0.050867
   3 C :    0.017642
   4 C :   -0.151575
   5 H :   -0.013006
   6 C :    0.039596
   7 H :    0.035038
   8 H :    0.017809
   9 C :   -0.097056
  10 H :    0.029282
  11 H :    0.035542
  12 C :   -0.033472
  13 H :    0.025060
  14 H :    0.029755
  15 H :    0.039938
  16 S :    0.109125
  17 C :   -0.094587
  18 C :   -0.031530
  19 C :   -0.038196
  20 C :   -0.120102
  21 H :    0.008871
  22 C :   -0.002344
  23 H :    0.041656
  24 H :    0.025198
  25 C :   -0.046993
  26 H :    0.026755
  27 H :    0.020810
  28 C :    0.003901
  29 H :    0.025228
  30 H :    0.024284
  31 H :    0.006327
  32 H :    0.044450
  33 H :    0.067345
Sum of atomic charges:   -0.0000000

LOEWDIN ATOMIC CHARGES
----------------------
   0 S :    0.439154
   1 C :   -0.214741
   2 C :   -0.071291
   3 C :   -0.063401
   4 C :   -0.183368
   5 H :    0.027874
   6 C :   -0.035991
   7 H :    0.031355
   8 H :    0.035378
   9 C :   -0.041927
  10 H :    0.023777
  11 H :    0.022272
  12 C :   -0.066282
  13 H :    0.019952
  14 H :    0.031893
  15 H :    0.026430
  16 S :    0.412129
  17 C :   -0.195456
  18 C :   -0.064640
  19 C :   -0.061643
  20 C :   -0.207967
  21 H :    0.026133
  22 C :   -0.040692
  23 H :    0.041541
  24 H :    0.030060
  25 C :   -0.036303
  26 H :    0.019940
  27 H :    0.022428
  28 C :   -0.064458
  29 H :    0.018339
  30 H :    0.030744
  31 H :    0.026418
  32 H :    0.027107
  33 H :    0.035238

  Mayer bond orders larger than 0.100000
B(  0-S ,  1-C ) :   1.1592 B(  0-S ,  4-C ) :   1.1759 B(  1-C ,  2-C ) :   1.5899
B(  1-C , 32-H ) :   0.9644 B(  2-C ,  3-C ) :   1.2543 B(  2-C ,  6-C ) :   1.0300
B(  3-C ,  4-C ) :   1.5520 B(  3-C ,  5-H ) :   0.9937 B(  4-C , 20-C ) :   1.0344
B(  6-C ,  7-H ) :   0.9324 B(  6-C ,  8-H ) :   0.9458 B(  6-C ,  9-C ) :   1.0581
B(  9-C , 10-H ) :   0.9570 B(  9-C , 11-H ) :   0.9599 B(  9-C , 12-C ) :   1.0691
B( 12-C , 13-H ) :   0.9770 B( 12-C , 14-H ) :   0.9700 B( 12-C , 15-H ) :   0.9743
B( 16-S , 17-C ) :   1.1460 B( 16-S , 20-C ) :   1.1461 B( 17-C , 18-C ) :   1.6239
B( 17-C , 33-H ) :   0.9585 B( 18-C , 19-C ) :   1.2396 B( 18-C , 21-H ) :   0.9911
B( 19-C , 20-C ) :   1.5693 B( 19-C , 22-C ) :   1.0571 B( 22-C , 23-H ) :   0.9317
B( 22-C , 24-H ) :   0.9223 B( 22-C , 25-C ) :   1.0670 B( 25-C , 26-H ) :   0.9498
B( 25-C , 27-H ) :   0.9488 B( 25-C , 28-C ) :   1.0905 B( 28-C , 29-H ) :   0.9749
B( 28-C , 30-H ) :   0.9671 B( 28-C , 31-H ) :   0.9638

Dispersion correction           -0.014244121
FINAL SINGLE POINT ENERGY     -1339.869801680112

DIPOLE MOMENT
-------------
                                X             Y             Z
Electronic contribution:    -23.44052      16.01453      -7.88148
Nuclear contribution   :     23.72336     -16.49927       8.09845
                        -----------------------------------------
Total Dipole Moment    :      0.28284      -0.48474       0.21697
                        -----------------------------------------
Magnitude (a.u.)       :      0.60171
Magnitude (Debye)      :      1.52942

Rotational constants in cm-1:     0.016570     0.009766     0.006886
Rotational constants in MHz :   496.755380   292.780935   206.432117

                             ****ORCA TERMINATED NORMALLY****
TOTAL RUN TIME: 0 days 0 hours 0 minutes 21 seconds 889 msec
