                         Program Version 4.2.1 -  RELEASE  -
|  1> ! wB97X-D3 SP def2-SVP
|  2> %pal
|  3> nprocs 24
|  4> end
|  5>
|  6> * xyz 0 1
|  7> S 	 -108.305 	 53.8467 	 -95.7153
|  8> C 	 -107.069 	 52.9084 	 -94.8336
|  9> C 	 -106.189 	 52.3086 	 -95.7587
| 10> C 	 -106.449 	 52.6554 	 -97.0927
| 11> C 	 -107.633 	 53.3429 	 -97.2441
| 12> H 	 -105.939 	 52.4284 	 -97.9546
| 13> C 	 -105.143 	 51.3683 	 -95.292
| 14> H 	 -105.339 	 50.528 	 -95.9655
| 15> H 	 -105.277 	 51.0771 	 -94.2481
| 16> C 	 -103.702 	 51.7572 	 -95.5202
| 17> H 	 -103.077 	 50.8677 	 -95.4718
| 18> H 	 -103.673 	 52.1642 	 -96.6216
| 19> C 	 -103.292 	 52.7457 	 -94.3687
| 20> H 	 -102.417 	 53.4005 	 -94.5894
| 21> H 	 -104.118 	 53.4664 	 -94.2682
| 22> H 	 -103.161 	 52.2211 	 -93.3832
| 23> S 	 -108.719 	 55.4607 	 -98.5599
| 24> C 	 -109.307 	 55.3709 	 -100.155
| 25> C 	 -108.886 	 54.1494 	 -100.63
| 26> C 	 -108.29 	 53.2442 	 -99.7043
| 27> C 	 -108.101 	 53.8434 	 -98.4794
| 28> H 	 -109.199 	 53.9198 	 -101.586
| 29> C 	 -107.965 	 51.8045 	 -100.18
| 30> H 	 -107.223 	 51.3845 	 -99.5337
| 31> H 	 -107.49 	 51.9158 	 -101.145
| 32> C 	 -109.231 	 50.9263 	 -100.3
| 33> H 	 -110.029 	 51.5254 	 -100.733
| 34> H 	 -109.423 	 50.7764 	 -99.2574
| 35> C 	 -108.953 	 49.6225 	 -101.088
| 36> H 	 -108.525 	 48.9915 	 -100.403
| 37> H 	 -108.272 	 49.7497 	 -101.951
| 38> H 	 -109.888 	 49.1665 	 -101.45
| 39> H 	 -107.094 	 52.8053 	 -93.7271
| 40> H 	 -109.872 	 56.0683 	 -100.69
| 41> *
| 42>
| 43>                          ****END OF INPUT****

CARTESIAN COORDINATES (ANGSTROEM)
---------------------------------
  S    -108.305000   53.846700  -95.715300
  C    -107.069000   52.908400  -94.833600
  C    -106.189000   52.308600  -95.758700
  C    -106.449000   52.655400  -97.092700
  C    -107.633000   53.342900  -97.244100
  H    -105.939000   52.428400  -97.954600
  C    -105.143000   51.368300  -95.292000
  H    -105.339000   50.528000  -95.965500
  H    -105.277000   51.077100  -94.248100
  C    -103.702000   51.757200  -95.520200
  H    -103.077000   50.867700  -95.471800
  H    -103.673000   52.164200  -96.621600
  C    -103.292000   52.745700  -94.368700
  H    -102.417000   53.400500  -94.589400
  H    -104.118000   53.466400  -94.268200
  H    -103.161000   52.221100  -93.383200
  S    -108.719000   55.460700  -98.559900
  C    -109.307000   55.370900  -100.155000
  C    -108.886000   54.149400  -100.630000
  C    -108.290000   53.244200  -99.704300
  C    -108.101000   53.843400  -98.479400
  H    -109.199000   53.919800  -101.586000
  C    -107.965000   51.804500  -100.180000
  H    -107.223000   51.384500  -99.533700
  H    -107.490000   51.915800  -101.145000
  C    -109.231000   50.926300  -100.300000
  H    -110.029000   51.525400  -100.733000
  H    -109.423000   50.776400  -99.257400
  C    -108.953000   49.622500  -101.088000
  H    -108.525000   48.991500  -100.403000
  H    -108.272000   49.749700  -101.951000
  H    -109.888000   49.166500  -101.450000
  H    -107.094000   52.805300  -93.727100
  H    -109.872000   56.068300  -100.690000

 Total Charge           Charge          ....    0
 Multiplicity           Mult            ....    1
 Number of Electrons    NEL             ....  134
 Basis Dimension        Dim             ....  322

ORBITAL ENERGIES
----------------

  NO   OCC          E(Eh)            E(eV)
   0   2.0000     -88.966908     -2420.9127
   1   2.0000     -88.960191     -2420.7299
   2   2.0000     -10.326656      -281.0026
   3   2.0000     -10.321362      -280.8585
   4   2.0000     -10.321256      -280.8557
   5   2.0000     -10.310254      -280.5563
   6   2.0000     -10.303787      -280.3803
   7   2.0000     -10.301750      -280.3249
   8   2.0000     -10.296723      -280.1881
   9   2.0000     -10.290720      -280.0247
  10   2.0000     -10.288774      -279.9718
  11   2.0000     -10.287634      -279.9408
  12   2.0000     -10.285216      -279.8750
  13   2.0000     -10.283897      -279.8391
  14   2.0000     -10.283295      -279.8227
  15   2.0000     -10.276366      -279.6341
  16   2.0000      -8.081173      -219.8999
  17   2.0000      -8.076282      -219.7668
  18   2.0000      -6.039637      -164.3469
  19   2.0000      -6.035720      -164.2403
  20   2.0000      -6.034732      -164.2134
  21   2.0000      -6.032021      -164.1396
  22   2.0000      -6.030418      -164.0960
  23   2.0000      -6.027162      -164.0074
  24   2.0000      -1.015711       -27.6389
  25   2.0000      -0.988653       -26.9026
  26   2.0000      -0.918762       -25.0008
  27   2.0000      -0.909421       -24.7466
  28   2.0000      -0.874416       -23.7941
  29   2.0000      -0.852865       -23.2076
  30   2.0000      -0.843770       -22.9601
  31   2.0000      -0.815738       -22.1973
  32   2.0000      -0.782880       -21.3032
  33   2.0000      -0.773180       -21.0393
  34   2.0000      -0.714816       -19.4511
  35   2.0000      -0.701061       -19.0768
  36   2.0000      -0.693678       -18.8759
  37   2.0000      -0.664486       -18.0816
  38   2.0000      -0.645406       -17.5624
  39   2.0000      -0.627192       -17.0668
  40   2.0000      -0.599328       -16.3085
  41   2.0000      -0.569622       -15.5002
  42   2.0000      -0.566576       -15.4173
  43   2.0000      -0.556608       -15.1461
  44   2.0000      -0.540960       -14.7203
  45   2.0000      -0.529703       -14.4140
  46   2.0000      -0.520586       -14.1659
  47   2.0000      -0.516273       -14.0485
  48   2.0000      -0.508754       -13.8439
  49   2.0000      -0.500860       -13.6291
  50   2.0000      -0.490280       -13.3412
  51   2.0000      -0.482847       -13.1389
  52   2.0000      -0.470450       -12.8016
  53   2.0000      -0.467796       -12.7294
  54   2.0000      -0.464727       -12.6459
  55   2.0000      -0.446413       -12.1475
  56   2.0000      -0.442214       -12.0333
  57   2.0000      -0.436696       -11.8831
  58   2.0000      -0.433915       -11.8074
  59   2.0000      -0.427386       -11.6298
  60   2.0000      -0.423530       -11.5248
  61   2.0000      -0.412699       -11.2301
  62   2.0000      -0.407161       -11.0794
  63   2.0000      -0.354032        -9.6337
  64   2.0000      -0.331008        -9.0072
  65   2.0000      -0.327016        -8.8986
  66   2.0000      -0.288346        -7.8463
  67   0.0000       0.023567         0.6413
  68   0.0000       0.080061         2.1786
  69   0.0000       0.113738         3.0950
  70   0.0000       0.115523         3.1436
  71   0.0000       0.139421         3.7938

MULLIKEN ATOMIC CHARGES
-----------------------
   0 S :    0.107011
   1 C :   -0.151142
   2 C :   -0.050597
   3 C :    0.029053
   4 C :   -0.133956
   5 H :   -0.011995
   6 C :    0.057009
   7 H :    0.029770
   8 H :    0.017889
   9 C :   -0.081269
  10 H :    0.035708
  11 H :    0.043960
  12 C :   -0.080332
  13 H :    0.043936
  14 H :    0.032862
  15 H :    0.043770
  16 S :    0.100674
  17 C :   -0.069061
  18 C :   -0.017168
  19 C :   -0.057474
  20 C :   -0.155031
  21 H :   -0.016365
  22 C :    0.085947
  23 H :    0.003272
  24 H :    0.018619
  25 C :   -0.076172
  26 H :    0.031837
  27 H :    0.032683
  28 C :   -0.011193
  29 H :    0.015654
  30 H :    0.034330
  31 H :    0.038857
  32 H :    0.068862
  33 H :    0.040050
Sum of atomic charges:   -0.0000000

LOEWDIN ATOMIC CHARGES
----------------------
   0 S :    0.395790
   1 C :   -0.197972
   2 C :   -0.056896
   3 C :   -0.054257
   4 C :   -0.185389
   5 H :    0.018230
   6 C :   -0.037718
   7 H :    0.035796
   8 H :    0.028566
   9 C :   -0.044352
  10 H :    0.022103
  11 H :    0.034758
  12 C :   -0.076833
  13 H :    0.029187
  14 H :    0.025713
  15 H :    0.031571
  16 S :    0.427490
  17 C :   -0.189641
  18 C :   -0.066915
  19 C :   -0.057834
  20 C :   -0.207050
  21 H :    0.013077
  22 C :   -0.023212
  23 H :    0.018731
  24 H :    0.025855
  25 C :   -0.033087
  26 H :    0.021889
  27 H :    0.026902
  28 C :   -0.059124
  29 H :    0.015501
  30 H :    0.028165
  31 H :    0.030782
  32 H :    0.035750
  33 H :    0.024426

  Mayer bond orders larger than 0.100000
B(  0-S ,  1-C ) :   1.1278 B(  0-S ,  4-C ) :   1.1530 B(  1-C ,  2-C ) :   1.5667
B(  1-C , 32-H ) :   0.9685 B(  2-C ,  3-C ) :   1.2357 B(  2-C ,  6-C ) :   1.0327
B(  3-C ,  4-C ) :   1.5507 B(  3-C ,  5-H ) :   1.0043 B(  4-C , 20-C ) :   1.0859
B(  6-C ,  7-H ) :   0.9286 B(  6-C ,  8-H ) :   0.9413 B(  6-C ,  9-C ) :   1.0720
B(  9-C , 10-H ) :   0.9568 B(  9-C , 11-H ) :   0.9557 B(  9-C , 12-C ) :   1.0541
B( 12-C , 13-H ) :   0.9757 B( 12-C , 14-H ) :   0.9785 B( 12-C , 15-H ) :   0.9734
B( 16-S , 17-C ) :   1.1607 B( 16-S , 20-C ) :   1.1481 B( 17-C , 18-C ) :   1.5806
B( 17-C , 33-H ) :   0.9802 B( 18-C , 19-C ) :   1.2664 B( 18-C , 21-H ) :   0.9970
B( 19-C , 20-C ) :   1.5661 B( 19-C , 22-C ) :   1.0335 B( 22-C , 23-H ) :   0.9349
B( 22-C , 24-H ) :   0.9347 B( 22-C , 25-C ) :   1.0523 B( 25-C , 26-H ) :   0.9658
B( 25-C , 27-H ) :   0.9583 B( 25-C , 28-C ) :   1.0656 B( 28-C , 29-H ) :   0.9747
B( 28-C , 30-H ) :   0.9775 B( 28-C , 31-H ) :   0.9756

Dispersion correction           -0.013875781
FINAL SINGLE POINT ENERGY     -1339.866193732652

DIPOLE MOMENT
-------------
                                X             Y             Z
Electronic contribution:    -13.39558      20.60983       3.72139
Nuclear contribution   :     13.59559     -21.16925      -3.96948
                        -----------------------------------------
Total Dipole Moment    :      0.20000      -0.55943      -0.24809
                        -----------------------------------------
Magnitude (a.u.)       :      0.64382
Magnitude (Debye)      :      1.63646

Rotational constants in cm-1:     0.018485     0.008380     0.006632
Rotational constants in MHz :   554.155091   251.221454   198.818301

                             ****ORCA TERMINATED NORMALLY****
TOTAL RUN TIME: 0 days 0 hours 0 minutes 21 seconds 401 msec
