                         Program Version 4.2.1 -  RELEASE  -
|  1> ! wB97X-D3 SP def2-SVP
|  2> %pal
|  3> nprocs 24
|  4> end
|  5>
|  6> * xyz 0 1
|  7> S 	 -64.9552 	 14.2642 	 -69.7753
|  8> C 	 -65.2802 	 12.6214 	 -69.4067
|  9> C 	 -66.5774 	 12.449 	 -69.0054
| 10> C 	 -67.3677 	 13.611 	 -69.2315
| 11> C 	 -66.6481 	 14.6999 	 -69.6
| 12> H 	 -68.4129 	 13.6728 	 -69.0645
| 13> C 	 -66.9953 	 11.1445 	 -68.4168
| 14> H 	 -66.5468 	 10.3136 	 -68.9853
| 15> H 	 -68.044 	 11.0778 	 -68.6809
| 16> C 	 -66.8659 	 11.0014 	 -66.8329
| 17> H 	 -67.3992 	 10.145 	 -66.4842
| 18> H 	 -65.8204 	 10.7615 	 -66.7519
| 19> C 	 -67.1158 	 12.2251 	 -65.9244
| 20> H 	 -66.5056 	 13.0353 	 -66.2627
| 21> H 	 -68.1756 	 12.4226 	 -66.2065
| 22> H 	 -67.0074 	 11.9961 	 -64.8515
| 23> S 	 -66.2826 	 16.6198 	 -71.4135
| 24> C 	 -66.8 	 18.1975 	 -71.1436
| 25> C 	 -67.8863 	 18.1552 	 -70.2837
| 26> C 	 -68.0752 	 16.8763 	 -69.647
| 27> C 	 -67.0936 	 15.9477 	 -69.9874
| 28> H 	 -68.4947 	 19.0164 	 -70.1344
| 29> C 	 -69.3725 	 16.5325 	 -68.9106
| 30> H 	 -69.8902 	 17.5305 	 -68.6385
| 31> H 	 -69.1832 	 15.9602 	 -67.9582
| 32> C 	 -70.3717 	 15.704 	 -69.7155
| 33> H 	 -71.2353 	 15.4529 	 -69.0583
| 34> H 	 -70.0532 	 14.7361 	 -69.9788
| 35> C 	 -70.9132 	 16.3518 	 -71.0254
| 36> H 	 -71.1978 	 17.3993 	 -70.8808
| 37> H 	 -71.7629 	 15.8757 	 -71.4646
| 38> H 	 -70.1203 	 16.429 	 -71.7737
| 39> H 	 -64.531 	 11.8145 	 -69.2663
| 40> H 	 -66.5472 	 19.1543 	 -71.5602
| 41> *
| 42>
| 43>                          ****END OF INPUT****

CARTESIAN COORDINATES (ANGSTROEM)
---------------------------------
  S    -64.955200   14.264200  -69.775300
  C    -65.280200   12.621400  -69.406700
  C    -66.577400   12.449000  -69.005400
  C    -67.367700   13.611000  -69.231500
  C    -66.648100   14.699900  -69.600000
  H    -68.412900   13.672800  -69.064500
  C    -66.995300   11.144500  -68.416800
  H    -66.546800   10.313600  -68.985300
  H    -68.044000   11.077800  -68.680900
  C    -66.865900   11.001400  -66.832900
  H    -67.399200   10.145000  -66.484200
  H    -65.820400   10.761500  -66.751900
  C    -67.115800   12.225100  -65.924400
  H    -66.505600   13.035300  -66.262700
  H    -68.175600   12.422600  -66.206500
  H    -67.007400   11.996100  -64.851500
  S    -66.282600   16.619800  -71.413500
  C    -66.800000   18.197500  -71.143600
  C    -67.886300   18.155200  -70.283700
  C    -68.075200   16.876300  -69.647000
  C    -67.093600   15.947700  -69.987400
  H    -68.494700   19.016400  -70.134400
  C    -69.372500   16.532500  -68.910600
  H    -69.890200   17.530500  -68.638500
  H    -69.183200   15.960200  -67.958200
  C    -70.371700   15.704000  -69.715500
  H    -71.235300   15.452900  -69.058300
  H    -70.053200   14.736100  -69.978800
  C    -70.913200   16.351800  -71.025400
  H    -71.197800   17.399300  -70.880800
  H    -71.762900   15.875700  -71.464600
  H    -70.120300   16.429000  -71.773700
  H    -64.531000   11.814500  -69.266300
  H    -66.547200   19.154300  -71.560200

 Total Charge           Charge          ....    0
 Multiplicity           Mult            ....    1
 Number of Electrons    NEL             ....  134
 Basis Dimension        Dim             ....  322

ORBITAL ENERGIES
----------------

  NO   OCC          E(Eh)            E(eV)
   0   2.0000     -88.965963     -2420.8869
   1   2.0000     -88.961116     -2420.7550
   2   2.0000     -10.324198      -280.9357
   3   2.0000     -10.322352      -280.8855
   4   2.0000     -10.312142      -280.6076
   5   2.0000     -10.310815      -280.5716
   6   2.0000     -10.305214      -280.4191
   7   2.0000     -10.305099      -280.4160
   8   2.0000     -10.296750      -280.1888
   9   2.0000     -10.294157      -280.1182
  10   2.0000     -10.291709      -280.0516
  11   2.0000     -10.289841      -280.0008
  12   2.0000     -10.287603      -279.9399
  13   2.0000     -10.286006      -279.8965
  14   2.0000     -10.280772      -279.7540
  15   2.0000     -10.273933      -279.5679
  16   2.0000      -8.081309      -219.9036
  17   2.0000      -8.076845      -219.7821
  18   2.0000      -6.039792      -164.3511
  19   2.0000      -6.035671      -164.2390
  20   2.0000      -6.035383      -164.2311
  21   2.0000      -6.032058      -164.1406
  22   2.0000      -6.031227      -164.1180
  23   2.0000      -6.027437      -164.0149
  24   2.0000      -1.018644       -27.7187
  25   2.0000      -0.991861       -26.9899
  26   2.0000      -0.911436       -24.8014
  27   2.0000      -0.906571       -24.6690
  28   2.0000      -0.878202       -23.8971
  29   2.0000      -0.852426       -23.1957
  30   2.0000      -0.841724       -22.9045
  31   2.0000      -0.820490       -22.3267
  32   2.0000      -0.784130       -21.3373
  33   2.0000      -0.773049       -21.0357
  34   2.0000      -0.716986       -19.5102
  35   2.0000      -0.701982       -19.1019
  36   2.0000      -0.694463       -18.8973
  37   2.0000      -0.665245       -18.1022
  38   2.0000      -0.640089       -17.4177
  39   2.0000      -0.619512       -16.8578
  40   2.0000      -0.587174       -15.9778
  41   2.0000      -0.574409       -15.6305
  42   2.0000      -0.554793       -15.0967
  43   2.0000      -0.550312       -14.9747
  44   2.0000      -0.548937       -14.9373
  45   2.0000      -0.542799       -14.7703
  46   2.0000      -0.517727       -14.0881
  47   2.0000      -0.515222       -14.0199
  48   2.0000      -0.505852       -13.7649
  49   2.0000      -0.503938       -13.7129
  50   2.0000      -0.484442       -13.1823
  51   2.0000      -0.480805       -13.0834
  52   2.0000      -0.472619       -12.8606
  53   2.0000      -0.463822       -12.6212
  54   2.0000      -0.460226       -12.5234
  55   2.0000      -0.451134       -12.2760
  56   2.0000      -0.447593       -12.1796
  57   2.0000      -0.445718       -12.1286
  58   2.0000      -0.431806       -11.7500
  59   2.0000      -0.425636       -11.5821
  60   2.0000      -0.418236       -11.3808
  61   2.0000      -0.409373       -11.1396
  62   2.0000      -0.402314       -10.9475
  63   2.0000      -0.357490        -9.7278
  64   2.0000      -0.331693        -9.0258
  65   2.0000      -0.319685        -8.6991
  66   2.0000      -0.285294        -7.7633
  67   0.0000       0.014624         0.3979
  68   0.0000       0.078496         2.1360
  69   0.0000       0.100415         2.7324
  70   0.0000       0.119158         3.2425
  71   0.0000       0.128719         3.5026

MULLIKEN ATOMIC CHARGES
-----------------------
   0 S :    0.127190
   1 C :   -0.121422
   2 C :   -0.124526
   3 C :    0.026472
   4 C :   -0.110552
   5 H :   -0.014997
   6 C :    0.063660
   7 H :    0.036372
   8 H :    0.009807
   9 C :   -0.065757
  10 H :    0.028065
  11 H :    0.012044
  12 C :   -0.047338
  13 H :    0.049549
  14 H :    0.026763
  15 H :    0.054155
  16 S :    0.102907
  17 C :   -0.058224
  18 C :   -0.061059
  19 C :   -0.007018
  20 C :   -0.162899
  21 H :    0.007285
  22 C :    0.014884
  23 H :    0.036732
  24 H :    0.043704
  25 C :   -0.059938
  26 H :    0.028238
  27 H :    0.020109
  28 C :   -0.051242
  29 H :    0.015813
  30 H :    0.031340
  31 H :    0.040260
  32 H :    0.060524
  33 H :    0.049100
Sum of atomic charges:   -0.0000000

LOEWDIN ATOMIC CHARGES
----------------------
   0 S :    0.422933
   1 C :   -0.206722
   2 C :   -0.072397
   3 C :   -0.053883
   4 C :   -0.195958
   5 H :    0.023425
   6 C :   -0.034613
   7 H :    0.037147
   8 H :    0.023664
   9 C :   -0.035724
  10 H :    0.019368
  11 H :    0.015142
  12 C :   -0.063011
  13 H :    0.025742
  14 H :    0.027549
  15 H :    0.033841
  16 S :    0.423923
  17 C :   -0.206982
  18 C :   -0.074794
  19 C :   -0.060066
  20 C :   -0.187410
  21 H :    0.024027
  22 C :   -0.037818
  23 H :    0.038186
  24 H :    0.037256
  25 C :   -0.043258
  26 H :    0.029140
  27 H :    0.013226
  28 C :   -0.065798
  29 H :    0.021630
  30 H :    0.023320
  31 H :    0.027822
  32 H :    0.037345
  33 H :    0.033748

  Mayer bond orders larger than 0.100000
B(  0-S ,  1-C ) :   1.1454 B(  0-S ,  4-C ) :   1.1344 B(  1-C ,  2-C ) :   1.5971
B(  1-C , 32-H ) :   0.9599 B(  2-C ,  3-C ) :   1.2505 B(  2-C ,  6-C ) :   1.0265
B(  3-C ,  4-C ) :   1.5409 B(  3-C ,  5-H ) :   1.0009 B(  4-C , 20-C ) :   1.1304
B(  6-C ,  7-H ) :   0.9483 B(  6-C ,  8-H ) :   0.9326 B(  6-C ,  9-C ) :   1.0383
B(  9-C , 10-H ) :   0.9614 B(  9-C , 11-H ) :   0.9564 B(  9-C , 12-C ) :   1.0789
B( 12-C , 13-H ) :   0.9685 B( 12-C , 14-H ) :   0.9796 B( 12-C , 15-H ) :   0.9732
B( 16-S , 17-C ) :   1.1613 B( 16-S , 20-C ) :   1.1379 B( 17-C , 18-C ) :   1.5721
B( 17-C , 20-C ) :   0.1029 B( 17-C , 33-H ) :   0.9710 B( 18-C , 19-C ) :   1.2623
B( 18-C , 21-H ) :   0.9933 B( 19-C , 20-C ) :   1.5223 B( 19-C , 22-C ) :   1.0547
B( 22-C , 23-H ) :   0.9382 B( 22-C , 24-H ) :   0.9322 B( 22-C , 25-C ) :   1.0741
B( 25-C , 26-H ) :   0.9533 B( 25-C , 27-H ) :   0.9490 B( 25-C , 28-C ) :   1.0707
B( 28-C , 29-H ) :   0.9758 B( 28-C , 30-H ) :   0.9752 B( 28-C , 31-H ) :   0.9752

Dispersion correction           -0.015522346
FINAL SINGLE POINT ENERGY     -1339.857245802862

DIPOLE MOMENT
-------------
                                X             Y             Z
Electronic contribution:     19.68970       9.56085     -12.69497
Nuclear contribution   :    -20.17158      -9.80713      12.97071
                        -----------------------------------------
Total Dipole Moment    :     -0.48188      -0.24628       0.27573
                        -----------------------------------------
Magnitude (a.u.)       :      0.60736
Magnitude (Debye)      :      1.54380

Rotational constants in cm-1:     0.020983     0.009268     0.007245
Rotational constants in MHz :   629.067659   277.833478   217.196779

                             ****ORCA TERMINATED NORMALLY****
TOTAL RUN TIME: 0 days 0 hours 0 minutes 22 seconds 558 msec
