                         Program Version 4.2.1 -  RELEASE  -
|  1> ! wB97X-D3 SP def2-SVP
|  2> %pal
|  3> nprocs 24
|  4> end
|  5>
|  6> * xyz 0 1
|  7> S 	 -108.347 	 52.0109 	 -71.8183
|  8> C 	 -109.027 	 51.7217 	 -73.4029
|  9> C 	 -109.907 	 52.6721 	 -73.839
| 10> C 	 -109.862 	 53.8194 	 -72.9383
| 11> C 	 -109.092 	 53.5919 	 -71.7786
| 12> H 	 -110.462 	 54.7442 	 -73.0006
| 13> C 	 -110.799 	 52.5035 	 -75.0536
| 14> H 	 -111.825 	 52.1252 	 -74.8421
| 15> H 	 -110.245 	 51.7745 	 -75.6716
| 16> C 	 -111.106 	 53.8418 	 -75.7579
| 17> H 	 -111.832 	 53.67 	 -76.5694
| 18> H 	 -111.553 	 54.4907 	 -75.0455
| 19> C 	 -109.757 	 54.4776 	 -76.33
| 20> H 	 -109.175 	 53.7404 	 -76.8673
| 21> H 	 -109.853 	 55.2829 	 -77.0838
| 22> H 	 -109.126 	 54.8941 	 -75.5851
| 23> S 	 -107.051 	 54.6158 	 -70.3077
| 24> C 	 -107.37 	 55.7431 	 -68.9883
| 25> C 	 -108.675 	 56.1277 	 -69.0224
| 26> C 	 -109.464 	 55.4708 	 -70.0743
| 27> C 	 -108.722 	 54.5676 	 -70.7678
| 28> H 	 -108.977 	 56.8547 	 -68.2469
| 29> C 	 -110.876 	 55.7883 	 -70.3155
| 30> H 	 -111.49 	 55.8396 	 -69.4127
| 31> H 	 -111.345 	 54.9211 	 -70.7826
| 32> C 	 -111.005 	 56.9983 	 -71.1981
| 33> H 	 -110.475 	 56.772 	 -72.0707
| 34> H 	 -110.438 	 57.8584 	 -70.7516
| 35> C 	 -112.376 	 57.4641 	 -71.491
| 36> H 	 -112.818 	 57.7798 	 -70.5059
| 37> H 	 -113.006 	 56.6452 	 -71.788
| 38> H 	 -112.291 	 58.1774 	 -72.3492
| 39> H 	 -109.04 	 50.7111 	 -73.8819
| 40> H 	 -106.656 	 56.1604 	 -68.2243
| 41> *
| 42>
| 43>                          ****END OF INPUT****

CARTESIAN COORDINATES (ANGSTROEM)
---------------------------------
  S    -108.347000   52.010900  -71.818300
  C    -109.027000   51.721700  -73.402900
  C    -109.907000   52.672100  -73.839000
  C    -109.862000   53.819400  -72.938300
  C    -109.092000   53.591900  -71.778600
  H    -110.462000   54.744200  -73.000600
  C    -110.799000   52.503500  -75.053600
  H    -111.825000   52.125200  -74.842100
  H    -110.245000   51.774500  -75.671600
  C    -111.106000   53.841800  -75.757900
  H    -111.832000   53.670000  -76.569400
  H    -111.553000   54.490700  -75.045500
  C    -109.757000   54.477600  -76.330000
  H    -109.175000   53.740400  -76.867300
  H    -109.853000   55.282900  -77.083800
  H    -109.126000   54.894100  -75.585100
  S    -107.051000   54.615800  -70.307700
  C    -107.370000   55.743100  -68.988300
  C    -108.675000   56.127700  -69.022400
  C    -109.464000   55.470800  -70.074300
  C    -108.722000   54.567600  -70.767800
  H    -108.977000   56.854700  -68.246900
  C    -110.876000   55.788300  -70.315500
  H    -111.490000   55.839600  -69.412700
  H    -111.345000   54.921100  -70.782600
  C    -111.005000   56.998300  -71.198100
  H    -110.475000   56.772000  -72.070700
  H    -110.438000   57.858400  -70.751600
  C    -112.376000   57.464100  -71.491000
  H    -112.818000   57.779800  -70.505900
  H    -113.006000   56.645200  -71.788000
  H    -112.291000   58.177400  -72.349200
  H    -109.040000   50.711100  -73.881900
  H    -106.656000   56.160400  -68.224300

 Total Charge           Charge          ....    0
 Multiplicity           Mult            ....    1
 Number of Electrons    NEL             ....  134
 Basis Dimension        Dim             ....  322

ORBITAL ENERGIES
----------------

  NO   OCC          E(Eh)            E(eV)
   0   2.0000     -88.969927     -2420.9948
   1   2.0000     -88.961423     -2420.7634
   2   2.0000     -10.333489      -281.1885
   3   2.0000     -10.323001      -280.9031
   4   2.0000     -10.318670      -280.7853
   5   2.0000     -10.314688      -280.6769
   6   2.0000     -10.305319      -280.4220
   7   2.0000     -10.303475      -280.3718
   8   2.0000     -10.300696      -280.2962
   9   2.0000     -10.300531      -280.2917
  10   2.0000     -10.295758      -280.1618
  11   2.0000     -10.294026      -280.1147
  12   2.0000     -10.284291      -279.8498
  13   2.0000     -10.281380      -279.7706
  14   2.0000     -10.278339      -279.6878
  15   2.0000     -10.275560      -279.6122
  16   2.0000      -8.084579      -219.9926
  17   2.0000      -8.076473      -219.7720
  18   2.0000      -6.043097      -164.4410
  19   2.0000      -6.039170      -164.3342
  20   2.0000      -6.035240      -164.2272
  21   2.0000      -6.035158      -164.2250
  22   2.0000      -6.030959      -164.1107
  23   2.0000      -6.026964      -164.0020
  24   2.0000      -1.009601       -27.4727
  25   2.0000      -0.984364       -26.7859
  26   2.0000      -0.923318       -25.1247
  27   2.0000      -0.911577       -24.8053
  28   2.0000      -0.870493       -23.6873
  29   2.0000      -0.855009       -23.2660
  30   2.0000      -0.838379       -22.8134
  31   2.0000      -0.816393       -22.2152
  32   2.0000      -0.783320       -21.3152
  33   2.0000      -0.773536       -21.0490
  34   2.0000      -0.714567       -19.4444
  35   2.0000      -0.699032       -19.0216
  36   2.0000      -0.690392       -18.7865
  37   2.0000      -0.660316       -17.9681
  38   2.0000      -0.634257       -17.2590
  39   2.0000      -0.622029       -16.9263
  40   2.0000      -0.597138       -16.2489
  41   2.0000      -0.571669       -15.5559
  42   2.0000      -0.564405       -15.3582
  43   2.0000      -0.551958       -15.0195
  44   2.0000      -0.540222       -14.7002
  45   2.0000      -0.533845       -14.5267
  46   2.0000      -0.519485       -14.1359
  47   2.0000      -0.510022       -13.8784
  48   2.0000      -0.508544       -13.8382
  49   2.0000      -0.492804       -13.4099
  50   2.0000      -0.490351       -13.3431
  51   2.0000      -0.474907       -12.9229
  52   2.0000      -0.471935       -12.8420
  53   2.0000      -0.462194       -12.5769
  54   2.0000      -0.455869       -12.4048
  55   2.0000      -0.449100       -12.2206
  56   2.0000      -0.444646       -12.0994
  57   2.0000      -0.438264       -11.9258
  58   2.0000      -0.434826       -11.8322
  59   2.0000      -0.427650       -11.6369
  60   2.0000      -0.426177       -11.5969
  61   2.0000      -0.419587       -11.4175
  62   2.0000      -0.410648       -11.1743
  63   2.0000      -0.353494        -9.6191
  64   2.0000      -0.331814        -9.0291
  65   2.0000      -0.325975        -8.8702
  66   2.0000      -0.293409        -7.9841
  67   0.0000       0.028695         0.7808
  68   0.0000       0.078024         2.1232
  69   0.0000       0.107230         2.9179
  70   0.0000       0.115810         3.1514
  71   0.0000       0.127194         3.4611

MULLIKEN ATOMIC CHARGES
-----------------------
   0 S :    0.123366
   1 C :   -0.138568
   2 C :   -0.086741
   3 C :    0.005661
   4 C :   -0.154004
   5 H :    0.018581
   6 C :    0.058907
   7 H :    0.052348
   8 H :    0.030502
   9 C :   -0.076021
  10 H :    0.037420
  11 H :    0.028313
  12 C :   -0.058652
  13 H :    0.023271
  14 H :    0.030111
  15 H :    0.035598
  16 S :    0.097099
  17 C :   -0.114275
  18 C :   -0.038767
  19 C :   -0.046000
  20 C :   -0.134389
  21 H :    0.028989
  22 C :    0.065585
  23 H :    0.013611
  24 H :    0.013228
  25 C :   -0.084681
  26 H :    0.005676
  27 H :    0.028025
  28 C :    0.000564
  29 H :    0.034914
  30 H :    0.013192
  31 H :    0.050171
  32 H :    0.061561
  33 H :    0.075406
Sum of atomic charges:   -0.0000000

LOEWDIN ATOMIC CHARGES
----------------------
   0 S :    0.411663
   1 C :   -0.204734
   2 C :   -0.063718
   3 C :   -0.066028
   4 C :   -0.190832
   5 H :    0.030931
   6 C :   -0.031777
   7 H :    0.039489
   8 H :    0.032415
   9 C :   -0.034127
  10 H :    0.028206
  11 H :    0.017392
  12 C :   -0.070212
  13 H :    0.023614
  14 H :    0.026816
  15 H :    0.021767
  16 S :    0.394497
  17 C :   -0.192953
  18 C :   -0.074166
  19 C :   -0.055291
  20 C :   -0.200110
  21 H :    0.037169
  22 C :   -0.039352
  23 H :    0.028479
  24 H :    0.028870
  25 C :   -0.045276
  26 H :    0.011632
  27 H :    0.030033
  28 C :   -0.065368
  29 H :    0.033235
  30 H :    0.018158
  31 H :    0.037849
  32 H :    0.035757
  33 H :    0.045972

  Mayer bond orders larger than 0.100000
B(  0-S ,  1-C ) :   1.1329 B(  0-S ,  4-C ) :   1.1524 B(  1-C ,  2-C ) :   1.6492
B(  1-C , 32-H ) :   0.9506 B(  2-C ,  3-C ) :   1.2194 B(  2-C ,  6-C ) :   1.0125
B(  3-C ,  4-C ) :   1.5723 B(  3-C ,  5-H ) :   0.9786 B(  4-C , 20-C ) :   1.0439
B(  6-C ,  7-H ) :   0.9367 B(  6-C ,  8-H ) :   0.9443 B(  6-C ,  9-C ) :   1.0765
B(  9-C , 10-H ) :   0.9589 B(  9-C , 11-H ) :   0.9533 B(  9-C , 12-C ) :   1.0603
B( 12-C , 13-H ) :   0.9784 B( 12-C , 14-H ) :   0.9786 B( 12-C , 15-H ) :   0.9761
B( 16-S , 17-C ) :   1.1230 B( 16-S , 20-C ) :   1.1266 B( 17-C , 18-C ) :   1.6667
B( 17-C , 33-H ) :   0.9590 B( 18-C , 19-C ) :   1.1885 B( 18-C , 21-H ) :   0.9861
B( 19-C , 20-C ) :   1.6339 B( 19-C , 22-C ) :   1.0735 B( 22-C , 23-H ) :   0.9255
B( 22-C , 24-H ) :   0.9152 B( 22-C , 25-C ) :   1.0623 B( 25-C , 26-H ) :   0.9446
B( 25-C , 27-H ) :   0.9496 B( 25-C , 28-C ) :   1.0891 B( 28-C , 29-H ) :   0.9691
B( 28-C , 30-H ) :   0.9678 B( 28-C , 31-H ) :   0.9701

Dispersion correction           -0.014768018
FINAL SINGLE POINT ENERGY     -1339.879970852978

DIPOLE MOMENT
-------------
                                X             Y             Z
Electronic contribution:     20.27012     -13.44897      16.04911
Nuclear contribution   :    -20.86503      13.69824     -16.22264
                        -----------------------------------------
Total Dipole Moment    :     -0.59492       0.24926      -0.17353
                        -----------------------------------------
Magnitude (a.u.)       :      0.66796
Magnitude (Debye)      :      1.69782

Rotational constants in cm-1:     0.017091     0.010280     0.007253
Rotational constants in MHz :   512.370782   308.176743   217.446483

                             ****ORCA TERMINATED NORMALLY****
TOTAL RUN TIME: 0 days 0 hours 0 minutes 22 seconds 349 msec
