                         Program Version 4.2.1 -  RELEASE  -
|  1> ! wB97X-D3 SP def2-SVP
|  2> %pal
|  3> nprocs 24
|  4> end
|  5>
|  6> * xyz 0 1
|  7> S 	 -119.443 	 53.0506 	 -33.878
|  8> C 	 -118.817 	 53.2659 	 -35.4357
|  9> C 	 -119.823 	 52.9852 	 -36.3676
| 10> C 	 -121.086 	 52.5633 	 -35.8138
| 11> C 	 -121.057 	 52.5069 	 -34.4436
| 12> H 	 -122.03 	 52.3128 	 -36.2868
| 13> C 	 -119.657 	 53.1451 	 -37.8515
| 14> H 	 -119.627 	 52.0718 	 -38.1993
| 15> H 	 -118.617 	 53.3755 	 -38.0251
| 16> C 	 -120.696 	 54.0337 	 -38.5559
| 17> H 	 -120.561 	 53.9059 	 -39.6225
| 18> H 	 -121.683 	 53.6773 	 -38.2657
| 19> C 	 -120.478 	 55.4176 	 -38.1787
| 20> H 	 -120.593 	 55.4684 	 -37.1233
| 21> H 	 -119.453 	 55.7549 	 -38.27
| 22> H 	 -120.961 	 56.1575 	 -38.7864
| 23> S 	 -121.796 	 52.0135 	 -31.8724
| 24> C 	 -123.461 	 51.7938 	 -31.434
| 25> C 	 -124.252 	 51.6412 	 -32.6
| 26> C 	 -123.571 	 51.8568 	 -33.7962
| 27> C 	 -122.186 	 52.056 	 -33.5983
| 28> H 	 -125.282 	 51.404 	 -32.6897
| 29> C 	 -124.226 	 51.7717 	 -35.171
| 30> H 	 -125.267 	 51.4031 	 -35.0801
| 31> H 	 -123.648 	 51.0798 	 -35.7602
| 32> C 	 -124.481 	 53.1487 	 -35.8722
| 33> H 	 -123.605 	 53.7354 	 -36.0303
| 34> H 	 -125.212 	 53.739 	 -35.2223
| 35> C 	 -125.23 	 52.9763 	 -37.1957
| 36> H 	 -125.523 	 54.0443 	 -37.3813
| 37> H 	 -126.035 	 52.3136 	 -37.0738
| 38> H 	 -124.664 	 52.5573 	 -38.0002
| 39> H 	 -117.802 	 53.4085 	 -35.7776
| 40> H 	 -123.759 	 51.5867 	 -30.4242
| 41> *
| 42>
| 43>                          ****END OF INPUT****

CARTESIAN COORDINATES (ANGSTROEM)
---------------------------------
  S    -119.443000   53.050600  -33.878000
  C    -118.817000   53.265900  -35.435700
  C    -119.823000   52.985200  -36.367600
  C    -121.086000   52.563300  -35.813800
  C    -121.057000   52.506900  -34.443600
  H    -122.030000   52.312800  -36.286800
  C    -119.657000   53.145100  -37.851500
  H    -119.627000   52.071800  -38.199300
  H    -118.617000   53.375500  -38.025100
  C    -120.696000   54.033700  -38.555900
  H    -120.561000   53.905900  -39.622500
  H    -121.683000   53.677300  -38.265700
  C    -120.478000   55.417600  -38.178700
  H    -120.593000   55.468400  -37.123300
  H    -119.453000   55.754900  -38.270000
  H    -120.961000   56.157500  -38.786400
  S    -121.796000   52.013500  -31.872400
  C    -123.461000   51.793800  -31.434000
  C    -124.252000   51.641200  -32.600000
  C    -123.571000   51.856800  -33.796200
  C    -122.186000   52.056000  -33.598300
  H    -125.282000   51.404000  -32.689700
  C    -124.226000   51.771700  -35.171000
  H    -125.267000   51.403100  -35.080100
  H    -123.648000   51.079800  -35.760200
  C    -124.481000   53.148700  -35.872200
  H    -123.605000   53.735400  -36.030300
  H    -125.212000   53.739000  -35.222300
  C    -125.230000   52.976300  -37.195700
  H    -125.523000   54.044300  -37.381300
  H    -126.035000   52.313600  -37.073800
  H    -124.664000   52.557300  -38.000200
  H    -117.802000   53.408500  -35.777600
  H    -123.759000   51.586700  -30.424200

 Total Charge           Charge          ....    0
 Multiplicity           Mult            ....    1
 Number of Electrons    NEL             ....  134
 Basis Dimension        Dim             ....  322

ORBITAL ENERGIES
----------------

  NO   OCC          E(Eh)            E(eV)
   0   2.0000     -88.969374     -2420.9798
   1   2.0000     -88.966927     -2420.9132
   2   2.0000     -10.335308      -281.2380
   3   2.0000     -10.334410      -281.2136
   4   2.0000     -10.322849      -280.8990
   5   2.0000     -10.311160      -280.5809
   6   2.0000     -10.305982      -280.4400
   7   2.0000     -10.300550      -280.2922
   8   2.0000     -10.300415      -280.2885
   9   2.0000     -10.295837      -280.1640
  10   2.0000     -10.293466      -280.0995
  11   2.0000     -10.291584      -280.0482
  12   2.0000     -10.288224      -279.9568
  13   2.0000     -10.283155      -279.8189
  14   2.0000     -10.277987      -279.6783
  15   2.0000     -10.262504      -279.2569
  16   2.0000      -8.083937      -219.9751
  17   2.0000      -8.081513      -219.9091
  18   2.0000      -6.042330      -164.4202
  19   2.0000      -6.040258      -164.3638
  20   2.0000      -6.038342      -164.3116
  21   2.0000      -6.035946      -164.2464
  22   2.0000      -6.034976      -164.2201
  23   2.0000      -6.032105      -164.1419
  24   2.0000      -1.006511       -27.3886
  25   2.0000      -0.985945       -26.8289
  26   2.0000      -0.920169       -25.0391
  27   2.0000      -0.912585       -24.8327
  28   2.0000      -0.872217       -23.7342
  29   2.0000      -0.861089       -23.4314
  30   2.0000      -0.849510       -23.1164
  31   2.0000      -0.815411       -22.1885
  32   2.0000      -0.783702       -21.3256
  33   2.0000      -0.767890       -20.8953
  34   2.0000      -0.708699       -19.2847
  35   2.0000      -0.701546       -19.0900
  36   2.0000      -0.694086       -18.8870
  37   2.0000      -0.671211       -18.2646
  38   2.0000      -0.641336       -17.4517
  39   2.0000      -0.622245       -16.9322
  40   2.0000      -0.600973       -16.3533
  41   2.0000      -0.575593       -15.6627
  42   2.0000      -0.571761       -15.5584
  43   2.0000      -0.556921       -15.1546
  44   2.0000      -0.536485       -14.5985
  45   2.0000      -0.534290       -14.5388
  46   2.0000      -0.518606       -14.1120
  47   2.0000      -0.515027       -14.0146
  48   2.0000      -0.507077       -13.7983
  49   2.0000      -0.497096       -13.5267
  50   2.0000      -0.495478       -13.4826
  51   2.0000      -0.491659       -13.3787
  52   2.0000      -0.474657       -12.9161
  53   2.0000      -0.469890       -12.7864
  54   2.0000      -0.455226       -12.3873
  55   2.0000      -0.451312       -12.2808
  56   2.0000      -0.442418       -12.0388
  57   2.0000      -0.434586       -11.8257
  58   2.0000      -0.431416       -11.7394
  59   2.0000      -0.428579       -11.6622
  60   2.0000      -0.422033       -11.4841
  61   2.0000      -0.416361       -11.3298
  62   2.0000      -0.406762       -11.0686
  63   2.0000      -0.365043        -9.9333
  64   2.0000      -0.338042        -9.1986
  65   2.0000      -0.323221        -8.7953
  66   2.0000      -0.278256        -7.5717
  67   0.0000       0.014888         0.4051
  68   0.0000       0.089675         2.4402
  69   0.0000       0.095816         2.6073
  70   0.0000       0.116890         3.1807
  71   0.0000       0.125324         3.4102

MULLIKEN ATOMIC CHARGES
-----------------------
   0 S :    0.109585
   1 C :   -0.087292
   2 C :   -0.144575
   3 C :   -0.018564
   4 C :   -0.074198
   5 H :    0.001844
   6 C :    0.044656
   7 H :    0.036916
   8 H :   -0.006069
   9 C :   -0.019027
  10 H :    0.024668
  11 H :    0.026694
  12 C :   -0.001965
  13 H :    0.028677
  14 H :    0.003109
  15 H :    0.028021
  16 S :    0.099110
  17 C :   -0.081298
  18 C :    0.000723
  19 C :   -0.053344
  20 C :   -0.148143
  21 H :   -0.001135
  22 C :    0.020906
  23 H :    0.015905
  24 H :    0.048629
  25 C :   -0.118093
  26 H :    0.040384
  27 H :    0.039728
  28 C :   -0.012915
  29 H :    0.048010
  30 H :    0.013357
  31 H :    0.025312
  32 H :    0.049380
  33 H :    0.061005
Sum of atomic charges:    0.0000000

LOEWDIN ATOMIC CHARGES
----------------------
   0 S :    0.404339
   1 C :   -0.226805
   2 C :   -0.064598
   3 C :   -0.076581
   4 C :   -0.173880
   5 H :    0.031877
   6 C :   -0.038557
   7 H :    0.038338
   8 H :    0.021525
   9 C :   -0.034722
  10 H :    0.025025
  11 H :    0.023448
  12 C :   -0.064771
  13 H :    0.027316
  14 H :    0.025077
  15 H :    0.024523
  16 S :    0.417650
  17 C :   -0.187557
  18 C :   -0.066239
  19 C :   -0.058573
  20 C :   -0.183307
  21 H :    0.026158
  22 C :   -0.035637
  23 H :    0.033256
  24 H :    0.027373
  25 C :   -0.039821
  26 H :    0.015818
  27 H :    0.034705
  28 C :   -0.060330
  29 H :    0.039469
  30 H :    0.015195
  31 H :    0.018361
  32 H :    0.035708
  33 H :    0.026217

  Mayer bond orders larger than 0.100000
B(  0-S ,  1-C ) :   1.1312 B(  0-S ,  4-C ) :   1.1344 B(  1-C ,  2-C ) :   1.5990
B(  1-C , 32-H ) :   0.9638 B(  2-C ,  3-C ) :   1.2235 B(  2-C ,  6-C ) :   1.0344
B(  3-C ,  4-C ) :   1.5788 B(  3-C ,  5-H ) :   0.9903 B(  4-C , 20-C ) :   1.0811
B(  6-C ,  7-H ) :   0.9324 B(  6-C ,  8-H ) :   0.9376 B(  6-C ,  9-C ) :   1.0622
B(  9-C , 10-H ) :   0.9481 B(  9-C , 11-H ) :   0.9530 B(  9-C , 12-C ) :   1.0862
B( 12-C , 13-H ) :   0.9691 B( 12-C , 14-H ) :   0.9640 B( 12-C , 15-H ) :   0.9687
B( 16-S , 17-C ) :   1.1871 B( 16-S , 20-C ) :   1.1538 B( 17-C , 18-C ) :   1.5109
B( 17-C , 20-C ) :   0.1140 B( 17-C , 33-H ) :   0.9725 B( 18-C , 19-C ) :   1.3438
B( 18-C , 21-H ) :   0.9838 B( 19-C , 20-C ) :   1.5163 B( 19-C , 22-C ) :   1.0302
B( 22-C , 23-H ) :   0.9286 B( 22-C , 24-H ) :   0.9440 B( 22-C , 25-C ) :   1.0496
B( 25-C , 26-H ) :   0.9597 B( 25-C , 27-H ) :   0.9555 B( 25-C , 28-C ) :   1.0749
B( 28-C , 29-H ) :   0.9762 B( 28-C , 30-H ) :   0.9706 B( 28-C , 31-H ) :   0.9738

Dispersion correction           -0.015115020
FINAL SINGLE POINT ENERGY     -1339.865007186345

DIPOLE MOMENT
-------------
                                X             Y             Z
Electronic contribution:     12.02698      -7.86706      27.99292
Nuclear contribution   :    -12.44834       7.81231     -28.57086
                        -----------------------------------------
Total Dipole Moment    :     -0.42136      -0.05475      -0.57795
                        -----------------------------------------
Magnitude (a.u.)       :      0.71733
Magnitude (Debye)      :      1.82331

Rotational constants in cm-1:     0.017819     0.010656     0.007079
Rotational constants in MHz :   534.202641   319.471676   212.227899

                             ****ORCA TERMINATED NORMALLY****
TOTAL RUN TIME: 0 days 0 hours 0 minutes 21 seconds 761 msec
