                         Program Version 4.2.1 -  RELEASE  -
|  1> ! wB97X-D3 SP def2-SVP
|  2> %pal
|  3> nprocs 24
|  4> end
|  5>
|  6> * xyz 0 1
|  7> S 	 -115.45 	 22.374 	 -114.307
|  8> C 	 -117.056 	 22.8573 	 -114.671
|  9> C 	 -117.947 	 21.8467 	 -114.617
| 10> C 	 -117.256 	 20.6079 	 -114.364
| 11> C 	 -115.948 	 20.7179 	 -114.05
| 12> H 	 -117.668 	 19.6065 	 -114.138
| 13> C 	 -119.446 	 21.8304 	 -114.932
| 14> H 	 -120.004 	 21.2211 	 -114.211
| 15> H 	 -119.53 	 21.3537 	 -115.877
| 16> C 	 -120.07 	 23.2362 	 -114.895
| 17> H 	 -119.959 	 23.8381 	 -114.006
| 18> H 	 -119.684 	 23.8348 	 -115.723
| 19> C 	 -121.613 	 23.0951 	 -114.944
| 20> H 	 -121.972 	 22.5374 	 -115.789
| 21> H 	 -121.987 	 22.4587 	 -114.161
| 22> H 	 -122.085 	 24.102 	 -114.874
| 23> S 	 -114.253 	 19.7024 	 -112.082
| 24> C 	 -113.16 	 18.3808 	 -112.496
| 25> C 	 -113.525 	 17.9016 	 -113.73
| 26> C 	 -114.537 	 18.5938 	 -114.458
| 27> C 	 -114.994 	 19.6311 	 -113.691
| 28> H 	 -112.973 	 17.0571 	 -114.005
| 29> C 	 -114.894 	 18.2059 	 -115.864
| 30> H 	 -115.711 	 18.7966 	 -116.134
| 31> H 	 -115.241 	 17.1734 	 -115.815
| 32> C 	 -113.785 	 18.2211 	 -116.943
| 33> H 	 -114.235 	 18.0116 	 -117.883
| 34> H 	 -113.043 	 17.4527 	 -116.685
| 35> C 	 -113.111 	 19.5938 	 -117.081
| 36> H 	 -112.232 	 19.6006 	 -117.577
| 37> H 	 -112.882 	 19.9704 	 -116.085
| 38> H 	 -113.799 	 20.3353 	 -117.577
| 39> H 	 -117.366 	 23.8436 	 -115.118
| 40> H 	 -112.48 	 17.9159 	 -111.772
| 41> *
| 42>
| 43>                          ****END OF INPUT****

CARTESIAN COORDINATES (ANGSTROEM)
---------------------------------
  S    -115.450000   22.374000  -114.307000
  C    -117.056000   22.857300  -114.671000
  C    -117.947000   21.846700  -114.617000
  C    -117.256000   20.607900  -114.364000
  C    -115.948000   20.717900  -114.050000
  H    -117.668000   19.606500  -114.138000
  C    -119.446000   21.830400  -114.932000
  H    -120.004000   21.221100  -114.211000
  H    -119.530000   21.353700  -115.877000
  C    -120.070000   23.236200  -114.895000
  H    -119.959000   23.838100  -114.006000
  H    -119.684000   23.834800  -115.723000
  C    -121.613000   23.095100  -114.944000
  H    -121.972000   22.537400  -115.789000
  H    -121.987000   22.458700  -114.161000
  H    -122.085000   24.102000  -114.874000
  S    -114.253000   19.702400  -112.082000
  C    -113.160000   18.380800  -112.496000
  C    -113.525000   17.901600  -113.730000
  C    -114.537000   18.593800  -114.458000
  C    -114.994000   19.631100  -113.691000
  H    -112.973000   17.057100  -114.005000
  C    -114.894000   18.205900  -115.864000
  H    -115.711000   18.796600  -116.134000
  H    -115.241000   17.173400  -115.815000
  C    -113.785000   18.221100  -116.943000
  H    -114.235000   18.011600  -117.883000
  H    -113.043000   17.452700  -116.685000
  C    -113.111000   19.593800  -117.081000
  H    -112.232000   19.600600  -117.577000
  H    -112.882000   19.970400  -116.085000
  H    -113.799000   20.335300  -117.577000
  H    -117.366000   23.843600  -115.118000
  H    -112.480000   17.915900  -111.772000

 Total Charge           Charge          ....    0
 Multiplicity           Mult            ....    1
 Number of Electrons    NEL             ....  134
 Basis Dimension        Dim             ....  322

ORBITAL ENERGIES
----------------

  NO   OCC          E(Eh)            E(eV)
   0   2.0000     -88.961882     -2420.7759
   1   2.0000     -88.961056     -2420.7534
   2   2.0000     -10.328941      -281.0648
   3   2.0000     -10.323770      -280.9241
   4   2.0000     -10.318659      -280.7850
   5   2.0000     -10.310982      -280.5761
   6   2.0000     -10.302986      -280.3585
   7   2.0000     -10.297378      -280.2059
   8   2.0000     -10.294869      -280.1376
   9   2.0000     -10.288914      -279.9756
  10   2.0000     -10.288266      -279.9580
  11   2.0000     -10.287516      -279.9375
  12   2.0000     -10.286320      -279.9050
  13   2.0000     -10.285331      -279.8781
  14   2.0000     -10.277623      -279.6683
  15   2.0000     -10.264874      -279.3214
  16   2.0000      -8.076615      -219.7759
  17   2.0000      -8.076363      -219.7690
  18   2.0000      -6.035144      -164.2246
  19   2.0000      -6.034868      -164.2171
  20   2.0000      -6.031042      -164.1130
  21   2.0000      -6.030983      -164.1114
  22   2.0000      -6.027248      -164.0097
  23   2.0000      -6.027059      -164.0046
  24   2.0000      -1.008687       -27.4478
  25   2.0000      -0.987694       -26.8765
  26   2.0000      -0.912262       -24.8239
  27   2.0000      -0.909398       -24.7460
  28   2.0000      -0.868438       -23.6314
  29   2.0000      -0.849721       -23.1221
  30   2.0000      -0.845325       -23.0025
  31   2.0000      -0.815523       -22.1915
  32   2.0000      -0.785596       -21.3772
  33   2.0000      -0.774886       -21.0857
  34   2.0000      -0.713459       -19.4142
  35   2.0000      -0.703793       -19.1512
  36   2.0000      -0.690267       -18.7831
  37   2.0000      -0.657669       -17.8961
  38   2.0000      -0.640238       -17.4218
  39   2.0000      -0.610840       -16.6218
  40   2.0000      -0.596074       -16.2200
  41   2.0000      -0.573752       -15.6126
  42   2.0000      -0.566400       -15.4125
  43   2.0000      -0.555071       -15.1043
  44   2.0000      -0.547124       -14.8880
  45   2.0000      -0.529587       -14.4108
  46   2.0000      -0.523282       -14.2392
  47   2.0000      -0.506909       -13.7937
  48   2.0000      -0.500724       -13.6254
  49   2.0000      -0.494268       -13.4497
  50   2.0000      -0.484943       -13.1960
  51   2.0000      -0.481130       -13.0922
  52   2.0000      -0.472934       -12.8692
  53   2.0000      -0.463194       -12.6042
  54   2.0000      -0.457833       -12.4583
  55   2.0000      -0.446578       -12.1520
  56   2.0000      -0.439602       -11.9622
  57   2.0000      -0.436349       -11.8737
  58   2.0000      -0.434808       -11.8317
  59   2.0000      -0.426557       -11.6072
  60   2.0000      -0.424812       -11.5597
  61   2.0000      -0.419133       -11.4052
  62   2.0000      -0.409000       -11.1295
  63   2.0000      -0.341853        -9.3023
  64   2.0000      -0.332473        -9.0471
  65   2.0000      -0.325836        -8.8665
  66   2.0000      -0.305011        -8.2998
  67   0.0000       0.043997         1.1972
  68   0.0000       0.068159         1.8547
  69   0.0000       0.117627         3.2008
  70   0.0000       0.127700         3.4749
  71   0.0000       0.134234         3.6527

MULLIKEN ATOMIC CHARGES
-----------------------
   0 S :    0.117693
   1 C :   -0.143772
   2 C :   -0.091001
   3 C :    0.021619
   4 C :   -0.160326
   5 H :    0.021800
   6 C :    0.083107
   7 H :    0.028868
   8 H :    0.037067
   9 C :   -0.094699
  10 H :    0.038545
  11 H :    0.033141
  12 C :   -0.042473
  13 H :    0.015484
  14 H :    0.020517
  15 H :    0.042432
  16 S :    0.095979
  17 C :   -0.107410
  18 C :   -0.028061
  19 C :   -0.019604
  20 C :   -0.203540
  21 H :   -0.004525
  22 C :    0.133031
  23 H :   -0.001900
  24 H :    0.030188
  25 C :   -0.061108
  26 H :    0.026302
  27 H :    0.031304
  28 C :   -0.029071
  29 H :    0.009013
  30 H :    0.031679
  31 H :    0.035106
  32 H :    0.064572
  33 H :    0.070044
Sum of atomic charges:   -0.0000000

LOEWDIN ATOMIC CHARGES
----------------------
   0 S :    0.412154
   1 C :   -0.215459
   2 C :   -0.070007
   3 C :   -0.071748
   4 C :   -0.196267
   5 H :    0.035966
   6 C :   -0.022451
   7 H :    0.032896
   8 H :    0.033359
   9 C :   -0.042120
  10 H :    0.027531
  11 H :    0.022159
  12 C :   -0.065811
  13 H :    0.018498
  14 H :    0.021552
  15 H :    0.030779
  16 S :    0.383467
  17 C :   -0.179546
  18 C :   -0.067322
  19 C :   -0.055667
  20 C :   -0.188352
  21 H :    0.020218
  22 C :   -0.023134
  23 H :    0.020675
  24 H :    0.037898
  25 C :   -0.030251
  26 H :    0.022394
  27 H :    0.023758
  28 C :   -0.060047
  29 H :    0.008263
  30 H :    0.026582
  31 H :    0.032642
  32 H :    0.041513
  33 H :    0.035876

  Mayer bond orders larger than 0.100000
B(  0-S ,  1-C ) :   1.1319 B(  0-S ,  4-C ) :   1.1396 B(  1-C ,  2-C ) :   1.6637
B(  1-C , 32-H ) :   0.9518 B(  2-C ,  3-C ) :   1.2164 B(  2-C ,  6-C ) :   1.0016
B(  3-C ,  4-C ) :   1.6407 B(  3-C ,  5-H ) :   0.9852 B(  4-C , 20-C ) :   0.9922
B(  6-C ,  7-H ) :   0.9485 B(  6-C ,  8-H ) :   0.9321 B(  6-C ,  9-C ) :   1.0728
B(  9-C , 10-H ) :   0.9629 B(  9-C , 11-H ) :   0.9481 B(  9-C , 12-C ) :   1.0843
B( 12-C , 13-H ) :   0.9726 B( 12-C , 14-H ) :   0.9738 B( 12-C , 15-H ) :   0.9746
B( 16-S , 17-C ) :   1.1328 B( 16-S , 20-C ) :   1.1526 B( 17-C , 18-C ) :   1.6376
B( 17-C , 33-H ) :   0.9664 B( 18-C , 19-C ) :   1.1928 B( 18-C , 21-H ) :   0.9978
B( 19-C , 20-C ) :   1.6130 B( 19-C , 22-C ) :   1.0473 B( 22-C , 23-H ) :   0.9209
B( 22-C , 24-H ) :   0.9247 B( 22-C , 25-C ) :   1.0792 B( 25-C , 26-H ) :   0.9553
B( 25-C , 27-H ) :   0.9542 B( 25-C , 28-C ) :   1.0783 B( 28-C , 29-H ) :   0.9737
B( 28-C , 30-H ) :   0.9743 B( 28-C , 31-H ) :   0.9744

Dispersion correction           -0.014412449
FINAL SINGLE POINT ENERGY     -1339.877861502203

DIPOLE MOMENT
-------------
                                X             Y             Z
Electronic contribution:     14.90085       0.02768      16.54973
Nuclear contribution   :    -15.24474      -0.41431     -16.98675
                        -----------------------------------------
Total Dipole Moment    :     -0.34389      -0.38663      -0.43702
                        -----------------------------------------
Magnitude (a.u.)       :      0.67730
Magnitude (Debye)      :      1.72155

Rotational constants in cm-1:     0.023318     0.007122     0.006432
Rotational constants in MHz :   699.049570   213.500794   192.820890

                             ****ORCA TERMINATED NORMALLY****
TOTAL RUN TIME: 0 days 0 hours 0 minutes 21 seconds 377 msec
