                         Program Version 4.2.1 -  RELEASE  -
|  1> ! wB97X-D3 SP def2-SVP
|  2> %pal
|  3> nprocs 24
|  4> end
|  5>
|  6> * xyz 0 1
|  7> S 	 -101.346 	 -1.4209 	 -105.129
|  8> C 	 -100.201 	 -2.29153 	 -106.125
|  9> C 	 -100.853 	 -3.00608 	 -107.143
| 10> C 	 -102.286 	 -2.79727 	 -107.097
| 11> C 	 -102.677 	 -1.99183 	 -106.098
| 12> H 	 -102.975 	 -3.07438 	 -107.811
| 13> C 	 -100.142 	 -3.84306 	 -108.19
| 14> H 	 -99.0405 	 -3.88772 	 -107.921
| 15> H 	 -100.066 	 -3.22773 	 -109.043
| 16> C 	 -100.85 	 -5.22311 	 -108.401
| 17> H 	 -101.809 	 -5.1608 	 -108.93
| 18> H 	 -100.365 	 -5.64914 	 -109.256
| 19> C 	 -100.825 	 -6.192 	 -107.268
| 20> H 	 -100.764 	 -7.24021 	 -107.662
| 21> H 	 -99.9264 	 -6.1395 	 -106.7
| 22> H 	 -101.732 	 -6.01396 	 -106.747
| 23> S 	 -103.942 	 0.409681 	 -106.211
| 24> C 	 -105.634 	 0.554415 	 -105.863
| 25> C 	 -106.18 	 -0.703249 	 -105.666
| 26> C 	 -105.234 	 -1.75098 	 -105.6
| 27> C 	 -103.969 	 -1.32158 	 -105.91
| 28> H 	 -107.249 	 -0.847731 	 -105.597
| 29> C 	 -105.606 	 -3.19965 	 -105.479
| 30> H 	 -105.282 	 -3.60749 	 -104.586
| 31> H 	 -104.929 	 -3.75868 	 -106.149
| 32> C 	 -107.054 	 -3.58777 	 -105.658
| 33> H 	 -107.392 	 -3.04148 	 -106.559
| 34> H 	 -107.585 	 -3.14734 	 -104.819
| 35> C 	 -107.332 	 -5.06713 	 -105.828
| 36> H 	 -108.381 	 -5.25125 	 -106.016
| 37> H 	 -107.077 	 -5.71001 	 -104.969
| 38> H 	 -106.669 	 -5.37404 	 -106.682
| 39> H 	 -99.1386 	 -2.27674 	 -105.837
| 40> H 	 -106.218 	 1.42522 	 -105.909
| 41> *
| 42>
| 43>                          ****END OF INPUT****

CARTESIAN COORDINATES (ANGSTROEM)
---------------------------------
  S    -101.346000   -1.420900  -105.129000
  C    -100.201000   -2.291530  -106.125000
  C    -100.853000   -3.006080  -107.143000
  C    -102.286000   -2.797270  -107.097000
  C    -102.677000   -1.991830  -106.098000
  H    -102.975000   -3.074380  -107.811000
  C    -100.142000   -3.843060  -108.190000
  H    -99.040500   -3.887720  -107.921000
  H    -100.066000   -3.227730  -109.043000
  C    -100.850000   -5.223110  -108.401000
  H    -101.809000   -5.160800  -108.930000
  H    -100.365000   -5.649140  -109.256000
  C    -100.825000   -6.192000  -107.268000
  H    -100.764000   -7.240210  -107.662000
  H    -99.926400   -6.139500  -106.700000
  H    -101.732000   -6.013960  -106.747000
  S    -103.942000    0.409681  -106.211000
  C    -105.634000    0.554415  -105.863000
  C    -106.180000   -0.703249  -105.666000
  C    -105.234000   -1.750980  -105.600000
  C    -103.969000   -1.321580  -105.910000
  H    -107.249000   -0.847731  -105.597000
  C    -105.606000   -3.199650  -105.479000
  H    -105.282000   -3.607490  -104.586000
  H    -104.929000   -3.758680  -106.149000
  C    -107.054000   -3.587770  -105.658000
  H    -107.392000   -3.041480  -106.559000
  H    -107.585000   -3.147340  -104.819000
  C    -107.332000   -5.067130  -105.828000
  H    -108.381000   -5.251250  -106.016000
  H    -107.077000   -5.710010  -104.969000
  H    -106.669000   -5.374040  -106.682000
  H    -99.138600   -2.276740  -105.837000
  H    -106.218000    1.425220  -105.909000

 Total Charge           Charge          ....    0
 Multiplicity           Mult            ....    1
 Number of Electrons    NEL             ....  134
 Basis Dimension        Dim             ....  322

ORBITAL ENERGIES
----------------

  NO   OCC          E(Eh)            E(eV)
   0   2.0000     -88.962938     -2420.8046
   1   2.0000     -88.959890     -2420.7217
   2   2.0000     -10.322917      -280.9009
   3   2.0000     -10.320677      -280.8399
   4   2.0000     -10.315090      -280.6879
   5   2.0000     -10.310503      -280.5630
   6   2.0000     -10.304491      -280.3995
   7   2.0000     -10.297789      -280.2171
   8   2.0000     -10.296155      -280.1726
   9   2.0000     -10.288902      -279.9752
  10   2.0000     -10.287008      -279.9237
  11   2.0000     -10.285375      -279.8793
  12   2.0000     -10.284594      -279.8580
  13   2.0000     -10.283662      -279.8327
  14   2.0000     -10.280786      -279.7544
  15   2.0000     -10.273042      -279.5437
  16   2.0000      -8.077760      -219.8070
  17   2.0000      -8.075225      -219.7380
  18   2.0000      -6.036202      -164.2534
  19   2.0000      -6.033718      -164.1858
  20   2.0000      -6.032213      -164.1449
  21   2.0000      -6.029577      -164.0731
  22   2.0000      -6.028611      -164.0469
  23   2.0000      -6.026036      -163.9768
  24   2.0000      -1.008635       -27.4464
  25   2.0000      -0.983950       -26.7746
  26   2.0000      -0.915769       -24.9193
  27   2.0000      -0.910988       -24.7893
  28   2.0000      -0.868709       -23.6388
  29   2.0000      -0.853769       -23.2322
  30   2.0000      -0.847100       -23.0507
  31   2.0000      -0.819131       -22.2897
  32   2.0000      -0.784977       -21.3603
  33   2.0000      -0.772665       -21.0253
  34   2.0000      -0.710588       -19.3361
  35   2.0000      -0.706178       -19.2161
  36   2.0000      -0.689607       -18.7652
  37   2.0000      -0.652213       -17.7476
  38   2.0000      -0.648427       -17.6446
  39   2.0000      -0.623432       -16.9644
  40   2.0000      -0.604317       -16.4443
  41   2.0000      -0.571966       -15.5640
  42   2.0000      -0.563871       -15.3437
  43   2.0000      -0.555088       -15.1047
  44   2.0000      -0.543491       -14.7891
  45   2.0000      -0.529662       -14.4128
  46   2.0000      -0.518525       -14.1098
  47   2.0000      -0.513485       -13.9726
  48   2.0000      -0.505697       -13.7607
  49   2.0000      -0.494068       -13.4443
  50   2.0000      -0.487036       -13.2529
  51   2.0000      -0.479614       -13.0510
  52   2.0000      -0.473139       -12.8748
  53   2.0000      -0.467684       -12.7263
  54   2.0000      -0.457269       -12.4429
  55   2.0000      -0.456796       -12.4300
  56   2.0000      -0.441846       -12.0233
  57   2.0000      -0.439680       -11.9643
  58   2.0000      -0.428983       -11.6732
  59   2.0000      -0.426775       -11.6131
  60   2.0000      -0.422037       -11.4842
  61   2.0000      -0.418599       -11.3907
  62   2.0000      -0.401759       -10.9324
  63   2.0000      -0.343038        -9.3345
  64   2.0000      -0.329751        -8.9730
  65   2.0000      -0.320477        -8.7206
  66   2.0000      -0.297928        -8.1070
  67   0.0000       0.040533         1.1030
  68   0.0000       0.065398         1.7796
  69   0.0000       0.121149         3.2966
  70   0.0000       0.123597         3.3632
  71   0.0000       0.131571         3.5802

MULLIKEN ATOMIC CHARGES
-----------------------
   0 S :    0.103852
   1 C :   -0.149805
   2 C :   -0.092008
   3 C :    0.078711
   4 C :   -0.166867
   5 H :   -0.014260
   6 C :    0.082208
   7 H :    0.022571
   8 H :    0.028198
   9 C :   -0.093480
  10 H :    0.022728
  11 H :    0.005470
  12 C :    0.003508
  13 H :    0.031991
  14 H :    0.026085
  15 H :    0.041590
  16 S :    0.118760
  17 C :   -0.058796
  18 C :   -0.067212
  19 C :   -0.008941
  20 C :   -0.185238
  21 H :    0.017928
  22 C :    0.117511
  23 H :    0.002651
  24 H :   -0.000066
  25 C :   -0.109004
  26 H :    0.032870
  27 H :    0.032210
  28 C :   -0.029438
  29 H :    0.037610
  30 H :    0.034924
  31 H :    0.035237
  32 H :    0.062335
  33 H :    0.036167
Sum of atomic charges:   -0.0000000

LOEWDIN ATOMIC CHARGES
----------------------
   0 S :    0.403416
   1 C :   -0.203781
   2 C :   -0.059292
   3 C :   -0.055377
   4 C :   -0.193700
   5 H :    0.020512
   6 C :   -0.031238
   7 H :    0.037083
   8 H :    0.029234
   9 C :   -0.053529
  10 H :    0.027982
  11 H :    0.020860
  12 C :   -0.058598
  13 H :    0.035999
  14 H :    0.025061
  15 H :    0.026286
  16 S :    0.417786
  17 C :   -0.185081
  18 C :   -0.074336
  19 C :   -0.056084
  20 C :   -0.200357
  21 H :    0.029044
  22 C :   -0.033093
  23 H :    0.024198
  24 H :    0.030401
  25 C :   -0.046561
  26 H :    0.026150
  27 H :    0.022021
  28 C :   -0.063441
  29 H :    0.027536
  30 H :    0.026917
  31 H :    0.032508
  32 H :    0.030590
  33 H :    0.020883

  Mayer bond orders larger than 0.100000
B(  0-S ,  1-C ) :   1.1372 B(  0-S ,  4-C ) :   1.1572 B(  1-C ,  2-C ) :   1.6100
B(  1-C , 32-H ) :   0.9692 B(  2-C ,  3-C ) :   1.2083 B(  2-C ,  6-C ) :   1.0205
B(  3-C ,  4-C ) :   1.6182 B(  3-C ,  5-H ) :   0.9998 B(  4-C , 20-C ) :   0.9898
B(  6-C ,  7-H ) :   0.9419 B(  6-C ,  8-H ) :   0.9333 B(  6-C ,  9-C ) :   1.0717
B(  9-C , 10-H ) :   0.9488 B(  9-C , 11-H ) :   0.9498 B(  9-C , 12-C ) :   1.0687
B( 12-C , 13-H ) :   0.9728 B( 12-C , 14-H ) :   0.9740 B( 12-C , 15-H ) :   0.9759
B( 16-S , 17-C ) :   1.1628 B( 16-S , 20-C ) :   1.1578 B( 17-C , 18-C ) :   1.5835
B( 17-C , 20-C ) :   0.1041 B( 17-C , 33-H ) :   0.9710 B( 18-C , 19-C ) :   1.2685
B( 18-C , 21-H ) :   0.9833 B( 19-C , 20-C ) :   1.6029 B( 19-C , 22-C ) :   1.0338
B( 22-C , 23-H ) :   0.9017 B( 22-C , 24-H ) :   0.9277 B( 22-C , 25-C ) :   1.0793
B( 25-C , 26-H ) :   0.9542 B( 25-C , 27-H ) :   0.9424 B( 25-C , 28-C ) :   1.0865
B( 28-C , 29-H ) :   0.9719 B( 28-C , 30-H ) :   0.9738 B( 28-C , 31-H ) :   0.9724

Dispersion correction           -0.013985230
FINAL SINGLE POINT ENERGY     -1339.872080896964

DIPOLE MOMENT
-------------
                                X             Y             Z
Electronic contribution:      6.84914      27.26344       7.39891
Nuclear contribution   :     -6.99720     -27.82087      -7.81845
                        -----------------------------------------
Total Dipole Moment    :     -0.14805      -0.55743      -0.41954
                        -----------------------------------------
Magnitude (a.u.)       :      0.71320
Magnitude (Debye)      :      1.81282

Rotational constants in cm-1:     0.016658     0.009495     0.006664
Rotational constants in MHz :   499.398493   284.641056   199.792915

                             ****ORCA TERMINATED NORMALLY****
TOTAL RUN TIME: 0 days 0 hours 0 minutes 20 seconds 345 msec
