                         Program Version 4.2.1 -  RELEASE  -
|  1> ! wB97X-D3 SP def2-SVP
|  2> %pal
|  3> nprocs 24
|  4> end
|  5>
|  6> * xyz 0 1
|  7> S 	 26.0277 	 -6.50457 	 -118.461
|  8> C 	 26.3782 	 -7.37928 	 -119.86
|  9> C 	 27.6153 	 -7.0566 	 -120.388
| 10> C 	 28.3509 	 -6.33148 	 -119.44
| 11> C 	 27.6415 	 -5.95237 	 -118.274
| 12> H 	 29.4035 	 -6.0259 	 -119.513
| 13> C 	 28.2285 	 -7.44941 	 -121.689
| 14> H 	 29.0891 	 -6.76797 	 -121.831
| 15> H 	 27.4109 	 -7.08059 	 -122.32
| 16> C 	 28.6424 	 -8.90912 	 -121.986
| 17> H 	 29.5362 	 -9.13286 	 -121.392
| 18> H 	 27.7684 	 -9.60552 	 -121.778
| 19> C 	 29.0596 	 -9.19346 	 -123.485
| 20> H 	 29.9559 	 -8.52873 	 -123.701
| 21> H 	 29.2823 	 -10.2834 	 -123.551
| 22> H 	 28.2602 	 -8.95967 	 -124.232
| 23> S 	 27.295 	 -3.87796 	 -116.538
| 24> C 	 28.5467 	 -3.51162 	 -115.357
| 25> C 	 29.5537 	 -4.44115 	 -115.434
| 26> C 	 29.3515 	 -5.45807 	 -116.413
| 27> C 	 28.2039 	 -5.23294 	 -117.137
| 28> H 	 30.3681 	 -4.37544 	 -114.741
| 29> C 	 30.3997 	 -6.51389 	 -116.502
| 30> H 	 29.8306 	 -7.31196 	 -116.887
| 31> H 	 30.8164 	 -6.86391 	 -115.515
| 32> C 	 31.5067 	 -6.24316 	 -117.458
| 33> H 	 31.9827 	 -5.30733 	 -117.069
| 34> H 	 31.1234 	 -5.99578 	 -118.446
| 35> C 	 32.6962 	 -7.25168 	 -117.445
| 36> H 	 33.6579 	 -6.85641 	 -117.937
| 37> H 	 32.5053 	 -8.13991 	 -118.014
| 38> H 	 33.0124 	 -7.51642 	 -116.435
| 39> H 	 25.6729 	 -8.00039 	 -120.493
| 40> H 	 28.5361 	 -2.73799 	 -114.694
| 41> *
| 42>
| 43>                          ****END OF INPUT****

CARTESIAN COORDINATES (ANGSTROEM)
---------------------------------
  S     26.027700   -6.504570  -118.461000
  C     26.378200   -7.379280  -119.860000
  C     27.615300   -7.056600  -120.388000
  C     28.350900   -6.331480  -119.440000
  C     27.641500   -5.952370  -118.274000
  H     29.403500   -6.025900  -119.513000
  C     28.228500   -7.449410  -121.689000
  H     29.089100   -6.767970  -121.831000
  H     27.410900   -7.080590  -122.320000
  C     28.642400   -8.909120  -121.986000
  H     29.536200   -9.132860  -121.392000
  H     27.768400   -9.605520  -121.778000
  C     29.059600   -9.193460  -123.485000
  H     29.955900   -8.528730  -123.701000
  H     29.282300  -10.283400  -123.551000
  H     28.260200   -8.959670  -124.232000
  S     27.295000   -3.877960  -116.538000
  C     28.546700   -3.511620  -115.357000
  C     29.553700   -4.441150  -115.434000
  C     29.351500   -5.458070  -116.413000
  C     28.203900   -5.232940  -117.137000
  H     30.368100   -4.375440  -114.741000
  C     30.399700   -6.513890  -116.502000
  H     29.830600   -7.311960  -116.887000
  H     30.816400   -6.863910  -115.515000
  C     31.506700   -6.243160  -117.458000
  H     31.982700   -5.307330  -117.069000
  H     31.123400   -5.995780  -118.446000
  C     32.696200   -7.251680  -117.445000
  H     33.657900   -6.856410  -117.937000
  H     32.505300   -8.139910  -118.014000
  H     33.012400   -7.516420  -116.435000
  H     25.672900   -8.000390  -120.493000
  H     28.536100   -2.737990  -114.694000

 Total Charge           Charge          ....    0
 Multiplicity           Mult            ....    1
 Number of Electrons    NEL             ....  134
 Basis Dimension        Dim             ....  322

ORBITAL ENERGIES
----------------

  NO   OCC          E(Eh)            E(eV)
   0   2.0000     -88.970943     -2421.0224
   1   2.0000     -88.964235     -2420.8399
   2   2.0000     -10.327712      -281.0313
   3   2.0000     -10.326370      -280.9948
   4   2.0000     -10.313375      -280.6412
   5   2.0000     -10.309548      -280.5371
   6   2.0000     -10.300532      -280.2917
   7   2.0000     -10.299058      -280.2516
   8   2.0000     -10.296390      -280.1790
   9   2.0000     -10.294766      -280.1348
  10   2.0000     -10.293947      -280.1125
  11   2.0000     -10.292185      -280.0646
  12   2.0000     -10.289033      -279.9788
  13   2.0000     -10.288235      -279.9571
  14   2.0000     -10.285569      -279.8846
  15   2.0000     -10.285253      -279.8760
  16   2.0000      -8.086758      -220.0519
  17   2.0000      -8.079299      -219.8489
  18   2.0000      -6.045073      -164.4948
  19   2.0000      -6.040988      -164.3836
  20   2.0000      -6.037817      -164.2974
  21   2.0000      -6.037784      -164.2965
  22   2.0000      -6.033805      -164.1882
  23   2.0000      -6.029993      -164.0844
  24   2.0000      -1.014704       -27.6115
  25   2.0000      -0.992286       -27.0015
  26   2.0000      -0.915926       -24.9236
  27   2.0000      -0.910616       -24.7791
  28   2.0000      -0.870136       -23.6776
  29   2.0000      -0.853364       -23.2212
  30   2.0000      -0.848333       -23.0843
  31   2.0000      -0.813125       -22.1263
  32   2.0000      -0.782825       -21.3018
  33   2.0000      -0.774056       -21.0631
  34   2.0000      -0.706556       -19.2264
  35   2.0000      -0.699292       -19.0287
  36   2.0000      -0.696509       -18.9530
  37   2.0000      -0.669711       -18.2238
  38   2.0000      -0.636743       -17.3266
  39   2.0000      -0.616694       -16.7811
  40   2.0000      -0.598385       -16.2829
  41   2.0000      -0.575796       -15.6682
  42   2.0000      -0.571253       -15.5446
  43   2.0000      -0.557259       -15.1638
  44   2.0000      -0.527844       -14.3634
  45   2.0000      -0.520159       -14.1542
  46   2.0000      -0.517180       -14.0732
  47   2.0000      -0.513615       -13.9762
  48   2.0000      -0.507799       -13.8179
  49   2.0000      -0.499528       -13.5929
  50   2.0000      -0.491549       -13.3757
  51   2.0000      -0.482055       -13.1174
  52   2.0000      -0.473856       -12.8943
  53   2.0000      -0.467183       -12.7127
  54   2.0000      -0.462565       -12.5870
  55   2.0000      -0.451327       -12.2812
  56   2.0000      -0.440820       -11.9953
  57   2.0000      -0.437125       -11.8948
  58   2.0000      -0.435326       -11.8458
  59   2.0000      -0.429913       -11.6985
  60   2.0000      -0.421695       -11.4749
  61   2.0000      -0.416857       -11.3433
  62   2.0000      -0.402075       -10.9410
  63   2.0000      -0.348873        -9.4933
  64   2.0000      -0.332298        -9.0423
  65   2.0000      -0.330750        -9.0002
  66   2.0000      -0.289538        -7.8787
  67   0.0000       0.031384         0.8540
  68   0.0000       0.071319         1.9407
  69   0.0000       0.108695         2.9578
  70   0.0000       0.124751         3.3946
  71   0.0000       0.133209         3.6248

MULLIKEN ATOMIC CHARGES
-----------------------
   0 S :    0.148748
   1 C :   -0.141009
   2 C :   -0.087766
   3 C :   -0.001617
   4 C :   -0.154318
   5 H :    0.001678
   6 C :    0.057772
   7 H :    0.023547
   8 H :    0.033123
   9 C :   -0.074150
  10 H :    0.040849
  11 H :    0.040517
  12 C :   -0.093092
  13 H :    0.043441
  14 H :    0.051160
  15 H :    0.043058
  16 S :    0.100136
  17 C :   -0.044844
  18 C :   -0.031701
  19 C :   -0.040177
  20 C :   -0.163465
  21 H :    0.009717
  22 C :    0.103221
  23 H :    0.008543
  24 H :    0.029119
  25 C :   -0.065666
  26 H :    0.019379
  27 H :    0.020887
  28 C :   -0.051580
  29 H :    0.038544
  30 H :    0.029929
  31 H :    0.028558
  32 H :    0.062090
  33 H :    0.015369
Sum of atomic charges:   -0.0000000

LOEWDIN ATOMIC CHARGES
----------------------
   0 S :    0.459256
   1 C :   -0.231032
   2 C :   -0.073622
   3 C :   -0.065859
   4 C :   -0.219805
   5 H :    0.027688
   6 C :   -0.041719
   7 H :    0.033430
   8 H :    0.037602
   9 C :   -0.041892
  10 H :    0.028186
  11 H :    0.029733
  12 C :   -0.075057
  13 H :    0.030251
  14 H :    0.031963
  15 H :    0.026656
  16 S :    0.402536
  17 C :   -0.165627
  18 C :   -0.061450
  19 C :   -0.056365
  20 C :   -0.195982
  21 H :    0.027901
  22 C :   -0.034951
  23 H :    0.024947
  24 H :    0.037787
  25 C :   -0.040667
  26 H :    0.026680
  27 H :    0.019384
  28 C :   -0.069373
  29 H :    0.035643
  30 H :    0.018769
  31 H :    0.024092
  32 H :    0.041493
  33 H :    0.009404

  Mayer bond orders larger than 0.100000
B(  0-S ,  1-C ) :   1.1765 B(  0-S ,  4-C ) :   1.1790 B(  1-C ,  2-C ) :   1.5562
B(  1-C ,  4-C ) :   0.1048 B(  1-C , 32-H ) :   0.9575 B(  2-C ,  3-C ) :   1.3034
B(  2-C ,  6-C ) :   1.0082 B(  3-C ,  4-C ) :   1.5071 B(  3-C ,  5-H ) :   0.9915
B(  4-C , 20-C ) :   1.0398 B(  6-C ,  7-H ) :   0.9404 B(  6-C ,  8-H ) :   0.9308
B(  6-C ,  9-C ) :   1.0660 B(  9-C , 10-H ) :   0.9558 B(  9-C , 11-H ) :   0.9568
B(  9-C , 12-C ) :   1.0708 B( 12-C , 13-H ) :   0.9759 B( 12-C , 14-H ) :   0.9752
B( 12-C , 15-H ) :   0.9774 B( 16-S , 17-C ) :   1.1388 B( 16-S , 20-C ) :   1.1422
B( 17-C , 18-C ) :   1.6225 B( 17-C , 33-H ) :   0.9805 B( 18-C , 19-C ) :   1.2245
B( 18-C , 21-H ) :   0.9928 B( 19-C , 20-C ) :   1.6069 B( 19-C , 22-C ) :   1.0456
B( 22-C , 23-H ) :   0.9081 B( 22-C , 24-H ) :   0.9344 B( 22-C , 25-C ) :   1.0760
B( 25-C , 26-H ) :   0.9521 B( 25-C , 27-H ) :   0.9489 B( 25-C , 28-C ) :   1.0731
B( 28-C , 29-H ) :   0.9758 B( 28-C , 30-H ) :   0.9779 B( 28-C , 31-H ) :   0.9727

Dispersion correction           -0.013914765
FINAL SINGLE POINT ENERGY     -1339.870352721070

DIPOLE MOMENT
-------------
                                X             Y             Z
Electronic contribution:    -23.64874      16.36147      16.14459
Nuclear contribution   :     24.18368     -16.64837     -16.39579
                        -----------------------------------------
Total Dipole Moment    :      0.53494      -0.28690      -0.25119
                        -----------------------------------------
Magnitude (a.u.)       :      0.65694
Magnitude (Debye)      :      1.66980

Rotational constants in cm-1:     0.018124     0.008667     0.006213
Rotational constants in MHz :   543.330672   259.836638   186.264294

                             ****ORCA TERMINATED NORMALLY****
TOTAL RUN TIME: 0 days 0 hours 0 minutes 21 seconds 479 msec
