                         Program Version 4.2.1 -  RELEASE  -
|  1> ! wB97X-D3 SP def2-SVP
|  2> %pal
|  3> nprocs 24
|  4> end
|  5>
|  6> * xyz 0 1
|  7> S 	 -127.047 	 66.0447 	 -36.1968
|  8> C 	 -127.409 	 64.5842 	 -37.121
|  9> C 	 -126.35 	 63.6461 	 -36.9292
| 10> C 	 -125.289 	 64.1717 	 -36.0718
| 11> C 	 -125.59 	 65.3668 	 -35.4923
| 12> H 	 -124.338 	 63.6798 	 -35.7862
| 13> C 	 -126.305 	 62.2107 	 -37.45
| 14> H 	 -127.353 	 61.8291 	 -37.3207
| 15> H 	 -125.595 	 61.5904 	 -36.8739
| 16> C 	 -126.029 	 62.1201 	 -38.957
| 17> H 	 -125.814 	 61.1353 	 -39.1774
| 18> H 	 -126.966 	 62.3378 	 -39.5771
| 19> C 	 -124.75 	 62.8732 	 -39.3056
| 20> H 	 -124.016 	 62.9151 	 -38.466
| 21> H 	 -124.225 	 62.3036 	 -40.0334
| 22> H 	 -124.999 	 63.7469 	 -39.9157
| 23> S 	 -125.563 	 66.5678 	 -33.0225
| 24> C 	 -124.127 	 67.3221 	 -32.4309
| 25> C 	 -123.066 	 67.1169 	 -33.2583
| 26> C 	 -123.483 	 66.5623 	 -34.5331
| 27> C 	 -124.819 	 66.1526 	 -34.5503
| 28> H 	 -122.043 	 67.5084 	 -33.0138
| 29> C 	 -122.503 	 66.3232 	 -35.6199
| 30> H 	 -122.194 	 67.3181 	 -35.9337
| 31> H 	 -123.083 	 65.867 	 -36.4702
| 32> C 	 -121.318 	 65.4513 	 -35.2503
| 33> H 	 -121.679 	 64.4299 	 -34.9352
| 34> H 	 -120.791 	 65.9508 	 -34.4507
| 35> C 	 -120.256 	 65.401 	 -36.3442
| 36> H 	 -119.908 	 66.3599 	 -36.5917
| 37> H 	 -120.478 	 64.8324 	 -37.3101
| 38> H 	 -119.306 	 64.9783 	 -35.96
| 39> H 	 -128.34 	 64.4705 	 -37.6902
| 40> H 	 -123.952 	 67.6533 	 -31.3564
| 41> *
| 42>
| 43>                          ****END OF INPUT****

CARTESIAN COORDINATES (ANGSTROEM)
---------------------------------
  S    -127.047000   66.044700  -36.196800
  C    -127.409000   64.584200  -37.121000
  C    -126.350000   63.646100  -36.929200
  C    -125.289000   64.171700  -36.071800
  C    -125.590000   65.366800  -35.492300
  H    -124.338000   63.679800  -35.786200
  C    -126.305000   62.210700  -37.450000
  H    -127.353000   61.829100  -37.320700
  H    -125.595000   61.590400  -36.873900
  C    -126.029000   62.120100  -38.957000
  H    -125.814000   61.135300  -39.177400
  H    -126.966000   62.337800  -39.577100
  C    -124.750000   62.873200  -39.305600
  H    -124.016000   62.915100  -38.466000
  H    -124.225000   62.303600  -40.033400
  H    -124.999000   63.746900  -39.915700
  S    -125.563000   66.567800  -33.022500
  C    -124.127000   67.322100  -32.430900
  C    -123.066000   67.116900  -33.258300
  C    -123.483000   66.562300  -34.533100
  C    -124.819000   66.152600  -34.550300
  H    -122.043000   67.508400  -33.013800
  C    -122.503000   66.323200  -35.619900
  H    -122.194000   67.318100  -35.933700
  H    -123.083000   65.867000  -36.470200
  C    -121.318000   65.451300  -35.250300
  H    -121.679000   64.429900  -34.935200
  H    -120.791000   65.950800  -34.450700
  C    -120.256000   65.401000  -36.344200
  H    -119.908000   66.359900  -36.591700
  H    -120.478000   64.832400  -37.310100
  H    -119.306000   64.978300  -35.960000
  H    -128.340000   64.470500  -37.690200
  H    -123.952000   67.653300  -31.356400

 Total Charge           Charge          ....    0
 Multiplicity           Mult            ....    1
 Number of Electrons    NEL             ....  134
 Basis Dimension        Dim             ....  322

ORBITAL ENERGIES
----------------

  NO   OCC          E(Eh)            E(eV)
   0   2.0000     -88.962544     -2420.7939
   1   2.0000     -88.962426     -2420.7907
   2   2.0000     -10.327169      -281.0166
   3   2.0000     -10.324615      -280.9471
   4   2.0000     -10.322042      -280.8770
   5   2.0000     -10.318916      -280.7920
   6   2.0000     -10.310654      -280.5672
   7   2.0000     -10.302469      -280.3444
   8   2.0000     -10.298473      -280.2357
   9   2.0000     -10.296464      -280.1810
  10   2.0000     -10.296451      -280.1807
  11   2.0000     -10.291950      -280.0582
  12   2.0000     -10.287062      -279.9252
  13   2.0000     -10.282959      -279.8135
  14   2.0000     -10.280693      -279.7519
  15   2.0000     -10.274137      -279.5735
  16   2.0000      -8.077913      -219.8112
  17   2.0000      -8.076955      -219.7851
  18   2.0000      -6.036405      -164.2589
  19   2.0000      -6.035522      -164.2349
  20   2.0000      -6.032301      -164.1473
  21   2.0000      -6.031379      -164.1222
  22   2.0000      -6.028662      -164.0482
  23   2.0000      -6.027761      -164.0237
  24   2.0000      -1.005962       -27.3736
  25   2.0000      -0.980445       -26.6793
  26   2.0000      -0.914411       -24.8824
  27   2.0000      -0.912059       -24.8184
  28   2.0000      -0.868856       -23.6428
  29   2.0000      -0.851094       -23.1594
  30   2.0000      -0.841023       -22.8854
  31   2.0000      -0.815446       -22.1894
  32   2.0000      -0.781339       -21.2613
  33   2.0000      -0.767842       -20.8940
  34   2.0000      -0.703937       -19.1551
  35   2.0000      -0.699846       -19.0438
  36   2.0000      -0.691329       -18.8120
  37   2.0000      -0.654614       -17.8129
  38   2.0000      -0.639231       -17.3944
  39   2.0000      -0.609797       -16.5934
  40   2.0000      -0.589801       -16.0493
  41   2.0000      -0.572561       -15.5802
  42   2.0000      -0.569780       -15.5045
  43   2.0000      -0.552568       -15.0361
  44   2.0000      -0.541195       -14.7267
  45   2.0000      -0.523633       -14.2488
  46   2.0000      -0.517142       -14.0721
  47   2.0000      -0.510331       -13.8868
  48   2.0000      -0.505787       -13.7632
  49   2.0000      -0.499968       -13.6048
  50   2.0000      -0.489917       -13.3313
  51   2.0000      -0.476241       -12.9592
  52   2.0000      -0.469178       -12.7670
  53   2.0000      -0.464371       -12.6362
  54   2.0000      -0.454370       -12.3640
  55   2.0000      -0.450558       -12.2603
  56   2.0000      -0.436099       -11.8669
  57   2.0000      -0.434110       -11.8127
  58   2.0000      -0.429949       -11.6995
  59   2.0000      -0.425100       -11.5676
  60   2.0000      -0.417548       -11.3620
  61   2.0000      -0.416753       -11.3404
  62   2.0000      -0.406375       -11.0580
  63   2.0000      -0.344209        -9.3664
  64   2.0000      -0.326219        -8.8769
  65   2.0000      -0.325802        -8.8655
  66   2.0000      -0.296364        -8.0645
  67   0.0000       0.033729         0.9178
  68   0.0000       0.067548         1.8381
  69   0.0000       0.115662         3.1473
  70   0.0000       0.118944         3.2366
  71   0.0000       0.125637         3.4187

MULLIKEN ATOMIC CHARGES
-----------------------
   0 S :    0.104776
   1 C :   -0.133767
   2 C :   -0.082044
   3 C :    0.023710
   4 C :   -0.159176
   5 H :    0.024707
   6 C :    0.025601
   7 H :    0.038021
   8 H :    0.035407
   9 C :   -0.057558
  10 H :    0.007232
  11 H :    0.039139
  12 C :   -0.032207
  13 H :    0.037603
  14 H :    0.006416
  15 H :    0.041930
  16 S :    0.110701
  17 C :   -0.102526
  18 C :   -0.061631
  19 C :   -0.042046
  20 C :   -0.156083
  21 H :    0.041760
  22 C :    0.055468
  23 H :    0.023779
  24 H :    0.034079
  25 C :   -0.069917
  26 H :    0.041852
  27 H :    0.022501
  28 C :   -0.043236
  29 H :    0.009144
  30 H :    0.045067
  31 H :    0.025090
  32 H :    0.063800
  33 H :    0.082411
Sum of atomic charges:    0.0000000

LOEWDIN ATOMIC CHARGES
----------------------
   0 S :    0.399136
   1 C :   -0.199923
   2 C :   -0.055042
   3 C :   -0.068547
   4 C :   -0.196057
   5 H :    0.036569
   6 C :   -0.036842
   7 H :    0.038407
   8 H :    0.031227
   9 C :   -0.043822
  10 H :    0.011773
  11 H :    0.032164
  12 C :   -0.071919
  13 H :    0.033143
  14 H :    0.019635
  15 H :    0.035028
  16 S :    0.415543
  17 C :   -0.202168
  18 C :   -0.082308
  19 C :   -0.053348
  20 C :   -0.210354
  21 H :    0.039579
  22 C :   -0.040593
  23 H :    0.031908
  24 H :    0.035584
  25 C :   -0.038654
  26 H :    0.030134
  27 H :    0.024048
  28 C :   -0.071248
  29 H :    0.016546
  30 H :    0.031385
  31 H :    0.028825
  32 H :    0.033075
  33 H :    0.047120

  Mayer bond orders larger than 0.100000
B(  0-S ,  1-C ) :   1.1391 B(  0-S ,  4-C ) :   1.1540 B(  1-C ,  2-C ) :   1.5899
B(  1-C ,  4-C ) :   0.1033 B(  1-C , 32-H ) :   0.9729 B(  2-C ,  3-C ) :   1.2214
B(  2-C ,  6-C ) :   1.0198 B(  3-C ,  4-C ) :   1.6023 B(  3-C ,  5-H ) :   0.9860
B(  4-C , 20-C ) :   1.0178 B(  6-C ,  7-H ) :   0.9423 B(  6-C ,  8-H ) :   0.9487
B(  6-C ,  9-C ) :   1.0874 B(  9-C , 10-H ) :   0.9591 B(  9-C , 11-H ) :   0.9562
B(  9-C , 12-C ) :   1.0668 B( 12-C , 13-H ) :   0.9743 B( 12-C , 14-H ) :   0.9730
B( 12-C , 15-H ) :   0.9722 B( 16-S , 17-C ) :   1.1614 B( 16-S , 20-C ) :   1.1384
B( 17-C , 18-C ) :   1.6301 B( 17-C , 33-H ) :   0.9527 B( 18-C , 19-C ) :   1.2261
B( 18-C , 21-H ) :   0.9776 B( 19-C , 20-C ) :   1.5961 B( 19-C , 22-C ) :   1.0600
B( 22-C , 23-H ) :   0.9193 B( 22-C , 24-H ) :   0.9345 B( 22-C , 25-C ) :   1.0721
B( 25-C , 26-H ) :   0.9547 B( 25-C , 27-H ) :   0.9459 B( 25-C , 28-C ) :   1.0884
B( 28-C , 29-H ) :   0.9688 B( 28-C , 30-H ) :   0.9749 B( 28-C , 31-H ) :   0.9720

Dispersion correction           -0.014497437
FINAL SINGLE POINT ENERGY     -1339.869882576380

DIPOLE MOMENT
-------------
                                X             Y             Z
Electronic contribution:    -19.77059      14.35891      17.55745
Nuclear contribution   :     20.36279     -14.79729     -17.82144
                        -----------------------------------------
Total Dipole Moment    :      0.59220      -0.43838      -0.26399
                        -----------------------------------------
Magnitude (a.u.)       :      0.78267
Magnitude (Debye)      :      1.98938

Rotational constants in cm-1:     0.017475     0.009592     0.006721
Rotational constants in MHz :   523.888645   287.546967   201.483390

                             ****ORCA TERMINATED NORMALLY****
TOTAL RUN TIME: 0 days 0 hours 0 minutes 21 seconds 720 msec
