                         Program Version 4.2.1 -  RELEASE  -
|  1> ! wB97X-D3 SP def2-SVP
|  2> %pal
|  3> nprocs 24
|  4> end
|  5>
|  6> * xyz 0 1
|  7> S 	 -115.249 	 61.2004 	 -73.0453
|  8> C 	 -113.74 	 61.653 	 -72.2182
|  9> C 	 -113.997 	 61.9354 	 -70.9011
| 10> C 	 -115.428 	 62.0756 	 -70.6413
| 11> C 	 -116.262 	 61.6669 	 -71.6786
| 12> H 	 -115.768 	 62.5305 	 -69.7347
| 13> C 	 -112.976 	 62.2139 	 -69.8476
| 14> H 	 -112.441 	 61.236 	 -69.7468
| 15> H 	 -113.607 	 62.3247 	 -68.9789
| 16> C 	 -112.064 	 63.3513 	 -69.9201
| 17> H 	 -111.423 	 63.3755 	 -69.006
| 18> H 	 -111.422 	 63.1281 	 -70.7735
| 19> C 	 -112.619 	 64.7527 	 -70.1056
| 20> H 	 -112.984 	 64.9874 	 -71.1409
| 21> H 	 -113.491 	 64.7841 	 -69.4062
| 22> H 	 -112.048 	 65.5614 	 -69.6354
| 23> S 	 -118.384 	 61.074 	 -70.0397
| 24> C 	 -119.976 	 60.918 	 -70.6938
| 25> C 	 -120.006 	 61.3789 	 -71.9904
| 26> C 	 -118.719 	 61.7362 	 -72.4605
| 27> C 	 -117.679 	 61.5 	 -71.586
| 28> H 	 -120.982 	 61.4205 	 -72.4224
| 29> C 	 -118.455 	 62.2836 	 -73.8277
| 30> H 	 -117.51 	 62.8987 	 -73.6932
| 31> H 	 -119.228 	 62.9679 	 -74.1428
| 32> C 	 -118.225 	 61.1358 	 -74.8784
| 33> H 	 -119.146 	 60.5375 	 -74.9721
| 34> H 	 -117.45 	 60.4535 	 -74.4959
| 35> C 	 -117.859 	 61.7094 	 -76.2513
| 36> H 	 -117.554 	 60.9445 	 -76.907
| 37> H 	 -117.051 	 62.4101 	 -76.1766
| 38> H 	 -118.772 	 62.1192 	 -76.645
| 39> H 	 -112.784 	 61.6378 	 -72.6337
| 40> H 	 -120.851 	 60.7017 	 -70.0468
| 41> *
| 42>
| 43>                          ****END OF INPUT****

CARTESIAN COORDINATES (ANGSTROEM)
---------------------------------
  S    -115.249000   61.200400  -73.045300
  C    -113.740000   61.653000  -72.218200
  C    -113.997000   61.935400  -70.901100
  C    -115.428000   62.075600  -70.641300
  C    -116.262000   61.666900  -71.678600
  H    -115.768000   62.530500  -69.734700
  C    -112.976000   62.213900  -69.847600
  H    -112.441000   61.236000  -69.746800
  H    -113.607000   62.324700  -68.978900
  C    -112.064000   63.351300  -69.920100
  H    -111.423000   63.375500  -69.006000
  H    -111.422000   63.128100  -70.773500
  C    -112.619000   64.752700  -70.105600
  H    -112.984000   64.987400  -71.140900
  H    -113.491000   64.784100  -69.406200
  H    -112.048000   65.561400  -69.635400
  S    -118.384000   61.074000  -70.039700
  C    -119.976000   60.918000  -70.693800
  C    -120.006000   61.378900  -71.990400
  C    -118.719000   61.736200  -72.460500
  C    -117.679000   61.500000  -71.586000
  H    -120.982000   61.420500  -72.422400
  C    -118.455000   62.283600  -73.827700
  H    -117.510000   62.898700  -73.693200
  H    -119.228000   62.967900  -74.142800
  C    -118.225000   61.135800  -74.878400
  H    -119.146000   60.537500  -74.972100
  H    -117.450000   60.453500  -74.495900
  C    -117.859000   61.709400  -76.251300
  H    -117.554000   60.944500  -76.907000
  H    -117.051000   62.410100  -76.176600
  H    -118.772000   62.119200  -76.645000
  H    -112.784000   61.637800  -72.633700
  H    -120.851000   60.701700  -70.046800

 Total Charge           Charge          ....    0
 Multiplicity           Mult            ....    1
 Number of Electrons    NEL             ....  134
 Basis Dimension        Dim             ....  322

ORBITAL ENERGIES
----------------

  NO   OCC          E(Eh)            E(eV)
   0   2.0000     -88.968088     -2420.9448
   1   2.0000     -88.961726     -2420.7716
   2   2.0000     -10.333566      -281.1906
   3   2.0000     -10.322985      -280.9027
   4   2.0000     -10.318619      -280.7839
   5   2.0000     -10.311729      -280.5964
   6   2.0000     -10.300640      -280.2947
   7   2.0000     -10.300059      -280.2788
   8   2.0000     -10.294746      -280.1343
   9   2.0000     -10.292007      -280.0597
  10   2.0000     -10.288899      -279.9752
  11   2.0000     -10.287911      -279.9483
  12   2.0000     -10.286923      -279.9214
  13   2.0000     -10.285203      -279.8746
  14   2.0000     -10.283162      -279.8191
  15   2.0000     -10.266007      -279.3522
  16   2.0000      -8.081376      -219.9054
  17   2.0000      -8.076984      -219.7859
  18   2.0000      -6.040163      -164.3612
  19   2.0000      -6.036025      -164.2486
  20   2.0000      -6.035461      -164.2332
  21   2.0000      -6.031986      -164.1387
  22   2.0000      -6.031403      -164.1228
  23   2.0000      -6.027757      -164.0236
  24   2.0000      -1.009601       -27.4726
  25   2.0000      -0.984443       -26.7881
  26   2.0000      -0.923096       -25.1187
  27   2.0000      -0.904492       -24.6125
  28   2.0000      -0.875542       -23.8247
  29   2.0000      -0.851208       -23.1625
  30   2.0000      -0.845014       -22.9940
  31   2.0000      -0.814883       -22.1741
  32   2.0000      -0.785615       -21.3777
  33   2.0000      -0.770835       -20.9755
  34   2.0000      -0.710659       -19.3380
  35   2.0000      -0.703923       -19.1547
  36   2.0000      -0.693116       -18.8606
  37   2.0000      -0.663994       -18.0682
  38   2.0000      -0.638040       -17.3620
  39   2.0000      -0.609949       -16.5976
  40   2.0000      -0.592136       -16.1128
  41   2.0000      -0.580589       -15.7986
  42   2.0000      -0.564161       -15.3516
  43   2.0000      -0.557383       -15.1672
  44   2.0000      -0.552205       -15.0263
  45   2.0000      -0.525310       -14.2944
  46   2.0000      -0.521538       -14.1918
  47   2.0000      -0.513398       -13.9703
  48   2.0000      -0.509725       -13.8703
  49   2.0000      -0.499883       -13.6025
  50   2.0000      -0.491815       -13.3830
  51   2.0000      -0.476733       -12.9726
  52   2.0000      -0.468716       -12.7544
  53   2.0000      -0.467252       -12.7146
  54   2.0000      -0.463859       -12.6222
  55   2.0000      -0.447383       -12.1739
  56   2.0000      -0.442881       -12.0514
  57   2.0000      -0.433797       -11.8042
  58   2.0000      -0.430497       -11.7144
  59   2.0000      -0.420560       -11.4440
  60   2.0000      -0.415913       -11.3176
  61   2.0000      -0.410103       -11.1595
  62   2.0000      -0.404223       -10.9995
  63   2.0000      -0.355617        -9.6768
  64   2.0000      -0.328595        -8.9415
  65   2.0000      -0.327440        -8.9101
  66   2.0000      -0.287954        -7.8356
  67   0.0000       0.019940         0.5426
  68   0.0000       0.076499         2.0817
  69   0.0000       0.107836         2.9344
  70   0.0000       0.112649         3.0653
  71   0.0000       0.134284         3.6541

MULLIKEN ATOMIC CHARGES
-----------------------
   0 S :    0.088592
   1 C :   -0.095583
   2 C :   -0.117118
   3 C :   -0.009383
   4 C :   -0.112862
   5 H :    0.012498
   6 C :    0.078584
   7 H :    0.049479
   8 H :    0.001561
   9 C :   -0.054464
  10 H :    0.037043
  11 H :    0.019384
  12 C :   -0.060961
  13 H :    0.057942
  14 H :    0.010660
  15 H :    0.037411
  16 S :    0.097019
  17 C :   -0.109800
  18 C :   -0.022377
  19 C :   -0.029500
  20 C :   -0.127081
  21 H :    0.011963
  22 C :    0.026021
  23 H :    0.039954
  24 H :    0.020971
  25 C :   -0.100024
  26 H :    0.027476
  27 H :    0.032086
  28 C :    0.017360
  29 H :    0.021471
  30 H :    0.026918
  31 H :    0.023437
  32 H :    0.027596
  33 H :    0.073726
Sum of atomic charges:   -0.0000000

LOEWDIN ATOMIC CHARGES
----------------------
   0 S :    0.400723
   1 C :   -0.180607
   2 C :   -0.058157
   3 C :   -0.068392
   4 C :   -0.184286
   5 H :    0.023267
   6 C :   -0.040852
   7 H :    0.046948
   8 H :    0.024961
   9 C :   -0.049736
  10 H :    0.034979
  11 H :    0.020796
  12 C :   -0.075533
  13 H :    0.034773
  14 H :    0.026263
  15 H :    0.031120
  16 S :    0.415475
  17 C :   -0.188527
  18 C :   -0.074725
  19 C :   -0.054291
  20 C :   -0.201011
  21 H :    0.031796
  22 C :   -0.038225
  23 H :    0.032477
  24 H :    0.026166
  25 C :   -0.038546
  26 H :    0.023882
  27 H :    0.012296
  28 C :   -0.055968
  29 H :    0.020745
  30 H :    0.022831
  31 H :    0.024129
  32 H :    0.017499
  33 H :    0.037731

  Mayer bond orders larger than 0.100000
B(  0-S ,  1-C ) :   1.1163 B(  0-S ,  4-C ) :   1.1300 B(  1-C ,  2-C ) :   1.6174
B(  1-C , 32-H ) :   0.9816 B(  2-C ,  3-C ) :   1.2393 B(  2-C ,  6-C ) :   1.0127
B(  3-C ,  4-C ) :   1.5536 B(  3-C ,  5-H ) :   0.9880 B(  4-C , 20-C ) :   1.0996
B(  6-C ,  7-H ) :   0.9287 B(  6-C ,  8-H ) :   0.9299 B(  6-C ,  9-C ) :   1.0994
B(  9-C , 10-H ) :   0.9474 B(  9-C , 11-H ) :   0.9497 B(  9-C , 12-C ) :   1.0753
B( 12-C , 13-H ) :   0.9711 B( 12-C , 14-H ) :   0.9712 B( 12-C , 15-H ) :   0.9725
B( 16-S , 17-C ) :   1.1776 B( 16-S , 20-C ) :   1.1303 B( 17-C , 18-C ) :   1.5803
B( 17-C , 33-H ) :   0.9623 B( 18-C , 19-C ) :   1.2396 B( 18-C , 21-H ) :   1.0071
B( 19-C , 20-C ) :   1.5481 B( 19-C , 22-C ) :   1.0574 B( 22-C , 23-H ) :   0.9294
B( 22-C , 24-H ) :   0.9362 B( 22-C , 25-C ) :   1.0549 B( 25-C , 26-H ) :   0.9569
B( 25-C , 27-H ) :   0.9515 B( 25-C , 28-C ) :   1.0825 B( 28-C , 29-H ) :   0.9719
B( 28-C , 30-H ) :   0.9741 B( 28-C , 31-H ) :   0.9741

Dispersion correction           -0.014557651
FINAL SINGLE POINT ENERGY     -1339.877559125020

DIPOLE MOMENT
-------------
                                X             Y             Z
Electronic contribution:     -9.80511     -10.24271       6.85671
Nuclear contribution   :      9.83460      10.49721      -6.77200
                        -----------------------------------------
Total Dipole Moment    :      0.02949       0.25449       0.08472
                        -----------------------------------------
Magnitude (a.u.)       :      0.26984
Magnitude (Debye)      :      0.68588

Rotational constants in cm-1:     0.020416     0.008539     0.006647
Rotational constants in MHz :   612.053081   255.978692   199.279373

                             ****ORCA TERMINATED NORMALLY****
TOTAL RUN TIME: 0 days 0 hours 0 minutes 22 seconds 827 msec
