                         Program Version 4.2.1 -  RELEASE  -
|  1> ! wB97X-D3 SP def2-SVP
|  2> %pal
|  3> nprocs 24
|  4> end
|  5>
|  6> * xyz 0 1
|  7> S 	 -106.498 	 57.0908 	 -101.949
|  8> C 	 -107.979 	 56.3577 	 -101.516
|  9> C 	 -108.044 	 56.2571 	 -100.194
| 10> C 	 -107.049 	 56.9914 	 -99.4585
| 11> C 	 -106.176 	 57.6566 	 -100.334
| 12> H 	 -106.868 	 57.1297 	 -98.3761
| 13> C 	 -109.164 	 55.4674 	 -99.4048
| 14> H 	 -108.645 	 55.2251 	 -98.5026
| 15> H 	 -109.311 	 54.5227 	 -99.934
| 16> C 	 -110.454 	 56.3859 	 -99.1297
| 17> H 	 -110.914 	 56.1009 	 -98.262
| 18> H 	 -110.211 	 57.4641 	 -98.9134
| 19> C 	 -111.494 	 56.3607 	 -100.257
| 20> H 	 -112.267 	 57.098 	 -100.049
| 21> H 	 -111.101 	 56.6981 	 -101.226
| 22> H 	 -112.046 	 55.4587 	 -100.411
| 23> S 	 -104.26 	 58.2894 	 -98.4819
| 24> C 	 -103.177 	 59.7241 	 -98.6594
| 25> C 	 -103.518 	 60.4506 	 -99.8073
| 26> C 	 -104.646 	 59.8298 	 -100.422
| 27> C 	 -105.065 	 58.6024 	 -99.9699
| 28> H 	 -102.92 	 61.3524 	 -100.092
| 29> C 	 -105.325 	 60.5169 	 -101.627
| 30> H 	 -105.762 	 59.8537 	 -102.368
| 31> H 	 -104.447 	 60.9153 	 -102.137
| 32> C 	 -106.426 	 61.5937 	 -101.347
| 33> H 	 -106.82 	 61.9909 	 -102.314
| 34> H 	 -105.996 	 62.4812 	 -100.908
| 35> C 	 -107.632 	 61.0492 	 -100.667
| 36> H 	 -107.897 	 60.014 	 -101.118
| 37> H 	 -108.541 	 61.6779 	 -100.572
| 38> H 	 -107.339 	 60.7868 	 -99.6617
| 39> H 	 -108.456 	 55.6832 	 -102.189
| 40> H 	 -102.398 	 60.0981 	 -98.0481
| 41> *
| 42>
| 43>                          ****END OF INPUT****

CARTESIAN COORDINATES (ANGSTROEM)
---------------------------------
  S    -106.498000   57.090800  -101.949000
  C    -107.979000   56.357700  -101.516000
  C    -108.044000   56.257100  -100.194000
  C    -107.049000   56.991400  -99.458500
  C    -106.176000   57.656600  -100.334000
  H    -106.868000   57.129700  -98.376100
  C    -109.164000   55.467400  -99.404800
  H    -108.645000   55.225100  -98.502600
  H    -109.311000   54.522700  -99.934000
  C    -110.454000   56.385900  -99.129700
  H    -110.914000   56.100900  -98.262000
  H    -110.211000   57.464100  -98.913400
  C    -111.494000   56.360700  -100.257000
  H    -112.267000   57.098000  -100.049000
  H    -111.101000   56.698100  -101.226000
  H    -112.046000   55.458700  -100.411000
  S    -104.260000   58.289400  -98.481900
  C    -103.177000   59.724100  -98.659400
  C    -103.518000   60.450600  -99.807300
  C    -104.646000   59.829800  -100.422000
  C    -105.065000   58.602400  -99.969900
  H    -102.920000   61.352400  -100.092000
  C    -105.325000   60.516900  -101.627000
  H    -105.762000   59.853700  -102.368000
  H    -104.447000   60.915300  -102.137000
  C    -106.426000   61.593700  -101.347000
  H    -106.820000   61.990900  -102.314000
  H    -105.996000   62.481200  -100.908000
  C    -107.632000   61.049200  -100.667000
  H    -107.897000   60.014000  -101.118000
  H    -108.541000   61.677900  -100.572000
  H    -107.339000   60.786800  -99.661700
  H    -108.456000   55.683200  -102.189000
  H    -102.398000   60.098100  -98.048100

 Total Charge           Charge          ....    0
 Multiplicity           Mult            ....    1
 Number of Electrons    NEL             ....  134
 Basis Dimension        Dim             ....  322

ORBITAL ENERGIES
----------------

  NO   OCC          E(Eh)            E(eV)
   0   2.0000     -88.969085     -2420.9719
   1   2.0000     -88.963845     -2420.8293
   2   2.0000     -10.338979      -281.3379
   3   2.0000     -10.330869      -281.1172
   4   2.0000     -10.324678      -280.9488
   5   2.0000     -10.305499      -280.4269
   6   2.0000     -10.304556      -280.4012
   7   2.0000     -10.304100      -280.3888
   8   2.0000     -10.301157      -280.3087
   9   2.0000     -10.300441      -280.2892
  10   2.0000     -10.297870      -280.2193
  11   2.0000     -10.290151      -280.0093
  12   2.0000     -10.286139      -279.9001
  13   2.0000     -10.281711      -279.7796
  14   2.0000     -10.274427      -279.5814
  15   2.0000     -10.272506      -279.5291
  16   2.0000      -8.083130      -219.9531
  17   2.0000      -8.079374      -219.8510
  18   2.0000      -6.041787      -164.4054
  19   2.0000      -6.037849      -164.2982
  20   2.0000      -6.037684      -164.2937
  21   2.0000      -6.033818      -164.1885
  22   2.0000      -6.033766      -164.1871
  23   2.0000      -6.030101      -164.0874
  24   2.0000      -1.011922       -27.5358
  25   2.0000      -0.990937       -26.9648
  26   2.0000      -0.900517       -24.5043
  27   2.0000      -0.899141       -24.4669
  28   2.0000      -0.873437       -23.7674
  29   2.0000      -0.849177       -23.1073
  30   2.0000      -0.841127       -22.8882
  31   2.0000      -0.820634       -22.3306
  32   2.0000      -0.780135       -21.2286
  33   2.0000      -0.767573       -20.8867
  34   2.0000      -0.709079       -19.2950
  35   2.0000      -0.701108       -19.0781
  36   2.0000      -0.687217       -18.7001
  37   2.0000      -0.669165       -18.2089
  38   2.0000      -0.643888       -17.5211
  39   2.0000      -0.610476       -16.6119
  40   2.0000      -0.587288       -15.9809
  41   2.0000      -0.572224       -15.5710
  42   2.0000      -0.550554       -14.9813
  43   2.0000      -0.545395       -14.8410
  44   2.0000      -0.540021       -14.6947
  45   2.0000      -0.532169       -14.4811
  46   2.0000      -0.519550       -14.1377
  47   2.0000      -0.515559       -14.0291
  48   2.0000      -0.507875       -13.8200
  49   2.0000      -0.491100       -13.3635
  50   2.0000      -0.490096       -13.3362
  51   2.0000      -0.478204       -13.0126
  52   2.0000      -0.472321       -12.8525
  53   2.0000      -0.458952       -12.4887
  54   2.0000      -0.453284       -12.3345
  55   2.0000      -0.446582       -12.1521
  56   2.0000      -0.443033       -12.0555
  57   2.0000      -0.436738       -11.8843
  58   2.0000      -0.433791       -11.8040
  59   2.0000      -0.428562       -11.6618
  60   2.0000      -0.413007       -11.2385
  61   2.0000      -0.406216       -11.0537
  62   2.0000      -0.396409       -10.7868
  63   2.0000      -0.357238        -9.7209
  64   2.0000      -0.332044        -9.0354
  65   2.0000      -0.327832        -8.9208
  66   2.0000      -0.295294        -8.0354
  67   0.0000       0.023506         0.6396
  68   0.0000       0.073260         1.9935
  69   0.0000       0.108703         2.9580
  70   0.0000       0.118047         3.2122
  71   0.0000       0.127532         3.4703

MULLIKEN ATOMIC CHARGES
-----------------------
   0 S :    0.108537
   1 C :   -0.101419
   2 C :   -0.120713
   3 C :    0.006881
   4 C :   -0.149873
   5 H :    0.033768
   6 C :    0.079206
   7 H :    0.015634
   8 H :    0.031426
   9 C :   -0.025237
  10 H :    0.008970
  11 H :    0.039506
  12 C :   -0.055097
  13 H :    0.022910
  14 H :    0.029211
  15 H :    0.028053
  16 S :    0.084196
  17 C :   -0.076906
  18 C :   -0.046509
  19 C :   -0.072985
  20 C :   -0.100610
  21 H :    0.051369
  22 C :    0.035244
  23 H :    0.023572
  24 H :    0.018493
  25 C :   -0.039055
  26 H :    0.023834
  27 H :    0.016722
  28 C :   -0.069114
  29 H :    0.039157
  30 H :    0.044209
  31 H :    0.024850
  32 H :    0.048280
  33 H :    0.043489
Sum of atomic charges:   -0.0000000

LOEWDIN ATOMIC CHARGES
----------------------
   0 S :    0.429116
   1 C :   -0.213667
   2 C :   -0.062926
   3 C :   -0.076953
   4 C :   -0.186382
   5 H :    0.034026
   6 C :   -0.020415
   7 H :    0.025019
   8 H :    0.029804
   9 C :   -0.029721
  10 H :    0.010395
  11 H :    0.036904
  12 C :   -0.068526
  13 H :    0.027646
  14 H :    0.024981
  15 H :    0.019484
  16 S :    0.402276
  17 C :   -0.163432
  18 C :   -0.071481
  19 C :   -0.064030
  20 C :   -0.205798
  21 H :    0.047593
  22 C :   -0.035201
  23 H :    0.019876
  24 H :    0.029115
  25 C :   -0.043267
  26 H :    0.027091
  27 H :    0.016574
  28 C :   -0.076273
  29 H :    0.036242
  30 H :    0.028964
  31 H :    0.020152
  32 H :    0.027582
  33 H :    0.025233

  Mayer bond orders larger than 0.100000
B(  0-S ,  1-C ) :   1.1303 B(  0-S ,  4-C ) :   1.1783 B(  1-C ,  2-C ) :   1.6424
B(  1-C , 32-H ) :   0.9641 B(  2-C ,  3-C ) :   1.2397 B(  2-C ,  6-C ) :   1.0078
B(  3-C ,  4-C ) :   1.5668 B(  3-C ,  5-H ) :   0.9841 B(  4-C , 20-C ) :   1.0119
B(  6-C ,  7-H ) :   0.9442 B(  6-C ,  8-H ) :   0.9520 B(  6-C ,  9-C ) :   1.0391
B(  9-C , 10-H ) :   0.9582 B(  9-C , 11-H ) :   0.9602 B(  9-C , 12-C ) :   1.0821
B( 12-C , 13-H ) :   0.9710 B( 12-C , 14-H ) :   0.9742 B( 12-C , 15-H ) :   0.9782
B( 16-S , 17-C ) :   1.1538 B( 16-S , 20-C ) :   1.1210 B( 17-C , 18-C ) :   1.6136
B( 17-C , 33-H ) :   0.9697 B( 18-C , 19-C ) :   1.2412 B( 18-C , 21-H ) :   0.9817
B( 19-C , 20-C ) :   1.6057 B( 19-C , 22-C ) :   1.0202 B( 22-C , 23-H ) :   0.9448
B( 22-C , 24-H ) :   0.9369 B( 22-C , 25-C ) :   1.0729 B( 25-C , 26-H ) :   0.9533
B( 25-C , 27-H ) :   0.9566 B( 25-C , 28-C ) :   1.0715 B( 28-C , 29-H ) :   0.9668
B( 28-C , 30-H ) :   0.9733 B( 28-C , 31-H ) :   0.9732

Dispersion correction           -0.015516672
FINAL SINGLE POINT ENERGY     -1339.853467966026

DIPOLE MOMENT
-------------
                                X             Y             Z
Electronic contribution:     22.21155      -6.17467       1.39034
Nuclear contribution   :    -22.44698       6.30460      -1.22759
                        -----------------------------------------
Total Dipole Moment    :     -0.23543       0.12992       0.16275
                        -----------------------------------------
Magnitude (a.u.)       :      0.31432
Magnitude (Debye)      :      0.79893

Rotational constants in cm-1:     0.021830     0.008349     0.007463
Rotational constants in MHz :   654.457617   250.288750   223.745082

                             ****ORCA TERMINATED NORMALLY****
TOTAL RUN TIME: 0 days 0 hours 0 minutes 22 seconds 246 msec
