                         Program Version 4.2.1 -  RELEASE  -
|  1> ! wB97X-D3 SP def2-SVP
|  2> %pal
|  3> nprocs 24
|  4> end
|  5>
|  6> * xyz 0 1
|  7> S 	 37.6121 	 -4.38965 	 -119.133
|  8> C 	 36.9889 	 -5.95118 	 -119.652
|  9> C 	 37.5602 	 -6.33914 	 -120.862
| 10> C 	 38.5993 	 -5.39478 	 -121.356
| 11> C 	 38.7503 	 -4.31028 	 -120.485
| 12> H 	 39.3297 	 -5.61332 	 -122.098
| 13> C 	 37.0912 	 -7.45722 	 -121.777
| 14> H 	 37.1021 	 -8.41506 	 -121.262
| 15> H 	 37.8418 	 -7.50092 	 -122.632
| 16> C 	 35.6446 	 -6.99889 	 -122.242
| 17> H 	 35.035 	 -7.08789 	 -121.358
| 18> H 	 35.6245 	 -5.96394 	 -122.599
| 19> C 	 35.1019 	 -7.78572 	 -123.482
| 20> H 	 34.1247 	 -7.48148 	 -123.687
| 21> H 	 35.7243 	 -7.66671 	 -124.315
| 22> H 	 35.0957 	 -8.88256 	 -123.226
| 23> S 	 40.4637 	 -3.01368 	 -122.215
| 24> C 	 41.3361 	 -1.59731 	 -121.789
| 25> C 	 40.996 	 -1.18831 	 -120.517
| 26> C 	 39.9995 	 -2.04327 	 -119.913
| 27> C 	 39.6702 	 -3.1326 	 -120.692
| 28> H 	 41.4228 	 -0.246649 	 -120.035
| 29> C 	 39.5758 	 -1.83652 	 -118.442
| 30> H 	 38.5236 	 -1.9089 	 -118.23
| 31> H 	 39.8093 	 -0.825127 	 -118.154
| 32> C 	 40.4485 	 -2.6501 	 -117.457
| 33> H 	 41.4686 	 -2.43281 	 -117.76
| 34> H 	 40.1218 	 -3.7236 	 -117.458
| 35> C 	 40.3002 	 -2.08897 	 -116.052
| 36> H 	 40.8191 	 -2.57317 	 -115.264
| 37> H 	 39.2031 	 -2.02944 	 -115.741
| 38> H 	 40.6061 	 -1.07938 	 -115.893
| 39> H 	 36.1335 	 -6.39964 	 -119.285
| 40> H 	 41.9845 	 -1.04941 	 -122.49
| 41> *
| 42>
| 43>                          ****END OF INPUT****

CARTESIAN COORDINATES (ANGSTROEM)
---------------------------------
  S     37.612100   -4.389650  -119.133000
  C     36.988900   -5.951180  -119.652000
  C     37.560200   -6.339140  -120.862000
  C     38.599300   -5.394780  -121.356000
  C     38.750300   -4.310280  -120.485000
  H     39.329700   -5.613320  -122.098000
  C     37.091200   -7.457220  -121.777000
  H     37.102100   -8.415060  -121.262000
  H     37.841800   -7.500920  -122.632000
  C     35.644600   -6.998890  -122.242000
  H     35.035000   -7.087890  -121.358000
  H     35.624500   -5.963940  -122.599000
  C     35.101900   -7.785720  -123.482000
  H     34.124700   -7.481480  -123.687000
  H     35.724300   -7.666710  -124.315000
  H     35.095700   -8.882560  -123.226000
  S     40.463700   -3.013680  -122.215000
  C     41.336100   -1.597310  -121.789000
  C     40.996000   -1.188310  -120.517000
  C     39.999500   -2.043270  -119.913000
  C     39.670200   -3.132600  -120.692000
  H     41.422800   -0.246649  -120.035000
  C     39.575800   -1.836520  -118.442000
  H     38.523600   -1.908900  -118.230000
  H     39.809300   -0.825127  -118.154000
  C     40.448500   -2.650100  -117.457000
  H     41.468600   -2.432810  -117.760000
  H     40.121800   -3.723600  -117.458000
  C     40.300200   -2.088970  -116.052000
  H     40.819100   -2.573170  -115.264000
  H     39.203100   -2.029440  -115.741000
  H     40.606100   -1.079380  -115.893000
  H     36.133500   -6.399640  -119.285000
  H     41.984500   -1.049410  -122.490000

 Total Charge           Charge          ....    0
 Multiplicity           Mult            ....    1
 Number of Electrons    NEL             ....  134
 Basis Dimension        Dim             ....  322

ORBITAL ENERGIES
----------------

  NO   OCC          E(Eh)            E(eV)
   0   2.0000     -88.969611     -2420.9862
   1   2.0000     -88.965848     -2420.8838
   2   2.0000     -10.342062      -281.4218
   3   2.0000     -10.330271      -281.1010
   4   2.0000     -10.319935      -280.8197
   5   2.0000     -10.309655      -280.5400
   6   2.0000     -10.307846      -280.4908
   7   2.0000     -10.305861      -280.4367
   8   2.0000     -10.302442      -280.3437
   9   2.0000     -10.300690      -280.2960
  10   2.0000     -10.297701      -280.2147
  11   2.0000     -10.291618      -280.0492
  12   2.0000     -10.288081      -279.9529
  13   2.0000     -10.285758      -279.8897
  14   2.0000     -10.273365      -279.5525
  15   2.0000     -10.271588      -279.5041
  16   2.0000      -8.082904      -219.9470
  17   2.0000      -8.081642      -219.9127
  18   2.0000      -6.041677      -164.4024
  19   2.0000      -6.040147      -164.3608
  20   2.0000      -6.037526      -164.2894
  21   2.0000      -6.035915      -164.2456
  22   2.0000      -6.033586      -164.1822
  23   2.0000      -6.032441      -164.1511
  24   2.0000      -1.008228       -27.4353
  25   2.0000      -0.981073       -26.6964
  26   2.0000      -0.909335       -24.7443
  27   2.0000      -0.904447       -24.6113
  28   2.0000      -0.865886       -23.5620
  29   2.0000      -0.850352       -23.1393
  30   2.0000      -0.841983       -22.9115
  31   2.0000      -0.814003       -22.1502
  32   2.0000      -0.779196       -21.2030
  33   2.0000      -0.770506       -20.9665
  34   2.0000      -0.705999       -19.2112
  35   2.0000      -0.698612       -19.0102
  36   2.0000      -0.688988       -18.7483
  37   2.0000      -0.667326       -18.1589
  38   2.0000      -0.638099       -17.3635
  39   2.0000      -0.613592       -16.6967
  40   2.0000      -0.596985       -16.2448
  41   2.0000      -0.569875       -15.5071
  42   2.0000      -0.562600       -15.3091
  43   2.0000      -0.560128       -15.2419
  44   2.0000      -0.525295       -14.2940
  45   2.0000      -0.522907       -14.2290
  46   2.0000      -0.516412       -14.0523
  47   2.0000      -0.513068       -13.9613
  48   2.0000      -0.508666       -13.8415
  49   2.0000      -0.503221       -13.6933
  50   2.0000      -0.487076       -13.2540
  51   2.0000      -0.477267       -12.9871
  52   2.0000      -0.471006       -12.8167
  53   2.0000      -0.463561       -12.6141
  54   2.0000      -0.456720       -12.4280
  55   2.0000      -0.450381       -12.2555
  56   2.0000      -0.448701       -12.2098
  57   2.0000      -0.433468       -11.7953
  58   2.0000      -0.428259       -11.6535
  59   2.0000      -0.423233       -11.5168
  60   2.0000      -0.419617       -11.4184
  61   2.0000      -0.414603       -11.2819
  62   2.0000      -0.411862       -11.2073
  63   2.0000      -0.363399        -9.8886
  64   2.0000      -0.331723        -9.0266
  65   2.0000      -0.325150        -8.8478
  66   2.0000      -0.287054        -7.8111
  67   0.0000       0.021318         0.5801
  68   0.0000       0.085358         2.3227
  69   0.0000       0.111109         3.0234
  70   0.0000       0.122992         3.3468
  71   0.0000       0.127719         3.4754

MULLIKEN ATOMIC CHARGES
-----------------------
   0 S :    0.085379
   1 C :   -0.078928
   2 C :   -0.104926
   3 C :   -0.014742
   4 C :   -0.094822
   5 H :    0.026106
   6 C :    0.042173
   7 H :    0.043395
   8 H :    0.033083
   9 C :   -0.105331
  10 H :    0.028964
  11 H :    0.046089
  12 C :   -0.009762
  13 H :    0.025881
  14 H :    0.025874
  15 H :    0.026641
  16 S :    0.089657
  17 C :   -0.092861
  18 C :   -0.049831
  19 C :   -0.083498
  20 C :   -0.095475
  21 H :    0.046694
  22 C :    0.035164
  23 H :    0.033225
  24 H :   -0.001440
  25 C :   -0.033611
  26 H :    0.029367
  27 H :    0.050874
  28 C :   -0.057335
  29 H :    0.025410
  30 H :    0.024024
  31 H :    0.012482
  32 H :    0.022275
  33 H :    0.069805
Sum of atomic charges:   -0.0000000

LOEWDIN ATOMIC CHARGES
----------------------
   0 S :    0.404312
   1 C :   -0.198088
   2 C :   -0.044938
   3 C :   -0.079838
   4 C :   -0.166940
   5 H :    0.023816
   6 C :   -0.033664
   7 H :    0.030944
   8 H :    0.034008
   9 C :   -0.030323
  10 H :    0.019265
  11 H :    0.030213
  12 C :   -0.058127
  13 H :    0.018007
  14 H :    0.017650
  15 H :    0.028170
  16 S :    0.433394
  17 C :   -0.198356
  18 C :   -0.080347
  19 C :   -0.063300
  20 C :   -0.201457
  21 H :    0.044570
  22 C :   -0.037431
  23 H :    0.018502
  24 H :    0.025758
  25 C :   -0.034930
  26 H :    0.026474
  27 H :    0.028578
  28 C :   -0.074104
  29 H :    0.020668
  30 H :    0.030017
  31 H :    0.017872
  32 H :    0.012414
  33 H :    0.037211

  Mayer bond orders larger than 0.100000
B(  0-S ,  1-C ) :   1.1091 B(  0-S ,  4-C ) :   1.1472 B(  1-C ,  2-C ) :   1.6357
B(  1-C , 32-H ) :   0.9758 B(  2-C ,  3-C ) :   1.2247 B(  2-C ,  6-C ) :   1.0284
B(  3-C ,  4-C ) :   1.5915 B(  3-C ,  5-H ) :   0.9769 B(  4-C , 20-C ) :   1.0517
B(  6-C ,  7-H ) :   0.9398 B(  6-C ,  8-H ) :   0.9496 B(  6-C ,  9-C ) :   1.0438
B(  9-C , 10-H ) :   0.9590 B(  9-C , 11-H ) :   0.9627 B(  9-C , 12-C ) :   1.0776
B( 12-C , 13-H ) :   0.9751 B( 12-C , 14-H ) :   0.9782 B( 12-C , 15-H ) :   0.9743
B( 16-S , 17-C ) :   1.1679 B( 16-S , 20-C ) :   1.1468 B( 17-C , 18-C ) :   1.5897
B( 17-C , 33-H ) :   0.9669 B( 18-C , 19-C ) :   1.2646 B( 18-C , 21-H ) :   0.9784
B( 19-C , 20-C ) :   1.5761 B( 19-C , 22-C ) :   1.0493 B( 22-C , 23-H ) :   0.9366
B( 22-C , 24-H ) :   0.9313 B( 22-C , 25-C ) :   1.0569 B( 25-C , 26-H ) :   0.9536
B( 25-C , 27-H ) :   0.9510 B( 25-C , 28-C ) :   1.0858 B( 28-C , 29-H ) :   0.9734
B( 28-C , 30-H ) :   0.9716 B( 28-C , 31-H ) :   0.9712

Dispersion correction           -0.013920240
FINAL SINGLE POINT ENERGY     -1339.875012993082

DIPOLE MOMENT
-------------
                                X             Y             Z
Electronic contribution:      7.40594       6.81425      -5.52774
Nuclear contribution   :     -7.45849      -6.79291       5.45742
                        -----------------------------------------
Total Dipole Moment    :     -0.05255       0.02133      -0.07032
                        -----------------------------------------
Magnitude (a.u.)       :      0.09034
Magnitude (Debye)      :      0.22962

Rotational constants in cm-1:     0.022298     0.007768     0.006045
Rotational constants in MHz :   668.482903   232.885982   181.236837

                             ****ORCA TERMINATED NORMALLY****
TOTAL RUN TIME: 0 days 0 hours 0 minutes 20 seconds 968 msec
