                         Program Version 4.2.1 -  RELEASE  -
|  1> ! wB97X-D3 SP def2-SVP
|  2> %pal
|  3> nprocs 24
|  4> end
|  5>
|  6> * xyz 0 1
|  7> S 	 -132.928 	 64.8611 	 -63.8232
|  8> C 	 -132.323 	 66.1653 	 -64.948
|  9> C 	 -132.873 	 67.3477 	 -64.5898
| 10> C 	 -133.638 	 67.3186 	 -63.4019
| 11> C 	 -133.757 	 66.0348 	 -62.8409
| 12> H 	 -134.179 	 68.1566 	 -62.9506
| 13> C 	 -132.713 	 68.5831 	 -65.4495
| 14> H 	 -131.999 	 68.284 	 -66.2487
| 15> H 	 -132.256 	 69.4439 	 -64.9866
| 16> C 	 -134.069 	 69.1575 	 -65.9481
| 17> H 	 -134.632 	 69.4211 	 -65.0487
| 18> H 	 -133.929 	 70.0535 	 -66.548
| 19> C 	 -134.921 	 68.1554 	 -66.764
| 20> H 	 -135.588 	 68.7157 	 -67.3015
| 21> H 	 -134.199 	 67.6826 	 -67.5162
| 22> H 	 -135.415 	 67.3993 	 -66.1928
| 23> S 	 -136.113 	 64.8815 	 -61.8607
| 24> C 	 -136.483 	 65.0635 	 -60.2256
| 25> C 	 -135.482 	 65.6976 	 -59.4959
| 26> C 	 -134.363 	 66.0937 	 -60.3169
| 27> C 	 -134.514 	 65.6596 	 -61.664
| 28> H 	 -135.532 	 65.6705 	 -58.4159
| 29> C 	 -133.131 	 66.7943 	 -59.9135
| 30> H 	 -132.945 	 66.5629 	 -58.8179
| 31> H 	 -133.111 	 67.8808 	 -60.0298
| 32> C 	 -131.754 	 66.2046 	 -60.4734
| 33> H 	 -130.879 	 66.6846 	 -60.0731
| 34> H 	 -131.603 	 66.2212 	 -61.5023
| 35> C 	 -131.539 	 64.7157 	 -59.9615
| 36> H 	 -132.476 	 64.0747 	 -60.1382
| 37> H 	 -131.37 	 64.7061 	 -58.9405
| 38> H 	 -130.649 	 64.3167 	 -60.4387
| 39> H 	 -131.697 	 66.0413 	 -65.8235
| 40> H 	 -137.392 	 64.6795 	 -59.7948
| 41> *
| 42>
| 43>                          ****END OF INPUT****

CARTESIAN COORDINATES (ANGSTROEM)
---------------------------------
  S    -132.928000   64.861100  -63.823200
  C    -132.323000   66.165300  -64.948000
  C    -132.873000   67.347700  -64.589800
  C    -133.638000   67.318600  -63.401900
  C    -133.757000   66.034800  -62.840900
  H    -134.179000   68.156600  -62.950600
  C    -132.713000   68.583100  -65.449500
  H    -131.999000   68.284000  -66.248700
  H    -132.256000   69.443900  -64.986600
  C    -134.069000   69.157500  -65.948100
  H    -134.632000   69.421100  -65.048700
  H    -133.929000   70.053500  -66.548000
  C    -134.921000   68.155400  -66.764000
  H    -135.588000   68.715700  -67.301500
  H    -134.199000   67.682600  -67.516200
  H    -135.415000   67.399300  -66.192800
  S    -136.113000   64.881500  -61.860700
  C    -136.483000   65.063500  -60.225600
  C    -135.482000   65.697600  -59.495900
  C    -134.363000   66.093700  -60.316900
  C    -134.514000   65.659600  -61.664000
  H    -135.532000   65.670500  -58.415900
  C    -133.131000   66.794300  -59.913500
  H    -132.945000   66.562900  -58.817900
  H    -133.111000   67.880800  -60.029800
  C    -131.754000   66.204600  -60.473400
  H    -130.879000   66.684600  -60.073100
  H    -131.603000   66.221200  -61.502300
  C    -131.539000   64.715700  -59.961500
  H    -132.476000   64.074700  -60.138200
  H    -131.370000   64.706100  -58.940500
  H    -130.649000   64.316700  -60.438700
  H    -131.697000   66.041300  -65.823500
  H    -137.392000   64.679500  -59.794800

 Total Charge           Charge          ....    0
 Multiplicity           Mult            ....    1
 Number of Electrons    NEL             ....  134
 Basis Dimension        Dim             ....  322

ORBITAL ENERGIES
----------------

  NO   OCC          E(Eh)            E(eV)
   0   2.0000     -88.967226     -2420.9213
   1   2.0000     -88.966806     -2420.9099
   2   2.0000     -10.332635      -281.1653
   3   2.0000     -10.327814      -281.0341
   4   2.0000     -10.317414      -280.7511
   5   2.0000     -10.317333      -280.7489
   6   2.0000     -10.310878      -280.5733
   7   2.0000     -10.298549      -280.2378
   8   2.0000     -10.298031      -280.2237
   9   2.0000     -10.297328      -280.2045
  10   2.0000     -10.296024      -280.1691
  11   2.0000     -10.292692      -280.0784
  12   2.0000     -10.287949      -279.9493
  13   2.0000     -10.277844      -279.6744
  14   2.0000     -10.269585      -279.4496
  15   2.0000     -10.268671      -279.4248
  16   2.0000      -8.082561      -219.9377
  17   2.0000      -8.080320      -219.8767
  18   2.0000      -6.040874      -164.3805
  19   2.0000      -6.038871      -164.3260
  20   2.0000      -6.036836      -164.2707
  21   2.0000      -6.034990      -164.2204
  22   2.0000      -6.033641      -164.1837
  23   2.0000      -6.031091      -164.1143
  24   2.0000      -1.004431       -27.3320
  25   2.0000      -0.983352       -26.7584
  26   2.0000      -0.911490       -24.8029
  27   2.0000      -0.902335       -24.5538
  28   2.0000      -0.866905       -23.5897
  29   2.0000      -0.845227       -22.9998
  30   2.0000      -0.839662       -22.8484
  31   2.0000      -0.811623       -22.0854
  32   2.0000      -0.784685       -21.3524
  33   2.0000      -0.770519       -20.9669
  34   2.0000      -0.714558       -19.4441
  35   2.0000      -0.694214       -18.8905
  36   2.0000      -0.687867       -18.7178
  37   2.0000      -0.658623       -17.9221
  38   2.0000      -0.637853       -17.3569
  39   2.0000      -0.618730       -16.8365
  40   2.0000      -0.594075       -16.1656
  41   2.0000      -0.569821       -15.5056
  42   2.0000      -0.550575       -14.9819
  43   2.0000      -0.549324       -14.9479
  44   2.0000      -0.546221       -14.8634
  45   2.0000      -0.541147       -14.7254
  46   2.0000      -0.515116       -14.0170
  47   2.0000      -0.506532       -13.7834
  48   2.0000      -0.504045       -13.7158
  49   2.0000      -0.492457       -13.4004
  50   2.0000      -0.484458       -13.1828
  51   2.0000      -0.479901       -13.0588
  52   2.0000      -0.470184       -12.7943
  53   2.0000      -0.463654       -12.6167
  54   2.0000      -0.460363       -12.5271
  55   2.0000      -0.445753       -12.1295
  56   2.0000      -0.438651       -11.9363
  57   2.0000      -0.433010       -11.7828
  58   2.0000      -0.428083       -11.6487
  59   2.0000      -0.420314       -11.4373
  60   2.0000      -0.418251       -11.3812
  61   2.0000      -0.416949       -11.3457
  62   2.0000      -0.406720       -11.0674
  63   2.0000      -0.335824        -9.1382
  64   2.0000      -0.333588        -9.0774
  65   2.0000      -0.327332        -8.9071
  66   2.0000      -0.300730        -8.1833
  67   0.0000       0.031838         0.8664
  68   0.0000       0.056924         1.5490
  69   0.0000       0.110555         3.0084
  70   0.0000       0.122153         3.3240
  71   0.0000       0.126219         3.4346

MULLIKEN ATOMIC CHARGES
-----------------------
   0 S :    0.102320
   1 C :   -0.134521
   2 C :   -0.060446
   3 C :    0.044701
   4 C :   -0.196713
   5 H :    0.021189
   6 C :    0.076696
   7 H :    0.013818
   8 H :    0.029687
   9 C :   -0.112856
  10 H :    0.030422
  11 H :    0.034078
  12 C :   -0.016545
  13 H :    0.013056
  14 H :    0.025377
  15 H :    0.045901
  16 S :    0.123251
  17 C :   -0.093071
  18 C :   -0.029289
  19 C :   -0.011350
  20 C :   -0.158647
  21 H :    0.023013
  22 C :    0.024093
  23 H :    0.029079
  24 H :    0.052370
  25 C :   -0.053109
  26 H :    0.018314
  27 H :    0.032765
  28 C :   -0.076322
  29 H :    0.051713
  30 H :    0.010916
  31 H :    0.034320
  32 H :    0.047988
  33 H :    0.057804
Sum of atomic charges:   -0.0000000

LOEWDIN ATOMIC CHARGES
----------------------
   0 S :    0.385055
   1 C :   -0.176407
   2 C :   -0.066192
   3 C :   -0.061772
   4 C :   -0.194097
   5 H :    0.034849
   6 C :   -0.030727
   7 H :    0.027821
   8 H :    0.029201
   9 C :   -0.037943
  10 H :    0.022384
  11 H :    0.024638
  12 C :   -0.057462
  13 H :    0.012306
  14 H :    0.031439
  15 H :    0.025060
  16 S :    0.427051
  17 C :   -0.196474
  18 C :   -0.077645
  19 C :   -0.047733
  20 C :   -0.203814
  21 H :    0.032710
  22 C :   -0.039884
  23 H :    0.040090
  24 H :    0.034993
  25 C :   -0.029652
  26 H :    0.022848
  27 H :    0.009066
  28 C :   -0.065201
  29 H :    0.032712
  30 H :    0.007649
  31 H :    0.025703
  32 H :    0.030807
  33 H :    0.028623

  Mayer bond orders larger than 0.100000
B(  0-S ,  1-C ) :   1.1103 B(  0-S ,  4-C ) :   1.1578 B(  1-C ,  2-C ) :   1.6311
B(  1-C , 32-H ) :   0.9665 B(  2-C ,  3-C ) :   1.2214 B(  2-C ,  6-C ) :   1.0266
B(  3-C ,  4-C ) :   1.5762 B(  3-C ,  5-H ) :   0.9948 B(  4-C , 20-C ) :   1.0279
B(  6-C ,  7-H ) :   0.9414 B(  6-C ,  8-H ) :   0.9406 B(  6-C ,  9-C ) :   1.0667
B(  9-C , 10-H ) :   0.9536 B(  9-C , 11-H ) :   0.9601 B(  9-C , 12-C ) :   1.0722
B( 12-C , 13-H ) :   0.9750 B( 12-C , 14-H ) :   0.9773 B( 12-C , 15-H ) :   0.9750
B( 16-S , 17-C ) :   1.1970 B( 16-S , 20-C ) :   1.1435 B( 17-C , 18-C ) :   1.5775
B( 17-C , 20-C ) :   0.1012 B( 17-C , 33-H ) :   0.9656 B( 18-C , 19-C ) :   1.2571
B( 18-C , 21-H ) :   0.9906 B( 19-C , 20-C ) :   1.5572 B( 19-C , 22-C ) :   1.0481
B( 22-C , 23-H ) :   0.9433 B( 22-C , 24-H ) :   0.9321 B( 22-C , 25-C ) :   1.0593
B( 25-C , 26-H ) :   0.9563 B( 25-C , 27-H ) :   0.9595 B( 25-C , 28-C ) :   1.0687
B( 28-C , 29-H ) :   0.9758 B( 28-C , 30-H ) :   0.9781 B( 28-C , 31-H ) :   0.9760

Dispersion correction           -0.016202596
FINAL SINGLE POINT ENERGY     -1339.870580170015

DIPOLE MOMENT
-------------
                                X             Y             Z
Electronic contribution:     -9.21854     -12.78684       2.82034
Nuclear contribution   :      9.26401      13.33475      -2.72563
                        -----------------------------------------
Total Dipole Moment    :      0.04547       0.54791       0.09472
                        -----------------------------------------
Magnitude (a.u.)       :      0.55789
Magnitude (Debye)      :      1.41804

Rotational constants in cm-1:     0.020621     0.009334     0.008043
Rotational constants in MHz :   618.216235   279.817914   241.128851

                             ****ORCA TERMINATED NORMALLY****
TOTAL RUN TIME: 0 days 0 hours 0 minutes 22 seconds 745 msec
