                         Program Version 4.2.1 -  RELEASE  -
|  1> ! wB97X-D3 SP def2-SVP
|  2> %pal
|  3> nprocs 24
|  4> end
|  5>
|  6> * xyz 0 1
|  7> S 	 -107.414 	 57.471 	 -13.6754
|  8> C 	 -106.618 	 58.7885 	 -12.8221
|  9> C 	 -106.153 	 59.6859 	 -13.7847
| 10> C 	 -106.337 	 59.2877 	 -15.1317
| 11> C 	 -106.831 	 58.0182 	 -15.2583
| 12> H 	 -106.038 	 59.8218 	 -15.9808
| 13> C 	 -105.63 	 61.0263 	 -13.5092
| 14> H 	 -105.881 	 61.681 	 -14.3704
| 15> H 	 -104.571 	 60.8736 	 -13.5287
| 16> C 	 -105.902 	 61.6498 	 -12.1994
| 17> H 	 -105.916 	 60.8891 	 -11.3475
| 18> H 	 -105.077 	 62.2602 	 -12.0461
| 19> C 	 -107.293 	 62.3203 	 -12.2633
| 20> H 	 -107.605 	 62.7304 	 -11.3658
| 21> H 	 -107.357 	 63.1085 	 -13.0124
| 22> H 	 -108.003 	 61.643 	 -12.6527
| 23> S 	 -108.821 	 56.7647 	 -16.6944
| 24> C 	 -108.498 	 56.3173 	 -18.3874
| 25> C 	 -107.213 	 56.6326 	 -18.7566
| 26> C 	 -106.536 	 57.4224 	 -17.7481
| 27> C 	 -107.174 	 57.397 	 -16.4905
| 28> H 	 -106.898 	 56.4154 	 -19.7743
| 29> C 	 -105.223 	 58.0781 	 -18.055
| 30> H 	 -104.543 	 57.8692 	 -17.2116
| 31> H 	 -105.463 	 59.1648 	 -18.129
| 32> C 	 -104.363 	 57.5633 	 -19.2282
| 33> H 	 -104.899 	 57.7074 	 -20.145
| 34> H 	 -104.169 	 56.4942 	 -19.0455
| 35> C 	 -103.088 	 58.332 	 -19.3542
| 36> H 	 -102.715 	 58.3446 	 -20.4258
| 37> H 	 -102.442 	 57.9838 	 -18.5981
| 38> H 	 -103.273 	 59.3919 	 -19.1351
| 39> H 	 -106.712 	 58.9195 	 -11.7505
| 40> H 	 -109.139 	 55.8076 	 -19.1112
| 41> *
| 42>
| 43>                          ****END OF INPUT****

CARTESIAN COORDINATES (ANGSTROEM)
---------------------------------
  S    -107.414000   57.471000  -13.675400
  C    -106.618000   58.788500  -12.822100
  C    -106.153000   59.685900  -13.784700
  C    -106.337000   59.287700  -15.131700
  C    -106.831000   58.018200  -15.258300
  H    -106.038000   59.821800  -15.980800
  C    -105.630000   61.026300  -13.509200
  H    -105.881000   61.681000  -14.370400
  H    -104.571000   60.873600  -13.528700
  C    -105.902000   61.649800  -12.199400
  H    -105.916000   60.889100  -11.347500
  H    -105.077000   62.260200  -12.046100
  C    -107.293000   62.320300  -12.263300
  H    -107.605000   62.730400  -11.365800
  H    -107.357000   63.108500  -13.012400
  H    -108.003000   61.643000  -12.652700
  S    -108.821000   56.764700  -16.694400
  C    -108.498000   56.317300  -18.387400
  C    -107.213000   56.632600  -18.756600
  C    -106.536000   57.422400  -17.748100
  C    -107.174000   57.397000  -16.490500
  H    -106.898000   56.415400  -19.774300
  C    -105.223000   58.078100  -18.055000
  H    -104.543000   57.869200  -17.211600
  H    -105.463000   59.164800  -18.129000
  C    -104.363000   57.563300  -19.228200
  H    -104.899000   57.707400  -20.145000
  H    -104.169000   56.494200  -19.045500
  C    -103.088000   58.332000  -19.354200
  H    -102.715000   58.344600  -20.425800
  H    -102.442000   57.983800  -18.598100
  H    -103.273000   59.391900  -19.135100
  H    -106.712000   58.919500  -11.750500
  H    -109.139000   55.807600  -19.111200

 Total Charge           Charge          ....    0
 Multiplicity           Mult            ....    1
 Number of Electrons    NEL             ....  134
 Basis Dimension        Dim             ....  322

ORBITAL ENERGIES
----------------

  NO   OCC          E(Eh)            E(eV)
   0   2.0000     -88.965455     -2420.8731
   1   2.0000     -88.962291     -2420.7870
   2   2.0000     -10.327892      -281.0362
   3   2.0000     -10.327619      -281.0288
   4   2.0000     -10.319289      -280.8021
   5   2.0000     -10.315222      -280.6915
   6   2.0000     -10.307528      -280.4821
   7   2.0000     -10.297918      -280.2206
   8   2.0000     -10.295040      -280.1423
   9   2.0000     -10.294505      -280.1277
  10   2.0000     -10.286681      -279.9148
  11   2.0000     -10.285391      -279.8797
  12   2.0000     -10.284382      -279.8523
  13   2.0000     -10.281448      -279.7724
  14   2.0000     -10.279218      -279.7117
  15   2.0000     -10.267128      -279.3827
  16   2.0000      -8.079168      -219.8453
  17   2.0000      -8.076597      -219.7754
  18   2.0000      -6.037920      -164.3001
  19   2.0000      -6.035289      -164.2286
  20   2.0000      -6.033863      -164.1898
  21   2.0000      -6.031173      -164.1166
  22   2.0000      -6.029671      -164.0757
  23   2.0000      -6.027181      -164.0079
  24   2.0000      -1.005722       -27.3671
  25   2.0000      -0.980442       -26.6792
  26   2.0000      -0.925025       -25.1712
  27   2.0000      -0.915585       -24.9143
  28   2.0000      -0.873124       -23.7589
  29   2.0000      -0.855630       -23.2829
  30   2.0000      -0.847087       -23.0504
  31   2.0000      -0.816119       -22.2077
  32   2.0000      -0.784090       -21.3362
  33   2.0000      -0.768556       -20.9135
  34   2.0000      -0.716300       -19.4915
  35   2.0000      -0.707105       -19.2413
  36   2.0000      -0.697026       -18.9670
  37   2.0000      -0.653886       -17.7931
  38   2.0000      -0.639817       -17.4103
  39   2.0000      -0.611684       -16.6448
  40   2.0000      -0.594377       -16.1738
  41   2.0000      -0.584516       -15.9055
  42   2.0000      -0.579262       -15.7625
  43   2.0000      -0.569042       -15.4844
  44   2.0000      -0.539650       -14.6846
  45   2.0000      -0.525112       -14.2890
  46   2.0000      -0.520969       -14.1763
  47   2.0000      -0.517455       -14.0807
  48   2.0000      -0.507640       -13.8136
  49   2.0000      -0.498481       -13.5643
  50   2.0000      -0.494274       -13.4499
  51   2.0000      -0.482978       -13.1425
  52   2.0000      -0.473411       -12.8822
  53   2.0000      -0.466467       -12.6932
  54   2.0000      -0.457160       -12.4400
  55   2.0000      -0.451399       -12.2832
  56   2.0000      -0.439927       -11.9710
  57   2.0000      -0.434121       -11.8130
  58   2.0000      -0.432662       -11.7733
  59   2.0000      -0.430829       -11.7235
  60   2.0000      -0.418292       -11.3823
  61   2.0000      -0.415811       -11.3148
  62   2.0000      -0.410545       -11.1715
  63   2.0000      -0.355707        -9.6793
  64   2.0000      -0.328837        -8.9481
  65   2.0000      -0.321756        -8.7554
  66   2.0000      -0.283491        -7.7142
  67   0.0000       0.020603         0.5606
  68   0.0000       0.072842         1.9821
  69   0.0000       0.108366         2.9488
  70   0.0000       0.125114         3.4045
  71   0.0000       0.133148         3.6231

MULLIKEN ATOMIC CHARGES
-----------------------
   0 S :    0.087999
   1 C :   -0.126980
   2 C :   -0.083575
   3 C :    0.018160
   4 C :   -0.122134
   5 H :   -0.015092
   6 C :    0.045550
   7 H :    0.032095
   8 H :    0.029090
   9 C :   -0.042083
  10 H :    0.027766
  11 H :    0.012937
  12 C :    0.001889
  13 H :    0.019717
  14 H :    0.012467
  15 H :    0.021026
  16 S :    0.096866
  17 C :   -0.081738
  18 C :   -0.040673
  19 C :   -0.056311
  20 C :   -0.115108
  21 H :    0.025859
  22 C :   -0.022629
  23 H :    0.040785
  24 H :    0.057038
  25 C :   -0.075009
  26 H :    0.022260
  27 H :    0.043015
  28 C :   -0.022407
  29 H :    0.048162
  30 H :    0.027709
  31 H :    0.019252
  32 H :    0.057428
  33 H :    0.056668
Sum of atomic charges:   -0.0000000

LOEWDIN ATOMIC CHARGES
----------------------
   0 S :    0.386748
   1 C :   -0.203343
   2 C :   -0.058915
   3 C :   -0.055372
   4 C :   -0.180094
   5 H :    0.022127
   6 C :   -0.040259
   7 H :    0.036367
   8 H :    0.035921
   9 C :   -0.033783
  10 H :    0.030343
  11 H :    0.016538
  12 C :   -0.053635
  13 H :    0.013450
  14 H :    0.024815
  15 H :    0.024128
  16 S :    0.381974
  17 C :   -0.177847
  18 C :   -0.074066
  19 C :   -0.053407
  20 C :   -0.192175
  21 H :    0.034054
  22 C :   -0.043958
  23 H :    0.037428
  24 H :    0.035665
  25 C :   -0.043731
  26 H :    0.016034
  27 H :    0.030195
  28 C :   -0.063232
  29 H :    0.038072
  30 H :    0.020724
  31 H :    0.025442
  32 H :    0.028700
  33 H :    0.035094

  Mayer bond orders larger than 0.100000
B(  0-S ,  1-C ) :   1.1207 B(  0-S ,  4-C ) :   1.1431 B(  1-C ,  2-C ) :   1.5797
B(  1-C , 32-H ) :   0.9697 B(  2-C ,  3-C ) :   1.2536 B(  2-C ,  6-C ) :   1.0257
B(  3-C ,  4-C ) :   1.5375 B(  3-C ,  5-H ) :   1.0034 B(  4-C , 20-C ) :   1.0980
B(  6-C ,  7-H ) :   0.9434 B(  6-C ,  8-H ) :   0.9136 B(  6-C ,  9-C ) :   1.0891
B(  9-C , 10-H ) :   0.9486 B(  9-C , 11-H ) :   0.9497 B(  9-C , 12-C ) :   1.0713
B( 12-C , 13-H ) :   0.9770 B( 12-C , 14-H ) :   0.9710 B( 12-C , 15-H ) :   0.9749
B( 16-S , 17-C ) :   1.1388 B( 16-S , 20-C ) :   1.1140 B( 17-C , 18-C ) :   1.6382
B( 17-C , 33-H ) :   0.9582 B( 18-C , 19-C ) :   1.2286 B( 18-C , 21-H ) :   0.9838
B( 19-C , 20-C ) :   1.5916 B( 19-C , 22-C ) :   1.0404 B( 22-C , 23-H ) :   0.9429
B( 22-C , 24-H ) :   0.9160 B( 22-C , 25-C ) :   1.0880 B( 25-C , 26-H ) :   0.9416
B( 25-C , 27-H ) :   0.9563 B( 25-C , 28-C ) :   1.0877 B( 28-C , 29-H ) :   0.9726
B( 28-C , 30-H ) :   0.9735 B( 28-C , 31-H ) :   0.9689

Dispersion correction           -0.013689897
FINAL SINGLE POINT ENERGY     -1339.857039015262

DIPOLE MOMENT
-------------
                                X             Y             Z
Electronic contribution:    -17.43453     -18.36012       3.65332
Nuclear contribution   :     17.90834      18.95517      -4.05429
                        -----------------------------------------
Total Dipole Moment    :      0.47380       0.59506      -0.40097
                        -----------------------------------------
Magnitude (a.u.)       :      0.85986
Magnitude (Debye)      :      2.18559

Rotational constants in cm-1:     0.018956     0.008127     0.006246
Rotational constants in MHz :   568.288021   243.655401   187.255801

                             ****ORCA TERMINATED NORMALLY****
TOTAL RUN TIME: 0 days 0 hours 0 minutes 21 seconds 564 msec
