                         Program Version 4.2.1 -  RELEASE  -
|  1> ! wB97X-D3 SP def2-SVP
|  2> %pal
|  3> nprocs 24
|  4> end
|  5>
|  6> * xyz 0 1
|  7> S 	 -86.5958 	 2.34598 	 -111.59
|  8> C 	 -86.5431 	 4.09691 	 -111.595
|  9> C 	 -87.1164 	 4.59015 	 -112.769
| 10> C 	 -87.4182 	 3.63996 	 -113.748
| 11> C 	 -87.2967 	 2.33101 	 -113.242
| 12> H 	 -87.8334 	 3.87912 	 -114.723
| 13> C 	 -87.4137 	 6.05212 	 -113.061
| 14> H 	 -87.7746 	 6.39518 	 -112.145
| 15> H 	 -88.3319 	 6.16928 	 -113.621
| 16> C 	 -86.235 	 6.99373 	 -113.518
| 17> H 	 -86.6567 	 7.9735 	 -113.606
| 18> H 	 -85.3562 	 6.94646 	 -112.902
| 19> C 	 -85.6464 	 6.55585 	 -114.889
| 20> H 	 -86.4624 	 6.62018 	 -115.589
| 21> H 	 -84.9011 	 7.30769 	 -115.057
| 22> H 	 -85.2551 	 5.55406 	 -114.951
| 23> S 	 -88.8658 	 0.0381572 	 -112.997
| 24> C 	 -88.8533 	 -1.09045 	 -114.271
| 25> C 	 -87.9527 	 -0.797616 	 -115.263
| 26> C 	 -87.3033 	 0.432624 	 -115.031
| 27> C 	 -87.6345 	 1.06205 	 -113.84
| 28> H 	 -87.8935 	 -1.46978 	 -116.119
| 29> C 	 -86.3813 	 0.903203 	 -116.115
| 30> H 	 -85.7505 	 0.174924 	 -116.553
| 31> H 	 -85.625 	 1.49538 	 -115.716
| 32> C 	 -86.9501 	 1.82034 	 -117.206
| 33> H 	 -86.0984 	 1.90863 	 -117.857
| 34> H 	 -87.2926 	 2.82546 	 -116.837
| 35> C 	 -88.2115 	 1.25076 	 -117.933
| 36> H 	 -88.1492 	 0.26151 	 -118.373
| 37> H 	 -88.4226 	 1.83031 	 -118.86
| 38> H 	 -89.0631 	 1.4865 	 -117.302
| 39> H 	 -86.216 	 4.58336 	 -110.674
| 40> H 	 -89.5382 	 -1.91537 	 -114.317
| 41> *
| 42>
| 43>                          ****END OF INPUT****

CARTESIAN COORDINATES (ANGSTROEM)
---------------------------------
  S    -86.595800    2.345980  -111.590000
  C    -86.543100    4.096910  -111.595000
  C    -87.116400    4.590150  -112.769000
  C    -87.418200    3.639960  -113.748000
  C    -87.296700    2.331010  -113.242000
  H    -87.833400    3.879120  -114.723000
  C    -87.413700    6.052120  -113.061000
  H    -87.774600    6.395180  -112.145000
  H    -88.331900    6.169280  -113.621000
  C    -86.235000    6.993730  -113.518000
  H    -86.656700    7.973500  -113.606000
  H    -85.356200    6.946460  -112.902000
  C    -85.646400    6.555850  -114.889000
  H    -86.462400    6.620180  -115.589000
  H    -84.901100    7.307690  -115.057000
  H    -85.255100    5.554060  -114.951000
  S    -88.865800    0.038157  -112.997000
  C    -88.853300   -1.090450  -114.271000
  C    -87.952700   -0.797616  -115.263000
  C    -87.303300    0.432624  -115.031000
  C    -87.634500    1.062050  -113.840000
  H    -87.893500   -1.469780  -116.119000
  C    -86.381300    0.903203  -116.115000
  H    -85.750500    0.174924  -116.553000
  H    -85.625000    1.495380  -115.716000
  C    -86.950100    1.820340  -117.206000
  H    -86.098400    1.908630  -117.857000
  H    -87.292600    2.825460  -116.837000
  C    -88.211500    1.250760  -117.933000
  H    -88.149200    0.261510  -118.373000
  H    -88.422600    1.830310  -118.860000
  H    -89.063100    1.486500  -117.302000
  H    -86.216000    4.583360  -110.674000
  H    -89.538200   -1.915370  -114.317000

 Total Charge           Charge          ....    0
 Multiplicity           Mult            ....    1
 Number of Electrons    NEL             ....  134
 Basis Dimension        Dim             ....  322

ORBITAL ENERGIES
----------------

  NO   OCC          E(Eh)            E(eV)
   0   2.0000     -88.965775     -2420.8818
   1   2.0000     -88.962619     -2420.7959
   2   2.0000     -10.334465      -281.2151
   3   2.0000     -10.327264      -281.0191
   4   2.0000     -10.317160      -280.7442
   5   2.0000     -10.311345      -280.5860
   6   2.0000     -10.301535      -280.3190
   7   2.0000     -10.300734      -280.2972
   8   2.0000     -10.296559      -280.1836
   9   2.0000     -10.290958      -280.0312
  10   2.0000     -10.287588      -279.9395
  11   2.0000     -10.286792      -279.9178
  12   2.0000     -10.284071      -279.8438
  13   2.0000     -10.277746      -279.6717
  14   2.0000     -10.276666      -279.6423
  15   2.0000     -10.270131      -279.4645
  16   2.0000      -8.079939      -219.8663
  17   2.0000      -8.077631      -219.8035
  18   2.0000      -6.038348      -164.3118
  19   2.0000      -6.036018      -164.2484
  20   2.0000      -6.034483      -164.2066
  21   2.0000      -6.032034      -164.1400
  22   2.0000      -6.030886      -164.1087
  23   2.0000      -6.028570      -164.0457
  24   2.0000      -1.003153       -27.2972
  25   2.0000      -0.982801       -26.7434
  26   2.0000      -0.909814       -24.7573
  27   2.0000      -0.905630       -24.6434
  28   2.0000      -0.866936       -23.5905
  29   2.0000      -0.850869       -23.1533
  30   2.0000      -0.845427       -23.0052
  31   2.0000      -0.812768       -22.1166
  32   2.0000      -0.790505       -21.5107
  33   2.0000      -0.772063       -21.0089
  34   2.0000      -0.707372       -19.2486
  35   2.0000      -0.700515       -19.0620
  36   2.0000      -0.688200       -18.7269
  37   2.0000      -0.660777       -17.9807
  38   2.0000      -0.643020       -17.4975
  39   2.0000      -0.619245       -16.8505
  40   2.0000      -0.602821       -16.4036
  41   2.0000      -0.573286       -15.5999
  42   2.0000      -0.557219       -15.1627
  43   2.0000      -0.547561       -14.8999
  44   2.0000      -0.544725       -14.8227
  45   2.0000      -0.533552       -14.5187
  46   2.0000      -0.519670       -14.1409
  47   2.0000      -0.513147       -13.9635
  48   2.0000      -0.497573       -13.5397
  49   2.0000      -0.495581       -13.4855
  50   2.0000      -0.491283       -13.3685
  51   2.0000      -0.476675       -12.9710
  52   2.0000      -0.475418       -12.9368
  53   2.0000      -0.467265       -12.7149
  54   2.0000      -0.457735       -12.4556
  55   2.0000      -0.446771       -12.1573
  56   2.0000      -0.443189       -12.0598
  57   2.0000      -0.436500       -11.8778
  58   2.0000      -0.429214       -11.6795
  59   2.0000      -0.422146       -11.4872
  60   2.0000      -0.413866       -11.2619
  61   2.0000      -0.412071       -11.2130
  62   2.0000      -0.408226       -11.1084
  63   2.0000      -0.343032        -9.3344
  64   2.0000      -0.333663        -9.0794
  65   2.0000      -0.330012        -8.9801
  66   2.0000      -0.288326        -7.8457
  67   0.0000       0.028913         0.7868
  68   0.0000       0.060146         1.6367
  69   0.0000       0.116827         3.1790
  70   0.0000       0.123900         3.3715
  71   0.0000       0.124479         3.3872

MULLIKEN ATOMIC CHARGES
-----------------------
   0 S :    0.103932
   1 C :   -0.137632
   2 C :   -0.090955
   3 C :    0.048295
   4 C :   -0.168108
   5 H :    0.013058
   6 C :    0.083954
   7 H :   -0.002129
   8 H :    0.017684
   9 C :   -0.049645
  10 H :    0.031923
  11 H :    0.029784
  12 C :   -0.053316
  13 H :    0.015326
  14 H :    0.032226
  15 H :    0.044631
  16 S :    0.104111
  17 C :   -0.081322
  18 C :   -0.040258
  19 C :   -0.002693
  20 C :   -0.161890
  21 H :    0.021690
  22 C :    0.111924
  23 H :    0.010586
  24 H :   -0.004422
  25 C :   -0.077581
  26 H :    0.027737
  27 H :    0.032175
  28 C :   -0.069621
  29 H :    0.031287
  30 H :    0.023315
  31 H :    0.045552
  32 H :    0.060818
  33 H :    0.049565
Sum of atomic charges:    0.0000000

LOEWDIN ATOMIC CHARGES
----------------------
   0 S :    0.395779
   1 C :   -0.198850
   2 C :   -0.063623
   3 C :   -0.057925
   4 C :   -0.178696
   5 H :    0.032724
   6 C :   -0.035381
   7 H :    0.022709
   8 H :    0.030246
   9 C :   -0.025010
  10 H :    0.023140
  11 H :    0.022770
  12 C :   -0.061178
  13 H :    0.017087
  14 H :    0.024120
  15 H :    0.024252
  16 S :    0.401657
  17 C :   -0.186887
  18 C :   -0.075813
  19 C :   -0.048051
  20 C :   -0.194092
  21 H :    0.035321
  22 C :   -0.034437
  23 H :    0.029306
  24 H :    0.026083
  25 C :   -0.029673
  26 H :    0.022257
  27 H :    0.026047
  28 C :   -0.078642
  29 H :    0.021887
  30 H :    0.028510
  31 H :    0.029287
  32 H :    0.029732
  33 H :    0.025343

  Mayer bond orders larger than 0.100000
B(  0-S ,  1-C ) :   1.1441 B(  0-S ,  4-C ) :   1.1677 B(  1-C ,  2-C ) :   1.5730
B(  1-C ,  4-C ) :   0.1159 B(  1-C , 32-H ) :   0.9735 B(  2-C ,  3-C ) :   1.2712
B(  2-C ,  6-C ) :   1.0099 B(  3-C ,  4-C ) :   1.5332 B(  3-C ,  5-H ) :   0.9933
B(  4-C , 20-C ) :   1.0514 B(  6-C ,  7-H ) :   0.9278 B(  6-C ,  8-H ) :   0.9438
B(  6-C ,  9-C ) :   1.0694 B(  9-C , 10-H ) :   0.9561 B(  9-C , 11-H ) :   0.9625
B(  9-C , 12-C ) :   1.0726 B( 12-C , 13-H ) :   0.9778 B( 12-C , 14-H ) :   0.9778
B( 12-C , 15-H ) :   0.9765 B( 16-S , 17-C ) :   1.1776 B( 16-S , 20-C ) :   1.1223
B( 17-C , 18-C ) :   1.5969 B( 17-C , 20-C ) :   0.1004 B( 17-C , 33-H ) :   0.9648
B( 18-C , 19-C ) :   1.2336 B( 18-C , 21-H ) :   0.9953 B( 19-C , 20-C ) :   1.5940
B( 19-C , 22-C ) :   1.0505 B( 22-C , 23-H ) :   0.9342 B( 22-C , 24-H ) :   0.9119
B( 22-C , 25-C ) :   1.0784 B( 25-C , 26-H ) :   0.9556 B( 25-C , 27-H ) :   0.9543
B( 25-C , 28-C ) :   1.0805 B( 28-C , 29-H ) :   0.9748 B( 28-C , 30-H ) :   0.9721
B( 28-C , 31-H ) :   0.9734

Dispersion correction           -0.015071440
FINAL SINGLE POINT ENERGY     -1339.863235320789

DIPOLE MOMENT
-------------
                                X             Y             Z
Electronic contribution:     -5.03439     -17.89108      21.90941
Nuclear contribution   :      5.03758      18.23922     -22.41677
                        -----------------------------------------
Total Dipole Moment    :      0.00319       0.34814      -0.50736
                        -----------------------------------------
Magnitude (a.u.)       :      0.61532
Magnitude (Debye)      :      1.56403

Rotational constants in cm-1:     0.019098     0.009341     0.006887
Rotational constants in MHz :   572.556547   280.044740   206.456100

                             ****ORCA TERMINATED NORMALLY****
TOTAL RUN TIME: 0 days 0 hours 0 minutes 22 seconds 151 msec
