                         Program Version 4.2.1 -  RELEASE  -
|  1> ! wB97X-D3 SP def2-SVP
|  2> %pal
|  3> nprocs 24
|  4> end
|  5>
|  6> * xyz 0 1
|  7> S 	 -80.5014 	 -13.7291 	 -59.9176
|  8> C 	 -80.106 	 -12.0977 	 -59.3436
|  9> C 	 -79.8817 	 -11.2067 	 -60.3878
| 10> C 	 -80.0532 	 -11.8431 	 -61.659
| 11> C 	 -80.3464 	 -13.1789 	 -61.6054
| 12> H 	 -79.9048 	 -11.5196 	 -62.6548
| 13> C 	 -79.4725 	 -9.7348 	 -60.2108
| 14> H 	 -78.4507 	 -9.72055 	 -59.8217
| 15> H 	 -80.1713 	 -9.34274 	 -59.4586
| 16> C 	 -79.6161 	 -8.81937 	 -61.4359
| 17> H 	 -78.8871 	 -9.07449 	 -62.2464
| 18> H 	 -80.6109 	 -8.9615 	 -61.9894
| 19> C 	 -79.5776 	 -7.28758 	 -61.2501
| 20> H 	 -78.593 	 -7.06543 	 -60.8188
| 21> H 	 -79.7403 	 -6.65641 	 -62.1408
| 22> H 	 -80.3391 	 -6.97908 	 -60.5708
| 23> S 	 -79.2225 	 -14.2563 	 -63.8832
| 24> C 	 -80.0928 	 -15.39 	 -64.8757
| 25> C 	 -81.2423 	 -15.7777 	 -64.2305
| 26> C 	 -81.5828 	 -14.9938 	 -63.1061
| 27> C 	 -80.5605 	 -14.0758 	 -62.767
| 28> H 	 -82.0096 	 -16.5385 	 -64.447
| 29> C 	 -82.8707 	 -15.1025 	 -62.4197
| 30> H 	 -82.9128 	 -14.535 	 -61.5442
| 31> H 	 -83.0853 	 -16.1579 	 -62.1426
| 32> C 	 -84.0387 	 -14.5571 	 -63.3471
| 33> H 	 -84.9651 	 -15.0655 	 -62.9935
| 34> H 	 -83.803 	 -14.9073 	 -64.4286
| 35> C 	 -84.1503 	 -13.038 	 -63.0809
| 36> H 	 -83.3179 	 -12.6425 	 -63.6897
| 37> H 	 -84.1267 	 -12.7395 	 -61.9902
| 38> H 	 -85.0644 	 -12.5807 	 -63.4401
| 39> H 	 -80.0292 	 -11.8342 	 -58.3018
| 40> H 	 -79.659 	 -15.7616 	 -65.7396
| 41> *
| 42>
| 43>                          ****END OF INPUT****

CARTESIAN COORDINATES (ANGSTROEM)
---------------------------------
  S    -80.501400  -13.729100  -59.917600
  C    -80.106000  -12.097700  -59.343600
  C    -79.881700  -11.206700  -60.387800
  C    -80.053200  -11.843100  -61.659000
  C    -80.346400  -13.178900  -61.605400
  H    -79.904800  -11.519600  -62.654800
  C    -79.472500   -9.734800  -60.210800
  H    -78.450700   -9.720550  -59.821700
  H    -80.171300   -9.342740  -59.458600
  C    -79.616100   -8.819370  -61.435900
  H    -78.887100   -9.074490  -62.246400
  H    -80.610900   -8.961500  -61.989400
  C    -79.577600   -7.287580  -61.250100
  H    -78.593000   -7.065430  -60.818800
  H    -79.740300   -6.656410  -62.140800
  H    -80.339100   -6.979080  -60.570800
  S    -79.222500  -14.256300  -63.883200
  C    -80.092800  -15.390000  -64.875700
  C    -81.242300  -15.777700  -64.230500
  C    -81.582800  -14.993800  -63.106100
  C    -80.560500  -14.075800  -62.767000
  H    -82.009600  -16.538500  -64.447000
  C    -82.870700  -15.102500  -62.419700
  H    -82.912800  -14.535000  -61.544200
  H    -83.085300  -16.157900  -62.142600
  C    -84.038700  -14.557100  -63.347100
  H    -84.965100  -15.065500  -62.993500
  H    -83.803000  -14.907300  -64.428600
  C    -84.150300  -13.038000  -63.080900
  H    -83.317900  -12.642500  -63.689700
  H    -84.126700  -12.739500  -61.990200
  H    -85.064400  -12.580700  -63.440100
  H    -80.029200  -11.834200  -58.301800
  H    -79.659000  -15.761600  -65.739600

 Total Charge           Charge          ....    0
 Multiplicity           Mult            ....    1
 Number of Electrons    NEL             ....  134
 Basis Dimension        Dim             ....  322

ORBITAL ENERGIES
----------------

  NO   OCC          E(Eh)            E(eV)
   0   2.0000     -88.967551     -2420.9301
   1   2.0000     -88.964340     -2420.8428
   2   2.0000     -10.330031      -281.0944
   3   2.0000     -10.327628      -281.0290
   4   2.0000     -10.317387      -280.7504
   5   2.0000     -10.316367      -280.7226
   6   2.0000     -10.307968      -280.4941
   7   2.0000     -10.300905      -280.3019
   8   2.0000     -10.297910      -280.2204
   9   2.0000     -10.296588      -280.1844
  10   2.0000     -10.296028      -280.1692
  11   2.0000     -10.294946      -280.1397
  12   2.0000     -10.290399      -280.0160
  13   2.0000     -10.283426      -279.8262
  14   2.0000     -10.280386      -279.7435
  15   2.0000     -10.279097      -279.7084
  16   2.0000      -8.080984      -219.8948
  17   2.0000      -8.079288      -219.8486
  18   2.0000      -6.039581      -164.3453
  19   2.0000      -6.037720      -164.2947
  20   2.0000      -6.035687      -164.2394
  21   2.0000      -6.033643      -164.1838
  22   2.0000      -6.031725      -164.1316
  23   2.0000      -6.030249      -164.0914
  24   2.0000      -1.003952       -27.3189
  25   2.0000      -0.982453       -26.7339
  26   2.0000      -0.909370       -24.7452
  27   2.0000      -0.906067       -24.6553
  28   2.0000      -0.868141       -23.6233
  29   2.0000      -0.847902       -23.0726
  30   2.0000      -0.842617       -22.9288
  31   2.0000      -0.815364       -22.1872
  32   2.0000      -0.780992       -21.2519
  33   2.0000      -0.769295       -20.9336
  34   2.0000      -0.705421       -19.1955
  35   2.0000      -0.696356       -18.9488
  36   2.0000      -0.686116       -18.6702
  37   2.0000      -0.665213       -18.1014
  38   2.0000      -0.638965       -17.3871
  39   2.0000      -0.615724       -16.7547
  40   2.0000      -0.606829       -16.5127
  41   2.0000      -0.568950       -15.4819
  42   2.0000      -0.561596       -15.2818
  43   2.0000      -0.554995       -15.1022
  44   2.0000      -0.533996       -14.5308
  45   2.0000      -0.525219       -14.2919
  46   2.0000      -0.513141       -13.9633
  47   2.0000      -0.506560       -13.7842
  48   2.0000      -0.502002       -13.6602
  49   2.0000      -0.498343       -13.5606
  50   2.0000      -0.486760       -13.2454
  51   2.0000      -0.481666       -13.1068
  52   2.0000      -0.474736       -12.9182
  53   2.0000      -0.465164       -12.6578
  54   2.0000      -0.455292       -12.3891
  55   2.0000      -0.454370       -12.3640
  56   2.0000      -0.442232       -12.0337
  57   2.0000      -0.434220       -11.8157
  58   2.0000      -0.430981       -11.7276
  59   2.0000      -0.421112       -11.4590
  60   2.0000      -0.420529       -11.4432
  61   2.0000      -0.410028       -11.1574
  62   2.0000      -0.407922       -11.1001
  63   2.0000      -0.341878        -9.3030
  64   2.0000      -0.333669        -9.0796
  65   2.0000      -0.325739        -8.8638
  66   2.0000      -0.294179        -8.0050
  67   0.0000       0.030523         0.8306
  68   0.0000       0.067741         1.8433
  69   0.0000       0.106639         2.9018
  70   0.0000       0.119391         3.2488
  71   0.0000       0.126968         3.4550

MULLIKEN ATOMIC CHARGES
-----------------------
   0 S :    0.110871
   1 C :   -0.133463
   2 C :   -0.073614
   3 C :    0.033949
   4 C :   -0.142553
   5 H :   -0.004393
   6 C :    0.101376
   7 H :    0.050885
   8 H :    0.033312
   9 C :   -0.153759
  10 H :    0.039173
  11 H :    0.038084
  12 C :   -0.032042
  13 H :    0.028535
  14 H :    0.042811
  15 H :    0.023944
  16 S :    0.101446
  17 C :   -0.067217
  18 C :   -0.000081
  19 C :   -0.074775
  20 C :   -0.168897
  21 H :    0.021917
  22 C :    0.079790
  23 H :   -0.003820
  24 H :    0.035240
  25 C :   -0.119034
  26 H :    0.031987
  27 H :    0.051788
  28 C :   -0.063115
  29 H :    0.047359
  30 H :    0.050216
  31 H :    0.031292
  32 H :    0.043638
  33 H :    0.039154
Sum of atomic charges:   -0.0000000

LOEWDIN ATOMIC CHARGES
----------------------
   0 S :    0.384970
   1 C :   -0.187331
   2 C :   -0.058424
   3 C :   -0.060969
   4 C :   -0.184100
   5 H :    0.025778
   6 C :   -0.031456
   7 H :    0.037959
   8 H :    0.036532
   9 C :   -0.058079
  10 H :    0.025208
  11 H :    0.030959
  12 C :   -0.065261
  13 H :    0.023674
  14 H :    0.033146
  15 H :    0.018851
  16 S :    0.415101
  17 C :   -0.173916
  18 C :   -0.069760
  19 C :   -0.062127
  20 C :   -0.203169
  21 H :    0.035701
  22 C :   -0.032108
  23 H :    0.013873
  24 H :    0.035400
  25 C :   -0.041533
  26 H :    0.020550
  27 H :    0.032686
  28 C :   -0.073608
  29 H :    0.033828
  30 H :    0.035808
  31 H :    0.020706
  32 H :    0.025999
  33 H :    0.015113

  Mayer bond orders larger than 0.100000
B(  0-S ,  1-C ) :   1.1380 B(  0-S ,  4-C ) :   1.1250 B(  1-C ,  2-C ) :   1.6277
B(  1-C , 32-H ) :   0.9740 B(  2-C ,  3-C ) :   1.2109 B(  2-C ,  6-C ) :   0.9998
B(  3-C ,  4-C ) :   1.6024 B(  3-C ,  5-H ) :   0.9983 B(  4-C , 20-C ) :   1.0178
B(  6-C ,  7-H ) :   0.9334 B(  6-C ,  8-H ) :   0.9423 B(  6-C ,  9-C ) :   1.0738
B(  9-C , 10-H ) :   0.9492 B(  9-C , 11-H ) :   0.9576 B(  9-C , 12-C ) :   1.0809
B( 12-C , 13-H ) :   0.9753 B( 12-C , 14-H ) :   0.9740 B( 12-C , 15-H ) :   0.9751
B( 16-S , 17-C ) :   1.1689 B( 16-S , 20-C ) :   1.1549 B( 17-C , 18-C ) :   1.5344
B( 17-C , 20-C ) :   0.1049 B( 17-C , 33-H ) :   0.9853 B( 18-C , 19-C ) :   1.2921
B( 18-C , 21-H ) :   0.9777 B( 19-C , 20-C ) :   1.5504 B( 19-C , 22-C ) :   1.0753
B( 22-C , 23-H ) :   0.9282 B( 22-C , 24-H ) :   0.9292 B( 22-C , 25-C ) :   1.0480
B( 25-C , 26-H ) :   0.9571 B( 25-C , 27-H ) :   0.9617 B( 25-C , 28-C ) :   1.0582
B( 28-C , 29-H ) :   0.9772 B( 28-C , 30-H ) :   0.9738 B( 28-C , 31-H ) :   0.9766

Dispersion correction           -0.014591824
FINAL SINGLE POINT ENERGY     -1339.874987451784

DIPOLE MOMENT
-------------
                                X             Y             Z
Electronic contribution:     11.74290     -19.15732       1.13440
Nuclear contribution   :    -11.97600      19.46013      -1.15214
                        -----------------------------------------
Total Dipole Moment    :     -0.23310       0.30280      -0.01774
                        -----------------------------------------
Magnitude (a.u.)       :      0.38255
Magnitude (Debye)      :      0.97236

Rotational constants in cm-1:     0.019366     0.007718     0.007421
Rotational constants in MHz :   580.585475   231.376328   222.490606

                             ****ORCA TERMINATED NORMALLY****
TOTAL RUN TIME: 0 days 0 hours 0 minutes 21 seconds 564 msec
