                         Program Version 4.2.1 -  RELEASE  -
|  1> ! wB97X-D3 SP def2-SVP
|  2> %pal
|  3> nprocs 24
|  4> end
|  5>
|  6> * xyz 0 1
|  7> S 	 28.0933 	 -5.41377 	 -117.904
|  8> C 	 29.8041 	 -5.26757 	 -118.332
|  9> C 	 30.5104 	 -6.25776 	 -117.675
| 10> C 	 29.7381 	 -6.89416 	 -116.662
| 11> C 	 28.3792 	 -6.54202 	 -116.665
| 12> H 	 30.0787 	 -7.59931 	 -115.915
| 13> C 	 32.0058 	 -6.56352 	 -117.763
| 14> H 	 32.5891 	 -6.03532 	 -117.014
| 15> H 	 32.2106 	 -6.16023 	 -118.808
| 16> C 	 32.3596 	 -8.04914 	 -117.913
| 17> H 	 33.3735 	 -7.99824 	 -118.263
| 18> H 	 32.223 	 -8.6253 	 -116.997
| 19> C 	 31.5956 	 -8.73643 	 -119.062
| 20> H 	 31.9085 	 -9.77311 	 -119.042
| 21> H 	 30.5499 	 -8.6893 	 -118.961
| 22> H 	 31.7558 	 -8.13693 	 -119.94
| 23> S 	 26.1226 	 -8.09205 	 -116.59
| 24> C 	 25.3716 	 -8.44583 	 -114.983
| 25> C 	 25.8826 	 -7.57222 	 -114.011
| 26> C 	 27.0217 	 -6.84141 	 -114.446
| 27> C 	 27.3053 	 -7.02786 	 -115.808
| 28> H 	 25.3827 	 -7.53776 	 -113.055
| 29> C 	 27.8342 	 -5.97824 	 -113.566
| 30> H 	 27.0797 	 -5.56778 	 -112.891
| 31> H 	 28.2998 	 -5.21308 	 -114.129
| 32> C 	 28.8798 	 -6.75664 	 -112.733
| 33> H 	 29.5382 	 -7.32373 	 -113.343
| 34> H 	 28.3651 	 -7.43309 	 -111.993
| 35> C 	 29.7218 	 -5.79983 	 -111.894
| 36> H 	 30.503 	 -5.22732 	 -112.541
| 37> H 	 30.4005 	 -6.37526 	 -111.233
| 38> H 	 29.2594 	 -5.05245 	 -111.252
| 39> H 	 30.1639 	 -4.55474 	 -118.976
| 40> H 	 24.4153 	 -8.9601 	 -114.822
| 41> *
| 42>
| 43>                          ****END OF INPUT****

CARTESIAN COORDINATES (ANGSTROEM)
---------------------------------
  S     28.093300   -5.413770  -117.904000
  C     29.804100   -5.267570  -118.332000
  C     30.510400   -6.257760  -117.675000
  C     29.738100   -6.894160  -116.662000
  C     28.379200   -6.542020  -116.665000
  H     30.078700   -7.599310  -115.915000
  C     32.005800   -6.563520  -117.763000
  H     32.589100   -6.035320  -117.014000
  H     32.210600   -6.160230  -118.808000
  C     32.359600   -8.049140  -117.913000
  H     33.373500   -7.998240  -118.263000
  H     32.223000   -8.625300  -116.997000
  C     31.595600   -8.736430  -119.062000
  H     31.908500   -9.773110  -119.042000
  H     30.549900   -8.689300  -118.961000
  H     31.755800   -8.136930  -119.940000
  S     26.122600   -8.092050  -116.590000
  C     25.371600   -8.445830  -114.983000
  C     25.882600   -7.572220  -114.011000
  C     27.021700   -6.841410  -114.446000
  C     27.305300   -7.027860  -115.808000
  H     25.382700   -7.537760  -113.055000
  C     27.834200   -5.978240  -113.566000
  H     27.079700   -5.567780  -112.891000
  H     28.299800   -5.213080  -114.129000
  C     28.879800   -6.756640  -112.733000
  H     29.538200   -7.323730  -113.343000
  H     28.365100   -7.433090  -111.993000
  C     29.721800   -5.799830  -111.894000
  H     30.503000   -5.227320  -112.541000
  H     30.400500   -6.375260  -111.233000
  H     29.259400   -5.052450  -111.252000
  H     30.163900   -4.554740  -118.976000
  H     24.415300   -8.960100  -114.822000

 Total Charge           Charge          ....    0
 Multiplicity           Mult            ....    1
 Number of Electrons    NEL             ....  134
 Basis Dimension        Dim             ....  322

ORBITAL ENERGIES
----------------

  NO   OCC          E(Eh)            E(eV)
   0   2.0000     -88.965544     -2420.8755
   1   2.0000     -88.965057     -2420.8623
   2   2.0000     -10.328142      -281.0430
   3   2.0000     -10.327553      -281.0270
   4   2.0000     -10.323779      -280.9243
   5   2.0000     -10.312915      -280.6287
   6   2.0000     -10.303066      -280.3607
   7   2.0000     -10.302415      -280.3430
   8   2.0000     -10.297833      -280.2183
   9   2.0000     -10.296739      -280.1885
  10   2.0000     -10.293301      -280.0950
  11   2.0000     -10.290514      -280.0191
  12   2.0000     -10.285134      -279.8727
  13   2.0000     -10.284901      -279.8664
  14   2.0000     -10.284635      -279.8591
  15   2.0000     -10.268047      -279.4078
  16   2.0000      -8.080468      -219.8807
  17   2.0000      -8.078966      -219.8398
  18   2.0000      -6.038823      -164.3247
  19   2.0000      -6.037594      -164.2913
  20   2.0000      -6.034747      -164.2138
  21   2.0000      -6.033675      -164.1847
  22   2.0000      -6.031458      -164.1243
  23   2.0000      -6.029667      -164.0756
  24   2.0000      -1.006190       -27.3798
  25   2.0000      -0.979783       -26.6612
  26   2.0000      -0.914946       -24.8969
  27   2.0000      -0.909678       -24.7536
  28   2.0000      -0.869302       -23.6549
  29   2.0000      -0.848967       -23.1016
  30   2.0000      -0.843109       -22.9422
  31   2.0000      -0.813809       -22.1449
  32   2.0000      -0.783258       -21.3135
  33   2.0000      -0.768743       -20.9186
  34   2.0000      -0.707812       -19.2605
  35   2.0000      -0.698820       -19.0159
  36   2.0000      -0.694205       -18.8903
  37   2.0000      -0.661740       -18.0069
  38   2.0000      -0.644697       -17.5431
  39   2.0000      -0.619391       -16.8545
  40   2.0000      -0.590745       -16.0750
  41   2.0000      -0.572543       -15.5797
  42   2.0000      -0.566727       -15.4214
  43   2.0000      -0.560661       -15.2564
  44   2.0000      -0.541074       -14.7234
  45   2.0000      -0.527200       -14.3458
  46   2.0000      -0.518822       -14.1179
  47   2.0000      -0.515924       -14.0390
  48   2.0000      -0.508294       -13.8314
  49   2.0000      -0.502530       -13.6745
  50   2.0000      -0.490835       -13.3563
  51   2.0000      -0.473417       -12.8823
  52   2.0000      -0.469323       -12.7709
  53   2.0000      -0.461023       -12.5451
  54   2.0000      -0.454980       -12.3806
  55   2.0000      -0.448068       -12.1926
  56   2.0000      -0.440523       -11.9872
  57   2.0000      -0.432978       -11.7819
  58   2.0000      -0.431672       -11.7464
  59   2.0000      -0.424549       -11.5526
  60   2.0000      -0.420897       -11.4532
  61   2.0000      -0.415871       -11.3164
  62   2.0000      -0.412020       -11.2116
  63   2.0000      -0.337855        -9.1935
  64   2.0000      -0.332614        -9.0509
  65   2.0000      -0.323191        -8.7945
  66   2.0000      -0.299738        -8.1563
  67   0.0000       0.036118         0.9828
  68   0.0000       0.052452         1.4273
  69   0.0000       0.104711         2.8493
  70   0.0000       0.121463         3.3052
  71   0.0000       0.130769         3.5584

MULLIKEN ATOMIC CHARGES
-----------------------
   0 S :    0.117148
   1 C :   -0.102467
   2 C :   -0.089189
   3 C :    0.040642
   4 C :   -0.175109
   5 H :    0.009906
   6 C :    0.040146
   7 H :    0.055011
   8 H :    0.018045
   9 C :   -0.080174
  10 H :    0.032438
  11 H :    0.037994
  12 C :   -0.027966
  13 H :    0.041459
  14 H :    0.030763
  15 H :    0.017514
  16 S :    0.096879
  17 C :   -0.100417
  18 C :   -0.051710
  19 C :   -0.013574
  20 C :   -0.174415
  21 H :    0.022654
  22 C :    0.104195
  23 H :    0.019153
  24 H :    0.022746
  25 C :   -0.052344
  26 H :    0.021369
  27 H :    0.035433
  28 C :   -0.081588
  29 H :    0.033741
  30 H :    0.028920
  31 H :    0.036851
  32 H :    0.018101
  33 H :    0.067845
Sum of atomic charges:    0.0000000

LOEWDIN ATOMIC CHARGES
----------------------
   0 S :    0.425499
   1 C :   -0.179172
   2 C :   -0.066455
   3 C :   -0.064712
   4 C :   -0.217591
   5 H :    0.028577
   6 C :   -0.034757
   7 H :    0.032669
   8 H :    0.034045
   9 C :   -0.038767
  10 H :    0.027515
  11 H :    0.020101
  12 C :   -0.056545
  13 H :    0.030048
  14 H :    0.019598
  15 H :    0.023623
  16 S :    0.376754
  17 C :   -0.175880
  18 C :   -0.067372
  19 C :   -0.053058
  20 C :   -0.195970
  21 H :    0.032702
  22 C :   -0.026700
  23 H :    0.035121
  24 H :    0.027015
  25 C :   -0.032337
  26 H :    0.019122
  27 H :    0.030554
  28 C :   -0.078344
  29 H :    0.031277
  30 H :    0.025865
  31 H :    0.022639
  32 H :    0.011436
  33 H :    0.033498

  Mayer bond orders larger than 0.100000
B(  0-S ,  1-C ) :   1.1459 B(  0-S ,  4-C ) :   1.1796 B(  1-C ,  2-C ) :   1.5840
B(  1-C ,  4-C ) :   0.1057 B(  1-C , 32-H ) :   0.9887 B(  2-C ,  3-C ) :   1.2374
B(  2-C ,  6-C ) :   1.0054 B(  3-C ,  4-C ) :   1.5604 B(  3-C ,  5-H ) :   0.9974
B(  4-C , 20-C ) :   1.0134 B(  6-C ,  7-H ) :   0.9481 B(  6-C ,  8-H ) :   0.9416
B(  6-C ,  9-C ) :   1.0727 B(  9-C , 10-H ) :   0.9581 B(  9-C , 11-H ) :   0.9545
B(  9-C , 12-C ) :   1.0793 B( 12-C , 13-H ) :   0.9734 B( 12-C , 14-H ) :   0.9707
B( 12-C , 15-H ) :   0.9732 B( 16-S , 17-C ) :   1.1413 B( 16-S , 20-C ) :   1.1377
B( 17-C , 18-C ) :   1.6242 B( 17-C , 20-C ) :   0.1115 B( 17-C , 33-H ) :   0.9597
B( 18-C , 19-C ) :   1.2298 B( 18-C , 21-H ) :   0.9863 B( 19-C , 20-C ) :   1.5948
B( 19-C , 22-C ) :   1.0591 B( 22-C , 23-H ) :   0.9234 B( 22-C , 24-H ) :   0.9291
B( 22-C , 25-C ) :   1.0688 B( 25-C , 26-H ) :   0.9526 B( 25-C , 27-H ) :   0.9545
B( 25-C , 28-C ) :   1.0852 B( 28-C , 29-H ) :   0.9730 B( 28-C , 30-H ) :   0.9737
B( 28-C , 31-H ) :   0.9763

Dispersion correction           -0.014696145
FINAL SINGLE POINT ENERGY     -1339.868571324086

DIPOLE MOMENT
-------------
                                X             Y             Z
Electronic contribution:    -21.52962       2.38570     -10.67641
Nuclear contribution   :     21.94303      -2.33104      11.11982
                        -----------------------------------------
Total Dipole Moment    :      0.41342       0.05466       0.44341
                        -----------------------------------------
Magnitude (a.u.)       :      0.60870
Magnitude (Debye)      :      1.54719

Rotational constants in cm-1:     0.017111     0.009282     0.007595
Rotational constants in MHz :   512.975365   278.259055   227.685552

                             ****ORCA TERMINATED NORMALLY****
TOTAL RUN TIME: 0 days 0 hours 0 minutes 21 seconds 996 msec
