                         Program Version 4.2.1 -  RELEASE  -
|  1> ! wB97X-D3 SP def2-SVP
|  2> %pal
|  3> nprocs 24
|  4> end
|  5>
|  6> * xyz 0 1
|  7> S 	 31.0457 	 -31.3817 	 -110.798
|  8> C 	 32.1455 	 -31.1455 	 -109.463
|  9> C 	 33.4565 	 -31.4728 	 -109.79
| 10> C 	 33.5966 	 -31.7239 	 -111.181
| 11> C 	 32.3816 	 -31.746 	 -111.876
| 12> H 	 34.5248 	 -32.0471 	 -111.757
| 13> C 	 34.632 	 -31.3439 	 -108.815
| 14> H 	 35.557 	 -31.6789 	 -109.304
| 15> H 	 34.418 	 -32.0578 	 -107.979
| 16> C 	 34.8693 	 -29.9306 	 -108.27
| 17> H 	 34.0193 	 -29.5483 	 -107.743
| 18> H 	 35.7222 	 -29.8835 	 -107.571
| 19> C 	 35.4611 	 -28.9602 	 -109.344
| 20> H 	 34.7362 	 -28.6983 	 -110.024
| 21> H 	 35.8125 	 -28.0284 	 -108.867
| 22> H 	 36.2919 	 -29.388 	 -109.863
| 23> S 	 32.1117 	 -30.5774 	 -114.339
| 24> C 	 32.0519 	 -31.5391 	 -115.766
| 25> C 	 32.144 	 -32.9273 	 -115.536
| 26> C 	 32.4011 	 -33.1809 	 -114.129
| 27> C 	 32.2652 	 -32.0236 	 -113.298
| 28> H 	 32.1024 	 -33.6638 	 -116.287
| 29> C 	 32.8154 	 -34.4779 	 -113.703
| 30> H 	 33.6176 	 -34.3124 	 -113.023
| 31> H 	 33.4338 	 -35.126 	 -114.4
| 32> C 	 31.8434 	 -35.3716 	 -112.937
| 33> H 	 31.2074 	 -35.8575 	 -113.52
| 34> H 	 31.1756 	 -34.6208 	 -112.505
| 35> C 	 32.5486 	 -36.4479 	 -112.033
| 36> H 	 33.4045 	 -36.0124 	 -111.404
| 37> H 	 32.9452 	 -37.3097 	 -112.603
| 38> H 	 31.7588 	 -36.8866 	 -111.453
| 39> H 	 31.8678 	 -30.7304 	 -108.422
| 40> H 	 31.8115 	 -31.1561 	 -116.691
| 41> *
| 42>
| 43>                          ****END OF INPUT****

CARTESIAN COORDINATES (ANGSTROEM)
---------------------------------
  S     31.045700  -31.381700  -110.798000
  C     32.145500  -31.145500  -109.463000
  C     33.456500  -31.472800  -109.790000
  C     33.596600  -31.723900  -111.181000
  C     32.381600  -31.746000  -111.876000
  H     34.524800  -32.047100  -111.757000
  C     34.632000  -31.343900  -108.815000
  H     35.557000  -31.678900  -109.304000
  H     34.418000  -32.057800  -107.979000
  C     34.869300  -29.930600  -108.270000
  H     34.019300  -29.548300  -107.743000
  H     35.722200  -29.883500  -107.571000
  C     35.461100  -28.960200  -109.344000
  H     34.736200  -28.698300  -110.024000
  H     35.812500  -28.028400  -108.867000
  H     36.291900  -29.388000  -109.863000
  S     32.111700  -30.577400  -114.339000
  C     32.051900  -31.539100  -115.766000
  C     32.144000  -32.927300  -115.536000
  C     32.401100  -33.180900  -114.129000
  C     32.265200  -32.023600  -113.298000
  H     32.102400  -33.663800  -116.287000
  C     32.815400  -34.477900  -113.703000
  H     33.617600  -34.312400  -113.023000
  H     33.433800  -35.126000  -114.400000
  C     31.843400  -35.371600  -112.937000
  H     31.207400  -35.857500  -113.520000
  H     31.175600  -34.620800  -112.505000
  C     32.548600  -36.447900  -112.033000
  H     33.404500  -36.012400  -111.404000
  H     32.945200  -37.309700  -112.603000
  H     31.758800  -36.886600  -111.453000
  H     31.867800  -30.730400  -108.422000
  H     31.811500  -31.156100  -116.691000

 Total Charge           Charge          ....    0
 Multiplicity           Mult            ....    1
 Number of Electrons    NEL             ....  134
 Basis Dimension        Dim             ....  322

ORBITAL ENERGIES
----------------

  NO   OCC          E(Eh)            E(eV)
   0   2.0000     -88.971610     -2421.0406
   1   2.0000     -88.965121     -2420.8640
   2   2.0000     -10.329403      -281.0773
   3   2.0000     -10.329169      -281.0710
   4   2.0000     -10.322046      -280.8771
   5   2.0000     -10.313263      -280.6381
   6   2.0000     -10.307200      -280.4732
   7   2.0000     -10.302928      -280.3569
   8   2.0000     -10.300943      -280.3029
   9   2.0000     -10.298051      -280.2242
  10   2.0000     -10.294052      -280.1154
  11   2.0000     -10.287831      -279.9461
  12   2.0000     -10.285373      -279.8792
  13   2.0000     -10.279587      -279.7218
  14   2.0000     -10.273659      -279.5605
  15   2.0000     -10.268721      -279.4261
  16   2.0000      -8.085787      -220.0254
  17   2.0000      -8.079715      -219.8602
  18   2.0000      -6.044260      -164.4727
  19   2.0000      -6.040301      -164.3649
  20   2.0000      -6.038154      -164.3065
  21   2.0000      -6.036680      -164.2664
  22   2.0000      -6.034138      -164.1972
  23   2.0000      -6.030669      -164.1028
  24   2.0000      -1.001828       -27.2611
  25   2.0000      -0.980050       -26.6685
  26   2.0000      -0.913652       -24.8617
  27   2.0000      -0.908601       -24.7243
  28   2.0000      -0.864739       -23.5307
  29   2.0000      -0.849496       -23.1160
  30   2.0000      -0.846834       -23.0435
  31   2.0000      -0.808627       -22.0039
  32   2.0000      -0.782857       -21.3026
  33   2.0000      -0.767185       -20.8762
  34   2.0000      -0.712960       -19.4006
  35   2.0000      -0.703752       -19.1501
  36   2.0000      -0.693183       -18.8625
  37   2.0000      -0.664950       -18.0942
  38   2.0000      -0.634449       -17.2642
  39   2.0000      -0.612773       -16.6744
  40   2.0000      -0.598992       -16.2994
  41   2.0000      -0.576396       -15.6845
  42   2.0000      -0.558013       -15.1843
  43   2.0000      -0.547610       -14.9012
  44   2.0000      -0.542844       -14.7715
  45   2.0000      -0.520840       -14.1728
  46   2.0000      -0.514387       -13.9972
  47   2.0000      -0.505024       -13.7424
  48   2.0000      -0.500711       -13.6250
  49   2.0000      -0.496696       -13.5158
  50   2.0000      -0.488498       -13.2927
  51   2.0000      -0.474601       -12.9145
  52   2.0000      -0.470467       -12.8021
  53   2.0000      -0.467097       -12.7103
  54   2.0000      -0.459107       -12.4929
  55   2.0000      -0.447809       -12.1855
  56   2.0000      -0.444202       -12.0874
  57   2.0000      -0.439564       -11.9611
  58   2.0000      -0.437000       -11.8914
  59   2.0000      -0.431776       -11.7492
  60   2.0000      -0.428651       -11.6642
  61   2.0000      -0.407981       -11.1017
  62   2.0000      -0.395137       -10.7522
  63   2.0000      -0.337508        -9.1841
  64   2.0000      -0.326265        -8.8781
  65   2.0000      -0.317723        -8.6457
  66   2.0000      -0.303948        -8.2708
  67   0.0000       0.033865         0.9215
  68   0.0000       0.052595         1.4312
  69   0.0000       0.108525         2.9531
  70   0.0000       0.115444         3.1414
  71   0.0000       0.129605         3.5267

MULLIKEN ATOMIC CHARGES
-----------------------
   0 S :    0.139580
   1 C :   -0.166553
   2 C :   -0.077094
   3 C :    0.023232
   4 C :   -0.184663
   5 H :    0.044799
   6 C :    0.064432
   7 H :    0.018910
   8 H :    0.045377
   9 C :   -0.075759
  10 H :    0.024201
  11 H :    0.030103
  12 C :   -0.036171
  13 H :    0.026011
  14 H :    0.031847
  15 H :    0.021742
  16 S :    0.114155
  17 C :   -0.057533
  18 C :   -0.009966
  19 C :   -0.021848
  20 C :   -0.181842
  21 H :    0.004702
  22 C :    0.047627
  23 H :   -0.006376
  24 H :    0.019788
  25 C :   -0.004824
  26 H :   -0.012762
  27 H :    0.019867
  28 C :   -0.078285
  29 H :    0.052567
  30 H :    0.037163
  31 H :    0.035871
  32 H :    0.080628
  33 H :    0.031075
Sum of atomic charges:   -0.0000000

LOEWDIN ATOMIC CHARGES
----------------------
   0 S :    0.418758
   1 C :   -0.213576
   2 C :   -0.071974
   3 C :   -0.064206
   4 C :   -0.215028
   5 H :    0.045223
   6 C :   -0.032875
   7 H :    0.029194
   8 H :    0.038659
   9 C :   -0.038500
  10 H :    0.016955
  11 H :    0.027992
  12 C :   -0.054890
  13 H :    0.012716
  14 H :    0.029162
  15 H :    0.021488
  16 S :    0.414882
  17 C :   -0.178008
  18 C :   -0.059320
  19 C :   -0.043517
  20 C :   -0.202281
  21 H :    0.024712
  22 C :   -0.053037
  23 H :    0.028787
  24 H :    0.035707
  25 C :   -0.027423
  26 H :    0.002820
  27 H :    0.027880
  28 C :   -0.066464
  29 H :    0.034055
  30 H :    0.028349
  31 H :    0.026576
  32 H :    0.046776
  33 H :    0.010409

  Mayer bond orders larger than 0.100000
B(  0-S ,  1-C ) :   1.1564 B(  0-S ,  4-C ) :   1.1514 B(  1-C ,  2-C ) :   1.5843
B(  1-C ,  4-C ) :   0.1019 B(  1-C , 32-H ) :   0.9558 B(  2-C ,  3-C ) :   1.2606
B(  2-C ,  6-C ) :   1.0147 B(  3-C ,  4-C ) :   1.5679 B(  3-C ,  5-H ) :   0.9767
B(  4-C , 20-C ) :   1.0370 B(  6-C ,  7-H ) :   0.9461 B(  6-C ,  8-H ) :   0.9357
B(  6-C ,  9-C ) :   1.0805 B(  9-C , 10-H ) :   0.9590 B(  9-C , 11-H ) :   0.9595
B(  9-C , 12-C ) :   1.0611 B( 12-C , 13-H ) :   0.9800 B( 12-C , 14-H ) :   0.9771
B( 12-C , 15-H ) :   0.9752 B( 16-S , 17-C ) :   1.1849 B( 16-S , 20-C ) :   1.1394
B( 17-C , 18-C ) :   1.5734 B( 17-C , 20-C ) :   0.1060 B( 17-C , 33-H ) :   0.9731
B( 18-C , 19-C ) :   1.2508 B( 18-C , 21-H ) :   0.9994 B( 19-C , 20-C ) :   1.5598
B( 19-C , 22-C ) :   1.0746 B( 22-C , 23-H ) :   0.9175 B( 22-C , 24-H ) :   0.9273
B( 22-C , 25-C ) :   1.0475 B( 25-C , 26-H ) :   0.9471 B( 25-C , 27-H ) :   0.9567
B( 25-C , 28-C ) :   1.0679 B( 28-C , 29-H ) :   0.9772 B( 28-C , 30-H ) :   0.9744
B( 28-C , 31-H ) :   0.9743

Dispersion correction           -0.014626669
FINAL SINGLE POINT ENERGY     -1339.845980705431

DIPOLE MOMENT
-------------
                                X             Y             Z
Electronic contribution:    -14.38393      10.26573     -11.80517
Nuclear contribution   :     14.77092     -10.57253      11.93564
                        -----------------------------------------
Total Dipole Moment    :      0.38699      -0.30680       0.13047
                        -----------------------------------------
Magnitude (a.u.)       :      0.51079
Magnitude (Debye)      :      1.29833

Rotational constants in cm-1:     0.018352     0.008674     0.007135
Rotational constants in MHz :   550.187695   260.050583   213.915008

                             ****ORCA TERMINATED NORMALLY****
TOTAL RUN TIME: 0 days 0 hours 0 minutes 21 seconds 887 msec
