                         Program Version 4.2.1 -  RELEASE  -
|  1> ! wB97X-D3 SP def2-SVP
|  2> %pal
|  3> nprocs 24
|  4> end
|  5>
|  6> * xyz 0 1
|  7> S 	 -99.6746 	 27.2846 	 -116.407
|  8> C 	 -101.252 	 27.2207 	 -115.564
|  9> C 	 -102.291 	 27.1609 	 -116.483
| 10> C 	 -101.875 	 27.2391 	 -117.847
| 11> C 	 -100.478 	 27.346 	 -117.982
| 12> H 	 -102.503 	 27.3413 	 -118.739
| 13> C 	 -103.774 	 27.2336 	 -116.158
| 14> H 	 -104.089 	 28.2528 	 -116.331
| 15> H 	 -103.929 	 26.9818 	 -115.103
| 16> C 	 -104.702 	 26.247 	 -116.806
| 17> H 	 -104.783 	 26.5343 	 -117.883
| 18> H 	 -104.348 	 25.2128 	 -116.774
| 19> C 	 -106.131 	 26.1348 	 -116.22
| 20> H 	 -106.799 	 25.5308 	 -116.843
| 21> H 	 -106.021 	 25.736 	 -115.244
| 22> H 	 -106.605 	 27.0944 	 -116.083
| 23> S 	 -98.2571 	 28.5346 	 -119.041
| 24> C 	 -97.7602 	 28.3227 	 -120.701
| 25> C 	 -98.7233 	 27.5775 	 -121.413
| 26> C 	 -99.7532 	 27.1255 	 -120.478
| 27> C 	 -99.6526 	 27.5466 	 -119.187
| 28> H 	 -98.5513 	 27.3969 	 -122.436
| 29> C 	 -100.803 	 26.0643 	 -120.878
| 30> H 	 -100.786 	 25.9874 	 -121.992
| 31> H 	 -101.829 	 26.2778 	 -120.542
| 32> C 	 -100.426 	 24.6849 	 -120.423
| 33> H 	 -100.393 	 24.7568 	 -119.367
| 34> H 	 -99.3335 	 24.5902 	 -120.738
| 35> C 	 -101.259 	 23.4216 	 -120.843
| 36> H 	 -101.347 	 23.2543 	 -121.876
| 37> H 	 -102.321 	 23.4547 	 -120.57
| 38> H 	 -100.861 	 22.4737 	 -120.444
| 39> H 	 -101.321 	 27.1608 	 -114.437
| 40> H 	 -96.8731 	 28.7216 	 -121.119
| 41> *
| 42>
| 43>                          ****END OF INPUT****

CARTESIAN COORDINATES (ANGSTROEM)
---------------------------------
  S    -99.674600   27.284600  -116.407000
  C    -101.252000   27.220700  -115.564000
  C    -102.291000   27.160900  -116.483000
  C    -101.875000   27.239100  -117.847000
  C    -100.478000   27.346000  -117.982000
  H    -102.503000   27.341300  -118.739000
  C    -103.774000   27.233600  -116.158000
  H    -104.089000   28.252800  -116.331000
  H    -103.929000   26.981800  -115.103000
  C    -104.702000   26.247000  -116.806000
  H    -104.783000   26.534300  -117.883000
  H    -104.348000   25.212800  -116.774000
  C    -106.131000   26.134800  -116.220000
  H    -106.799000   25.530800  -116.843000
  H    -106.021000   25.736000  -115.244000
  H    -106.605000   27.094400  -116.083000
  S    -98.257100   28.534600  -119.041000
  C    -97.760200   28.322700  -120.701000
  C    -98.723300   27.577500  -121.413000
  C    -99.753200   27.125500  -120.478000
  C    -99.652600   27.546600  -119.187000
  H    -98.551300   27.396900  -122.436000
  C    -100.803000   26.064300  -120.878000
  H    -100.786000   25.987400  -121.992000
  H    -101.829000   26.277800  -120.542000
  C    -100.426000   24.684900  -120.423000
  H    -100.393000   24.756800  -119.367000
  H    -99.333500   24.590200  -120.738000
  C    -101.259000   23.421600  -120.843000
  H    -101.347000   23.254300  -121.876000
  H    -102.321000   23.454700  -120.570000
  H    -100.861000   22.473700  -120.444000
  H    -101.321000   27.160800  -114.437000
  H    -96.873100   28.721600  -121.119000

 Total Charge           Charge          ....    0
 Multiplicity           Mult            ....    1
 Number of Electrons    NEL             ....  134
 Basis Dimension        Dim             ....  322

ORBITAL ENERGIES
----------------

  NO   OCC          E(Eh)            E(eV)
   0   2.0000     -88.969765     -2420.9904
   1   2.0000     -88.965271     -2420.8681
   2   2.0000     -10.340592      -281.3818
   3   2.0000     -10.326305      -280.9930
   4   2.0000     -10.325124      -280.9609
   5   2.0000     -10.320885      -280.8456
   6   2.0000     -10.307811      -280.4898
   7   2.0000     -10.307679      -280.4862
   8   2.0000     -10.302432      -280.3434
   9   2.0000     -10.301232      -280.3108
  10   2.0000     -10.292056      -280.0611
  11   2.0000     -10.290909      -280.0299
  12   2.0000     -10.288352      -279.9603
  13   2.0000     -10.281867      -279.7838
  14   2.0000     -10.277785      -279.6727
  15   2.0000     -10.276425      -279.6357
  16   2.0000      -8.083508      -219.9634
  17   2.0000      -8.080777      -219.8891
  18   2.0000      -6.042136      -164.4149
  19   2.0000      -6.039271      -164.3369
  20   2.0000      -6.038154      -164.3065
  21   2.0000      -6.034981      -164.2202
  22   2.0000      -6.034183      -164.1985
  23   2.0000      -6.031680      -164.1303
  24   2.0000      -1.008980       -27.4557
  25   2.0000      -0.982127       -26.7250
  26   2.0000      -0.915002       -24.8985
  27   2.0000      -0.905504       -24.6400
  28   2.0000      -0.870901       -23.6984
  29   2.0000      -0.848641       -23.0927
  30   2.0000      -0.840870       -22.8812
  31   2.0000      -0.816800       -22.2263
  32   2.0000      -0.784554       -21.3488
  33   2.0000      -0.776465       -21.1287
  34   2.0000      -0.708653       -19.2834
  35   2.0000      -0.693723       -18.8772
  36   2.0000      -0.688185       -18.7265
  37   2.0000      -0.670833       -18.2543
  38   2.0000      -0.640256       -17.4222
  39   2.0000      -0.623842       -16.9756
  40   2.0000      -0.591979       -16.1086
  41   2.0000      -0.575638       -15.6639
  42   2.0000      -0.570867       -15.5341
  43   2.0000      -0.558679       -15.2024
  44   2.0000      -0.528182       -14.3726
  45   2.0000      -0.520702       -14.1690
  46   2.0000      -0.512687       -13.9509
  47   2.0000      -0.511645       -13.9226
  48   2.0000      -0.508480       -13.8365
  49   2.0000      -0.501684       -13.6515
  50   2.0000      -0.491207       -13.3664
  51   2.0000      -0.486573       -13.2403
  52   2.0000      -0.472924       -12.8689
  53   2.0000      -0.469495       -12.7756
  54   2.0000      -0.459027       -12.4908
  55   2.0000      -0.452849       -12.3227
  56   2.0000      -0.449050       -12.2193
  57   2.0000      -0.435874       -11.8607
  58   2.0000      -0.427389       -11.6298
  59   2.0000      -0.419746       -11.4219
  60   2.0000      -0.414067       -11.2673
  61   2.0000      -0.410577       -11.1724
  62   2.0000      -0.406854       -11.0711
  63   2.0000      -0.355669        -9.6782
  64   2.0000      -0.335101        -9.1186
  65   2.0000      -0.330901        -9.0043
  66   2.0000      -0.291008        -7.9187
  67   0.0000       0.021277         0.5790
  68   0.0000       0.074846         2.0367
  69   0.0000       0.104678         2.8484
  70   0.0000       0.116634         3.1738
  71   0.0000       0.131418         3.5761

MULLIKEN ATOMIC CHARGES
-----------------------
   0 S :    0.097800
   1 C :   -0.148209
   2 C :   -0.057453
   3 C :    0.010193
   4 C :   -0.133748
   5 H :    0.030854
   6 C :    0.074424
   7 H :    0.045524
   8 H :    0.007706
   9 C :   -0.118463
  10 H :    0.026648
  11 H :    0.036710
  12 C :   -0.032060
  13 H :    0.041928
  14 H :    0.024048
  15 H :    0.021554
  16 S :    0.102178
  17 C :   -0.090541
  18 C :   -0.013566
  19 C :   -0.066029
  20 C :   -0.114553
  21 H :    0.013196
  22 C :    0.050759
  23 H :    0.014469
  24 H :    0.020928
  25 C :   -0.075515
  26 H :    0.026159
  27 H :    0.029059
  28 C :   -0.021199
  29 H :    0.011763
  30 H :    0.022525
  31 H :    0.037735
  32 H :    0.075373
  33 H :    0.049800
Sum of atomic charges:    0.0000000

LOEWDIN ATOMIC CHARGES
----------------------
   0 S :    0.384459
   1 C :   -0.195452
   2 C :   -0.060856
   3 C :   -0.065968
   4 C :   -0.175343
   5 H :    0.035504
   6 C :   -0.033262
   7 H :    0.035397
   8 H :    0.028407
   9 C :   -0.047021
  10 H :    0.019660
  11 H :    0.027707
  12 C :   -0.059336
  13 H :    0.031224
  14 H :    0.019410
  15 H :    0.020970
  16 S :    0.422298
  17 C :   -0.175934
  18 C :   -0.061570
  19 C :   -0.057718
  20 C :   -0.213029
  21 H :    0.028192
  22 C :   -0.035479
  23 H :    0.027986
  24 H :    0.022592
  25 C :   -0.044518
  26 H :    0.017781
  27 H :    0.031277
  28 C :   -0.068328
  29 H :    0.015585
  30 H :    0.026347
  31 H :    0.033237
  32 H :    0.042815
  33 H :    0.022966

  Mayer bond orders larger than 0.100000
B(  0-S ,  1-C ) :   1.1188 B(  0-S ,  4-C ) :   1.1562 B(  1-C ,  2-C ) :   1.6177
B(  1-C ,  4-C ) :   0.1022 B(  1-C , 32-H ) :   0.9622 B(  2-C ,  3-C ) :   1.2279
B(  2-C ,  6-C ) :   1.0276 B(  3-C ,  4-C ) :   1.5709 B(  3-C ,  5-H ) :   0.9858
B(  4-C , 20-C ) :   1.0411 B(  6-C ,  7-H ) :   0.9377 B(  6-C ,  8-H ) :   0.9419
B(  6-C ,  9-C ) :   1.0610 B(  9-C , 10-H ) :   0.9494 B(  9-C , 11-H ) :   0.9602
B(  9-C , 12-C ) :   1.0886 B( 12-C , 13-H ) :   0.9745 B( 12-C , 14-H ) :   0.9737
B( 12-C , 15-H ) :   0.9747 B( 16-S , 17-C ) :   1.1731 B( 16-S , 20-C ) :   1.1366
B( 17-C , 18-C ) :   1.5865 B( 17-C , 33-H ) :   0.9738 B( 18-C , 19-C ) :   1.2325
B( 18-C , 21-H ) :   1.0043 B( 19-C , 20-C ) :   1.6022 B( 19-C , 22-C ) :   1.0510
B( 22-C , 23-H ) :   0.9334 B( 22-C , 24-H ) :   0.9360 B( 22-C , 25-C ) :   1.0662
B( 25-C , 26-H ) :   0.9565 B( 25-C , 27-H ) :   0.9499 B( 25-C , 28-C ) :   1.0724
B( 28-C , 29-H ) :   0.9754 B( 28-C , 30-H ) :   0.9726 B( 28-C , 31-H ) :   0.9749

Dispersion correction           -0.014014091
FINAL SINGLE POINT ENERGY     -1339.878328477287

DIPOLE MOMENT
-------------
                                X             Y             Z
Electronic contribution:     25.95493      16.75483       4.65036
Nuclear contribution   :    -26.43745     -16.94735      -4.85297
                        -----------------------------------------
Total Dipole Moment    :     -0.48252      -0.19251      -0.20261
                        -----------------------------------------
Magnitude (a.u.)       :      0.55762
Magnitude (Debye)      :      1.41736

Rotational constants in cm-1:     0.018401     0.008656     0.006624
Rotational constants in MHz :   551.653352   259.501887   198.592199

                             ****ORCA TERMINATED NORMALLY****
TOTAL RUN TIME: 0 days 0 hours 0 minutes 20 seconds 456 msec
