                         Program Version 4.2.1 -  RELEASE  -
|  1> ! wB97X-D3 SP def2-SVP
|  2> %pal
|  3> nprocs 24
|  4> end
|  5>
|  6> * xyz 0 1
|  7> S 	 -99.0297 	 8.78939 	 4.35664
|  8> C 	 -98.745 	 7.48495 	 3.15294
|  9> C 	 -99.1114 	 6.26237 	 3.64783
| 10> C 	 -99.6819 	 6.4613 	 4.97647
| 11> C 	 -99.7982 	 7.73747 	 5.52393
| 12> H 	 -99.9134 	 5.64452 	 5.70628
| 13> C 	 -98.8354 	 4.83716 	 3.04366
| 14> H 	 -99.2928 	 4.7939 	 2.08777
| 15> H 	 -99.3582 	 4.06644 	 3.65018
| 16> C 	 -97.3642 	 4.44729 	 2.92922
| 17> H 	 -96.948 	 5.24113 	 2.41251
| 18> H 	 -96.8465 	 4.39727 	 3.79718
| 19> C 	 -97.0678 	 3.24828 	 2.07239
| 20> H 	 -96.0531 	 3.05512 	 1.95035
| 21> H 	 -97.4268 	 2.32531 	 2.55166
| 22> H 	 -97.5009 	 3.35086 	 1.14537
| 23> S 	 -101.448 	 9.24769 	 6.97602
| 24> C 	 -101.487 	 9.26829 	 8.70213
| 25> C 	 -100.621 	 8.27462 	 9.14542
| 26> C 	 -99.9478 	 7.52674 	 8.18915
| 27> C 	 -100.189 	 8.05279 	 6.87569
| 28> H 	 -100.583 	 8.22234 	 10.2238
| 29> C 	 -98.8142 	 6.57066 	 8.41432
| 30> H 	 -99.0224 	 5.67786 	 7.79034
| 31> H 	 -98.929 	 6.31812 	 9.47659
| 32> C 	 -97.4615 	 7.1313 	 8.12056
| 33> H 	 -97.4348 	 8.19861 	 8.36702
| 34> H 	 -97.2942 	 7.1205 	 7.04388
| 35> C 	 -96.3859 	 6.3719 	 8.87609
| 36> H 	 -95.4988 	 6.97007 	 8.85964
| 37> H 	 -96.1052 	 5.4771 	 8.37262
| 38> H 	 -96.4855 	 6.25523 	 9.96738
| 39> H 	 -98.2547 	 7.62208 	 2.1931
| 40> H 	 -102.215 	 9.90995 	 9.22647
| 41> *
| 42>
| 43>                          ****END OF INPUT****

CARTESIAN COORDINATES (ANGSTROEM)
---------------------------------
  S    -99.029700    8.789390    4.356640
  C    -98.745000    7.484950    3.152940
  C    -99.111400    6.262370    3.647830
  C    -99.681900    6.461300    4.976470
  C    -99.798200    7.737470    5.523930
  H    -99.913400    5.644520    5.706280
  C    -98.835400    4.837160    3.043660
  H    -99.292800    4.793900    2.087770
  H    -99.358200    4.066440    3.650180
  C    -97.364200    4.447290    2.929220
  H    -96.948000    5.241130    2.412510
  H    -96.846500    4.397270    3.797180
  C    -97.067800    3.248280    2.072390
  H    -96.053100    3.055120    1.950350
  H    -97.426800    2.325310    2.551660
  H    -97.500900    3.350860    1.145370
  S    -101.448000    9.247690    6.976020
  C    -101.487000    9.268290    8.702130
  C    -100.621000    8.274620    9.145420
  C    -99.947800    7.526740    8.189150
  C    -100.189000    8.052790    6.875690
  H    -100.583000    8.222340   10.223800
  C    -98.814200    6.570660    8.414320
  H    -99.022400    5.677860    7.790340
  H    -98.929000    6.318120    9.476590
  C    -97.461500    7.131300    8.120560
  H    -97.434800    8.198610    8.367020
  H    -97.294200    7.120500    7.043880
  C    -96.385900    6.371900    8.876090
  H    -95.498800    6.970070    8.859640
  H    -96.105200    5.477100    8.372620
  H    -96.485500    6.255230    9.967380
  H    -98.254700    7.622080    2.193100
  H    -102.215000    9.909950    9.226470

 Total Charge           Charge          ....    0
 Multiplicity           Mult            ....    1
 Number of Electrons    NEL             ....  134
 Basis Dimension        Dim             ....  322

ORBITAL ENERGIES
----------------

  NO   OCC          E(Eh)            E(eV)
   0   2.0000     -88.966193     -2420.8932
   1   2.0000     -88.961654     -2420.7697
   2   2.0000     -10.331087      -281.1232
   3   2.0000     -10.328174      -281.0439
   4   2.0000     -10.321544      -280.8635
   5   2.0000     -10.318767      -280.7879
   6   2.0000     -10.310163      -280.5538
   7   2.0000     -10.305463      -280.4259
   8   2.0000     -10.299525      -280.2643
   9   2.0000     -10.298010      -280.2231
  10   2.0000     -10.293881      -280.1107
  11   2.0000     -10.287759      -279.9442
  12   2.0000     -10.280155      -279.7372
  13   2.0000     -10.271693      -279.5070
  14   2.0000     -10.270892      -279.4852
  15   2.0000     -10.267617      -279.3960
  16   2.0000      -8.080028      -219.8688
  17   2.0000      -8.077184      -219.7914
  18   2.0000      -6.038767      -164.3232
  19   2.0000      -6.035324      -164.2295
  20   2.0000      -6.034604      -164.2099
  21   2.0000      -6.031209      -164.1175
  22   2.0000      -6.030599      -164.1009
  23   2.0000      -6.028668      -164.0484
  24   2.0000      -1.007395       -27.4126
  25   2.0000      -0.982969       -26.7479
  26   2.0000      -0.918418       -24.9914
  27   2.0000      -0.916400       -24.9365
  28   2.0000      -0.876481       -23.8503
  29   2.0000      -0.853285       -23.2191
  30   2.0000      -0.842946       -22.9377
  31   2.0000      -0.811095       -22.0710
  32   2.0000      -0.787986       -21.4422
  33   2.0000      -0.775971       -21.1152
  34   2.0000      -0.713765       -19.4225
  35   2.0000      -0.709879       -19.3168
  36   2.0000      -0.693590       -18.8735
  37   2.0000      -0.662197       -18.0193
  38   2.0000      -0.639332       -17.3971
  39   2.0000      -0.615412       -16.7462
  40   2.0000      -0.595511       -16.2047
  41   2.0000      -0.576208       -15.6794
  42   2.0000      -0.570561       -15.5258
  43   2.0000      -0.565920       -15.3995
  44   2.0000      -0.534249       -14.5377
  45   2.0000      -0.529479       -14.4078
  46   2.0000      -0.519807       -14.1447
  47   2.0000      -0.513935       -13.9849
  48   2.0000      -0.506391       -13.7796
  49   2.0000      -0.503581       -13.7031
  50   2.0000      -0.489235       -13.3128
  51   2.0000      -0.484770       -13.1913
  52   2.0000      -0.477988       -13.0067
  53   2.0000      -0.466954       -12.7065
  54   2.0000      -0.461518       -12.5585
  55   2.0000      -0.452808       -12.3215
  56   2.0000      -0.442413       -12.0387
  57   2.0000      -0.437332       -11.9004
  58   2.0000      -0.430417       -11.7123
  59   2.0000      -0.421445       -11.4681
  60   2.0000      -0.417025       -11.3478
  61   2.0000      -0.415095       -11.2953
  62   2.0000      -0.409242       -11.1360
  63   2.0000      -0.345599        -9.4042
  64   2.0000      -0.333401        -9.0723
  65   2.0000      -0.326854        -8.8942
  66   2.0000      -0.293082        -7.9752
  67   0.0000       0.024258         0.6601
  68   0.0000       0.066731         1.8158
  69   0.0000       0.114126         3.1055
  70   0.0000       0.124346         3.3836
  71   0.0000       0.130736         3.5575

MULLIKEN ATOMIC CHARGES
-----------------------
   0 S :    0.102631
   1 C :   -0.141996
   2 C :   -0.060240
   3 C :   -0.021210
   4 C :   -0.124383
   5 H :    0.021285
   6 C :    0.082126
   7 H :    0.020145
   8 H :    0.025909
   9 C :   -0.012040
  10 H :   -0.004284
  11 H :    0.003918
  12 C :    0.000924
  13 H :    0.017565
  14 H :    0.020468
  15 H :    0.009763
  16 S :    0.105671
  17 C :   -0.111338
  18 C :   -0.065368
  19 C :    0.006899
  20 C :   -0.200203
  21 H :    0.016443
  22 C :    0.073452
  23 H :    0.029434
  24 H :    0.014666
  25 C :   -0.059096
  26 H :    0.031661
  27 H :    0.037799
  28 C :   -0.022984
  29 H :    0.012766
  30 H :    0.026660
  31 H :    0.032496
  32 H :    0.054628
  33 H :    0.075830
Sum of atomic charges:    0.0000000

LOEWDIN ATOMIC CHARGES
----------------------
   0 S :    0.388275
   1 C :   -0.178944
   2 C :   -0.063209
   3 C :   -0.070748
   4 C :   -0.214698
   5 H :    0.030250
   6 C :   -0.018221
   7 H :    0.027346
   8 H :    0.031843
   9 C :   -0.029305
  10 H :    0.016237
  11 H :    0.012370
  12 C :   -0.048165
  13 H :    0.021275
  14 H :    0.026117
  15 H :    0.014350
  16 S :    0.436798
  17 C :   -0.200186
  18 C :   -0.079870
  19 C :   -0.055111
  20 C :   -0.204478
  21 H :    0.031584
  22 C :   -0.034084
  23 H :    0.033146
  24 H :    0.029549
  25 C :   -0.039937
  26 H :    0.027518
  27 H :    0.030916
  28 C :   -0.065265
  29 H :    0.025086
  30 H :    0.022511
  31 H :    0.028988
  32 H :    0.030685
  33 H :    0.037380

  Mayer bond orders larger than 0.100000
B(  0-S ,  1-C ) :   1.1370 B(  0-S ,  4-C ) :   1.1255 B(  1-C ,  2-C ) :   1.6148
B(  1-C , 32-H ) :   0.9668 B(  2-C ,  3-C ) :   1.2423 B(  2-C ,  6-C ) :   1.0096
B(  3-C ,  4-C ) :   1.5852 B(  3-C ,  5-H ) :   0.9839 B(  4-C , 20-C ) :   1.0588
B(  6-C ,  7-H ) :   0.9363 B(  6-C ,  8-H ) :   0.9452 B(  6-C ,  9-C ) :   1.0668
B(  9-C , 10-H ) :   0.9479 B(  9-C , 11-H ) :   0.9536 B(  9-C , 12-C ) :   1.0989
B( 12-C , 13-H ) :   0.9695 B( 12-C , 14-H ) :   0.9726 B( 12-C , 15-H ) :   0.9719
B( 16-S , 17-C ) :   1.1913 B( 16-S , 20-C ) :   1.1950 B( 17-C , 18-C ) :   1.5281
B( 17-C , 20-C ) :   0.1257 B( 17-C , 33-H ) :   0.9693 B( 18-C , 19-C ) :   1.2981
B( 18-C , 21-H ) :   0.9961 B( 19-C , 20-C ) :   1.4703 B( 19-C , 22-C ) :   1.0544
B( 22-C , 23-H ) :   0.9208 B( 22-C , 24-H ) :   0.9355 B( 22-C , 25-C ) :   1.0685
B( 25-C , 26-H ) :   0.9583 B( 25-C , 27-H ) :   0.9422 B( 25-C , 28-C ) :   1.0945
B( 28-C , 29-H ) :   0.9689 B( 28-C , 30-H ) :   0.9732 B( 28-C , 31-H ) :   0.9744

Dispersion correction           -0.014249995
FINAL SINGLE POINT ENERGY     -1339.854840541278

DIPOLE MOMENT
-------------
                                X             Y             Z
Electronic contribution:    -19.21895      23.35557       1.17229
Nuclear contribution   :     19.67096     -23.91096      -1.04242
                        -----------------------------------------
Total Dipole Moment    :      0.45202      -0.55539       0.12987
                        -----------------------------------------
Magnitude (a.u.)       :      0.72776
Magnitude (Debye)      :      1.84983

Rotational constants in cm-1:     0.019922     0.008174     0.006566
Rotational constants in MHz :   597.253299   245.037376   196.838353

                             ****ORCA TERMINATED NORMALLY****
TOTAL RUN TIME: 0 days 0 hours 0 minutes 21 seconds 751 msec
