                         Program Version 4.2.1 -  RELEASE  -
|  1> ! wB97X-D3 SP def2-SVP
|  2> %pal
|  3> nprocs 24
|  4> end
|  5>
|  6> * xyz 0 1
|  7> S 	 -40.9873 	 8.88826 	 30.7563
|  8> C 	 -42.6902 	 8.54699 	 30.9735
|  9> C 	 -43.4243 	 8.68667 	 29.7697
| 10> C 	 -42.5551 	 8.86504 	 28.6939
| 11> C 	 -41.2473 	 8.99509 	 29.0404
| 12> H 	 -42.687 	 8.92071 	 27.635
| 13> C 	 -44.9342 	 8.66043 	 29.5907
| 14> H 	 -45.3017 	 7.96006 	 30.3237
| 15> H 	 -45.1573 	 8.1875 	 28.5704
| 16> C 	 -45.5735 	 9.98919 	 29.801
| 17> H 	 -46.5751 	 9.93345 	 29.4684
| 18> H 	 -45.5323 	 10.4047 	 30.8356
| 19> C 	 -44.9685 	 11.1198 	 28.9803
| 20> H 	 -44.9649 	 11.0043 	 27.9071
| 21> H 	 -45.6713 	 11.9269 	 29.2392
| 22> H 	 -43.9863 	 11.5284 	 29.3182
| 23> S 	 -39.6382 	 7.39865 	 27.4336
| 24> C 	 -38.2615 	 8.2046 	 26.6366
| 25> C 	 -38.1086 	 9.53142 	 27.0347
| 26> C 	 -39.2729 	 10.0422 	 27.7088
| 27> C 	 -40.1214 	 9.01422 	 28.1412
| 28> H 	 -37.2931 	 10.1584 	 26.7141
| 29> C 	 -39.4534 	 11.506 	 28.0848
| 30> H 	 -38.5156 	 11.8698 	 28.5218
| 31> H 	 -40.3044 	 11.5373 	 28.7877
| 32> C 	 -39.808 	 12.3354 	 26.7941
| 33> H 	 -38.9001 	 12.2972 	 26.0975
| 34> H 	 -40.1031 	 13.3274 	 26.9761
| 35> C 	 -41.0442 	 11.7217 	 25.9961
| 36> H 	 -41.4125 	 12.418 	 25.2182
| 37> H 	 -41.8506 	 11.5254 	 26.7275
| 38> H 	 -40.7465 	 10.7683 	 25.5422
| 39> H 	 -43.2048 	 8.29113 	 31.9172
| 40> H 	 -37.5892 	 7.60353 	 25.9736
| 41> *
| 42>
| 43>                          ****END OF INPUT****

CARTESIAN COORDINATES (ANGSTROEM)
---------------------------------
  S    -40.987300    8.888260   30.756300
  C    -42.690200    8.546990   30.973500
  C    -43.424300    8.686670   29.769700
  C    -42.555100    8.865040   28.693900
  C    -41.247300    8.995090   29.040400
  H    -42.687000    8.920710   27.635000
  C    -44.934200    8.660430   29.590700
  H    -45.301700    7.960060   30.323700
  H    -45.157300    8.187500   28.570400
  C    -45.573500    9.989190   29.801000
  H    -46.575100    9.933450   29.468400
  H    -45.532300   10.404700   30.835600
  C    -44.968500   11.119800   28.980300
  H    -44.964900   11.004300   27.907100
  H    -45.671300   11.926900   29.239200
  H    -43.986300   11.528400   29.318200
  S    -39.638200    7.398650   27.433600
  C    -38.261500    8.204600   26.636600
  C    -38.108600    9.531420   27.034700
  C    -39.272900   10.042200   27.708800
  C    -40.121400    9.014220   28.141200
  H    -37.293100   10.158400   26.714100
  C    -39.453400   11.506000   28.084800
  H    -38.515600   11.869800   28.521800
  H    -40.304400   11.537300   28.787700
  C    -39.808000   12.335400   26.794100
  H    -38.900100   12.297200   26.097500
  H    -40.103100   13.327400   26.976100
  C    -41.044200   11.721700   25.996100
  H    -41.412500   12.418000   25.218200
  H    -41.850600   11.525400   26.727500
  H    -40.746500   10.768300   25.542200
  H    -43.204800    8.291130   31.917200
  H    -37.589200    7.603530   25.973600

 Total Charge           Charge          ....    0
 Multiplicity           Mult            ....    1
 Number of Electrons    NEL             ....  134
 Basis Dimension        Dim             ....  322

ORBITAL ENERGIES
----------------

  NO   OCC          E(Eh)            E(eV)
   0   2.0000     -88.968231     -2420.9486
   1   2.0000     -88.962901     -2420.8036
   2   2.0000     -10.327115      -281.0151
   3   2.0000     -10.326329      -280.9937
   4   2.0000     -10.318650      -280.7848
   5   2.0000     -10.317523      -280.7541
   6   2.0000     -10.306654      -280.4583
   7   2.0000     -10.300534      -280.2918
   8   2.0000     -10.297890      -280.2198
   9   2.0000     -10.297786      -280.2170
  10   2.0000     -10.293968      -280.1131
  11   2.0000     -10.292505      -280.0733
  12   2.0000     -10.284952      -279.8678
  13   2.0000     -10.284494      -279.8553
  14   2.0000     -10.279336      -279.7149
  15   2.0000     -10.274977      -279.5963
  16   2.0000      -8.082879      -219.9463
  17   2.0000      -8.076241      -219.7657
  18   2.0000      -6.041199      -164.3894
  19   2.0000      -6.037453      -164.2874
  20   2.0000      -6.034723      -164.2132
  21   2.0000      -6.033781      -164.1875
  22   2.0000      -6.031113      -164.1149
  23   2.0000      -6.026934      -164.0012
  24   2.0000      -1.004459       -27.3327
  25   2.0000      -0.974836       -26.5266
  26   2.0000      -0.918073       -24.9820
  27   2.0000      -0.898727       -24.4556
  28   2.0000      -0.865240       -23.5444
  29   2.0000      -0.851662       -23.1749
  30   2.0000      -0.837117       -22.7791
  31   2.0000      -0.810087       -22.0436
  32   2.0000      -0.783126       -21.3100
  33   2.0000      -0.766702       -20.8630
  34   2.0000      -0.699228       -19.0269
  35   2.0000      -0.697362       -18.9762
  36   2.0000      -0.687547       -18.7091
  37   2.0000      -0.657943       -17.9035
  38   2.0000      -0.643645       -17.5145
  39   2.0000      -0.607462       -16.5299
  40   2.0000      -0.588606       -16.0168
  41   2.0000      -0.575772       -15.6676
  42   2.0000      -0.554317       -15.0837
  43   2.0000      -0.551065       -14.9953
  44   2.0000      -0.548823       -14.9342
  45   2.0000      -0.538976       -14.6663
  46   2.0000      -0.512450       -13.9445
  47   2.0000      -0.510904       -13.9024
  48   2.0000      -0.494253       -13.4493
  49   2.0000      -0.490339       -13.3428
  50   2.0000      -0.484497       -13.1838
  51   2.0000      -0.471509       -12.8304
  52   2.0000      -0.464690       -12.6449
  53   2.0000      -0.461175       -12.5492
  54   2.0000      -0.455088       -12.3836
  55   2.0000      -0.445016       -12.1095
  56   2.0000      -0.443462       -12.0672
  57   2.0000      -0.435272       -11.8443
  58   2.0000      -0.431586       -11.7440
  59   2.0000      -0.423537       -11.5250
  60   2.0000      -0.421576       -11.4717
  61   2.0000      -0.414788       -11.2869
  62   2.0000      -0.413758       -11.2589
  63   2.0000      -0.339626        -9.2417
  64   2.0000      -0.328268        -8.9326
  65   2.0000      -0.317681        -8.6445
  66   2.0000      -0.302209        -8.2235
  67   0.0000       0.040239         1.0950
  68   0.0000       0.049109         1.3363
  69   0.0000       0.106299         2.8925
  70   0.0000       0.112612         3.0643
  71   0.0000       0.123549         3.3619

MULLIKEN ATOMIC CHARGES
-----------------------
   0 S :    0.137713
   1 C :   -0.135322
   2 C :   -0.090239
   3 C :    0.053815
   4 C :   -0.210005
   5 H :   -0.000787
   6 C :    0.081831
   7 H :    0.017327
   8 H :    0.042584
   9 C :   -0.039111
  10 H :    0.023194
  11 H :    0.037433
  12 C :   -0.088435
  13 H :    0.032482
  14 H :    0.025208
  15 H :    0.047992
  16 S :    0.095180
  17 C :   -0.116818
  18 C :   -0.004703
  19 C :   -0.059441
  20 C :   -0.177397
  21 H :    0.021018
  22 C :    0.083574
  23 H :    0.041329
  24 H :    0.036721
  25 C :   -0.094102
  26 H :    0.040212
  27 H :    0.029137
  28 C :   -0.088984
  29 H :    0.043418
  30 H :    0.033158
  31 H :    0.050945
  32 H :    0.053133
  33 H :    0.077939
Sum of atomic charges:   -0.0000000

LOEWDIN ATOMIC CHARGES
----------------------
   0 S :    0.420352
   1 C :   -0.203466
   2 C :   -0.061360
   3 C :   -0.057314
   4 C :   -0.212818
   5 H :    0.031533
   6 C :   -0.036900
   7 H :    0.028466
   8 H :    0.041317
   9 C :   -0.040771
  10 H :    0.022377
  11 H :    0.034589
  12 C :   -0.072165
  13 H :    0.018603
  14 H :    0.029575
  15 H :    0.028507
  16 S :    0.357469
  17 C :   -0.172182
  18 C :   -0.072078
  19 C :   -0.047960
  20 C :   -0.184549
  21 H :    0.029926
  22 C :   -0.027189
  23 H :    0.034230
  24 H :    0.031245
  25 C :   -0.036665
  26 H :    0.027600
  27 H :    0.014665
  28 C :   -0.070634
  29 H :    0.027631
  30 H :    0.024145
  31 H :    0.026278
  32 H :    0.031955
  33 H :    0.035588

  Mayer bond orders larger than 0.100000
B(  0-S ,  1-C ) :   1.1573 B(  0-S ,  4-C ) :   1.1467 B(  1-C ,  2-C ) :   1.5885
B(  1-C ,  4-C ) :   0.1031 B(  1-C , 32-H ) :   0.9637 B(  2-C ,  3-C ) :   1.2254
B(  2-C ,  6-C ) :   1.0136 B(  3-C ,  4-C ) :   1.5915 B(  3-C ,  5-H ) :   1.0000
B(  4-C , 20-C ) :   1.0345 B(  6-C ,  7-H ) :   0.9299 B(  6-C ,  8-H ) :   0.9432
B(  6-C ,  9-C ) :   1.0863 B(  9-C , 10-H ) :   0.9530 B(  9-C , 11-H ) :   0.9522
B(  9-C , 12-C ) :   1.0825 B( 12-C , 13-H ) :   0.9759 B( 12-C , 14-H ) :   0.9735
B( 12-C , 15-H ) :   0.9693 B( 16-S , 17-C ) :   1.1483 B( 16-S , 20-C ) :   1.1120
B( 17-C , 18-C ) :   1.6193 B( 17-C , 20-C ) :   0.1043 B( 17-C , 33-H ) :   0.9620
B( 18-C , 19-C ) :   1.2147 B( 18-C , 21-H ) :   0.9843 B( 19-C , 20-C ) :   1.6162
B( 19-C , 22-C ) :   1.0411 B( 22-C , 23-H ) :   0.9433 B( 22-C , 24-H ) :   0.9335
B( 22-C , 25-C ) :   1.0547 B( 25-C , 26-H ) :   0.9608 B( 25-C , 27-H ) :   0.9640
B( 25-C , 28-C ) :   1.0638 B( 28-C , 29-H ) :   0.9764 B( 28-C , 30-H ) :   0.9767
B( 28-C , 31-H ) :   0.9719

Dispersion correction           -0.016333607
FINAL SINGLE POINT ENERGY     -1339.874156046836

DIPOLE MOMENT
-------------
                                X             Y             Z
Electronic contribution:     15.64780     -18.38269       7.34259
Nuclear contribution   :    -15.94889      18.76322      -7.47239
                        -----------------------------------------
Total Dipole Moment    :     -0.30109       0.38053      -0.12981
                        -----------------------------------------
Magnitude (a.u.)       :      0.50230
Magnitude (Debye)      :      1.27675

Rotational constants in cm-1:     0.019917     0.009571     0.007871
Rotational constants in MHz :   597.100996   286.936223   235.957894

                             ****ORCA TERMINATED NORMALLY****
TOTAL RUN TIME: 0 days 0 hours 0 minutes 22 seconds 936 msec
