                         Program Version 4.2.1 -  RELEASE  -
|  1> ! wB97X-D3 SP def2-SVP
|  2> %pal
|  3> nprocs 24
|  4> end
|  5>
|  6> * xyz 0 1
|  7> S 	 -110.313 	 54.9667 	 -93.781
|  8> C 	 -110.714 	 56.0079 	 -92.4225
|  9> C 	 -111.505 	 57.053 	 -92.8173
| 10> C 	 -111.593 	 57.0987 	 -94.2475
| 11> C 	 -110.96 	 56.0371 	 -94.9697
| 12> H 	 -112.265 	 57.8047 	 -94.7365
| 13> C 	 -112.322 	 57.8573 	 -91.9
| 14> H 	 -112.067 	 58.9225 	 -91.912
| 15> H 	 -112.085 	 57.6208 	 -90.8886
| 16> C 	 -113.841 	 57.7108 	 -92.1851
| 17> H 	 -114.488 	 58.3973 	 -91.5425
| 18> H 	 -114.062 	 57.9123 	 -93.2331
| 19> C 	 -114.329 	 56.3231 	 -91.811
| 20> H 	 -114.351 	 56.2598 	 -90.7188
| 21> H 	 -115.368 	 56.2163 	 -92.1978
| 22> H 	 -113.564 	 55.5292 	 -92.0785
| 23> S 	 -112.576 	 55.807 	 -97.0838
| 24> C 	 -111.96 	 55.6087 	 -98.7129
| 25> C 	 -110.624 	 55.3697 	 -98.6461
| 26> C 	 -110.077 	 55.4705 	 -97.3722
| 27> C 	 -111.018 	 55.8201 	 -96.4021
| 28> H 	 -110.072 	 55.0849 	 -99.5204
| 29> C 	 -108.654 	 55.2137 	 -97.1481
| 30> H 	 -108.472 	 54.4742 	 -97.9908
| 31> H 	 -108.676 	 54.663 	 -96.2251
| 32> C 	 -107.742 	 56.4522 	 -97.2206
| 33> H 	 -108.046 	 56.9991 	 -96.3686
| 34> H 	 -107.91 	 57.0292 	 -98.1437
| 35> C 	 -106.26 	 56.0617 	 -97.14
| 36> H 	 -105.601 	 56.8764 	 -97.2873
| 37> H 	 -105.91 	 55.2618 	 -97.7197
| 38> H 	 -106.133 	 55.7499 	 -96.1336
| 39> H 	 -110.523 	 55.8729 	 -91.3828
| 40> H 	 -112.431 	 55.6924 	 -99.6599
| 41> *
| 42>
| 43>                          ****END OF INPUT****

CARTESIAN COORDINATES (ANGSTROEM)
---------------------------------
  S    -110.313000   54.966700  -93.781000
  C    -110.714000   56.007900  -92.422500
  C    -111.505000   57.053000  -92.817300
  C    -111.593000   57.098700  -94.247500
  C    -110.960000   56.037100  -94.969700
  H    -112.265000   57.804700  -94.736500
  C    -112.322000   57.857300  -91.900000
  H    -112.067000   58.922500  -91.912000
  H    -112.085000   57.620800  -90.888600
  C    -113.841000   57.710800  -92.185100
  H    -114.488000   58.397300  -91.542500
  H    -114.062000   57.912300  -93.233100
  C    -114.329000   56.323100  -91.811000
  H    -114.351000   56.259800  -90.718800
  H    -115.368000   56.216300  -92.197800
  H    -113.564000   55.529200  -92.078500
  S    -112.576000   55.807000  -97.083800
  C    -111.960000   55.608700  -98.712900
  C    -110.624000   55.369700  -98.646100
  C    -110.077000   55.470500  -97.372200
  C    -111.018000   55.820100  -96.402100
  H    -110.072000   55.084900  -99.520400
  C    -108.654000   55.213700  -97.148100
  H    -108.472000   54.474200  -97.990800
  H    -108.676000   54.663000  -96.225100
  C    -107.742000   56.452200  -97.220600
  H    -108.046000   56.999100  -96.368600
  H    -107.910000   57.029200  -98.143700
  C    -106.260000   56.061700  -97.140000
  H    -105.601000   56.876400  -97.287300
  H    -105.910000   55.261800  -97.719700
  H    -106.133000   55.749900  -96.133600
  H    -110.523000   55.872900  -91.382800
  H    -112.431000   55.692400  -99.659900

 Total Charge           Charge          ....    0
 Multiplicity           Mult            ....    1
 Number of Electrons    NEL             ....  134
 Basis Dimension        Dim             ....  322

ORBITAL ENERGIES
----------------

  NO   OCC          E(Eh)            E(eV)
   0   2.0000     -88.971305     -2421.0323
   1   2.0000     -88.965662     -2420.8787
   2   2.0000     -10.335974      -281.2561
   3   2.0000     -10.322362      -280.8857
   4   2.0000     -10.313242      -280.6376
   5   2.0000     -10.311345      -280.5860
   6   2.0000     -10.298197      -280.2282
   7   2.0000     -10.297906      -280.2203
   8   2.0000     -10.292482      -280.0727
   9   2.0000     -10.291526      -280.0467
  10   2.0000     -10.290338      -280.0143
  11   2.0000     -10.285168      -279.8737
  12   2.0000     -10.283656      -279.8325
  13   2.0000     -10.283556      -279.8298
  14   2.0000     -10.277935      -279.6768
  15   2.0000     -10.262933      -279.2686
  16   2.0000      -8.085551      -220.0190
  17   2.0000      -8.080932      -219.8933
  18   2.0000      -6.044198      -164.4710
  19   2.0000      -6.039968      -164.3559
  20   2.0000      -6.039455      -164.3419
  21   2.0000      -6.036351      -164.2575
  22   2.0000      -6.035259      -164.2278
  23   2.0000      -6.031729      -164.1317
  24   2.0000      -1.014706       -27.6116
  25   2.0000      -0.991752       -26.9869
  26   2.0000      -0.918858       -25.0034
  27   2.0000      -0.913627       -24.8611
  28   2.0000      -0.875483       -23.8231
  29   2.0000      -0.855874       -23.2895
  30   2.0000      -0.844650       -22.9841
  31   2.0000      -0.815271       -22.1846
  32   2.0000      -0.784001       -21.3337
  33   2.0000      -0.771611       -20.9966
  34   2.0000      -0.717284       -19.5183
  35   2.0000      -0.701816       -19.0974
  36   2.0000      -0.687145       -18.6982
  37   2.0000      -0.672614       -18.3027
  38   2.0000      -0.633531       -17.2392
  39   2.0000      -0.623894       -16.9770
  40   2.0000      -0.591917       -16.1069
  41   2.0000      -0.578089       -15.7306
  42   2.0000      -0.564464       -15.3598
  43   2.0000      -0.556509       -15.1434
  44   2.0000      -0.536970       -14.6117
  45   2.0000      -0.529233       -14.4012
  46   2.0000      -0.519939       -14.1483
  47   2.0000      -0.516896       -14.0655
  48   2.0000      -0.515450       -14.0261
  49   2.0000      -0.498869       -13.5749
  50   2.0000      -0.492293       -13.3960
  51   2.0000      -0.479720       -13.0538
  52   2.0000      -0.471225       -12.8227
  53   2.0000      -0.465740       -12.6734
  54   2.0000      -0.459205       -12.4956
  55   2.0000      -0.450448       -12.2573
  56   2.0000      -0.441574       -12.0158
  57   2.0000      -0.438558       -11.9338
  58   2.0000      -0.428862       -11.6699
  59   2.0000      -0.427071       -11.6212
  60   2.0000      -0.418592       -11.3905
  61   2.0000      -0.415421       -11.3042
  62   2.0000      -0.411339       -11.1931
  63   2.0000      -0.344089        -9.3632
  64   2.0000      -0.329668        -8.9707
  65   2.0000      -0.328820        -8.9476
  66   2.0000      -0.294393        -8.0108
  67   0.0000       0.025251         0.6871
  68   0.0000       0.073505         2.0002
  69   0.0000       0.107401         2.9225
  70   0.0000       0.118448         3.2231
  71   0.0000       0.130483         3.5506

MULLIKEN ATOMIC CHARGES
-----------------------
   0 S :    0.120001
   1 C :   -0.106218
   2 C :   -0.104603
   3 C :    0.010885
   4 C :   -0.143149
   5 H :    0.014534
   6 C :    0.103445
   7 H :    0.032648
   8 H :   -0.003221
   9 C :   -0.100827
  10 H :    0.038782
  11 H :    0.037678
  12 C :   -0.070120
  13 H :    0.018685
  14 H :    0.047363
  15 H :    0.051260
  16 S :    0.120129
  17 C :   -0.067239
  18 C :   -0.049187
  19 C :   -0.045174
  20 C :   -0.163024
  21 H :    0.009423
  22 C :    0.048636
  23 H :    0.021417
  24 H :    0.015728
  25 C :   -0.036762
  26 H :    0.029916
  27 H :    0.031184
  28 C :    0.014172
  29 H :    0.022972
  30 H :    0.016155
  31 H :    0.011384
  32 H :    0.033512
  33 H :    0.039616
Sum of atomic charges:   -0.0000000

LOEWDIN ATOMIC CHARGES
----------------------
   0 S :    0.421654
   1 C :   -0.193063
   2 C :   -0.067580
   3 C :   -0.063619
   4 C :   -0.211290
   5 H :    0.025023
   6 C :   -0.032076
   7 H :    0.034568
   8 H :    0.023813
   9 C :   -0.041384
  10 H :    0.031833
  11 H :    0.020985
  12 C :   -0.074720
  13 H :    0.020614
  14 H :    0.031922
  15 H :    0.033206
  16 S :    0.439551
  17 C :   -0.182875
  18 C :   -0.071338
  19 C :   -0.062147
  20 C :   -0.220597
  21 H :    0.029640
  22 C :   -0.036147
  23 H :    0.036053
  24 H :    0.022827
  25 C :   -0.025582
  26 H :    0.025289
  27 H :    0.026112
  28 C :   -0.058034
  29 H :    0.021576
  30 H :    0.018111
  31 H :    0.024719
  32 H :    0.025278
  33 H :    0.027679

  Mayer bond orders larger than 0.100000
B(  0-S ,  1-C ) :   1.1420 B(  0-S ,  4-C ) :   1.1577 B(  1-C ,  2-C ) :   1.5890
B(  1-C , 32-H ) :   0.9658 B(  2-C ,  3-C ) :   1.2653 B(  2-C ,  6-C ) :   1.0447
B(  3-C ,  4-C ) :   1.5211 B(  3-C ,  5-H ) :   0.9906 B(  4-C , 20-C ) :   1.0564
B(  6-C ,  7-H ) :   0.9279 B(  6-C ,  8-H ) :   0.9369 B(  6-C ,  9-C ) :   1.0621
B(  9-C , 10-H ) :   0.9559 B(  9-C , 11-H ) :   0.9600 B(  9-C , 12-C ) :   1.0653
B( 12-C , 13-H ) :   0.9747 B( 12-C , 14-H ) :   0.9724 B( 12-C , 15-H ) :   0.9757
B( 16-S , 17-C ) :   1.1595 B( 16-S , 20-C ) :   1.1648 B( 17-C , 18-C ) :   1.5848
B( 17-C , 20-C ) :   0.1023 B( 17-C , 33-H ) :   0.9696 B( 18-C , 19-C ) :   1.2937
B( 18-C , 21-H ) :   0.9886 B( 19-C , 20-C ) :   1.5285 B( 19-C , 22-C ) :   1.0345
B( 22-C , 23-H ) :   0.9325 B( 22-C , 24-H ) :   0.9241 B( 22-C , 25-C ) :   1.0585
B( 25-C , 26-H ) :   0.9548 B( 25-C , 27-H ) :   0.9589 B( 25-C , 28-C ) :   1.0808
B( 28-C , 29-H ) :   0.9741 B( 28-C , 30-H ) :   0.9764 B( 28-C , 31-H ) :   0.9703

Dispersion correction           -0.014611925
FINAL SINGLE POINT ENERGY     -1339.867142462242

DIPOLE MOMENT
-------------
                                X             Y             Z
Electronic contribution:     -5.17931      -6.44956      -6.23469
Nuclear contribution   :      5.20480       6.66333       6.27339
                        -----------------------------------------
Total Dipole Moment    :      0.02549       0.21378       0.03870
                        -----------------------------------------
Magnitude (a.u.)       :      0.21874
Magnitude (Debye)      :      0.55600

Rotational constants in cm-1:     0.021542     0.008573     0.006808
Rotational constants in MHz :   645.803235   257.025825   204.090482

                             ****ORCA TERMINATED NORMALLY****
TOTAL RUN TIME: 0 days 0 hours 0 minutes 21 seconds 830 msec
