                         Program Version 4.2.1 -  RELEASE  -
|  1> ! wB97X-D3 SP def2-SVP
|  2> %pal
|  3> nprocs 24
|  4> end
|  5>
|  6> * xyz 0 1
|  7> S 	 -104.673 	 65.9192 	 -11.8338
|  8> C 	 -103.996 	 67.4011 	 -11.0708
|  9> C 	 -102.989 	 66.9802 	 -10.2443
| 10> C 	 -103.156 	 65.5981 	 -9.83899
| 11> C 	 -104.226 	 64.9098 	 -10.4502
| 12> H 	 -102.527 	 65.0173 	 -9.16081
| 13> C 	 -102.01 	 67.9265 	 -9.67215
| 14> H 	 -101.243 	 67.3347 	 -9.1639
| 15> H 	 -102.449 	 68.649 	 -9.02499
| 16> C 	 -101.095 	 68.5971 	 -10.7069
| 17> H 	 -100.563 	 67.7974 	 -11.2281
| 18> H 	 -101.704 	 69.0886 	 -11.4993
| 19> C 	 -100.129 	 69.6031 	 -10.0798
| 20> H 	 -99.3623 	 69.8104 	 -10.7863
| 21> H 	 -100.729 	 70.4837 	 -9.86695
| 22> H 	 -99.7423 	 69.2864 	 -9.22606
| 23> S 	 -104.582 	 62.5127 	 -11.9664
| 24> C 	 -104.834 	 61.0315 	 -11.0471
| 25> C 	 -105.072 	 61.2494 	 -9.7448
| 26> C 	 -104.902 	 62.6659 	 -9.38864
| 27> C 	 -104.537 	 63.463 	 -10.4424
| 28> H 	 -105.444 	 60.5033 	 -9.13327
| 29> C 	 -105.115 	 63.1455 	 -7.96972
| 30> H 	 -105.334 	 64.1735 	 -7.95438
| 31> H 	 -104.146 	 62.9846 	 -7.39019
| 32> C 	 -106.185 	 62.4564 	 -7.22863
| 33> H 	 -106.216 	 62.8074 	 -6.17177
| 34> H 	 -106.127 	 61.3966 	 -7.2116
| 35> C 	 -107.544 	 62.6703 	 -7.86328
| 36> H 	 -107.696 	 63.7134 	 -8.0412
| 37> H 	 -108.365 	 62.3568 	 -7.31683
| 38> H 	 -107.609 	 62.1192 	 -8.77683
| 39> H 	 -104.027 	 68.3782 	 -11.5479
| 40> H 	 -104.905 	 60.1027 	 -11.6097
| 41> *
| 42>
| 43>                          ****END OF INPUT****

CARTESIAN COORDINATES (ANGSTROEM)
---------------------------------
  S    -104.673000   65.919200  -11.833800
  C    -103.996000   67.401100  -11.070800
  C    -102.989000   66.980200  -10.244300
  C    -103.156000   65.598100   -9.838990
  C    -104.226000   64.909800  -10.450200
  H    -102.527000   65.017300   -9.160810
  C    -102.010000   67.926500   -9.672150
  H    -101.243000   67.334700   -9.163900
  H    -102.449000   68.649000   -9.024990
  C    -101.095000   68.597100  -10.706900
  H    -100.563000   67.797400  -11.228100
  H    -101.704000   69.088600  -11.499300
  C    -100.129000   69.603100  -10.079800
  H    -99.362300   69.810400  -10.786300
  H    -100.729000   70.483700   -9.866950
  H    -99.742300   69.286400   -9.226060
  S    -104.582000   62.512700  -11.966400
  C    -104.834000   61.031500  -11.047100
  C    -105.072000   61.249400   -9.744800
  C    -104.902000   62.665900   -9.388640
  C    -104.537000   63.463000  -10.442400
  H    -105.444000   60.503300   -9.133270
  C    -105.115000   63.145500   -7.969720
  H    -105.334000   64.173500   -7.954380
  H    -104.146000   62.984600   -7.390190
  C    -106.185000   62.456400   -7.228630
  H    -106.216000   62.807400   -6.171770
  H    -106.127000   61.396600   -7.211600
  C    -107.544000   62.670300   -7.863280
  H    -107.696000   63.713400   -8.041200
  H    -108.365000   62.356800   -7.316830
  H    -107.609000   62.119200   -8.776830
  H    -104.027000   68.378200  -11.547900
  H    -104.905000   60.102700  -11.609700

 Total Charge           Charge          ....    0
 Multiplicity           Mult            ....    1
 Number of Electrons    NEL             ....  134
 Basis Dimension        Dim             ....  322

ORBITAL ENERGIES
----------------

  NO   OCC          E(Eh)            E(eV)
   0   2.0000     -88.962194     -2420.7844
   1   2.0000     -88.958953     -2420.6962
   2   2.0000     -10.336956      -281.2829
   3   2.0000     -10.331164      -281.1253
   4   2.0000     -10.319369      -280.8043
   5   2.0000     -10.316600      -280.7290
   6   2.0000     -10.305624      -280.4303
   7   2.0000     -10.303513      -280.3728
   8   2.0000     -10.303021      -280.3595
   9   2.0000     -10.292054      -280.0610
  10   2.0000     -10.287451      -279.9358
  11   2.0000     -10.287131      -279.9271
  12   2.0000     -10.286682      -279.9148
  13   2.0000     -10.278500      -279.6922
  14   2.0000     -10.266583      -279.3679
  15   2.0000     -10.258654      -279.1522
  16   2.0000      -8.076620      -219.7760
  17   2.0000      -8.073116      -219.6806
  18   2.0000      -6.035418      -164.2321
  19   2.0000      -6.031807      -164.1338
  20   2.0000      -6.031386      -164.1224
  21   2.0000      -6.028167      -164.0348
  22   2.0000      -6.026877      -163.9997
  23   2.0000      -6.023223      -163.9002
  24   2.0000      -1.001570       -27.2541
  25   2.0000      -0.982583       -26.7374
  26   2.0000      -0.920700       -25.0535
  27   2.0000      -0.918120       -24.9833
  28   2.0000      -0.873139       -23.7593
  29   2.0000      -0.848160       -23.0796
  30   2.0000      -0.840033       -22.8585
  31   2.0000      -0.818204       -22.2645
  32   2.0000      -0.787428       -21.4270
  33   2.0000      -0.777052       -21.1446
  34   2.0000      -0.705136       -19.1877
  35   2.0000      -0.703830       -19.1522
  36   2.0000      -0.695933       -18.9373
  37   2.0000      -0.657793       -17.8995
  38   2.0000      -0.639756       -17.4086
  39   2.0000      -0.616686       -16.7809
  40   2.0000      -0.608167       -16.5491
  41   2.0000      -0.578259       -15.7352
  42   2.0000      -0.570023       -15.5111
  43   2.0000      -0.559959       -15.2372
  44   2.0000      -0.542661       -14.7666
  45   2.0000      -0.530109       -14.4250
  46   2.0000      -0.522950       -14.2302
  47   2.0000      -0.514214       -13.9925
  48   2.0000      -0.509098       -13.8533
  49   2.0000      -0.503808       -13.7093
  50   2.0000      -0.491260       -13.3679
  51   2.0000      -0.480250       -13.0683
  52   2.0000      -0.470533       -12.8039
  53   2.0000      -0.466957       -12.7065
  54   2.0000      -0.460060       -12.5189
  55   2.0000      -0.447576       -12.1792
  56   2.0000      -0.444176       -12.0867
  57   2.0000      -0.435633       -11.8542
  58   2.0000      -0.434684       -11.8284
  59   2.0000      -0.421536       -11.4706
  60   2.0000      -0.419240       -11.4081
  61   2.0000      -0.415974       -11.3192
  62   2.0000      -0.408373       -11.1124
  63   2.0000      -0.353456        -9.6180
  64   2.0000      -0.327878        -8.9220
  65   2.0000      -0.318898        -8.6777
  66   2.0000      -0.293253        -7.9798
  67   0.0000       0.019574         0.5326
  68   0.0000       0.060780         1.6539
  69   0.0000       0.095998         2.6122
  70   0.0000       0.113997         3.1020
  71   0.0000       0.132994         3.6189

MULLIKEN ATOMIC CHARGES
-----------------------
   0 S :    0.063287
   1 C :   -0.103320
   2 C :   -0.082083
   3 C :    0.031499
   4 C :   -0.143219
   5 H :    0.017795
   6 C :    0.067797
   7 H :    0.018078
   8 H :    0.039578
   9 C :   -0.145596
  10 H :    0.028613
  11 H :    0.022958
  12 C :    0.051174
  13 H :    0.031855
  14 H :    0.025226
  15 H :   -0.007498
  16 S :    0.081511
  17 C :   -0.089196
  18 C :    0.018573
  19 C :   -0.085791
  20 C :   -0.138547
  21 H :   -0.004190
  22 C :    0.109843
  23 H :    0.020143
  24 H :    0.048551
  25 C :   -0.090328
  26 H :    0.032923
  27 H :    0.016039
  28 C :   -0.015101
  29 H :    0.017788
  30 H :    0.011887
  31 H :    0.025763
  32 H :    0.060554
  33 H :    0.063435
Sum of atomic charges:    0.0000000

LOEWDIN ATOMIC CHARGES
----------------------
   0 S :    0.365054
   1 C :   -0.170728
   2 C :   -0.063348
   3 C :   -0.059048
   4 C :   -0.178151
   5 H :    0.031117
   6 C :   -0.035436
   7 H :    0.033342
   8 H :    0.029549
   9 C :   -0.037541
  10 H :    0.022243
  11 H :    0.016952
  12 C :   -0.044591
  13 H :    0.028089
  14 H :    0.029885
  15 H :    0.003055
  16 S :    0.364376
  17 C :   -0.161373
  18 C :   -0.065116
  19 C :   -0.049745
  20 C :   -0.185924
  21 H :    0.021411
  22 C :   -0.031040
  23 H :    0.025436
  24 H :    0.042883
  25 C :   -0.043649
  26 H :    0.030888
  27 H :    0.015277
  28 C :   -0.055409
  29 H :    0.021694
  30 H :    0.015921
  31 H :    0.023853
  32 H :    0.029682
  33 H :    0.030392

  Mayer bond orders larger than 0.100000
B(  0-S ,  1-C ) :   1.1206 B(  0-S ,  4-C ) :   1.1353 B(  1-C ,  2-C ) :   1.6023
B(  1-C ,  4-C ) :   0.1040 B(  1-C , 32-H ) :   0.9720 B(  2-C ,  3-C ) :   1.2280
B(  2-C ,  6-C ) :   1.0314 B(  3-C ,  4-C ) :   1.5572 B(  3-C ,  5-H ) :   0.9939
B(  4-C , 20-C ) :   1.0617 B(  6-C ,  7-H ) :   0.9405 B(  6-C ,  8-H ) :   0.9472
B(  6-C ,  9-C ) :   1.0501 B(  9-C , 10-H ) :   0.9596 B(  9-C , 11-H ) :   0.9606
B(  9-C , 12-C ) :   1.0795 B( 12-C , 13-H ) :   0.9724 B( 12-C , 14-H ) :   0.9724
B( 12-C , 15-H ) :   0.9703 B( 16-S , 17-C ) :   1.1400 B( 16-S , 20-C ) :   1.0967
B( 17-C , 18-C ) :   1.6485 B( 17-C , 33-H ) :   0.9644 B( 18-C , 19-C ) :   1.1815
B( 18-C , 21-H ) :   1.0036 B( 19-C , 20-C ) :   1.6671 B( 19-C , 22-C ) :   1.0396
B( 22-C , 23-H ) :   0.9295 B( 22-C , 24-H ) :   0.9266 B( 22-C , 25-C ) :   1.0890
B( 25-C , 26-H ) :   0.9494 B( 25-C , 27-H ) :   0.9499 B( 25-C , 28-C ) :   1.0839
B( 28-C , 29-H ) :   0.9735 B( 28-C , 30-H ) :   0.9707 B( 28-C , 31-H ) :   0.9693

Dispersion correction           -0.013761486
FINAL SINGLE POINT ENERGY     -1339.845172941220

DIPOLE MOMENT
-------------
                                X             Y             Z
Electronic contribution:     -5.56367     -10.47032     -17.27038
Nuclear contribution   :      5.88840      10.50763      17.82612
                        -----------------------------------------
Total Dipole Moment    :      0.32472       0.03731       0.55574
                        -----------------------------------------
Magnitude (a.u.)       :      0.64474
Magnitude (Debye)      :      1.63880

Rotational constants in cm-1:     0.024312     0.006805     0.006055
Rotational constants in MHz :   728.864226   204.010043   181.534996

                             ****ORCA TERMINATED NORMALLY****
TOTAL RUN TIME: 0 days 0 hours 0 minutes 21 seconds 304 msec
