                         Program Version 4.2.1 -  RELEASE  -
|  1> ! wB97X-D3 SP def2-SVP
|  2> %pal
|  3> nprocs 24
|  4> end
|  5>
|  6> * xyz 0 1
|  7> S 	 -34.1622 	 -35.4621 	 -85.9379
|  8> C 	 -32.4571 	 -35.4465 	 -85.4549
|  9> C 	 -31.6166 	 -35.8792 	 -86.4798
| 10> C 	 -32.3363 	 -36.3885 	 -87.5933
| 11> C 	 -33.6959 	 -36.3811 	 -87.4602
| 12> H 	 -31.7656 	 -36.6303 	 -88.4658
| 13> C 	 -30.0673 	 -35.8531 	 -86.498
| 14> H 	 -29.7356 	 -35.204 	 -85.6534
| 15> H 	 -29.7314 	 -35.4066 	 -87.408
| 16> C 	 -29.5026 	 -37.2812 	 -86.5529
| 17> H 	 -29.8683 	 -37.8366 	 -85.6166
| 18> H 	 -29.9404 	 -37.703 	 -87.4215
| 19> C 	 -27.9552 	 -37.3479 	 -86.7226
| 20> H 	 -27.4424 	 -37.4353 	 -85.7688
| 21> H 	 -27.8017 	 -38.2806 	 -87.2349
| 22> H 	 -27.5099 	 -36.5659 	 -87.3423
| 23> S 	 -35.7774 	 -35.2968 	 -88.8696
| 24> C 	 -36.3255 	 -36.09 	 -90.2981
| 25> C 	 -35.7159 	 -37.2891 	 -90.4933
| 26> C 	 -34.765 	 -37.6213 	 -89.4907
| 27> C 	 -34.693 	 -36.6008 	 -88.5293
| 28> H 	 -36.0068 	 -37.9262 	 -91.3544
| 29> C 	 -34.2001 	 -39.0248 	 -89.468
| 30> H 	 -34.9998 	 -39.6467 	 -89.9154
| 31> H 	 -34.0763 	 -39.2978 	 -88.422
| 32> C 	 -32.8354 	 -39.1651 	 -90.1231
| 33> H 	 -32.0499 	 -38.4723 	 -89.5969
| 34> H 	 -32.9184 	 -38.8913 	 -91.1325
| 35> C 	 -32.2673 	 -40.5545 	 -89.9072
| 36> H 	 -32.2297 	 -40.7959 	 -88.8551
| 37> H 	 -31.2958 	 -40.5609 	 -90.2766
| 38> H 	 -32.8671 	 -41.375 	 -90.305
| 39> H 	 -32.0401 	 -34.8631 	 -84.6464
| 40> H 	 -36.9008 	 -35.677 	 -91.1346
| 41> *
| 42>
| 43>                          ****END OF INPUT****

CARTESIAN COORDINATES (ANGSTROEM)
---------------------------------
  S    -34.162200  -35.462100  -85.937900
  C    -32.457100  -35.446500  -85.454900
  C    -31.616600  -35.879200  -86.479800
  C    -32.336300  -36.388500  -87.593300
  C    -33.695900  -36.381100  -87.460200
  H    -31.765600  -36.630300  -88.465800
  C    -30.067300  -35.853100  -86.498000
  H    -29.735600  -35.204000  -85.653400
  H    -29.731400  -35.406600  -87.408000
  C    -29.502600  -37.281200  -86.552900
  H    -29.868300  -37.836600  -85.616600
  H    -29.940400  -37.703000  -87.421500
  C    -27.955200  -37.347900  -86.722600
  H    -27.442400  -37.435300  -85.768800
  H    -27.801700  -38.280600  -87.234900
  H    -27.509900  -36.565900  -87.342300
  S    -35.777400  -35.296800  -88.869600
  C    -36.325500  -36.090000  -90.298100
  C    -35.715900  -37.289100  -90.493300
  C    -34.765000  -37.621300  -89.490700
  C    -34.693000  -36.600800  -88.529300
  H    -36.006800  -37.926200  -91.354400
  C    -34.200100  -39.024800  -89.468000
  H    -34.999800  -39.646700  -89.915400
  H    -34.076300  -39.297800  -88.422000
  C    -32.835400  -39.165100  -90.123100
  H    -32.049900  -38.472300  -89.596900
  H    -32.918400  -38.891300  -91.132500
  C    -32.267300  -40.554500  -89.907200
  H    -32.229700  -40.795900  -88.855100
  H    -31.295800  -40.560900  -90.276600
  H    -32.867100  -41.375000  -90.305000
  H    -32.040100  -34.863100  -84.646400
  H    -36.900800  -35.677000  -91.134600

 Total Charge           Charge          ....    0
 Multiplicity           Mult            ....    1
 Number of Electrons    NEL             ....  134
 Basis Dimension        Dim             ....  322

ORBITAL ENERGIES
----------------

  NO   OCC          E(Eh)            E(eV)
   0   2.0000     -88.967417     -2420.9265
   1   2.0000     -88.967147     -2420.9191
   2   2.0000     -10.337734      -281.3041
   3   2.0000     -10.327516      -281.0260
   4   2.0000     -10.316036      -280.7136
   5   2.0000     -10.310831      -280.5720
   6   2.0000     -10.300807      -280.2992
   7   2.0000     -10.300140      -280.2811
   8   2.0000     -10.295695      -280.1601
   9   2.0000     -10.293052      -280.0882
  10   2.0000     -10.292999      -280.0867
  11   2.0000     -10.290708      -280.0244
  12   2.0000     -10.289550      -279.9929
  13   2.0000     -10.289128      -279.9814
  14   2.0000     -10.280107      -279.7359
  15   2.0000     -10.270294      -279.4689
  16   2.0000      -8.082870      -219.9461
  17   2.0000      -8.080208      -219.8736
  18   2.0000      -6.041276      -164.3915
  19   2.0000      -6.038932      -164.3277
  20   2.0000      -6.037296      -164.2832
  21   2.0000      -6.035207      -164.2263
  22   2.0000      -6.033659      -164.1842
  23   2.0000      -6.030592      -164.1008
  24   2.0000      -1.006530       -27.3891
  25   2.0000      -0.980256       -26.6741
  26   2.0000      -0.914666       -24.8893
  27   2.0000      -0.908544       -24.7227
  28   2.0000      -0.866972       -23.5915
  29   2.0000      -0.856242       -23.2995
  30   2.0000      -0.844873       -22.9902
  31   2.0000      -0.815466       -22.1899
  32   2.0000      -0.782839       -21.3021
  33   2.0000      -0.770986       -20.9796
  34   2.0000      -0.708190       -19.2708
  35   2.0000      -0.696901       -18.9636
  36   2.0000      -0.691467       -18.8158
  37   2.0000      -0.659216       -17.9382
  38   2.0000      -0.636063       -17.3082
  39   2.0000      -0.627081       -17.0637
  40   2.0000      -0.595645       -16.2083
  41   2.0000      -0.571531       -15.5522
  42   2.0000      -0.566369       -15.4117
  43   2.0000      -0.554609       -15.0917
  44   2.0000      -0.534229       -14.5371
  45   2.0000      -0.521180       -14.1820
  46   2.0000      -0.515540       -14.0286
  47   2.0000      -0.505761       -13.7624
  48   2.0000      -0.502531       -13.6746
  49   2.0000      -0.500865       -13.6292
  50   2.0000      -0.496023       -13.4975
  51   2.0000      -0.482514       -13.1299
  52   2.0000      -0.467600       -12.7240
  53   2.0000      -0.464421       -12.6375
  54   2.0000      -0.462361       -12.5815
  55   2.0000      -0.450189       -12.2503
  56   2.0000      -0.442950       -12.0533
  57   2.0000      -0.438359       -11.9283
  58   2.0000      -0.432376       -11.7655
  59   2.0000      -0.427855       -11.6425
  60   2.0000      -0.425399       -11.5757
  61   2.0000      -0.418450       -11.3866
  62   2.0000      -0.414600       -11.2818
  63   2.0000      -0.353627        -9.6227
  64   2.0000      -0.333048        -9.0627
  65   2.0000      -0.327373        -8.9083
  66   2.0000      -0.287284        -7.8174
  67   0.0000       0.024959         0.6792
  68   0.0000       0.067498         1.8367
  69   0.0000       0.097993         2.6665
  70   0.0000       0.121415         3.3039
  71   0.0000       0.126859         3.4520

MULLIKEN ATOMIC CHARGES
-----------------------
   0 S :    0.076248
   1 C :   -0.103715
   2 C :   -0.122187
   3 C :    0.030186
   4 C :   -0.111328
   5 H :    0.012139
   6 C :    0.080588
   7 H :    0.028274
   8 H :    0.016312
   9 C :   -0.115465
  10 H :    0.051259
  11 H :    0.018456
  12 C :   -0.024545
  13 H :    0.040457
  14 H :    0.025637
  15 H :    0.033602
  16 S :    0.119375
  17 C :   -0.086628
  18 C :   -0.069925
  19 C :   -0.033776
  20 C :   -0.149449
  21 H :    0.030173
  22 C :    0.055765
  23 H :    0.035300
  24 H :    0.024688
  25 C :   -0.095807
  26 H :    0.036906
  27 H :    0.019317
  28 C :    0.006947
  29 H :    0.018651
  30 H :    0.021000
  31 H :    0.024156
  32 H :    0.047287
  33 H :    0.060103
Sum of atomic charges:   -0.0000000

LOEWDIN ATOMIC CHARGES
----------------------
   0 S :    0.353229
   1 C :   -0.192737
   2 C :   -0.059858
   3 C :   -0.057926
   4 C :   -0.159736
   5 H :    0.026886
   6 C :   -0.029533
   7 H :    0.030372
   8 H :    0.024241
   9 C :   -0.039439
  10 H :    0.036559
  11 H :    0.014814
  12 C :   -0.066482
  13 H :    0.027802
  14 H :    0.026607
  15 H :    0.026234
  16 S :    0.429095
  17 C :   -0.204714
  18 C :   -0.078928
  19 C :   -0.058678
  20 C :   -0.205123
  21 H :    0.036855
  22 C :   -0.030302
  23 H :    0.036287
  24 H :    0.032064
  25 C :   -0.037441
  26 H :    0.034222
  27 H :    0.014111
  28 C :   -0.060057
  29 H :    0.024861
  30 H :    0.017785
  31 H :    0.024208
  32 H :    0.027580
  33 H :    0.037140

  Mayer bond orders larger than 0.100000
B(  0-S ,  1-C ) :   1.1204 B(  0-S ,  4-C ) :   1.1163 B(  1-C ,  2-C ) :   1.6468
B(  1-C , 32-H ) :   0.9593 B(  2-C ,  3-C ) :   1.2415 B(  2-C ,  6-C ) :   1.0268
B(  3-C ,  4-C ) :   1.5861 B(  3-C ,  5-H ) :   0.9826 B(  4-C , 20-C ) :   1.0318
B(  6-C ,  7-H ) :   0.9461 B(  6-C ,  8-H ) :   0.9355 B(  6-C ,  9-C ) :   1.0554
B(  9-C , 10-H ) :   0.9560 B(  9-C , 11-H ) :   0.9612 B(  9-C , 12-C ) :   1.0732
B( 12-C , 13-H ) :   0.9777 B( 12-C , 14-H ) :   0.9761 B( 12-C , 15-H ) :   0.9742
B( 16-S , 17-C ) :   1.1529 B( 16-S , 20-C ) :   1.1551 B( 17-C , 18-C ) :   1.6245
B( 17-C , 33-H ) :   0.9588 B( 18-C , 19-C ) :   1.2604 B( 18-C , 21-H ) :   0.9798
B( 19-C , 20-C ) :   1.5839 B( 19-C , 22-C ) :   1.0295 B( 22-C , 23-H ) :   0.9436
B( 22-C , 24-H ) :   0.9343 B( 22-C , 25-C ) :   1.0656 B( 25-C , 26-H ) :   0.9483
B( 25-C , 27-H ) :   0.9547 B( 25-C , 28-C ) :   1.0876 B( 28-C , 29-H ) :   0.9699
B( 28-C , 30-H ) :   0.9725 B( 28-C , 31-H ) :   0.9705

Dispersion correction           -0.014052318
FINAL SINGLE POINT ENERGY     -1339.870929645126

DIPOLE MOMENT
-------------
                                X             Y             Z
Electronic contribution:    -26.69101      18.86227       5.35188
Nuclear contribution   :     27.32731     -19.13932      -5.82616
                        -----------------------------------------
Total Dipole Moment    :      0.63630      -0.27705      -0.47428
                        -----------------------------------------
Magnitude (a.u.)       :      0.84058
Magnitude (Debye)      :      2.13658

Rotational constants in cm-1:     0.016557     0.009696     0.006613
Rotational constants in MHz :   496.358565   290.672974   198.244432

                             ****ORCA TERMINATED NORMALLY****
TOTAL RUN TIME: 0 days 0 hours 0 minutes 21 seconds 765 msec
