                         Program Version 4.2.1 -  RELEASE  -
|  1> ! wB97X-D3 SP def2-SVP
|  2> %pal
|  3> nprocs 24
|  4> end
|  5>
|  6> * xyz 0 1
|  7> S 	 -70.0013 	 10.5032 	 -74.7291
|  8> C 	 -70.7588 	 9.43575 	 -73.5298
|  9> C 	 -69.9695 	 9.10904 	 -72.4873
| 10> C 	 -68.7121 	 9.74076 	 -72.6023
| 11> C 	 -68.5709 	 10.5655 	 -73.6834
| 12> H 	 -67.8693 	 9.71632 	 -71.9671
| 13> C 	 -70.195 	 8.14792 	 -71.3634
| 14> H 	 -69.303 	 7.54229 	 -71.355
| 15> H 	 -70.896 	 7.4146 	 -71.5505
| 16> C 	 -70.6637 	 8.87153 	 -70.054
| 17> H 	 -69.9981 	 9.63498 	 -69.6875
| 18> H 	 -71.5876 	 9.45839 	 -70.2922
| 19> C 	 -70.8972 	 7.96794 	 -68.8817
| 20> H 	 -71.4395 	 8.56114 	 -68.1758
| 21> H 	 -71.4176 	 6.9993 	 -69.1527
| 22> H 	 -69.9485 	 7.7797 	 -68.4192
| 23> S 	 -67.4941 	 13.0053 	 -74.4165
| 24> C 	 -65.7747 	 13.1584 	 -74.5893
| 25> C 	 -65.1497 	 11.9566 	 -74.3694
| 26> C 	 -66.0637 	 10.9051 	 -74.0131
| 27> C 	 -67.4029 	 11.267 	 -74.1528
| 28> H 	 -64.0531 	 11.8919 	 -74.4234
| 29> C 	 -65.5416 	 9.50951 	 -73.6616
| 30> H 	 -66.3032 	 8.77899 	 -73.4861
| 31> H 	 -65.1123 	 9.5533 	 -72.7034
| 32> C 	 -64.5361 	 8.94648 	 -74.6753
| 33> H 	 -63.6138 	 9.57177 	 -74.8076
| 34> H 	 -64.9439 	 8.79327 	 -75.6632
| 35> C 	 -63.7728 	 7.75473 	 -74.0584
| 36> H 	 -63.1477 	 8.02696 	 -73.1724
| 37> H 	 -63.2406 	 7.20481 	 -74.8197
| 38> H 	 -64.5657 	 7.11991 	 -73.6794
| 39> H 	 -71.6794 	 8.92965 	 -73.5782
| 40> H 	 -65.3522 	 14.1074 	 -74.9239
| 41> *
| 42>
| 43>                          ****END OF INPUT****

CARTESIAN COORDINATES (ANGSTROEM)
---------------------------------
  S    -70.001300   10.503200  -74.729100
  C    -70.758800    9.435750  -73.529800
  C    -69.969500    9.109040  -72.487300
  C    -68.712100    9.740760  -72.602300
  C    -68.570900   10.565500  -73.683400
  H    -67.869300    9.716320  -71.967100
  C    -70.195000    8.147920  -71.363400
  H    -69.303000    7.542290  -71.355000
  H    -70.896000    7.414600  -71.550500
  C    -70.663700    8.871530  -70.054000
  H    -69.998100    9.634980  -69.687500
  H    -71.587600    9.458390  -70.292200
  C    -70.897200    7.967940  -68.881700
  H    -71.439500    8.561140  -68.175800
  H    -71.417600    6.999300  -69.152700
  H    -69.948500    7.779700  -68.419200
  S    -67.494100   13.005300  -74.416500
  C    -65.774700   13.158400  -74.589300
  C    -65.149700   11.956600  -74.369400
  C    -66.063700   10.905100  -74.013100
  C    -67.402900   11.267000  -74.152800
  H    -64.053100   11.891900  -74.423400
  C    -65.541600    9.509510  -73.661600
  H    -66.303200    8.778990  -73.486100
  H    -65.112300    9.553300  -72.703400
  C    -64.536100    8.946480  -74.675300
  H    -63.613800    9.571770  -74.807600
  H    -64.943900    8.793270  -75.663200
  C    -63.772800    7.754730  -74.058400
  H    -63.147700    8.026960  -73.172400
  H    -63.240600    7.204810  -74.819700
  H    -64.565700    7.119910  -73.679400
  H    -71.679400    8.929650  -73.578200
  H    -65.352200   14.107400  -74.923900

 Total Charge           Charge          ....    0
 Multiplicity           Mult            ....    1
 Number of Electrons    NEL             ....  134
 Basis Dimension        Dim             ....  322

ORBITAL ENERGIES
----------------

  NO   OCC          E(Eh)            E(eV)
   0   2.0000     -88.964563     -2420.8488
   1   2.0000     -88.960757     -2420.7453
   2   2.0000     -10.324578      -280.9461
   3   2.0000     -10.323736      -280.9231
   4   2.0000     -10.318233      -280.7734
   5   2.0000     -10.306364      -280.4504
   6   2.0000     -10.306295      -280.4485
   7   2.0000     -10.296344      -280.1778
   8   2.0000     -10.293500      -280.1004
   9   2.0000     -10.288209      -279.9564
  10   2.0000     -10.288207      -279.9563
  11   2.0000     -10.287846      -279.9465
  12   2.0000     -10.287457      -279.9359
  13   2.0000     -10.285841      -279.8920
  14   2.0000     -10.279679      -279.7243
  15   2.0000     -10.277164      -279.6558
  16   2.0000      -8.078632      -219.8308
  17   2.0000      -8.076056      -219.7607
  18   2.0000      -6.037206      -164.2807
  19   2.0000      -6.034567      -164.2089
  20   2.0000      -6.033427      -164.1779
  21   2.0000      -6.030468      -164.0974
  22   2.0000      -6.029183      -164.0624
  23   2.0000      -6.026790      -163.9973
  24   2.0000      -1.006988       -27.4015
  25   2.0000      -0.984778       -26.7972
  26   2.0000      -0.914531       -24.8857
  27   2.0000      -0.911130       -24.7931
  28   2.0000      -0.874543       -23.7975
  29   2.0000      -0.854339       -23.2477
  30   2.0000      -0.845555       -23.0087
  31   2.0000      -0.816128       -22.2080
  32   2.0000      -0.787034       -21.4163
  33   2.0000      -0.774375       -21.0718
  34   2.0000      -0.704491       -19.1702
  35   2.0000      -0.700532       -19.0625
  36   2.0000      -0.699804       -19.0426
  37   2.0000      -0.658096       -17.9077
  38   2.0000      -0.645119       -17.5546
  39   2.0000      -0.623661       -16.9707
  40   2.0000      -0.603990       -16.4354
  41   2.0000      -0.566982       -15.4284
  42   2.0000      -0.564729       -15.3671
  43   2.0000      -0.560327       -15.2473
  44   2.0000      -0.535712       -14.5775
  45   2.0000      -0.532373       -14.4866
  46   2.0000      -0.515941       -14.0395
  47   2.0000      -0.513242       -13.9660
  48   2.0000      -0.505021       -13.7423
  49   2.0000      -0.500266       -13.6129
  50   2.0000      -0.497781       -13.5453
  51   2.0000      -0.473502       -12.8847
  52   2.0000      -0.468343       -12.7443
  53   2.0000      -0.462380       -12.5820
  54   2.0000      -0.459235       -12.4964
  55   2.0000      -0.452101       -12.3023
  56   2.0000      -0.449312       -12.2264
  57   2.0000      -0.443463       -12.0673
  58   2.0000      -0.438526       -11.9329
  59   2.0000      -0.427347       -11.6287
  60   2.0000      -0.418288       -11.3822
  61   2.0000      -0.415650       -11.3104
  62   2.0000      -0.400818       -10.9068
  63   2.0000      -0.348800        -9.4913
  64   2.0000      -0.333138        -9.0651
  65   2.0000      -0.326708        -8.8902
  66   2.0000      -0.293434        -7.9847
  67   0.0000       0.031868         0.8672
  68   0.0000       0.074378         2.0239
  69   0.0000       0.109126         2.9695
  70   0.0000       0.119081         3.2404
  71   0.0000       0.139211         3.7881

MULLIKEN ATOMIC CHARGES
-----------------------
   0 S :    0.102327
   1 C :   -0.078476
   2 C :   -0.089313
   3 C :    0.019218
   4 C :   -0.150012
   5 H :   -0.006250
   6 C :    0.129121
   7 H :    0.019771
   8 H :   -0.014361
   9 C :   -0.101769
  10 H :    0.023843
  11 H :    0.032805
  12 C :   -0.015664
  13 H :    0.028398
  14 H :    0.040029
  15 H :    0.025320
  16 S :    0.091386
  17 C :   -0.099172
  18 C :   -0.030159
  19 C :   -0.059332
  20 C :   -0.118391
  21 H :    0.029108
  22 C :    0.098973
  23 H :    0.018280
  24 H :    0.010861
  25 C :   -0.101712
  26 H :    0.032826
  27 H :    0.043526
  28 C :   -0.058262
  29 H :    0.044727
  30 H :    0.038811
  31 H :    0.014142
  32 H :    0.012599
  33 H :    0.066800
Sum of atomic charges:    0.0000000

LOEWDIN ATOMIC CHARGES
----------------------
   0 S :    0.380625
   1 C :   -0.178942
   2 C :   -0.062859
   3 C :   -0.055362
   4 C :   -0.179513
   5 H :    0.024475
   6 C :   -0.025071
   7 H :    0.033072
   8 H :    0.017656
   9 C :   -0.039005
  10 H :    0.022662
  11 H :    0.029183
  12 C :   -0.064320
  13 H :    0.026549
  14 H :    0.029725
  15 H :    0.022768
  16 S :    0.403388
  17 C :   -0.183511
  18 C :   -0.074486
  19 C :   -0.048714
  20 C :   -0.208063
  21 H :    0.035742
  22 C :   -0.030265
  23 H :    0.027175
  24 H :    0.026673
  25 C :   -0.041043
  26 H :    0.027467
  27 H :    0.025679
  28 C :   -0.065547
  29 H :    0.030595
  30 H :    0.025557
  31 H :    0.016729
  32 H :    0.019315
  33 H :    0.031665

  Mayer bond orders larger than 0.100000
B(  0-S ,  1-C ) :   1.1146 B(  0-S ,  4-C ) :   1.1265 B(  1-C ,  2-C ) :   1.6738
B(  1-C , 32-H ) :   0.9609 B(  2-C ,  3-C ) :   1.1960 B(  2-C ,  6-C ) :   1.0222
B(  3-C ,  4-C ) :   1.6316 B(  3-C ,  5-H ) :   0.9994 B(  4-C , 20-C ) :   1.0192
B(  6-C ,  7-H ) :   0.9385 B(  6-C ,  8-H ) :   0.9276 B(  6-C ,  9-C ) :   1.0453
B(  9-C , 10-H ) :   0.9579 B(  9-C , 11-H ) :   0.9572 B(  9-C , 12-C ) :   1.0892
B( 12-C , 13-H ) :   0.9704 B( 12-C , 14-H ) :   0.9727 B( 12-C , 15-H ) :   0.9744
B( 16-S , 17-C ) :   1.1684 B( 16-S , 20-C ) :   1.1315 B( 17-C , 18-C ) :   1.5913
B( 17-C , 33-H ) :   0.9670 B( 18-C , 19-C ) :   1.2376 B( 18-C , 21-H ) :   0.9912
B( 19-C , 20-C ) :   1.5992 B( 19-C , 22-C ) :   1.0350 B( 22-C , 23-H ) :   0.9336
B( 22-C , 24-H ) :   0.9250 B( 22-C , 25-C ) :   1.0608 B( 25-C , 26-H ) :   0.9569
B( 25-C , 27-H ) :   0.9617 B( 25-C , 28-C ) :   1.0614 B( 28-C , 29-H ) :   0.9770
B( 28-C , 30-H ) :   0.9731 B( 28-C , 31-H ) :   0.9752

Dispersion correction           -0.013568198
FINAL SINGLE POINT ENERGY     -1339.868295373770

DIPOLE MOMENT
-------------
                                X             Y             Z
Electronic contribution:     -7.90743      21.47979     -17.04993
Nuclear contribution   :      8.33742     -21.97530      17.53626
                        -----------------------------------------
Total Dipole Moment    :      0.42999      -0.49551       0.48632
                        -----------------------------------------
Magnitude (a.u.)       :      0.81666
Magnitude (Debye)      :      2.07579

Rotational constants in cm-1:     0.016970     0.008136     0.006503
Rotational constants in MHz :   508.746058   243.910473   194.951348

                             ****ORCA TERMINATED NORMALLY****
TOTAL RUN TIME: 0 days 0 hours 0 minutes 21 seconds 375 msec
