                         Program Version 4.2.1 -  RELEASE  -
|  1> ! wB97X-D3 SP def2-SVP
|  2> %pal
|  3> nprocs 24
|  4> end
|  5>
|  6> * xyz 0 1
|  7> S 	 -101.884 	 2.26659 	 -122.809
|  8> C 	 -102.784 	 1.66128 	 -121.384
|  9> C 	 -102.162 	 0.585175 	 -120.776
| 10> C 	 -100.78 	 0.40816 	 -121.353
| 11> C 	 -100.471 	 1.31463 	 -122.352
| 12> H 	 -100.006 	 -0.263814 	 -120.97
| 13> C 	 -102.632 	 -0.246475 	 -119.605
| 14> H 	 -102.97 	 -1.27567 	 -119.927
| 15> H 	 -103.541 	 0.301879 	 -119.208
| 16> C 	 -101.549 	 -0.44922 	 -118.538
| 17> H 	 -100.927 	 -1.28447 	 -118.959
| 18> H 	 -100.934 	 0.420344 	 -118.326
| 19> C 	 -102.205 	 -0.956346 	 -117.212
| 20> H 	 -102.364 	 -0.178137 	 -116.485
| 21> H 	 -103.136 	 -1.51632 	 -117.46
| 22> H 	 -101.512 	 -1.66033 	 -116.788
| 23> S 	 -99.2304 	 2.20188 	 -124.655
| 24> C 	 -97.517 	 2.59963 	 -124.835
| 25> C 	 -96.9196 	 2.13634 	 -123.678
| 26> C 	 -97.8516 	 1.67828 	 -122.666
| 27> C 	 -99.207 	 1.68001 	 -123.054
| 28> H 	 -95.863 	 2.2467 	 -123.522
| 29> C 	 -97.2649 	 1.31825 	 -121.36
| 30> H 	 -96.2135 	 1.27069 	 -121.484
| 31> H 	 -97.5911 	 0.319449 	 -121.197
| 32> C 	 -97.7593 	 2.25042 	 -120.169
| 33> H 	 -97.1929 	 2.08233 	 -119.28
| 34> H 	 -98.8712 	 2.15131 	 -119.967
| 35> C 	 -97.3857 	 3.73786 	 -120.42
| 36> H 	 -97.6592 	 4.2171 	 -121.375
| 37> H 	 -96.2915 	 3.95295 	 -120.386
| 38> H 	 -97.7841 	 4.41187 	 -119.618
| 39> H 	 -103.711 	 2.07091 	 -121.049
| 40> H 	 -97.0309 	 3.01649 	 -125.691
| 41> *
| 42>
| 43>                          ****END OF INPUT****

CARTESIAN COORDINATES (ANGSTROEM)
---------------------------------
  S    -101.884000    2.266590  -122.809000
  C    -102.784000    1.661280  -121.384000
  C    -102.162000    0.585175  -120.776000
  C    -100.780000    0.408160  -121.353000
  C    -100.471000    1.314630  -122.352000
  H    -100.006000   -0.263814  -120.970000
  C    -102.632000   -0.246475  -119.605000
  H    -102.970000   -1.275670  -119.927000
  H    -103.541000    0.301879  -119.208000
  C    -101.549000   -0.449220  -118.538000
  H    -100.927000   -1.284470  -118.959000
  H    -100.934000    0.420344  -118.326000
  C    -102.205000   -0.956346  -117.212000
  H    -102.364000   -0.178137  -116.485000
  H    -103.136000   -1.516320  -117.460000
  H    -101.512000   -1.660330  -116.788000
  S    -99.230400    2.201880  -124.655000
  C    -97.517000    2.599630  -124.835000
  C    -96.919600    2.136340  -123.678000
  C    -97.851600    1.678280  -122.666000
  C    -99.207000    1.680010  -123.054000
  H    -95.863000    2.246700  -123.522000
  C    -97.264900    1.318250  -121.360000
  H    -96.213500    1.270690  -121.484000
  H    -97.591100    0.319449  -121.197000
  C    -97.759300    2.250420  -120.169000
  H    -97.192900    2.082330  -119.280000
  H    -98.871200    2.151310  -119.967000
  C    -97.385700    3.737860  -120.420000
  H    -97.659200    4.217100  -121.375000
  H    -96.291500    3.952950  -120.386000
  H    -97.784100    4.411870  -119.618000
  H    -103.711000    2.070910  -121.049000
  H    -97.030900    3.016490  -125.691000

 Total Charge           Charge          ....    0
 Multiplicity           Mult            ....    1
 Number of Electrons    NEL             ....  134
 Basis Dimension        Dim             ....  322

ORBITAL ENERGIES
----------------

  NO   OCC          E(Eh)            E(eV)
   0   2.0000     -88.963594     -2420.8225
   1   2.0000     -88.962461     -2420.7916
   2   2.0000     -10.339806      -281.3604
   3   2.0000     -10.330048      -281.0949
   4   2.0000     -10.319885      -280.8184
   5   2.0000     -10.318568      -280.7825
   6   2.0000     -10.312327      -280.6127
   7   2.0000     -10.305210      -280.4190
   8   2.0000     -10.304948      -280.4119
   9   2.0000     -10.300827      -280.2998
  10   2.0000     -10.294745      -280.1343
  11   2.0000     -10.294427      -280.1256
  12   2.0000     -10.292889      -280.0838
  13   2.0000     -10.284647      -279.8595
  14   2.0000     -10.281684      -279.7788
  15   2.0000     -10.276838      -279.6470
  16   2.0000      -8.078079      -219.8157
  17   2.0000      -8.077837      -219.8091
  18   2.0000      -6.036664      -164.2660
  19   2.0000      -6.036615      -164.2646
  20   2.0000      -6.032549      -164.1540
  21   2.0000      -6.032210      -164.1448
  22   2.0000      -6.028960      -164.0563
  23   2.0000      -6.028137      -164.0340
  24   2.0000      -1.007484       -27.4150
  25   2.0000      -0.979144       -26.6439
  26   2.0000      -0.912959       -24.8429
  27   2.0000      -0.904143       -24.6030
  28   2.0000      -0.870500       -23.6875
  29   2.0000      -0.841275       -22.8923
  30   2.0000      -0.838966       -22.8294
  31   2.0000      -0.819857       -22.3094
  32   2.0000      -0.778022       -21.1711
  33   2.0000      -0.768859       -20.9217
  34   2.0000      -0.710468       -19.3328
  35   2.0000      -0.698535       -19.0081
  36   2.0000      -0.686218       -18.6729
  37   2.0000      -0.666144       -18.1267
  38   2.0000      -0.641767       -17.4634
  39   2.0000      -0.617158       -16.7937
  40   2.0000      -0.586548       -15.9608
  41   2.0000      -0.579439       -15.7673
  42   2.0000      -0.562288       -15.3006
  43   2.0000      -0.554764       -15.0959
  44   2.0000      -0.542017       -14.7490
  45   2.0000      -0.525180       -14.2909
  46   2.0000      -0.513882       -13.9834
  47   2.0000      -0.512598       -13.9485
  48   2.0000      -0.506533       -13.7835
  49   2.0000      -0.494917       -13.4674
  50   2.0000      -0.491441       -13.3728
  51   2.0000      -0.476820       -12.9749
  52   2.0000      -0.470359       -12.7991
  53   2.0000      -0.465433       -12.6651
  54   2.0000      -0.460321       -12.5260
  55   2.0000      -0.447405       -12.1745
  56   2.0000      -0.441561       -12.0155
  57   2.0000      -0.432458       -11.7678
  58   2.0000      -0.427011       -11.6196
  59   2.0000      -0.423507       -11.5242
  60   2.0000      -0.420264       -11.4360
  61   2.0000      -0.417362       -11.3570
  62   2.0000      -0.404271       -11.0008
  63   2.0000      -0.357482        -9.7276
  64   2.0000      -0.328379        -8.9356
  65   2.0000      -0.321290        -8.7427
  66   2.0000      -0.289406        -7.8752
  67   0.0000       0.022872         0.6224
  68   0.0000       0.074466         2.0263
  69   0.0000       0.101014         2.7487
  70   0.0000       0.119940         3.2637
  71   0.0000       0.130266         3.5447

MULLIKEN ATOMIC CHARGES
-----------------------
   0 S :    0.089062
   1 C :   -0.106192
   2 C :   -0.083614
   3 C :    0.004098
   4 C :   -0.122642
   5 H :    0.019669
   6 C :    0.033138
   7 H :    0.055750
   8 H :    0.031924
   9 C :   -0.132313
  10 H :    0.045582
  11 H :    0.047217
  12 C :   -0.034509
  13 H :    0.042918
  14 H :    0.036524
  15 H :    0.026574
  16 S :    0.086285
  17 C :   -0.087871
  18 C :   -0.025733
  19 C :   -0.116881
  20 C :   -0.090610
  21 H :    0.018141
  22 C :    0.116287
  23 H :    0.002927
  24 H :    0.018426
  25 C :   -0.057425
  26 H :    0.027773
  27 H :    0.065698
  28 C :   -0.109023
  29 H :    0.045145
  30 H :    0.022039
  31 H :    0.035159
  32 H :    0.037996
  33 H :    0.058482
Sum of atomic charges:    0.0000000

LOEWDIN ATOMIC CHARGES
----------------------
   0 S :    0.372975
   1 C :   -0.177303
   2 C :   -0.055969
   3 C :   -0.067152
   4 C :   -0.174062
   5 H :    0.031010
   6 C :   -0.041741
   7 H :    0.042067
   8 H :    0.033533
   9 C :   -0.044649
  10 H :    0.029526
  11 H :    0.025084
  12 C :   -0.062937
  13 H :    0.025349
  14 H :    0.029788
  15 H :    0.024370
  16 S :    0.427981
  17 C :   -0.179965
  18 C :   -0.071401
  19 C :   -0.064164
  20 C :   -0.223958
  21 H :    0.027979
  22 C :   -0.028819
  23 H :    0.025351
  24 H :    0.025629
  25 C :   -0.035082
  26 H :    0.022588
  27 H :    0.035669
  28 C :   -0.082676
  29 H :    0.024478
  30 H :    0.023185
  31 H :    0.029053
  32 H :    0.022699
  33 H :    0.031561

  Mayer bond orders larger than 0.100000
B(  0-S ,  1-C ) :   1.1082 B(  0-S ,  4-C ) :   1.1296 B(  1-C ,  2-C ) :   1.6768
B(  1-C , 32-H ) :   0.9695 B(  2-C ,  3-C ) :   1.1504 B(  2-C ,  6-C ) :   1.0322
B(  3-C ,  4-C ) :   1.6416 B(  3-C ,  5-H ) :   0.9868 B(  4-C , 20-C ) :   1.0236
B(  6-C ,  7-H ) :   0.9287 B(  6-C ,  8-H ) :   0.9492 B(  6-C ,  9-C ) :   1.0575
B(  9-C , 10-H ) :   0.9501 B(  9-C , 11-H ) :   0.9668 B(  9-C , 12-C ) :   1.0721
B( 12-C , 13-H ) :   0.9781 B( 12-C , 14-H ) :   0.9741 B( 12-C , 15-H ) :   0.9756
B( 16-S , 17-C ) :   1.1625 B( 16-S , 20-C ) :   1.1620 B( 17-C , 18-C ) :   1.5592
B( 17-C , 20-C ) :   0.1021 B( 17-C , 33-H ) :   0.9768 B( 18-C , 19-C ) :   1.2875
B( 18-C , 21-H ) :   0.9893 B( 19-C , 20-C ) :   1.5325 B( 19-C , 22-C ) :   1.0505
B( 22-C , 23-H ) :   0.9319 B( 22-C , 24-H ) :   0.9266 B( 22-C , 25-C ) :   1.0631
B( 25-C , 26-H ) :   0.9581 B( 25-C , 27-H ) :   0.9553 B( 25-C , 28-C ) :   1.0581
B( 28-C , 29-H ) :   0.9770 B( 28-C , 30-H ) :   0.9772 B( 28-C , 31-H ) :   0.9754

Dispersion correction           -0.014974326
FINAL SINGLE POINT ENERGY     -1339.865634940096

DIPOLE MOMENT
-------------
                                X             Y             Z
Electronic contribution:     -4.86426       6.14687     -28.15429
Nuclear contribution   :      5.17071      -6.40369      28.87195
                        -----------------------------------------
Total Dipole Moment    :      0.30644      -0.25682       0.71766
                        -----------------------------------------
Magnitude (a.u.)       :      0.82152
Magnitude (Debye)      :      2.08814

Rotational constants in cm-1:     0.020895     0.008748     0.006924
Rotational constants in MHz :   626.406116   262.268243   207.568118

                             ****ORCA TERMINATED NORMALLY****
TOTAL RUN TIME: 0 days 0 hours 0 minutes 22 seconds 350 msec
