                         Program Version 4.2.1 -  RELEASE  -
|  1> ! wB97X-D3 SP def2-SVP
|  2> %pal
|  3> nprocs 24
|  4> end
|  5>
|  6> * xyz 0 1
|  7> S 	 -48.3946 	 -1.53389 	 20.316
|  8> C 	 -49.7667 	 -0.996996 	 19.4572
|  9> C 	 -50.8332 	 -1.87029 	 19.4948
| 10> C 	 -50.4539 	 -3.12721 	 20.0814
| 11> C 	 -49.1462 	 -3.08213 	 20.5319
| 12> H 	 -51.0247 	 -4.06227 	 20.0807
| 13> C 	 -52.2192 	 -1.70117 	 18.8902
| 14> H 	 -52.8346 	 -0.837143 	 19.311
| 15> H 	 -52.8156 	 -2.63265 	 19.0893
| 16> C 	 -52.2396 	 -1.63093 	 17.3916
| 17> H 	 -51.7378 	 -0.675293 	 17.1748
| 18> H 	 -51.6563 	 -2.42449 	 16.9372
| 19> C 	 -53.6159 	 -1.56503 	 16.7768
| 20> H 	 -54.2396 	 -2.42301 	 16.9314
| 21> H 	 -54.064 	 -0.616986 	 17.0668
| 22> H 	 -53.4598 	 -1.49371 	 15.7297
| 23> S 	 -47.7073 	 -5.32354 	 20.0323
| 24> C 	 -47.0095 	 -6.19914 	 21.279
| 25> C 	 -47.5298 	 -5.79624 	 22.5009
| 26> C 	 -48.4379 	 -4.69887 	 22.3387
| 27> C 	 -48.4215 	 -4.17374 	 21.1164
| 28> H 	 -47.3732 	 -6.33723 	 23.3644
| 29> C 	 -49.095 	 -4.01984 	 23.5323
| 30> H 	 -49.3665 	 -2.98145 	 23.2777
| 31> H 	 -48.2993 	 -3.87677 	 24.3499
| 32> C 	 -50.2935 	 -4.89513 	 24.1544
| 33> H 	 -49.9146 	 -5.85999 	 24.5587
| 34> H 	 -50.9515 	 -5.23265 	 23.4149
| 35> C 	 -50.9884 	 -4.18376 	 25.2724
| 36> H 	 -51.6534 	 -4.88595 	 25.6762
| 37> H 	 -51.61 	 -3.39347 	 24.7939
| 38> H 	 -50.3256 	 -3.81152 	 26.0628
| 39> H 	 -49.8001 	 -0.0308535 	 18.9736
| 40> H 	 -46.3375 	 -7.0217 	 21.2042
| 41> *
| 42>
| 43>                          ****END OF INPUT****

CARTESIAN COORDINATES (ANGSTROEM)
---------------------------------
  S    -48.394600   -1.533890   20.316000
  C    -49.766700   -0.996996   19.457200
  C    -50.833200   -1.870290   19.494800
  C    -50.453900   -3.127210   20.081400
  C    -49.146200   -3.082130   20.531900
  H    -51.024700   -4.062270   20.080700
  C    -52.219200   -1.701170   18.890200
  H    -52.834600   -0.837143   19.311000
  H    -52.815600   -2.632650   19.089300
  C    -52.239600   -1.630930   17.391600
  H    -51.737800   -0.675293   17.174800
  H    -51.656300   -2.424490   16.937200
  C    -53.615900   -1.565030   16.776800
  H    -54.239600   -2.423010   16.931400
  H    -54.064000   -0.616986   17.066800
  H    -53.459800   -1.493710   15.729700
  S    -47.707300   -5.323540   20.032300
  C    -47.009500   -6.199140   21.279000
  C    -47.529800   -5.796240   22.500900
  C    -48.437900   -4.698870   22.338700
  C    -48.421500   -4.173740   21.116400
  H    -47.373200   -6.337230   23.364400
  C    -49.095000   -4.019840   23.532300
  H    -49.366500   -2.981450   23.277700
  H    -48.299300   -3.876770   24.349900
  C    -50.293500   -4.895130   24.154400
  H    -49.914600   -5.859990   24.558700
  H    -50.951500   -5.232650   23.414900
  C    -50.988400   -4.183760   25.272400
  H    -51.653400   -4.885950   25.676200
  H    -51.610000   -3.393470   24.793900
  H    -50.325600   -3.811520   26.062800
  H    -49.800100   -0.030853   18.973600
  H    -46.337500   -7.021700   21.204200

 Total Charge           Charge          ....    0
 Multiplicity           Mult            ....    1
 Number of Electrons    NEL             ....  134
 Basis Dimension        Dim             ....  322

ORBITAL ENERGIES
----------------

  NO   OCC          E(Eh)            E(eV)
   0   2.0000     -88.968080     -2420.9445
   1   2.0000     -88.956342     -2420.6251
   2   2.0000     -10.321148      -280.8527
   3   2.0000     -10.310022      -280.5500
   4   2.0000     -10.308966      -280.5212
   5   2.0000     -10.308134      -280.4986
   6   2.0000     -10.301004      -280.3046
   7   2.0000     -10.296169      -280.1730
   8   2.0000     -10.295894      -280.1655
   9   2.0000     -10.295687      -280.1599
  10   2.0000     -10.292305      -280.0679
  11   2.0000     -10.283551      -279.8296
  12   2.0000     -10.282601      -279.8038
  13   2.0000     -10.280513      -279.7470
  14   2.0000     -10.272018      -279.5158
  15   2.0000     -10.271925      -279.5133
  16   2.0000      -8.083790      -219.9711
  17   2.0000      -8.073275      -219.6850
  18   2.0000      -6.042073      -164.4132
  19   2.0000      -6.038206      -164.3079
  20   2.0000      -6.034697      -164.2125
  21   2.0000      -6.031608      -164.1284
  22   2.0000      -6.027555      -164.0181
  23   2.0000      -6.023987      -163.9210
  24   2.0000      -1.016780       -27.6680
  25   2.0000      -0.993079       -27.0230
  26   2.0000      -0.917186       -24.9579
  27   2.0000      -0.901864       -24.5410
  28   2.0000      -0.874196       -23.7881
  29   2.0000      -0.855415       -23.2770
  30   2.0000      -0.853406       -23.2224
  31   2.0000      -0.811754       -22.0889
  32   2.0000      -0.781524       -21.2663
  33   2.0000      -0.768676       -20.9167
  34   2.0000      -0.700857       -19.0713
  35   2.0000      -0.696263       -18.9463
  36   2.0000      -0.693071       -18.8594
  37   2.0000      -0.663342       -18.0505
  38   2.0000      -0.647891       -17.6300
  39   2.0000      -0.615822       -16.7574
  40   2.0000      -0.593840       -16.1592
  41   2.0000      -0.574958       -15.6454
  42   2.0000      -0.569153       -15.4874
  43   2.0000      -0.556501       -15.1432
  44   2.0000      -0.528696       -14.3866
  45   2.0000      -0.525252       -14.2928
  46   2.0000      -0.516991       -14.0680
  47   2.0000      -0.514219       -13.9926
  48   2.0000      -0.507027       -13.7969
  49   2.0000      -0.503902       -13.7119
  50   2.0000      -0.487377       -13.2622
  51   2.0000      -0.479793       -13.0558
  52   2.0000      -0.476027       -12.9533
  53   2.0000      -0.464870       -12.6498
  54   2.0000      -0.457073       -12.4376
  55   2.0000      -0.451570       -12.2878
  56   2.0000      -0.448605       -12.2072
  57   2.0000      -0.437452       -11.9037
  58   2.0000      -0.435333       -11.8460
  59   2.0000      -0.428265       -11.6537
  60   2.0000      -0.412886       -11.2352
  61   2.0000      -0.409503       -11.1431
  62   2.0000      -0.408690       -11.1210
  63   2.0000      -0.336990        -9.1700
  64   2.0000      -0.323178        -8.7941
  65   2.0000      -0.319208        -8.6861
  66   2.0000      -0.312240        -8.4965
  67   0.0000       0.047833         1.3016
  68   0.0000       0.061662         1.6779
  69   0.0000       0.110660         3.0112
  70   0.0000       0.121521         3.3068
  71   0.0000       0.134314         3.6549

MULLIKEN ATOMIC CHARGES
-----------------------
   0 S :    0.141102
   1 C :   -0.128182
   2 C :   -0.047463
   3 C :    0.034576
   4 C :   -0.203331
   5 H :    0.026829
   6 C :    0.031145
   7 H :    0.043413
   8 H :    0.016953
   9 C :   -0.103289
  10 H :    0.018725
  11 H :    0.030365
  12 C :   -0.001433
  13 H :    0.031871
  14 H :    0.024204
  15 H :    0.022345
  16 S :    0.115340
  17 C :   -0.063027
  18 C :   -0.010690
  19 C :    0.018464
  20 C :   -0.185998
  21 H :   -0.014298
  22 C :    0.010720
  23 H :    0.031500
  24 H :    0.037690
  25 C :   -0.083821
  26 H :    0.019684
  27 H :    0.015904
  28 C :   -0.010426
  29 H :    0.017464
  30 H :    0.036573
  31 H :    0.038110
  32 H :    0.044952
  33 H :    0.044031
Sum of atomic charges:   -0.0000000

LOEWDIN ATOMIC CHARGES
----------------------
   0 S :    0.439228
   1 C :   -0.207734
   2 C :   -0.063745
   3 C :   -0.053618
   4 C :   -0.207036
   5 H :    0.037905
   6 C :   -0.041773
   7 H :    0.036730
   8 H :    0.029443
   9 C :   -0.044702
  10 H :    0.021834
  11 H :    0.023251
  12 C :   -0.058647
  13 H :    0.021876
  14 H :    0.026404
  15 H :    0.025814
  16 S :    0.435411
  17 C :   -0.195284
  18 C :   -0.066483
  19 C :   -0.057637
  20 C :   -0.217733
  21 H :    0.015566
  22 C :   -0.032496
  23 H :    0.027540
  24 H :    0.036480
  25 C :   -0.036230
  26 H :    0.022952
  27 H :    0.015363
  28 C :   -0.062057
  29 H :    0.019375
  30 H :    0.031287
  31 H :    0.028104
  32 H :    0.025057
  33 H :    0.025550

  Mayer bond orders larger than 0.100000
B(  0-S ,  1-C ) :   1.1568 B(  0-S ,  4-C ) :   1.1646 B(  1-C ,  2-C ) :   1.6054
B(  1-C , 32-H ) :   0.9693 B(  2-C ,  3-C ) :   1.2366 B(  2-C ,  6-C ) :   1.0192
B(  3-C ,  4-C ) :   1.5943 B(  3-C ,  5-H ) :   0.9929 B(  4-C , 20-C ) :   0.9997
B(  6-C ,  7-H ) :   0.9375 B(  6-C ,  8-H ) :   0.9437 B(  6-C ,  9-C ) :   1.0703
B(  9-C , 10-H ) :   0.9515 B(  9-C , 11-H ) :   0.9552 B(  9-C , 12-C ) :   1.0956
B( 12-C , 13-H ) :   0.9737 B( 12-C , 14-H ) :   0.9696 B( 12-C , 15-H ) :   0.9693
B( 16-S , 17-C ) :   1.1792 B( 16-S , 20-C ) :   1.1379 B( 17-C , 18-C ) :   1.5874
B( 17-C , 33-H ) :   0.9729 B( 18-C , 19-C ) :   1.2284 B( 18-C , 21-H ) :   1.0050
B( 19-C , 20-C ) :   1.6202 B( 19-C , 22-C ) :   1.0477 B( 22-C , 23-H ) :   0.9449
B( 22-C , 24-H ) :   0.9461 B( 22-C , 25-C ) :   1.0338 B( 25-C , 26-H ) :   0.9567
B( 25-C , 27-H ) :   0.9573 B( 25-C , 28-C ) :   1.0962 B( 28-C , 29-H ) :   0.9705
B( 28-C , 30-H ) :   0.9739 B( 28-C , 31-H ) :   0.9718

Dispersion correction           -0.013858661
FINAL SINGLE POINT ENERGY     -1339.872375269972

DIPOLE MOMENT
-------------
                                X             Y             Z
Electronic contribution:     23.18708      -2.76847      -4.46762
Nuclear contribution   :    -23.67238       2.66585       4.55821
                        -----------------------------------------
Total Dipole Moment    :     -0.48529      -0.10262       0.09059
                        -----------------------------------------
Magnitude (a.u.)       :      0.50423
Magnitude (Debye)      :      1.28164

Rotational constants in cm-1:     0.018724     0.007739     0.006673
Rotational constants in MHz :   561.336377   232.014876   200.038091

                             ****ORCA TERMINATED NORMALLY****
TOTAL RUN TIME: 0 days 0 hours 0 minutes 22 seconds 150 msec
