                         Program Version 4.2.1 -  RELEASE  -
|  1> ! wB97X-D3 SP def2-SVP
|  2> %pal
|  3> nprocs 24
|  4> end
|  5>
|  6> * xyz 0 1
|  7> S 	 -105.673 	 54.7966 	 -79.5792
|  8> C 	 -105.425 	 54.974 	 -81.3379
|  9> C 	 -106.437 	 54.2135 	 -81.9302
| 10> C 	 -107.225 	 53.4859 	 -81.0543
| 11> C 	 -106.887 	 53.5672 	 -79.7326
| 12> H 	 -108.169 	 52.9318 	 -81.2464
| 13> C 	 -106.898 	 54.1689 	 -83.3245
| 14> H 	 -107.837 	 54.7505 	 -83.3643
| 15> H 	 -107.166 	 53.1851 	 -83.5779
| 16> C 	 -106.063 	 54.7158 	 -84.4945
| 17> H 	 -106.127 	 55.872 	 -84.4615
| 18> H 	 -105.095 	 54.3795 	 -84.2957
| 19> C 	 -106.406 	 54.3718 	 -85.9236
| 20> H 	 -105.823 	 55.0208 	 -86.6066
| 21> H 	 -106.154 	 53.3137 	 -86.1478
| 22> H 	 -107.426 	 54.608 	 -86.1702
| 23> S 	 -109.102 	 54.4253 	 -78.222
| 24> C 	 -109.815 	 53.3792 	 -77.0931
| 25> C 	 -109.127 	 52.1987 	 -76.9911
| 26> C 	 -108.037 	 52.035 	 -77.9429
| 27> C 	 -107.86 	 53.2265 	 -78.6921
| 28> H 	 -109.371 	 51.4427 	 -76.2468
| 29> C 	 -107.179 	 50.8145 	 -78.0488
| 30> H 	 -107.299 	 50.2072 	 -77.1566
| 31> H 	 -106.129 	 51.1045 	 -78.1845
| 32> C 	 -107.485 	 49.905 	 -79.3471
| 33> H 	 -106.625 	 49.2873 	 -79.4861
| 34> H 	 -107.838 	 50.5784 	 -80.1902
| 35> C 	 -108.727 	 48.8601 	 -79.2314
| 36> H 	 -108.714 	 48.2322 	 -80.1489
| 37> H 	 -109.678 	 49.4741 	 -79.2202
| 38> H 	 -108.537 	 48.2507 	 -78.3392
| 39> H 	 -104.649 	 55.5748 	 -81.7975
| 40> H 	 -110.451 	 53.7112 	 -76.2793
| 41> *
| 42>
| 43>                          ****END OF INPUT****

CARTESIAN COORDINATES (ANGSTROEM)
---------------------------------
  S    -105.673000   54.796600  -79.579200
  C    -105.425000   54.974000  -81.337900
  C    -106.437000   54.213500  -81.930200
  C    -107.225000   53.485900  -81.054300
  C    -106.887000   53.567200  -79.732600
  H    -108.169000   52.931800  -81.246400
  C    -106.898000   54.168900  -83.324500
  H    -107.837000   54.750500  -83.364300
  H    -107.166000   53.185100  -83.577900
  C    -106.063000   54.715800  -84.494500
  H    -106.127000   55.872000  -84.461500
  H    -105.095000   54.379500  -84.295700
  C    -106.406000   54.371800  -85.923600
  H    -105.823000   55.020800  -86.606600
  H    -106.154000   53.313700  -86.147800
  H    -107.426000   54.608000  -86.170200
  S    -109.102000   54.425300  -78.222000
  C    -109.815000   53.379200  -77.093100
  C    -109.127000   52.198700  -76.991100
  C    -108.037000   52.035000  -77.942900
  C    -107.860000   53.226500  -78.692100
  H    -109.371000   51.442700  -76.246800
  C    -107.179000   50.814500  -78.048800
  H    -107.299000   50.207200  -77.156600
  H    -106.129000   51.104500  -78.184500
  C    -107.485000   49.905000  -79.347100
  H    -106.625000   49.287300  -79.486100
  H    -107.838000   50.578400  -80.190200
  C    -108.727000   48.860100  -79.231400
  H    -108.714000   48.232200  -80.148900
  H    -109.678000   49.474100  -79.220200
  H    -108.537000   48.250700  -78.339200
  H    -104.649000   55.574800  -81.797500
  H    -110.451000   53.711200  -76.279300

 Total Charge           Charge          ....    0
 Multiplicity           Mult            ....    1
 Number of Electrons    NEL             ....  134
 Basis Dimension        Dim             ....  322

ORBITAL ENERGIES
----------------

  NO   OCC          E(Eh)            E(eV)
   0   2.0000     -88.964805     -2420.8554
   1   2.0000     -88.964500     -2420.8471
   2   2.0000     -10.330091      -281.0961
   3   2.0000     -10.324390      -280.9409
   4   2.0000     -10.324030      -280.9311
   5   2.0000     -10.311401      -280.5875
   6   2.0000     -10.307751      -280.4882
   7   2.0000     -10.301054      -280.3059
   8   2.0000     -10.295469      -280.1539
   9   2.0000     -10.295438      -280.1531
  10   2.0000     -10.293615      -280.1035
  11   2.0000     -10.289852      -280.0011
  12   2.0000     -10.286937      -279.9218
  13   2.0000     -10.286168      -279.9009
  14   2.0000     -10.284480      -279.8549
  15   2.0000     -10.281935      -279.7857
  16   2.0000      -8.079539      -219.8554
  17   2.0000      -8.079201      -219.8462
  18   2.0000      -6.038003      -164.3024
  19   2.0000      -6.037722      -164.2948
  20   2.0000      -6.033908      -164.1910
  21   2.0000      -6.033678      -164.1847
  22   2.0000      -6.030416      -164.0960
  23   2.0000      -6.029997      -164.0846
  24   2.0000      -1.009193       -27.4615
  25   2.0000      -0.985793       -26.8248
  26   2.0000      -0.916336       -24.9348
  27   2.0000      -0.896988       -24.4083
  28   2.0000      -0.869969       -23.6731
  29   2.0000      -0.855297       -23.2738
  30   2.0000      -0.839437       -22.8422
  31   2.0000      -0.811892       -22.0927
  32   2.0000      -0.783030       -21.3073
  33   2.0000      -0.770647       -20.9704
  34   2.0000      -0.712805       -19.3964
  35   2.0000      -0.695579       -18.9277
  36   2.0000      -0.680819       -18.5260
  37   2.0000      -0.654546       -17.8111
  38   2.0000      -0.646792       -17.6001
  39   2.0000      -0.608690       -16.5633
  40   2.0000      -0.593033       -16.1373
  41   2.0000      -0.578740       -15.7483
  42   2.0000      -0.570135       -15.5142
  43   2.0000      -0.549422       -14.9505
  44   2.0000      -0.538560       -14.6550
  45   2.0000      -0.529528       -14.4092
  46   2.0000      -0.515618       -14.0307
  47   2.0000      -0.512112       -13.9353
  48   2.0000      -0.506336       -13.7781
  49   2.0000      -0.502089       -13.6625
  50   2.0000      -0.488428       -13.2908
  51   2.0000      -0.483044       -13.1443
  52   2.0000      -0.472870       -12.8675
  53   2.0000      -0.470704       -12.8085
  54   2.0000      -0.453426       -12.3383
  55   2.0000      -0.450569       -12.2606
  56   2.0000      -0.443175       -12.0594
  57   2.0000      -0.431457       -11.7405
  58   2.0000      -0.428480       -11.6595
  59   2.0000      -0.424353       -11.5472
  60   2.0000      -0.419358       -11.4113
  61   2.0000      -0.406123       -11.0512
  62   2.0000      -0.403719       -10.9857
  63   2.0000      -0.335998        -9.1430
  64   2.0000      -0.324496        -8.8300
  65   2.0000      -0.320617        -8.7244
  66   2.0000      -0.310558        -8.4507
  67   0.0000       0.035044         0.9536
  68   0.0000       0.050238         1.3670
  69   0.0000       0.112952         3.0736
  70   0.0000       0.122935         3.3452
  71   0.0000       0.131692         3.5835

MULLIKEN ATOMIC CHARGES
-----------------------
   0 S :    0.092869
   1 C :   -0.125856
   2 C :   -0.042182
   3 C :   -0.018724
   4 C :   -0.123291
   5 H :    0.041211
   6 C :    0.053423
   7 H :    0.040123
   8 H :    0.012518
   9 C :   -0.093501
  10 H :    0.034110
  11 H :    0.014703
  12 C :   -0.033957
  13 H :    0.034495
  14 H :    0.038460
  15 H :    0.025238
  16 S :    0.118579
  17 C :   -0.079633
  18 C :   -0.049469
  19 C :   -0.041628
  20 C :   -0.202048
  21 H :    0.019414
  22 C :    0.082444
  23 H :    0.018888
  24 H :    0.044541
  25 C :   -0.113219
  26 H :    0.037004
  27 H :    0.047489
  28 C :   -0.098591
  29 H :    0.046788
  30 H :    0.052833
  31 H :    0.038627
  32 H :    0.061015
  33 H :    0.067328
Sum of atomic charges:    0.0000000

LOEWDIN ATOMIC CHARGES
----------------------
   0 S :    0.404996
   1 C :   -0.185099
   2 C :   -0.068066
   3 C :   -0.058069
   4 C :   -0.213057
   5 H :    0.040662
   6 C :   -0.036521
   7 H :    0.041892
   8 H :    0.023166
   9 C :   -0.047542
  10 H :    0.031086
  11 H :    0.012640
  12 C :   -0.063502
  13 H :    0.033063
  14 H :    0.027552
  15 H :    0.021027
  16 S :    0.415054
  17 C :   -0.210542
  18 C :   -0.076378
  19 C :   -0.051477
  20 C :   -0.194833
  21 H :    0.030211
  22 C :   -0.033205
  23 H :    0.028009
  24 H :    0.039032
  25 C :   -0.034250
  26 H :    0.018344
  27 H :    0.031013
  28 C :   -0.076377
  29 H :    0.028792
  30 H :    0.031707
  31 H :    0.020988
  32 H :    0.034276
  33 H :    0.035408

  Mayer bond orders larger than 0.100000
B(  0-S ,  1-C ) :   1.1399 B(  0-S ,  4-C ) :   1.1623 B(  1-C ,  2-C ) :   1.5433
B(  1-C ,  4-C ) :   0.1036 B(  1-C , 32-H ) :   0.9790 B(  2-C ,  3-C ) :   1.2779
B(  2-C ,  6-C ) :   1.0304 B(  3-C ,  4-C ) :   1.5433 B(  3-C ,  5-H ) :   0.9873
B(  4-C , 20-C ) :   1.0252 B(  6-C ,  7-H ) :   0.9281 B(  6-C ,  8-H ) :   0.9421
B(  6-C ,  9-C ) :   1.0637 B(  9-C , 10-H ) :   0.9506 B(  9-C , 11-H ) :   0.9567
B(  9-C , 12-C ) :   1.1014 B( 12-C , 13-H ) :   0.9706 B( 12-C , 14-H ) :   0.9722
B( 12-C , 15-H ) :   0.9735 B( 16-S , 17-C ) :   1.1670 B( 16-S , 20-C ) :   1.1455
B( 17-C , 18-C ) :   1.6083 B( 17-C , 33-H ) :   0.9575 B( 18-C , 19-C ) :   1.2558
B( 18-C , 21-H ) :   0.9851 B( 19-C , 20-C ) :   1.5763 B( 19-C , 22-C ) :   1.0643
B( 22-C , 23-H ) :   0.9360 B( 22-C , 24-H ) :   0.9320 B( 22-C , 25-C ) :   1.0421
B( 25-C , 26-H ) :   0.9615 B( 25-C , 27-H ) :   0.9617 B( 25-C , 28-C ) :   1.0632
B( 28-C , 29-H ) :   0.9772 B( 28-C , 30-H ) :   0.9798 B( 28-C , 31-H ) :   0.9781

Dispersion correction           -0.013983435
FINAL SINGLE POINT ENERGY     -1339.855885690972

DIPOLE MOMENT
-------------
                                X             Y             Z
Electronic contribution:     -0.08484      15.59423      20.23785
Nuclear contribution   :      0.01949     -15.86394     -20.59894
                        -----------------------------------------
Total Dipole Moment    :     -0.06535      -0.26971      -0.36109
                        -----------------------------------------
Magnitude (a.u.)       :      0.45541
Magnitude (Debye)      :      1.15756

Rotational constants in cm-1:     0.019489     0.007622     0.006500
Rotational constants in MHz :   584.278118   228.488628   194.853315

                             ****ORCA TERMINATED NORMALLY****
TOTAL RUN TIME: 0 days 0 hours 0 minutes 20 seconds 136 msec
