                         Program Version 4.2.1 -  RELEASE  -
|  1> ! wB97X-D3 SP def2-SVP
|  2> %pal
|  3> nprocs 24
|  4> end
|  5>
|  6> * xyz 0 1
|  7> S 	 -94.5119 	 -3.63071 	 -116.722
|  8> C 	 -95.1414 	 -2.48123 	 -117.948
|  9> C 	 -96.3716 	 -2.80405 	 -118.391
| 10> C 	 -96.7595 	 -4.04944 	 -117.815
| 11> C 	 -95.8395 	 -4.63425 	 -117.057
| 12> H 	 -97.6382 	 -4.6702 	 -117.964
| 13> C 	 -97.2513 	 -2.06206 	 -119.328
| 14> H 	 -98.039 	 -2.65429 	 -119.753
| 15> H 	 -96.5975 	 -1.72052 	 -120.208
| 16> C 	 -97.8888 	 -0.764786 	 -118.896
| 17> H 	 -98.5884 	 -0.98596 	 -118.102
| 18> H 	 -97.1407 	 -0.00434221 	 -118.491
| 19> C 	 -98.8307 	 -0.123395 	 -119.961
| 20> H 	 -98.2752 	 0.0217913 	 -120.878
| 21> H 	 -99.5891 	 -0.827105 	 -120.158
| 22> H 	 -99.18 	 0.854364 	 -119.553
| 23> S 	 -96.2501 	 -5.98974 	 -114.707
| 24> C 	 -96.4762 	 -7.78753 	 -114.672
| 25> C 	 -96.2932 	 -8.25924 	 -115.965
| 26> C 	 -96.0662 	 -7.24632 	 -116.969
| 27> C 	 -95.9334 	 -5.95156 	 -116.375
| 28> H 	 -96.3384 	 -9.31521 	 -116.157
| 29> C 	 -95.9789 	 -7.56141 	 -118.481
| 30> H 	 -96.9146 	 -7.39901 	 -118.992
| 31> H 	 -95.9706 	 -8.64772 	 -118.603
| 32> C 	 -94.8196 	 -6.96295 	 -119.307
| 33> H 	 -94.9002 	 -5.8935 	 -119.272
| 34> H 	 -94.804 	 -7.42913 	 -120.226
| 35> C 	 -93.4349 	 -7.28776 	 -118.769
| 36> H 	 -92.7 	 -6.53013 	 -119.029
| 37> H 	 -93.2549 	 -8.23308 	 -119.139
| 38> H 	 -93.4775 	 -7.36172 	 -117.692
| 39> H 	 -94.6821 	 -1.55268 	 -118.268
| 40> H 	 -96.6976 	 -8.51263 	 -113.886
| 41> *
| 42>
| 43>                          ****END OF INPUT****

CARTESIAN COORDINATES (ANGSTROEM)
---------------------------------
  S    -94.511900   -3.630710  -116.722000
  C    -95.141400   -2.481230  -117.948000
  C    -96.371600   -2.804050  -118.391000
  C    -96.759500   -4.049440  -117.815000
  C    -95.839500   -4.634250  -117.057000
  H    -97.638200   -4.670200  -117.964000
  C    -97.251300   -2.062060  -119.328000
  H    -98.039000   -2.654290  -119.753000
  H    -96.597500   -1.720520  -120.208000
  C    -97.888800   -0.764786  -118.896000
  H    -98.588400   -0.985960  -118.102000
  H    -97.140700   -0.004342  -118.491000
  C    -98.830700   -0.123395  -119.961000
  H    -98.275200    0.021791  -120.878000
  H    -99.589100   -0.827105  -120.158000
  H    -99.180000    0.854364  -119.553000
  S    -96.250100   -5.989740  -114.707000
  C    -96.476200   -7.787530  -114.672000
  C    -96.293200   -8.259240  -115.965000
  C    -96.066200   -7.246320  -116.969000
  C    -95.933400   -5.951560  -116.375000
  H    -96.338400   -9.315210  -116.157000
  C    -95.978900   -7.561410  -118.481000
  H    -96.914600   -7.399010  -118.992000
  H    -95.970600   -8.647720  -118.603000
  C    -94.819600   -6.962950  -119.307000
  H    -94.900200   -5.893500  -119.272000
  H    -94.804000   -7.429130  -120.226000
  C    -93.434900   -7.287760  -118.769000
  H    -92.700000   -6.530130  -119.029000
  H    -93.254900   -8.233080  -119.139000
  H    -93.477500   -7.361720  -117.692000
  H    -94.682100   -1.552680  -118.268000
  H    -96.697600   -8.512630  -113.886000

 Total Charge           Charge          ....    0
 Multiplicity           Mult            ....    1
 Number of Electrons    NEL             ....  134
 Basis Dimension        Dim             ....  322

ORBITAL ENERGIES
----------------

  NO   OCC          E(Eh)            E(eV)
   0   2.0000     -88.970543     -2421.0115
   1   2.0000     -88.966814     -2420.9101
   2   2.0000     -10.328981      -281.0659
   3   2.0000     -10.323112      -280.9062
   4   2.0000     -10.321133      -280.8523
   5   2.0000     -10.313910      -280.6558
   6   2.0000     -10.310334      -280.5585
   7   2.0000     -10.300374      -280.2874
   8   2.0000     -10.296388      -280.1790
   9   2.0000     -10.295818      -280.1635
  10   2.0000     -10.291088      -280.0348
  11   2.0000     -10.289509      -279.9918
  12   2.0000     -10.286318      -279.9049
  13   2.0000     -10.280807      -279.7550
  14   2.0000     -10.269202      -279.4392
  15   2.0000     -10.256257      -279.0870
  16   2.0000      -8.084647      -219.9944
  17   2.0000      -8.082043      -219.9236
  18   2.0000      -6.043301      -164.4466
  19   2.0000      -6.040521      -164.3709
  20   2.0000      -6.039063      -164.3313
  21   2.0000      -6.036696      -164.2669
  22   2.0000      -6.035449      -164.2329
  23   2.0000      -6.032575      -164.1547
  24   2.0000      -1.014439       -27.6043
  25   2.0000      -0.984002       -26.7760
  26   2.0000      -0.918801       -25.0018
  27   2.0000      -0.905805       -24.6482
  28   2.0000      -0.872954       -23.7543
  29   2.0000      -0.850677       -23.1481
  30   2.0000      -0.845086       -22.9960
  31   2.0000      -0.818777       -22.2801
  32   2.0000      -0.787167       -21.4199
  33   2.0000      -0.772878       -21.0311
  34   2.0000      -0.705764       -19.2048
  35   2.0000      -0.699204       -19.0263
  36   2.0000      -0.682717       -18.5777
  37   2.0000      -0.659019       -17.9328
  38   2.0000      -0.647083       -17.6080
  39   2.0000      -0.617812       -16.8115
  40   2.0000      -0.592750       -16.1296
  41   2.0000      -0.582306       -15.8454
  42   2.0000      -0.564985       -15.3740
  43   2.0000      -0.560713       -15.2578
  44   2.0000      -0.540798       -14.7159
  45   2.0000      -0.526245       -14.3198
  46   2.0000      -0.517489       -14.0816
  47   2.0000      -0.515022       -14.0145
  48   2.0000      -0.502357       -13.6698
  49   2.0000      -0.498494       -13.5647
  50   2.0000      -0.486750       -13.2451
  51   2.0000      -0.478074       -13.0091
  52   2.0000      -0.473096       -12.8736
  53   2.0000      -0.461571       -12.5600
  54   2.0000      -0.459715       -12.5095
  55   2.0000      -0.449675       -12.2363
  56   2.0000      -0.441222       -12.0063
  57   2.0000      -0.439802       -11.9676
  58   2.0000      -0.430674       -11.7192
  59   2.0000      -0.428856       -11.6698
  60   2.0000      -0.420446       -11.4409
  61   2.0000      -0.412090       -11.2136
  62   2.0000      -0.404481       -11.0065
  63   2.0000      -0.345011        -9.3882
  64   2.0000      -0.334847        -9.1116
  65   2.0000      -0.324113        -8.8196
  66   2.0000      -0.303461        -8.2576
  67   0.0000       0.039650         1.0789
  68   0.0000       0.060531         1.6471
  69   0.0000       0.105237         2.8637
  70   0.0000       0.118371         3.2210
  71   0.0000       0.130819         3.5598

MULLIKEN ATOMIC CHARGES
-----------------------
   0 S :    0.115177
   1 C :   -0.120499
   2 C :   -0.023793
   3 C :    0.042638
   4 C :   -0.197298
   5 H :    0.006101
   6 C :    0.054849
   7 H :    0.013278
   8 H :    0.033915
   9 C :   -0.109138
  10 H :    0.023969
  11 H :    0.038350
  12 C :   -0.029015
  13 H :    0.022950
  14 H :    0.024565
  15 H :    0.049962
  16 S :    0.123148
  17 C :   -0.099915
  18 C :   -0.035358
  19 C :   -0.047237
  20 C :   -0.150890
  21 H :    0.017194
  22 C :    0.065145
  23 H :    0.027769
  24 H :   -0.003400
  25 C :   -0.030927
  26 H :    0.041128
  27 H :    0.011357
  28 C :   -0.026408
  29 H :    0.038684
  30 H :    0.002396
  31 H :    0.025486
  32 H :    0.034331
  33 H :    0.061486
Sum of atomic charges:    0.0000000

LOEWDIN ATOMIC CHARGES
----------------------
   0 S :    0.406823
   1 C :   -0.175656
   2 C :   -0.061237
   3 C :   -0.063202
   4 C :   -0.211089
   5 H :    0.035137
   6 C :   -0.039525
   7 H :    0.027975
   8 H :    0.041682
   9 C :   -0.045395
  10 H :    0.019915
  11 H :    0.026743
  12 C :   -0.056700
  13 H :    0.019594
  14 H :    0.018122
  15 H :    0.035969
  16 S :    0.419252
  17 C :   -0.186591
  18 C :   -0.066929
  19 C :   -0.057998
  20 C :   -0.220791
  21 H :    0.028863
  22 C :   -0.035738
  23 H :    0.030954
  24 H :    0.027056
  25 C :   -0.029802
  26 H :    0.022933
  27 H :    0.016559
  28 C :   -0.055315
  29 H :    0.028795
  30 H :    0.011347
  31 H :    0.022116
  32 H :    0.026755
  33 H :    0.039381

  Mayer bond orders larger than 0.100000
B(  0-S ,  1-C ) :   1.1167 B(  0-S ,  4-C ) :   1.1436 B(  1-C ,  2-C ) :   1.6634
B(  1-C , 32-H ) :   0.9665 B(  2-C ,  3-C ) :   1.1796 B(  2-C ,  6-C ) :   1.0260
B(  3-C ,  4-C ) :   1.6554 B(  3-C ,  5-H ) :   0.9963 B(  4-C , 20-C ) :   0.9721
B(  6-C ,  7-H ) :   0.9387 B(  6-C ,  8-H ) :   0.9313 B(  6-C ,  9-C ) :   1.0722
B(  9-C , 10-H ) :   0.9536 B(  9-C , 11-H ) :   0.9555 B(  9-C , 12-C ) :   1.0751
B( 12-C , 13-H ) :   0.9771 B( 12-C , 14-H ) :   0.9750 B( 12-C , 15-H ) :   0.9737
B( 16-S , 17-C ) :   1.1357 B( 16-S , 20-C ) :   1.1809 B( 17-C , 18-C ) :   1.6169
B( 17-C , 20-C ) :   0.1043 B( 17-C , 33-H ) :   0.9647 B( 18-C , 19-C ) :   1.2666
B( 18-C , 21-H ) :   0.9817 B( 19-C , 20-C ) :   1.5571 B( 19-C , 22-C ) :   1.0321
B( 22-C , 23-H ) :   0.9291 B( 22-C , 24-H ) :   0.9307 B( 22-C , 25-C ) :   1.0797
B( 25-C , 26-H ) :   0.9562 B( 25-C , 27-H ) :   0.9585 B( 25-C , 28-C ) :   1.0734
B( 28-C , 29-H ) :   0.9753 B( 28-C , 30-H ) :   0.9807 B( 28-C , 31-H ) :   0.9753

Dispersion correction           -0.015028915
FINAL SINGLE POINT ENERGY     -1339.857864682158

DIPOLE MOMENT
-------------
                                X             Y             Z
Electronic contribution:      5.69464      -5.57132      21.88845
Nuclear contribution   :     -6.12136       5.49229     -22.41674
                        -----------------------------------------
Total Dipole Moment    :     -0.42672      -0.07903      -0.52829
                        -----------------------------------------
Magnitude (a.u.)       :      0.68368
Magnitude (Debye)      :      1.73779

Rotational constants in cm-1:     0.021558     0.007771     0.007103
Rotational constants in MHz :   646.299069   232.960384   212.947355

                             ****ORCA TERMINATED NORMALLY****
TOTAL RUN TIME: 0 days 0 hours 0 minutes 21 seconds 967 msec
