                         Program Version 4.2.1 -  RELEASE  -
|  1> ! wB97X-D3 SP def2-SVP
|  2> %pal
|  3> nprocs 24
|  4> end
|  5>
|  6> * xyz 0 1
|  7> S 	 -121.913 	 62.7044 	 -37.1996
|  8> C 	 -121.946 	 61.2152 	 -36.3519
|  9> C 	 -120.765 	 60.9454 	 -35.6023
| 10> C 	 -119.967 	 62.1605 	 -35.5846
| 11> C 	 -120.491 	 63.2036 	 -36.2828
| 12> H 	 -119.014 	 62.2302 	 -35.0017
| 13> C 	 -120.282 	 59.6318 	 -34.982
| 14> H 	 -119.573 	 59.186 	 -35.6436
| 15> H 	 -121.206 	 59.0991 	 -34.9357
| 16> C 	 -119.679 	 59.7343 	 -33.596
| 17> H 	 -119.106 	 58.7855 	 -33.4305
| 18> H 	 -118.866 	 60.5117 	 -33.5286
| 19> C 	 -120.668 	 60.0944 	 -32.4319
| 20> H 	 -121.378 	 60.9025 	 -32.6364
| 21> H 	 -121.354 	 59.2872 	 -32.2403
| 22> H 	 -120.105 	 60.392 	 -31.5848
| 23> S 	 -119.633 	 65.1313 	 -38.0639
| 24> C 	 -118.83 	 66.5515 	 -37.5824
| 25> C 	 -118.707 	 66.5848 	 -36.1741
| 26> C 	 -119.294 	 65.3799 	 -35.5231
| 27> C 	 -119.852 	 64.5211 	 -36.4127
| 28> H 	 -118.196 	 67.4445 	 -35.7748
| 29> C 	 -119.361 	 65.2021 	 -34.0299
| 30> H 	 -119.668 	 64.1581 	 -33.8717
| 31> H 	 -120.106 	 65.9041 	 -33.6578
| 32> C 	 -118.12 	 65.523 	 -33.2521
| 33> H 	 -118.266 	 65.4884 	 -32.142
| 34> H 	 -117.879 	 66.5593 	 -33.4567
| 35> C 	 -117.053 	 64.4445 	 -33.4983
| 36> H 	 -116.165 	 64.7173 	 -32.9614
| 37> H 	 -116.81 	 64.3759 	 -34.5247
| 38> H 	 -117.404 	 63.4769 	 -33.0746
| 39> H 	 -122.657 	 60.5101 	 -36.4864
| 40> H 	 -118.215 	 67.1759 	 -38.28
| 41> *
| 42>
| 43>                          ****END OF INPUT****

CARTESIAN COORDINATES (ANGSTROEM)
---------------------------------
  S    -121.913000   62.704400  -37.199600
  C    -121.946000   61.215200  -36.351900
  C    -120.765000   60.945400  -35.602300
  C    -119.967000   62.160500  -35.584600
  C    -120.491000   63.203600  -36.282800
  H    -119.014000   62.230200  -35.001700
  C    -120.282000   59.631800  -34.982000
  H    -119.573000   59.186000  -35.643600
  H    -121.206000   59.099100  -34.935700
  C    -119.679000   59.734300  -33.596000
  H    -119.106000   58.785500  -33.430500
  H    -118.866000   60.511700  -33.528600
  C    -120.668000   60.094400  -32.431900
  H    -121.378000   60.902500  -32.636400
  H    -121.354000   59.287200  -32.240300
  H    -120.105000   60.392000  -31.584800
  S    -119.633000   65.131300  -38.063900
  C    -118.830000   66.551500  -37.582400
  C    -118.707000   66.584800  -36.174100
  C    -119.294000   65.379900  -35.523100
  C    -119.852000   64.521100  -36.412700
  H    -118.196000   67.444500  -35.774800
  C    -119.361000   65.202100  -34.029900
  H    -119.668000   64.158100  -33.871700
  H    -120.106000   65.904100  -33.657800
  C    -118.120000   65.523000  -33.252100
  H    -118.266000   65.488400  -32.142000
  H    -117.879000   66.559300  -33.456700
  C    -117.053000   64.444500  -33.498300
  H    -116.165000   64.717300  -32.961400
  H    -116.810000   64.375900  -34.524700
  H    -117.404000   63.476900  -33.074600
  H    -122.657000   60.510100  -36.486400
  H    -118.215000   67.175900  -38.280000

 Total Charge           Charge          ....    0
 Multiplicity           Mult            ....    1
 Number of Electrons    NEL             ....  134
 Basis Dimension        Dim             ....  322

ORBITAL ENERGIES
----------------

  NO   OCC          E(Eh)            E(eV)
   0   2.0000     -88.969844     -2420.9925
   1   2.0000     -88.959629     -2420.7146
   2   2.0000     -10.329305      -281.0747
   3   2.0000     -10.325816      -280.9797
   4   2.0000     -10.320325      -280.8303
   5   2.0000     -10.309941      -280.5478
   6   2.0000     -10.306604      -280.4570
   7   2.0000     -10.306462      -280.4531
   8   2.0000     -10.300244      -280.2839
   9   2.0000     -10.298373      -280.2330
  10   2.0000     -10.295104      -280.1440
  11   2.0000     -10.293470      -280.0996
  12   2.0000     -10.284872      -279.8656
  13   2.0000     -10.284543      -279.8566
  14   2.0000     -10.277093      -279.6539
  15   2.0000     -10.273522      -279.5567
  16   2.0000      -8.084811      -219.9989
  17   2.0000      -8.075261      -219.7390
  18   2.0000      -6.043327      -164.4473
  19   2.0000      -6.039447      -164.3417
  20   2.0000      -6.035396      -164.2315
  21   2.0000      -6.033792      -164.1878
  22   2.0000      -6.029509      -164.0713
  23   2.0000      -6.026079      -163.9779
  24   2.0000      -1.005909       -27.3722
  25   2.0000      -0.982912       -26.7464
  26   2.0000      -0.915542       -24.9132
  27   2.0000      -0.912360       -24.8266
  28   2.0000      -0.870268       -23.6812
  29   2.0000      -0.847025       -23.0487
  30   2.0000      -0.841756       -22.9053
  31   2.0000      -0.813858       -22.1462
  32   2.0000      -0.785624       -21.3779
  33   2.0000      -0.777990       -21.1702
  34   2.0000      -0.711107       -19.3502
  35   2.0000      -0.698795       -19.0152
  36   2.0000      -0.693800       -18.8793
  37   2.0000      -0.652716       -17.7613
  38   2.0000      -0.638276       -17.3684
  39   2.0000      -0.623577       -16.9684
  40   2.0000      -0.592436       -16.1210
  41   2.0000      -0.566708       -15.4209
  42   2.0000      -0.562013       -15.2931
  43   2.0000      -0.557149       -15.1608
  44   2.0000      -0.546904       -14.8820
  45   2.0000      -0.528521       -14.3818
  46   2.0000      -0.527378       -14.3507
  47   2.0000      -0.517541       -14.0830
  48   2.0000      -0.502214       -13.6659
  49   2.0000      -0.497625       -13.5411
  50   2.0000      -0.486572       -13.2403
  51   2.0000      -0.482575       -13.1315
  52   2.0000      -0.472015       -12.8442
  53   2.0000      -0.462526       -12.5860
  54   2.0000      -0.455156       -12.3854
  55   2.0000      -0.452510       -12.3134
  56   2.0000      -0.443695       -12.0736
  57   2.0000      -0.439517       -11.9599
  58   2.0000      -0.435524       -11.8512
  59   2.0000      -0.431246       -11.7348
  60   2.0000      -0.421296       -11.4640
  61   2.0000      -0.410648       -11.1743
  62   2.0000      -0.406639       -11.0652
  63   2.0000      -0.353844        -9.6286
  64   2.0000      -0.329040        -8.9536
  65   2.0000      -0.323610        -8.8059
  66   2.0000      -0.290089        -7.8937
  67   0.0000       0.034796         0.9469
  68   0.0000       0.064561         1.7568
  69   0.0000       0.107117         2.9148
  70   0.0000       0.118968         3.2373
  71   0.0000       0.125187         3.4065

MULLIKEN ATOMIC CHARGES
-----------------------
   0 S :    0.128728
   1 C :   -0.074280
   2 C :   -0.137726
   3 C :    0.004194
   4 C :   -0.142726
   5 H :    0.026610
   6 C :    0.137167
   7 H :    0.046197
   8 H :    0.011785
   9 C :   -0.124984
  10 H :    0.037861
  11 H :    0.030537
  12 C :   -0.036180
  13 H :    0.036134
  14 H :    0.027193
  15 H :    0.032187
  16 S :    0.089836
  17 C :   -0.113765
  18 C :   -0.056846
  19 C :   -0.059356
  20 C :   -0.135927
  21 H :    0.022538
  22 C :    0.092840
  23 H :    0.012720
  24 H :    0.039732
  25 C :   -0.097076
  26 H :    0.031793
  27 H :    0.024718
  28 C :   -0.034228
  29 H :    0.025640
  30 H :    0.037003
  31 H :    0.031299
  32 H :    0.001497
  33 H :    0.084886
Sum of atomic charges:   -0.0000000

LOEWDIN ATOMIC CHARGES
----------------------
   0 S :    0.419241
   1 C :   -0.193700
   2 C :   -0.054894
   3 C :   -0.066841
   4 C :   -0.193530
   5 H :    0.035683
   6 C :   -0.027061
   7 H :    0.036215
   8 H :    0.029970
   9 C :   -0.046756
  10 H :    0.031143
  11 H :    0.023481
  12 C :   -0.064560
  13 H :    0.030589
  14 H :    0.023065
  15 H :    0.023185
  16 S :    0.403837
  17 C :   -0.209027
  18 C :   -0.078108
  19 C :   -0.056494
  20 C :   -0.187020
  21 H :    0.027838
  22 C :   -0.033270
  23 H :    0.028649
  24 H :    0.037544
  25 C :   -0.044392
  26 H :    0.029847
  27 H :    0.018900
  28 C :   -0.059239
  29 H :    0.022843
  30 H :    0.019329
  31 H :    0.028019
  32 H :    0.001851
  33 H :    0.043666

  Mayer bond orders larger than 0.100000
B(  0-S ,  1-C ) :   1.1519 B(  0-S ,  4-C ) :   1.1387 B(  1-C ,  2-C ) :   1.6025
B(  1-C , 32-H ) :   0.9769 B(  2-C ,  3-C ) :   1.2388 B(  2-C ,  6-C ) :   1.0089
B(  3-C ,  4-C ) :   1.5922 B(  3-C ,  5-H ) :   0.9777 B(  4-C , 20-C ) :   1.0236
B(  6-C ,  7-H ) :   0.9344 B(  6-C ,  8-H ) :   0.9351 B(  6-C ,  9-C ) :   1.0787
B(  9-C , 10-H ) :   0.9537 B(  9-C , 11-H ) :   0.9570 B(  9-C , 12-C ) :   1.0645
B( 12-C , 13-H ) :   0.9757 B( 12-C , 14-H ) :   0.9750 B( 12-C , 15-H ) :   0.9771
B( 16-S , 17-C ) :   1.1712 B( 16-S , 20-C ) :   1.1262 B( 17-C , 18-C ) :   1.6187
B( 17-C , 33-H ) :   0.9582 B( 18-C , 19-C ) :   1.1837 B( 18-C , 21-H ) :   0.9937
B( 19-C , 20-C ) :   1.6458 B( 19-C , 22-C ) :   1.0452 B( 22-C , 23-H ) :   0.9325
B( 22-C , 24-H ) :   0.9263 B( 22-C , 25-C ) :   1.0804 B( 25-C , 26-H ) :   0.9544
B( 25-C , 27-H ) :   0.9522 B( 25-C , 28-C ) :   1.0749 B( 28-C , 29-H ) :   0.9728
B( 28-C , 30-H ) :   0.9776 B( 28-C , 31-H ) :   0.9699

Dispersion correction           -0.015003071
FINAL SINGLE POINT ENERGY     -1339.872295297615

DIPOLE MOMENT
-------------
                                X             Y             Z
Electronic contribution:    -11.17089       9.63265     -26.59304
Nuclear contribution   :     11.56580      -9.88852      27.14139
                        -----------------------------------------
Total Dipole Moment    :      0.39491      -0.25587       0.54835
                        -----------------------------------------
Magnitude (a.u.)       :      0.72258
Magnitude (Debye)      :      1.83664

Rotational constants in cm-1:     0.017830     0.010169     0.007054
Rotational constants in MHz :   534.518428   304.846812   211.474592

                             ****ORCA TERMINATED NORMALLY****
TOTAL RUN TIME: 0 days 0 hours 0 minutes 21 seconds 454 msec
