                         Program Version 4.2.1 -  RELEASE  -
|  1> ! wB97X-D3 SP def2-SVP
|  2> %pal
|  3> nprocs 24
|  4> end
|  5>
|  6> * xyz 0 1
|  7> S 	 -53.8079 	 -47.1505 	 -80.8028
|  8> C 	 -54.4021 	 -45.5172 	 -80.8874
|  9> C 	 -53.7449 	 -44.6264 	 -80.0212
| 10> C 	 -52.7571 	 -45.246 	 -79.2005
| 11> C 	 -52.6286 	 -46.6357 	 -79.6136
| 12> H 	 -52.1415 	 -44.7655 	 -78.5196
| 13> C 	 -54.0138 	 -43.1562 	 -80.092
| 14> H 	 -53.9096 	 -42.6666 	 -79.1649
| 15> H 	 -55.1376 	 -43.0688 	 -80.2302
| 16> C 	 -53.2784 	 -42.4388 	 -81.1926
| 17> H 	 -52.2458 	 -42.8113 	 -81.1975
| 18> H 	 -53.5678 	 -42.8603 	 -82.1856
| 19> C 	 -53.2474 	 -40.9473 	 -81.112
| 20> H 	 -53.0659 	 -40.616 	 -80.0508
| 21> H 	 -52.4786 	 -40.4854 	 -81.7425
| 22> H 	 -54.185 	 -40.4109 	 -81.3126
| 23> S 	 -52.285 	 -48.9728 	 -78.1599
| 24> C 	 -50.6859 	 -49.673 	 -78.1399
| 25> C 	 -49.7172 	 -48.841 	 -78.6945
| 26> C 	 -50.3015 	 -47.633 	 -79.2581
| 27> C 	 -51.6641 	 -47.6051 	 -79.1596
| 28> H 	 -48.6866 	 -49.201 	 -78.6892
| 29> C 	 -49.5253 	 -46.6357 	 -80.0387
| 30> H 	 -50.195 	 -46.3025 	 -80.8138
| 31> H 	 -48.7617 	 -47.2072 	 -80.7113
| 32> C 	 -49.063 	 -45.3571 	 -79.2856
| 33> H 	 -49.8799 	 -44.7826 	 -78.856
| 34> H 	 -48.6945 	 -44.6823 	 -80.0233
| 35> C 	 -47.9079 	 -45.4302 	 -78.2548
| 36> H 	 -47.5885 	 -44.5147 	 -77.7321
| 37> H 	 -46.9566 	 -45.5517 	 -78.7943
| 38> H 	 -48.0966 	 -46.2409 	 -77.4699
| 39> H 	 -55.2587 	 -45.2052 	 -81.433
| 40> H 	 -50.4464 	 -50.5776 	 -77.5638
| 41> *
| 42>
| 43>                          ****END OF INPUT****

CARTESIAN COORDINATES (ANGSTROEM)
---------------------------------
  S    -53.807900  -47.150500  -80.802800
  C    -54.402100  -45.517200  -80.887400
  C    -53.744900  -44.626400  -80.021200
  C    -52.757100  -45.246000  -79.200500
  C    -52.628600  -46.635700  -79.613600
  H    -52.141500  -44.765500  -78.519600
  C    -54.013800  -43.156200  -80.092000
  H    -53.909600  -42.666600  -79.164900
  H    -55.137600  -43.068800  -80.230200
  C    -53.278400  -42.438800  -81.192600
  H    -52.245800  -42.811300  -81.197500
  H    -53.567800  -42.860300  -82.185600
  C    -53.247400  -40.947300  -81.112000
  H    -53.065900  -40.616000  -80.050800
  H    -52.478600  -40.485400  -81.742500
  H    -54.185000  -40.410900  -81.312600
  S    -52.285000  -48.972800  -78.159900
  C    -50.685900  -49.673000  -78.139900
  C    -49.717200  -48.841000  -78.694500
  C    -50.301500  -47.633000  -79.258100
  C    -51.664100  -47.605100  -79.159600
  H    -48.686600  -49.201000  -78.689200
  C    -49.525300  -46.635700  -80.038700
  H    -50.195000  -46.302500  -80.813800
  H    -48.761700  -47.207200  -80.711300
  C    -49.063000  -45.357100  -79.285600
  H    -49.879900  -44.782600  -78.856000
  H    -48.694500  -44.682300  -80.023300
  C    -47.907900  -45.430200  -78.254800
  H    -47.588500  -44.514700  -77.732100
  H    -46.956600  -45.551700  -78.794300
  H    -48.096600  -46.240900  -77.469900
  H    -55.258700  -45.205200  -81.433000
  H    -50.446400  -50.577600  -77.563800

 Total Charge           Charge          ....    0
 Multiplicity           Mult            ....    1
 Number of Electrons    NEL             ....  134
 Basis Dimension        Dim             ....  322

ORBITAL ENERGIES
----------------

  NO   OCC          E(Eh)            E(eV)
   0   2.0000     -88.974441     -2421.1176
   1   2.0000     -88.961337     -2420.7610
   2   2.0000     -10.334322      -281.2112
   3   2.0000     -10.322053      -280.8773
   4   2.0000     -10.318146      -280.7710
   5   2.0000     -10.311326      -280.5854
   6   2.0000     -10.302320      -280.3404
   7   2.0000     -10.302214      -280.3375
   8   2.0000     -10.301615      -280.3212
   9   2.0000     -10.296887      -280.1925
  10   2.0000     -10.296332      -280.1774
  11   2.0000     -10.289430      -279.9896
  12   2.0000     -10.288919      -279.9757
  13   2.0000     -10.286885      -279.9204
  14   2.0000     -10.283734      -279.8346
  15   2.0000     -10.283176      -279.8194
  16   2.0000      -8.088728      -220.1055
  17   2.0000      -8.075715      -219.7514
  18   2.0000      -6.046927      -164.5453
  19   2.0000      -6.043303      -164.4466
  20   2.0000      -6.039839      -164.3524
  21   2.0000      -6.034182      -164.1984
  22   2.0000      -6.030428      -164.0963
  23   2.0000      -6.026386      -163.9863
  24   2.0000      -1.001563       -27.2539
  25   2.0000      -0.977956       -26.6115
  26   2.0000      -0.917809       -24.9748
  27   2.0000      -0.903756       -24.5924
  28   2.0000      -0.866611       -23.5817
  29   2.0000      -0.853896       -23.2357
  30   2.0000      -0.845713       -23.0130
  31   2.0000      -0.811440       -22.0804
  32   2.0000      -0.784255       -21.3407
  33   2.0000      -0.768759       -20.9190
  34   2.0000      -0.709060       -19.2945
  35   2.0000      -0.704148       -19.1608
  36   2.0000      -0.692742       -18.8505
  37   2.0000      -0.659529       -17.9467
  38   2.0000      -0.645183       -17.5563
  39   2.0000      -0.617259       -16.7965
  40   2.0000      -0.590084       -16.0570
  41   2.0000      -0.571054       -15.5392
  42   2.0000      -0.551639       -15.0109
  43   2.0000      -0.546001       -14.8574
  44   2.0000      -0.540527       -14.7085
  45   2.0000      -0.529653       -14.4126
  46   2.0000      -0.525535       -14.3005
  47   2.0000      -0.503989       -13.7143
  48   2.0000      -0.502680       -13.6786
  49   2.0000      -0.496538       -13.5115
  50   2.0000      -0.492866       -13.4116
  51   2.0000      -0.477313       -12.9884
  52   2.0000      -0.475480       -12.9385
  53   2.0000      -0.460897       -12.5416
  54   2.0000      -0.456268       -12.4157
  55   2.0000      -0.447393       -12.1742
  56   2.0000      -0.444037       -12.0829
  57   2.0000      -0.442017       -12.0279
  58   2.0000      -0.435923       -11.8621
  59   2.0000      -0.427957       -11.6453
  60   2.0000      -0.414833       -11.2882
  61   2.0000      -0.412292       -11.2190
  62   2.0000      -0.401575       -10.9274
  63   2.0000      -0.339783        -9.2460
  64   2.0000      -0.328784        -8.9467
  65   2.0000      -0.326504        -8.8846
  66   2.0000      -0.295830        -8.0500
  67   0.0000       0.028639         0.7793
  68   0.0000       0.059038         1.6065
  69   0.0000       0.114414         3.1134
  70   0.0000       0.118864         3.2344
  71   0.0000       0.122150         3.3239

MULLIKEN ATOMIC CHARGES
-----------------------
   0 S :    0.143852
   1 C :   -0.099990
   2 C :   -0.114837
   3 C :    0.097909
   4 C :   -0.202254
   5 H :   -0.007399
   6 C :    0.064829
   7 H :    0.000516
   8 H :    0.026488
   9 C :   -0.044943
  10 H :    0.018665
  11 H :    0.021396
  12 C :   -0.042831
  13 H :    0.023754
  14 H :    0.040795
  15 H :    0.029988
  16 S :    0.096900
  17 C :   -0.101566
  18 C :   -0.046370
  19 C :    0.005314
  20 C :   -0.176929
  21 H :    0.026758
  22 C :    0.042121
  23 H :    0.026855
  24 H :    0.043421
  25 C :   -0.032595
  26 H :    0.018116
  27 H :    0.016911
  28 C :   -0.081010
  29 H :    0.029988
  30 H :    0.022750
  31 H :    0.052401
  32 H :    0.035152
  33 H :    0.065845
Sum of atomic charges:    0.0000000

LOEWDIN ATOMIC CHARGES
----------------------
   0 S :    0.433623
   1 C :   -0.204225
   2 C :   -0.057924
   3 C :   -0.038489
   4 C :   -0.195532
   5 H :    0.019171
   6 C :   -0.037055
   7 H :    0.019905
   8 H :    0.036628
   9 C :   -0.050570
  10 H :    0.027166
  11 H :    0.028138
  12 C :   -0.071811
  13 H :    0.029446
  14 H :    0.030482
  15 H :    0.025126
  16 S :    0.375822
  17 C :   -0.184552
  18 C :   -0.075595
  19 C :   -0.054533
  20 C :   -0.195102
  21 H :    0.035418
  22 C :   -0.038425
  23 H :    0.035133
  24 H :    0.044745
  25 C :   -0.039122
  26 H :    0.022913
  27 H :    0.023922
  28 C :   -0.083578
  29 H :    0.028974
  30 H :    0.025325
  31 H :    0.032356
  32 H :    0.019981
  33 H :    0.032238

  Mayer bond orders larger than 0.100000
B(  0-S ,  1-C ) :   1.1494 B(  0-S ,  4-C ) :   1.1879 B(  1-C ,  2-C ) :   1.5757
B(  1-C ,  4-C ) :   0.1104 B(  1-C , 32-H ) :   0.9683 B(  2-C ,  3-C ) :   1.2755
B(  2-C ,  6-C ) :   1.0400 B(  3-C ,  4-C ) :   1.5003 B(  3-C ,  5-H ) :   1.0030
B(  4-C , 20-C ) :   1.0406 B(  6-C ,  7-H ) :   0.9368 B(  6-C ,  8-H ) :   0.9314
B(  6-C ,  9-C ) :   1.0584 B(  9-C , 10-H ) :   0.9511 B(  9-C , 11-H ) :   0.9450
B(  9-C , 12-C ) :   1.0827 B( 12-C , 13-H ) :   0.9700 B( 12-C , 14-H ) :   0.9734
B( 12-C , 15-H ) :   0.9734 B( 16-S , 17-C ) :   1.1479 B( 16-S , 20-C ) :   1.1184
B( 17-C , 18-C ) :   1.6363 B( 17-C , 33-H ) :   0.9621 B( 18-C , 19-C ) :   1.1880
B( 18-C , 21-H ) :   0.9935 B( 19-C , 20-C ) :   1.6389 B( 19-C , 22-C ) :   1.0449
B( 22-C , 23-H ) :   0.9198 B( 22-C , 24-H ) :   0.9440 B( 22-C , 25-C ) :   1.0655
B( 25-C , 26-H ) :   0.9532 B( 25-C , 27-H ) :   0.9502 B( 25-C , 28-C ) :   1.0729
B( 28-C , 29-H ) :   0.9718 B( 28-C , 30-H ) :   0.9745 B( 28-C , 31-H ) :   0.9766

Dispersion correction           -0.014734978
FINAL SINGLE POINT ENERGY     -1339.867417755445

DIPOLE MOMENT
-------------
                                X             Y             Z
Electronic contribution:    -12.92909     -27.67801       3.16189
Nuclear contribution   :     13.28185      28.24126      -3.28604
                        -----------------------------------------
Total Dipole Moment    :      0.35276       0.56324      -0.12415
                        -----------------------------------------
Magnitude (a.u.)       :      0.67609
Magnitude (Debye)      :      1.71848

Rotational constants in cm-1:     0.019139     0.008919     0.006601
Rotational constants in MHz :   573.759842   267.378447   197.892698

                             ****ORCA TERMINATED NORMALLY****
TOTAL RUN TIME: 0 days 0 hours 0 minutes 21 seconds 928 msec
