                         Program Version 4.2.1 -  RELEASE  -
|  1> ! wB97X-D3 SP def2-SVP
|  2> %pal
|  3> nprocs 24
|  4> end
|  5>
|  6> * xyz 0 1
|  7> S 	 -121.396 	 52.551 	 -31.2296
|  8> C 	 -121.404 	 52.2008 	 -32.9014
|  9> C 	 -120.236 	 52.6185 	 -33.5164
| 10> C 	 -119.408 	 53.4999 	 -32.6923
| 11> C 	 -119.919 	 53.5466 	 -31.3919
| 12> H 	 -118.585 	 54.0092 	 -33.0554
| 13> C 	 -119.972 	 52.443 	 -34.9207
| 14> H 	 -119.561 	 51.4441 	 -34.9654
| 15> H 	 -119.218 	 53.1586 	 -35.3444
| 16> C 	 -121.181 	 52.5444 	 -35.8313
| 17> H 	 -122.053 	 52.0467 	 -35.3743
| 18> H 	 -121.281 	 53.6 	 -35.8842
| 19> C 	 -120.948 	 51.8046 	 -37.2259
| 20> H 	 -121.819 	 51.8031 	 -37.7788
| 21> H 	 -120.175 	 52.2616 	 -37.9202
| 22> H 	 -120.649 	 50.7684 	 -36.9088
| 23> S 	 -117.727 	 54.4733 	 -30.0841
| 24> C 	 -117.817 	 55.1675 	 -28.5535
| 25> C 	 -119.12 	 55.6107 	 -28.3157
| 26> C 	 -120.104 	 55.1603 	 -29.3719
| 27> C 	 -119.444 	 54.4071 	 -30.3423
| 28> H 	 -119.423 	 56.1667 	 -27.4061
| 29> C 	 -121.607 	 55.4892 	 -29.2532
| 30> H 	 -121.931 	 55.3564 	 -28.2349
| 31> H 	 -122.105 	 54.7297 	 -29.8191
| 32> C 	 -121.883 	 56.9559 	 -29.7133
| 33> H 	 -121.185 	 57.2755 	 -30.5022
| 34> H 	 -121.572 	 57.5588 	 -28.8625
| 35> C 	 -123.412 	 57.1301 	 -30.0577
| 36> H 	 -123.665 	 58.1581 	 -30.2249
| 37> H 	 -124.034 	 56.6951 	 -29.2843
| 38> H 	 -123.58 	 56.611 	 -31.0061
| 39> H 	 -122.194 	 51.6043 	 -33.3254
| 40> H 	 -116.978 	 55.5071 	 -28.0463
| 41> *
| 42>
| 43>                          ****END OF INPUT****

CARTESIAN COORDINATES (ANGSTROEM)
---------------------------------
  S    -121.396000   52.551000  -31.229600
  C    -121.404000   52.200800  -32.901400
  C    -120.236000   52.618500  -33.516400
  C    -119.408000   53.499900  -32.692300
  C    -119.919000   53.546600  -31.391900
  H    -118.585000   54.009200  -33.055400
  C    -119.972000   52.443000  -34.920700
  H    -119.561000   51.444100  -34.965400
  H    -119.218000   53.158600  -35.344400
  C    -121.181000   52.544400  -35.831300
  H    -122.053000   52.046700  -35.374300
  H    -121.281000   53.600000  -35.884200
  C    -120.948000   51.804600  -37.225900
  H    -121.819000   51.803100  -37.778800
  H    -120.175000   52.261600  -37.920200
  H    -120.649000   50.768400  -36.908800
  S    -117.727000   54.473300  -30.084100
  C    -117.817000   55.167500  -28.553500
  C    -119.120000   55.610700  -28.315700
  C    -120.104000   55.160300  -29.371900
  C    -119.444000   54.407100  -30.342300
  H    -119.423000   56.166700  -27.406100
  C    -121.607000   55.489200  -29.253200
  H    -121.931000   55.356400  -28.234900
  H    -122.105000   54.729700  -29.819100
  C    -121.883000   56.955900  -29.713300
  H    -121.185000   57.275500  -30.502200
  H    -121.572000   57.558800  -28.862500
  C    -123.412000   57.130100  -30.057700
  H    -123.665000   58.158100  -30.224900
  H    -124.034000   56.695100  -29.284300
  H    -123.580000   56.611000  -31.006100
  H    -122.194000   51.604300  -33.325400
  H    -116.978000   55.507100  -28.046300

 Total Charge           Charge          ....    0
 Multiplicity           Mult            ....    1
 Number of Electrons    NEL             ....  134
 Basis Dimension        Dim             ....  322

ORBITAL ENERGIES
----------------

  NO   OCC          E(Eh)            E(eV)
   0   2.0000     -88.967144     -2420.9191
   1   2.0000     -88.959307     -2420.7058
   2   2.0000     -10.332873      -281.1718
   3   2.0000     -10.323444      -280.9152
   4   2.0000     -10.311026      -280.5773
   5   2.0000     -10.310174      -280.5541
   6   2.0000     -10.309122      -280.5255
   7   2.0000     -10.301621      -280.3214
   8   2.0000     -10.298229      -280.2291
   9   2.0000     -10.294566      -280.1294
  10   2.0000     -10.288370      -279.9608
  11   2.0000     -10.288024      -279.9514
  12   2.0000     -10.287784      -279.9448
  13   2.0000     -10.285579      -279.8848
  14   2.0000     -10.283525      -279.8289
  15   2.0000     -10.277397      -279.6622
  16   2.0000      -8.081578      -219.9109
  17   2.0000      -8.075887      -219.7561
  18   2.0000      -6.040124      -164.3601
  19   2.0000      -6.036112      -164.2510
  20   2.0000      -6.034407      -164.2046
  21   2.0000      -6.032337      -164.1482
  22   2.0000      -6.030107      -164.0876
  23   2.0000      -6.026550      -163.9908
  24   2.0000      -1.006438       -27.3866
  25   2.0000      -0.985073       -26.8052
  26   2.0000      -0.918417       -24.9914
  27   2.0000      -0.901390       -24.5281
  28   2.0000      -0.871360       -23.7109
  29   2.0000      -0.850731       -23.1496
  30   2.0000      -0.839010       -22.8306
  31   2.0000      -0.810596       -22.0574
  32   2.0000      -0.779424       -21.2092
  33   2.0000      -0.767493       -20.8846
  34   2.0000      -0.711375       -19.3575
  35   2.0000      -0.702286       -19.1102
  36   2.0000      -0.696665       -18.9572
  37   2.0000      -0.662584       -18.0298
  38   2.0000      -0.647341       -17.6150
  39   2.0000      -0.609531       -16.5862
  40   2.0000      -0.592135       -16.1128
  41   2.0000      -0.583248       -15.8710
  42   2.0000      -0.563744       -15.3403
  43   2.0000      -0.557976       -15.1833
  44   2.0000      -0.527355       -14.3501
  45   2.0000      -0.522671       -14.2226
  46   2.0000      -0.519426       -14.1343
  47   2.0000      -0.509807       -13.8726
  48   2.0000      -0.505553       -13.7568
  49   2.0000      -0.502531       -13.6746
  50   2.0000      -0.492179       -13.3929
  51   2.0000      -0.478602       -13.0234
  52   2.0000      -0.476330       -12.9616
  53   2.0000      -0.463423       -12.6104
  54   2.0000      -0.456162       -12.4128
  55   2.0000      -0.447834       -12.1862
  56   2.0000      -0.440954       -11.9990
  57   2.0000      -0.439109       -11.9488
  58   2.0000      -0.434477       -11.8227
  59   2.0000      -0.423973       -11.5369
  60   2.0000      -0.421652       -11.4737
  61   2.0000      -0.416163       -11.3244
  62   2.0000      -0.410289       -11.1645
  63   2.0000      -0.355004        -9.6602
  64   2.0000      -0.324633        -8.8337
  65   2.0000      -0.320497        -8.7212
  66   2.0000      -0.286470        -7.7953
  67   0.0000       0.025218         0.6862
  68   0.0000       0.078279         2.1301
  69   0.0000       0.108728         2.9586
  70   0.0000       0.113477         3.0879
  71   0.0000       0.133299         3.6272

MULLIKEN ATOMIC CHARGES
-----------------------
   0 S :    0.119661
   1 C :   -0.158484
   2 C :   -0.056656
   3 C :    0.027439
   4 C :   -0.103448
   5 H :   -0.007360
   6 C :    0.056097
   7 H :    0.028251
   8 H :    0.030543
   9 C :   -0.093982
  10 H :    0.033463
  11 H :    0.031649
  12 C :   -0.057470
  13 H :    0.024757
  14 H :    0.043690
  15 H :    0.038368
  16 S :    0.101131
  17 C :   -0.053835
  18 C :   -0.061216
  19 C :   -0.097246
  20 C :   -0.156510
  21 H :    0.033217
  22 C :    0.102921
  23 H :    0.023531
  24 H :    0.005102
  25 C :   -0.094380
  26 H :    0.044441
  27 H :    0.023122
  28 C :   -0.031867
  29 H :    0.031620
  30 H :    0.034836
  31 H :    0.040418
  32 H :    0.053545
  33 H :    0.044653
Sum of atomic charges:   -0.0000000

LOEWDIN ATOMIC CHARGES
----------------------
   0 S :    0.419333
   1 C :   -0.217680
   2 C :   -0.058762
   3 C :   -0.048384
   4 C :   -0.173868
   5 H :    0.019316
   6 C :   -0.044038
   7 H :    0.032118
   8 H :    0.034629
   9 C :   -0.031507
  10 H :    0.023713
  11 H :    0.021691
  12 C :   -0.064297
  13 H :    0.012775
  14 H :    0.031862
  15 H :    0.031177
  16 S :    0.433305
  17 C :   -0.198249
  18 C :   -0.075218
  19 C :   -0.047809
  20 C :   -0.212189
  21 H :    0.031929
  22 C :   -0.029563
  23 H :    0.028532
  24 H :    0.009566
  25 C :   -0.036172
  26 H :    0.027659
  27 H :    0.020209
  28 C :   -0.060242
  29 H :    0.021826
  30 H :    0.025310
  31 H :    0.029917
  32 H :    0.024494
  33 H :    0.018615

  Mayer bond orders larger than 0.100000
B(  0-S ,  1-C ) :   1.1372 B(  0-S ,  4-C ) :   1.1466 B(  1-C ,  2-C ) :   1.5938
B(  1-C , 32-H ) :   0.9686 B(  2-C ,  3-C ) :   1.2318 B(  2-C ,  6-C ) :   1.0382
B(  3-C ,  4-C ) :   1.5432 B(  3-C ,  5-H ) :   1.0052 B(  4-C , 20-C ) :   1.0732
B(  6-C ,  7-H ) :   0.9118 B(  6-C ,  8-H ) :   0.9525 B(  6-C ,  9-C ) :   1.0637
B(  9-C , 10-H ) :   0.9541 B(  9-C , 11-H ) :   0.9634 B(  9-C , 12-C ) :   1.0667
B( 12-C , 13-H ) :   0.9775 B( 12-C , 14-H ) :   0.9765 B( 12-C , 15-H ) :   0.9772
B( 16-S , 17-C ) :   1.1714 B( 16-S , 20-C ) :   1.1382 B( 17-C , 18-C ) :   1.5922
B( 17-C , 33-H ) :   0.9750 B( 18-C , 19-C ) :   1.2250 B( 18-C , 21-H ) :   0.9835
B( 19-C , 20-C ) :   1.5758 B( 19-C , 22-C ) :   1.0428 B( 22-C , 23-H ) :   0.9315
B( 22-C , 24-H ) :   0.9349 B( 22-C , 25-C ) :   1.0396 B( 25-C , 26-H ) :   0.9648
B( 25-C , 27-H ) :   0.9570 B( 25-C , 28-C ) :   1.0712 B( 28-C , 29-H ) :   0.9768
B( 28-C , 30-H ) :   0.9746 B( 28-C , 31-H ) :   0.9786

Dispersion correction           -0.013682810
FINAL SINGLE POINT ENERGY     -1339.863360809507

DIPOLE MOMENT
-------------
                                X             Y             Z
Electronic contribution:     13.89768      -5.67741      15.65616
Nuclear contribution   :    -14.12015       5.92830     -15.93790
                        -----------------------------------------
Total Dipole Moment    :     -0.22247       0.25088      -0.28174
                        -----------------------------------------
Magnitude (a.u.)       :      0.43797
Magnitude (Debye)      :      1.11323

Rotational constants in cm-1:     0.020366     0.007586     0.006259
Rotational constants in MHz :   610.556136   227.418599   187.629321

                             ****ORCA TERMINATED NORMALLY****
TOTAL RUN TIME: 0 days 0 hours 0 minutes 22 seconds 26 msec
