                         Program Version 4.2.1 -  RELEASE  -
|  1> ! wB97X-D3 SP def2-SVP
|  2> %pal
|  3> nprocs 24
|  4> end
|  5>
|  6> * xyz 0 1
|  7> S 	 -53.8625 	 17.3185 	 -85.7365
|  8> C 	 -54.4469 	 16.6984 	 -87.3142
|  9> C 	 -55.3396 	 17.6376 	 -87.823
| 10> C 	 -55.2663 	 18.8717 	 -87.1658
| 11> C 	 -54.4947 	 18.9068 	 -86.0305
| 12> H 	 -55.8553 	 19.6741 	 -87.5412
| 13> C 	 -56.1624 	 17.4009 	 -89.0461
| 14> H 	 -57.2023 	 17.0739 	 -88.6727
| 15> H 	 -55.8536 	 16.5131 	 -89.6014
| 16> C 	 -56.1729 	 18.6831 	 -89.9539
| 17> H 	 -56.511 	 19.5742 	 -89.4476
| 18> H 	 -55.1611 	 18.8299 	 -90.2777
| 19> C 	 -57.1136 	 18.5257 	 -91.2105
| 20> H 	 -58.1073 	 18.1036 	 -91.0928
| 21> H 	 -57.1299 	 19.5885 	 -91.5302
| 22> H 	 -56.5382 	 17.9714 	 -91.9299
| 23> S 	 -53.9973 	 19.6268 	 -83.4727
| 24> C 	 -53.4367 	 21.2075 	 -83.0815
| 25> C 	 -53.4835 	 22.0204 	 -84.1847
| 26> C 	 -53.8848 	 21.3561 	 -85.3645
| 27> C 	 -54.096 	 19.9739 	 -85.1619
| 28> H 	 -53.179 	 23.0484 	 -84.1919
| 29> C 	 -53.8849 	 22.0433 	 -86.6969
| 30> H 	 -54.0189 	 21.2257 	 -87.4624
| 31> H 	 -52.9675 	 22.5206 	 -86.8015
| 32> C 	 -55.0819 	 23.0432 	 -86.8523
| 33> H 	 -54.8254 	 24 	 -86.2914
| 34> H 	 -55.9076 	 22.5324 	 -86.3554
| 35> C 	 -55.3475 	 23.4376 	 -88.2989
| 36> H 	 -56.3366 	 23.8067 	 -88.4987
| 37> H 	 -55.0797 	 22.642 	 -88.9632
| 38> H 	 -54.7981 	 24.2647 	 -88.7673
| 39> H 	 -54.3407 	 15.6914 	 -87.6504
| 40> H 	 -53.047 	 21.4584 	 -82.1042
| 41> *
| 42>
| 43>                          ****END OF INPUT****

CARTESIAN COORDINATES (ANGSTROEM)
---------------------------------
  S    -53.862500   17.318500  -85.736500
  C    -54.446900   16.698400  -87.314200
  C    -55.339600   17.637600  -87.823000
  C    -55.266300   18.871700  -87.165800
  C    -54.494700   18.906800  -86.030500
  H    -55.855300   19.674100  -87.541200
  C    -56.162400   17.400900  -89.046100
  H    -57.202300   17.073900  -88.672700
  H    -55.853600   16.513100  -89.601400
  C    -56.172900   18.683100  -89.953900
  H    -56.511000   19.574200  -89.447600
  H    -55.161100   18.829900  -90.277700
  C    -57.113600   18.525700  -91.210500
  H    -58.107300   18.103600  -91.092800
  H    -57.129900   19.588500  -91.530200
  H    -56.538200   17.971400  -91.929900
  S    -53.997300   19.626800  -83.472700
  C    -53.436700   21.207500  -83.081500
  C    -53.483500   22.020400  -84.184700
  C    -53.884800   21.356100  -85.364500
  C    -54.096000   19.973900  -85.161900
  H    -53.179000   23.048400  -84.191900
  C    -53.884900   22.043300  -86.696900
  H    -54.018900   21.225700  -87.462400
  H    -52.967500   22.520600  -86.801500
  C    -55.081900   23.043200  -86.852300
  H    -54.825400   24.000000  -86.291400
  H    -55.907600   22.532400  -86.355400
  C    -55.347500   23.437600  -88.298900
  H    -56.336600   23.806700  -88.498700
  H    -55.079700   22.642000  -88.963200
  H    -54.798100   24.264700  -88.767300
  H    -54.340700   15.691400  -87.650400
  H    -53.047000   21.458400  -82.104200

 Total Charge           Charge          ....    0
 Multiplicity           Mult            ....    1
 Number of Electrons    NEL             ....  134
 Basis Dimension        Dim             ....  322

ORBITAL ENERGIES
----------------

  NO   OCC          E(Eh)            E(eV)
   0   2.0000     -88.964028     -2420.8343
   1   2.0000     -88.961899     -2420.7763
   2   2.0000     -10.328762      -281.0599
   3   2.0000     -10.325172      -280.9622
   4   2.0000     -10.315299      -280.6935
   5   2.0000     -10.313470      -280.6438
   6   2.0000     -10.300084      -280.2795
   7   2.0000     -10.299458      -280.2625
   8   2.0000     -10.297264      -280.2028
   9   2.0000     -10.294447      -280.1261
  10   2.0000     -10.292277      -280.0671
  11   2.0000     -10.290168      -280.0097
  12   2.0000     -10.287854      -279.9467
  13   2.0000     -10.287430      -279.9352
  14   2.0000     -10.281611      -279.7769
  15   2.0000     -10.275555      -279.6121
  16   2.0000      -8.079805      -219.8627
  17   2.0000      -8.076432      -219.7709
  18   2.0000      -6.038183      -164.3073
  19   2.0000      -6.035040      -164.2218
  20   2.0000      -6.034102      -164.1963
  21   2.0000      -6.030949      -164.1105
  22   2.0000      -6.030711      -164.1040
  23   2.0000      -6.027109      -164.0060
  24   2.0000      -1.012967       -27.5642
  25   2.0000      -0.987962       -26.8838
  26   2.0000      -0.912212       -24.8226
  27   2.0000      -0.909015       -24.7356
  28   2.0000      -0.871932       -23.7265
  29   2.0000      -0.853822       -23.2337
  30   2.0000      -0.842924       -22.9371
  31   2.0000      -0.817883       -22.2557
  32   2.0000      -0.783310       -21.3149
  33   2.0000      -0.769993       -20.9526
  34   2.0000      -0.715231       -19.4624
  35   2.0000      -0.701460       -19.0877
  36   2.0000      -0.694773       -18.9057
  37   2.0000      -0.663180       -18.0461
  38   2.0000      -0.640968       -17.4416
  39   2.0000      -0.629099       -17.1187
  40   2.0000      -0.598555       -16.2875
  41   2.0000      -0.569235       -15.4897
  42   2.0000      -0.564764       -15.3680
  43   2.0000      -0.561337       -15.2748
  44   2.0000      -0.530891       -14.4463
  45   2.0000      -0.526764       -14.3340
  46   2.0000      -0.522106       -14.2072
  47   2.0000      -0.514339       -13.9959
  48   2.0000      -0.506923       -13.7941
  49   2.0000      -0.502299       -13.6683
  50   2.0000      -0.494527       -13.4568
  51   2.0000      -0.487454       -13.2643
  52   2.0000      -0.473853       -12.8942
  53   2.0000      -0.462526       -12.5860
  54   2.0000      -0.458930       -12.4881
  55   2.0000      -0.454423       -12.3655
  56   2.0000      -0.449776       -12.2390
  57   2.0000      -0.438322       -11.9274
  58   2.0000      -0.430409       -11.7120
  59   2.0000      -0.426026       -11.5928
  60   2.0000      -0.420363       -11.4387
  61   2.0000      -0.414538       -11.2802
  62   2.0000      -0.403924       -10.9913
  63   2.0000      -0.353549        -9.6206
  64   2.0000      -0.331675        -9.0253
  65   2.0000      -0.327652        -8.9159
  66   2.0000      -0.283769        -7.7218
  67   0.0000       0.021246         0.5781
  68   0.0000       0.076531         2.0825
  69   0.0000       0.109369         2.9761
  70   0.0000       0.123537         3.3616
  71   0.0000       0.130636         3.5548

MULLIKEN ATOMIC CHARGES
-----------------------
   0 S :    0.088238
   1 C :   -0.122402
   2 C :   -0.083238
   3 C :    0.011326
   4 C :   -0.101824
   5 H :   -0.012616
   6 C :    0.058778
   7 H :    0.047683
   8 H :    0.019655
   9 C :   -0.128418
  10 H :    0.042748
  11 H :    0.039111
  12 C :   -0.037398
  13 H :    0.046202
  14 H :    0.034597
  15 H :    0.028182
  16 S :    0.104249
  17 C :   -0.083346
  18 C :   -0.011870
  19 C :   -0.066683
  20 C :   -0.130119
  21 H :    0.008250
  22 C :    0.071385
  23 H :    0.026860
  24 H :    0.019576
  25 C :   -0.094401
  26 H :    0.042271
  27 H :    0.042205
  28 C :   -0.023401
  29 H :    0.027375
  30 H :    0.013912
  31 H :    0.021637
  32 H :    0.042213
  33 H :    0.059266
Sum of atomic charges:   -0.0000000

LOEWDIN ATOMIC CHARGES
----------------------
   0 S :    0.392988
   1 C :   -0.184062
   2 C :   -0.063659
   3 C :   -0.071999
   4 C :   -0.188851
   5 H :    0.023234
   6 C :   -0.037450
   7 H :    0.041853
   8 H :    0.029123
   9 C :   -0.033270
  10 H :    0.018924
  11 H :    0.026870
  12 C :   -0.064752
  13 H :    0.025619
  14 H :    0.032670
  15 H :    0.021648
  16 S :    0.427131
  17 C :   -0.189446
  18 C :   -0.068804
  19 C :   -0.057715
  20 C :   -0.207677
  21 H :    0.029491
  22 C :   -0.026912
  23 H :    0.033999
  24 H :    0.020707
  25 C :   -0.040402
  26 H :    0.031751
  27 H :    0.026875
  28 C :   -0.076127
  29 H :    0.026054
  30 H :    0.019745
  31 H :    0.029941
  32 H :    0.022761
  33 H :    0.029741

  Mayer bond orders larger than 0.100000
B(  0-S ,  1-C ) :   1.1283 B(  0-S ,  4-C ) :   1.1562 B(  1-C ,  2-C ) :   1.5799
B(  1-C ,  4-C ) :   0.1092 B(  1-C , 32-H ) :   0.9753 B(  2-C ,  3-C ) :   1.2748
B(  2-C ,  6-C ) :   1.0286 B(  3-C ,  4-C ) :   1.5281 B(  3-C ,  5-H ) :   0.9997
B(  4-C , 20-C ) :   1.0534 B(  6-C ,  7-H ) :   0.9280 B(  6-C ,  8-H ) :   0.9461
B(  6-C ,  9-C ) :   1.0559 B(  9-C , 10-H ) :   0.9595 B(  9-C , 11-H ) :   0.9603
B(  9-C , 12-C ) :   1.0698 B( 12-C , 13-H ) :   0.9790 B( 12-C , 14-H ) :   0.9783
B( 12-C , 15-H ) :   0.9776 B( 16-S , 17-C ) :   1.1663 B( 16-S , 20-C ) :   1.1584
B( 17-C , 18-C ) :   1.5609 B( 17-C , 20-C ) :   0.1053 B( 17-C , 33-H ) :   0.9722
B( 18-C , 19-C ) :   1.2756 B( 18-C , 21-H ) :   0.9947 B( 19-C , 20-C ) :   1.5442
B( 19-C , 22-C ) :   1.0555 B( 22-C , 23-H ) :   0.9351 B( 22-C , 24-H ) :   0.9329
B( 22-C , 25-C ) :   1.0532 B( 25-C , 26-H ) :   0.9533 B( 25-C , 27-H ) :   0.9612
B( 25-C , 28-C ) :   1.0754 B( 28-C , 29-H ) :   0.9742 B( 28-C , 30-H ) :   0.9746
B( 28-C , 31-H ) :   0.9700

Dispersion correction           -0.014177333
FINAL SINGLE POINT ENERGY     -1339.873072156256

DIPOLE MOMENT
-------------
                                X             Y             Z
Electronic contribution:     11.88416     -13.83822      28.15389
Nuclear contribution   :    -12.08719      14.24170     -28.74749
                        -----------------------------------------
Total Dipole Moment    :     -0.20303       0.40348      -0.59360
                        -----------------------------------------
Magnitude (a.u.)       :      0.74591
Magnitude (Debye)      :      1.89594

Rotational constants in cm-1:     0.017068     0.009921     0.006510
Rotational constants in MHz :   511.699621   297.411987   195.171827

                             ****ORCA TERMINATED NORMALLY****
TOTAL RUN TIME: 0 days 0 hours 0 minutes 22 seconds 122 msec
