                         Program Version 4.2.1 -  RELEASE  -
|  1> ! wB97X-D3 SP def2-SVP
|  2> %pal
|  3> nprocs 24
|  4> end
|  5>
|  6> * xyz 0 1
|  7> S 	 -136.098 	 67.5738 	 -62.9714
|  8> C 	 -137.205 	 68.8213 	 -63.3212
|  9> C 	 -137.761 	 69.5236 	 -62.2241
| 10> C 	 -137.216 	 68.9948 	 -60.9979
| 11> C 	 -136.271 	 68.0082 	 -61.265
| 12> H 	 -137.375 	 69.2219 	 -59.9366
| 13> C 	 -138.728 	 70.774 	 -62.352
| 14> H 	 -139.103 	 71.0638 	 -61.3441
| 15> H 	 -139.717 	 70.4241 	 -62.7607
| 16> C 	 -138.191 	 71.9903 	 -63.0879
| 17> H 	 -138.019 	 71.7187 	 -64.109
| 18> H 	 -138.991 	 72.6791 	 -63.2181
| 19> C 	 -136.862 	 72.545 	 -62.6317
| 20> H 	 -136.047 	 71.8217 	 -62.6427
| 21> H 	 -136.714 	 73.4389 	 -63.2696
| 22> H 	 -136.857 	 72.813 	 -61.5683
| 23> S 	 -135.014 	 65.6991 	 -60.6029
| 24> C 	 -134.228 	 65.5046 	 -59.0694
| 25> C 	 -134.39 	 66.6575 	 -58.351
| 26> C 	 -135.115 	 67.7319 	 -59.0051
| 27> C 	 -135.513 	 67.3426 	 -60.2582
| 28> H 	 -134.114 	 66.7068 	 -57.3107
| 29> C 	 -135.268 	 69.0451 	 -58.3385
| 30> H 	 -135.714 	 69.7191 	 -59.0892
| 31> H 	 -134.243 	 69.4158 	 -58.1989
| 32> C 	 -136.063 	 69.0128 	 -57.0274
| 33> H 	 -136.181 	 69.9799 	 -56.5959
| 34> H 	 -135.398 	 68.4694 	 -56.3533
| 35> C 	 -137.328 	 68.1549 	 -57.1096
| 36> H 	 -137.027 	 67.1685 	 -57.526
| 37> H 	 -138.017 	 68.5744 	 -57.8604
| 38> H 	 -137.798 	 68.0534 	 -56.0604
| 39> H 	 -137.595 	 69.0238 	 -64.3236
| 40> H 	 -133.827 	 64.6188 	 -58.6454
| 41> *
| 42>
| 43>                          ****END OF INPUT****

CARTESIAN COORDINATES (ANGSTROEM)
---------------------------------
  S    -136.098000   67.573800  -62.971400
  C    -137.205000   68.821300  -63.321200
  C    -137.761000   69.523600  -62.224100
  C    -137.216000   68.994800  -60.997900
  C    -136.271000   68.008200  -61.265000
  H    -137.375000   69.221900  -59.936600
  C    -138.728000   70.774000  -62.352000
  H    -139.103000   71.063800  -61.344100
  H    -139.717000   70.424100  -62.760700
  C    -138.191000   71.990300  -63.087900
  H    -138.019000   71.718700  -64.109000
  H    -138.991000   72.679100  -63.218100
  C    -136.862000   72.545000  -62.631700
  H    -136.047000   71.821700  -62.642700
  H    -136.714000   73.438900  -63.269600
  H    -136.857000   72.813000  -61.568300
  S    -135.014000   65.699100  -60.602900
  C    -134.228000   65.504600  -59.069400
  C    -134.390000   66.657500  -58.351000
  C    -135.115000   67.731900  -59.005100
  C    -135.513000   67.342600  -60.258200
  H    -134.114000   66.706800  -57.310700
  C    -135.268000   69.045100  -58.338500
  H    -135.714000   69.719100  -59.089200
  H    -134.243000   69.415800  -58.198900
  C    -136.063000   69.012800  -57.027400
  H    -136.181000   69.979900  -56.595900
  H    -135.398000   68.469400  -56.353300
  C    -137.328000   68.154900  -57.109600
  H    -137.027000   67.168500  -57.526000
  H    -138.017000   68.574400  -57.860400
  H    -137.798000   68.053400  -56.060400
  H    -137.595000   69.023800  -64.323600
  H    -133.827000   64.618800  -58.645400

 Total Charge           Charge          ....    0
 Multiplicity           Mult            ....    1
 Number of Electrons    NEL             ....  134
 Basis Dimension        Dim             ....  322

ORBITAL ENERGIES
----------------

  NO   OCC          E(Eh)            E(eV)
   0   2.0000     -88.974255     -2421.1126
   1   2.0000     -88.961505     -2420.7656
   2   2.0000     -10.327052      -281.0134
   3   2.0000     -10.322413      -280.8871
   4   2.0000     -10.314612      -280.6749
   5   2.0000     -10.313884      -280.6550
   6   2.0000     -10.312118      -280.6070
   7   2.0000     -10.302992      -280.3587
   8   2.0000     -10.299285      -280.2578
   9   2.0000     -10.298411      -280.2340
  10   2.0000     -10.290898      -280.0296
  11   2.0000     -10.290646      -280.0227
  12   2.0000     -10.286740      -279.9164
  13   2.0000     -10.286164      -279.9008
  14   2.0000     -10.281121      -279.7635
  15   2.0000     -10.276943      -279.6498
  16   2.0000      -8.089181      -220.1178
  17   2.0000      -8.076905      -219.7837
  18   2.0000      -6.047521      -164.5614
  19   2.0000      -6.043864      -164.4619
  20   2.0000      -6.039911      -164.3543
  21   2.0000      -6.035561      -164.2360
  22   2.0000      -6.031305      -164.1202
  23   2.0000      -6.027485      -164.0162
  24   2.0000      -1.011554       -27.5258
  25   2.0000      -0.984486       -26.7892
  26   2.0000      -0.917186       -24.9579
  27   2.0000      -0.909361       -24.7450
  28   2.0000      -0.874248       -23.7895
  29   2.0000      -0.855706       -23.2849
  30   2.0000      -0.843208       -22.9449
  31   2.0000      -0.810944       -22.0669
  32   2.0000      -0.783408       -21.3176
  33   2.0000      -0.773728       -21.0542
  34   2.0000      -0.708608       -19.2822
  35   2.0000      -0.703409       -19.1407
  36   2.0000      -0.695006       -18.9121
  37   2.0000      -0.665364       -18.1055
  38   2.0000      -0.638481       -17.3740
  39   2.0000      -0.612629       -16.6705
  40   2.0000      -0.594399       -16.1744
  41   2.0000      -0.569316       -15.4919
  42   2.0000      -0.556370       -15.1396
  43   2.0000      -0.552121       -15.0240
  44   2.0000      -0.546233       -14.8637
  45   2.0000      -0.532611       -14.4931
  46   2.0000      -0.520274       -14.1574
  47   2.0000      -0.511130       -13.9086
  48   2.0000      -0.500858       -13.6290
  49   2.0000      -0.496269       -13.5042
  50   2.0000      -0.492215       -13.3938
  51   2.0000      -0.482595       -13.1321
  52   2.0000      -0.474177       -12.9030
  53   2.0000      -0.465304       -12.6616
  54   2.0000      -0.457316       -12.4442
  55   2.0000      -0.448938       -12.2162
  56   2.0000      -0.445400       -12.1200
  57   2.0000      -0.440160       -11.9774
  58   2.0000      -0.437684       -11.9100
  59   2.0000      -0.430397       -11.7117
  60   2.0000      -0.417738       -11.3672
  61   2.0000      -0.408085       -11.1046
  62   2.0000      -0.405801       -11.0424
  63   2.0000      -0.362138        -9.8543
  64   2.0000      -0.337107        -9.1731
  65   2.0000      -0.326364        -8.8808
  66   2.0000      -0.280416        -7.6305
  67   0.0000       0.023146         0.6298
  68   0.0000       0.078678         2.1409
  69   0.0000       0.099253         2.7008
  70   0.0000       0.114317         3.1107
  71   0.0000       0.135561         3.6888

MULLIKEN ATOMIC CHARGES
-----------------------
   0 S :    0.140019
   1 C :   -0.114188
   2 C :   -0.090168
   3 C :   -0.001873
   4 C :   -0.145606
   5 H :    0.005531
   6 C :    0.042342
   7 H :    0.017877
   8 H :    0.036642
   9 C :   -0.036314
  10 H :    0.011010
  11 H :    0.018155
  12 C :   -0.041853
  13 H :    0.044811
  14 H :    0.043717
  15 H :    0.019859
  16 S :    0.084225
  17 C :   -0.059717
  18 C :   -0.040883
  19 C :   -0.108458
  20 C :   -0.118884
  21 H :    0.013077
  22 C :    0.050891
  23 H :    0.021486
  24 H :    0.043527
  25 C :   -0.043973
  26 H :    0.029880
  27 H :    0.016668
  28 C :   -0.092445
  29 H :    0.059148
  30 H :    0.042728
  31 H :    0.056470
  32 H :    0.049991
  33 H :    0.046305
Sum of atomic charges:   -0.0000000

LOEWDIN ATOMIC CHARGES
----------------------
   0 S :    0.423504
   1 C :   -0.215093
   2 C :   -0.059174
   3 C :   -0.062952
   4 C :   -0.186172
   5 H :    0.032994
   6 C :   -0.036703
   7 H :    0.028523
   8 H :    0.037333
   9 C :   -0.046922
  10 H :    0.021576
  11 H :    0.023380
  12 C :   -0.063759
  13 H :    0.029840
  14 H :    0.034302
  15 H :    0.021641
  16 S :    0.395135
  17 C :   -0.184457
  18 C :   -0.068904
  19 C :   -0.067681
  20 C :   -0.191866
  21 H :    0.025658
  22 C :   -0.037973
  23 H :    0.027739
  24 H :    0.039472
  25 C :   -0.039566
  26 H :    0.020877
  27 H :    0.021711
  28 C :   -0.072555
  29 H :    0.034224
  30 H :    0.021911
  31 H :    0.038740
  32 H :    0.027192
  33 H :    0.028023

  Mayer bond orders larger than 0.100000
B(  0-S ,  1-C ) :   1.1513 B(  0-S ,  4-C ) :   1.1381 B(  1-C ,  2-C ) :   1.6072
B(  1-C , 32-H ) :   0.9619 B(  2-C ,  3-C ) :   1.2308 B(  2-C ,  6-C ) :   1.0040
B(  3-C ,  4-C ) :   1.5705 B(  3-C ,  5-H ) :   0.9811 B(  4-C , 20-C ) :   1.0917
B(  6-C ,  7-H ) :   0.9461 B(  6-C ,  8-H ) :   0.9393 B(  6-C ,  9-C ) :   1.0795
B(  9-C , 10-H ) :   0.9482 B(  9-C , 11-H ) :   0.9503 B(  9-C , 12-C ) :   1.0734
B( 12-C , 13-H ) :   0.9700 B( 12-C , 14-H ) :   0.9725 B( 12-C , 15-H ) :   0.9763
B( 16-S , 17-C ) :   1.1335 B( 16-S , 20-C ) :   1.1267 B( 17-C , 18-C ) :   1.6311
B( 17-C , 33-H ) :   0.9729 B( 18-C , 19-C ) :   1.2177 B( 18-C , 21-H ) :   0.9860
B( 19-C , 20-C ) :   1.6010 B( 19-C , 22-C ) :   1.0371 B( 22-C , 23-H ) :   0.9308
B( 22-C , 24-H ) :   0.9338 B( 22-C , 25-C ) :   1.0596 B( 25-C , 26-H ) :   0.9581
B( 25-C , 27-H ) :   0.9505 B( 25-C , 28-C ) :   1.0766 B( 28-C , 29-H ) :   0.9617
B( 28-C , 30-H ) :   0.9718 B( 28-C , 31-H ) :   0.9709

Dispersion correction           -0.015373809
FINAL SINGLE POINT ENERGY     -1339.879461581704

DIPOLE MOMENT
-------------
                                X             Y             Z
Electronic contribution:      9.59484     -22.63293     -10.80356
Nuclear contribution   :     -9.81119      23.08839      11.16449
                        -----------------------------------------
Total Dipole Moment    :     -0.21635       0.45546       0.36093
                        -----------------------------------------
Magnitude (a.u.)       :      0.62010
Magnitude (Debye)      :      1.57616

Rotational constants in cm-1:     0.020382     0.009313     0.007078
Rotational constants in MHz :   611.028212   279.195687   212.183006

                             ****ORCA TERMINATED NORMALLY****
TOTAL RUN TIME: 0 days 0 hours 0 minutes 22 seconds 525 msec
