                         Program Version 4.2.1 -  RELEASE  -
|  1> ! wB97X-D3 SP def2-SVP
|  2> %pal
|  3> nprocs 24
|  4> end
|  5>
|  6> * xyz 0 1
|  7> S 	 -64.4413 	 14.1683 	 -75.859
|  8> C 	 -65.4643 	 13.8634 	 -74.4395
|  9> C 	 -64.6681 	 13.7701 	 -73.3132
| 10> C 	 -63.2993 	 14.0792 	 -73.6116
| 11> C 	 -62.9894 	 14.2816 	 -74.9501
| 12> H 	 -62.4691 	 14.1859 	 -72.8386
| 13> C 	 -65.0686 	 13.4227 	 -71.8843
| 14> H 	 -65.7252 	 14.2238 	 -71.6319
| 15> H 	 -64.2072 	 13.5986 	 -71.3279
| 16> C 	 -65.6035 	 12.0073 	 -71.5897
| 17> H 	 -65.9463 	 11.9567 	 -70.5608
| 18> H 	 -66.4532 	 11.7704 	 -72.295
| 19> C 	 -64.6341 	 10.9234 	 -71.9471
| 20> H 	 -65.0352 	 9.96346 	 -71.606
| 21> H 	 -64.6715 	 10.8574 	 -72.9922
| 22> H 	 -63.7212 	 11.0987 	 -71.4147
| 23> S 	 -60.1881 	 13.6142 	 -75.2511
| 24> C 	 -59.2566 	 14.5802 	 -76.3623
| 25> C 	 -60.0409 	 15.441 	 -77.0839
| 26> C 	 -61.4189 	 15.5045 	 -76.6015
| 27> C 	 -61.6906 	 14.5744 	 -75.5982
| 28> H 	 -59.6273 	 15.9844 	 -77.903
| 29> C 	 -62.4768 	 16.392 	 -77.1917
| 30> H 	 -63.2476 	 16.6469 	 -76.4213
| 31> H 	 -62.9977 	 15.8052 	 -77.9819
| 32> C 	 -62.0258 	 17.681 	 -77.841
| 33> H 	 -61.4057 	 17.4133 	 -78.7026
| 34> H 	 -61.3304 	 18.1718 	 -77.0989
| 35> C 	 -63.0805 	 18.7119 	 -78.2344
| 36> H 	 -62.5968 	 19.6638 	 -78.6158
| 37> H 	 -63.7248 	 19.0763 	 -77.429
| 38> H 	 -63.7787 	 18.3841 	 -78.9321
| 39> H 	 -66.4728 	 13.6046 	 -74.4167
| 40> H 	 -58.1898 	 14.4622 	 -76.4811
| 41> *
| 42>
| 43>                          ****END OF INPUT****

CARTESIAN COORDINATES (ANGSTROEM)
---------------------------------
  S    -64.441300   14.168300  -75.859000
  C    -65.464300   13.863400  -74.439500
  C    -64.668100   13.770100  -73.313200
  C    -63.299300   14.079200  -73.611600
  C    -62.989400   14.281600  -74.950100
  H    -62.469100   14.185900  -72.838600
  C    -65.068600   13.422700  -71.884300
  H    -65.725200   14.223800  -71.631900
  H    -64.207200   13.598600  -71.327900
  C    -65.603500   12.007300  -71.589700
  H    -65.946300   11.956700  -70.560800
  H    -66.453200   11.770400  -72.295000
  C    -64.634100   10.923400  -71.947100
  H    -65.035200    9.963460  -71.606000
  H    -64.671500   10.857400  -72.992200
  H    -63.721200   11.098700  -71.414700
  S    -60.188100   13.614200  -75.251100
  C    -59.256600   14.580200  -76.362300
  C    -60.040900   15.441000  -77.083900
  C    -61.418900   15.504500  -76.601500
  C    -61.690600   14.574400  -75.598200
  H    -59.627300   15.984400  -77.903000
  C    -62.476800   16.392000  -77.191700
  H    -63.247600   16.646900  -76.421300
  H    -62.997700   15.805200  -77.981900
  C    -62.025800   17.681000  -77.841000
  H    -61.405700   17.413300  -78.702600
  H    -61.330400   18.171800  -77.098900
  C    -63.080500   18.711900  -78.234400
  H    -62.596800   19.663800  -78.615800
  H    -63.724800   19.076300  -77.429000
  H    -63.778700   18.384100  -78.932100
  H    -66.472800   13.604600  -74.416700
  H    -58.189800   14.462200  -76.481100

 Total Charge           Charge          ....    0
 Multiplicity           Mult            ....    1
 Number of Electrons    NEL             ....  134
 Basis Dimension        Dim             ....  322

ORBITAL ENERGIES
----------------

  NO   OCC          E(Eh)            E(eV)
   0   2.0000     -88.966629     -2420.9051
   1   2.0000     -88.965587     -2420.8767
   2   2.0000     -10.333688      -281.1939
   3   2.0000     -10.330780      -281.1148
   4   2.0000     -10.319737      -280.8143
   5   2.0000     -10.312092      -280.6063
   6   2.0000     -10.308560      -280.5102
   7   2.0000     -10.301604      -280.3209
   8   2.0000     -10.296937      -280.1939
   9   2.0000     -10.295913      -280.1660
  10   2.0000     -10.291381      -280.0427
  11   2.0000     -10.288438      -279.9626
  12   2.0000     -10.287606      -279.9400
  13   2.0000     -10.284331      -279.8509
  14   2.0000     -10.277637      -279.6687
  15   2.0000     -10.267076      -279.3813
  16   2.0000      -8.080902      -219.8925
  17   2.0000      -8.079473      -219.8536
  18   2.0000      -6.039524      -164.3438
  19   2.0000      -6.038131      -164.3059
  20   2.0000      -6.035303      -164.2289
  21   2.0000      -6.034128      -164.1970
  22   2.0000      -6.031714      -164.1313
  23   2.0000      -6.030094      -164.0872
  24   2.0000      -1.002795       -27.2874
  25   2.0000      -0.980958       -26.6932
  26   2.0000      -0.916675       -24.9440
  27   2.0000      -0.909075       -24.7372
  28   2.0000      -0.870730       -23.6938
  29   2.0000      -0.846772       -23.0418
  30   2.0000      -0.846084       -23.0231
  31   2.0000      -0.813416       -22.1342
  32   2.0000      -0.787592       -21.4315
  33   2.0000      -0.777007       -21.1434
  34   2.0000      -0.706911       -19.2360
  35   2.0000      -0.697249       -18.9731
  36   2.0000      -0.696333       -18.9482
  37   2.0000      -0.652864       -17.7653
  38   2.0000      -0.633601       -17.2412
  39   2.0000      -0.609742       -16.5919
  40   2.0000      -0.596512       -16.2319
  41   2.0000      -0.582894       -15.8614
  42   2.0000      -0.567821       -15.4512
  43   2.0000      -0.555840       -15.1252
  44   2.0000      -0.551561       -15.0087
  45   2.0000      -0.525887       -14.3101
  46   2.0000      -0.516312       -14.0496
  47   2.0000      -0.514823       -14.0090
  48   2.0000      -0.507858       -13.8195
  49   2.0000      -0.493020       -13.4158
  50   2.0000      -0.485543       -13.2123
  51   2.0000      -0.478921       -13.0321
  52   2.0000      -0.470649       -12.8070
  53   2.0000      -0.466362       -12.6904
  54   2.0000      -0.462669       -12.5899
  55   2.0000      -0.452540       -12.3142
  56   2.0000      -0.442354       -12.0371
  57   2.0000      -0.437712       -11.9107
  58   2.0000      -0.425628       -11.5819
  59   2.0000      -0.421677       -11.4744
  60   2.0000      -0.415971       -11.3191
  61   2.0000      -0.413763       -11.2591
  62   2.0000      -0.410770       -11.1776
  63   2.0000      -0.346406        -9.4262
  64   2.0000      -0.329836        -8.9753
  65   2.0000      -0.326851        -8.8941
  66   2.0000      -0.294390        -8.0108
  67   0.0000       0.026175         0.7123
  68   0.0000       0.073596         2.0027
  69   0.0000       0.110341         3.0025
  70   0.0000       0.120754         3.2859
  71   0.0000       0.123938         3.3725

MULLIKEN ATOMIC CHARGES
-----------------------
   0 S :    0.102536
   1 C :   -0.097058
   2 C :   -0.143721
   3 C :   -0.001821
   4 C :   -0.174098
   5 H :    0.034570
   6 C :    0.132291
   7 H :    0.031521
   8 H :   -0.006045
   9 C :   -0.091190
  10 H :    0.034207
  11 H :    0.024427
  12 C :   -0.006564
  13 H :    0.022455
  14 H :    0.034269
  15 H :    0.028184
  16 S :    0.100419
  17 C :   -0.090444
  18 C :   -0.020136
  19 C :   -0.047945
  20 C :   -0.114312
  21 H :    0.015226
  22 C :    0.033832
  23 H :    0.045427
  24 H :    0.047537
  25 C :   -0.104702
  26 H :    0.031163
  27 H :    0.035813
  28 C :   -0.024995
  29 H :    0.040355
  30 H :    0.025809
  31 H :    0.017401
  32 H :    0.024142
  33 H :    0.061446
Sum of atomic charges:    0.0000000

LOEWDIN ATOMIC CHARGES
----------------------
   0 S :    0.428777
   1 C :   -0.188724
   2 C :   -0.060068
   3 C :   -0.077719
   4 C :   -0.203806
   5 H :    0.039326
   6 C :   -0.026961
   7 H :    0.033403
   8 H :    0.019894
   9 C :   -0.038815
  10 H :    0.022363
  11 H :    0.026803
  12 C :   -0.055282
  13 H :    0.028173
  14 H :    0.023941
  15 H :    0.021249
  16 S :    0.379675
  17 C :   -0.176385
  18 C :   -0.071056
  19 C :   -0.049574
  20 C :   -0.184113
  21 H :    0.028470
  22 C :   -0.051283
  23 H :    0.032592
  24 H :    0.035019
  25 C :   -0.049520
  26 H :    0.021967
  27 H :    0.029953
  28 C :   -0.066099
  29 H :    0.037404
  30 H :    0.027170
  31 H :    0.014790
  32 H :    0.017465
  33 H :    0.030969

  Mayer bond orders larger than 0.100000
B(  0-S ,  1-C ) :   1.1364 B(  0-S ,  4-C ) :   1.1656 B(  1-C ,  2-C ) :   1.5991
B(  1-C , 32-H ) :   0.9784 B(  2-C ,  3-C ) :   1.2588 B(  2-C ,  6-C ) :   0.9988
B(  3-C ,  4-C ) :   1.5690 B(  3-C ,  5-H ) :   0.9792 B(  4-C , 20-C ) :   1.0344
B(  6-C ,  7-H ) :   0.9334 B(  6-C ,  8-H ) :   0.9356 B(  6-C ,  9-C ) :   1.0688
B(  9-C , 10-H ) :   0.9569 B(  9-C , 11-H ) :   0.9623 B(  9-C , 12-C ) :   1.0748
B( 12-C , 13-H ) :   0.9697 B( 12-C , 14-H ) :   0.9754 B( 12-C , 15-H ) :   0.9770
B( 16-S , 17-C ) :   1.1536 B( 16-S , 20-C ) :   1.1124 B( 17-C , 18-C ) :   1.6214
B( 17-C , 33-H ) :   0.9651 B( 18-C , 19-C ) :   1.2130 B( 18-C , 21-H ) :   0.9935
B( 19-C , 20-C ) :   1.6043 B( 19-C , 22-C ) :   1.0510 B( 22-C , 23-H ) :   0.9298
B( 22-C , 24-H ) :   0.9231 B( 22-C , 25-C ) :   1.0739 B( 25-C , 26-H ) :   0.9432
B( 25-C , 27-H ) :   0.9599 B( 25-C , 28-C ) :   1.0902 B( 28-C , 29-H ) :   0.9723
B( 28-C , 30-H ) :   0.9710 B( 28-C , 31-H ) :   0.9732

Dispersion correction           -0.013952929
FINAL SINGLE POINT ENERGY     -1339.877466735067

DIPOLE MOMENT
-------------
                                X             Y             Z
Electronic contribution:      9.71070      -5.79641      -4.03669
Nuclear contribution   :     -9.83660       5.96355       4.12293
                        -----------------------------------------
Total Dipole Moment    :     -0.12590       0.16713       0.08623
                        -----------------------------------------
Magnitude (a.u.)       :      0.22632
Magnitude (Debye)      :      0.57526

Rotational constants in cm-1:     0.021689     0.007765     0.006102
Rotational constants in MHz :   650.225703   232.799836   182.927812

                             ****ORCA TERMINATED NORMALLY****
TOTAL RUN TIME: 0 days 0 hours 0 minutes 21 seconds 37 msec
