                         Program Version 4.2.1 -  RELEASE  -
|  1> ! wB97X-D3 SP def2-SVP
|  2> %pal
|  3> nprocs 24
|  4> end
|  5>
|  6> * xyz 0 1
|  7> S 	 -61.2367 	 9.96984 	 -96.4973
|  8> C 	 -60.8201 	 11.6743 	 -96.1369
|  9> C 	 -60.041 	 12.2542 	 -97.0956
| 10> C 	 -59.5596 	 11.2446 	 -98.0315
| 11> C 	 -60.1895 	 10.022 	 -97.8936
| 12> H 	 -58.7723 	 11.3801 	 -98.7748
| 13> C 	 -59.535 	 13.7148 	 -97.0909
| 14> H 	 -60.0888 	 14.2326 	 -96.3048
| 15> H 	 -59.7586 	 14.204 	 -98.0153
| 16> C 	 -58.0389 	 13.8399 	 -96.7576
| 17> H 	 -57.5139 	 13.1774 	 -97.4611
| 18> H 	 -57.6449 	 14.8508 	 -96.9305
| 19> C 	 -57.7001 	 13.5062 	 -95.2851
| 20> H 	 -57.9622 	 12.4585 	 -95.0491
| 21> H 	 -56.6991 	 13.4621 	 -95.2426
| 22> H 	 -58.2457 	 14.1803 	 -94.5555
| 23> S 	 -58.9323 	 7.61437 	 -97.853
| 24> C 	 -58.3968 	 6.90541 	 -99.3476
| 25> C 	 -59.0558 	 7.50637 	 -100.369
| 26> C 	 -59.799 	 8.63762 	 -100.053
| 27> C 	 -59.7804 	 8.84145 	 -98.6885
| 28> H 	 -58.8572 	 7.08901 	 -101.313
| 29> C 	 -60.4045 	 9.58569 	 -101.128
| 30> H 	 -60.3028 	 9.16374 	 -102.111
| 31> H 	 -59.829 	 10.4943 	 -101.286
| 32> C 	 -61.8825 	 9.81134 	 -100.966
| 33> H 	 -62.0862 	 10.1802 	 -99.9339
| 34> H 	 -62.2518 	 8.79467 	 -100.886
| 35> C 	 -62.4997 	 10.6984 	 -102.026
| 36> H 	 -62.0593 	 11.6919 	 -101.961
| 37> H 	 -63.5144 	 10.9737 	 -101.83
| 38> H 	 -62.3317 	 10.3685 	 -103.024
| 39> H 	 -61.1684 	 12.3174 	 -95.364
| 40> H 	 -57.6921 	 6.04136 	 -99.4398
| 41> *
| 42>
| 43>                          ****END OF INPUT****

CARTESIAN COORDINATES (ANGSTROEM)
---------------------------------
  S    -61.236700    9.969840  -96.497300
  C    -60.820100   11.674300  -96.136900
  C    -60.041000   12.254200  -97.095600
  C    -59.559600   11.244600  -98.031500
  C    -60.189500   10.022000  -97.893600
  H    -58.772300   11.380100  -98.774800
  C    -59.535000   13.714800  -97.090900
  H    -60.088800   14.232600  -96.304800
  H    -59.758600   14.204000  -98.015300
  C    -58.038900   13.839900  -96.757600
  H    -57.513900   13.177400  -97.461100
  H    -57.644900   14.850800  -96.930500
  C    -57.700100   13.506200  -95.285100
  H    -57.962200   12.458500  -95.049100
  H    -56.699100   13.462100  -95.242600
  H    -58.245700   14.180300  -94.555500
  S    -58.932300    7.614370  -97.853000
  C    -58.396800    6.905410  -99.347600
  C    -59.055800    7.506370  -100.369000
  C    -59.799000    8.637620  -100.053000
  C    -59.780400    8.841450  -98.688500
  H    -58.857200    7.089010  -101.313000
  C    -60.404500    9.585690  -101.128000
  H    -60.302800    9.163740  -102.111000
  H    -59.829000   10.494300  -101.286000
  C    -61.882500    9.811340  -100.966000
  H    -62.086200   10.180200  -99.933900
  H    -62.251800    8.794670  -100.886000
  C    -62.499700   10.698400  -102.026000
  H    -62.059300   11.691900  -101.961000
  H    -63.514400   10.973700  -101.830000
  H    -62.331700   10.368500  -103.024000
  H    -61.168400   12.317400  -95.364000
  H    -57.692100    6.041360  -99.439800

 Total Charge           Charge          ....    0
 Multiplicity           Mult            ....    1
 Number of Electrons    NEL             ....  134
 Basis Dimension        Dim             ....  322

ORBITAL ENERGIES
----------------

  NO   OCC          E(Eh)            E(eV)
   0   2.0000     -88.969978     -2420.9962
   1   2.0000     -88.963322     -2420.8151
   2   2.0000     -10.329613      -281.0831
   3   2.0000     -10.322983      -280.9027
   4   2.0000     -10.315054      -280.6869
   5   2.0000     -10.312946      -280.6295
   6   2.0000     -10.302794      -280.3533
   7   2.0000     -10.301042      -280.3056
   8   2.0000     -10.295317      -280.1498
   9   2.0000     -10.294077      -280.1161
  10   2.0000     -10.289487      -279.9912
  11   2.0000     -10.287700      -279.9426
  12   2.0000     -10.283560      -279.8299
  13   2.0000     -10.277515      -279.6654
  14   2.0000     -10.273128      -279.5460
  15   2.0000     -10.270757      -279.4815
  16   2.0000      -8.083796      -219.9713
  17   2.0000      -8.079254      -219.8477
  18   2.0000      -6.042489      -164.4245
  19   2.0000      -6.038548      -164.3172
  20   2.0000      -6.037580      -164.2909
  21   2.0000      -6.034295      -164.2015
  22   2.0000      -6.033510      -164.1801
  23   2.0000      -6.030210      -164.0904
  24   2.0000      -1.012806       -27.5598
  25   2.0000      -0.984905       -26.8006
  26   2.0000      -0.910732       -24.7823
  27   2.0000      -0.910124       -24.7657
  28   2.0000      -0.869201       -23.6522
  29   2.0000      -0.851422       -23.1684
  30   2.0000      -0.842780       -22.9332
  31   2.0000      -0.814082       -22.1523
  32   2.0000      -0.787037       -21.4164
  33   2.0000      -0.779348       -21.2071
  34   2.0000      -0.709015       -19.2933
  35   2.0000      -0.696323       -18.9479
  36   2.0000      -0.689818       -18.7709
  37   2.0000      -0.660432       -17.9713
  38   2.0000      -0.635300       -17.2874
  39   2.0000      -0.619184       -16.8489
  40   2.0000      -0.600396       -16.3376
  41   2.0000      -0.569348       -15.4928
  42   2.0000      -0.560632       -15.2556
  43   2.0000      -0.557178       -15.1616
  44   2.0000      -0.539949       -14.6928
  45   2.0000      -0.522547       -14.2192
  46   2.0000      -0.519354       -14.1323
  47   2.0000      -0.514040       -13.9877
  48   2.0000      -0.503208       -13.6930
  49   2.0000      -0.495493       -13.4830
  50   2.0000      -0.488010       -13.2794
  51   2.0000      -0.483206       -13.1487
  52   2.0000      -0.468900       -12.7594
  53   2.0000      -0.466378       -12.6908
  54   2.0000      -0.457755       -12.4562
  55   2.0000      -0.446879       -12.1602
  56   2.0000      -0.443578       -12.0704
  57   2.0000      -0.436058       -11.8657
  58   2.0000      -0.430329       -11.7099
  59   2.0000      -0.426665       -11.6101
  60   2.0000      -0.425116       -11.5680
  61   2.0000      -0.416827       -11.3424
  62   2.0000      -0.405115       -11.0237
  63   2.0000      -0.343973        -9.3600
  64   2.0000      -0.331636        -9.0243
  65   2.0000      -0.329616        -8.9693
  66   2.0000      -0.301038        -8.1917
  67   0.0000       0.039396         1.0720
  68   0.0000       0.066430         1.8076
  69   0.0000       0.111167         3.0250
  70   0.0000       0.124008         3.3744
  71   0.0000       0.135257         3.6805

MULLIKEN ATOMIC CHARGES
-----------------------
   0 S :    0.113509
   1 C :   -0.100541
   2 C :   -0.101182
   3 C :    0.022591
   4 C :   -0.161229
   5 H :    0.024101
   6 C :    0.100375
   7 H :    0.008155
   8 H :    0.031843
   9 C :   -0.103283
  10 H :    0.028511
  11 H :    0.033064
  12 C :   -0.021778
  13 H :    0.032470
  14 H :    0.008206
  15 H :    0.044548
  16 S :    0.118242
  17 C :   -0.121857
  18 C :   -0.025691
  19 C :   -0.005047
  20 C :   -0.176687
  21 H :   -0.005485
  22 C :    0.106819
  23 H :   -0.006510
  24 H :    0.019686
  25 C :   -0.099225
  26 H :    0.037407
  27 H :    0.022774
  28 C :    0.009653
  29 H :    0.013900
  30 H :    0.027567
  31 H :    0.023900
  32 H :    0.029206
  33 H :    0.071985
Sum of atomic charges:    0.0000000

LOEWDIN ATOMIC CHARGES
----------------------
   0 S :    0.386118
   1 C :   -0.183331
   2 C :   -0.056543
   3 C :   -0.058674
   4 C :   -0.198319
   5 H :    0.031619
   6 C :   -0.025778
   7 H :    0.025769
   8 H :    0.028621
   9 C :   -0.039309
  10 H :    0.023037
  11 H :    0.024774
  12 C :   -0.060493
  13 H :    0.030037
  14 H :    0.010010
  15 H :    0.033184
  16 S :    0.429726
  17 C :   -0.195419
  18 C :   -0.071235
  19 C :   -0.057340
  20 C :   -0.207405
  21 H :    0.023965
  22 C :   -0.027015
  23 H :    0.024497
  24 H :    0.025567
  25 C :   -0.046659
  26 H :    0.027560
  27 H :    0.023632
  28 C :   -0.062201
  29 H :    0.028774
  30 H :    0.027754
  31 H :    0.020520
  32 H :    0.023510
  33 H :    0.041047

  Mayer bond orders larger than 0.100000
B(  0-S ,  1-C ) :   1.1102 B(  0-S ,  4-C ) :   1.1277 B(  1-C ,  2-C ) :   1.6759
B(  1-C , 32-H ) :   0.9595 B(  2-C ,  3-C ) :   1.1873 B(  2-C ,  6-C ) :   1.0246
B(  3-C ,  4-C ) :   1.6299 B(  3-C ,  5-H ) :   0.9849 B(  4-C , 20-C ) :   1.0032
B(  6-C ,  7-H ) :   0.9406 B(  6-C ,  8-H ) :   0.9393 B(  6-C ,  9-C ) :   1.0663
B(  9-C , 10-H ) :   0.9568 B(  9-C , 11-H ) :   0.9563 B(  9-C , 12-C ) :   1.0769
B( 12-C , 13-H ) :   0.9720 B( 12-C , 14-H ) :   0.9698 B( 12-C , 15-H ) :   0.9740
B( 16-S , 17-C ) :   1.1580 B( 16-S , 20-C ) :   1.1776 B( 17-C , 18-C ) :   1.5996
B( 17-C , 33-H ) :   0.9632 B( 18-C , 19-C ) :   1.2571 B( 18-C , 21-H ) :   1.0009
B( 19-C , 20-C ) :   1.5774 B( 19-C , 22-C ) :   1.0274 B( 22-C , 23-H ) :   0.9306
B( 22-C , 24-H ) :   0.9334 B( 22-C , 25-C ) :   1.0516 B( 25-C , 26-H ) :   0.9552
B( 25-C , 27-H ) :   0.9536 B( 25-C , 28-C ) :   1.0854 B( 28-C , 29-H ) :   0.9657
B( 28-C , 30-H ) :   0.9697 B( 28-C , 31-H ) :   0.9738

Dispersion correction           -0.014763027
FINAL SINGLE POINT ENERGY     -1339.872435749113

DIPOLE MOMENT
-------------
                                X             Y             Z
Electronic contribution:     -0.98090     -19.98970       9.51203
Nuclear contribution   :      1.31900      20.43540      -9.91932
                        -----------------------------------------
Total Dipole Moment    :      0.33809       0.44570      -0.40729
                        -----------------------------------------
Magnitude (a.u.)       :      0.69199
Magnitude (Debye)      :      1.75889

Rotational constants in cm-1:     0.017542     0.009024     0.007534
Rotational constants in MHz :   525.885304   270.518411   225.878140

                             ****ORCA TERMINATED NORMALLY****
TOTAL RUN TIME: 0 days 0 hours 0 minutes 21 seconds 992 msec
