                         Program Version 4.2.1 -  RELEASE  -
|  1> ! wB97X-D3 SP def2-SVP
|  2> %pal
|  3> nprocs 24
|  4> end
|  5>
|  6> * xyz 0 1
|  7> S 	 -100.995 	 7.40595 	 -123.242
|  8> C 	 -101.129 	 6.65451 	 -124.865
|  9> C 	 -102.12 	 5.74674 	 -125.012
| 10> C 	 -102.838 	 5.64355 	 -123.741
| 11> C 	 -102.366 	 6.49465 	 -122.725
| 12> H 	 -103.629 	 4.91768 	 -123.494
| 13> C 	 -102.342 	 4.82769 	 -126.209
| 14> H 	 -101.93 	 5.34071 	 -127.09
| 15> H 	 -103.425 	 4.65844 	 -126.378
| 16> C 	 -101.666 	 3.51229 	 -126.049
| 17> H 	 -100.59 	 3.60506 	 -126.212
| 18> H 	 -101.795 	 3.30648 	 -124.955
| 19> C 	 -102.19 	 2.38644 	 -126.993
| 20> H 	 -103.27 	 2.52784 	 -127.039
| 21> H 	 -101.752 	 2.28237 	 -127.978
| 22> H 	 -102.03 	 1.4199 	 -126.56
| 23> S 	 -104.668 	 6.22558 	 -121.273
| 24> C 	 -104.725 	 6.37727 	 -119.52
| 25> C 	 -103.519 	 6.9372 	 -119.151
| 26> C 	 -102.543 	 7.1143 	 -120.18
| 27> C 	 -102.974 	 6.61627 	 -121.419
| 28> H 	 -103.376 	 7.27122 	 -118.17
| 29> C 	 -101.157 	 7.67124 	 -119.827
| 30> H 	 -101.27 	 8.69084 	 -120.2
| 31> H 	 -100.383 	 7.26674 	 -120.493
| 32> C 	 -100.687 	 7.70171 	 -118.387
| 33> H 	 -100.625 	 6.69526 	 -118.014
| 34> H 	 -101.384 	 8.28774 	 -117.751
| 35> C 	 -99.271 	 8.39139 	 -118.281
| 36> H 	 -99.1669 	 9.2657 	 -117.63
| 37> H 	 -99.0038 	 8.70278 	 -119.279
| 38> H 	 -98.6474 	 7.59831 	 -117.861
| 39> H 	 -100.331 	 6.8191 	 -125.494
| 40> H 	 -105.58 	 6.2221 	 -118.911
| 41> *
| 42>
| 43>                          ****END OF INPUT****

CARTESIAN COORDINATES (ANGSTROEM)
---------------------------------
  S    -100.995000    7.405950  -123.242000
  C    -101.129000    6.654510  -124.865000
  C    -102.120000    5.746740  -125.012000
  C    -102.838000    5.643550  -123.741000
  C    -102.366000    6.494650  -122.725000
  H    -103.629000    4.917680  -123.494000
  C    -102.342000    4.827690  -126.209000
  H    -101.930000    5.340710  -127.090000
  H    -103.425000    4.658440  -126.378000
  C    -101.666000    3.512290  -126.049000
  H    -100.590000    3.605060  -126.212000
  H    -101.795000    3.306480  -124.955000
  C    -102.190000    2.386440  -126.993000
  H    -103.270000    2.527840  -127.039000
  H    -101.752000    2.282370  -127.978000
  H    -102.030000    1.419900  -126.560000
  S    -104.668000    6.225580  -121.273000
  C    -104.725000    6.377270  -119.520000
  C    -103.519000    6.937200  -119.151000
  C    -102.543000    7.114300  -120.180000
  C    -102.974000    6.616270  -121.419000
  H    -103.376000    7.271220  -118.170000
  C    -101.157000    7.671240  -119.827000
  H    -101.270000    8.690840  -120.200000
  H    -100.383000    7.266740  -120.493000
  C    -100.687000    7.701710  -118.387000
  H    -100.625000    6.695260  -118.014000
  H    -101.384000    8.287740  -117.751000
  C    -99.271000    8.391390  -118.281000
  H    -99.166900    9.265700  -117.630000
  H    -99.003800    8.702780  -119.279000
  H    -98.647400    7.598310  -117.861000
  H    -100.331000    6.819100  -125.494000
  H    -105.580000    6.222100  -118.911000

 Total Charge           Charge          ....    0
 Multiplicity           Mult            ....    1
 Number of Electrons    NEL             ....  134
 Basis Dimension        Dim             ....  322

ORBITAL ENERGIES
----------------

  NO   OCC          E(Eh)            E(eV)
   0   2.0000     -88.968391     -2420.9530
   1   2.0000     -88.961122     -2420.7552
   2   2.0000     -10.332531      -281.1625
   3   2.0000     -10.327801      -281.0337
   4   2.0000     -10.316634      -280.7299
   5   2.0000     -10.310144      -280.5533
   6   2.0000     -10.306563      -280.4558
   7   2.0000     -10.305072      -280.4153
   8   2.0000     -10.298702      -280.2419
   9   2.0000     -10.295077      -280.1433
  10   2.0000     -10.293047      -280.0880
  11   2.0000     -10.290381      -280.0155
  12   2.0000     -10.288495      -279.9642
  13   2.0000     -10.287860      -279.9469
  14   2.0000     -10.280214      -279.7388
  15   2.0000     -10.278459      -279.6911
  16   2.0000      -8.082746      -219.9427
  17   2.0000      -8.075704      -219.7511
  18   2.0000      -6.041294      -164.3920
  19   2.0000      -6.037471      -164.2879
  20   2.0000      -6.034296      -164.2015
  21   2.0000      -6.033345      -164.1757
  22   2.0000      -6.030181      -164.0896
  23   2.0000      -6.026420      -163.9872
  24   2.0000      -1.006071       -27.3766
  25   2.0000      -0.982701       -26.7407
  26   2.0000      -0.917878       -24.9767
  27   2.0000      -0.909048       -24.7365
  28   2.0000      -0.872678       -23.7468
  29   2.0000      -0.849959       -23.1286
  30   2.0000      -0.841303       -22.8930
  31   2.0000      -0.810449       -22.0534
  32   2.0000      -0.786732       -21.4081
  33   2.0000      -0.773308       -21.0428
  34   2.0000      -0.709420       -19.3043
  35   2.0000      -0.704485       -19.1700
  36   2.0000      -0.696688       -18.9579
  37   2.0000      -0.664832       -18.0910
  38   2.0000      -0.637677       -17.3521
  39   2.0000      -0.615251       -16.7418
  40   2.0000      -0.600991       -16.3538
  41   2.0000      -0.576128       -15.6772
  42   2.0000      -0.567572       -15.4444
  43   2.0000      -0.564934       -15.3726
  44   2.0000      -0.533285       -14.5114
  45   2.0000      -0.520546       -14.1648
  46   2.0000      -0.516705       -14.0603
  47   2.0000      -0.513007       -13.9596
  48   2.0000      -0.508953       -13.8493
  49   2.0000      -0.507483       -13.8093
  50   2.0000      -0.485824       -13.2200
  51   2.0000      -0.478680       -13.0255
  52   2.0000      -0.470442       -12.8014
  53   2.0000      -0.465647       -12.6709
  54   2.0000      -0.460116       -12.5204
  55   2.0000      -0.454158       -12.3583
  56   2.0000      -0.445100       -12.1118
  57   2.0000      -0.440465       -11.9857
  58   2.0000      -0.433826       -11.8050
  59   2.0000      -0.425614       -11.5816
  60   2.0000      -0.418001       -11.3744
  61   2.0000      -0.413418       -11.2497
  62   2.0000      -0.406258       -11.0548
  63   2.0000      -0.359834        -9.7916
  64   2.0000      -0.333701        -9.0805
  65   2.0000      -0.325177        -8.8485
  66   2.0000      -0.282948        -7.6994
  67   0.0000       0.019183         0.5220
  68   0.0000       0.087390         2.3780
  69   0.0000       0.104786         2.8514
  70   0.0000       0.123146         3.3510
  71   0.0000       0.128595         3.4993

MULLIKEN ATOMIC CHARGES
-----------------------
   0 S :    0.088732
   1 C :   -0.105622
   2 C :   -0.051528
   3 C :   -0.043652
   4 C :   -0.119340
   5 H :    0.029626
   6 C :    0.077160
   7 H :    0.025587
   8 H :    0.032323
   9 C :   -0.094669
  10 H :    0.028454
  11 H :    0.039179
  12 C :   -0.026519
  13 H :    0.023873
  14 H :    0.039498
  15 H :    0.027033
  16 S :    0.082181
  17 C :   -0.069382
  18 C :   -0.024293
  19 C :   -0.055502
  20 C :   -0.122709
  21 H :   -0.005810
  22 C :    0.019549
  23 H :    0.037568
  24 H :    0.035210
  25 C :   -0.082270
  26 H :    0.037194
  27 H :    0.040710
  28 C :   -0.042542
  29 H :    0.038891
  30 H :    0.031032
  31 H :    0.039885
  32 H :    0.019092
  33 H :    0.051061
Sum of atomic charges:   -0.0000000

LOEWDIN ATOMIC CHARGES
----------------------
   0 S :    0.397504
   1 C :   -0.164945
   2 C :   -0.052887
   3 C :   -0.075251
   4 C :   -0.195248
   5 H :    0.027924
   6 C :   -0.031702
   7 H :    0.031858
   8 H :    0.033382
   9 C :   -0.045984
  10 H :    0.024622
  11 H :    0.031758
  12 C :   -0.064571
  13 H :    0.024221
  14 H :    0.027194
  15 H :    0.026498
  16 S :    0.409879
  17 C :   -0.177244
  18 C :   -0.068243
  19 C :   -0.060250
  20 C :   -0.196126
  21 H :    0.019091
  22 C :   -0.047071
  23 H :    0.036355
  24 H :    0.024072
  25 C :   -0.039403
  26 H :    0.022699
  27 H :    0.026192
  28 C :   -0.061279
  29 H :    0.027505
  30 H :    0.023496
  31 H :    0.031510
  32 H :    0.007037
  33 H :    0.027408

  Mayer bond orders larger than 0.100000
B(  0-S ,  1-C ) :   1.1179 B(  0-S ,  4-C ) :   1.1371 B(  1-C ,  2-C ) :   1.6443
B(  1-C , 32-H ) :   0.9753 B(  2-C ,  3-C ) :   1.2076 B(  2-C ,  6-C ) :   1.0334
B(  3-C ,  4-C ) :   1.5632 B(  3-C ,  5-H ) :   0.9815 B(  4-C , 20-C ) :   1.1004
B(  6-C ,  7-H ) :   0.9344 B(  6-C ,  8-H ) :   0.9351 B(  6-C ,  9-C ) :   1.0673
B(  9-C , 10-H ) :   0.9519 B(  9-C , 11-H ) :   0.9610 B(  9-C , 12-C ) :   1.0677
B( 12-C , 13-H ) :   0.9769 B( 12-C , 14-H ) :   0.9766 B( 12-C , 15-H ) :   0.9740
B( 16-S , 17-C ) :   1.1487 B( 16-S , 20-C ) :   1.1473 B( 17-C , 18-C ) :   1.5671
B( 17-C , 20-C ) :   0.1003 B( 17-C , 33-H ) :   0.9765 B( 18-C , 19-C ) :   1.2847
B( 18-C , 21-H ) :   0.9925 B( 19-C , 20-C ) :   1.5353 B( 19-C , 22-C ) :   1.0170
B( 22-C , 23-H ) :   0.9200 B( 22-C , 24-H ) :   0.9343 B( 22-C , 25-C ) :   1.0950
B( 25-C , 26-H ) :   0.9665 B( 25-C , 27-H ) :   0.9453 B( 25-C , 28-C ) :   1.0551
B( 28-C , 29-H ) :   0.9792 B( 28-C , 30-H ) :   0.9802 B( 28-C , 31-H ) :   0.9784

Dispersion correction           -0.013182467
FINAL SINGLE POINT ENERGY     -1339.874511028179

DIPOLE MOMENT
-------------
                                X             Y             Z
Electronic contribution:    -11.39081       7.77120       1.97187
Nuclear contribution   :     11.66355      -7.95489      -1.89300
                        -----------------------------------------
Total Dipole Moment    :      0.27274      -0.18369       0.07887
                        -----------------------------------------
Magnitude (a.u.)       :      0.33816
Magnitude (Debye)      :      0.85952

Rotational constants in cm-1:     0.021865     0.007066     0.005833
Rotational constants in MHz :   655.499473   211.826944   174.859691

                             ****ORCA TERMINATED NORMALLY****
TOTAL RUN TIME: 0 days 0 hours 0 minutes 20 seconds 573 msec
