                         Program Version 4.2.1 -  RELEASE  -
|  1> ! wB97X-D3 SP def2-SVP
|  2> %pal
|  3> nprocs 24
|  4> end
|  5>
|  6> * xyz 0 1
|  7> S 	 30.8516 	 -37.4388 	 -127.678
|  8> C 	 31.1607 	 -36.4028 	 -126.241
|  9> C 	 31.7664 	 -35.2264 	 -126.494
| 10> C 	 31.7076 	 -34.9718 	 -127.904
| 11> C 	 31.2279 	 -36.0672 	 -128.646
| 12> H 	 31.9487 	 -34.0825 	 -128.401
| 13> C 	 32.4346 	 -34.34 	 -125.427
| 14> H 	 31.8979 	 -34.4687 	 -124.502
| 15> H 	 32.3195 	 -33.2677 	 -125.706
| 16> C 	 33.936 	 -34.7789 	 -125.256
| 17> H 	 34.4615 	 -34.1352 	 -124.606
| 18> H 	 34.0207 	 -35.7838 	 -124.924
| 19> C 	 34.6903 	 -34.7953 	 -126.611
| 20> H 	 35.5484 	 -35.4457 	 -126.43
| 21> H 	 34.1726 	 -35.1049 	 -127.46
| 22> H 	 35.1082 	 -33.7836 	 -126.809
| 23> S 	 29.1658 	 -36.4851 	 -130.383
| 24> C 	 29.416 	 -36.2787 	 -132.161
| 25> C 	 30.6316 	 -35.8355 	 -132.466
| 26> C 	 31.4345 	 -35.6266 	 -131.272
| 27> C 	 30.768 	 -35.9849 	 -130.054
| 28> H 	 30.8531 	 -35.8275 	 -133.552
| 29> C 	 32.8298 	 -35.0536 	 -131.31
| 30> H 	 33.1318 	 -34.7814 	 -130.286
| 31> H 	 32.6294 	 -34.1218 	 -131.823
| 32> C 	 33.9131 	 -35.9106 	 -131.982
| 33> H 	 33.6028 	 -36.163 	 -132.994
| 34> H 	 34.0393 	 -36.8366 	 -131.432
| 35> C 	 35.2819 	 -35.2973 	 -132.141
| 36> H 	 35.1363 	 -34.3753 	 -132.631
| 37> H 	 35.8401 	 -35.9801 	 -132.805
| 38> H 	 35.929 	 -35.1264 	 -131.228
| 39> H 	 31.1361 	 -36.8307 	 -125.204
| 40> H 	 28.6751 	 -36.5071 	 -132.917
| 41> *
| 42>
| 43>                          ****END OF INPUT****

CARTESIAN COORDINATES (ANGSTROEM)
---------------------------------
  S     30.851600  -37.438800  -127.678000
  C     31.160700  -36.402800  -126.241000
  C     31.766400  -35.226400  -126.494000
  C     31.707600  -34.971800  -127.904000
  C     31.227900  -36.067200  -128.646000
  H     31.948700  -34.082500  -128.401000
  C     32.434600  -34.340000  -125.427000
  H     31.897900  -34.468700  -124.502000
  H     32.319500  -33.267700  -125.706000
  C     33.936000  -34.778900  -125.256000
  H     34.461500  -34.135200  -124.606000
  H     34.020700  -35.783800  -124.924000
  C     34.690300  -34.795300  -126.611000
  H     35.548400  -35.445700  -126.430000
  H     34.172600  -35.104900  -127.460000
  H     35.108200  -33.783600  -126.809000
  S     29.165800  -36.485100  -130.383000
  C     29.416000  -36.278700  -132.161000
  C     30.631600  -35.835500  -132.466000
  C     31.434500  -35.626600  -131.272000
  C     30.768000  -35.984900  -130.054000
  H     30.853100  -35.827500  -133.552000
  C     32.829800  -35.053600  -131.310000
  H     33.131800  -34.781400  -130.286000
  H     32.629400  -34.121800  -131.823000
  C     33.913100  -35.910600  -131.982000
  H     33.602800  -36.163000  -132.994000
  H     34.039300  -36.836600  -131.432000
  C     35.281900  -35.297300  -132.141000
  H     35.136300  -34.375300  -132.631000
  H     35.840100  -35.980100  -132.805000
  H     35.929000  -35.126400  -131.228000
  H     31.136100  -36.830700  -125.204000
  H     28.675100  -36.507100  -132.917000

 Total Charge           Charge          ....    0
 Multiplicity           Mult            ....    1
 Number of Electrons    NEL             ....  134
 Basis Dimension        Dim             ....  322

ORBITAL ENERGIES
----------------

  NO   OCC          E(Eh)            E(eV)
   0   2.0000     -88.970183     -2421.0018
   1   2.0000     -88.960600     -2420.7410
   2   2.0000     -10.331658      -281.1387
   3   2.0000     -10.327509      -281.0258
   4   2.0000     -10.315866      -280.7090
   5   2.0000     -10.313048      -280.6323
   6   2.0000     -10.307436      -280.4796
   7   2.0000     -10.302613      -280.3483
   8   2.0000     -10.301594      -280.3206
   9   2.0000     -10.294649      -280.1317
  10   2.0000     -10.294643      -280.1315
  11   2.0000     -10.286907      -279.9210
  12   2.0000     -10.285791      -279.8906
  13   2.0000     -10.281842      -279.7832
  14   2.0000     -10.276125      -279.6276
  15   2.0000     -10.270919      -279.4859
  16   2.0000      -8.084760      -219.9975
  17   2.0000      -8.075371      -219.7420
  18   2.0000      -6.043244      -164.4450
  19   2.0000      -6.039577      -164.3452
  20   2.0000      -6.035251      -164.2275
  21   2.0000      -6.033924      -164.1914
  22   2.0000      -6.029892      -164.0817
  23   2.0000      -6.026036      -163.9768
  24   2.0000      -1.005402       -27.3584
  25   2.0000      -0.981783       -26.7157
  26   2.0000      -0.911668       -24.8077
  27   2.0000      -0.906540       -24.6682
  28   2.0000      -0.871151       -23.7052
  29   2.0000      -0.848284       -23.0830
  30   2.0000      -0.845716       -23.0131
  31   2.0000      -0.818820       -22.2812
  32   2.0000      -0.785410       -21.3721
  33   2.0000      -0.763502       -20.7759
  34   2.0000      -0.704363       -19.1667
  35   2.0000      -0.701908       -19.0999
  36   2.0000      -0.690880       -18.7998
  37   2.0000      -0.653668       -17.7872
  38   2.0000      -0.636661       -17.3244
  39   2.0000      -0.616998       -16.7894
  40   2.0000      -0.589316       -16.0361
  41   2.0000      -0.577904       -15.7256
  42   2.0000      -0.565549       -15.3894
  43   2.0000      -0.550321       -14.9750
  44   2.0000      -0.546168       -14.8620
  45   2.0000      -0.528350       -14.3771
  46   2.0000      -0.518457       -14.1079
  47   2.0000      -0.510508       -13.8916
  48   2.0000      -0.500658       -13.6236
  49   2.0000      -0.491183       -13.3658
  50   2.0000      -0.484512       -13.1842
  51   2.0000      -0.476956       -12.9786
  52   2.0000      -0.471789       -12.8380
  53   2.0000      -0.464039       -12.6271
  54   2.0000      -0.456290       -12.4163
  55   2.0000      -0.449218       -12.2238
  56   2.0000      -0.446438       -12.1482
  57   2.0000      -0.432264       -11.7625
  58   2.0000      -0.431049       -11.7294
  59   2.0000      -0.430286       -11.7087
  60   2.0000      -0.423023       -11.5110
  61   2.0000      -0.420666       -11.4469
  62   2.0000      -0.409747       -11.1498
  63   2.0000      -0.351259        -9.5582
  64   2.0000      -0.336687        -9.1617
  65   2.0000      -0.323221        -8.7953
  66   2.0000      -0.288296        -7.8449
  67   0.0000       0.030690         0.8351
  68   0.0000       0.075144         2.0448
  69   0.0000       0.101604         2.7648
  70   0.0000       0.119693         3.2570
  71   0.0000       0.129298         3.5184

MULLIKEN ATOMIC CHARGES
-----------------------
   0 S :    0.119736
   1 C :   -0.149026
   2 C :   -0.086108
   3 C :    0.032780
   4 C :   -0.154790
   5 H :   -0.000700
   6 C :    0.083610
   7 H :    0.025115
   8 H :    0.036419
   9 C :   -0.033662
  10 H :    0.026580
  11 H :    0.023220
  12 C :   -0.065445
  13 H :    0.028113
  14 H :    0.040886
  15 H :    0.025172
  16 S :    0.091605
  17 C :   -0.105409
  18 C :   -0.024803
  19 C :   -0.066917
  20 C :   -0.142416
  21 H :    0.039169
  22 C :    0.083408
  23 H :    0.008457
  24 H :    0.025055
  25 C :   -0.066474
  26 H :    0.018369
  27 H :    0.030426
  28 C :   -0.044891
  29 H :    0.016112
  30 H :    0.034618
  31 H :    0.042896
  32 H :    0.056860
  33 H :    0.052036
Sum of atomic charges:   -0.0000000

LOEWDIN ATOMIC CHARGES
----------------------
   0 S :    0.398854
   1 C :   -0.184408
   2 C :   -0.061958
   3 C :   -0.052774
   4 C :   -0.201759
   5 H :    0.019707
   6 C :   -0.023654
   7 H :    0.028249
   8 H :    0.034063
   9 C :   -0.025651
  10 H :    0.019673
  11 H :    0.020480
  12 C :   -0.060802
  13 H :    0.028020
  14 H :    0.014680
  15 H :    0.025205
  16 S :    0.390878
  17 C :   -0.167781
  18 C :   -0.078504
  19 C :   -0.055321
  20 C :   -0.213619
  21 H :    0.045750
  22 C :   -0.038102
  23 H :    0.027473
  24 H :    0.031448
  25 C :   -0.040045
  26 H :    0.022851
  27 H :    0.026089
  28 C :   -0.066336
  29 H :    0.016101
  30 H :    0.030807
  31 H :    0.029885
  32 H :    0.031461
  33 H :    0.029037

  Mayer bond orders larger than 0.100000
B(  0-S ,  1-C ) :   1.1200 B(  0-S ,  4-C ) :   1.1579 B(  1-C ,  2-C ) :   1.6615
B(  1-C , 32-H ) :   0.9529 B(  2-C ,  3-C ) :   1.2097 B(  2-C ,  6-C ) :   1.0141
B(  3-C ,  4-C ) :   1.5728 B(  3-C ,  5-H ) :   0.9971 B(  4-C , 20-C ) :   1.0222
B(  6-C ,  7-H ) :   0.9415 B(  6-C ,  8-H ) :   0.9463 B(  6-C ,  9-C ) :   1.0608
B(  9-C , 10-H ) :   0.9596 B(  9-C , 11-H ) :   0.9631 B(  9-C , 12-C ) :   1.0691
B( 12-C , 13-H ) :   0.9751 B( 12-C , 14-H ) :   0.9764 B( 12-C , 15-H ) :   0.9781
B( 16-S , 17-C ) :   1.1278 B( 16-S , 20-C ) :   1.1446 B( 17-C , 18-C ) :   1.6743
B( 17-C , 33-H ) :   0.9625 B( 18-C , 19-C ) :   1.2024 B( 18-C , 21-H ) :   0.9831
B( 19-C , 20-C ) :   1.5954 B( 19-C , 22-C ) :   1.0456 B( 22-C , 23-H ) :   0.9293
B( 22-C , 24-H ) :   0.9273 B( 22-C , 25-C ) :   1.0719 B( 25-C , 26-H ) :   0.9534
B( 25-C , 27-H ) :   0.9532 B( 25-C , 28-C ) :   1.0897 B( 28-C , 29-H ) :   0.9725
B( 28-C , 30-H ) :   0.9733 B( 28-C , 31-H ) :   0.9743

Dispersion correction           -0.014576825
FINAL SINGLE POINT ENERGY     -1339.866480947434

DIPOLE MOMENT
-------------
                                X             Y             Z
Electronic contribution:    -26.87297     -11.28170      -0.24775
Nuclear contribution   :     27.39695      11.58864       0.23089
                        -----------------------------------------
Total Dipole Moment    :      0.52398       0.30694      -0.01685
                        -----------------------------------------
Magnitude (a.u.)       :      0.60750
Magnitude (Debye)      :      1.54413

Rotational constants in cm-1:     0.017177     0.009902     0.006896
Rotational constants in MHz :   514.955686   296.845556   206.723409

                             ****ORCA TERMINATED NORMALLY****
TOTAL RUN TIME: 0 days 0 hours 0 minutes 22 seconds 384 msec
