                         Program Version 4.2.1 -  RELEASE  -
|  1> ! wB97X-D3 SP def2-SVP
|  2> %pal
|  3> nprocs 24
|  4> end
|  5>
|  6> * xyz 0 1
|  7> S 	 -52.3984 	 19.8175 	 -88.7697
|  8> C 	 -52.5972 	 21.374 	 -87.9846
|  9> C 	 -53.1883 	 22.3246 	 -88.7743
| 10> C 	 -53.4288 	 21.8622 	 -90.1369
| 11> C 	 -52.9455 	 20.5628 	 -90.2849
| 12> H 	 -53.9454 	 22.3526 	 -90.9482
| 13> C 	 -53.5257 	 23.7401 	 -88.2734
| 14> H 	 -53.6366 	 23.7262 	 -87.1577
| 15> H 	 -54.5414 	 23.9886 	 -88.6866
| 16> C 	 -52.4004 	 24.7621 	 -88.764
| 17> H 	 -52.4089 	 24.5805 	 -89.8496
| 18> H 	 -52.7027 	 25.7386 	 -88.3793
| 19> C 	 -50.9267 	 24.5999 	 -88.3338
| 20> H 	 -50.8082 	 24.5424 	 -87.2939
| 21> H 	 -50.2991 	 23.8496 	 -88.8431
| 22> H 	 -50.4388 	 25.5224 	 -88.5811
| 23> S 	 -53.8045 	 18.2366 	 -91.4989
| 24> C 	 -53.4669 	 17.8948 	 -93.1573
| 25> C 	 -52.7719 	 18.9735 	 -93.7357
| 26> C 	 -52.5298 	 20.041 	 -92.8285
| 27> C 	 -52.934 	 19.7899 	 -91.5122
| 28> H 	 -52.5501 	 19.0074 	 -94.8003
| 29> C 	 -51.963 	 21.3809 	 -93.3193
| 30> H 	 -51.0192 	 20.8888 	 -93.7263
| 31> H 	 -51.6217 	 21.9813 	 -92.4719
| 32> C 	 -52.8902 	 22.1589 	 -94.2552
| 33> H 	 -53.8213 	 22.3423 	 -93.7972
| 34> H 	 -53.1576 	 21.5114 	 -95.1251
| 35> C 	 -52.2494 	 23.4898 	 -94.7456
| 36> H 	 -52.8753 	 24.111 	 -95.4008
| 37> H 	 -51.3455 	 23.1514 	 -95.3047
| 38> H 	 -52.0058 	 24.2332 	 -93.9793
| 39> H 	 -52.3216 	 21.5905 	 -87.0491
| 40> H 	 -53.7347 	 17.1566 	 -93.8909
| 41> *
| 42>
| 43>                          ****END OF INPUT****

CARTESIAN COORDINATES (ANGSTROEM)
---------------------------------
  S    -52.398400   19.817500  -88.769700
  C    -52.597200   21.374000  -87.984600
  C    -53.188300   22.324600  -88.774300
  C    -53.428800   21.862200  -90.136900
  C    -52.945500   20.562800  -90.284900
  H    -53.945400   22.352600  -90.948200
  C    -53.525700   23.740100  -88.273400
  H    -53.636600   23.726200  -87.157700
  H    -54.541400   23.988600  -88.686600
  C    -52.400400   24.762100  -88.764000
  H    -52.408900   24.580500  -89.849600
  H    -52.702700   25.738600  -88.379300
  C    -50.926700   24.599900  -88.333800
  H    -50.808200   24.542400  -87.293900
  H    -50.299100   23.849600  -88.843100
  H    -50.438800   25.522400  -88.581100
  S    -53.804500   18.236600  -91.498900
  C    -53.466900   17.894800  -93.157300
  C    -52.771900   18.973500  -93.735700
  C    -52.529800   20.041000  -92.828500
  C    -52.934000   19.789900  -91.512200
  H    -52.550100   19.007400  -94.800300
  C    -51.963000   21.380900  -93.319300
  H    -51.019200   20.888800  -93.726300
  H    -51.621700   21.981300  -92.471900
  C    -52.890200   22.158900  -94.255200
  H    -53.821300   22.342300  -93.797200
  H    -53.157600   21.511400  -95.125100
  C    -52.249400   23.489800  -94.745600
  H    -52.875300   24.111000  -95.400800
  H    -51.345500   23.151400  -95.304700
  H    -52.005800   24.233200  -93.979300
  H    -52.321600   21.590500  -87.049100
  H    -53.734700   17.156600  -93.890900

 Total Charge           Charge          ....    0
 Multiplicity           Mult            ....    1
 Number of Electrons    NEL             ....  134
 Basis Dimension        Dim             ....  322

ORBITAL ENERGIES
----------------

  NO   OCC          E(Eh)            E(eV)
   0   2.0000     -88.967889     -2420.9393
   1   2.0000     -88.966406     -2420.8990
   2   2.0000     -10.333592      -281.1913
   3   2.0000     -10.325699      -280.9766
   4   2.0000     -10.318032      -280.7679
   5   2.0000     -10.304071      -280.3880
   6   2.0000     -10.303716      -280.3784
   7   2.0000     -10.303584      -280.3748
   8   2.0000     -10.302933      -280.3571
   9   2.0000     -10.300982      -280.3040
  10   2.0000     -10.296056      -280.1699
  11   2.0000     -10.295699      -280.1602
  12   2.0000     -10.292826      -280.0820
  13   2.0000     -10.292561      -280.0748
  14   2.0000     -10.285109      -279.8720
  15   2.0000     -10.273832      -279.5652
  16   2.0000      -8.082213      -219.9282
  17   2.0000      -8.080628      -219.8851
  18   2.0000      -6.040738      -164.3768
  19   2.0000      -6.039263      -164.3367
  20   2.0000      -6.037004      -164.2752
  21   2.0000      -6.035051      -164.2221
  22   2.0000      -6.032755      -164.1596
  23   2.0000      -6.031416      -164.1232
  24   2.0000      -1.002334       -27.2749
  25   2.0000      -0.979939       -26.6655
  26   2.0000      -0.906862       -24.6770
  27   2.0000      -0.902433       -24.5565
  28   2.0000      -0.867848       -23.6153
  29   2.0000      -0.850069       -23.1316
  30   2.0000      -0.844563       -22.9817
  31   2.0000      -0.814477       -22.1630
  32   2.0000      -0.782468       -21.2920
  33   2.0000      -0.770722       -20.9724
  34   2.0000      -0.711987       -19.3742
  35   2.0000      -0.700991       -19.0749
  36   2.0000      -0.694545       -18.8995
  37   2.0000      -0.658985       -17.9319
  38   2.0000      -0.645593       -17.5675
  39   2.0000      -0.616567       -16.7777
  40   2.0000      -0.586792       -15.9674
  41   2.0000      -0.570781       -15.5318
  42   2.0000      -0.561669       -15.2838
  43   2.0000      -0.550215       -14.9721
  44   2.0000      -0.535061       -14.5598
  45   2.0000      -0.523128       -14.2350
  46   2.0000      -0.516371       -14.0512
  47   2.0000      -0.515782       -14.0351
  48   2.0000      -0.507028       -13.7969
  49   2.0000      -0.496883       -13.5209
  50   2.0000      -0.484342       -13.1796
  51   2.0000      -0.481919       -13.1137
  52   2.0000      -0.466575       -12.6962
  53   2.0000      -0.465625       -12.6703
  54   2.0000      -0.458975       -12.4894
  55   2.0000      -0.453721       -12.3464
  56   2.0000      -0.444511       -12.0958
  57   2.0000      -0.439117       -11.9490
  58   2.0000      -0.434709       -11.8290
  59   2.0000      -0.429448       -11.6859
  60   2.0000      -0.427331       -11.6283
  61   2.0000      -0.407780       -11.0963
  62   2.0000      -0.402677       -10.9574
  63   2.0000      -0.344927        -9.3860
  64   2.0000      -0.330769        -9.0007
  65   2.0000      -0.327142        -8.9020
  66   2.0000      -0.289892        -7.8884
  67   0.0000       0.029240         0.7957
  68   0.0000       0.065552         1.7838
  69   0.0000       0.107605         2.9281
  70   0.0000       0.123922         3.3721
  71   0.0000       0.126435         3.4405

MULLIKEN ATOMIC CHARGES
-----------------------
   0 S :    0.115511
   1 C :   -0.049229
   2 C :   -0.100566
   3 C :    0.028781
   4 C :   -0.156792
   5 H :    0.020411
   6 C :    0.040092
   7 H :    0.030052
   8 H :    0.041065
   9 C :   -0.075082
  10 H :    0.035311
  11 H :    0.038445
  12 C :   -0.033447
  13 H :    0.015210
  14 H :    0.044988
  15 H :    0.021582
  16 S :    0.108858
  17 C :   -0.059029
  18 C :   -0.084126
  19 C :   -0.040693
  20 C :   -0.158286
  21 H :    0.022788
  22 C :    0.028321
  23 H :    0.045439
  24 H :    0.025244
  25 C :   -0.037838
  26 H :    0.019263
  27 H :    0.030168
  28 C :   -0.062169
  29 H :    0.032960
  30 H :    0.041103
  31 H :    0.034754
  32 H :   -0.014423
  33 H :    0.051334
Sum of atomic charges:    0.0000000

LOEWDIN ATOMIC CHARGES
----------------------
   0 S :    0.393494
   1 C :   -0.175521
   2 C :   -0.058109
   3 C :   -0.058213
   4 C :   -0.181373
   5 H :    0.033702
   6 C :   -0.035995
   7 H :    0.028825
   8 H :    0.036860
   9 C :   -0.036007
  10 H :    0.028334
  11 H :    0.025649
  12 C :   -0.067691
  13 H :    0.015738
  14 H :    0.030892
  15 H :    0.028560
  16 S :    0.409264
  17 C :   -0.197898
  18 C :   -0.081114
  19 C :   -0.057183
  20 C :   -0.202905
  21 H :    0.030244
  22 C :   -0.039104
  23 H :    0.044128
  24 H :    0.027204
  25 C :   -0.037353
  26 H :    0.016756
  27 H :    0.030077
  28 C :   -0.071887
  29 H :    0.026056
  30 H :    0.032080
  31 H :    0.025642
  32 H :    0.000265
  33 H :    0.036585

  Mayer bond orders larger than 0.100000
B(  0-S ,  1-C ) :   1.1160 B(  0-S ,  4-C ) :   1.1445 B(  1-C ,  2-C ) :   1.6577
B(  1-C , 32-H ) :   0.9767 B(  2-C ,  3-C ) :   1.1888 B(  2-C ,  6-C ) :   1.0204
B(  3-C ,  4-C ) :   1.5888 B(  3-C ,  5-H ) :   0.9958 B(  4-C , 20-C ) :   1.0415
B(  6-C ,  7-H ) :   0.9464 B(  6-C ,  8-H ) :   0.9449 B(  6-C ,  9-C ) :   1.0488
B(  9-C , 10-H ) :   0.9590 B(  9-C , 11-H ) :   0.9604 B(  9-C , 12-C ) :   1.0808
B( 12-C , 13-H ) :   0.9738 B( 12-C , 14-H ) :   0.9745 B( 12-C , 15-H ) :   0.9691
B( 16-S , 17-C ) :   1.1638 B( 16-S , 20-C ) :   1.1298 B( 17-C , 18-C ) :   1.5899
B( 17-C , 20-C ) :   0.1041 B( 17-C , 33-H ) :   0.9647 B( 18-C , 19-C ) :   1.2699
B( 18-C , 21-H ) :   0.9831 B( 19-C , 20-C ) :   1.5853 B( 19-C , 22-C ) :   1.0161
B( 22-C , 23-H ) :   0.9398 B( 22-C , 24-H ) :   0.9402 B( 22-C , 25-C ) :   1.0510
B( 25-C , 26-H ) :   0.9544 B( 25-C , 27-H ) :   0.9531 B( 25-C , 28-C ) :   1.0751
B( 28-C , 29-H ) :   0.9757 B( 28-C , 30-H ) :   0.9772 B( 28-C , 31-H ) :   0.9759

Dispersion correction           -0.014560763
FINAL SINGLE POINT ENERGY     -1339.860610461538

DIPOLE MOMENT
-------------
                                X             Y             Z
Electronic contribution:     -6.45758     -28.75058       8.11637
Nuclear contribution   :      6.43836      29.48105      -8.42206
                        -----------------------------------------
Total Dipole Moment    :     -0.01922       0.73047      -0.30568
                        -----------------------------------------
Magnitude (a.u.)       :      0.79208
Magnitude (Debye)      :      2.01332

Rotational constants in cm-1:     0.017148     0.009687     0.006704
Rotational constants in MHz :   514.076027   290.395844   200.977210

                             ****ORCA TERMINATED NORMALLY****
TOTAL RUN TIME: 0 days 0 hours 0 minutes 21 seconds 857 msec
