                         Program Version 4.2.1 -  RELEASE  -
|  1> ! wB97X-D3 SP def2-SVP
|  2> %pal
|  3> nprocs 24
|  4> end
|  5>
|  6> * xyz 0 1
|  7> S 	 -116.858 	 39.5669 	 -120.904
|  8> C 	 -115.873 	 38.4755 	 -121.823
|  9> C 	 -116.33 	 37.1746 	 -121.629
| 10> C 	 -117.491 	 37.1556 	 -120.771
| 11> C 	 -117.896 	 38.3145 	 -120.255
| 12> H 	 -118.034 	 36.2298 	 -120.5
| 13> C 	 -115.77 	 35.8916 	 -122.17
| 14> H 	 -115.353 	 36.0524 	 -123.197
| 15> H 	 -116.655 	 35.276 	 -122.298
| 16> C 	 -114.787 	 35.1348 	 -121.325
| 17> H 	 -114.629 	 34.1573 	 -121.776
| 18> H 	 -113.776 	 35.6167 	 -121.205
| 19> C 	 -115.395 	 34.6632 	 -119.976
| 20> H 	 -114.735 	 34.032 	 -119.357
| 21> H 	 -115.815 	 35.4398 	 -119.409
| 22> H 	 -116.253 	 33.9783 	 -120.156
| 23> S 	 -120.633 	 38.6195 	 -119.753
| 24> C 	 -121.124 	 38.615 	 -118.175
| 25> C 	 -120.056 	 38.6426 	 -117.255
| 26> C 	 -118.775 	 38.6621 	 -117.862
| 27> C 	 -118.911 	 38.6013 	 -119.221
| 28> H 	 -120.339 	 38.9384 	 -116.295
| 29> C 	 -117.506 	 38.7495 	 -117.037
| 30> H 	 -117.702 	 39.194 	 -116.064
| 31> H 	 -116.782 	 39.3186 	 -117.622
| 32> C 	 -116.904 	 37.4111 	 -116.479
| 33> H 	 -116.258 	 37.5991 	 -115.645
| 34> H 	 -116.345 	 36.93 	 -117.287
| 35> C 	 -117.998 	 36.3628 	 -116.109
| 36> H 	 -118.577 	 35.9621 	 -116.89
| 37> H 	 -118.695 	 36.9004 	 -115.516
| 38> H 	 -117.705 	 35.4729 	 -115.52
| 39> H 	 -114.902 	 38.711 	 -122.377
| 40> H 	 -122.172 	 38.7217 	 -117.829
| 41> *
| 42>
| 43>                          ****END OF INPUT****

CARTESIAN COORDINATES (ANGSTROEM)
---------------------------------
  S    -116.858000   39.566900  -120.904000
  C    -115.873000   38.475500  -121.823000
  C    -116.330000   37.174600  -121.629000
  C    -117.491000   37.155600  -120.771000
  C    -117.896000   38.314500  -120.255000
  H    -118.034000   36.229800  -120.500000
  C    -115.770000   35.891600  -122.170000
  H    -115.353000   36.052400  -123.197000
  H    -116.655000   35.276000  -122.298000
  C    -114.787000   35.134800  -121.325000
  H    -114.629000   34.157300  -121.776000
  H    -113.776000   35.616700  -121.205000
  C    -115.395000   34.663200  -119.976000
  H    -114.735000   34.032000  -119.357000
  H    -115.815000   35.439800  -119.409000
  H    -116.253000   33.978300  -120.156000
  S    -120.633000   38.619500  -119.753000
  C    -121.124000   38.615000  -118.175000
  C    -120.056000   38.642600  -117.255000
  C    -118.775000   38.662100  -117.862000
  C    -118.911000   38.601300  -119.221000
  H    -120.339000   38.938400  -116.295000
  C    -117.506000   38.749500  -117.037000
  H    -117.702000   39.194000  -116.064000
  H    -116.782000   39.318600  -117.622000
  C    -116.904000   37.411100  -116.479000
  H    -116.258000   37.599100  -115.645000
  H    -116.345000   36.930000  -117.287000
  C    -117.998000   36.362800  -116.109000
  H    -118.577000   35.962100  -116.890000
  H    -118.695000   36.900400  -115.516000
  H    -117.705000   35.472900  -115.520000
  H    -114.902000   38.711000  -122.377000
  H    -122.172000   38.721700  -117.829000

 Total Charge           Charge          ....    0
 Multiplicity           Mult            ....    1
 Number of Electrons    NEL             ....  134
 Basis Dimension        Dim             ....  322

ORBITAL ENERGIES
----------------

  NO   OCC          E(Eh)            E(eV)
   0   2.0000     -88.969419     -2420.9810
   1   2.0000     -88.960893     -2420.7490
   2   2.0000     -10.327744      -281.0322
   3   2.0000     -10.323356      -280.9128
   4   2.0000     -10.319855      -280.8175
   5   2.0000     -10.316423      -280.7241
   6   2.0000     -10.306409      -280.4516
   7   2.0000     -10.299790      -280.2715
   8   2.0000     -10.295066      -280.1430
   9   2.0000     -10.292143      -280.0634
  10   2.0000     -10.290102      -280.0079
  11   2.0000     -10.290052      -280.0065
  12   2.0000     -10.287665      -279.9416
  13   2.0000     -10.286782      -279.9176
  14   2.0000     -10.275346      -279.6064
  15   2.0000     -10.268468      -279.4192
  16   2.0000      -8.085204      -220.0096
  17   2.0000      -8.075909      -219.7567
  18   2.0000      -6.043421      -164.4498
  19   2.0000      -6.039540      -164.3442
  20   2.0000      -6.036222      -164.2540
  21   2.0000      -6.034412      -164.2047
  22   2.0000      -6.030223      -164.0907
  23   2.0000      -6.026789      -163.9973
  24   2.0000      -1.010420       -27.4949
  25   2.0000      -0.990675       -26.9577
  26   2.0000      -0.914909       -24.8959
  27   2.0000      -0.909556       -24.7503
  28   2.0000      -0.867821       -23.6146
  29   2.0000      -0.851538       -23.1715
  30   2.0000      -0.841618       -22.9016
  31   2.0000      -0.812745       -22.1159
  32   2.0000      -0.788708       -21.4618
  33   2.0000      -0.774690       -21.0804
  34   2.0000      -0.707838       -19.2612
  35   2.0000      -0.701951       -19.1010
  36   2.0000      -0.687374       -18.7044
  37   2.0000      -0.661918       -18.0117
  38   2.0000      -0.637790       -17.3551
  39   2.0000      -0.614923       -16.7329
  40   2.0000      -0.590005       -16.0549
  41   2.0000      -0.573567       -15.6076
  42   2.0000      -0.565850       -15.3975
  43   2.0000      -0.547552       -14.8997
  44   2.0000      -0.544632       -14.8202
  45   2.0000      -0.542507       -14.7624
  46   2.0000      -0.512491       -13.9456
  47   2.0000      -0.505977       -13.7683
  48   2.0000      -0.501349       -13.6424
  49   2.0000      -0.492706       -13.4072
  50   2.0000      -0.489426       -13.3180
  51   2.0000      -0.479984       -13.0610
  52   2.0000      -0.475701       -12.9445
  53   2.0000      -0.464277       -12.6336
  54   2.0000      -0.459423       -12.5015
  55   2.0000      -0.446121       -12.1396
  56   2.0000      -0.442441       -12.0394
  57   2.0000      -0.438232       -11.9249
  58   2.0000      -0.433524       -11.7968
  59   2.0000      -0.427453       -11.6316
  60   2.0000      -0.421803       -11.4778
  61   2.0000      -0.409141       -11.1333
  62   2.0000      -0.405212       -11.0264
  63   2.0000      -0.342394        -9.3170
  64   2.0000      -0.329524        -8.9668
  65   2.0000      -0.318828        -8.6757
  66   2.0000      -0.311572        -8.4783
  67   0.0000       0.045880         1.2484
  68   0.0000       0.056753         1.5443
  69   0.0000       0.108843         2.9618
  70   0.0000       0.119051         3.2395
  71   0.0000       0.129847         3.5333

MULLIKEN ATOMIC CHARGES
-----------------------
   0 S :    0.097565
   1 C :   -0.136065
   2 C :   -0.112068
   3 C :    0.028005
   4 C :   -0.160754
   5 H :    0.017586
   6 C :    0.061956
   7 H :    0.033984
   8 H :    0.019171
   9 C :   -0.045049
  10 H :    0.028973
  11 H :    0.043364
  12 C :   -0.079450
  13 H :    0.036399
  14 H :    0.036609
  15 H :    0.016783
  16 S :    0.139860
  17 C :   -0.108669
  18 C :   -0.042136
  19 C :    0.009896
  20 C :   -0.210721
  21 H :    0.003650
  22 C :    0.089710
  23 H :    0.023913
  24 H :    0.035143
  25 C :   -0.073222
  26 H :    0.035222
  27 H :    0.037264
  28 C :   -0.039889
  29 H :    0.028684
  30 H :    0.001917
  31 H :    0.035792
  32 H :    0.077008
  33 H :    0.069567
Sum of atomic charges:   -0.0000000

LOEWDIN ATOMIC CHARGES
----------------------
   0 S :    0.405278
   1 C :   -0.212504
   2 C :   -0.072169
   3 C :   -0.068561
   4 C :   -0.203209
   5 H :    0.035058
   6 C :   -0.038543
   7 H :    0.036793
   8 H :    0.032987
   9 C :   -0.041270
  10 H :    0.028320
  11 H :    0.029336
  12 C :   -0.068873
  13 H :    0.028788
  14 H :    0.012443
  15 H :    0.026142
  16 S :    0.438489
  17 C :   -0.213849
  18 C :   -0.078332
  19 C :   -0.042051
  20 C :   -0.194697
  21 H :    0.019155
  22 C :   -0.025752
  23 H :    0.034387
  24 H :    0.032681
  25 C :   -0.029192
  26 H :    0.022912
  27 H :    0.021434
  28 C :   -0.066871
  29 H :    0.020760
  30 H :    0.014771
  31 H :    0.029981
  32 H :    0.048981
  33 H :    0.037178

  Mayer bond orders larger than 0.100000
B(  0-S ,  1-C ) :   1.1478 B(  0-S ,  4-C ) :   1.1413 B(  1-C ,  2-C ) :   1.6124
B(  1-C , 32-H ) :   0.9592 B(  2-C ,  3-C ) :   1.2320 B(  2-C ,  6-C ) :   1.0211
B(  3-C ,  4-C ) :   1.6343 B(  3-C ,  5-H ) :   0.9863 B(  4-C , 20-C ) :   0.9784
B(  6-C ,  7-H ) :   0.9384 B(  6-C ,  8-H ) :   0.9344 B(  6-C ,  9-C ) :   1.0883
B(  9-C , 10-H ) :   0.9519 B(  9-C , 11-H ) :   0.9557 B(  9-C , 12-C ) :   1.0667
B( 12-C , 13-H ) :   0.9723 B( 12-C , 14-H ) :   0.9773 B( 12-C , 15-H ) :   0.9688
B( 16-S , 17-C ) :   1.2016 B( 16-S , 20-C ) :   1.1460 B( 17-C , 18-C ) :   1.5911
B( 17-C , 33-H ) :   0.9585 B( 18-C , 19-C ) :   1.2439 B( 18-C , 21-H ) :   0.9857
B( 19-C , 20-C ) :   1.6016 B( 19-C , 22-C ) :   1.0554 B( 22-C , 23-H ) :   0.9315
B( 22-C , 24-H ) :   0.9337 B( 22-C , 25-C ) :   1.0589 B( 25-C , 26-H ) :   0.9612
B( 25-C , 27-H ) :   0.9559 B( 25-C , 28-C ) :   1.0814 B( 28-C , 29-H ) :   0.9669
B( 28-C , 30-H ) :   0.9726 B( 28-C , 31-H ) :   0.9740

Dispersion correction           -0.016056202
FINAL SINGLE POINT ENERGY     -1339.869472802098

DIPOLE MOMENT
-------------
                                X             Y             Z
Electronic contribution:    -14.07471      19.93534     -11.45056
Nuclear contribution   :     14.23263     -20.36834      11.76158
                        -----------------------------------------
Total Dipole Moment    :      0.15792      -0.43300       0.31102
                        -----------------------------------------
Magnitude (a.u.)       :      0.55602
Magnitude (Debye)      :      1.41329

Rotational constants in cm-1:     0.018489     0.009940     0.008063
Rotational constants in MHz :   554.295929   297.997416   241.717862

                             ****ORCA TERMINATED NORMALLY****
TOTAL RUN TIME: 0 days 0 hours 0 minutes 21 seconds 859 msec
