                         Program Version 4.2.1 -  RELEASE  -
|  1> ! wB97X-D3 SP def2-SVP
|  2> %pal
|  3> nprocs 24
|  4> end
|  5>
|  6> * xyz 0 1
|  7> S 	 -111.56 	 53.5794 	 -92.6045
|  8> C 	 -111.863 	 55.1353 	 -91.8035
|  9> C 	 -112.619 	 54.9679 	 -90.6847
| 10> C 	 -112.991 	 53.6385 	 -90.52
| 11> C 	 -112.502 	 52.7212 	 -91.446
| 12> H 	 -113.571 	 53.3314 	 -89.6595
| 13> C 	 -113.144 	 56.1169 	 -89.8739
| 14> H 	 -114.132 	 56.4857 	 -90.1488
| 15> H 	 -112.462 	 56.9367 	 -90.1294
| 16> C 	 -112.972 	 55.8347 	 -88.392
| 17> H 	 -113.335 	 56.6111 	 -87.6822
| 18> H 	 -113.541 	 55.0425 	 -88.1242
| 19> C 	 -111.516 	 55.6734 	 -87.9201
| 20> H 	 -110.975 	 56.6002 	 -88.0011
| 21> H 	 -111.453 	 55.2696 	 -86.8954
| 22> H 	 -110.981 	 54.9195 	 -88.48
| 23> S 	 -114.446 	 50.7623 	 -91.0522
| 24> C 	 -114.226 	 49.1714 	 -91.7185
| 25> C 	 -112.872 	 49.0274 	 -91.9735
| 26> C 	 -112.094 	 50.1878 	 -91.9469
| 27> C 	 -112.847 	 51.3223 	 -91.5681
| 28> H 	 -112.501 	 48.0424 	 -92.1936
| 29> C 	 -110.645 	 50.176 	 -92.2906
| 30> H 	 -110.165 	 51.172 	 -91.9656
| 31> H 	 -110.663 	 50.2142 	 -93.3949
| 32> C 	 -109.824 	 48.9315 	 -91.823
| 33> H 	 -110.361 	 47.9551 	 -92.1064
| 34> H 	 -109.796 	 48.9826 	 -90.7773
| 35> C 	 -108.418 	 48.9737 	 -92.4611
| 36> H 	 -108.077 	 50.0232 	 -92.3765
| 37> H 	 -108.537 	 48.7378 	 -93.4491
| 38> H 	 -107.666 	 48.3911 	 -91.9223
| 39> H 	 -111.518 	 56.1159 	 -92.2214
| 40> H 	 -114.868 	 48.3345 	 -91.6354
| 41> *
| 42>
| 43>                          ****END OF INPUT****

CARTESIAN COORDINATES (ANGSTROEM)
---------------------------------
  S    -111.560000   53.579400  -92.604500
  C    -111.863000   55.135300  -91.803500
  C    -112.619000   54.967900  -90.684700
  C    -112.991000   53.638500  -90.520000
  C    -112.502000   52.721200  -91.446000
  H    -113.571000   53.331400  -89.659500
  C    -113.144000   56.116900  -89.873900
  H    -114.132000   56.485700  -90.148800
  H    -112.462000   56.936700  -90.129400
  C    -112.972000   55.834700  -88.392000
  H    -113.335000   56.611100  -87.682200
  H    -113.541000   55.042500  -88.124200
  C    -111.516000   55.673400  -87.920100
  H    -110.975000   56.600200  -88.001100
  H    -111.453000   55.269600  -86.895400
  H    -110.981000   54.919500  -88.480000
  S    -114.446000   50.762300  -91.052200
  C    -114.226000   49.171400  -91.718500
  C    -112.872000   49.027400  -91.973500
  C    -112.094000   50.187800  -91.946900
  C    -112.847000   51.322300  -91.568100
  H    -112.501000   48.042400  -92.193600
  C    -110.645000   50.176000  -92.290600
  H    -110.165000   51.172000  -91.965600
  H    -110.663000   50.214200  -93.394900
  C    -109.824000   48.931500  -91.823000
  H    -110.361000   47.955100  -92.106400
  H    -109.796000   48.982600  -90.777300
  C    -108.418000   48.973700  -92.461100
  H    -108.077000   50.023200  -92.376500
  H    -108.537000   48.737800  -93.449100
  H    -107.666000   48.391100  -91.922300
  H    -111.518000   56.115900  -92.221400
  H    -114.868000   48.334500  -91.635400

 Total Charge           Charge          ....    0
 Multiplicity           Mult            ....    1
 Number of Electrons    NEL             ....  134
 Basis Dimension        Dim             ....  322

ORBITAL ENERGIES
----------------

  NO   OCC          E(Eh)            E(eV)
   0   2.0000     -88.968307     -2420.9507
   1   2.0000     -88.965167     -2420.8653
   2   2.0000     -10.330927      -281.1188
   3   2.0000     -10.330108      -281.0965
   4   2.0000     -10.316074      -280.7146
   5   2.0000     -10.314996      -280.6853
   6   2.0000     -10.301786      -280.3259
   7   2.0000     -10.297732      -280.2155
   8   2.0000     -10.294483      -280.1271
   9   2.0000     -10.292353      -280.0692
  10   2.0000     -10.292090      -280.0620
  11   2.0000     -10.288860      -279.9741
  12   2.0000     -10.287991      -279.9505
  13   2.0000     -10.278635      -279.6959
  14   2.0000     -10.274627      -279.5868
  15   2.0000     -10.272288      -279.5232
  16   2.0000      -8.082742      -219.9426
  17   2.0000      -8.079427      -219.8524
  18   2.0000      -6.041213      -164.3898
  19   2.0000      -6.038015      -164.3027
  20   2.0000      -6.037218      -164.2811
  21   2.0000      -6.034007      -164.1937
  22   2.0000      -6.033632      -164.1835
  23   2.0000      -6.030127      -164.0881
  24   2.0000      -1.010392       -27.4942
  25   2.0000      -0.989234       -26.9184
  26   2.0000      -0.918807       -25.0020
  27   2.0000      -0.909001       -24.7352
  28   2.0000      -0.871612       -23.7178
  29   2.0000      -0.853307       -23.2197
  30   2.0000      -0.844503       -22.9801
  31   2.0000      -0.812964       -22.1219
  32   2.0000      -0.784908       -21.3584
  33   2.0000      -0.771055       -20.9815
  34   2.0000      -0.716611       -19.5000
  35   2.0000      -0.706391       -19.2219
  36   2.0000      -0.693086       -18.8598
  37   2.0000      -0.662695       -18.0328
  38   2.0000      -0.631756       -17.1910
  39   2.0000      -0.623162       -16.9571
  40   2.0000      -0.597106       -16.2481
  41   2.0000      -0.571804       -15.5596
  42   2.0000      -0.569347       -15.4927
  43   2.0000      -0.558785       -15.2053
  44   2.0000      -0.541781       -14.7426
  45   2.0000      -0.525485       -14.2992
  46   2.0000      -0.523979       -14.2582
  47   2.0000      -0.516518       -14.0552
  48   2.0000      -0.506275       -13.7764
  49   2.0000      -0.496187       -13.5019
  50   2.0000      -0.482525       -13.1302
  51   2.0000      -0.478039       -13.0081
  52   2.0000      -0.470280       -12.7970
  53   2.0000      -0.464778       -12.6473
  54   2.0000      -0.462197       -12.5770
  55   2.0000      -0.449101       -12.2207
  56   2.0000      -0.443687       -12.0733
  57   2.0000      -0.438426       -11.9302
  58   2.0000      -0.435940       -11.8625
  59   2.0000      -0.428084       -11.6487
  60   2.0000      -0.421246       -11.4627
  61   2.0000      -0.414884       -11.2896
  62   2.0000      -0.410705       -11.1759
  63   2.0000      -0.355516        -9.6741
  64   2.0000      -0.335316        -9.1244
  65   2.0000      -0.326498        -8.8845
  66   2.0000      -0.282937        -7.6991
  67   0.0000       0.019730         0.5369
  68   0.0000       0.073564         2.0018
  69   0.0000       0.107588         2.9276
  70   0.0000       0.123986         3.3738
  71   0.0000       0.134393         3.6570

MULLIKEN ATOMIC CHARGES
-----------------------
   0 S :    0.107138
   1 C :   -0.161209
   2 C :   -0.078890
   3 C :   -0.015848
   4 C :   -0.130495
   5 H :    0.006824
   6 C :    0.119904
   7 H :    0.050024
   8 H :    0.005716
   9 C :   -0.068940
  10 H :    0.026903
  11 H :    0.002786
  12 C :   -0.063140
  13 H :    0.032063
  14 H :    0.033074
  15 H :    0.033371
  16 S :    0.100009
  17 C :   -0.062442
  18 C :   -0.058707
  19 C :   -0.010682
  20 C :   -0.134001
  21 H :    0.007626
  22 C :    0.004942
  23 H :    0.041986
  24 H :    0.043458
  25 C :   -0.097498
  26 H :    0.044581
  27 H :    0.028621
  28 C :   -0.005466
  29 H :    0.027055
  30 H :    0.020776
  31 H :    0.039204
  32 H :    0.063395
  33 H :    0.047861
Sum of atomic charges:   -0.0000000

LOEWDIN ATOMIC CHARGES
----------------------
   0 S :    0.416504
   1 C :   -0.194462
   2 C :   -0.070039
   3 C :   -0.073412
   4 C :   -0.196312
   5 H :    0.025585
   6 C :   -0.022609
   7 H :    0.036041
   8 H :    0.030065
   9 C :   -0.040907
  10 H :    0.031001
  11 H :    0.005227
  12 C :   -0.063016
  13 H :    0.022536
  14 H :    0.030795
  15 H :    0.022031
  16 S :    0.409206
  17 C :   -0.183678
  18 C :   -0.072123
  19 C :   -0.061428
  20 C :   -0.193039
  21 H :    0.025021
  22 C :   -0.044758
  23 H :    0.031996
  24 H :    0.036322
  25 C :   -0.034297
  26 H :    0.029486
  27 H :    0.016543
  28 C :   -0.054578
  29 H :    0.030072
  30 H :    0.013952
  31 H :    0.028774
  32 H :    0.037442
  33 H :    0.026058

  Mayer bond orders larger than 0.100000
B(  0-S ,  1-C ) :   1.1412 B(  0-S ,  4-C ) :   1.1572 B(  1-C ,  2-C ) :   1.5942
B(  1-C , 32-H ) :   0.9597 B(  2-C ,  3-C ) :   1.2781 B(  2-C ,  6-C ) :   1.0076
B(  3-C ,  4-C ) :   1.5261 B(  3-C ,  5-H ) :   0.9943 B(  4-C , 20-C ) :   1.0841
B(  6-C ,  7-H ) :   0.9430 B(  6-C ,  8-H ) :   0.9371 B(  6-C ,  9-C ) :   1.0624
B(  9-C , 10-H ) :   0.9536 B(  9-C , 11-H ) :   0.9579 B(  9-C , 12-C ) :   1.0784
B( 12-C , 13-H ) :   0.9765 B( 12-C , 14-H ) :   0.9721 B( 12-C , 15-H ) :   0.9741
B( 16-S , 17-C ) :   1.1630 B( 16-S , 20-C ) :   1.1444 B( 17-C , 18-C ) :   1.5749
B( 17-C , 20-C ) :   0.1073 B( 17-C , 33-H ) :   0.9696 B( 18-C , 19-C ) :   1.2845
B( 18-C , 21-H ) :   0.9886 B( 19-C , 20-C ) :   1.5095 B( 19-C , 22-C ) :   1.0396
B( 22-C , 23-H ) :   0.9261 B( 22-C , 24-H ) :   0.9330 B( 22-C , 25-C ) :   1.0552
B( 25-C , 26-H ) :   0.9528 B( 25-C , 27-H ) :   0.9602 B( 25-C , 28-C ) :   1.0751
B( 28-C , 29-H ) :   0.9722 B( 28-C , 30-H ) :   0.9782 B( 28-C , 31-H ) :   0.9742

Dispersion correction           -0.013890188
FINAL SINGLE POINT ENERGY     -1339.871900703613

DIPOLE MOMENT
-------------
                                X             Y             Z
Electronic contribution:    -14.52343      -2.42341      -9.69379
Nuclear contribution   :     14.73161       2.36068       9.90909
                        -----------------------------------------
Total Dipole Moment    :      0.20818      -0.06274       0.21530
                        -----------------------------------------
Magnitude (a.u.)       :      0.30599
Magnitude (Debye)      :      0.77775

Rotational constants in cm-1:     0.019783     0.007958     0.006752
Rotational constants in MHz :   593.093164   238.572324   202.434108

                             ****ORCA TERMINATED NORMALLY****
TOTAL RUN TIME: 0 days 0 hours 0 minutes 21 seconds 359 msec
