                         Program Version 4.2.1 -  RELEASE  -
|  1> ! wB97X-D3 SP def2-SVP
|  2> %pal
|  3> nprocs 24
|  4> end
|  5>
|  6> * xyz 0 1
|  7> S 	 -67.0534 	 9.3382 	 -74.9793
|  8> C 	 -67.1897 	 9.31416 	 -73.2665
|  9> C 	 -68.4516 	 9.75346 	 -72.9056
| 10> C 	 -69.3046 	 10.0152 	 -73.9585
| 11> C 	 -68.7168 	 9.84078 	 -75.1696
| 12> H 	 -70.3568 	 10.3457 	 -73.9415
| 13> C 	 -68.858 	 9.82363 	 -71.4251
| 14> H 	 -69.017 	 10.8238 	 -71.188
| 15> H 	 -68.0107 	 9.52319 	 -70.8284
| 16> C 	 -70.0723 	 8.94147 	 -71.0527
| 17> H 	 -70.069 	 9.00026 	 -69.9646
| 18> H 	 -71.0508 	 9.4323 	 -71.1828
| 19> C 	 -69.9773 	 7.45187 	 -71.3556
| 20> H 	 -69.1832 	 6.97296 	 -70.7583
| 21> H 	 -70.8596 	 6.95638 	 -71.0533
| 22> H 	 -69.8702 	 7.20929 	 -72.3898
| 23> S 	 -68.2157 	 11.6654 	 -77.163
| 24> C 	 -69.2939 	 11.9003 	 -78.5096
| 25> C 	 -70.4452 	 11.1533 	 -78.328
| 26> C 	 -70.3938 	 10.2815 	 -77.1894
| 27> C 	 -69.2319 	 10.4107 	 -76.4288
| 28> H 	 -71.2835 	 11.3817 	 -78.9795
| 29> C 	 -71.5488 	 9.38551 	 -76.9439
| 30> H 	 -72.427 	 9.93184 	 -77.2533
| 31> H 	 -71.7869 	 9.26774 	 -75.9458
| 32> C 	 -71.3859 	 7.89619 	 -77.5745
| 33> H 	 -70.4389 	 7.51347 	 -77.1257
| 34> H 	 -71.3322 	 7.98054 	 -78.6889
| 35> C 	 -72.5107 	 6.91457 	 -77.1781
| 36> H 	 -72.5624 	 6.98581 	 -76.0969
| 37> H 	 -72.3478 	 5.87597 	 -77.2788
| 38> H 	 -73.4012 	 7.25493 	 -77.6971
| 39> H 	 -66.3471 	 8.98619 	 -72.6494
| 40> H 	 -69.0626 	 12.5678 	 -79.2916
| 41> *
| 42>
| 43>                          ****END OF INPUT****

CARTESIAN COORDINATES (ANGSTROEM)
---------------------------------
  S    -67.053400    9.338200  -74.979300
  C    -67.189700    9.314160  -73.266500
  C    -68.451600    9.753460  -72.905600
  C    -69.304600   10.015200  -73.958500
  C    -68.716800    9.840780  -75.169600
  H    -70.356800   10.345700  -73.941500
  C    -68.858000    9.823630  -71.425100
  H    -69.017000   10.823800  -71.188000
  H    -68.010700    9.523190  -70.828400
  C    -70.072300    8.941470  -71.052700
  H    -70.069000    9.000260  -69.964600
  H    -71.050800    9.432300  -71.182800
  C    -69.977300    7.451870  -71.355600
  H    -69.183200    6.972960  -70.758300
  H    -70.859600    6.956380  -71.053300
  H    -69.870200    7.209290  -72.389800
  S    -68.215700   11.665400  -77.163000
  C    -69.293900   11.900300  -78.509600
  C    -70.445200   11.153300  -78.328000
  C    -70.393800   10.281500  -77.189400
  C    -69.231900   10.410700  -76.428800
  H    -71.283500   11.381700  -78.979500
  C    -71.548800    9.385510  -76.943900
  H    -72.427000    9.931840  -77.253300
  H    -71.786900    9.267740  -75.945800
  C    -71.385900    7.896190  -77.574500
  H    -70.438900    7.513470  -77.125700
  H    -71.332200    7.980540  -78.688900
  C    -72.510700    6.914570  -77.178100
  H    -72.562400    6.985810  -76.096900
  H    -72.347800    5.875970  -77.278800
  H    -73.401200    7.254930  -77.697100
  H    -66.347100    8.986190  -72.649400
  H    -69.062600   12.567800  -79.291600

 Total Charge           Charge          ....    0
 Multiplicity           Mult            ....    1
 Number of Electrons    NEL             ....  134
 Basis Dimension        Dim             ....  322

ORBITAL ENERGIES
----------------

  NO   OCC          E(Eh)            E(eV)
   0   2.0000     -88.964663     -2420.8515
   1   2.0000     -88.959612     -2420.7141
   2   2.0000     -10.328888      -281.0633
   3   2.0000     -10.326554      -280.9998
   4   2.0000     -10.313957      -280.6570
   5   2.0000     -10.312545      -280.6186
   6   2.0000     -10.302143      -280.3356
   7   2.0000     -10.296296      -280.1765
   8   2.0000     -10.294710      -280.1333
   9   2.0000     -10.292423      -280.0711
  10   2.0000     -10.290111      -280.0082
  11   2.0000     -10.287235      -279.9299
  12   2.0000     -10.286273      -279.9037
  13   2.0000     -10.284485      -279.8551
  14   2.0000     -10.272778      -279.5365
  15   2.0000     -10.272578      -279.5311
  16   2.0000      -8.080145      -219.8719
  17   2.0000      -8.074401      -219.7156
  18   2.0000      -6.038422      -164.3138
  19   2.0000      -6.034475      -164.2064
  20   2.0000      -6.032888      -164.1632
  21   2.0000      -6.031162      -164.1163
  22   2.0000      -6.028763      -164.0510
  23   2.0000      -6.025305      -163.9569
  24   2.0000      -1.011314       -27.5192
  25   2.0000      -0.985228       -26.8094
  26   2.0000      -0.909334       -24.7442
  27   2.0000      -0.899905       -24.4876
  28   2.0000      -0.869057       -23.6482
  29   2.0000      -0.852816       -23.2063
  30   2.0000      -0.847593       -23.0642
  31   2.0000      -0.817368       -22.2417
  32   2.0000      -0.784693       -21.3526
  33   2.0000      -0.772226       -21.0133
  34   2.0000      -0.708045       -19.2669
  35   2.0000      -0.697174       -18.9711
  36   2.0000      -0.692022       -18.8309
  37   2.0000      -0.661373       -17.9969
  38   2.0000      -0.645646       -17.5689
  39   2.0000      -0.622442       -16.9375
  40   2.0000      -0.597768       -16.2661
  41   2.0000      -0.565889       -15.3986
  42   2.0000      -0.562907       -15.3175
  43   2.0000      -0.556512       -15.1435
  44   2.0000      -0.539069       -14.6688
  45   2.0000      -0.523278       -14.2391
  46   2.0000      -0.517366       -14.0782
  47   2.0000      -0.513008       -13.9597
  48   2.0000      -0.504344       -13.7239
  49   2.0000      -0.498530       -13.5657
  50   2.0000      -0.492534       -13.4025
  51   2.0000      -0.481254       -13.0956
  52   2.0000      -0.470478       -12.8024
  53   2.0000      -0.464010       -12.6264
  54   2.0000      -0.460867       -12.5408
  55   2.0000      -0.449570       -12.2334
  56   2.0000      -0.443466       -12.0673
  57   2.0000      -0.440626       -11.9900
  58   2.0000      -0.430337       -11.7101
  59   2.0000      -0.423043       -11.5116
  60   2.0000      -0.414685       -11.2842
  61   2.0000      -0.413629       -11.2554
  62   2.0000      -0.404497       -11.0069
  63   2.0000      -0.349172        -9.5015
  64   2.0000      -0.330184        -8.9848
  65   2.0000      -0.325045        -8.8449
  66   2.0000      -0.293988        -7.9998
  67   0.0000       0.033080         0.9002
  68   0.0000       0.068776         1.8715
  69   0.0000       0.115242         3.1359
  70   0.0000       0.130724         3.5572
  71   0.0000       0.136191         3.7060

MULLIKEN ATOMIC CHARGES
-----------------------
   0 S :    0.111959
   1 C :   -0.144194
   2 C :   -0.088228
   3 C :    0.033206
   4 C :   -0.154310
   5 H :    0.027445
   6 C :    0.132552
   7 H :    0.017235
   8 H :    0.002745
   9 C :   -0.102694
  10 H :    0.016793
  11 H :    0.026597
  12 C :   -0.009086
  13 H :    0.028383
  14 H :    0.017705
  15 H :    0.036539
  16 S :    0.091573
  17 C :   -0.088923
  18 C :   -0.034343
  19 C :   -0.048477
  20 C :   -0.145947
  21 H :    0.024933
  22 C :    0.102821
  23 H :    0.008365
  24 H :   -0.017953
  25 C :   -0.102941
  26 H :    0.041275
  27 H :    0.041514
  28 C :   -0.018725
  29 H :    0.018120
  30 H :    0.030522
  31 H :    0.035507
  32 H :    0.063011
  33 H :    0.047020
Sum of atomic charges:    0.0000000

LOEWDIN ATOMIC CHARGES
----------------------
   0 S :    0.422741
   1 C :   -0.206679
   2 C :   -0.069042
   3 C :   -0.061632
   4 C :   -0.201105
   5 H :    0.041229
   6 C :   -0.019575
   7 H :    0.024459
   8 H :    0.026272
   9 C :   -0.051824
  10 H :    0.027869
  11 H :    0.024917
  12 C :   -0.059506
  13 H :    0.030099
  14 H :    0.023396
  15 H :    0.022302
  16 S :    0.398860
  17 C :   -0.179533
  18 C :   -0.073060
  19 C :   -0.062580
  20 C :   -0.185994
  21 H :    0.033858
  22 C :   -0.031923
  23 H :    0.028985
  24 H :    0.014201
  25 C :   -0.031058
  26 H :    0.028905
  27 H :    0.024985
  28 C :   -0.067367
  29 H :    0.024949
  30 H :    0.022518
  31 H :    0.025974
  32 H :    0.033516
  33 H :    0.020845

  Mayer bond orders larger than 0.100000
B(  0-S ,  1-C ) :   1.1558 B(  0-S ,  4-C ) :   1.1721 B(  1-C ,  2-C ) :   1.5629
B(  1-C ,  4-C ) :   0.1000 B(  1-C , 32-H ) :   0.9724 B(  2-C ,  3-C ) :   1.2730
B(  2-C ,  6-C ) :   1.0229 B(  3-C ,  4-C ) :   1.5503 B(  3-C ,  5-H ) :   0.9930
B(  4-C , 20-C ) :   1.0169 B(  6-C ,  7-H ) :   0.9299 B(  6-C ,  8-H ) :   0.9402
B(  6-C ,  9-C ) :   1.0804 B(  9-C , 10-H ) :   0.9499 B(  9-C , 11-H ) :   0.9542
B(  9-C , 12-C ) :   1.0733 B( 12-C , 13-H ) :   0.9738 B( 12-C , 14-H ) :   0.9697
B( 12-C , 15-H ) :   0.9759 B( 16-S , 17-C ) :   1.1654 B( 16-S , 20-C ) :   1.1431
B( 17-C , 18-C ) :   1.5924 B( 17-C , 33-H ) :   0.9755 B( 18-C , 19-C ) :   1.2416
B( 18-C , 21-H ) :   0.9926 B( 19-C , 20-C ) :   1.5939 B( 19-C , 22-C ) :   1.0649
B( 22-C , 23-H ) :   0.9277 B( 22-C , 24-H ) :   0.9256 B( 22-C , 25-C ) :   1.0368
B( 25-C , 26-H ) :   0.9604 B( 25-C , 27-H ) :   0.9625 B( 25-C , 28-C ) :   1.0755
B( 28-C , 29-H ) :   0.9716 B( 28-C , 30-H ) :   0.9750 B( 28-C , 31-H ) :   0.9775

Dispersion correction           -0.014167096
FINAL SINGLE POINT ENERGY     -1339.870420772500

DIPOLE MOMENT
-------------
                                X             Y             Z
Electronic contribution:     20.12515      15.68184     -11.96707
Nuclear contribution   :    -20.63261     -15.74869      12.40617
                        -----------------------------------------
Total Dipole Moment    :     -0.50746      -0.06684       0.43911
                        -----------------------------------------
Magnitude (a.u.)       :      0.67439
Magnitude (Debye)      :      1.71417

Rotational constants in cm-1:     0.017059     0.009427     0.006998
Rotational constants in MHz :   511.402477   282.615742   209.787774

                             ****ORCA TERMINATED NORMALLY****
TOTAL RUN TIME: 0 days 0 hours 0 minutes 21 seconds 530 msec
