                         Program Version 4.2.1 -  RELEASE  -
|  1> ! wB97X-D3 SP def2-SVP
|  2> %pal
|  3> nprocs 24
|  4> end
|  5>
|  6> * xyz 0 1
|  7> S 	 -88.4475 	 2.756 	 -117.197
|  8> C 	 -87.8652 	 1.09847 	 -117.393
|  9> C 	 -88.3329 	 0.477263 	 -118.521
| 10> C 	 -89.298 	 1.27642 	 -119.217
| 11> C 	 -89.4142 	 2.55292 	 -118.597
| 12> H 	 -89.8973 	 1.0005 	 -120.107
| 13> C 	 -87.9536 	 -0.980352 	 -118.92
| 14> H 	 -86.9222 	 -0.893279 	 -119.236
| 15> H 	 -88.5664 	 -1.36681 	 -119.729
| 16> C 	 -87.9084 	 -2.07584 	 -117.838
| 17> H 	 -87.4391 	 -2.96577 	 -118.288
| 18> H 	 -87.3879 	 -1.6834 	 -116.957
| 19> C 	 -89.2347 	 -2.62315 	 -117.401
| 20> H 	 -89.5775 	 -1.93063 	 -116.635
| 21> H 	 -90.0368 	 -2.78511 	 -118.176
| 22> H 	 -89.0623 	 -3.56156 	 -116.881
| 23> S 	 -89.1213 	 4.92984 	 -119.918
| 24> C 	 -90.4847 	 5.49784 	 -120.798
| 25> C 	 -91.6509 	 4.89402 	 -120.433
| 26> C 	 -91.4485 	 3.85021 	 -119.467
| 27> C 	 -90.0967 	 3.7129 	 -119.155
| 28> H 	 -92.5651 	 5.15318 	 -120.949
| 29> C 	 -92.5883 	 3.03051 	 -118.93
| 30> H 	 -92.3503 	 2.28832 	 -118.18
| 31> H 	 -92.8289 	 2.38366 	 -119.782
| 32> C 	 -93.8332 	 3.88126 	 -118.412
| 33> H 	 -94.2994 	 4.51936 	 -119.162
| 34> H 	 -93.4197 	 4.43001 	 -117.618
| 35> C 	 -94.9548 	 3.14044 	 -117.721
| 36> H 	 -95.7865 	 3.84367 	 -117.368
| 37> H 	 -94.5083 	 2.6473 	 -116.872
| 38> H 	 -95.3969 	 2.30184 	 -118.286
| 39> H 	 -86.9992 	 0.698646 	 -116.79
| 40> H 	 -90.3121 	 6.04546 	 -121.823
| 41> *
| 42>
| 43>                          ****END OF INPUT****

CARTESIAN COORDINATES (ANGSTROEM)
---------------------------------
  S    -88.447500    2.756000  -117.197000
  C    -87.865200    1.098470  -117.393000
  C    -88.332900    0.477263  -118.521000
  C    -89.298000    1.276420  -119.217000
  C    -89.414200    2.552920  -118.597000
  H    -89.897300    1.000500  -120.107000
  C    -87.953600   -0.980352  -118.920000
  H    -86.922200   -0.893279  -119.236000
  H    -88.566400   -1.366810  -119.729000
  C    -87.908400   -2.075840  -117.838000
  H    -87.439100   -2.965770  -118.288000
  H    -87.387900   -1.683400  -116.957000
  C    -89.234700   -2.623150  -117.401000
  H    -89.577500   -1.930630  -116.635000
  H    -90.036800   -2.785110  -118.176000
  H    -89.062300   -3.561560  -116.881000
  S    -89.121300    4.929840  -119.918000
  C    -90.484700    5.497840  -120.798000
  C    -91.650900    4.894020  -120.433000
  C    -91.448500    3.850210  -119.467000
  C    -90.096700    3.712900  -119.155000
  H    -92.565100    5.153180  -120.949000
  C    -92.588300    3.030510  -118.930000
  H    -92.350300    2.288320  -118.180000
  H    -92.828900    2.383660  -119.782000
  C    -93.833200    3.881260  -118.412000
  H    -94.299400    4.519360  -119.162000
  H    -93.419700    4.430010  -117.618000
  C    -94.954800    3.140440  -117.721000
  H    -95.786500    3.843670  -117.368000
  H    -94.508300    2.647300  -116.872000
  H    -95.396900    2.301840  -118.286000
  H    -86.999200    0.698646  -116.790000
  H    -90.312100    6.045460  -121.823000

 Total Charge           Charge          ....    0
 Multiplicity           Mult            ....    1
 Number of Electrons    NEL             ....  134
 Basis Dimension        Dim             ....  322

ORBITAL ENERGIES
----------------

  NO   OCC          E(Eh)            E(eV)
   0   2.0000     -88.968615     -2420.9591
   1   2.0000     -88.961659     -2420.7698
   2   2.0000     -10.328362      -281.0490
   3   2.0000     -10.319286      -280.8021
   4   2.0000     -10.318711      -280.7864
   5   2.0000     -10.313520      -280.6452
   6   2.0000     -10.304617      -280.4029
   7   2.0000     -10.304074      -280.3881
   8   2.0000     -10.300628      -280.2943
   9   2.0000     -10.294028      -280.1147
  10   2.0000     -10.293420      -280.0982
  11   2.0000     -10.292197      -280.0649
  12   2.0000     -10.286521      -279.9105
  13   2.0000     -10.284530      -279.8563
  14   2.0000     -10.280708      -279.7523
  15   2.0000     -10.273938      -279.5681
  16   2.0000      -8.083618      -219.9664
  17   2.0000      -8.077703      -219.8055
  18   2.0000      -6.041879      -164.4079
  19   2.0000      -6.038155      -164.3066
  20   2.0000      -6.036038      -164.2489
  21   2.0000      -6.034574      -164.2091
  22   2.0000      -6.032059      -164.1407
  23   2.0000      -6.028517      -164.0443
  24   2.0000      -1.008519       -27.4432
  25   2.0000      -0.984267       -26.7833
  26   2.0000      -0.911896       -24.8139
  27   2.0000      -0.905903       -24.6509
  28   2.0000      -0.868115       -23.6226
  29   2.0000      -0.854907       -23.2632
  30   2.0000      -0.847132       -23.0516
  31   2.0000      -0.808789       -22.0083
  32   2.0000      -0.785762       -21.3817
  33   2.0000      -0.768311       -20.9068
  34   2.0000      -0.700201       -19.0534
  35   2.0000      -0.693640       -18.8749
  36   2.0000      -0.688005       -18.7216
  37   2.0000      -0.653165       -17.7735
  38   2.0000      -0.632879       -17.2215
  39   2.0000      -0.610286       -16.6067
  40   2.0000      -0.595706       -16.2100
  41   2.0000      -0.576823       -15.6961
  42   2.0000      -0.566578       -15.4174
  43   2.0000      -0.549752       -14.9595
  44   2.0000      -0.542471       -14.7614
  45   2.0000      -0.520673       -14.1682
  46   2.0000      -0.517853       -14.0915
  47   2.0000      -0.511893       -13.9293
  48   2.0000      -0.506963       -13.7952
  49   2.0000      -0.488015       -13.2796
  50   2.0000      -0.480226       -13.0676
  51   2.0000      -0.475701       -12.9445
  52   2.0000      -0.472008       -12.8440
  53   2.0000      -0.464681       -12.6446
  54   2.0000      -0.456302       -12.4166
  55   2.0000      -0.451566       -12.2877
  56   2.0000      -0.444723       -12.1015
  57   2.0000      -0.439814       -11.9680
  58   2.0000      -0.429041       -11.6748
  59   2.0000      -0.424415       -11.5489
  60   2.0000      -0.420832       -11.4514
  61   2.0000      -0.419454       -11.4139
  62   2.0000      -0.408004       -11.1024
  63   2.0000      -0.338980        -9.2241
  64   2.0000      -0.332686        -9.0528
  65   2.0000      -0.322423        -8.7736
  66   2.0000      -0.293955        -7.9989
  67   0.0000       0.039054         1.0627
  68   0.0000       0.054780         1.4906
  69   0.0000       0.113197         3.0803
  70   0.0000       0.127828         3.4784
  71   0.0000       0.130974         3.5640

MULLIKEN ATOMIC CHARGES
-----------------------
   0 S :    0.121920
   1 C :   -0.158108
   2 C :   -0.085123
   3 C :    0.034898
   4 C :   -0.189556
   5 H :    0.028743
   6 C :    0.084484
   7 H :    0.037575
   8 H :    0.018086
   9 C :   -0.092450
  10 H :    0.031828
  11 H :    0.031129
  12 C :   -0.059669
  13 H :    0.031798
  14 H :    0.039910
  15 H :    0.029594
  16 S :    0.117308
  17 C :   -0.139730
  18 C :   -0.035325
  19 C :   -0.034863
  20 C :   -0.158652
  21 H :    0.022654
  22 C :    0.079809
  23 H :    0.020016
  24 H :    0.027231
  25 C :   -0.068670
  26 H :    0.036859
  27 H :    0.030307
  28 C :   -0.072296
  29 H :    0.052832
  30 H :    0.021182
  31 H :    0.028713
  32 H :    0.068304
  33 H :    0.099263
Sum of atomic charges:    0.0000000

LOEWDIN ATOMIC CHARGES
----------------------
   0 S :    0.421237
   1 C :   -0.215389
   2 C :   -0.062485
   3 C :   -0.064739
   4 C :   -0.204710
   5 H :    0.039048
   6 C :   -0.027319
   7 H :    0.036276
   8 H :    0.026997
   9 C :   -0.043765
  10 H :    0.027841
  11 H :    0.025251
  12 C :   -0.073112
  13 H :    0.025925
  14 H :    0.028998
  15 H :    0.025076
  16 S :    0.419524
  17 C :   -0.212209
  18 C :   -0.074404
  19 C :   -0.050065
  20 C :   -0.220370
  21 H :    0.032518
  22 C :   -0.032298
  23 H :    0.029768
  24 H :    0.033570
  25 C :   -0.037127
  26 H :    0.022341
  27 H :    0.024604
  28 C :   -0.071840
  29 H :    0.038751
  30 H :    0.020891
  31 H :    0.022161
  32 H :    0.035046
  33 H :    0.054006

  Mayer bond orders larger than 0.100000
B(  0-S ,  1-C ) :   1.1271 B(  0-S ,  4-C ) :   1.1876 B(  1-C ,  2-C ) :   1.6309
B(  1-C , 32-H ) :   0.9564 B(  2-C ,  3-C ) :   1.2491 B(  2-C ,  6-C ) :   1.0003
B(  3-C ,  4-C ) :   1.5500 B(  3-C ,  5-H ) :   0.9911 B(  4-C , 20-C ) :   1.0080
B(  6-C ,  7-H ) :   0.9312 B(  6-C ,  8-H ) :   0.9492 B(  6-C ,  9-C ) :   1.0884
B(  9-C , 10-H ) :   0.9567 B(  9-C , 11-H ) :   0.9520 B(  9-C , 12-C ) :   1.0784
B( 12-C , 13-H ) :   0.9769 B( 12-C , 14-H ) :   0.9738 B( 12-C , 15-H ) :   0.9741
B( 16-S , 17-C ) :   1.1682 B( 16-S , 20-C ) :   1.1438 B( 17-C , 18-C ) :   1.6216
B( 17-C , 33-H ) :   0.9469 B( 18-C , 19-C ) :   1.2254 B( 18-C , 21-H ) :   0.9935
B( 19-C , 20-C ) :   1.5996 B( 19-C , 22-C ) :   1.0489 B( 22-C , 23-H ) :   0.9389
B( 22-C , 24-H ) :   0.9232 B( 22-C , 25-C ) :   1.0466 B( 25-C , 26-H ) :   0.9570
B( 25-C , 27-H ) :   0.9589 B( 25-C , 28-C ) :   1.0907 B( 28-C , 29-H ) :   0.9727
B( 28-C , 30-H ) :   0.9738 B( 28-C , 31-H ) :   0.9746

Dispersion correction           -0.013662760
FINAL SINGLE POINT ENERGY     -1339.863280116894

DIPOLE MOMENT
-------------
                                X             Y             Z
Electronic contribution:     16.06076      21.12864      -3.77129
Nuclear contribution   :    -16.32805     -21.65036       3.46101
                        -----------------------------------------
Total Dipole Moment    :     -0.26729      -0.52172      -0.31028
                        -----------------------------------------
Magnitude (a.u.)       :      0.66325
Magnitude (Debye)      :      1.68586

Rotational constants in cm-1:     0.018144     0.007965     0.006336
Rotational constants in MHz :   543.944388   238.798870   189.949111

                             ****ORCA TERMINATED NORMALLY****
TOTAL RUN TIME: 0 days 0 hours 0 minutes 20 seconds 797 msec
