                         Program Version 4.2.1 -  RELEASE  -
|  1> ! wB97X-D3 SP def2-SVP
|  2> %pal
|  3> nprocs 24
|  4> end
|  5>
|  6> * xyz 0 1
|  7> S 	 -48.2134 	 22.4263 	 33.8035
|  8> C 	 -46.7932 	 23.0857 	 34.6364
|  9> C 	 -45.7863 	 22.1039 	 34.6042
| 10> C 	 -46.1837 	 20.9369 	 33.9826
| 11> C 	 -47.4534 	 20.9138 	 33.4546
| 12> H 	 -45.5577 	 20.0467 	 33.7632
| 13> C 	 -44.3046 	 22.285 	 35.138
| 14> H 	 -43.7212 	 22.8276 	 34.4478
| 15> H 	 -43.8912 	 21.2579 	 35.214
| 16> C 	 -44.146 	 22.9867 	 36.4752
| 17> H 	 -44.737 	 23.9078 	 36.5006
| 18> H 	 -44.5518 	 22.2984 	 37.218
| 19> C 	 -42.7134 	 23.2227 	 36.9936
| 20> H 	 -42.2407 	 24.063 	 36.5157
| 21> H 	 -42.6779 	 23.7177 	 38.0186
| 22> H 	 -42.0998 	 22.3226 	 37.1766
| 23> S 	 -49.1 	 20.2868 	 31.2348
| 24> C 	 -49.7181 	 18.6334 	 31.1346
| 25> C 	 -49.2561 	 17.8486 	 32.1397
| 26> C 	 -48.3147 	 18.5007 	 32.9808
| 27> C 	 -48.0694 	 19.8712 	 32.659
| 28> H 	 -49.576 	 16.8408 	 32.2585
| 29> C 	 -47.8293 	 17.8776 	 34.2597
| 30> H 	 -46.7473 	 18.171 	 34.3991
| 31> H 	 -47.7661 	 16.7865 	 33.8962
| 32> C 	 -48.7669 	 18.237 	 35.3652
| 33> H 	 -49.7156 	 17.679 	 35.2347
| 34> H 	 -49.1251 	 19.2598 	 35.2986
| 35> C 	 -48.0843 	 17.9298 	 36.753
| 36> H 	 -48.5651 	 18.4332 	 37.6164
| 37> H 	 -47.0359 	 18.1903 	 36.8484
| 38> H 	 -48.2878 	 16.9238 	 37.0551
| 39> H 	 -46.685 	 24.0043 	 35.2212
| 40> H 	 -50.4965 	 18.2763 	 30.4308
| 41> *
| 42>
| 43>                          ****END OF INPUT****

CARTESIAN COORDINATES (ANGSTROEM)
---------------------------------
  S    -48.213400   22.426300   33.803500
  C    -46.793200   23.085700   34.636400
  C    -45.786300   22.103900   34.604200
  C    -46.183700   20.936900   33.982600
  C    -47.453400   20.913800   33.454600
  H    -45.557700   20.046700   33.763200
  C    -44.304600   22.285000   35.138000
  H    -43.721200   22.827600   34.447800
  H    -43.891200   21.257900   35.214000
  C    -44.146000   22.986700   36.475200
  H    -44.737000   23.907800   36.500600
  H    -44.551800   22.298400   37.218000
  C    -42.713400   23.222700   36.993600
  H    -42.240700   24.063000   36.515700
  H    -42.677900   23.717700   38.018600
  H    -42.099800   22.322600   37.176600
  S    -49.100000   20.286800   31.234800
  C    -49.718100   18.633400   31.134600
  C    -49.256100   17.848600   32.139700
  C    -48.314700   18.500700   32.980800
  C    -48.069400   19.871200   32.659000
  H    -49.576000   16.840800   32.258500
  C    -47.829300   17.877600   34.259700
  H    -46.747300   18.171000   34.399100
  H    -47.766100   16.786500   33.896200
  C    -48.766900   18.237000   35.365200
  H    -49.715600   17.679000   35.234700
  H    -49.125100   19.259800   35.298600
  C    -48.084300   17.929800   36.753000
  H    -48.565100   18.433200   37.616400
  H    -47.035900   18.190300   36.848400
  H    -48.287800   16.923800   37.055100
  H    -46.685000   24.004300   35.221200
  H    -50.496500   18.276300   30.430800

 Total Charge           Charge          ....    0
 Multiplicity           Mult            ....    1
 Number of Electrons    NEL             ....  134
 Basis Dimension        Dim             ....  322

ORBITAL ENERGIES
----------------

  NO   OCC          E(Eh)            E(eV)
   0   2.0000     -88.970253     -2421.0037
   1   2.0000     -88.967475     -2420.9281
   2   2.0000     -10.332574      -281.1636
   3   2.0000     -10.329308      -281.0748
   4   2.0000     -10.321916      -280.8736
   5   2.0000     -10.319987      -280.8211
   6   2.0000     -10.305006      -280.4135
   7   2.0000     -10.304573      -280.4017
   8   2.0000     -10.296149      -280.1725
   9   2.0000     -10.294413      -280.1252
  10   2.0000     -10.291386      -280.0428
  11   2.0000     -10.290140      -280.0090
  12   2.0000     -10.289209      -279.9836
  13   2.0000     -10.289025      -279.9786
  14   2.0000     -10.285570      -279.8846
  15   2.0000     -10.275971      -279.6234
  16   2.0000      -8.084399      -219.9877
  17   2.0000      -8.080876      -219.8918
  18   2.0000      -6.042887      -164.4353
  19   2.0000      -6.039468      -164.3423
  20   2.0000      -6.038800      -164.3241
  21   2.0000      -6.035571      -164.2362
  22   2.0000      -6.035369      -164.2307
  23   2.0000      -6.031623      -164.1288
  24   2.0000      -1.006614       -27.3914
  25   2.0000      -0.982499       -26.7352
  26   2.0000      -0.909874       -24.7589
  27   2.0000      -0.908914       -24.7328
  28   2.0000      -0.870202       -23.6794
  29   2.0000      -0.849022       -23.1031
  30   2.0000      -0.842790       -22.9335
  31   2.0000      -0.813966       -22.1492
  32   2.0000      -0.784716       -21.3532
  33   2.0000      -0.767681       -20.8897
  34   2.0000      -0.712319       -19.3832
  35   2.0000      -0.703427       -19.1412
  36   2.0000      -0.692156       -18.8345
  37   2.0000      -0.659998       -17.9595
  38   2.0000      -0.639580       -17.4038
  39   2.0000      -0.616309       -16.7706
  40   2.0000      -0.591453       -16.0942
  41   2.0000      -0.575718       -15.6661
  42   2.0000      -0.568833       -15.4787
  43   2.0000      -0.555902       -15.1269
  44   2.0000      -0.524061       -14.2604
  45   2.0000      -0.519380       -14.1330
  46   2.0000      -0.514468       -13.9994
  47   2.0000      -0.508739       -13.8435
  48   2.0000      -0.506426       -13.7805
  49   2.0000      -0.500911       -13.6305
  50   2.0000      -0.495998       -13.4968
  51   2.0000      -0.480544       -13.0763
  52   2.0000      -0.473804       -12.8929
  53   2.0000      -0.466968       -12.7068
  54   2.0000      -0.457772       -12.4566
  55   2.0000      -0.446917       -12.1612
  56   2.0000      -0.445109       -12.1120
  57   2.0000      -0.436365       -11.8741
  58   2.0000      -0.432224       -11.7614
  59   2.0000      -0.419124       -11.4049
  60   2.0000      -0.418302       -11.3826
  61   2.0000      -0.409284       -11.1372
  62   2.0000      -0.403100       -10.9689
  63   2.0000      -0.350192        -9.5292
  64   2.0000      -0.336200        -9.1485
  65   2.0000      -0.333032        -9.0623
  66   2.0000      -0.285975        -7.7818
  67   0.0000       0.020796         0.5659
  68   0.0000       0.066609         1.8125
  69   0.0000       0.110759         3.0139
  70   0.0000       0.124799         3.3960
  71   0.0000       0.133859         3.6425

MULLIKEN ATOMIC CHARGES
-----------------------
   0 S :    0.119620
   1 C :   -0.141304
   2 C :   -0.069817
   3 C :   -0.005039
   4 C :   -0.150129
   5 H :    0.027222
   6 C :    0.100189
   7 H :    0.030568
   8 H :    0.022986
   9 C :   -0.100483
  10 H :    0.029749
  11 H :    0.030886
  12 C :   -0.069114
  13 H :    0.026320
  14 H :    0.026185
  15 H :    0.047589
  16 S :    0.093087
  17 C :   -0.095773
  18 C :   -0.015252
  19 C :   -0.086176
  20 C :   -0.144189
  21 H :    0.010431
  22 C :    0.034647
  23 H :    0.028831
  24 H :    0.039523
  25 C :   -0.039272
  26 H :    0.027196
  27 H :    0.043620
  28 C :   -0.036477
  29 H :    0.022156
  30 H :    0.039146
  31 H :    0.022942
  32 H :    0.059419
  33 H :    0.070713
Sum of atomic charges:    0.0000000

LOEWDIN ATOMIC CHARGES
----------------------
   0 S :    0.419137
   1 C :   -0.204211
   2 C :   -0.060911
   3 C :   -0.079024
   4 C :   -0.201683
   5 H :    0.036571
   6 C :   -0.022242
   7 H :    0.024330
   8 H :    0.031722
   9 C :   -0.047254
  10 H :    0.022852
  11 H :    0.026939
  12 C :   -0.080313
  13 H :    0.021868
  14 H :    0.036764
  15 H :    0.030734
  16 S :    0.376764
  17 C :   -0.176798
  18 C :   -0.077369
  19 C :   -0.049176
  20 C :   -0.191783
  21 H :    0.029758
  22 C :   -0.043984
  23 H :    0.032148
  24 H :    0.039859
  25 C :   -0.037217
  26 H :    0.031967
  27 H :    0.029007
  28 C :   -0.069552
  29 H :    0.028859
  30 H :    0.025178
  31 H :    0.022669
  32 H :    0.034330
  33 H :    0.040061

  Mayer bond orders larger than 0.100000
B(  0-S ,  1-C ) :   1.1448 B(  0-S ,  4-C ) :   1.1588 B(  1-C ,  2-C ) :   1.5630
B(  1-C ,  4-C ) :   0.1113 B(  1-C , 32-H ) :   0.9694 B(  2-C ,  3-C ) :   1.3053
B(  2-C ,  6-C ) :   0.9954 B(  3-C ,  4-C ) :   1.5393 B(  3-C ,  5-H ) :   0.9831
B(  4-C , 20-C ) :   1.0766 B(  6-C ,  7-H ) :   0.9421 B(  6-C ,  8-H ) :   0.9472
B(  6-C ,  9-C ) :   1.0624 B(  9-C , 10-H ) :   0.9539 B(  9-C , 11-H ) :   0.9596
B(  9-C , 12-C ) :   1.0921 B( 12-C , 13-H ) :   0.9712 B( 12-C , 14-H ) :   0.9677
B( 12-C , 15-H ) :   0.9746 B( 16-S , 17-C ) :   1.1557 B( 16-S , 20-C ) :   1.1185
B( 17-C , 18-C ) :   1.6060 B( 17-C , 33-H ) :   0.9582 B( 18-C , 19-C ) :   1.2706
B( 18-C , 21-H ) :   0.9917 B( 19-C , 20-C ) :   1.5542 B( 19-C , 22-C ) :   1.0375
B( 22-C , 23-H ) :   0.9381 B( 22-C , 24-H ) :   0.9312 B( 22-C , 25-C ) :   1.0424
B( 25-C , 26-H ) :   0.9488 B( 25-C , 27-H ) :   0.9626 B( 25-C , 28-C ) :   1.0653
B( 28-C , 29-H ) :   0.9738 B( 28-C , 30-H ) :   0.9804 B( 28-C , 31-H ) :   0.9753

Dispersion correction           -0.014237969
FINAL SINGLE POINT ENERGY     -1339.862626083076

DIPOLE MOMENT
-------------
                                X             Y             Z
Electronic contribution:    -17.45452       4.79528     -24.12540
Nuclear contribution   :     17.66610      -5.14444      24.63240
                        -----------------------------------------
Total Dipole Moment    :      0.21158      -0.34916       0.50701
                        -----------------------------------------
Magnitude (a.u.)       :      0.65095
Magnitude (Debye)      :      1.65458

Rotational constants in cm-1:     0.021692     0.007769     0.006412
Rotational constants in MHz :   650.312554   232.904008   192.220429

                             ****ORCA TERMINATED NORMALLY****
TOTAL RUN TIME: 0 days 0 hours 0 minutes 21 seconds 568 msec
