                         Program Version 4.2.1 -  RELEASE  -
|  1> ! wB97X-D3 SP def2-SVP
|  2> %pal
|  3> nprocs 24
|  4> end
|  5>
|  6> * xyz 0 1
|  7> S 	 -54.137 	 13.4246 	 -92.5399
|  8> C 	 -52.3905 	 13.5077 	 -92.3237
|  9> C 	 -51.8046 	 13.1891 	 -93.5077
| 10> C 	 -52.7898 	 12.8248 	 -94.5317
| 11> C 	 -54.0876 	 12.8149 	 -94.1326
| 12> H 	 -52.6323 	 12.6965 	 -95.6241
| 13> C 	 -50.3176 	 13.4511 	 -93.7923
| 14> H 	 -50.0366 	 12.8427 	 -94.6343
| 15> H 	 -49.6656 	 13.0549 	 -92.9596
| 16> C 	 -49.6729 	 14.8429 	 -94.0079
| 17> H 	 -49.5023 	 15.4018 	 -93.0676
| 18> H 	 -48.6024 	 14.686 	 -94.3258
| 19> C 	 -50.3335 	 15.607 	 -95.1252
| 20> H 	 -51.3819 	 15.5973 	 -95.1008
| 21> H 	 -50.0699 	 16.6413 	 -95.0102
| 22> H 	 -49.999 	 15.2259 	 -96.1326
| 23> S 	 -56.5444 	 13.9398 	 -94.9016
| 24> C 	 -57.4577 	 13.0378 	 -96.0913
| 25> C 	 -56.8284 	 11.8082 	 -96.4044
| 26> C 	 -55.5795 	 11.6034 	 -95.7823
| 27> C 	 -55.3022 	 12.5897 	 -94.855
| 28> H 	 -57.2849 	 11.0577 	 -97.0385
| 29> C 	 -54.8177 	 10.3283 	 -96.0303
| 30> H 	 -53.737 	 10.5762 	 -96.2071
| 31> H 	 -55.3147 	 9.88901 	 -96.9152
| 32> C 	 -54.8143 	 9.28496 	 -94.9177
| 33> H 	 -55.8502 	 9.13434 	 -94.6987
| 34> H 	 -54.3088 	 9.64328 	 -93.9802
| 35> C 	 -53.9067 	 8.06843 	 -95.2375
| 36> H 	 -53.0819 	 8.25805 	 -95.9577
| 37> H 	 -54.3387 	 7.24156 	 -95.786
| 38> H 	 -53.5531 	 7.62683 	 -94.2989
| 39> H 	 -51.866 	 13.7534 	 -91.4493
| 40> H 	 -58.4432 	 13.289 	 -96.3626
| 41> *
| 42>
| 43>                          ****END OF INPUT****

CARTESIAN COORDINATES (ANGSTROEM)
---------------------------------
  S    -54.137000   13.424600  -92.539900
  C    -52.390500   13.507700  -92.323700
  C    -51.804600   13.189100  -93.507700
  C    -52.789800   12.824800  -94.531700
  C    -54.087600   12.814900  -94.132600
  H    -52.632300   12.696500  -95.624100
  C    -50.317600   13.451100  -93.792300
  H    -50.036600   12.842700  -94.634300
  H    -49.665600   13.054900  -92.959600
  C    -49.672900   14.842900  -94.007900
  H    -49.502300   15.401800  -93.067600
  H    -48.602400   14.686000  -94.325800
  C    -50.333500   15.607000  -95.125200
  H    -51.381900   15.597300  -95.100800
  H    -50.069900   16.641300  -95.010200
  H    -49.999000   15.225900  -96.132600
  S    -56.544400   13.939800  -94.901600
  C    -57.457700   13.037800  -96.091300
  C    -56.828400   11.808200  -96.404400
  C    -55.579500   11.603400  -95.782300
  C    -55.302200   12.589700  -94.855000
  H    -57.284900   11.057700  -97.038500
  C    -54.817700   10.328300  -96.030300
  H    -53.737000   10.576200  -96.207100
  H    -55.314700    9.889010  -96.915200
  C    -54.814300    9.284960  -94.917700
  H    -55.850200    9.134340  -94.698700
  H    -54.308800    9.643280  -93.980200
  C    -53.906700    8.068430  -95.237500
  H    -53.081900    8.258050  -95.957700
  H    -54.338700    7.241560  -95.786000
  H    -53.553100    7.626830  -94.298900
  H    -51.866000   13.753400  -91.449300
  H    -58.443200   13.289000  -96.362600

 Total Charge           Charge          ....    0
 Multiplicity           Mult            ....    1
 Number of Electrons    NEL             ....  134
 Basis Dimension        Dim             ....  322

ORBITAL ENERGIES
----------------

  NO   OCC          E(Eh)            E(eV)
   0   2.0000     -88.971271     -2421.0314
   1   2.0000     -88.959991     -2420.7244
   2   2.0000     -10.331387      -281.1313
   3   2.0000     -10.323584      -280.9190
   4   2.0000     -10.322020      -280.8765
   5   2.0000     -10.311542      -280.5913
   6   2.0000     -10.305790      -280.4348
   7   2.0000     -10.303400      -280.3698
   8   2.0000     -10.298085      -280.2251
   9   2.0000     -10.296657      -280.1863
  10   2.0000     -10.296512      -280.1823
  11   2.0000     -10.294041      -280.1151
  12   2.0000     -10.291093      -280.0349
  13   2.0000     -10.287601      -279.9399
  14   2.0000     -10.280043      -279.7342
  15   2.0000     -10.269283      -279.4414
  16   2.0000      -8.084566      -219.9922
  17   2.0000      -8.075798      -219.7536
  18   2.0000      -6.043113      -164.4415
  19   2.0000      -6.039262      -164.3367
  20   2.0000      -6.035383      -164.2311
  21   2.0000      -6.034351      -164.2030
  22   2.0000      -6.030069      -164.0865
  23   2.0000      -6.026494      -163.9892
  24   2.0000      -1.010502       -27.4972
  25   2.0000      -0.982629       -26.7387
  26   2.0000      -0.909953       -24.7611
  27   2.0000      -0.908836       -24.7307
  28   2.0000      -0.874048       -23.7840
  29   2.0000      -0.854270       -23.2459
  30   2.0000      -0.838699       -22.8222
  31   2.0000      -0.812620       -22.1125
  32   2.0000      -0.784772       -21.3547
  33   2.0000      -0.776525       -21.1303
  34   2.0000      -0.711744       -19.3675
  35   2.0000      -0.700552       -19.0630
  36   2.0000      -0.693783       -18.8788
  37   2.0000      -0.667347       -18.1594
  38   2.0000      -0.644252       -17.5310
  39   2.0000      -0.608678       -16.5630
  40   2.0000      -0.595673       -16.2091
  41   2.0000      -0.568924       -15.4812
  42   2.0000      -0.567331       -15.4379
  43   2.0000      -0.546760       -14.8781
  44   2.0000      -0.543317       -14.7844
  45   2.0000      -0.527247       -14.3471
  46   2.0000      -0.518552       -14.1105
  47   2.0000      -0.512423       -13.9437
  48   2.0000      -0.507374       -13.8063
  49   2.0000      -0.500349       -13.6152
  50   2.0000      -0.493346       -13.4246
  51   2.0000      -0.481484       -13.1019
  52   2.0000      -0.471953       -12.8425
  53   2.0000      -0.463744       -12.6191
  54   2.0000      -0.452585       -12.3155
  55   2.0000      -0.447942       -12.1891
  56   2.0000      -0.442355       -12.0371
  57   2.0000      -0.436095       -11.8668
  58   2.0000      -0.429183       -11.6787
  59   2.0000      -0.424655       -11.5555
  60   2.0000      -0.417882       -11.3712
  61   2.0000      -0.409718       -11.1490
  62   2.0000      -0.404347       -11.0028
  63   2.0000      -0.351196        -9.5565
  64   2.0000      -0.336428        -9.1547
  65   2.0000      -0.324936        -8.8420
  66   2.0000      -0.292461        -7.9583
  67   0.0000       0.022439         0.6106
  68   0.0000       0.063379         1.7246
  69   0.0000       0.108066         2.9406
  70   0.0000       0.118046         3.2122
  71   0.0000       0.124434         3.3860

MULLIKEN ATOMIC CHARGES
-----------------------
   0 S :    0.085751
   1 C :   -0.087378
   2 C :   -0.076954
   3 C :    0.006445
   4 C :   -0.161621
   5 H :    0.029485
   6 C :    0.036930
   7 H :    0.015909
   8 H :    0.031001
   9 C :   -0.083991
  10 H :    0.029059
  11 H :    0.031821
  12 C :   -0.031006
  13 H :    0.031454
  14 H :    0.024195
  15 H :    0.034490
  16 S :    0.105356
  17 C :   -0.074261
  18 C :   -0.041745
  19 C :   -0.033304
  20 C :   -0.127672
  21 H :    0.018890
  22 C :    0.055057
  23 H :    0.027179
  24 H :    0.024901
  25 C :   -0.056943
  26 H :    0.026894
  27 H :    0.046655
  28 C :   -0.057171
  29 H :    0.030700
  30 H :    0.019823
  31 H :    0.040482
  32 H :    0.031401
  33 H :    0.048169
Sum of atomic charges:    0.0000000

LOEWDIN ATOMIC CHARGES
----------------------
   0 S :    0.411470
   1 C :   -0.176103
   2 C :   -0.067173
   3 C :   -0.075450
   4 C :   -0.209469
   5 H :    0.035926
   6 C :   -0.041865
   7 H :    0.025425
   8 H :    0.038148
   9 C :   -0.047125
  10 H :    0.022163
  11 H :    0.033473
  12 C :   -0.066415
  13 H :    0.018347
  14 H :    0.025636
  15 H :    0.031746
  16 S :    0.381962
  17 C :   -0.174774
  18 C :   -0.068316
  19 C :   -0.054440
  20 C :   -0.175625
  21 H :    0.029828
  22 C :   -0.033549
  23 H :    0.034300
  24 H :    0.032647
  25 C :   -0.039365
  26 H :    0.021522
  27 H :    0.035859
  28 C :   -0.074562
  29 H :    0.031568
  30 H :    0.021039
  31 H :    0.029900
  32 H :    0.023337
  33 H :    0.019937

  Mayer bond orders larger than 0.100000
B(  0-S ,  1-C ) :   1.1293 B(  0-S ,  4-C ) :   1.1470 B(  1-C ,  2-C ) :   1.6144
B(  1-C , 32-H ) :   0.9854 B(  2-C ,  3-C ) :   1.2129 B(  2-C ,  6-C ) :   1.0307
B(  3-C ,  4-C ) :   1.5986 B(  3-C ,  5-H ) :   0.9831 B(  4-C , 20-C ) :   1.0411
B(  6-C ,  7-H ) :   0.9418 B(  6-C ,  8-H ) :   0.9390 B(  6-C ,  9-C ) :   1.0732
B(  9-C , 10-H ) :   0.9594 B(  9-C , 11-H ) :   0.9495 B(  9-C , 12-C ) :   1.0738
B( 12-C , 13-H ) :   0.9795 B( 12-C , 14-H ) :   0.9708 B( 12-C , 15-H ) :   0.9752
B( 16-S , 17-C ) :   1.1648 B( 16-S , 20-C ) :   1.1196 B( 17-C , 18-C ) :   1.5820
B( 17-C , 20-C ) :   0.1126 B( 17-C , 33-H ) :   0.9712 B( 18-C , 19-C ) :   1.2600
B( 18-C , 21-H ) :   0.9831 B( 19-C , 20-C ) :   1.5891 B( 19-C , 22-C ) :   1.0523
B( 22-C , 23-H ) :   0.9186 B( 22-C , 24-H ) :   0.9342 B( 22-C , 25-C ) :   1.0766
B( 25-C , 26-H ) :   0.9565 B( 25-C , 27-H ) :   0.9599 B( 25-C , 28-C ) :   1.0550
B( 28-C , 29-H ) :   0.9726 B( 28-C , 30-H ) :   0.9737 B( 28-C , 31-H ) :   0.9806

Dispersion correction           -0.014252432
FINAL SINGLE POINT ENERGY     -1339.862835674668

DIPOLE MOMENT
-------------
                                X             Y             Z
Electronic contribution:    -20.18345      10.53362       7.51122
Nuclear contribution   :     20.53299     -10.81260      -7.82596
                        -----------------------------------------
Total Dipole Moment    :      0.34954      -0.27898      -0.31474
                        -----------------------------------------
Magnitude (a.u.)       :      0.54687
Magnitude (Debye)      :      1.39003

Rotational constants in cm-1:     0.017644     0.008780     0.007186
Rotational constants in MHz :   528.967840   263.225159   215.431808

                             ****ORCA TERMINATED NORMALLY****
TOTAL RUN TIME: 0 days 0 hours 0 minutes 20 seconds 293 msec
