                         Program Version 4.2.1 -  RELEASE  -
|  1> ! wB97X-D3 SP def2-SVP
|  2> %pal
|  3> nprocs 24
|  4> end
|  5>
|  6> * xyz 0 1
|  7> S 	 -126.25 	 26.2027 	 -110.48
|  8> C 	 -124.678 	 25.7969 	 -109.95
|  9> C 	 -123.783 	 25.576 	 -111.044
| 10> C 	 -124.451 	 25.8983 	 -112.275
| 11> C 	 -125.763 	 26.334 	 -112.205
| 12> H 	 -124.165 	 25.6401 	 -113.327
| 13> C 	 -122.434 	 24.8747 	 -110.979
| 14> H 	 -122.477 	 24.191 	 -111.843
| 15> H 	 -122.313 	 24.2971 	 -110.023
| 16> C 	 -121.148 	 25.7786 	 -111.228
| 17> H 	 -121.308 	 26.6526 	 -110.577
| 18> H 	 -120.277 	 25.1519 	 -110.977
| 19> C 	 -121.12 	 26.3489 	 -112.671
| 20> H 	 -120.308 	 27.0568 	 -112.75
| 21> H 	 -121 	 25.5544 	 -113.419
| 22> H 	 -121.922 	 26.9775 	 -112.909
| 23> S 	 -128.315 	 25.9036 	 -113.205
| 24> C 	 -128.759 	 26.6266 	 -114.718
| 25> C 	 -127.675 	 27.1977 	 -115.375
| 26> C 	 -126.535 	 27.238 	 -114.537
| 27> C 	 -126.685 	 26.5644 	 -113.319
| 28> H 	 -127.898 	 27.4563 	 -116.404
| 29> C 	 -125.24 	 27.8665 	 -115.065
| 30> H 	 -125.403 	 28.1815 	 -116.13
| 31> H 	 -124.529 	 27.0399 	 -115.184
| 32> C 	 -124.723 	 29.0681 	 -114.302
| 33> H 	 -124.282 	 28.7582 	 -113.329
| 34> H 	 -125.556 	 29.7727 	 -114.031
| 35> C 	 -123.49 	 29.7756 	 -114.933
| 36> H 	 -122.628 	 29.1233 	 -115.014
| 37> H 	 -123.203 	 30.7252 	 -114.378
| 38> H 	 -123.581 	 30.1338 	 -115.907
| 39> H 	 -124.347 	 25.5529 	 -108.975
| 40> H 	 -129.819 	 26.5868 	 -115.063
| 41> *
| 42>
| 43>                          ****END OF INPUT****

CARTESIAN COORDINATES (ANGSTROEM)
---------------------------------
  S    -126.250000   26.202700  -110.480000
  C    -124.678000   25.796900  -109.950000
  C    -123.783000   25.576000  -111.044000
  C    -124.451000   25.898300  -112.275000
  C    -125.763000   26.334000  -112.205000
  H    -124.165000   25.640100  -113.327000
  C    -122.434000   24.874700  -110.979000
  H    -122.477000   24.191000  -111.843000
  H    -122.313000   24.297100  -110.023000
  C    -121.148000   25.778600  -111.228000
  H    -121.308000   26.652600  -110.577000
  H    -120.277000   25.151900  -110.977000
  C    -121.120000   26.348900  -112.671000
  H    -120.308000   27.056800  -112.750000
  H    -121.000000   25.554400  -113.419000
  H    -121.922000   26.977500  -112.909000
  S    -128.315000   25.903600  -113.205000
  C    -128.759000   26.626600  -114.718000
  C    -127.675000   27.197700  -115.375000
  C    -126.535000   27.238000  -114.537000
  C    -126.685000   26.564400  -113.319000
  H    -127.898000   27.456300  -116.404000
  C    -125.240000   27.866500  -115.065000
  H    -125.403000   28.181500  -116.130000
  H    -124.529000   27.039900  -115.184000
  C    -124.723000   29.068100  -114.302000
  H    -124.282000   28.758200  -113.329000
  H    -125.556000   29.772700  -114.031000
  C    -123.490000   29.775600  -114.933000
  H    -122.628000   29.123300  -115.014000
  H    -123.203000   30.725200  -114.378000
  H    -123.581000   30.133800  -115.907000
  H    -124.347000   25.552900  -108.975000
  H    -129.819000   26.586800  -115.063000

 Total Charge           Charge          ....    0
 Multiplicity           Mult            ....    1
 Number of Electrons    NEL             ....  134
 Basis Dimension        Dim             ....  322

ORBITAL ENERGIES
----------------

  NO   OCC          E(Eh)            E(eV)
   0   2.0000     -88.969206     -2420.9752
   1   2.0000     -88.966756     -2420.9085
   2   2.0000     -10.333745      -281.1955
   3   2.0000     -10.331678      -281.1392
   4   2.0000     -10.320561      -280.8367
   5   2.0000     -10.316842      -280.7356
   6   2.0000     -10.308608      -280.5115
   7   2.0000     -10.308291      -280.5029
   8   2.0000     -10.300679      -280.2957
   9   2.0000     -10.298770      -280.2438
  10   2.0000     -10.296381      -280.1788
  11   2.0000     -10.295806      -280.1631
  12   2.0000     -10.294812      -280.1361
  13   2.0000     -10.289832      -280.0006
  14   2.0000     -10.276201      -279.6296
  15   2.0000     -10.274730      -279.5896
  16   2.0000      -8.083444      -219.9617
  17   2.0000      -8.081684      -219.9138
  18   2.0000      -6.041978      -164.4106
  19   2.0000      -6.040045      -164.3580
  20   2.0000      -6.037940      -164.3007
  21   2.0000      -6.036149      -164.2520
  22   2.0000      -6.034282      -164.2012
  23   2.0000      -6.032616      -164.1558
  24   2.0000      -1.004702       -27.3393
  25   2.0000      -0.983322       -26.7575
  26   2.0000      -0.904847       -24.6221
  27   2.0000      -0.903589       -24.5879
  28   2.0000      -0.869826       -23.6692
  29   2.0000      -0.850924       -23.1548
  30   2.0000      -0.843018       -22.9397
  31   2.0000      -0.814859       -22.1734
  32   2.0000      -0.782372       -21.2894
  33   2.0000      -0.770664       -20.9708
  34   2.0000      -0.707579       -19.2542
  35   2.0000      -0.700115       -19.0511
  36   2.0000      -0.690078       -18.7780
  37   2.0000      -0.661693       -18.0056
  38   2.0000      -0.638955       -17.3869
  39   2.0000      -0.613888       -16.7047
  40   2.0000      -0.590777       -16.0759
  41   2.0000      -0.574498       -15.6329
  42   2.0000      -0.561005       -15.2657
  43   2.0000      -0.546048       -14.8587
  44   2.0000      -0.535287       -14.5659
  45   2.0000      -0.522175       -14.2091
  46   2.0000      -0.515665       -14.0320
  47   2.0000      -0.507455       -13.8086
  48   2.0000      -0.505373       -13.7519
  49   2.0000      -0.503320       -13.6960
  50   2.0000      -0.492989       -13.4149
  51   2.0000      -0.477737       -12.9999
  52   2.0000      -0.472410       -12.8549
  53   2.0000      -0.463513       -12.6128
  54   2.0000      -0.457007       -12.4358
  55   2.0000      -0.445975       -12.1356
  56   2.0000      -0.441121       -12.0035
  57   2.0000      -0.438146       -11.9226
  58   2.0000      -0.432661       -11.7733
  59   2.0000      -0.423986       -11.5373
  60   2.0000      -0.421964       -11.4822
  61   2.0000      -0.415542       -11.3075
  62   2.0000      -0.405549       -11.0355
  63   2.0000      -0.353258        -9.6126
  64   2.0000      -0.335070        -9.1177
  65   2.0000      -0.325464        -8.8563
  66   2.0000      -0.284981        -7.7547
  67   0.0000       0.020847         0.5673
  68   0.0000       0.070572         1.9204
  69   0.0000       0.101663         2.7664
  70   0.0000       0.119945         3.2639
  71   0.0000       0.125632         3.4186

MULLIKEN ATOMIC CHARGES
-----------------------
   0 S :    0.115059
   1 C :   -0.083592
   2 C :   -0.105906
   3 C :   -0.001008
   4 C :   -0.146721
   5 H :    0.034059
   6 C :    0.026405
   7 H :    0.033739
   8 H :    0.037787
   9 C :   -0.069173
  10 H :    0.035847
  11 H :    0.046219
  12 C :   -0.046601
  13 H :    0.025361
  14 H :    0.033550
  15 H :    0.025430
  16 S :    0.105625
  17 C :   -0.129770
  18 C :   -0.036649
  19 C :   -0.032540
  20 C :   -0.145556
  21 H :    0.028745
  22 C :    0.055372
  23 H :    0.018984
  24 H :    0.030830
  25 C :   -0.082120
  26 H :    0.045489
  27 H :    0.045138
  28 C :   -0.045617
  29 H :    0.024583
  30 H :    0.040577
  31 H :    0.006149
  32 H :    0.034141
  33 H :    0.076160
Sum of atomic charges:   -0.0000000

LOEWDIN ATOMIC CHARGES
----------------------
   0 S :    0.408925
   1 C :   -0.203016
   2 C :   -0.067096
   3 C :   -0.070737
   4 C :   -0.189320
   5 H :    0.038872
   6 C :   -0.037774
   7 H :    0.032953
   8 H :    0.034067
   9 C :   -0.035083
  10 H :    0.027558
  11 H :    0.027875
  12 C :   -0.066655
  13 H :    0.027175
  14 H :    0.024709
  15 H :    0.018906
  16 S :    0.408591
  17 C :   -0.190644
  18 C :   -0.077117
  19 C :   -0.055011
  20 C :   -0.197376
  21 H :    0.038725
  22 C :   -0.036374
  23 H :    0.032858
  24 H :    0.028927
  25 C :   -0.047057
  26 H :    0.030156
  27 H :    0.033729
  28 C :   -0.069858
  29 H :    0.023164
  30 H :    0.036819
  31 H :    0.009746
  32 H :    0.023053
  33 H :    0.036305

  Mayer bond orders larger than 0.100000
B(  0-S ,  1-C ) :   1.1687 B(  0-S ,  4-C ) :   1.1312 B(  1-C ,  2-C ) :   1.5692
B(  1-C ,  4-C ) :   0.1017 B(  1-C , 32-H ) :   0.9701 B(  2-C ,  3-C ) :   1.2643
B(  2-C ,  6-C ) :   1.0212 B(  3-C ,  4-C ) :   1.5699 B(  3-C ,  5-H ) :   0.9715
B(  4-C , 20-C ) :   1.0783 B(  6-C ,  7-H ) :   0.9455 B(  6-C ,  8-H ) :   0.9475
B(  6-C ,  9-C ) :   1.0531 B(  9-C , 10-H ) :   0.9557 B(  9-C , 11-H ) :   0.9592
B(  9-C , 12-C ) :   1.0837 B( 12-C , 13-H ) :   0.9699 B( 12-C , 14-H ) :   0.9755
B( 12-C , 15-H ) :   0.9697 B( 16-S , 17-C ) :   1.1769 B( 16-S , 20-C ) :   1.1397
B( 17-C , 18-C ) :   1.5856 B( 17-C , 20-C ) :   0.1013 B( 17-C , 33-H ) :   0.9609
B( 18-C , 19-C ) :   1.2484 B( 18-C , 21-H ) :   0.9968 B( 19-C , 20-C ) :   1.5699
B( 19-C , 22-C ) :   1.0324 B( 22-C , 23-H ) :   0.9384 B( 22-C , 24-H ) :   0.9326
B( 22-C , 25-C ) :   1.0579 B( 25-C , 26-H ) :   0.9493 B( 25-C , 27-H ) :   0.9570
B( 25-C , 28-C ) :   1.0766 B( 28-C , 29-H ) :   0.9735 B( 28-C , 30-H ) :   0.9746
B( 28-C , 31-H ) :   0.9741

Dispersion correction           -0.015154579
FINAL SINGLE POINT ENERGY     -1339.870597068150

DIPOLE MOMENT
-------------
                                X             Y             Z
Electronic contribution:    -28.41956      -9.15014       9.61082
Nuclear contribution   :     28.87665       9.08398     -10.00126
                        -----------------------------------------
Total Dipole Moment    :      0.45709      -0.06615      -0.39044
                        -----------------------------------------
Magnitude (a.u.)       :      0.60478
Magnitude (Debye)      :      1.53722

Rotational constants in cm-1:     0.017117     0.010186     0.007118
Rotational constants in MHz :   513.169226   305.364403   213.395126

                             ****ORCA TERMINATED NORMALLY****
TOTAL RUN TIME: 0 days 0 hours 0 minutes 22 seconds 342 msec
