                         Program Version 4.2.1 -  RELEASE  -
|  1> ! wB97X-D3 SP def2-SVP
|  2> %pal
|  3> nprocs 24
|  4> end
|  5>
|  6> * xyz 0 1
|  7> S 	 -69.5116 	 16.2088 	 -77.106
|  8> C 	 -67.8115 	 16.224 	 -77.4923
|  9> C 	 -67.025 	 15.4019 	 -76.714
| 10> C 	 -67.8179 	 14.633 	 -75.811
| 11> C 	 -69.1702 	 14.9694 	 -75.9507
| 12> H 	 -67.495 	 13.8602 	 -75.1424
| 13> C 	 -65.4899 	 15.3385 	 -76.7603
| 14> H 	 -65.2157 	 14.8742 	 -77.6787
| 15> H 	 -65.1359 	 14.6386 	 -76.0017
| 16> C 	 -64.7886 	 16.6372 	 -76.3906
| 17> H 	 -63.7372 	 16.6368 	 -76.6983
| 18> H 	 -65.1856 	 17.4015 	 -76.9454
| 19> C 	 -64.8826 	 17.0965 	 -74.9494
| 20> H 	 -64.5914 	 16.255 	 -74.3369
| 21> H 	 -64.2319 	 17.9903 	 -74.7054
| 22> H 	 -65.9463 	 17.455 	 -74.778
| 23> S 	 -71.8491 	 14.2402 	 -75.6384
| 24> C 	 -72.416 	 13.7057 	 -74.1253
| 25> C 	 -71.3715 	 13.5524 	 -73.2349
| 26> C 	 -70.1041 	 13.9967 	 -73.7289
| 27> C 	 -70.1858 	 14.3995 	 -75.055
| 28> H 	 -71.5125 	 13.2176 	 -72.2816
| 29> C 	 -68.9157 	 14.17 	 -72.7779
| 30> H 	 -68.0673 	 13.5168 	 -73.0623
| 31> H 	 -69.2548 	 13.8587 	 -71.7928
| 32> C 	 -68.4841 	 15.6092 	 -72.6128
| 33> H 	 -69.1404 	 16.0873 	 -71.881
| 34> H 	 -68.5839 	 16.1403 	 -73.5864
| 35> C 	 -67.1099 	 15.8693 	 -72.0241
| 36> H 	 -67.1569 	 15.7025 	 -70.9781
| 37> H 	 -66.7973 	 16.9645 	 -72.1389
| 38> H 	 -66.3271 	 15.2387 	 -72.4725
| 39> H 	 -67.3364 	 16.8288 	 -78.2584
| 40> H 	 -73.4735 	 13.4526 	 -73.8808
| 41> *
| 42>
| 43>                          ****END OF INPUT****

CARTESIAN COORDINATES (ANGSTROEM)
---------------------------------
  S    -69.511600   16.208800  -77.106000
  C    -67.811500   16.224000  -77.492300
  C    -67.025000   15.401900  -76.714000
  C    -67.817900   14.633000  -75.811000
  C    -69.170200   14.969400  -75.950700
  H    -67.495000   13.860200  -75.142400
  C    -65.489900   15.338500  -76.760300
  H    -65.215700   14.874200  -77.678700
  H    -65.135900   14.638600  -76.001700
  C    -64.788600   16.637200  -76.390600
  H    -63.737200   16.636800  -76.698300
  H    -65.185600   17.401500  -76.945400
  C    -64.882600   17.096500  -74.949400
  H    -64.591400   16.255000  -74.336900
  H    -64.231900   17.990300  -74.705400
  H    -65.946300   17.455000  -74.778000
  S    -71.849100   14.240200  -75.638400
  C    -72.416000   13.705700  -74.125300
  C    -71.371500   13.552400  -73.234900
  C    -70.104100   13.996700  -73.728900
  C    -70.185800   14.399500  -75.055000
  H    -71.512500   13.217600  -72.281600
  C    -68.915700   14.170000  -72.777900
  H    -68.067300   13.516800  -73.062300
  H    -69.254800   13.858700  -71.792800
  C    -68.484100   15.609200  -72.612800
  H    -69.140400   16.087300  -71.881000
  H    -68.583900   16.140300  -73.586400
  C    -67.109900   15.869300  -72.024100
  H    -67.156900   15.702500  -70.978100
  H    -66.797300   16.964500  -72.138900
  H    -66.327100   15.238700  -72.472500
  H    -67.336400   16.828800  -78.258400
  H    -73.473500   13.452600  -73.880800

 Total Charge           Charge          ....    0
 Multiplicity           Mult            ....    1
 Number of Electrons    NEL             ....  134
 Basis Dimension        Dim             ....  322

ORBITAL ENERGIES
----------------

  NO   OCC          E(Eh)            E(eV)
   0   2.0000     -88.975255     -2421.1398
   1   2.0000     -88.964303     -2420.8418
   2   2.0000     -10.329698      -281.0854
   3   2.0000     -10.326274      -280.9922
   4   2.0000     -10.316464      -280.7253
   5   2.0000     -10.310817      -280.5716
   6   2.0000     -10.301920      -280.3295
   7   2.0000     -10.301245      -280.3111
   8   2.0000     -10.293722      -280.1064
   9   2.0000     -10.293480      -280.0998
  10   2.0000     -10.292456      -280.0720
  11   2.0000     -10.285328      -279.8780
  12   2.0000     -10.283158      -279.8189
  13   2.0000     -10.278735      -279.6986
  14   2.0000     -10.277133      -279.6550
  15   2.0000     -10.276455      -279.6366
  16   2.0000      -8.089956      -220.1389
  17   2.0000      -8.079658      -219.8587
  18   2.0000      -6.048314      -164.5830
  19   2.0000      -6.044666      -164.4837
  20   2.0000      -6.040682      -164.3753
  21   2.0000      -6.038094      -164.3049
  22   2.0000      -6.034001      -164.1935
  23   2.0000      -6.030570      -164.1002
  24   2.0000      -1.009113       -27.4594
  25   2.0000      -0.987157       -26.8619
  26   2.0000      -0.915941       -24.9240
  27   2.0000      -0.910952       -24.7883
  28   2.0000      -0.866252       -23.5719
  29   2.0000      -0.856628       -23.3100
  30   2.0000      -0.848539       -23.0899
  31   2.0000      -0.810303       -22.0495
  32   2.0000      -0.784505       -21.3475
  33   2.0000      -0.774169       -21.0662
  34   2.0000      -0.706109       -19.2142
  35   2.0000      -0.697410       -18.9775
  36   2.0000      -0.682510       -18.5721
  37   2.0000      -0.668932       -18.2026
  38   2.0000      -0.638122       -17.3642
  39   2.0000      -0.615210       -16.7407
  40   2.0000      -0.595561       -16.2060
  41   2.0000      -0.576224       -15.6799
  42   2.0000      -0.569124       -15.4867
  43   2.0000      -0.559067       -15.2130
  44   2.0000      -0.541879       -14.7453
  45   2.0000      -0.519683       -14.1413
  46   2.0000      -0.513568       -13.9749
  47   2.0000      -0.508247       -13.8301
  48   2.0000      -0.503136       -13.6910
  49   2.0000      -0.493247       -13.4219
  50   2.0000      -0.492312       -13.3965
  51   2.0000      -0.484802       -13.1921
  52   2.0000      -0.470030       -12.7902
  53   2.0000      -0.464819       -12.6484
  54   2.0000      -0.461231       -12.5507
  55   2.0000      -0.454777       -12.3751
  56   2.0000      -0.453341       -12.3360
  57   2.0000      -0.439962       -11.9720
  58   2.0000      -0.427874       -11.6430
  59   2.0000      -0.422024       -11.4838
  60   2.0000      -0.418644       -11.3919
  61   2.0000      -0.411458       -11.1963
  62   2.0000      -0.409548       -11.1444
  63   2.0000      -0.351625        -9.5682
  64   2.0000      -0.338508        -9.2113
  65   2.0000      -0.331521        -9.0212
  66   2.0000      -0.283670        -7.7190
  67   0.0000       0.023255         0.6328
  68   0.0000       0.082421         2.2428
  69   0.0000       0.103154         2.8070
  70   0.0000       0.122998         3.3469
  71   0.0000       0.129911         3.5351

MULLIKEN ATOMIC CHARGES
-----------------------
   0 S :    0.139124
   1 C :   -0.126627
   2 C :   -0.089896
   3 C :   -0.001444
   4 C :   -0.126126
   5 H :    0.001567
   6 C :    0.103346
   7 H :    0.035162
   8 H :    0.007100
   9 C :   -0.039602
  10 H :    0.023980
  11 H :   -0.003122
  12 C :   -0.089144
  13 H :    0.031551
  14 H :    0.046343
  15 H :    0.053809
  16 S :    0.102844
  17 C :   -0.096307
  18 C :    0.000402
  19 C :   -0.051315
  20 C :   -0.161469
  21 H :   -0.024743
  22 C :    0.078506
  23 H :    0.035380
  24 H :    0.008223
  25 C :   -0.094965
  26 H :    0.026362
  27 H :    0.055720
  28 C :   -0.050082
  29 H :    0.020167
  30 H :    0.045860
  31 H :    0.025860
  32 H :    0.040613
  33 H :    0.072923
Sum of atomic charges:   -0.0000000

LOEWDIN ATOMIC CHARGES
----------------------
   0 S :    0.425770
   1 C :   -0.206875
   2 C :   -0.056851
   3 C :   -0.058540
   4 C :   -0.197044
   5 H :    0.029350
   6 C :   -0.024943
   7 H :    0.032013
   8 H :    0.027846
   9 C :   -0.042608
  10 H :    0.025846
  11 H :    0.008453
  12 C :   -0.066605
  13 H :    0.018891
  14 H :    0.035002
  15 H :    0.034709
  16 S :    0.410982
  17 C :   -0.204221
  18 C :   -0.064120
  19 C :   -0.055834
  20 C :   -0.191822
  21 H :    0.013045
  22 C :   -0.030240
  23 H :    0.027370
  24 H :    0.028482
  25 C :   -0.048509
  26 H :    0.027121
  27 H :    0.029066
  28 C :   -0.065796
  29 H :    0.016551
  30 H :    0.037445
  31 H :    0.019139
  32 H :    0.025954
  33 H :    0.040971

  Mayer bond orders larger than 0.100000
B(  0-S ,  1-C ) :   1.1299 B(  0-S ,  4-C ) :   1.1620 B(  1-C ,  2-C ) :   1.6199
B(  1-C , 32-H ) :   0.9633 B(  2-C ,  3-C ) :   1.2443 B(  2-C ,  6-C ) :   1.0079
B(  3-C ,  4-C ) :   1.5402 B(  3-C ,  5-H ) :   1.0031 B(  4-C , 20-C ) :   1.0659
B(  6-C ,  7-H ) :   0.9356 B(  6-C ,  8-H ) :   0.9445 B(  6-C ,  9-C ) :   1.0673
B(  9-C , 10-H ) :   0.9513 B(  9-C , 11-H ) :   0.9547 B(  9-C , 12-C ) :   1.0778
B( 12-C , 13-H ) :   0.9746 B( 12-C , 14-H ) :   0.9714 B( 12-C , 15-H ) :   0.9729
B( 16-S , 17-C ) :   1.1666 B( 16-S , 20-C ) :   1.1402 B( 17-C , 18-C ) :   1.5835
B( 17-C , 33-H ) :   0.9622 B( 18-C , 19-C ) :   1.2764 B( 18-C , 21-H ) :   1.0011
B( 19-C , 20-C ) :   1.5701 B( 19-C , 22-C ) :   1.0387 B( 22-C , 23-H ) :   0.9360
B( 22-C , 24-H ) :   0.9285 B( 22-C , 25-C ) :   1.0569 B( 25-C , 26-H ) :   0.9528
B( 25-C , 27-H ) :   0.9617 B( 25-C , 28-C ) :   1.0840 B( 28-C , 29-H ) :   0.9746
B( 28-C , 30-H ) :   0.9708 B( 28-C , 31-H ) :   0.9740

Dispersion correction           -0.016307221
FINAL SINGLE POINT ENERGY     -1339.885217057253

DIPOLE MOMENT
-------------
                                X             Y             Z
Electronic contribution:    -26.99357      -6.48886     -15.34227
Nuclear contribution   :     27.48113       6.53369      15.72393
                        -----------------------------------------
Total Dipole Moment    :      0.48756       0.04483       0.38166
                        -----------------------------------------
Magnitude (a.u.)       :      0.62079
Magnitude (Debye)      :      1.57793

Rotational constants in cm-1:     0.021198     0.009961     0.007386
Rotational constants in MHz :   635.491801   298.612279   221.439058

                             ****ORCA TERMINATED NORMALLY****
TOTAL RUN TIME: 0 days 0 hours 0 minutes 22 seconds 423 msec
