                         Program Version 4.2.1 -  RELEASE  -
|  1> ! wB97X-D3 SP def2-SVP
|  2> %pal
|  3> nprocs 24
|  4> end
|  5>
|  6> * xyz 0 1
|  7> S 	 -54.9312 	 8.8971 	 -31.3776
|  8> C 	 -56.0181 	 7.53914 	 -31.001
|  9> C 	 -56.0913 	 6.58739 	 -31.964
| 10> C 	 -55.1236 	 6.90443 	 -32.9998
| 11> C 	 -54.2624 	 7.93985 	 -32.7295
| 12> H 	 -55.0993 	 6.27761 	 -33.8624
| 13> C 	 -56.9452 	 5.353 	 -31.951
| 14> H 	 -57.6373 	 5.38302 	 -32.7434
| 15> H 	 -57.7326 	 5.3409 	 -31.1458
| 16> C 	 -56.2278 	 4.00777 	 -32.0639
| 17> H 	 -55.2975 	 4.21325 	 -32.6141
| 18> H 	 -55.8258 	 3.77213 	 -31.0908
| 19> C 	 -57.0371 	 2.84736 	 -32.5938
| 20> H 	 -57.5393 	 3.03761 	 -33.5713
| 21> H 	 -56.4317 	 1.95933 	 -32.7809
| 22> H 	 -57.7753 	 2.46123 	 -31.8205
| 23> S 	 -52.7052 	 9.84787 	 -33.9467
| 24> C 	 -51.1222 	 9.55678 	 -34.5524
| 25> C 	 -50.8137 	 8.25886 	 -34.362
| 26> C 	 -51.912 	 7.49696 	 -33.7678
| 27> C 	 -53.0038 	 8.23213 	 -33.4308
| 28> H 	 -49.8183 	 7.85213 	 -34.556
| 29> C 	 -51.7384 	 6.06431 	 -33.5684
| 30> H 	 -50.9337 	 5.74271 	 -34.3151
| 31> H 	 -52.6733 	 5.5934 	 -33.858
| 32> C 	 -51.2929 	 5.62329 	 -32.1504
| 33> H 	 -51.8626 	 6.1176 	 -31.3974
| 34> H 	 -50.3145 	 6.07655 	 -32.0053
| 35> C 	 -51.285 	 4.14649 	 -31.9322
| 36> H 	 -50.9524 	 3.61581 	 -32.8424
| 37> H 	 -52.2852 	 3.6964 	 -31.823
| 38> H 	 -50.7238 	 3.84861 	 -31.1549
| 39> H 	 -56.6254 	 7.49361 	 -30.13
| 40> H 	 -50.4807 	 10.2832 	 -34.9819
| 41> *
| 42>
| 43>                          ****END OF INPUT****

CARTESIAN COORDINATES (ANGSTROEM)
---------------------------------
  S    -54.931200    8.897100  -31.377600
  C    -56.018100    7.539140  -31.001000
  C    -56.091300    6.587390  -31.964000
  C    -55.123600    6.904430  -32.999800
  C    -54.262400    7.939850  -32.729500
  H    -55.099300    6.277610  -33.862400
  C    -56.945200    5.353000  -31.951000
  H    -57.637300    5.383020  -32.743400
  H    -57.732600    5.340900  -31.145800
  C    -56.227800    4.007770  -32.063900
  H    -55.297500    4.213250  -32.614100
  H    -55.825800    3.772130  -31.090800
  C    -57.037100    2.847360  -32.593800
  H    -57.539300    3.037610  -33.571300
  H    -56.431700    1.959330  -32.780900
  H    -57.775300    2.461230  -31.820500
  S    -52.705200    9.847870  -33.946700
  C    -51.122200    9.556780  -34.552400
  C    -50.813700    8.258860  -34.362000
  C    -51.912000    7.496960  -33.767800
  C    -53.003800    8.232130  -33.430800
  H    -49.818300    7.852130  -34.556000
  C    -51.738400    6.064310  -33.568400
  H    -50.933700    5.742710  -34.315100
  H    -52.673300    5.593400  -33.858000
  C    -51.292900    5.623290  -32.150400
  H    -51.862600    6.117600  -31.397400
  H    -50.314500    6.076550  -32.005300
  C    -51.285000    4.146490  -31.932200
  H    -50.952400    3.615810  -32.842400
  H    -52.285200    3.696400  -31.823000
  H    -50.723800    3.848610  -31.154900
  H    -56.625400    7.493610  -30.130000
  H    -50.480700   10.283200  -34.981900

 Total Charge           Charge          ....    0
 Multiplicity           Mult            ....    1
 Number of Electrons    NEL             ....  134
 Basis Dimension        Dim             ....  322

ORBITAL ENERGIES
----------------

  NO   OCC          E(Eh)            E(eV)
   0   2.0000     -88.966980     -2420.9146
   1   2.0000     -88.957236     -2420.6495
   2   2.0000     -10.336937      -281.2823
   3   2.0000     -10.323850      -280.9262
   4   2.0000     -10.313054      -280.6325
   5   2.0000     -10.311866      -280.6001
   6   2.0000     -10.302028      -280.3324
   7   2.0000     -10.297305      -280.2039
   8   2.0000     -10.296115      -280.1715
   9   2.0000     -10.294312      -280.1225
  10   2.0000     -10.292185      -280.0646
  11   2.0000     -10.289747      -279.9982
  12   2.0000     -10.288510      -279.9646
  13   2.0000     -10.287626      -279.9405
  14   2.0000     -10.278242      -279.6852
  15   2.0000     -10.267501      -279.3929
  16   2.0000      -8.080917      -219.8929
  17   2.0000      -8.073630      -219.6946
  18   2.0000      -6.039632      -164.3467
  19   2.0000      -6.035867      -164.2443
  20   2.0000      -6.032175      -164.1438
  21   2.0000      -6.031152      -164.1160
  22   2.0000      -6.027746      -164.0233
  23   2.0000      -6.024399      -163.9322
  24   2.0000      -1.011851       -27.5339
  25   2.0000      -0.987549       -26.8726
  26   2.0000      -0.916130       -24.9292
  27   2.0000      -0.912612       -24.8334
  28   2.0000      -0.875084       -23.8122
  29   2.0000      -0.855345       -23.2751
  30   2.0000      -0.845962       -23.0198
  31   2.0000      -0.821326       -22.3494
  32   2.0000      -0.784665       -21.3518
  33   2.0000      -0.773335       -21.0435
  34   2.0000      -0.714255       -19.4359
  35   2.0000      -0.704223       -19.1629
  36   2.0000      -0.697515       -18.9803
  37   2.0000      -0.667483       -18.1631
  38   2.0000      -0.642187       -17.4748
  39   2.0000      -0.629356       -17.1257
  40   2.0000      -0.598617       -16.2892
  41   2.0000      -0.575773       -15.6676
  42   2.0000      -0.559175       -15.2159
  43   2.0000      -0.556832       -15.1522
  44   2.0000      -0.534687       -14.5496
  45   2.0000      -0.528686       -14.3863
  46   2.0000      -0.521660       -14.1951
  47   2.0000      -0.513365       -13.9694
  48   2.0000      -0.506395       -13.7797
  49   2.0000      -0.501562       -13.6482
  50   2.0000      -0.497334       -13.5331
  51   2.0000      -0.489468       -13.3191
  52   2.0000      -0.469502       -12.7758
  53   2.0000      -0.467770       -12.7287
  54   2.0000      -0.457037       -12.4366
  55   2.0000      -0.455247       -12.3879
  56   2.0000      -0.443517       -12.0687
  57   2.0000      -0.438443       -11.9307
  58   2.0000      -0.434811       -11.8318
  59   2.0000      -0.432205       -11.7609
  60   2.0000      -0.414903       -11.2901
  61   2.0000      -0.411131       -11.1875
  62   2.0000      -0.407301       -11.0832
  63   2.0000      -0.352461        -9.5909
  64   2.0000      -0.329956        -8.9786
  65   2.0000      -0.323446        -8.8014
  66   2.0000      -0.297079        -8.0839
  67   0.0000       0.028926         0.7871
  68   0.0000       0.071350         1.9415
  69   0.0000       0.108619         2.9557
  70   0.0000       0.119327         3.2471
  71   0.0000       0.134018         3.6468

MULLIKEN ATOMIC CHARGES
-----------------------
   0 S :    0.107641
   1 C :   -0.115576
   2 C :   -0.068352
   3 C :    0.022756
   4 C :   -0.115294
   5 H :    0.009629
   6 C :    0.093624
   7 H :    0.006438
   8 H :    0.016294
   9 C :   -0.072134
  10 H :    0.026147
  11 H :    0.022434
  12 C :   -0.069754
  13 H :    0.041350
  14 H :    0.033786
  15 H :    0.044598
  16 S :    0.082893
  17 C :   -0.062602
  18 C :   -0.032403
  19 C :   -0.077380
  20 C :   -0.128764
  21 H :    0.023307
  22 C :    0.030417
  23 H :    0.027482
  24 H :    0.014723
  25 C :   -0.037353
  26 H :    0.024729
  27 H :    0.010731
  28 C :    0.013198
  29 H :    0.014622
  30 H :    0.024684
  31 H :    0.011383
  32 H :    0.029557
  33 H :    0.047188
Sum of atomic charges:   -0.0000000

LOEWDIN ATOMIC CHARGES
----------------------
   0 S :    0.370153
   1 C :   -0.170276
   2 C :   -0.061859
   3 C :   -0.051477
   4 C :   -0.176667
   5 H :    0.024185
   6 C :   -0.036579
   7 H :    0.026081
   8 H :    0.035291
   9 C :   -0.046822
  10 H :    0.024524
  11 H :    0.024947
  12 C :   -0.074023
  13 H :    0.028971
  14 H :    0.029365
  15 H :    0.034903
  16 S :    0.416731
  17 C :   -0.182149
  18 C :   -0.075288
  19 C :   -0.061635
  20 C :   -0.205338
  21 H :    0.033363
  22 C :   -0.037438
  23 H :    0.037053
  24 H :    0.024763
  25 C :   -0.035306
  26 H :    0.022929
  27 H :    0.023701
  28 C :   -0.057920
  29 H :    0.027637
  30 H :    0.028978
  31 H :    0.010462
  32 H :    0.020953
  33 H :    0.027788

  Mayer bond orders larger than 0.100000
B(  0-S ,  1-C ) :   1.1141 B(  0-S ,  4-C ) :   1.1130 B(  1-C ,  2-C ) :   1.6708
B(  1-C , 32-H ) :   0.9663 B(  2-C ,  3-C ) :   1.1959 B(  2-C ,  6-C ) :   1.0347
B(  3-C ,  4-C ) :   1.6047 B(  3-C ,  5-H ) :   0.9953 B(  4-C , 20-C ) :   1.0370
B(  6-C ,  7-H ) :   0.9294 B(  6-C ,  8-H ) :   0.9343 B(  6-C ,  9-C ) :   1.0414
B(  9-C , 10-H ) :   0.9600 B(  9-C , 11-H ) :   0.9487 B(  9-C , 12-C ) :   1.0856
B( 12-C , 13-H ) :   0.9731 B( 12-C , 14-H ) :   0.9713 B( 12-C , 15-H ) :   0.9729
B( 16-S , 17-C ) :   1.1615 B( 16-S , 20-C ) :   1.1247 B( 17-C , 18-C ) :   1.6046
B( 17-C , 33-H ) :   0.9733 B( 18-C , 19-C ) :   1.2371 B( 18-C , 21-H ) :   0.9890
B( 19-C , 20-C ) :   1.6186 B( 19-C , 22-C ) :   1.0636 B( 22-C , 23-H ) :   0.9247
B( 22-C , 24-H ) :   0.9315 B( 22-C , 25-C ) :   1.0648 B( 25-C , 26-H ) :   0.9553
B( 25-C , 27-H ) :   0.9475 B( 25-C , 28-C ) :   1.0891 B( 28-C , 29-H ) :   0.9683
B( 28-C , 30-H ) :   0.9699 B( 28-C , 31-H ) :   0.9707

Dispersion correction           -0.014601718
FINAL SINGLE POINT ENERGY     -1339.870119249875

DIPOLE MOMENT
-------------
                                X             Y             Z
Electronic contribution:      1.64033      32.48377      -2.53954
Nuclear contribution   :     -1.58434     -33.28224       2.51717
                        -----------------------------------------
Total Dipole Moment    :      0.05599      -0.79847      -0.02237
                        -----------------------------------------
Magnitude (a.u.)       :      0.80074
Magnitude (Debye)      :      2.03532

Rotational constants in cm-1:     0.018146     0.009321     0.007011
Rotational constants in MHz :   543.990584   279.425122   210.196463

                             ****ORCA TERMINATED NORMALLY****
TOTAL RUN TIME: 0 days 0 hours 0 minutes 22 seconds 316 msec
