                         Program Version 4.2.1 -  RELEASE  -
|  1> ! wB97X-D3 SP def2-SVP
|  2> %pal
|  3> nprocs 24
|  4> end
|  5>
|  6> * xyz 0 1
|  7> S 	 -55.0096 	 15.8118 	 -89.978
|  8> C 	 -54.4997 	 16.9236 	 -88.7582
|  9> C 	 -54.6933 	 16.4037 	 -87.4912
| 10> C 	 -55.1069 	 15.0047 	 -87.5227
| 11> C 	 -55.4236 	 14.5486 	 -88.7889
| 12> H 	 -55.2362 	 14.3859 	 -86.6315
| 13> C 	 -54.5277 	 17.2734 	 -86.2364
| 14> H 	 -55.176 	 17.1875 	 -85.3373
| 15> H 	 -54.6944 	 18.2577 	 -86.5815
| 16> C 	 -53.1036 	 17.235 	 -85.7769
| 17> H 	 -52.4919 	 17.6398 	 -86.6035
| 18> H 	 -53.0082 	 17.9597 	 -84.9266
| 19> C 	 -52.6103 	 15.8348 	 -85.4625
| 20> H 	 -53.2885 	 15.3129 	 -84.7601
| 21> H 	 -52.524 	 15.2348 	 -86.4038
| 22> H 	 -51.6342 	 15.9127 	 -84.9676
| 23> S 	 -57.4302 	 13.3724 	 -90.3494
| 24> C 	 -57.4996 	 11.6503 	 -90.4038
| 25> C 	 -56.3881 	 11.0819 	 -89.8462
| 26> C 	 -55.6421 	 11.9585 	 -89.0203
| 27> C 	 -55.9808 	 13.2778 	 -89.2896
| 28> H 	 -56.3031 	 9.97874 	 -89.741
| 29> C 	 -54.4162 	 11.6133 	 -88.239
| 30> H 	 -54.6534 	 10.8033 	 -87.5354
| 31> H 	 -54.1029 	 12.3769 	 -87.5792
| 32> C 	 -53.2862 	 11.0978 	 -89.1425
| 33> H 	 -52.9241 	 12.0174 	 -89.7426
| 34> H 	 -53.7864 	 10.4861 	 -89.9251
| 35> C 	 -52.1534 	 10.4819 	 -88.4037
| 36> H 	 -51.8017 	 10.9877 	 -87.4665
| 37> H 	 -51.2877 	 10.3733 	 -89.0695
| 38> H 	 -52.4181 	 9.47198 	 -87.9949
| 39> H 	 -54.049 	 17.8825 	 -88.949
| 40> H 	 -57.9532 	 11.0692 	 -91.2053
| 41> *
| 42>
| 43>                          ****END OF INPUT****

CARTESIAN COORDINATES (ANGSTROEM)
---------------------------------
  S    -55.009600   15.811800  -89.978000
  C    -54.499700   16.923600  -88.758200
  C    -54.693300   16.403700  -87.491200
  C    -55.106900   15.004700  -87.522700
  C    -55.423600   14.548600  -88.788900
  H    -55.236200   14.385900  -86.631500
  C    -54.527700   17.273400  -86.236400
  H    -55.176000   17.187500  -85.337300
  H    -54.694400   18.257700  -86.581500
  C    -53.103600   17.235000  -85.776900
  H    -52.491900   17.639800  -86.603500
  H    -53.008200   17.959700  -84.926600
  C    -52.610300   15.834800  -85.462500
  H    -53.288500   15.312900  -84.760100
  H    -52.524000   15.234800  -86.403800
  H    -51.634200   15.912700  -84.967600
  S    -57.430200   13.372400  -90.349400
  C    -57.499600   11.650300  -90.403800
  C    -56.388100   11.081900  -89.846200
  C    -55.642100   11.958500  -89.020300
  C    -55.980800   13.277800  -89.289600
  H    -56.303100    9.978740  -89.741000
  C    -54.416200   11.613300  -88.239000
  H    -54.653400   10.803300  -87.535400
  H    -54.102900   12.376900  -87.579200
  C    -53.286200   11.097800  -89.142500
  H    -52.924100   12.017400  -89.742600
  H    -53.786400   10.486100  -89.925100
  C    -52.153400   10.481900  -88.403700
  H    -51.801700   10.987700  -87.466500
  H    -51.287700   10.373300  -89.069500
  H    -52.418100    9.471980  -87.994900
  H    -54.049000   17.882500  -88.949000
  H    -57.953200   11.069200  -91.205300

 Total Charge           Charge          ....    0
 Multiplicity           Mult            ....    1
 Number of Electrons    NEL             ....  134
 Basis Dimension        Dim             ....  322

ORBITAL ENERGIES
----------------

  NO   OCC          E(Eh)            E(eV)
   0   2.0000     -88.966754     -2420.9084
   1   2.0000     -88.965052     -2420.8621
   2   2.0000     -10.335489      -281.2430
   3   2.0000     -10.331681      -281.1393
   4   2.0000     -10.314588      -280.6742
   5   2.0000     -10.313314      -280.6395
   6   2.0000     -10.306648      -280.4581
   7   2.0000     -10.302026      -280.3324
   8   2.0000     -10.301655      -280.3223
   9   2.0000     -10.294925      -280.1392
  10   2.0000     -10.291735      -280.0523
  11   2.0000     -10.288772      -279.9717
  12   2.0000     -10.286587      -279.9123
  13   2.0000     -10.285244      -279.8757
  14   2.0000     -10.284122      -279.8452
  15   2.0000     -10.280060      -279.7346
  16   2.0000      -8.081237      -219.9016
  17   2.0000      -8.079795      -219.8624
  18   2.0000      -6.039768      -164.3504
  19   2.0000      -6.038397      -164.3131
  20   2.0000      -6.035824      -164.2431
  21   2.0000      -6.034231      -164.1998
  22   2.0000      -6.031933      -164.1372
  23   2.0000      -6.030501      -164.0983
  24   2.0000      -1.005829       -27.3700
  25   2.0000      -0.985798       -26.8249
  26   2.0000      -0.918337       -24.9892
  27   2.0000      -0.914574       -24.8868
  28   2.0000      -0.868720       -23.6391
  29   2.0000      -0.853423       -23.2228
  30   2.0000      -0.839333       -22.8394
  31   2.0000      -0.817561       -22.2470
  32   2.0000      -0.786658       -21.4061
  33   2.0000      -0.772916       -21.0321
  34   2.0000      -0.701741       -19.0953
  35   2.0000      -0.697482       -18.9795
  36   2.0000      -0.688903       -18.7460
  37   2.0000      -0.657484       -17.8910
  38   2.0000      -0.642484       -17.4829
  39   2.0000      -0.618289       -16.8245
  40   2.0000      -0.601246       -16.3607
  41   2.0000      -0.579661       -15.7734
  42   2.0000      -0.557259       -15.1638
  43   2.0000      -0.549509       -14.9529
  44   2.0000      -0.537956       -14.6385
  45   2.0000      -0.527003       -14.3405
  46   2.0000      -0.512378       -13.9425
  47   2.0000      -0.509495       -13.8641
  48   2.0000      -0.504515       -13.7286
  49   2.0000      -0.501323       -13.6417
  50   2.0000      -0.496169       -13.5015
  51   2.0000      -0.480779       -13.0827
  52   2.0000      -0.471344       -12.8259
  53   2.0000      -0.464913       -12.6509
  54   2.0000      -0.459697       -12.5090
  55   2.0000      -0.451489       -12.2856
  56   2.0000      -0.439805       -11.9677
  57   2.0000      -0.434557       -11.8249
  58   2.0000      -0.432238       -11.7618
  59   2.0000      -0.423848       -11.5335
  60   2.0000      -0.419043       -11.4027
  61   2.0000      -0.415991       -11.3197
  62   2.0000      -0.405350       -11.0301
  63   2.0000      -0.349748        -9.5171
  64   2.0000      -0.333499        -9.0750
  65   2.0000      -0.327964        -8.9244
  66   2.0000      -0.293332        -7.9820
  67   0.0000       0.028415         0.7732
  68   0.0000       0.062907         1.7118
  69   0.0000       0.113614         3.0916
  70   0.0000       0.115326         3.1382
  71   0.0000       0.121772         3.3136

MULLIKEN ATOMIC CHARGES
-----------------------
   0 S :    0.104320
   1 C :   -0.107615
   2 C :   -0.126078
   3 C :    0.043533
   4 C :   -0.157261
   5 H :    0.023209
   6 C :    0.086319
   7 H :    0.041762
   8 H :    0.005999
   9 C :   -0.095483
  10 H :    0.020589
  11 H :    0.031804
  12 C :   -0.069007
  13 H :    0.027211
  14 H :    0.059057
  15 H :    0.039047
  16 S :    0.106450
  17 C :   -0.066480
  18 C :   -0.079078
  19 C :   -0.041779
  20 C :   -0.151874
  21 H :    0.040115
  22 C :    0.091066
  23 H :    0.013273
  24 H :    0.001124
  25 C :   -0.103825
  26 H :    0.040618
  27 H :    0.034844
  28 C :   -0.039826
  29 H :    0.036231
  30 H :    0.042441
  31 H :    0.029261
  32 H :    0.050353
  33 H :    0.069678
Sum of atomic charges:    0.0000000

LOEWDIN ATOMIC CHARGES
----------------------
   0 S :    0.400240
   1 C :   -0.200803
   2 C :   -0.058057
   3 C :   -0.063390
   4 C :   -0.182609
   5 H :    0.033265
   6 C :   -0.034986
   7 H :    0.035467
   8 H :    0.025305
   9 C :   -0.047199
  10 H :    0.022098
  11 H :    0.023990
  12 C :   -0.072528
  13 H :    0.022236
  14 H :    0.033957
  15 H :    0.028333
  16 S :    0.398053
  17 C :   -0.202247
  18 C :   -0.076456
  19 C :   -0.054104
  20 C :   -0.183191
  21 H :    0.037627
  22 C :   -0.031208
  23 H :    0.029505
  24 H :    0.021599
  25 C :   -0.048235
  26 H :    0.034773
  27 H :    0.028449
  28 C :   -0.075553
  29 H :    0.031922
  30 H :    0.030733
  31 H :    0.027956
  32 H :    0.028454
  33 H :    0.036607

  Mayer bond orders larger than 0.100000
B(  0-S ,  1-C ) :   1.1413 B(  0-S ,  4-C ) :   1.1457 B(  1-C ,  2-C ) :   1.6255
B(  1-C , 32-H ) :   0.9638 B(  2-C ,  3-C ) :   1.2226 B(  2-C ,  6-C ) :   1.0071
B(  3-C ,  4-C ) :   1.5897 B(  3-C ,  5-H ) :   0.9912 B(  4-C , 20-C ) :   1.0219
B(  6-C ,  7-H ) :   0.9518 B(  6-C ,  8-H ) :   0.9347 B(  6-C ,  9-C ) :   1.0828
B(  9-C , 10-H ) :   0.9523 B(  9-C , 11-H ) :   0.9558 B(  9-C , 12-C ) :   1.0819
B( 12-C , 13-H ) :   0.9739 B( 12-C , 14-H ) :   0.9659 B( 12-C , 15-H ) :   0.9716
B( 16-S , 17-C ) :   1.1524 B( 16-S , 20-C ) :   1.1398 B( 17-C , 18-C ) :   1.6436
B( 17-C , 20-C ) :   0.1012 B( 17-C , 33-H ) :   0.9499 B( 18-C , 19-C ) :   1.2440
B( 18-C , 21-H ) :   0.9646 B( 19-C , 20-C ) :   1.5953 B( 19-C , 22-C ) :   1.0671
B( 22-C , 23-H ) :   0.9220 B( 22-C , 24-H ) :   0.9282 B( 22-C , 25-C ) :   1.0559
B( 25-C , 26-H ) :   0.9516 B( 25-C , 27-H ) :   0.9553 B( 25-C , 28-C ) :   1.0790
B( 28-C , 29-H ) :   0.9713 B( 28-C , 30-H ) :   0.9715 B( 28-C , 31-H ) :   0.9690

Dispersion correction           -0.014580096
FINAL SINGLE POINT ENERGY     -1339.877676043948

DIPOLE MOMENT
-------------
                                X             Y             Z
Electronic contribution:    -20.84276       5.20451     -18.38654
Nuclear contribution   :     21.28912      -5.34022      18.83966
                        -----------------------------------------
Total Dipole Moment    :      0.44636      -0.13571       0.45312
                        -----------------------------------------
Magnitude (a.u.)       :      0.65036
Magnitude (Debye)      :      1.65308

Rotational constants in cm-1:     0.018133     0.009305     0.006928
Rotational constants in MHz :   543.622421   278.964426   207.702775

                             ****ORCA TERMINATED NORMALLY****
TOTAL RUN TIME: 0 days 0 hours 0 minutes 22 seconds 64 msec
