                         Program Version 4.2.1 -  RELEASE  -
|  1> ! wB97X-D3 SP def2-SVP
|  2> %pal
|  3> nprocs 24
|  4> end
|  5>
|  6> * xyz 0 1
|  7> S 	 -51.2829 	 7.18318 	 -18.0586
|  8> C 	 -49.6625 	 6.8154 	 -18.5831
|  9> C 	 -48.7756 	 7.86784 	 -18.3111
| 10> C 	 -49.3923 	 8.95799 	 -17.6166
| 11> C 	 -50.7593 	 8.82817 	 -17.5209
| 12> H 	 -48.8781 	 9.82206 	 -17.2376
| 13> C 	 -47.2935 	 7.78524 	 -18.372
| 14> H 	 -46.8148 	 8.62961 	 -18.8409
| 15> H 	 -46.9581 	 6.98886 	 -19.1164
| 16> C 	 -46.6376 	 7.52801 	 -16.9736
| 17> H 	 -46.3108 	 8.52699 	 -16.6278
| 18> H 	 -47.4247 	 7.10014 	 -16.3602
| 19> C 	 -45.5122 	 6.45509 	 -16.8608
| 20> H 	 -45.7385 	 5.44934 	 -17.1369
| 21> H 	 -44.6736 	 6.61527 	 -17.6067
| 22> H 	 -45.1401 	 6.38483 	 -15.8252
| 23> S 	 -52.4452 	 10.7271 	 -18.3282
| 24> C 	 -53.5833 	 11.5618 	 -17.2726
| 25> C 	 -53.2094 	 11.3341 	 -15.9457
| 26> C 	 -52.2496 	 10.2316 	 -15.7752
| 27> C 	 -51.771 	 9.78933 	 -17.0114
| 28> H 	 -53.6723 	 11.8268 	 -15.1468
| 29> C 	 -51.9397 	 9.47373 	 -14.4502
| 30> H 	 -51.7357 	 8.43824 	 -14.7897
| 31> H 	 -52.8791 	 9.44647 	 -13.9204
| 32> C 	 -50.7005 	 9.8055 	 -13.5756
| 33> H 	 -50.7951 	 10.8875 	 -13.3588
| 34> H 	 -49.8442 	 9.61908 	 -14.2695
| 35> C 	 -50.6866 	 8.94498 	 -12.2877
| 36> H 	 -51.5407 	 9.15543 	 -11.7627
| 37> H 	 -49.7428 	 9.0556 	 -11.7286
| 38> H 	 -50.7733 	 7.92267 	 -12.5847
| 39> H 	 -49.375 	 5.76724 	 -18.8555
| 40> H 	 -54.4161 	 12.1008 	 -17.6838
| 41> *
| 42>
| 43>                          ****END OF INPUT****

CARTESIAN COORDINATES (ANGSTROEM)
---------------------------------
  S    -51.282900    7.183180  -18.058600
  C    -49.662500    6.815400  -18.583100
  C    -48.775600    7.867840  -18.311100
  C    -49.392300    8.957990  -17.616600
  C    -50.759300    8.828170  -17.520900
  H    -48.878100    9.822060  -17.237600
  C    -47.293500    7.785240  -18.372000
  H    -46.814800    8.629610  -18.840900
  H    -46.958100    6.988860  -19.116400
  C    -46.637600    7.528010  -16.973600
  H    -46.310800    8.526990  -16.627800
  H    -47.424700    7.100140  -16.360200
  C    -45.512200    6.455090  -16.860800
  H    -45.738500    5.449340  -17.136900
  H    -44.673600    6.615270  -17.606700
  H    -45.140100    6.384830  -15.825200
  S    -52.445200   10.727100  -18.328200
  C    -53.583300   11.561800  -17.272600
  C    -53.209400   11.334100  -15.945700
  C    -52.249600   10.231600  -15.775200
  C    -51.771000    9.789330  -17.011400
  H    -53.672300   11.826800  -15.146800
  C    -51.939700    9.473730  -14.450200
  H    -51.735700    8.438240  -14.789700
  H    -52.879100    9.446470  -13.920400
  C    -50.700500    9.805500  -13.575600
  H    -50.795100   10.887500  -13.358800
  H    -49.844200    9.619080  -14.269500
  C    -50.686600    8.944980  -12.287700
  H    -51.540700    9.155430  -11.762700
  H    -49.742800    9.055600  -11.728600
  H    -50.773300    7.922670  -12.584700
  H    -49.375000    5.767240  -18.855500
  H    -54.416100   12.100800  -17.683800

 Total Charge           Charge          ....    0
 Multiplicity           Mult            ....    1
 Number of Electrons    NEL             ....  134
 Basis Dimension        Dim             ....  322

ORBITAL ENERGIES
----------------

  NO   OCC          E(Eh)            E(eV)
   0   2.0000     -88.966764     -2420.9087
   1   2.0000     -88.958530     -2420.6847
   2   2.0000     -10.336404      -281.2678
   3   2.0000     -10.327616      -281.0287
   4   2.0000     -10.322118      -280.8791
   5   2.0000     -10.321007      -280.8489
   6   2.0000     -10.313136      -280.6347
   7   2.0000     -10.303861      -280.3823
   8   2.0000     -10.298670      -280.2410
   9   2.0000     -10.298024      -280.2235
  10   2.0000     -10.293745      -280.1071
  11   2.0000     -10.293635      -280.1040
  12   2.0000     -10.293391      -280.0974
  13   2.0000     -10.291948      -280.0581
  14   2.0000     -10.285006      -279.8692
  15   2.0000     -10.273944      -279.5682
  16   2.0000      -8.080749      -219.8884
  17   2.0000      -8.073549      -219.6924
  18   2.0000      -6.039212      -164.3353
  19   2.0000      -6.035377      -164.2310
  20   2.0000      -6.032042      -164.1402
  21   2.0000      -6.031573      -164.1274
  22   2.0000      -6.027921      -164.0281
  23   2.0000      -6.024385      -163.9319
  24   2.0000      -0.999471       -27.1970
  25   2.0000      -0.978073       -26.6147
  26   2.0000      -0.905752       -24.6468
  27   2.0000      -0.902870       -24.5684
  28   2.0000      -0.864136       -23.5143
  29   2.0000      -0.847745       -23.0683
  30   2.0000      -0.845957       -23.0197
  31   2.0000      -0.814192       -22.1553
  32   2.0000      -0.779875       -21.2215
  33   2.0000      -0.768662       -20.9164
  34   2.0000      -0.705426       -19.1956
  35   2.0000      -0.698063       -18.9953
  36   2.0000      -0.687801       -18.7160
  37   2.0000      -0.665088       -18.0980
  38   2.0000      -0.645084       -17.5536
  39   2.0000      -0.620435       -16.8829
  40   2.0000      -0.591004       -16.0820
  41   2.0000      -0.573184       -15.5971
  42   2.0000      -0.569002       -15.4833
  43   2.0000      -0.545436       -14.8421
  44   2.0000      -0.526425       -14.3248
  45   2.0000      -0.523035       -14.2325
  46   2.0000      -0.517978       -14.0949
  47   2.0000      -0.516169       -14.0457
  48   2.0000      -0.504870       -13.7382
  49   2.0000      -0.495206       -13.4752
  50   2.0000      -0.487534       -13.2665
  51   2.0000      -0.478666       -13.0252
  52   2.0000      -0.472842       -12.8667
  53   2.0000      -0.466360       -12.6903
  54   2.0000      -0.457775       -12.4567
  55   2.0000      -0.446934       -12.1617
  56   2.0000      -0.440849       -11.9961
  57   2.0000      -0.433207       -11.7882
  58   2.0000      -0.433146       -11.7865
  59   2.0000      -0.420601       -11.4451
  60   2.0000      -0.416986       -11.3468
  61   2.0000      -0.415322       -11.3015
  62   2.0000      -0.414182       -11.2705
  63   2.0000      -0.338649        -9.2151
  64   2.0000      -0.325312        -8.8522
  65   2.0000      -0.315292        -8.5795
  66   2.0000      -0.311025        -8.4634
  67   0.0000       0.039734         1.0812
  68   0.0000       0.049993         1.3604
  69   0.0000       0.106923         2.9095
  70   0.0000       0.116433         3.1683
  71   0.0000       0.126436         3.4405

MULLIKEN ATOMIC CHARGES
-----------------------
   0 S :    0.110069
   1 C :   -0.130021
   2 C :   -0.087366
   3 C :    0.071284
   4 C :   -0.173840
   5 H :    0.016903
   6 C :    0.030451
   7 H :    0.027904
   8 H :    0.023225
   9 C :   -0.068412
  10 H :    0.041753
  11 H :    0.044283
  12 C :   -0.071808
  13 H :    0.020863
  14 H :    0.029514
  15 H :    0.044791
  16 S :    0.095924
  17 C :   -0.099007
  18 C :   -0.006699
  19 C :   -0.014780
  20 C :   -0.180689
  21 H :    0.001959
  22 C :    0.007926
  23 H :    0.026573
  24 H :    0.022967
  25 C :   -0.078861
  26 H :    0.032857
  27 H :    0.036519
  28 C :    0.007706
  29 H :    0.013579
  30 H :    0.047912
  31 H :    0.016932
  32 H :    0.072986
  33 H :    0.066602
Sum of atomic charges:   -0.0000000

LOEWDIN ATOMIC CHARGES
----------------------
   0 S :    0.388622
   1 C :   -0.201567
   2 C :   -0.069488
   3 C :   -0.049161
   4 C :   -0.185395
   5 H :    0.034437
   6 C :   -0.044361
   7 H :    0.027860
   8 H :    0.034204
   9 C :   -0.038514
  10 H :    0.028304
  11 H :    0.027979
  12 C :   -0.074441
  13 H :    0.019442
  14 H :    0.027629
  15 H :    0.031751
  16 S :    0.401600
  17 C :   -0.175325
  18 C :   -0.063912
  19 C :   -0.052839
  20 C :   -0.204014
  21 H :    0.020140
  22 C :   -0.036594
  23 H :    0.032886
  24 H :    0.024404
  25 C :   -0.039323
  26 H :    0.022183
  27 H :    0.027763
  28 C :   -0.053625
  29 H :    0.015105
  30 H :    0.033557
  31 H :    0.023733
  32 H :    0.038668
  33 H :    0.028294

  Mayer bond orders larger than 0.100000
B(  0-S ,  1-C ) :   1.1471 B(  0-S ,  4-C ) :   1.1413 B(  1-C ,  2-C ) :   1.5994
B(  1-C , 32-H ) :   0.9608 B(  2-C ,  3-C ) :   1.2203 B(  2-C ,  6-C ) :   1.0597
B(  3-C ,  4-C ) :   1.6036 B(  3-C ,  5-H ) :   0.9980 B(  4-C , 20-C ) :   0.9855
B(  6-C ,  7-H ) :   0.9392 B(  6-C ,  8-H ) :   0.9475 B(  6-C ,  9-C ) :   1.0234
B(  9-C , 10-H ) :   0.9570 B(  9-C , 11-H ) :   0.9656 B(  9-C , 12-C ) :   1.0804
B( 12-C , 13-H ) :   0.9745 B( 12-C , 14-H ) :   0.9757 B( 12-C , 15-H ) :   0.9750
B( 16-S , 17-C ) :   1.1554 B( 16-S , 20-C ) :   1.1580 B( 17-C , 18-C ) :   1.5904
B( 17-C , 20-C ) :   0.1005 B( 17-C , 33-H ) :   0.9769 B( 18-C , 19-C ) :   1.2233
B( 18-C , 21-H ) :   0.9983 B( 19-C , 20-C ) :   1.6160 B( 19-C , 22-C ) :   1.0242
B( 22-C , 23-H ) :   0.9400 B( 22-C , 24-H ) :   0.9448 B( 22-C , 25-C ) :   1.0514
B( 25-C , 26-H ) :   0.9594 B( 25-C , 27-H ) :   0.9554 B( 25-C , 28-C ) :   1.0734
B( 28-C , 29-H ) :   0.9737 B( 28-C , 30-H ) :   0.9741 B( 28-C , 31-H ) :   0.9726

Dispersion correction           -0.014071754
FINAL SINGLE POINT ENERGY     -1339.861748432375

DIPOLE MOMENT
-------------
                                X             Y             Z
Electronic contribution:    -21.12354       6.40783     -18.85730
Nuclear contribution   :     21.46001      -6.49510      19.35193
                        -----------------------------------------
Total Dipole Moment    :      0.33646      -0.08727       0.49462
                        -----------------------------------------
Magnitude (a.u.)       :      0.60454
Magnitude (Debye)      :      1.53663

Rotational constants in cm-1:     0.017181     0.008694     0.006673
Rotational constants in MHz :   515.060013   260.646640   200.063293

                             ****ORCA TERMINATED NORMALLY****
TOTAL RUN TIME: 0 days 0 hours 0 minutes 21 seconds 30 msec
