                         Program Version 4.2.1 -  RELEASE  -
|  1> ! wB97X-D3 SP def2-SVP
|  2> %pal
|  3> nprocs 24
|  4> end
|  5>
|  6> * xyz 0 1
|  7> S 	 -100.336 	 4.88459 	 -120.869
|  8> C 	 -101.333 	 4.03374 	 -122.083
|  9> C 	 -101.714 	 2.76254 	 -121.624
| 10> C 	 -101.462 	 2.65525 	 -120.195
| 11> C 	 -100.698 	 3.67628 	 -119.657
| 12> H 	 -101.835 	 1.7773 	 -119.601
| 13> C 	 -102.293 	 1.63242 	 -122.513
| 14> H 	 -102.585 	 2.09625 	 -123.448
| 15> H 	 -103.183 	 1.30849 	 -121.949
| 16> C 	 -101.363 	 0.391533 	 -122.807
| 17> H 	 -100.475 	 0.782929 	 -123.358
| 18> H 	 -101.041 	 0.0516429 	 -121.796
| 19> C 	 -102.033 	 -0.591442 	 -123.707
| 20> H 	 -102.765 	 -1.27167 	 -123.156
| 21> H 	 -102.463 	 -0.117195 	 -124.555
| 22> H 	 -101.278 	 -1.3216 	 -124.066
| 23> S 	 -101.174 	 5.54638 	 -117.635
| 24> C 	 -100.582 	 5.14021 	 -115.992
| 25> C 	 -99.8222 	 3.98257 	 -116.062
| 26> C 	 -99.697 	 3.33435 	 -117.333
| 27> C 	 -100.409 	 4.04912 	 -118.301
| 28> H 	 -99.52 	 3.55975 	 -115.175
| 29> C 	 -99.1513 	 1.93733 	 -117.57
| 30> H 	 -98.5058 	 1.91036 	 -118.361
| 31> H 	 -99.9969 	 1.23866 	 -117.82
| 32> C 	 -98.3466 	 1.39534 	 -116.32
| 33> H 	 -99.0281 	 1.26519 	 -115.508
| 34> H 	 -97.5236 	 2.07309 	 -115.947
| 35> C 	 -97.8329 	 -0.0277388 	 -116.403
| 36> H 	 -98.7685 	 -0.654238 	 -116.417
| 37> H 	 -97.3359 	 -0.172952 	 -115.5
| 38> H 	 -97.1704 	 -0.00257041 	 -117.326
| 39> H 	 -101.302 	 4.19081 	 -123.188
| 40> H 	 -100.902 	 5.67581 	 -115.12
| 41> *
| 42>
| 43>                          ****END OF INPUT****

CARTESIAN COORDINATES (ANGSTROEM)
---------------------------------
  S    -100.336000    4.884590  -120.869000
  C    -101.333000    4.033740  -122.083000
  C    -101.714000    2.762540  -121.624000
  C    -101.462000    2.655250  -120.195000
  C    -100.698000    3.676280  -119.657000
  H    -101.835000    1.777300  -119.601000
  C    -102.293000    1.632420  -122.513000
  H    -102.585000    2.096250  -123.448000
  H    -103.183000    1.308490  -121.949000
  C    -101.363000    0.391533  -122.807000
  H    -100.475000    0.782929  -123.358000
  H    -101.041000    0.051643  -121.796000
  C    -102.033000   -0.591442  -123.707000
  H    -102.765000   -1.271670  -123.156000
  H    -102.463000   -0.117195  -124.555000
  H    -101.278000   -1.321600  -124.066000
  S    -101.174000    5.546380  -117.635000
  C    -100.582000    5.140210  -115.992000
  C    -99.822200    3.982570  -116.062000
  C    -99.697000    3.334350  -117.333000
  C    -100.409000    4.049120  -118.301000
  H    -99.520000    3.559750  -115.175000
  C    -99.151300    1.937330  -117.570000
  H    -98.505800    1.910360  -118.361000
  H    -99.996900    1.238660  -117.820000
  C    -98.346600    1.395340  -116.320000
  H    -99.028100    1.265190  -115.508000
  H    -97.523600    2.073090  -115.947000
  C    -97.832900   -0.027739  -116.403000
  H    -98.768500   -0.654238  -116.417000
  H    -97.335900   -0.172952  -115.500000
  H    -97.170400   -0.002570  -117.326000
  H    -101.302000    4.190810  -123.188000
  H    -100.902000    5.675810  -115.120000

 Total Charge           Charge          ....    0
 Multiplicity           Mult            ....    1
 Number of Electrons    NEL             ....  134
 Basis Dimension        Dim             ....  322

ORBITAL ENERGIES
----------------

  NO   OCC          E(Eh)            E(eV)
   0   2.0000     -88.964573     -2420.8491
   1   2.0000     -88.964260     -2420.8406
   2   2.0000     -10.329352      -281.0760
   3   2.0000     -10.327509      -281.0258
   4   2.0000     -10.320759      -280.8421
   5   2.0000     -10.318149      -280.7711
   6   2.0000     -10.307828      -280.4903
   7   2.0000     -10.306287      -280.4483
   8   2.0000     -10.302773      -280.3527
   9   2.0000     -10.298990      -280.2498
  10   2.0000     -10.296031      -280.1693
  11   2.0000     -10.295992      -280.1682
  12   2.0000     -10.289942      -280.0036
  13   2.0000     -10.287148      -279.9275
  14   2.0000     -10.284944      -279.8676
  15   2.0000     -10.282503      -279.8011
  16   2.0000      -8.078773      -219.8346
  17   2.0000      -8.077418      -219.7977
  18   2.0000      -6.037456      -164.2875
  19   2.0000      -6.036057      -164.2494
  20   2.0000      -6.033342      -164.1756
  21   2.0000      -6.032132      -164.1427
  22   2.0000      -6.029366      -164.0674
  23   2.0000      -6.028121      -164.0335
  24   2.0000      -0.999286       -27.1920
  25   2.0000      -0.972551       -26.4645
  26   2.0000      -0.910148       -24.7664
  27   2.0000      -0.908255       -24.7149
  28   2.0000      -0.870548       -23.6888
  29   2.0000      -0.854587       -23.2545
  30   2.0000      -0.840578       -22.8733
  31   2.0000      -0.812004       -22.0958
  32   2.0000      -0.784551       -21.3487
  33   2.0000      -0.769503       -20.9393
  34   2.0000      -0.704337       -19.1660
  35   2.0000      -0.697079       -18.9685
  36   2.0000      -0.690624       -18.7928
  37   2.0000      -0.649725       -17.6799
  38   2.0000      -0.634703       -17.2711
  39   2.0000      -0.615359       -16.7448
  40   2.0000      -0.600806       -16.3488
  41   2.0000      -0.575886       -15.6707
  42   2.0000      -0.568263       -15.4632
  43   2.0000      -0.558959       -15.2100
  44   2.0000      -0.538654       -14.6575
  45   2.0000      -0.524527       -14.2731
  46   2.0000      -0.518833       -14.1182
  47   2.0000      -0.512187       -13.9373
  48   2.0000      -0.502748       -13.6805
  49   2.0000      -0.499997       -13.6056
  50   2.0000      -0.492783       -13.4093
  51   2.0000      -0.479854       -13.0575
  52   2.0000      -0.467677       -12.7261
  53   2.0000      -0.465454       -12.6656
  54   2.0000      -0.454732       -12.3739
  55   2.0000      -0.448578       -12.2064
  56   2.0000      -0.442561       -12.0427
  57   2.0000      -0.432521       -11.7695
  58   2.0000      -0.428783       -11.6678
  59   2.0000      -0.421913       -11.4808
  60   2.0000      -0.419384       -11.4120
  61   2.0000      -0.417513       -11.3611
  62   2.0000      -0.412259       -11.2181
  63   2.0000      -0.342151        -9.3104
  64   2.0000      -0.330337        -8.9889
  65   2.0000      -0.323568        -8.8047
  66   2.0000      -0.294441        -8.0122
  67   0.0000       0.028840         0.7848
  68   0.0000       0.056243         1.5304
  69   0.0000       0.104646         2.8476
  70   0.0000       0.117626         3.2008
  71   0.0000       0.125795         3.4230

MULLIKEN ATOMIC CHARGES
-----------------------
   0 S :    0.101366
   1 C :   -0.118473
   2 C :   -0.133303
   3 C :    0.027115
   4 C :   -0.176838
   5 H :    0.031339
   6 C :    0.043757
   7 H :    0.014242
   8 H :    0.036568
   9 C :   -0.078912
  10 H :    0.035571
  11 H :    0.034493
  12 C :   -0.040016
  13 H :    0.040362
  14 H :    0.032268
  15 H :    0.037739
  16 S :    0.103536
  17 C :   -0.090278
  18 C :   -0.008786
  19 C :   -0.027829
  20 C :   -0.151434
  21 H :   -0.013011
  22 C :    0.137759
  23 H :    0.009712
  24 H :    0.039852
  25 C :   -0.175616
  26 H :    0.019310
  27 H :    0.047057
  28 C :   -0.012337
  29 H :    0.039295
  30 H :    0.026864
  31 H :    0.045431
  32 H :    0.063118
  33 H :    0.060080
Sum of atomic charges:   -0.0000000

LOEWDIN ATOMIC CHARGES
----------------------
   0 S :    0.394254
   1 C :   -0.203806
   2 C :   -0.060747
   3 C :   -0.068775
   4 C :   -0.194353
   5 H :    0.036614
   6 C :   -0.031339
   7 H :    0.024322
   8 H :    0.032809
   9 C :   -0.042887
  10 H :    0.029693
  11 H :    0.026635
  12 C :   -0.069613
  13 H :    0.033274
  14 H :    0.022679
  15 H :    0.032398
  16 S :    0.369207
  17 C :   -0.166348
  18 C :   -0.061420
  19 C :   -0.049379
  20 C :   -0.188894
  21 H :    0.014935
  22 C :   -0.020201
  23 H :    0.019003
  24 H :    0.041004
  25 C :   -0.051100
  26 H :    0.015456
  27 H :    0.028656
  28 C :   -0.059947
  29 H :    0.032448
  30 H :    0.019106
  31 H :    0.032397
  32 H :    0.035051
  33 H :    0.028869

  Mayer bond orders larger than 0.100000
B(  0-S ,  1-C ) :   1.1247 B(  0-S ,  4-C ) :   1.1471 B(  1-C ,  2-C ) :   1.6377
B(  1-C , 32-H ) :   0.9533 B(  2-C ,  3-C ) :   1.2262 B(  2-C ,  6-C ) :   1.0246
B(  3-C ,  4-C ) :   1.5914 B(  3-C ,  5-H ) :   0.9781 B(  4-C , 20-C ) :   1.0398
B(  6-C ,  7-H ) :   0.9409 B(  6-C ,  8-H ) :   0.9416 B(  6-C ,  9-C ) :   1.0551
B(  9-C , 10-H ) :   0.9542 B(  9-C , 11-H ) :   0.9555 B(  9-C , 12-C ) :   1.0874
B( 12-C , 13-H ) :   0.9728 B( 12-C , 14-H ) :   0.9707 B( 12-C , 15-H ) :   0.9722
B( 16-S , 17-C ) :   1.1347 B( 16-S , 20-C ) :   1.1346 B( 17-C , 18-C ) :   1.6065
B( 17-C , 20-C ) :   0.1037 B( 17-C , 33-H ) :   0.9704 B( 18-C , 19-C ) :   1.2389
B( 18-C , 21-H ) :   0.9949 B( 19-C , 20-C ) :   1.5975 B( 19-C , 22-C ) :   1.0439
B( 22-C , 23-H ) :   0.9157 B( 22-C , 24-H ) :   0.9302 B( 22-C , 25-C ) :   1.0722
B( 25-C , 26-H ) :   0.9528 B( 25-C , 27-H ) :   0.9579 B( 25-C , 28-C ) :   1.0744
B( 28-C , 29-H ) :   0.9772 B( 28-C , 30-H ) :   0.9714 B( 28-C , 31-H ) :   0.9755

Dispersion correction           -0.013321946
FINAL SINGLE POINT ENERGY     -1339.854973026275

DIPOLE MOMENT
-------------
                                X             Y             Z
Electronic contribution:     -3.79472      30.14302       4.26509
Nuclear contribution   :      3.79272     -31.03185      -4.17067
                        -----------------------------------------
Total Dipole Moment    :     -0.00201      -0.88883       0.09441
                        -----------------------------------------
Magnitude (a.u.)       :      0.89383
Magnitude (Debye)      :      2.27193

Rotational constants in cm-1:     0.016691     0.008250     0.005959
Rotational constants in MHz :   500.386370   247.337872   178.652556

                             ****ORCA TERMINATED NORMALLY****
TOTAL RUN TIME: 0 days 0 hours 0 minutes 19 seconds 895 msec
