                         Program Version 4.2.1 -  RELEASE  -
|  1> ! wB97X-D3 SP def2-SVP
|  2> %pal
|  3> nprocs 24
|  4> end
|  5>
|  6> * xyz 0 1
|  7> S 	 -62.3317 	 13.405 	 -109.716
|  8> C 	 -63.9515 	 12.7803 	 -109.507
|  9> C 	 -64.7744 	 13.3044 	 -110.458
| 10> C 	 -64.1496 	 14.3673 	 -111.152
| 11> C 	 -62.8088 	 14.6258 	 -110.834
| 12> H 	 -64.6651 	 15.017 	 -111.862
| 13> C 	 -66.1948 	 12.8677 	 -110.801
| 14> H 	 -66.8678 	 13.3555 	 -110.126
| 15> H 	 -66.115 	 11.8565 	 -110.53
| 16> C 	 -66.5919 	 12.9264 	 -112.245
| 17> H 	 -66.7524 	 13.9408 	 -112.605
| 18> H 	 -65.9355 	 12.5074 	 -112.942
| 19> C 	 -67.9529 	 12.1767 	 -112.487
| 20> H 	 -68.7332 	 12.7215 	 -111.958
| 21> H 	 -68.2282 	 12.2976 	 -113.578
| 22> H 	 -68.2863 	 11.1995 	 -112.113
| 23> S 	 -60.1185 	 15.068 	 -111.47
| 24> C 	 -59.6709 	 16.7092 	 -112.004
| 25> C 	 -60.7452 	 17.5817 	 -112.078
| 26> C 	 -61.9508 	 16.9665 	 -111.674
| 27> C 	 -61.8478 	 15.5587 	 -111.421
| 28> H 	 -60.5715 	 18.6482 	 -112.118
| 29> C 	 -63.1856 	 17.8846 	 -111.427
| 30> H 	 -62.895 	 18.6646 	 -110.68
| 31> H 	 -63.8569 	 17.1246 	 -110.967
| 32> C 	 -63.7393 	 18.5341 	 -112.691
| 33> H 	 -64.0364 	 17.7795 	 -113.374
| 34> H 	 -62.9578 	 19.0537 	 -113.218
| 35> C 	 -64.94 	 19.4695 	 -112.55
| 36> H 	 -65.3384 	 19.7859 	 -113.531
| 37> H 	 -64.6452 	 20.3829 	 -111.999
| 38> H 	 -65.7449 	 19.0731 	 -111.96
| 39> H 	 -64.2996 	 11.9047 	 -108.932
| 40> H 	 -58.6319 	 17.1226 	 -112.147
| 41> *
| 42>
| 43>                          ****END OF INPUT****

CARTESIAN COORDINATES (ANGSTROEM)
---------------------------------
  S    -62.331700   13.405000  -109.716000
  C    -63.951500   12.780300  -109.507000
  C    -64.774400   13.304400  -110.458000
  C    -64.149600   14.367300  -111.152000
  C    -62.808800   14.625800  -110.834000
  H    -64.665100   15.017000  -111.862000
  C    -66.194800   12.867700  -110.801000
  H    -66.867800   13.355500  -110.126000
  H    -66.115000   11.856500  -110.530000
  C    -66.591900   12.926400  -112.245000
  H    -66.752400   13.940800  -112.605000
  H    -65.935500   12.507400  -112.942000
  C    -67.952900   12.176700  -112.487000
  H    -68.733200   12.721500  -111.958000
  H    -68.228200   12.297600  -113.578000
  H    -68.286300   11.199500  -112.113000
  S    -60.118500   15.068000  -111.470000
  C    -59.670900   16.709200  -112.004000
  C    -60.745200   17.581700  -112.078000
  C    -61.950800   16.966500  -111.674000
  C    -61.847800   15.558700  -111.421000
  H    -60.571500   18.648200  -112.118000
  C    -63.185600   17.884600  -111.427000
  H    -62.895000   18.664600  -110.680000
  H    -63.856900   17.124600  -110.967000
  C    -63.739300   18.534100  -112.691000
  H    -64.036400   17.779500  -113.374000
  H    -62.957800   19.053700  -113.218000
  C    -64.940000   19.469500  -112.550000
  H    -65.338400   19.785900  -113.531000
  H    -64.645200   20.382900  -111.999000
  H    -65.744900   19.073100  -111.960000
  H    -64.299600   11.904700  -108.932000
  H    -58.631900   17.122600  -112.147000

 Total Charge           Charge          ....    0
 Multiplicity           Mult            ....    1
 Number of Electrons    NEL             ....  134
 Basis Dimension        Dim             ....  322

ORBITAL ENERGIES
----------------

  NO   OCC          E(Eh)            E(eV)
   0   2.0000     -88.973371     -2421.0885
   1   2.0000     -88.966087     -2420.8903
   2   2.0000     -10.338900      -281.3358
   3   2.0000     -10.332241      -281.1546
   4   2.0000     -10.327415      -281.0232
   5   2.0000     -10.312499      -280.6174
   6   2.0000     -10.310806      -280.5713
   7   2.0000     -10.298994      -280.2499
   8   2.0000     -10.296331      -280.1774
   9   2.0000     -10.294049      -280.1153
  10   2.0000     -10.291478      -280.0453
  11   2.0000     -10.289543      -279.9927
  12   2.0000     -10.287962      -279.9497
  13   2.0000     -10.284104      -279.8447
  14   2.0000     -10.282208      -279.7931
  15   2.0000     -10.279607      -279.7223
  16   2.0000      -8.086439      -220.0432
  17   2.0000      -8.081151      -219.8993
  18   2.0000      -6.045099      -164.4955
  19   2.0000      -6.041304      -164.3922
  20   2.0000      -6.039695      -164.3485
  21   2.0000      -6.037011      -164.2754
  22   2.0000      -6.035627      -164.2378
  23   2.0000      -6.031811      -164.1339
  24   2.0000      -1.007117       -27.4050
  25   2.0000      -0.981155       -26.6986
  26   2.0000      -0.918320       -24.9888
  27   2.0000      -0.906424       -24.6651
  28   2.0000      -0.871758       -23.7217
  29   2.0000      -0.850576       -23.1453
  30   2.0000      -0.842841       -22.9349
  31   2.0000      -0.814131       -22.1536
  32   2.0000      -0.784561       -21.3490
  33   2.0000      -0.771396       -20.9908
  34   2.0000      -0.718562       -19.5531
  35   2.0000      -0.702415       -19.1137
  36   2.0000      -0.694442       -18.8967
  37   2.0000      -0.658684       -17.9237
  38   2.0000      -0.637072       -17.3356
  39   2.0000      -0.619647       -16.8614
  40   2.0000      -0.586328       -15.9548
  41   2.0000      -0.577529       -15.7154
  42   2.0000      -0.567158       -15.4332
  43   2.0000      -0.562814       -15.3149
  44   2.0000      -0.532260       -14.4835
  45   2.0000      -0.526613       -14.3299
  46   2.0000      -0.509859       -13.8740
  47   2.0000      -0.504813       -13.7367
  48   2.0000      -0.504132       -13.7181
  49   2.0000      -0.499695       -13.5974
  50   2.0000      -0.497427       -13.5357
  51   2.0000      -0.480710       -13.0808
  52   2.0000      -0.474846       -12.9212
  53   2.0000      -0.464336       -12.6352
  54   2.0000      -0.459710       -12.5094
  55   2.0000      -0.452898       -12.3240
  56   2.0000      -0.445422       -12.1205
  57   2.0000      -0.441477       -12.0132
  58   2.0000      -0.432951       -11.7812
  59   2.0000      -0.420737       -11.4488
  60   2.0000      -0.417775       -11.3682
  61   2.0000      -0.415503       -11.3064
  62   2.0000      -0.410148       -11.1607
  63   2.0000      -0.355506        -9.6738
  64   2.0000      -0.336750        -9.1634
  65   2.0000      -0.329364        -8.9625
  66   2.0000      -0.283586        -7.7168
  67   0.0000       0.017812         0.4847
  68   0.0000       0.070217         1.9107
  69   0.0000       0.101208         2.7540
  70   0.0000       0.123167         3.3515
  71   0.0000       0.131590         3.5808

MULLIKEN ATOMIC CHARGES
-----------------------
   0 S :    0.100663
   1 C :   -0.123036
   2 C :   -0.128068
   3 C :    0.007837
   4 C :   -0.138794
   5 H :    0.007100
   6 C :    0.135023
   7 H :    0.041732
   8 H :    0.005155
   9 C :   -0.046350
  10 H :    0.031264
  11 H :    0.028178
  12 C :   -0.090468
  13 H :    0.010399
  14 H :    0.040732
  15 H :    0.035965
  16 S :    0.097242
  17 C :   -0.107572
  18 C :   -0.019693
  19 C :   -0.080995
  20 C :   -0.121666
  21 H :    0.030675
  22 C :    0.053508
  23 H :    0.043584
  24 H :    0.027512
  25 C :   -0.054053
  26 H :    0.016246
  27 H :    0.020263
  28 C :   -0.039036
  29 H :    0.038404
  30 H :    0.024447
  31 H :    0.025633
  32 H :    0.052364
  33 H :    0.075804
Sum of atomic charges:    0.0000000

LOEWDIN ATOMIC CHARGES
----------------------
   0 S :    0.418025
   1 C :   -0.209448
   2 C :   -0.066158
   3 C :   -0.075101
   4 C :   -0.201533
   5 H :    0.026165
   6 C :   -0.024130
   7 H :    0.034435
   8 H :    0.027706
   9 C :   -0.029617
  10 H :    0.027212
  11 H :    0.021623
  12 C :   -0.082214
  13 H :    0.021546
  14 H :    0.033281
  15 H :    0.028039
  16 S :    0.379274
  17 C :   -0.177524
  18 C :   -0.078348
  19 C :   -0.046604
  20 C :   -0.190434
  21 H :    0.035601
  22 C :   -0.031010
  23 H :    0.036240
  24 H :    0.032456
  25 C :   -0.043876
  26 H :    0.021244
  27 H :    0.022034
  28 C :   -0.065153
  29 H :    0.030597
  30 H :    0.024756
  31 H :    0.021134
  32 H :    0.037137
  33 H :    0.042645

  Mayer bond orders larger than 0.100000
B(  0-S ,  1-C ) :   1.1359 B(  0-S ,  4-C ) :   1.1593 B(  1-C ,  2-C ) :   1.6182
B(  1-C , 32-H ) :   0.9621 B(  2-C ,  3-C ) :   1.2766 B(  2-C ,  6-C ) :   0.9902
B(  3-C ,  4-C ) :   1.5253 B(  3-C ,  5-H ) :   0.9922 B(  4-C , 20-C ) :   1.0785
B(  6-C ,  7-H ) :   0.9322 B(  6-C ,  8-H ) :   0.9362 B(  6-C ,  9-C ) :   1.0859
B(  9-C , 10-H ) :   0.9423 B(  9-C , 11-H ) :   0.9614 B(  9-C , 12-C ) :   1.0695
B( 12-C , 13-H ) :   0.9712 B( 12-C , 14-H ) :   0.9761 B( 12-C , 15-H ) :   0.9791
B( 16-S , 17-C ) :   1.1525 B( 16-S , 20-C ) :   1.1177 B( 17-C , 18-C ) :   1.6198
B( 17-C , 33-H ) :   0.9548 B( 18-C , 19-C ) :   1.2629 B( 18-C , 21-H ) :   0.9800
B( 19-C , 20-C ) :   1.5695 B( 19-C , 22-C ) :   1.0307 B( 22-C , 23-H ) :   0.9399
B( 22-C , 24-H ) :   0.9302 B( 22-C , 25-C ) :   1.0614 B( 25-C , 26-H ) :   0.9506
B( 25-C , 27-H ) :   0.9542 B( 25-C , 28-C ) :   1.0890 B( 28-C , 29-H ) :   0.9740
B( 28-C , 30-H ) :   0.9734 B( 28-C , 31-H ) :   0.9748

Dispersion correction           -0.013306208
FINAL SINGLE POINT ENERGY     -1339.856895715520

DIPOLE MOMENT
-------------
                                X             Y             Z
Electronic contribution:     28.82413      -9.14527      10.21601
Nuclear contribution   :    -29.35588       9.51491     -10.34548
                        -----------------------------------------
Total Dipole Moment    :     -0.53175       0.36964      -0.12947
                        -----------------------------------------
Magnitude (a.u.)       :      0.66042
Magnitude (Debye)      :      1.67865

Rotational constants in cm-1:     0.016017     0.008801     0.006200
Rotational constants in MHz :   480.188404   263.844345   185.886046

                             ****ORCA TERMINATED NORMALLY****
TOTAL RUN TIME: 0 days 0 hours 0 minutes 20 seconds 894 msec
