                         Program Version 4.2.1 -  RELEASE  -
|  1> ! wB97X-D3 SP def2-SVP
|  2> %pal
|  3> nprocs 24
|  4> end
|  5>
|  6> * xyz 0 1
|  7> S 	 -77.4479 	 -1.88335 	 2.99294
|  8> C 	 -76.0352 	 -1.8049 	 4.0622
|  9> C 	 -76.4025 	 -2.20777 	 5.33428
| 10> C 	 -77.7525 	 -2.64377 	 5.44358
| 11> C 	 -78.3966 	 -2.67211 	 4.2089
| 12> H 	 -78.2327 	 -3.12214 	 6.26614
| 13> C 	 -75.4296 	 -2.31884 	 6.38846
| 14> H 	 -74.6519 	 -3.12243 	 6.22128
| 15> H 	 -75.8647 	 -2.67444 	 7.30876
| 16> C 	 -74.6555 	 -1.03229 	 6.60492
| 17> H 	 -73.8347 	 -1.29167 	 7.24655
| 18> H 	 -74.2207 	 -0.630659 	 5.69683
| 19> C 	 -75.4486 	 -0.0232174 	 7.46345
| 20> H 	 -74.9339 	 0.971459 	 7.66994
| 21> H 	 -76.4011 	 0.338711 	 6.89372
| 22> H 	 -75.7452 	 -0.45964 	 8.45951
| 23> S 	 -81.066 	 -2.67562 	 4.92197
| 24> C 	 -82.2226 	 -3.1733 	 3.68236
| 25> C 	 -81.5722 	 -3.93436 	 2.67655
| 26> C 	 -80.163 	 -3.89508 	 2.85045
| 27> C 	 -79.7697 	 -3.10505 	 3.88839
| 28> H 	 -82.1521 	 -4.42277 	 1.88193
| 29> C 	 -79.2026 	 -4.51172 	 1.8778
| 30> H 	 -78.6993 	 -3.74617 	 1.27258
| 31> H 	 -79.8914 	 -4.87724 	 1.11855
| 32> C 	 -78.1201 	 -5.54678 	 2.34436
| 33> H 	 -78.5248 	 -6.38126 	 2.88955
| 34> H 	 -77.6164 	 -5.0752 	 3.11
| 35> C 	 -77.1819 	 -6.02998 	 1.17738
| 36> H 	 -76.4279 	 -6.785 	 1.54288
| 37> H 	 -76.6638 	 -5.26661 	 0.555576
| 38> H 	 -77.8859 	 -6.57223 	 0.514219
| 39> H 	 -75.0191 	 -1.57803 	 3.71917
| 40> H 	 -83.2829 	 -3.13406 	 3.80337
| 41> *
| 42>
| 43>                          ****END OF INPUT****

CARTESIAN COORDINATES (ANGSTROEM)
---------------------------------
  S    -77.447900   -1.883350    2.992940
  C    -76.035200   -1.804900    4.062200
  C    -76.402500   -2.207770    5.334280
  C    -77.752500   -2.643770    5.443580
  C    -78.396600   -2.672110    4.208900
  H    -78.232700   -3.122140    6.266140
  C    -75.429600   -2.318840    6.388460
  H    -74.651900   -3.122430    6.221280
  H    -75.864700   -2.674440    7.308760
  C    -74.655500   -1.032290    6.604920
  H    -73.834700   -1.291670    7.246550
  H    -74.220700   -0.630659    5.696830
  C    -75.448600   -0.023217    7.463450
  H    -74.933900    0.971459    7.669940
  H    -76.401100    0.338711    6.893720
  H    -75.745200   -0.459640    8.459510
  S    -81.066000   -2.675620    4.921970
  C    -82.222600   -3.173300    3.682360
  C    -81.572200   -3.934360    2.676550
  C    -80.163000   -3.895080    2.850450
  C    -79.769700   -3.105050    3.888390
  H    -82.152100   -4.422770    1.881930
  C    -79.202600   -4.511720    1.877800
  H    -78.699300   -3.746170    1.272580
  H    -79.891400   -4.877240    1.118550
  C    -78.120100   -5.546780    2.344360
  H    -78.524800   -6.381260    2.889550
  H    -77.616400   -5.075200    3.110000
  C    -77.181900   -6.029980    1.177380
  H    -76.427900   -6.785000    1.542880
  H    -76.663800   -5.266610    0.555576
  H    -77.885900   -6.572230    0.514219
  H    -75.019100   -1.578030    3.719170
  H    -83.282900   -3.134060    3.803370

 Total Charge           Charge          ....    0
 Multiplicity           Mult            ....    1
 Number of Electrons    NEL             ....  134
 Basis Dimension        Dim             ....  322

ORBITAL ENERGIES
----------------

  NO   OCC          E(Eh)            E(eV)
   0   2.0000     -88.968500     -2420.9560
   1   2.0000     -88.965530     -2420.8751
   2   2.0000     -10.330095      -281.0962
   3   2.0000     -10.321312      -280.8572
   4   2.0000     -10.320150      -280.8256
   5   2.0000     -10.313106      -280.6339
   6   2.0000     -10.301806      -280.3264
   7   2.0000     -10.298764      -280.2436
   8   2.0000     -10.296667      -280.1866
   9   2.0000     -10.291937      -280.0578
  10   2.0000     -10.289628      -279.9950
  11   2.0000     -10.287188      -279.9286
  12   2.0000     -10.286367      -279.9063
  13   2.0000     -10.286106      -279.8992
  14   2.0000     -10.283496      -279.8281
  15   2.0000     -10.280020      -279.7336
  16   2.0000      -8.083483      -219.9627
  17   2.0000      -8.079728      -219.8606
  18   2.0000      -6.041931      -164.4093
  19   2.0000      -6.038246      -164.3090
  20   2.0000      -6.038065      -164.3041
  21   2.0000      -6.034209      -164.1992
  22   2.0000      -6.034186      -164.1985
  23   2.0000      -6.030627      -164.1017
  24   2.0000      -1.010703       -27.5026
  25   2.0000      -0.987019       -26.8582
  26   2.0000      -0.919926       -25.0325
  27   2.0000      -0.900937       -24.5158
  28   2.0000      -0.863716       -23.5029
  29   2.0000      -0.850929       -23.1550
  30   2.0000      -0.843653       -22.9570
  31   2.0000      -0.812180       -22.1005
  32   2.0000      -0.777055       -21.1447
  33   2.0000      -0.766066       -20.8457
  34   2.0000      -0.711926       -19.3725
  35   2.0000      -0.704836       -19.1796
  36   2.0000      -0.692014       -18.8307
  37   2.0000      -0.667644       -18.1675
  38   2.0000      -0.641502       -17.4562
  39   2.0000      -0.609981       -16.5984
  40   2.0000      -0.594305       -16.1719
  41   2.0000      -0.580852       -15.8058
  42   2.0000      -0.554536       -15.0897
  43   2.0000      -0.545462       -14.8428
  44   2.0000      -0.538009       -14.6400
  45   2.0000      -0.519972       -14.1492
  46   2.0000      -0.517331       -14.0773
  47   2.0000      -0.508750       -13.8438
  48   2.0000      -0.505849       -13.7649
  49   2.0000      -0.492115       -13.3911
  50   2.0000      -0.488167       -13.2837
  51   2.0000      -0.471887       -12.8407
  52   2.0000      -0.468536       -12.7495
  53   2.0000      -0.466538       -12.6952
  54   2.0000      -0.462828       -12.5942
  55   2.0000      -0.443619       -12.0715
  56   2.0000      -0.442055       -12.0289
  57   2.0000      -0.439949       -11.9716
  58   2.0000      -0.434543       -11.8245
  59   2.0000      -0.427233       -11.6256
  60   2.0000      -0.418991       -11.4013
  61   2.0000      -0.409781       -11.1507
  62   2.0000      -0.407434       -11.0868
  63   2.0000      -0.343011        -9.3338
  64   2.0000      -0.331380        -9.0173
  65   2.0000      -0.329041        -8.9537
  66   2.0000      -0.289888        -7.8883
  67   0.0000       0.022353         0.6082
  68   0.0000       0.068452         1.8627
  69   0.0000       0.103012         2.8031
  70   0.0000       0.119279         3.2457
  71   0.0000       0.129940         3.5358

MULLIKEN ATOMIC CHARGES
-----------------------
   0 S :    0.113013
   1 C :   -0.148986
   2 C :   -0.048176
   3 C :    0.036658
   4 C :   -0.175054
   5 H :    0.003314
   6 C :    0.050895
   7 H :    0.045101
   8 H :    0.002295
   9 C :   -0.046967
  10 H :    0.016761
  11 H :    0.030043
  12 C :   -0.115387
  13 H :    0.044158
  14 H :    0.048614
  15 H :    0.039805
  16 S :    0.120763
  17 C :   -0.092942
  18 C :   -0.047929
  19 C :   -0.037934
  20 C :   -0.131959
  21 H :    0.034418
  22 C :    0.051288
  23 H :    0.031630
  24 H :   -0.005242
  25 C :   -0.000060
  26 H :    0.018611
  27 H :    0.014448
  28 C :   -0.087483
  29 H :    0.046377
  30 H :    0.046663
  31 H :    0.032185
  32 H :    0.059888
  33 H :    0.051188
Sum of atomic charges:   -0.0000000

LOEWDIN ATOMIC CHARGES
----------------------
   0 S :    0.418947
   1 C :   -0.197900
   2 C :   -0.062947
   3 C :   -0.069861
   4 C :   -0.183929
   5 H :    0.027135
   6 C :   -0.038854
   7 H :    0.042636
   8 H :    0.025891
   9 C :   -0.038933
  10 H :    0.021307
  11 H :    0.022048
  12 C :   -0.082458
  13 H :    0.029665
  14 H :    0.033218
  15 H :    0.028084
  16 S :    0.420914
  17 C :   -0.177001
  18 C :   -0.064806
  19 C :   -0.064031
  20 C :   -0.214214
  21 H :    0.037769
  22 C :   -0.042845
  23 H :    0.028409
  24 H :    0.024688
  25 C :   -0.030523
  26 H :    0.024638
  27 H :    0.011852
  28 C :   -0.071634
  29 H :    0.033088
  30 H :    0.028785
  31 H :    0.026963
  32 H :    0.031312
  33 H :    0.022587

  Mayer bond orders larger than 0.100000
B(  0-S ,  1-C ) :   1.1278 B(  0-S ,  4-C ) :   1.1833 B(  1-C ,  2-C ) :   1.5818
B(  1-C ,  4-C ) :   0.1025 B(  1-C , 32-H ) :   0.9702 B(  2-C ,  3-C ) :   1.2401
B(  2-C ,  6-C ) :   1.0454 B(  3-C ,  4-C ) :   1.5556 B(  3-C ,  5-H ) :   0.9993
B(  4-C , 20-C ) :   1.0245 B(  6-C ,  7-H ) :   0.9314 B(  6-C ,  8-H ) :   0.9367
B(  6-C ,  9-C ) :   1.0760 B(  9-C , 10-H ) :   0.9506 B(  9-C , 11-H ) :   0.9572
B(  9-C , 12-C ) :   1.0690 B( 12-C , 13-H ) :   0.9751 B( 12-C , 14-H ) :   0.9759
B( 12-C , 15-H ) :   0.9720 B( 16-S , 17-C ) :   1.1636 B( 16-S , 20-C ) :   1.1439
B( 17-C , 18-C ) :   1.5820 B( 17-C , 33-H ) :   0.9714 B( 18-C , 19-C ) :   1.2624
B( 18-C , 21-H ) :   0.9853 B( 19-C , 20-C ) :   1.5613 B( 19-C , 22-C ) :   1.0476
B( 22-C , 23-H ) :   0.9278 B( 22-C , 24-H ) :   0.9241 B( 22-C , 25-C ) :   1.0371
B( 25-C , 26-H ) :   0.9529 B( 25-C , 27-H ) :   0.9554 B( 25-C , 28-C ) :   1.0699
B( 28-C , 29-H ) :   0.9754 B( 28-C , 30-H ) :   0.9771 B( 28-C , 31-H ) :   0.9786

Dispersion correction           -0.014836658
FINAL SINGLE POINT ENERGY     -1339.868252307924

DIPOLE MOMENT
-------------
                                X             Y             Z
Electronic contribution:    -17.68590       5.38962      -2.14154
Nuclear contribution   :     17.91766      -5.75395       2.19911
                        -----------------------------------------
Total Dipole Moment    :      0.23177      -0.36433       0.05757
                        -----------------------------------------
Magnitude (a.u.)       :      0.43563
Magnitude (Debye)      :      1.10727

Rotational constants in cm-1:     0.020157     0.008923     0.006884
Rotational constants in MHz :   604.305455   267.501456   206.370895

                             ****ORCA TERMINATED NORMALLY****
TOTAL RUN TIME: 0 days 0 hours 0 minutes 20 seconds 713 msec
