                         Program Version 4.2.1 -  RELEASE  -
|  1> ! wB97X-D3 SP def2-SVP
|  2> %pal
|  3> nprocs 24
|  4> end
|  5>
|  6> * xyz 0 1
|  7> S 	 -128.554 	 65.5023 	 -50.3727
|  8> C 	 -127.982 	 67.1799 	 -50.2609
|  9> C 	 -128.889 	 68.0122 	 -50.7275
| 10> C 	 -129.99 	 67.2993 	 -51.3052
| 11> C 	 -129.965 	 65.9261 	 -51.229
| 12> H 	 -130.853 	 67.733 	 -51.7948
| 13> C 	 -128.71 	 69.5124 	 -50.7603
| 14> H 	 -127.715 	 69.7452 	 -51.1716
| 15> H 	 -128.615 	 70.0187 	 -49.7446
| 16> C 	 -129.845 	 70.1739 	 -51.4773
| 17> H 	 -129.743 	 69.9243 	 -52.5954
| 18> H 	 -130.842 	 69.7918 	 -51.1708
| 19> C 	 -129.969 	 71.7369 	 -51.2432
| 20> H 	 -129.006 	 72.1889 	 -51.3832
| 21> H 	 -130.742 	 72.1744 	 -51.7891
| 22> H 	 -130.296 	 71.7882 	 -50.2622
| 23> S 	 -130.777 	 64.3385 	 -53.2562
| 24> C 	 -132.36 	 63.5927 	 -53.0805
| 25> C 	 -133.108 	 63.8671 	 -51.9392
| 26> C 	 -132.286 	 64.8002 	 -51.1506
| 27> C 	 -131.015 	 65.0159 	 -51.6961
| 28> H 	 -134.096 	 63.4645 	 -51.7218
| 29> C 	 -132.747 	 65.2978 	 -49.8551
| 30> H 	 -132.314 	 66.3418 	 -49.6152
| 31> H 	 -132.282 	 64.6243 	 -49.1275
| 32> C 	 -134.227 	 65.193 	 -49.4406
| 33> H 	 -134.63 	 64.1822 	 -49.5756
| 34> H 	 -134.771 	 65.9121 	 -49.9727
| 35> C 	 -134.384 	 65.4991 	 -47.9323
| 36> H 	 -133.766 	 64.8708 	 -47.3018
| 37> H 	 -135.373 	 65.55 	 -47.6028
| 38> H 	 -134.097 	 66.5193 	 -47.6209
| 39> H 	 -126.963 	 67.4332 	 -49.8305
| 40> H 	 -132.914 	 63.1022 	 -53.8123
| 41> *
| 42>
| 43>                          ****END OF INPUT****

CARTESIAN COORDINATES (ANGSTROEM)
---------------------------------
  S    -128.554000   65.502300  -50.372700
  C    -127.982000   67.179900  -50.260900
  C    -128.889000   68.012200  -50.727500
  C    -129.990000   67.299300  -51.305200
  C    -129.965000   65.926100  -51.229000
  H    -130.853000   67.733000  -51.794800
  C    -128.710000   69.512400  -50.760300
  H    -127.715000   69.745200  -51.171600
  H    -128.615000   70.018700  -49.744600
  C    -129.845000   70.173900  -51.477300
  H    -129.743000   69.924300  -52.595400
  H    -130.842000   69.791800  -51.170800
  C    -129.969000   71.736900  -51.243200
  H    -129.006000   72.188900  -51.383200
  H    -130.742000   72.174400  -51.789100
  H    -130.296000   71.788200  -50.262200
  S    -130.777000   64.338500  -53.256200
  C    -132.360000   63.592700  -53.080500
  C    -133.108000   63.867100  -51.939200
  C    -132.286000   64.800200  -51.150600
  C    -131.015000   65.015900  -51.696100
  H    -134.096000   63.464500  -51.721800
  C    -132.747000   65.297800  -49.855100
  H    -132.314000   66.341800  -49.615200
  H    -132.282000   64.624300  -49.127500
  C    -134.227000   65.193000  -49.440600
  H    -134.630000   64.182200  -49.575600
  H    -134.771000   65.912100  -49.972700
  C    -134.384000   65.499100  -47.932300
  H    -133.766000   64.870800  -47.301800
  H    -135.373000   65.550000  -47.602800
  H    -134.097000   66.519300  -47.620900
  H    -126.963000   67.433200  -49.830500
  H    -132.914000   63.102200  -53.812300

 Total Charge           Charge          ....    0
 Multiplicity           Mult            ....    1
 Number of Electrons    NEL             ....  134
 Basis Dimension        Dim             ....  322

ORBITAL ENERGIES
----------------

  NO   OCC          E(Eh)            E(eV)
   0   2.0000     -88.970767     -2421.0176
   1   2.0000     -88.957903     -2420.6676
   2   2.0000     -10.320709      -280.8408
   3   2.0000     -10.320165      -280.8260
   4   2.0000     -10.313118      -280.6342
   5   2.0000     -10.311254      -280.5835
   6   2.0000     -10.306410      -280.4517
   7   2.0000     -10.299834      -280.2727
   8   2.0000     -10.296980      -280.1951
   9   2.0000     -10.294150      -280.1181
  10   2.0000     -10.292216      -280.0654
  11   2.0000     -10.290406      -280.0162
  12   2.0000     -10.288280      -279.9583
  13   2.0000     -10.286966      -279.9226
  14   2.0000     -10.274573      -279.5854
  15   2.0000     -10.269389      -279.4443
  16   2.0000      -8.085596      -220.0203
  17   2.0000      -8.073390      -219.6881
  18   2.0000      -6.044022      -164.4662
  19   2.0000      -6.040312      -164.3653
  20   2.0000      -6.036228      -164.2541
  21   2.0000      -6.031851      -164.1350
  22   2.0000      -6.027724      -164.0227
  23   2.0000      -6.024210      -163.9271
  24   2.0000      -1.009870       -27.4800
  25   2.0000      -0.987059       -26.8592
  26   2.0000      -0.914332       -24.8802
  27   2.0000      -0.912084       -24.8191
  28   2.0000      -0.871742       -23.7213
  29   2.0000      -0.854071       -23.2405
  30   2.0000      -0.841522       -22.8990
  31   2.0000      -0.815548       -22.1922
  32   2.0000      -0.786604       -21.4046
  33   2.0000      -0.771303       -20.9882
  34   2.0000      -0.714551       -19.4439
  35   2.0000      -0.703123       -19.1330
  36   2.0000      -0.681408       -18.5420
  37   2.0000      -0.656071       -17.8526
  38   2.0000      -0.640842       -17.4382
  39   2.0000      -0.616206       -16.7678
  40   2.0000      -0.597282       -16.2529
  41   2.0000      -0.575002       -15.6466
  42   2.0000      -0.571578       -15.5534
  43   2.0000      -0.565610       -15.3910
  44   2.0000      -0.531206       -14.4548
  45   2.0000      -0.525052       -14.2874
  46   2.0000      -0.516942       -14.0667
  47   2.0000      -0.509430       -13.8623
  48   2.0000      -0.501184       -13.6379
  49   2.0000      -0.496164       -13.5013
  50   2.0000      -0.487299       -13.2601
  51   2.0000      -0.480487       -13.0747
  52   2.0000      -0.474378       -12.9085
  53   2.0000      -0.463810       -12.6209
  54   2.0000      -0.461607       -12.5610
  55   2.0000      -0.451085       -12.2746
  56   2.0000      -0.444154       -12.0860
  57   2.0000      -0.437046       -11.8926
  58   2.0000      -0.433844       -11.8055
  59   2.0000      -0.429790       -11.6952
  60   2.0000      -0.420508       -11.4426
  61   2.0000      -0.414878       -11.2894
  62   2.0000      -0.405608       -11.0372
  63   2.0000      -0.336612        -9.1597
  64   2.0000      -0.329883        -8.9766
  65   2.0000      -0.319086        -8.6828
  66   2.0000      -0.304356        -8.2819
  67   0.0000       0.048031         1.3070
  68   0.0000       0.060946         1.6584
  69   0.0000       0.112583         3.0635
  70   0.0000       0.121539         3.3072
  71   0.0000       0.129459         3.5228

MULLIKEN ATOMIC CHARGES
-----------------------
   0 S :    0.098523
   1 C :   -0.172749
   2 C :   -0.025960
   3 C :    0.016444
   4 C :   -0.172112
   5 H :    0.004447
   6 C :    0.065997
   7 H :    0.033363
   8 H :    0.034388
   9 C :   -0.172033
  10 H :    0.043635
  11 H :    0.041870
  12 C :    0.031414
  13 H :    0.031444
  14 H :    0.020355
  15 H :    0.011710
  16 S :    0.139443
  17 C :   -0.039511
  18 C :   -0.063786
  19 C :   -0.007596
  20 C :   -0.171307
  21 H :    0.034670
  22 C :    0.002083
  23 H :    0.046356
  24 H :    0.037035
  25 C :   -0.045344
  26 H :    0.037471
  27 H :    0.023854
  28 C :   -0.032833
  29 H :    0.027788
  30 H :    0.016557
  31 H :    0.013954
  32 H :    0.067462
  33 H :    0.022968
Sum of atomic charges:    0.0000000

LOEWDIN ATOMIC CHARGES
----------------------
   0 S :    0.405445
   1 C :   -0.188184
   2 C :   -0.074939
   3 C :   -0.068954
   4 C :   -0.219011
   5 H :    0.027861
   6 C :   -0.038992
   7 H :    0.035260
   8 H :    0.037001
   9 C :   -0.048661
  10 H :    0.028679
  11 H :    0.024829
  12 C :   -0.049514
  13 H :    0.022838
  14 H :    0.020297
  15 H :    0.017201
  16 S :    0.429534
  17 C :   -0.170571
  18 C :   -0.066305
  19 C :   -0.043608
  20 C :   -0.225852
  21 H :    0.037151
  22 C :   -0.049501
  23 H :    0.042995
  24 H :    0.041035
  25 C :   -0.030816
  26 H :    0.026552
  27 H :    0.017018
  28 C :   -0.063346
  29 H :    0.023527
  30 H :    0.018563
  31 H :    0.026963
  32 H :    0.042277
  33 H :    0.013227

  Mayer bond orders larger than 0.100000
B(  0-S ,  1-C ) :   1.1363 B(  0-S ,  4-C ) :   1.1572 B(  1-C ,  2-C ) :   1.6335
B(  1-C , 32-H ) :   0.9661 B(  2-C ,  3-C ) :   1.2317 B(  2-C ,  6-C ) :   1.0018
B(  3-C ,  4-C ) :   1.5802 B(  3-C ,  5-H ) :   0.9987 B(  4-C , 20-C ) :   0.9970
B(  6-C ,  7-H ) :   0.9322 B(  6-C ,  8-H ) :   0.9389 B(  6-C ,  9-C ) :   1.0865
B(  9-C , 10-H ) :   0.9491 B(  9-C , 11-H ) :   0.9526 B(  9-C , 12-C ) :   1.0694
B( 12-C , 13-H ) :   0.9768 B( 12-C , 14-H ) :   0.9721 B( 12-C , 15-H ) :   0.9744
B( 16-S , 17-C ) :   1.1597 B( 16-S , 20-C ) :   1.1383 B( 17-C , 18-C ) :   1.6386
B( 17-C , 33-H ) :   0.9615 B( 18-C , 19-C ) :   1.2114 B( 18-C , 21-H ) :   0.9829
B( 19-C , 20-C ) :   1.6187 B( 19-C , 22-C ) :   1.0584 B( 22-C , 23-H ) :   0.9264
B( 22-C , 24-H ) :   0.9262 B( 22-C , 25-C ) :   1.0723 B( 25-C , 26-H ) :   0.9437
B( 25-C , 27-H ) :   0.9549 B( 25-C , 28-C ) :   1.0900 B( 28-C , 29-H ) :   0.9753
B( 28-C , 30-H ) :   0.9718 B( 28-C , 31-H ) :   0.9701

Dispersion correction           -0.013606696
FINAL SINGLE POINT ENERGY     -1339.851754623354

DIPOLE MOMENT
-------------
                                X             Y             Z
Electronic contribution:     13.73961     -20.68839     -12.15444
Nuclear contribution   :    -14.22606      21.18329      12.38574
                        -----------------------------------------
Total Dipole Moment    :     -0.48645       0.49491       0.23130
                        -----------------------------------------
Magnitude (a.u.)       :      0.73148
Magnitude (Debye)      :      1.85927

Rotational constants in cm-1:     0.015919     0.008375     0.007021
Rotational constants in MHz :   477.252200   251.064295   210.486649

                             ****ORCA TERMINATED NORMALLY****
TOTAL RUN TIME: 0 days 0 hours 0 minutes 21 seconds 278 msec
