                         Program Version 4.2.1 -  RELEASE  -
|  1> ! wB97X-D3 SP def2-SVP
|  2> %pal
|  3> nprocs 24
|  4> end
|  5>
|  6> * xyz 0 1
|  7> S 	 -72.7658 	 4.94975 	 -103.063
|  8> C 	 -73.7043 	 6.26671 	 -102.613
|  9> C 	 -74.9636 	 6.00475 	 -103.013
| 10> C 	 -75.0809 	 4.91624 	 -103.954
| 11> C 	 -73.8835 	 4.30985 	 -104.204
| 12> H 	 -76.0728 	 4.53963 	 -104.253
| 13> C 	 -76.1141 	 6.83419 	 -102.654
| 14> H 	 -75.7417 	 7.77766 	 -102.122
| 15> H 	 -76.5975 	 6.26866 	 -101.875
| 16> C 	 -77.1648 	 7.36052 	 -103.729
| 17> H 	 -77.477 	 6.45762 	 -104.262
| 18> H 	 -78.0184 	 7.66946 	 -103.063
| 19> C 	 -76.659 	 8.29889 	 -104.789
| 20> H 	 -76.6386 	 9.33205 	 -104.442
| 21> H 	 -75.6229 	 8.16782 	 -105.065
| 22> H 	 -77.3475 	 8.16164 	 -105.63
| 23> S 	 -74.3208 	 1.62091 	 -104.469
| 24> C 	 -73.7434 	 0.814241 	 -105.891
| 25> C 	 -73.0488 	 1.66687 	 -106.721
| 26> C 	 -72.9629 	 3.02576 	 -106.207
| 27> C 	 -73.7263 	 3.15732 	 -105.082
| 28> H 	 -72.681 	 1.2126 	 -107.625
| 29> C 	 -72.2387 	 4.07388 	 -107.143
| 30> H 	 -71.2616 	 3.89551 	 -107.054
| 31> H 	 -72.2889 	 5.0876 	 -106.713
| 32> C 	 -72.7445 	 4.1554 	 -108.549
| 33> H 	 -73.8142 	 4.20838 	 -108.549
| 34> H 	 -72.5577 	 3.24971 	 -109.057
| 35> C 	 -72.2504 	 5.43075 	 -109.238
| 36> H 	 -72.8683 	 6.3077 	 -108.955
| 37> H 	 -72.3957 	 5.35962 	 -110.267
| 38> H 	 -71.1967 	 5.72847 	 -109.163
| 39> H 	 -73.4661 	 7.11201 	 -102.001
| 40> H 	 -73.8458 	 -0.201588 	 -106.236
| 41> *
| 42>
| 43>                          ****END OF INPUT****

CARTESIAN COORDINATES (ANGSTROEM)
---------------------------------
  S    -72.765800    4.949750  -103.063000
  C    -73.704300    6.266710  -102.613000
  C    -74.963600    6.004750  -103.013000
  C    -75.080900    4.916240  -103.954000
  C    -73.883500    4.309850  -104.204000
  H    -76.072800    4.539630  -104.253000
  C    -76.114100    6.834190  -102.654000
  H    -75.741700    7.777660  -102.122000
  H    -76.597500    6.268660  -101.875000
  C    -77.164800    7.360520  -103.729000
  H    -77.477000    6.457620  -104.262000
  H    -78.018400    7.669460  -103.063000
  C    -76.659000    8.298890  -104.789000
  H    -76.638600    9.332050  -104.442000
  H    -75.622900    8.167820  -105.065000
  H    -77.347500    8.161640  -105.630000
  S    -74.320800    1.620910  -104.469000
  C    -73.743400    0.814241  -105.891000
  C    -73.048800    1.666870  -106.721000
  C    -72.962900    3.025760  -106.207000
  C    -73.726300    3.157320  -105.082000
  H    -72.681000    1.212600  -107.625000
  C    -72.238700    4.073880  -107.143000
  H    -71.261600    3.895510  -107.054000
  H    -72.288900    5.087600  -106.713000
  C    -72.744500    4.155400  -108.549000
  H    -73.814200    4.208380  -108.549000
  H    -72.557700    3.249710  -109.057000
  C    -72.250400    5.430750  -109.238000
  H    -72.868300    6.307700  -108.955000
  H    -72.395700    5.359620  -110.267000
  H    -71.196700    5.728470  -109.163000
  H    -73.466100    7.112010  -102.001000
  H    -73.845800   -0.201588  -106.236000

 Total Charge           Charge          ....    0
 Multiplicity           Mult            ....    1
 Number of Electrons    NEL             ....  134
 Basis Dimension        Dim             ....  322

ORBITAL ENERGIES
----------------

  NO   OCC          E(Eh)            E(eV)
   0   2.0000     -88.966062     -2420.8896
   1   2.0000     -88.958406     -2420.6813
   2   2.0000     -10.324859      -280.9537
   3   2.0000     -10.321842      -280.8716
   4   2.0000     -10.313558      -280.6462
   5   2.0000     -10.307478      -280.4807
   6   2.0000     -10.301293      -280.3124
   7   2.0000     -10.290886      -280.0293
   8   2.0000     -10.290638      -280.0225
   9   2.0000     -10.289022      -279.9785
  10   2.0000     -10.288130      -279.9543
  11   2.0000     -10.287050      -279.9249
  12   2.0000     -10.283116      -279.8178
  13   2.0000     -10.279773      -279.7268
  14   2.0000     -10.275460      -279.6095
  15   2.0000     -10.275381      -279.6073
  16   2.0000      -8.080887      -219.8921
  17   2.0000      -8.075017      -219.7324
  18   2.0000      -6.039547      -164.3444
  19   2.0000      -6.035397      -164.2315
  20   2.0000      -6.033482      -164.1794
  21   2.0000      -6.031456      -164.1243
  22   2.0000      -6.029315      -164.0660
  23   2.0000      -6.025601      -163.9649
  24   2.0000      -1.015954       -27.6455
  25   2.0000      -0.990672       -26.9575
  26   2.0000      -0.913067       -24.8458
  27   2.0000      -0.907589       -24.6967
  28   2.0000      -0.875091       -23.8124
  29   2.0000      -0.848636       -23.0926
  30   2.0000      -0.846650       -23.0385
  31   2.0000      -0.818923       -22.2840
  32   2.0000      -0.786559       -21.4034
  33   2.0000      -0.772624       -21.0242
  34   2.0000      -0.713463       -19.4143
  35   2.0000      -0.706054       -19.2127
  36   2.0000      -0.691266       -18.8103
  37   2.0000      -0.656970       -17.8771
  38   2.0000      -0.634680       -17.2705
  39   2.0000      -0.620579       -16.8868
  40   2.0000      -0.596062       -16.2197
  41   2.0000      -0.573287       -15.5999
  42   2.0000      -0.566676       -15.4200
  43   2.0000      -0.550918       -14.9912
  44   2.0000      -0.534733       -14.5508
  45   2.0000      -0.524527       -14.2731
  46   2.0000      -0.521037       -14.1781
  47   2.0000      -0.513858       -13.9828
  48   2.0000      -0.510787       -13.8992
  49   2.0000      -0.498889       -13.5755
  50   2.0000      -0.490890       -13.3578
  51   2.0000      -0.481907       -13.1134
  52   2.0000      -0.477153       -12.9840
  53   2.0000      -0.470103       -12.7922
  54   2.0000      -0.456431       -12.4201
  55   2.0000      -0.446248       -12.1430
  56   2.0000      -0.443288       -12.0625
  57   2.0000      -0.440182       -11.9780
  58   2.0000      -0.429946       -11.6994
  59   2.0000      -0.422589       -11.4992
  60   2.0000      -0.415826       -11.3152
  61   2.0000      -0.408461       -11.1148
  62   2.0000      -0.404019       -10.9939
  63   2.0000      -0.332826        -9.0567
  64   2.0000      -0.331878        -9.0309
  65   2.0000      -0.319022        -8.6810
  66   2.0000      -0.310467        -8.4482
  67   0.0000       0.042038         1.1439
  68   0.0000       0.067544         1.8380
  69   0.0000       0.113707         3.0941
  70   0.0000       0.127299         3.4640
  71   0.0000       0.132286         3.5997

MULLIKEN ATOMIC CHARGES
-----------------------
   0 S :    0.122887
   1 C :   -0.109830
   2 C :   -0.093506
   3 C :    0.003000
   4 C :   -0.119966
   5 H :    0.026101
   6 C :    0.007877
   7 H :    0.014784
   8 H :    0.035297
   9 C :   -0.080861
  10 H :    0.020348
  11 H :    0.042060
  12 C :   -0.026597
  13 H :    0.026422
  14 H :    0.036901
  15 H :    0.043437
  16 S :    0.122686
  17 C :   -0.076864
  18 C :   -0.067049
  19 C :   -0.009944
  20 C :   -0.204528
  21 H :    0.016012
  22 C :    0.132327
  23 H :   -0.002110
  24 H :    0.016294
  25 C :   -0.042289
  26 H :    0.026794
  27 H :    0.017069
  28 C :   -0.047942
  29 H :    0.038614
  30 H :    0.012208
  31 H :    0.033958
  32 H :    0.039530
  33 H :    0.046880
Sum of atomic charges:    0.0000000

LOEWDIN ATOMIC CHARGES
----------------------
   0 S :    0.439125
   1 C :   -0.216039
   2 C :   -0.079565
   3 C :   -0.066509
   4 C :   -0.209265
   5 H :    0.033273
   6 C :   -0.044415
   7 H :    0.029731
   8 H :    0.033076
   9 C :   -0.045038
  10 H :    0.018912
  11 H :    0.033609
  12 C :   -0.067401
  13 H :    0.025770
  14 H :    0.029724
  15 H :    0.033429
  16 S :    0.409353
  17 C :   -0.190078
  18 C :   -0.074692
  19 C :   -0.040678
  20 C :   -0.200031
  21 H :    0.028555
  22 C :   -0.016530
  23 H :    0.014372
  24 H :    0.033235
  25 C :   -0.033849
  26 H :    0.029394
  27 H :    0.015347
  28 C :   -0.064465
  29 H :    0.033104
  30 H :    0.018481
  31 H :    0.027199
  32 H :    0.031486
  33 H :    0.031380

  Mayer bond orders larger than 0.100000
B(  0-S ,  1-C ) :   1.1432 B(  0-S ,  4-C ) :   1.1626 B(  1-C ,  2-C ) :   1.5874
B(  1-C , 32-H ) :   0.9730 B(  2-C ,  3-C ) :   1.2473 B(  2-C ,  6-C ) :   1.0411
B(  3-C ,  4-C ) :   1.5414 B(  3-C ,  5-H ) :   0.9960 B(  4-C , 20-C ) :   1.0363
B(  6-C ,  7-H ) :   0.9451 B(  6-C ,  8-H ) :   0.9257 B(  6-C ,  9-C ) :   1.0702
B(  9-C , 10-H ) :   0.9589 B(  9-C , 11-H ) :   0.9541 B(  9-C , 12-C ) :   1.0634
B( 12-C , 13-H ) :   0.9729 B( 12-C , 14-H ) :   0.9741 B( 12-C , 15-H ) :   0.9766
B( 16-S , 17-C ) :   1.1408 B( 16-S , 20-C ) :   1.1313 B( 17-C , 18-C ) :   1.6679
B( 17-C , 33-H ) :   0.9628 B( 18-C , 19-C ) :   1.1866 B( 18-C , 21-H ) :   0.9887
B( 19-C , 20-C ) :   1.6455 B( 19-C , 22-C ) :   1.0220 B( 22-C , 23-H ) :   0.9212
B( 22-C , 24-H ) :   0.9387 B( 22-C , 25-C ) :   1.0669 B( 25-C , 26-H ) :   0.9525
B( 25-C , 27-H ) :   0.9519 B( 25-C , 28-C ) :   1.0851 B( 28-C , 29-H ) :   0.9734
B( 28-C , 30-H ) :   0.9704 B( 28-C , 31-H ) :   0.9770

Dispersion correction           -0.013838601
FINAL SINGLE POINT ENERGY     -1339.846989322955

DIPOLE MOMENT
-------------
                                X             Y             Z
Electronic contribution:      6.82085     -19.23314      16.12489
Nuclear contribution   :     -7.01965      19.45784     -16.54804
                        -----------------------------------------
Total Dipole Moment    :     -0.19880       0.22470      -0.42315
                        -----------------------------------------
Magnitude (a.u.)       :      0.51872
Magnitude (Debye)      :      1.31847

Rotational constants in cm-1:     0.016682     0.008768     0.007161
Rotational constants in MHz :   500.116175   262.860506   214.682351

                             ****ORCA TERMINATED NORMALLY****
TOTAL RUN TIME: 0 days 0 hours 0 minutes 21 seconds 291 msec
