                         Program Version 4.2.1 -  RELEASE  -
|  1> ! wB97X-D3 SP def2-SVP
|  2> %pal
|  3> nprocs 24
|  4> end
|  5>
|  6> * xyz 0 1
|  7> S 	 -65.5594 	 -48.6214 	 -94.5028
|  8> C 	 -64.1948 	 -47.9867 	 -93.6357
|  9> C 	 -64.3319 	 -48.2506 	 -92.2749
| 10> C 	 -65.4248 	 -49.0967 	 -92.0498
| 11> C 	 -66.1959 	 -49.3927 	 -93.0927
| 12> H 	 -65.7743 	 -49.3147 	 -91.0929
| 13> C 	 -63.3628 	 -47.7897 	 -91.1308
| 14> H 	 -62.3335 	 -48.0101 	 -91.5143
| 15> H 	 -63.5817 	 -48.4945 	 -90.2993
| 16> C 	 -63.4324 	 -46.2709 	 -90.8082
| 17> H 	 -63.2399 	 -45.7166 	 -91.7625
| 18> H 	 -64.4642 	 -46.0221 	 -90.519
| 19> C 	 -62.4109 	 -45.633 	 -89.8605
| 20> H 	 -61.362 	 -45.964 	 -89.9917
| 21> H 	 -62.5834 	 -44.5384 	 -89.9012
| 22> H 	 -62.6084 	 -46.079 	 -88.8457
| 23> S 	 -68.6247 	 -49.3816 	 -94.1623
| 24> C 	 -69.7368 	 -50.6949 	 -93.852
| 25> C 	 -69.1222 	 -51.6756 	 -93.1469
| 26> C 	 -67.7542 	 -51.3778 	 -92.7905
| 27> C 	 -67.4214 	 -50.0734 	 -93.118
| 28> H 	 -69.7796 	 -52.485 	 -92.9411
| 29> C 	 -66.832 	 -52.5065 	 -92.1927
| 30> H 	 -67.5088 	 -53.1716 	 -91.5736
| 31> H 	 -66.1917 	 -52.091 	 -91.5043
| 32> C 	 -66.1936 	 -53.4465 	 -93.1956
| 33> H 	 -65.4283 	 -53.9823 	 -92.6296
| 34> H 	 -65.6949 	 -52.8201 	 -94.0226
| 35> C 	 -67.1461 	 -54.4012 	 -93.8513
| 36> H 	 -67.8938 	 -53.9479 	 -94.4911
| 37> H 	 -67.7 	 -54.8625 	 -93.0927
| 38> H 	 -66.7138 	 -55.2375 	 -94.4579
| 39> H 	 -63.3387 	 -47.4733 	 -93.9526
| 40> H 	 -70.7234 	 -50.7065 	 -94.2682
| 41> *
| 42>
| 43>                          ****END OF INPUT****

CARTESIAN COORDINATES (ANGSTROEM)
---------------------------------
  S    -65.559400  -48.621400  -94.502800
  C    -64.194800  -47.986700  -93.635700
  C    -64.331900  -48.250600  -92.274900
  C    -65.424800  -49.096700  -92.049800
  C    -66.195900  -49.392700  -93.092700
  H    -65.774300  -49.314700  -91.092900
  C    -63.362800  -47.789700  -91.130800
  H    -62.333500  -48.010100  -91.514300
  H    -63.581700  -48.494500  -90.299300
  C    -63.432400  -46.270900  -90.808200
  H    -63.239900  -45.716600  -91.762500
  H    -64.464200  -46.022100  -90.519000
  C    -62.410900  -45.633000  -89.860500
  H    -61.362000  -45.964000  -89.991700
  H    -62.583400  -44.538400  -89.901200
  H    -62.608400  -46.079000  -88.845700
  S    -68.624700  -49.381600  -94.162300
  C    -69.736800  -50.694900  -93.852000
  C    -69.122200  -51.675600  -93.146900
  C    -67.754200  -51.377800  -92.790500
  C    -67.421400  -50.073400  -93.118000
  H    -69.779600  -52.485000  -92.941100
  C    -66.832000  -52.506500  -92.192700
  H    -67.508800  -53.171600  -91.573600
  H    -66.191700  -52.091000  -91.504300
  C    -66.193600  -53.446500  -93.195600
  H    -65.428300  -53.982300  -92.629600
  H    -65.694900  -52.820100  -94.022600
  C    -67.146100  -54.401200  -93.851300
  H    -67.893800  -53.947900  -94.491100
  H    -67.700000  -54.862500  -93.092700
  H    -66.713800  -55.237500  -94.457900
  H    -63.338700  -47.473300  -93.952600
  H    -70.723400  -50.706500  -94.268200

 Total Charge           Charge          ....    0
 Multiplicity           Mult            ....    1
 Number of Electrons    NEL             ....  134
 Basis Dimension        Dim             ....  322

ORBITAL ENERGIES
----------------

  NO   OCC          E(Eh)            E(eV)
   0   2.0000     -88.965961     -2420.8869
   1   2.0000     -88.960784     -2420.7460
   2   2.0000     -10.322734      -280.8959
   3   2.0000     -10.317040      -280.7409
   4   2.0000     -10.312928      -280.6290
   5   2.0000     -10.309510      -280.5360
   6   2.0000     -10.307949      -280.4936
   7   2.0000     -10.303575      -280.3745
   8   2.0000     -10.297873      -280.2194
   9   2.0000     -10.292841      -280.0824
  10   2.0000     -10.292538      -280.0742
  11   2.0000     -10.291106      -280.0352
  12   2.0000     -10.288693      -279.9696
  13   2.0000     -10.287761      -279.9442
  14   2.0000     -10.277678      -279.6698
  15   2.0000     -10.270749      -279.4813
  16   2.0000      -8.081138      -219.8989
  17   2.0000      -8.076436      -219.7710
  18   2.0000      -6.039667      -164.3477
  19   2.0000      -6.035539      -164.2354
  20   2.0000      -6.034926      -164.2187
  21   2.0000      -6.031859      -164.1352
  22   2.0000      -6.030887      -164.1088
  23   2.0000      -6.027073      -164.0050
  24   2.0000      -1.018584       -27.7171
  25   2.0000      -0.989006       -26.9122
  26   2.0000      -0.910740       -24.7825
  27   2.0000      -0.905310       -24.6347
  28   2.0000      -0.877969       -23.8907
  29   2.0000      -0.853709       -23.2306
  30   2.0000      -0.842712       -22.9314
  31   2.0000      -0.820627       -22.3304
  32   2.0000      -0.785889       -21.3851
  33   2.0000      -0.774426       -21.0732
  34   2.0000      -0.712855       -19.3978
  35   2.0000      -0.695228       -18.9181
  36   2.0000      -0.689889       -18.7728
  37   2.0000      -0.664527       -18.0827
  38   2.0000      -0.642414       -17.4810
  39   2.0000      -0.624668       -16.9981
  40   2.0000      -0.596201       -16.2235
  41   2.0000      -0.567606       -15.4453
  42   2.0000      -0.558605       -15.2004
  43   2.0000      -0.553944       -15.0736
  44   2.0000      -0.545406       -14.8413
  45   2.0000      -0.533322       -14.5124
  46   2.0000      -0.521374       -14.1873
  47   2.0000      -0.513478       -13.9724
  48   2.0000      -0.509108       -13.8535
  49   2.0000      -0.493810       -13.4373
  50   2.0000      -0.490314       -13.3421
  51   2.0000      -0.480391       -13.0721
  52   2.0000      -0.474854       -12.9214
  53   2.0000      -0.464118       -12.6293
  54   2.0000      -0.457458       -12.4481
  55   2.0000      -0.448275       -12.1982
  56   2.0000      -0.446501       -12.1499
  57   2.0000      -0.436800       -11.8859
  58   2.0000      -0.431543       -11.7429
  59   2.0000      -0.422194       -11.4885
  60   2.0000      -0.417738       -11.3672
  61   2.0000      -0.410817       -11.1789
  62   2.0000      -0.405034       -11.0215
  63   2.0000      -0.355944        -9.6857
  64   2.0000      -0.332902        -9.0587
  65   2.0000      -0.329590        -8.9686
  66   2.0000      -0.289406        -7.8751
  67   0.0000       0.031090         0.8460
  68   0.0000       0.068452         1.8627
  69   0.0000       0.110722         3.0129
  70   0.0000       0.124985         3.4010
  71   0.0000       0.138597         3.7714

MULLIKEN ATOMIC CHARGES
-----------------------
   0 S :    0.120719
   1 C :   -0.089304
   2 C :   -0.107446
   3 C :    0.030024
   4 C :   -0.121741
   5 H :   -0.018878
   6 C :    0.060425
   7 H :    0.031849
   8 H :    0.030928
   9 C :   -0.098867
  10 H :    0.028765
  11 H :    0.036410
  12 C :   -0.054881
  13 H :    0.035091
  14 H :    0.057662
  15 H :    0.028201
  16 S :    0.080008
  17 C :   -0.096452
  18 C :   -0.021168
  19 C :   -0.044683
  20 C :   -0.144243
  21 H :    0.011124
  22 C :    0.100899
  23 H :    0.018088
  24 H :   -0.000792
  25 C :   -0.061144
  26 H :    0.034150
  27 H :    0.046660
  28 C :   -0.039342
  29 H :    0.035638
  30 H :   -0.001857
  31 H :    0.040975
  32 H :    0.019536
  33 H :    0.053648
Sum of atomic charges:    0.0000000

LOEWDIN ATOMIC CHARGES
----------------------
   0 S :    0.421646
   1 C :   -0.196433
   2 C :   -0.059812
   3 C :   -0.068135
   4 C :   -0.200665
   5 H :    0.020414
   6 C :   -0.032441
   7 H :    0.033948
   8 H :    0.030374
   9 C :   -0.050828
  10 H :    0.026819
  11 H :    0.026463
  12 C :   -0.074807
  13 H :    0.027474
  14 H :    0.036359
  15 H :    0.027050
  16 S :    0.400221
  17 C :   -0.177297
  18 C :   -0.072589
  19 C :   -0.048828
  20 C :   -0.197469
  21 H :    0.029712
  22 C :   -0.021509
  23 H :    0.033743
  24 H :    0.015365
  25 C :   -0.041572
  26 H :    0.028055
  27 H :    0.035212
  28 C :   -0.069826
  29 H :    0.026109
  30 H :    0.012911
  31 H :    0.034131
  32 H :    0.019424
  33 H :    0.026782

  Mayer bond orders larger than 0.100000
B(  0-S ,  1-C ) :   1.1417 B(  0-S ,  4-C ) :   1.1340 B(  1-C ,  2-C ) :   1.5988
B(  1-C , 32-H ) :   0.9732 B(  2-C ,  3-C ) :   1.2713 B(  2-C ,  6-C ) :   1.0041
B(  3-C ,  4-C ) :   1.5864 B(  3-C ,  5-H ) :   1.0024 B(  4-C , 20-C ) :   1.0731
B(  6-C ,  7-H ) :   0.9405 B(  6-C ,  8-H ) :   0.9479 B(  6-C ,  9-C ) :   1.0543
B(  9-C , 10-H ) :   0.9584 B(  9-C , 11-H ) :   0.9568 B(  9-C , 12-C ) :   1.0769
B( 12-C , 13-H ) :   0.9727 B( 12-C , 14-H ) :   0.9734 B( 12-C , 15-H ) :   0.9733
B( 16-S , 17-C ) :   1.1433 B( 16-S , 20-C ) :   1.1306 B( 17-C , 18-C ) :   1.6345
B( 17-C , 33-H ) :   0.9701 B( 18-C , 19-C ) :   1.2049 B( 18-C , 21-H ) :   0.9961
B( 19-C , 20-C ) :   1.6053 B( 19-C , 22-C ) :   1.0249 B( 22-C , 23-H ) :   0.9376
B( 22-C , 24-H ) :   0.9328 B( 22-C , 25-C ) :   1.0705 B( 25-C , 26-H ) :   0.9533
B( 25-C , 27-H ) :   0.9523 B( 25-C , 28-C ) :   1.0819 B( 28-C , 29-H ) :   0.9701
B( 28-C , 30-H ) :   0.9692 B( 28-C , 31-H ) :   0.9715

Dispersion correction           -0.013968322
FINAL SINGLE POINT ENERGY     -1339.863095486826

DIPOLE MOMENT
-------------
                                X             Y             Z
Electronic contribution:    -13.90305       5.99991     -14.69099
Nuclear contribution   :     14.05779      -6.29193      15.08762
                        -----------------------------------------
Total Dipole Moment    :      0.15473      -0.29202       0.39663
                        -----------------------------------------
Magnitude (a.u.)       :      0.51627
Magnitude (Debye)      :      1.31225

Rotational constants in cm-1:     0.023858     0.007023     0.006271
Rotational constants in MHz :   715.258756   210.532955   188.005722

                             ****ORCA TERMINATED NORMALLY****
TOTAL RUN TIME: 0 days 0 hours 0 minutes 20 seconds 101 msec
