                         Program Version 4.2.1 -  RELEASE  -
|  1> ! wB97X-D3 SP def2-SVP
|  2> %pal
|  3> nprocs 24
|  4> end
|  5>
|  6> * xyz 0 1
|  7> S 	 38.3777 	 -33.0122 	 -116.952
|  8> C 	 37.3832 	 -33.5368 	 -118.195
|  9> C 	 37.7612 	 -34.7862 	 -118.615
| 10> C 	 39.0095 	 -35.2122 	 -118.017
| 11> C 	 39.4895 	 -34.4031 	 -116.994
| 12> H 	 39.3482 	 -36.1501 	 -118.274
| 13> C 	 36.981 	 -35.6412 	 -119.529
| 14> H 	 35.97 	 -35.6308 	 -119.138
| 15> H 	 37.3989 	 -36.6094 	 -119.473
| 16> C 	 37.1046 	 -35.3198 	 -121.027
| 17> H 	 36.3637 	 -35.9971 	 -121.489
| 18> H 	 36.804 	 -34.3021 	 -121.13
| 19> C 	 38.5202 	 -35.5884 	 -121.578
| 20> H 	 38.4892 	 -36.5644 	 -122.151
| 21> H 	 38.9091 	 -35.0596 	 -122.387
| 22> H 	 39.405 	 -35.628 	 -120.842
| 23> S 	 41.3271 	 -33.2326 	 -115.245
| 24> C 	 42.2751 	 -34.296 	 -114.264
| 25> C 	 42.4069 	 -35.5272 	 -114.816
| 26> C 	 41.5314 	 -35.695 	 -115.95
| 27> C 	 40.7276 	 -34.5518 	 -116.206
| 28> H 	 43.1236 	 -36.2422 	 -114.486
| 29> C 	 41.4417 	 -37.0427 	 -116.696
| 30> H 	 40.32 	 -37.2351 	 -116.941
| 31> H 	 41.6694 	 -37.8452 	 -116.013
| 32> C 	 42.418 	 -37.079 	 -117.881
| 33> H 	 42.5035 	 -38.1503 	 -118.134
| 34> H 	 43.2848 	 -36.676 	 -117.535
| 35> C 	 42.0177 	 -36.3156 	 -119.131
| 36> H 	 42.8545 	 -36.3831 	 -119.859
| 37> H 	 41.7887 	 -35.2443 	 -118.829
| 38> H 	 41.089 	 -36.7431 	 -119.476
| 39> H 	 36.4984 	 -32.9592 	 -118.446
| 40> H 	 42.8358 	 -34.1205 	 -113.327
| 41> *
| 42>
| 43>                          ****END OF INPUT****

CARTESIAN COORDINATES (ANGSTROEM)
---------------------------------
  S     38.377700  -33.012200  -116.952000
  C     37.383200  -33.536800  -118.195000
  C     37.761200  -34.786200  -118.615000
  C     39.009500  -35.212200  -118.017000
  C     39.489500  -34.403100  -116.994000
  H     39.348200  -36.150100  -118.274000
  C     36.981000  -35.641200  -119.529000
  H     35.970000  -35.630800  -119.138000
  H     37.398900  -36.609400  -119.473000
  C     37.104600  -35.319800  -121.027000
  H     36.363700  -35.997100  -121.489000
  H     36.804000  -34.302100  -121.130000
  C     38.520200  -35.588400  -121.578000
  H     38.489200  -36.564400  -122.151000
  H     38.909100  -35.059600  -122.387000
  H     39.405000  -35.628000  -120.842000
  S     41.327100  -33.232600  -115.245000
  C     42.275100  -34.296000  -114.264000
  C     42.406900  -35.527200  -114.816000
  C     41.531400  -35.695000  -115.950000
  C     40.727600  -34.551800  -116.206000
  H     43.123600  -36.242200  -114.486000
  C     41.441700  -37.042700  -116.696000
  H     40.320000  -37.235100  -116.941000
  H     41.669400  -37.845200  -116.013000
  C     42.418000  -37.079000  -117.881000
  H     42.503500  -38.150300  -118.134000
  H     43.284800  -36.676000  -117.535000
  C     42.017700  -36.315600  -119.131000
  H     42.854500  -36.383100  -119.859000
  H     41.788700  -35.244300  -118.829000
  H     41.089000  -36.743100  -119.476000
  H     36.498400  -32.959200  -118.446000
  H     42.835800  -34.120500  -113.327000

 Total Charge           Charge          ....    0
 Multiplicity           Mult            ....    1
 Number of Electrons    NEL             ....  134
 Basis Dimension        Dim             ....  322

ORBITAL ENERGIES
----------------

  NO   OCC          E(Eh)            E(eV)
   0   2.0000     -88.967514     -2420.9291
   1   2.0000     -88.963168     -2420.8109
   2   2.0000     -10.337390      -281.2947
   3   2.0000     -10.333558      -281.1904
   4   2.0000     -10.316732      -280.7325
   5   2.0000     -10.308616      -280.5117
   6   2.0000     -10.307941      -280.4933
   7   2.0000     -10.297163      -280.2000
   8   2.0000     -10.293503      -280.1004
   9   2.0000     -10.291565      -280.0477
  10   2.0000     -10.289103      -279.9807
  11   2.0000     -10.288525      -279.9650
  12   2.0000     -10.282578      -279.8032
  13   2.0000     -10.281841      -279.7831
  14   2.0000     -10.279068      -279.7077
  15   2.0000     -10.278690      -279.6974
  16   2.0000      -8.082694      -219.9413
  17   2.0000      -8.078790      -219.8351
  18   2.0000      -6.041268      -164.3913
  19   2.0000      -6.037377      -164.2854
  20   2.0000      -6.037245      -164.2818
  21   2.0000      -6.033247      -164.1730
  22   2.0000      -6.032928      -164.1643
  23   2.0000      -6.029644      -164.0750
  24   2.0000      -1.009096       -27.4589
  25   2.0000      -0.991233       -26.9728
  26   2.0000      -0.915664       -24.9165
  27   2.0000      -0.911191       -24.7948
  28   2.0000      -0.872860       -23.7517
  29   2.0000      -0.849947       -23.1282
  30   2.0000      -0.843347       -22.9486
  31   2.0000      -0.819678       -22.3046
  32   2.0000      -0.781771       -21.2731
  33   2.0000      -0.772027       -21.0079
  34   2.0000      -0.706963       -19.2374
  35   2.0000      -0.705449       -19.1962
  36   2.0000      -0.689490       -18.7620
  37   2.0000      -0.662780       -18.0352
  38   2.0000      -0.643688       -17.5156
  39   2.0000      -0.622533       -16.9400
  40   2.0000      -0.597003       -16.2453
  41   2.0000      -0.580149       -15.7867
  42   2.0000      -0.560323       -15.2472
  43   2.0000      -0.549604       -14.9555
  44   2.0000      -0.547055       -14.8861
  45   2.0000      -0.536735       -14.6053
  46   2.0000      -0.516702       -14.0602
  47   2.0000      -0.512444       -13.9443
  48   2.0000      -0.504191       -13.7197
  49   2.0000      -0.498166       -13.5558
  50   2.0000      -0.491388       -13.3714
  51   2.0000      -0.477106       -12.9827
  52   2.0000      -0.474417       -12.9096
  53   2.0000      -0.465512       -12.6672
  54   2.0000      -0.455764       -12.4020
  55   2.0000      -0.450071       -12.2471
  56   2.0000      -0.446844       -12.1592
  57   2.0000      -0.441659       -12.0182
  58   2.0000      -0.427294       -11.6273
  59   2.0000      -0.423714       -11.5299
  60   2.0000      -0.414200       -11.2709
  61   2.0000      -0.412204       -11.2166
  62   2.0000      -0.405051       -11.0220
  63   2.0000      -0.364968        -9.9313
  64   2.0000      -0.331929        -9.0322
  65   2.0000      -0.323591        -8.8054
  66   2.0000      -0.281233        -7.6527
  67   0.0000       0.017314         0.4712
  68   0.0000       0.090618         2.4658
  69   0.0000       0.101554         2.7634
  70   0.0000       0.115578         3.1451
  71   0.0000       0.137186         3.7330

MULLIKEN ATOMIC CHARGES
-----------------------
   0 S :    0.105086
   1 C :   -0.127959
   2 C :   -0.117165
   3 C :    0.044931
   4 C :   -0.088555
   5 H :   -0.054740
   6 C :    0.073440
   7 H :    0.035579
   8 H :    0.000835
   9 C :   -0.016433
  10 H :    0.039057
  11 H :    0.021438
  12 C :   -0.088552
  13 H :    0.025126
  14 H :    0.016970
  15 H :    0.052849
  16 S :    0.116902
  17 C :   -0.087062
  18 C :   -0.015692
  19 C :   -0.098355
  20 C :   -0.132627
  21 H :    0.012937
  22 C :    0.007354
  23 H :    0.047076
  24 H :    0.016437
  25 C :   -0.005653
  26 H :    0.030367
  27 H :    0.000340
  28 C :   -0.069677
  29 H :    0.048073
  30 H :    0.056191
  31 H :    0.029367
  32 H :    0.057784
  33 H :    0.064330
Sum of atomic charges:    0.0000000

LOEWDIN ATOMIC CHARGES
----------------------
   0 S :    0.423842
   1 C :   -0.216130
   2 C :   -0.068267
   3 C :   -0.059943
   4 C :   -0.181441
   5 H :    0.004736
   6 C :   -0.030607
   7 H :    0.034639
   8 H :    0.022626
   9 C :   -0.029535
  10 H :    0.030118
  11 H :    0.015924
  12 C :   -0.085456
  13 H :    0.035142
  14 H :    0.019133
  15 H :    0.037750
  16 S :    0.415232
  17 C :   -0.193217
  18 C :   -0.072207
  19 C :   -0.052566
  20 C :   -0.205235
  21 H :    0.029630
  22 C :   -0.037840
  23 H :    0.038832
  24 H :    0.026007
  25 C :   -0.030803
  26 H :    0.026456
  27 H :    0.010353
  28 C :   -0.064983
  29 H :    0.032135
  30 H :    0.036756
  31 H :    0.015465
  32 H :    0.032059
  33 H :    0.041394

  Mayer bond orders larger than 0.100000
B(  0-S ,  1-C ) :   1.1673 B(  0-S ,  4-C ) :   1.1469 B(  1-C ,  2-C ) :   1.5600
B(  1-C , 32-H ) :   0.9702 B(  2-C ,  3-C ) :   1.2892 B(  2-C ,  6-C ) :   1.0333
B(  3-C ,  4-C ) :   1.5189 B(  3-C ,  5-H ) :   0.9857 B(  4-C , 20-C ) :   1.0964
B(  6-C ,  7-H ) :   0.9388 B(  6-C ,  8-H ) :   0.9324 B(  6-C ,  9-C ) :   1.0712
B(  9-C , 10-H ) :   0.9618 B(  9-C , 11-H ) :   0.9624 B(  9-C , 12-C ) :   1.0459
B( 12-C , 13-H ) :   0.9717 B( 12-C , 14-H ) :   0.9720 B( 12-C , 15-H ) :   0.9768
B( 16-S , 17-C ) :   1.1509 B( 16-S , 20-C ) :   1.1286 B( 17-C , 18-C ) :   1.6145
B( 17-C , 33-H ) :   0.9590 B( 18-C , 19-C ) :   1.2667 B( 18-C , 21-H ) :   0.9910
B( 19-C , 20-C ) :   1.5539 B( 19-C , 22-C ) :   1.0342 B( 22-C , 23-H ) :   0.9355
B( 22-C , 24-H ) :   0.9353 B( 22-C , 25-C ) :   1.0631 B( 25-C , 26-H ) :   0.9526
B( 25-C , 27-H ) :   0.9447 B( 25-C , 28-C ) :   1.0972 B( 28-C , 29-H ) :   0.9682
B( 28-C , 30-H ) :   0.9680 B( 28-C , 31-H ) :   0.9672

Dispersion correction           -0.015877294
FINAL SINGLE POINT ENERGY     -1339.853112186446

DIPOLE MOMENT
-------------
                                X             Y             Z
Electronic contribution:     -0.18972      18.78765      22.68844
Nuclear contribution   :      0.22717     -19.43551     -22.93224
                        -----------------------------------------
Total Dipole Moment    :      0.03745      -0.64786      -0.24380
                        -----------------------------------------
Magnitude (a.u.)       :      0.69323
Magnitude (Debye)      :      1.76204

Rotational constants in cm-1:     0.020791     0.009756     0.007201
Rotational constants in MHz :   623.312016   292.484275   215.882211

                             ****ORCA TERMINATED NORMALLY****
TOTAL RUN TIME: 0 days 0 hours 0 minutes 23 seconds 106 msec
