                         Program Version 4.2.1 -  RELEASE  -
|  1> ! wB97X-D3 SP def2-SVP
|  2> %pal
|  3> nprocs 24
|  4> end
|  5>
|  6> * xyz 0 1
|  7> S 	 -122.13 	 67.8651 	 -39.27
|  8> C 	 -121.388 	 68.2336 	 -37.748
|  9> C 	 -122.246 	 67.9484 	 -36.7057
| 10> C 	 -123.373 	 67.1705 	 -37.0403
| 11> C 	 -123.546 	 67.0667 	 -38.4353
| 12> H 	 -124.064 	 66.8433 	 -36.3265
| 13> C 	 -122.018 	 68.5066 	 -35.3441
| 14> H 	 -122.978 	 68.9945 	 -35.059
| 15> H 	 -121.313 	 69.3404 	 -35.381
| 16> C 	 -121.728 	 67.3314 	 -34.2558
| 17> H 	 -121.374 	 67.8271 	 -33.3385
| 18> H 	 -122.604 	 66.7831 	 -33.9031
| 19> C 	 -120.481 	 66.4584 	 -34.671
| 20> H 	 -120.637 	 66.0405 	 -35.6557
| 21> H 	 -119.634 	 67.1113 	 -34.752
| 22> H 	 -120.386 	 65.7494 	 -33.8784
| 23> S 	 -125.401 	 67.1883 	 -40.5526
| 24> C 	 -126.448 	 65.759 	 -40.7961
| 25> C 	 -126.213 	 64.8155 	 -39.8868
| 26> C 	 -125.191 	 65.1477 	 -38.973
| 27> C 	 -124.555 	 66.3731 	 -39.2073
| 28> H 	 -126.793 	 63.9652 	 -39.8262
| 29> C 	 -124.702 	 64.1521 	 -37.9656
| 30> H 	 -125.323 	 63.2601 	 -38.0112
| 31> H 	 -125.106 	 64.7034 	 -37.1233
| 32> C 	 -123.185 	 63.7564 	 -37.9658
| 33> H 	 -122.585 	 64.6174 	 -38.0186
| 34> H 	 -123.12 	 63.1206 	 -38.8683
| 35> C 	 -122.967 	 63.0126 	 -36.6611
| 36> H 	 -121.924 	 62.8136 	 -36.4473
| 37> H 	 -123.434 	 62.0698 	 -36.7479
| 38> H 	 -123.43 	 63.5152 	 -35.7305
| 39> H 	 -120.594 	 68.9637 	 -37.5564
| 40> H 	 -127.098 	 65.6876 	 -41.7247
| 41> *
| 42>
| 43>                          ****END OF INPUT****

CARTESIAN COORDINATES (ANGSTROEM)
---------------------------------
  S    -122.130000   67.865100  -39.270000
  C    -121.388000   68.233600  -37.748000
  C    -122.246000   67.948400  -36.705700
  C    -123.373000   67.170500  -37.040300
  C    -123.546000   67.066700  -38.435300
  H    -124.064000   66.843300  -36.326500
  C    -122.018000   68.506600  -35.344100
  H    -122.978000   68.994500  -35.059000
  H    -121.313000   69.340400  -35.381000
  C    -121.728000   67.331400  -34.255800
  H    -121.374000   67.827100  -33.338500
  H    -122.604000   66.783100  -33.903100
  C    -120.481000   66.458400  -34.671000
  H    -120.637000   66.040500  -35.655700
  H    -119.634000   67.111300  -34.752000
  H    -120.386000   65.749400  -33.878400
  S    -125.401000   67.188300  -40.552600
  C    -126.448000   65.759000  -40.796100
  C    -126.213000   64.815500  -39.886800
  C    -125.191000   65.147700  -38.973000
  C    -124.555000   66.373100  -39.207300
  H    -126.793000   63.965200  -39.826200
  C    -124.702000   64.152100  -37.965600
  H    -125.323000   63.260100  -38.011200
  H    -125.106000   64.703400  -37.123300
  C    -123.185000   63.756400  -37.965800
  H    -122.585000   64.617400  -38.018600
  H    -123.120000   63.120600  -38.868300
  C    -122.967000   63.012600  -36.661100
  H    -121.924000   62.813600  -36.447300
  H    -123.434000   62.069800  -36.747900
  H    -123.430000   63.515200  -35.730500
  H    -120.594000   68.963700  -37.556400
  H    -127.098000   65.687600  -41.724700

 Total Charge           Charge          ....    0
 Multiplicity           Mult            ....    1
 Number of Electrons    NEL             ....  134
 Basis Dimension        Dim             ....  322

ORBITAL ENERGIES
----------------

  NO   OCC          E(Eh)            E(eV)
   0   2.0000     -88.966468     -2420.9007
   1   2.0000     -88.961543     -2420.7667
   2   2.0000     -10.340796      -281.3874
   3   2.0000     -10.326277      -280.9923
   4   2.0000     -10.322291      -280.8838
   5   2.0000     -10.310414      -280.5606
   6   2.0000     -10.300629      -280.2944
   7   2.0000     -10.298580      -280.2386
   8   2.0000     -10.296176      -280.1732
   9   2.0000     -10.296030      -280.1692
  10   2.0000     -10.295594      -280.1574
  11   2.0000     -10.286457      -279.9087
  12   2.0000     -10.284716      -279.8614
  13   2.0000     -10.284482      -279.8550
  14   2.0000     -10.276288      -279.6320
  15   2.0000     -10.273565      -279.5579
  16   2.0000      -8.080118      -219.8712
  17   2.0000      -8.075499      -219.7455
  18   2.0000      -6.038729      -164.3222
  19   2.0000      -6.034779      -164.2147
  20   2.0000      -6.034134      -164.1971
  21   2.0000      -6.030818      -164.1069
  22   2.0000      -6.030152      -164.0888
  23   2.0000      -6.026130      -163.9793
  24   2.0000      -1.001919       -27.2636
  25   2.0000      -0.982898       -26.7460
  26   2.0000      -0.908547       -24.7228
  27   2.0000      -0.902172       -24.5494
  28   2.0000      -0.869846       -23.6697
  29   2.0000      -0.851596       -23.1731
  30   2.0000      -0.845205       -22.9992
  31   2.0000      -0.819339       -22.2953
  32   2.0000      -0.778141       -21.1743
  33   2.0000      -0.762898       -20.7595
  34   2.0000      -0.716444       -19.4954
  35   2.0000      -0.700640       -19.0654
  36   2.0000      -0.691780       -18.8243
  37   2.0000      -0.664191       -18.0735
  38   2.0000      -0.636832       -17.3291
  39   2.0000      -0.623649       -16.9704
  40   2.0000      -0.592482       -16.1223
  41   2.0000      -0.572156       -15.5691
  42   2.0000      -0.563536       -15.3346
  43   2.0000      -0.548780       -14.9331
  44   2.0000      -0.538445       -14.6518
  45   2.0000      -0.521442       -14.1892
  46   2.0000      -0.515973       -14.0403
  47   2.0000      -0.511732       -13.9249
  48   2.0000      -0.503980       -13.7140
  49   2.0000      -0.500948       -13.6315
  50   2.0000      -0.487399       -13.2628
  51   2.0000      -0.482963       -13.1421
  52   2.0000      -0.473213       -12.8768
  53   2.0000      -0.462865       -12.5952
  54   2.0000      -0.459431       -12.5018
  55   2.0000      -0.447688       -12.1822
  56   2.0000      -0.445160       -12.1134
  57   2.0000      -0.432475       -11.7682
  58   2.0000      -0.430316       -11.7095
  59   2.0000      -0.426072       -11.5940
  60   2.0000      -0.419006       -11.4017
  61   2.0000      -0.412051       -11.2125
  62   2.0000      -0.409556       -11.1446
  63   2.0000      -0.351699        -9.5702
  64   2.0000      -0.331884        -9.0310
  65   2.0000      -0.324880        -8.8404
  66   2.0000      -0.285913        -7.7801
  67   0.0000       0.018993         0.5168
  68   0.0000       0.070192         1.9100
  69   0.0000       0.108467         2.9515
  70   0.0000       0.117325         3.1926
  71   0.0000       0.123723         3.3667

MULLIKEN ATOMIC CHARGES
-----------------------
   0 S :    0.100789
   1 C :   -0.101913
   2 C :   -0.126642
   3 C :    0.055828
   4 C :   -0.160415
   5 H :   -0.006320
   6 C :    0.045378
   7 H :    0.040367
   8 H :    0.021838
   9 C :   -0.115293
  10 H :    0.028044
  11 H :    0.039364
  12 C :   -0.026351
  13 H :    0.046735
  14 H :    0.024691
  15 H :    0.035591
  16 S :    0.081253
  17 C :   -0.106837
  18 C :    0.015041
  19 C :   -0.048078
  20 C :   -0.135565
  21 H :   -0.011758
  22 C :    0.019705
  23 H :    0.005929
  24 H :    0.025841
  25 C :   -0.012439
  26 H :    0.043715
  27 H :    0.044718
  28 C :   -0.043681
  29 H :    0.032107
  30 H :    0.014992
  31 H :    0.036813
  32 H :    0.052836
  33 H :    0.083714
Sum of atomic charges:   -0.0000000

LOEWDIN ATOMIC CHARGES
----------------------
   0 S :    0.384518
   1 C :   -0.216082
   2 C :   -0.068284
   3 C :   -0.050569
   4 C :   -0.160493
   5 H :    0.023652
   6 C :   -0.033179
   7 H :    0.037252
   8 H :    0.028256
   9 C :   -0.041080
  10 H :    0.024332
  11 H :    0.021834
  12 C :   -0.056334
  13 H :    0.023215
  14 H :    0.022813
  15 H :    0.023720
  16 S :    0.366580
  17 C :   -0.165997
  18 C :   -0.071558
  19 C :   -0.048537
  20 C :   -0.203440
  21 H :    0.022956
  22 C :   -0.037152
  23 H :    0.025313
  24 H :    0.032214
  25 C :   -0.023733
  26 H :    0.018582
  27 H :    0.034605
  28 C :   -0.065116
  29 H :    0.022562
  30 H :    0.018204
  31 H :    0.033979
  32 H :    0.032483
  33 H :    0.044482

  Mayer bond orders larger than 0.100000
B(  0-S ,  1-C ) :   1.1326 B(  0-S ,  4-C ) :   1.1397 B(  1-C ,  2-C ) :   1.6075
B(  1-C ,  4-C ) :   0.1044 B(  1-C , 32-H ) :   0.9556 B(  2-C ,  3-C ) :   1.2479
B(  2-C ,  6-C ) :   1.0343 B(  3-C ,  4-C ) :   1.5445 B(  3-C ,  5-H ) :   1.0035
B(  4-C , 20-C ) :   1.0690 B(  6-C ,  7-H ) :   0.9426 B(  6-C ,  8-H ) :   0.9481
B(  6-C ,  9-C ) :   1.0448 B(  9-C , 10-H ) :   0.9608 B(  9-C , 11-H ) :   0.9634
B(  9-C , 12-C ) :   1.0594 B( 12-C , 13-H ) :   0.9747 B( 12-C , 14-H ) :   0.9772
B( 12-C , 15-H ) :   0.9761 B( 16-S , 17-C ) :   1.1448 B( 16-S , 20-C ) :   1.1148
B( 17-C , 18-C ) :   1.6092 B( 17-C , 33-H ) :   0.9551 B( 18-C , 19-C ) :   1.2495
B( 18-C , 21-H ) :   1.0045 B( 19-C , 20-C ) :   1.5792 B( 19-C , 22-C ) :   1.0160
B( 22-C , 23-H ) :   0.9397 B( 22-C , 24-H ) :   0.9246 B( 22-C , 25-C ) :   1.0455
B( 25-C , 26-H ) :   0.9576 B( 25-C , 27-H ) :   0.9541 B( 25-C , 28-C ) :   1.0791
B( 28-C , 29-H ) :   0.9728 B( 28-C , 30-H ) :   0.9720 B( 28-C , 31-H ) :   0.9759

Dispersion correction           -0.015838569
FINAL SINGLE POINT ENERGY     -1339.858264301234

DIPOLE MOMENT
-------------
                                X             Y             Z
Electronic contribution:     -9.77822      13.45768     -24.92784
Nuclear contribution   :      9.61457     -13.80473      25.55369
                        -----------------------------------------
Total Dipole Moment    :     -0.16365      -0.34705       0.62585
                        -----------------------------------------
Magnitude (a.u.)       :      0.73411
Magnitude (Debye)      :      1.86596

Rotational constants in cm-1:     0.020279     0.009655     0.007418
Rotational constants in MHz :   607.938169   289.435669   222.382666

                             ****ORCA TERMINATED NORMALLY****
TOTAL RUN TIME: 0 days 0 hours 0 minutes 23 seconds 165 msec
