                         Program Version 4.2.1 -  RELEASE  -
|  1> ! wB97X-D3 SP def2-SVP
|  2> %pal
|  3> nprocs 24
|  4> end
|  5>
|  6> * xyz 0 1
|  7> S 	 -40.1636 	 7.5262 	 1.29938
|  8> C 	 -39.6274 	 6.80328 	 -0.23259
|  9> C 	 -39.5201 	 5.42685 	 -0.15648
| 10> C 	 -39.9317 	 4.9318 	 1.15702
| 11> C 	 -40.2188 	 5.97067 	 2.02372
| 12> H 	 -40.0695 	 3.89685 	 1.41573
| 13> C 	 -39.2663 	 4.55081 	 -1.31504
| 14> H 	 -38.22 	 4.82821 	 -1.53324
| 15> H 	 -39.9945 	 4.84126 	 -2.04433
| 16> C 	 -39.5663 	 3.07339 	 -1.19048
| 17> H 	 -39.1206 	 2.76087 	 -0.245458
| 18> H 	 -40.6386 	 2.93276 	 -1.11089
| 19> C 	 -39.0412 	 2.27205 	 -2.32154
| 20> H 	 -37.9235 	 2.38265 	 -2.46971
| 21> H 	 -39.0865 	 1.25513 	 -2.00809
| 22> H 	 -39.5701 	 2.341 	 -3.23023
| 23> S 	 -38.8515 	 6.44107 	 4.33813
| 24> C 	 -39.2841 	 5.46307 	 5.64223
| 25> C 	 -40.5594 	 4.96387 	 5.57806
| 26> C 	 -41.1512 	 5.19972 	 4.29302
| 27> C 	 -40.2649 	 5.85793 	 3.43437
| 28> H 	 -40.9868 	 4.37872 	 6.35615
| 29> C 	 -42.4736 	 4.47091 	 3.91827
| 30> H 	 -42.7357 	 4.68801 	 2.85149
| 31> H 	 -43.3082 	 4.97072 	 4.48765
| 32> C 	 -42.6758 	 2.96697 	 4.19916
| 33> H 	 -43.7189 	 2.78964 	 4.05766
| 34> H 	 -42.6123 	 2.76931 	 5.22995
| 35> C 	 -41.6718 	 2.00113 	 3.56761
| 36> H 	 -41.3816 	 2.25961 	 2.5283
| 37> H 	 -41.9648 	 1.04063 	 3.57476
| 38> H 	 -40.7624 	 1.9964 	 4.1182
| 39> H 	 -39.5554 	 7.26048 	 -1.15302
| 40> H 	 -38.5797 	 5.21484 	 6.45703
| 41> *
| 42>
| 43>                          ****END OF INPUT****

CARTESIAN COORDINATES (ANGSTROEM)
---------------------------------
  S    -40.163600    7.526200    1.299380
  C    -39.627400    6.803280   -0.232590
  C    -39.520100    5.426850   -0.156480
  C    -39.931700    4.931800    1.157020
  C    -40.218800    5.970670    2.023720
  H    -40.069500    3.896850    1.415730
  C    -39.266300    4.550810   -1.315040
  H    -38.220000    4.828210   -1.533240
  H    -39.994500    4.841260   -2.044330
  C    -39.566300    3.073390   -1.190480
  H    -39.120600    2.760870   -0.245458
  H    -40.638600    2.932760   -1.110890
  C    -39.041200    2.272050   -2.321540
  H    -37.923500    2.382650   -2.469710
  H    -39.086500    1.255130   -2.008090
  H    -39.570100    2.341000   -3.230230
  S    -38.851500    6.441070    4.338130
  C    -39.284100    5.463070    5.642230
  C    -40.559400    4.963870    5.578060
  C    -41.151200    5.199720    4.293020
  C    -40.264900    5.857930    3.434370
  H    -40.986800    4.378720    6.356150
  C    -42.473600    4.470910    3.918270
  H    -42.735700    4.688010    2.851490
  H    -43.308200    4.970720    4.487650
  C    -42.675800    2.966970    4.199160
  H    -43.718900    2.789640    4.057660
  H    -42.612300    2.769310    5.229950
  C    -41.671800    2.001130    3.567610
  H    -41.381600    2.259610    2.528300
  H    -41.964800    1.040630    3.574760
  H    -40.762400    1.996400    4.118200
  H    -39.555400    7.260480   -1.153020
  H    -38.579700    5.214840    6.457030

 Total Charge           Charge          ....    0
 Multiplicity           Mult            ....    1
 Number of Electrons    NEL             ....  134
 Basis Dimension        Dim             ....  322

ORBITAL ENERGIES
----------------

  NO   OCC          E(Eh)            E(eV)
   0   2.0000     -88.964551     -2420.8485
   1   2.0000     -88.960938     -2420.7502
   2   2.0000     -10.320282      -280.8291
   3   2.0000     -10.319946      -280.8200
   4   2.0000     -10.311717      -280.5961
   5   2.0000     -10.305119      -280.4165
   6   2.0000     -10.303401      -280.3698
   7   2.0000     -10.299289      -280.2579
   8   2.0000     -10.297183      -280.2006
   9   2.0000     -10.291374      -280.0425
  10   2.0000     -10.287330      -279.9325
  11   2.0000     -10.284212      -279.8476
  12   2.0000     -10.283862      -279.8381
  13   2.0000     -10.282931      -279.8128
  14   2.0000     -10.274874      -279.5935
  15   2.0000     -10.268281      -279.4141
  16   2.0000      -8.079368      -219.8508
  17   2.0000      -8.077003      -219.7864
  18   2.0000      -6.037880      -164.2991
  19   2.0000      -6.035366      -164.2307
  20   2.0000      -6.033918      -164.1913
  21   2.0000      -6.031464      -164.1245
  22   2.0000      -6.030077      -164.0867
  23   2.0000      -6.027670      -164.0212
  24   2.0000      -1.008032       -27.4300
  25   2.0000      -0.982539       -26.7362
  26   2.0000      -0.924499       -25.1569
  27   2.0000      -0.905803       -24.6482
  28   2.0000      -0.875168       -23.8145
  29   2.0000      -0.851886       -23.1810
  30   2.0000      -0.846606       -23.0373
  31   2.0000      -0.812593       -22.1118
  32   2.0000      -0.789714       -21.4892
  33   2.0000      -0.776383       -21.1265
  34   2.0000      -0.718307       -19.5461
  35   2.0000      -0.701518       -19.0893
  36   2.0000      -0.688799       -18.7432
  37   2.0000      -0.654276       -17.8038
  38   2.0000      -0.636822       -17.3288
  39   2.0000      -0.618651       -16.8344
  40   2.0000      -0.596935       -16.2434
  41   2.0000      -0.586249       -15.9526
  42   2.0000      -0.564665       -15.3653
  43   2.0000      -0.552353       -15.0303
  44   2.0000      -0.539826       -14.6894
  45   2.0000      -0.524233       -14.2651
  46   2.0000      -0.521719       -14.1967
  47   2.0000      -0.513413       -13.9707
  48   2.0000      -0.507832       -13.8188
  49   2.0000      -0.500327       -13.6146
  50   2.0000      -0.495694       -13.4885
  51   2.0000      -0.478841       -13.0299
  52   2.0000      -0.475498       -12.9390
  53   2.0000      -0.459810       -12.5121
  54   2.0000      -0.456363       -12.4183
  55   2.0000      -0.452594       -12.3157
  56   2.0000      -0.450216       -12.2510
  57   2.0000      -0.442769       -12.0484
  58   2.0000      -0.433648       -11.8002
  59   2.0000      -0.423798       -11.5321
  60   2.0000      -0.421064       -11.4577
  61   2.0000      -0.412638       -11.2285
  62   2.0000      -0.408678       -11.1207
  63   2.0000      -0.337068        -9.1721
  64   2.0000      -0.327938        -8.9237
  65   2.0000      -0.324028        -8.8173
  66   2.0000      -0.288743        -7.8571
  67   0.0000       0.041362         1.1255
  68   0.0000       0.053869         1.4659
  69   0.0000       0.115048         3.1306
  70   0.0000       0.125875         3.4252
  71   0.0000       0.134346         3.6557

MULLIKEN ATOMIC CHARGES
-----------------------
   0 S :    0.113635
   1 C :   -0.091683
   2 C :   -0.109982
   3 C :    0.044388
   4 C :   -0.160496
   5 H :   -0.004873
   6 C :    0.062230
   7 H :    0.048529
   8 H :    0.030063
   9 C :   -0.099421
  10 H :    0.029190
  11 H :    0.029497
  12 C :   -0.005507
  13 H :    0.031977
  14 H :    0.017773
  15 H :    0.030274
  16 S :    0.126884
  17 C :   -0.107433
  18 C :   -0.026768
  19 C :    0.000651
  20 C :   -0.175476
  21 H :    0.007227
  22 C :    0.014619
  23 H :    0.035348
  24 H :    0.037585
  25 C :   -0.034456
  26 H :    0.017770
  27 H :    0.003787
  28 C :    0.007153
  29 H :    0.025706
  30 H :    0.004351
  31 H :    0.022768
  32 H :    0.007909
  33 H :    0.066779
Sum of atomic charges:    0.0000000

LOEWDIN ATOMIC CHARGES
----------------------
   0 S :    0.410540
   1 C :   -0.189157
   2 C :   -0.053887
   3 C :   -0.059552
   4 C :   -0.207422
   5 H :    0.025192
   6 C :   -0.041451
   7 H :    0.042336
   8 H :    0.035262
   9 C :   -0.042325
  10 H :    0.021330
  11 H :    0.027212
  12 C :   -0.060532
  13 H :    0.034074
  14 H :    0.026415
  15 H :    0.020126
  16 S :    0.418277
  17 C :   -0.200780
  18 C :   -0.074663
  19 C :   -0.051804
  20 C :   -0.199044
  21 H :    0.025698
  22 C :   -0.035614
  23 H :    0.032357
  24 H :    0.040556
  25 C :   -0.038637
  26 H :    0.024963
  27 H :    0.016992
  28 C :   -0.054674
  29 H :    0.025168
  30 H :    0.011766
  31 H :    0.026768
  32 H :    0.010295
  33 H :    0.034212

  Mayer bond orders larger than 0.100000
B(  0-S ,  1-C ) :   1.1140 B(  0-S ,  4-C ) :   1.1621 B(  1-C ,  2-C ) :   1.6390
B(  1-C , 32-H ) :   0.9797 B(  2-C ,  3-C ) :   1.2348 B(  2-C ,  6-C ) :   0.9993
B(  3-C ,  4-C ) :   1.5648 B(  3-C ,  5-H ) :   0.9894 B(  4-C , 20-C ) :   1.0319
B(  6-C ,  7-H ) :   0.9321 B(  6-C ,  8-H ) :   0.9387 B(  6-C ,  9-C ) :   1.0998
B(  9-C , 10-H ) :   0.9446 B(  9-C , 11-H ) :   0.9464 B(  9-C , 12-C ) :   1.1027
B( 12-C , 13-H ) :   0.9702 B( 12-C , 14-H ) :   0.9660 B( 12-C , 15-H ) :   0.9723
B( 16-S , 17-C ) :   1.1737 B( 16-S , 20-C ) :   1.1253 B( 17-C , 18-C ) :   1.6109
B( 17-C , 33-H ) :   0.9621 B( 18-C , 19-C ) :   1.2158 B( 18-C , 21-H ) :   0.9993
B( 19-C , 20-C ) :   1.6055 B( 19-C , 22-C ) :   1.0418 B( 22-C , 23-H ) :   0.9418
B( 22-C , 24-H ) :   0.9308 B( 22-C , 25-C ) :   1.0849 B( 25-C , 26-H ) :   0.9511
B( 25-C , 27-H ) :   0.9460 B( 25-C , 28-C ) :   1.0676 B( 28-C , 29-H ) :   0.9755
B( 28-C , 30-H ) :   0.9670 B( 28-C , 31-H ) :   0.9705

Dispersion correction           -0.014724556
FINAL SINGLE POINT ENERGY     -1339.849565479216

DIPOLE MOMENT
-------------
                                X             Y             Z
Electronic contribution:      6.61758      26.76516      11.49052
Nuclear contribution   :     -6.81444     -27.62483     -11.64621
                        -----------------------------------------
Total Dipole Moment    :     -0.19686      -0.85967      -0.15569
                        -----------------------------------------
Magnitude (a.u.)       :      0.89555
Magnitude (Debye)      :      2.27632

Rotational constants in cm-1:     0.017139     0.009459     0.007165
Rotational constants in MHz :   513.817401   283.580226   214.794219

                             ****ORCA TERMINATED NORMALLY****
TOTAL RUN TIME: 0 days 0 hours 0 minutes 23 seconds 535 msec
