                         Program Version 4.2.1 -  RELEASE  -
|  1> ! wB97X-D3 SP def2-SVP
|  2> %pal
|  3> nprocs 24
|  4> end
|  5>
|  6> * xyz 0 1
|  7> S 	 -68.3136 	 -56.4055 	 -82.2114
|  8> C 	 -68.0965 	 -58.027 	 -82.7534
|  9> C 	 -67.3275 	 -58.7706 	 -81.8139
| 10> C 	 -66.9638 	 -57.9032 	 -80.6846
| 11> C 	 -67.6168 	 -56.6615 	 -80.633
| 12> H 	 -66.1807 	 -58.1919 	 -79.9501
| 13> C 	 -66.6676 	 -60.0975 	 -82.0446
| 14> H 	 -67.3373 	 -60.7835 	 -82.5014
| 15> H 	 -66.647 	 -60.5301 	 -80.9959
| 16> C 	 -65.2291 	 -60.1266 	 -82.7908
| 17> H 	 -64.9351 	 -61.1407 	 -82.9833
| 18> H 	 -65.3222 	 -59.7211 	 -83.8191
| 19> C 	 -64.2391 	 -59.2763 	 -82.0046
| 20> H 	 -64.3811 	 -58.2053 	 -81.9921
| 21> H 	 -64.2924 	 -59.67 	 -80.9856
| 22> H 	 -63.2219 	 -59.4737 	 -82.2901
| 23> S 	 -66.4465 	 -54.101 	 -80.3498
| 24> C 	 -66.11 	 -53.4692 	 -78.7448
| 25> C 	 -66.569 	 -54.3956 	 -77.8222
| 26> C 	 -67.1168 	 -55.5997 	 -78.3123
| 27> C 	 -67.2302 	 -55.6239 	 -79.709
| 28> H 	 -66.6523 	 -54.0699 	 -76.8118
| 29> C 	 -67.5307 	 -56.743 	 -77.3812
| 30> H 	 -68.1059 	 -57.3752 	 -77.9917
| 31> H 	 -68.2922 	 -56.3454 	 -76.7021
| 32> C 	 -66.5405 	 -57.6373 	 -76.5742
| 33> H 	 -65.8547 	 -58.0778 	 -77.2747
| 34> H 	 -66.9901 	 -58.447 	 -76.0336
| 35> C 	 -65.8331 	 -56.8304 	 -75.4963
| 36> H 	 -66.5302 	 -56.3985 	 -74.7644
| 37> H 	 -65.2115 	 -55.9765 	 -75.7275
| 38> H 	 -65.1293 	 -57.4665 	 -74.8939
| 39> H 	 -68.3959 	 -58.3717 	 -83.7448
| 40> H 	 -65.8374 	 -52.4164 	 -78.4566
| 41> *
| 42>
| 43>                          ****END OF INPUT****

CARTESIAN COORDINATES (ANGSTROEM)
---------------------------------
  S    -68.313600  -56.405500  -82.211400
  C    -68.096500  -58.027000  -82.753400
  C    -67.327500  -58.770600  -81.813900
  C    -66.963800  -57.903200  -80.684600
  C    -67.616800  -56.661500  -80.633000
  H    -66.180700  -58.191900  -79.950100
  C    -66.667600  -60.097500  -82.044600
  H    -67.337300  -60.783500  -82.501400
  H    -66.647000  -60.530100  -80.995900
  C    -65.229100  -60.126600  -82.790800
  H    -64.935100  -61.140700  -82.983300
  H    -65.322200  -59.721100  -83.819100
  C    -64.239100  -59.276300  -82.004600
  H    -64.381100  -58.205300  -81.992100
  H    -64.292400  -59.670000  -80.985600
  H    -63.221900  -59.473700  -82.290100
  S    -66.446500  -54.101000  -80.349800
  C    -66.110000  -53.469200  -78.744800
  C    -66.569000  -54.395600  -77.822200
  C    -67.116800  -55.599700  -78.312300
  C    -67.230200  -55.623900  -79.709000
  H    -66.652300  -54.069900  -76.811800
  C    -67.530700  -56.743000  -77.381200
  H    -68.105900  -57.375200  -77.991700
  H    -68.292200  -56.345400  -76.702100
  C    -66.540500  -57.637300  -76.574200
  H    -65.854700  -58.077800  -77.274700
  H    -66.990100  -58.447000  -76.033600
  C    -65.833100  -56.830400  -75.496300
  H    -66.530200  -56.398500  -74.764400
  H    -65.211500  -55.976500  -75.727500
  H    -65.129300  -57.466500  -74.893900
  H    -68.395900  -58.371700  -83.744800
  H    -65.837400  -52.416400  -78.456600

 Total Charge           Charge          ....    0
 Multiplicity           Mult            ....    1
 Number of Electrons    NEL             ....  134
 Basis Dimension        Dim             ....  322

ORBITAL ENERGIES
----------------

  NO   OCC          E(Eh)            E(eV)
   0   2.0000     -88.970521     -2421.0110
   1   2.0000     -88.963383     -2420.8167
   2   2.0000     -10.335453      -281.2420
   3   2.0000     -10.331806      -281.1427
   4   2.0000     -10.324448      -280.9425
   5   2.0000     -10.321970      -280.8751
   6   2.0000     -10.310324      -280.5582
   7   2.0000     -10.306181      -280.4454
   8   2.0000     -10.305503      -280.4270
   9   2.0000     -10.298904      -280.2474
  10   2.0000     -10.296848      -280.1915
  11   2.0000     -10.289408      -279.9890
  12   2.0000     -10.288463      -279.9633
  13   2.0000     -10.287409      -279.9346
  14   2.0000     -10.276865      -279.6477
  15   2.0000     -10.275130      -279.6005
  16   2.0000      -8.085437      -220.0159
  17   2.0000      -8.076790      -219.7806
  18   2.0000      -6.044005      -164.4657
  19   2.0000      -6.039813      -164.3517
  20   2.0000      -6.036215      -164.2538
  21   2.0000      -6.035519      -164.2348
  22   2.0000      -6.031409      -164.1230
  23   2.0000      -6.027440      -164.0150
  24   2.0000      -1.003503       -27.3067
  25   2.0000      -0.979071       -26.6419
  26   2.0000      -0.906473       -24.6664
  27   2.0000      -0.904505       -24.6128
  28   2.0000      -0.871451       -23.7134
  29   2.0000      -0.849480       -23.1155
  30   2.0000      -0.843189       -22.9443
  31   2.0000      -0.810992       -22.0682
  32   2.0000      -0.782781       -21.3005
  33   2.0000      -0.771562       -20.9953
  34   2.0000      -0.710267       -19.3274
  35   2.0000      -0.709747       -19.3132
  36   2.0000      -0.696169       -18.9437
  37   2.0000      -0.657148       -17.8819
  38   2.0000      -0.639654       -17.4059
  39   2.0000      -0.613952       -16.7065
  40   2.0000      -0.586957       -15.9719
  41   2.0000      -0.567151       -15.4330
  42   2.0000      -0.556516       -15.1436
  43   2.0000      -0.547275       -14.8921
  44   2.0000      -0.544623       -14.8199
  45   2.0000      -0.541234       -14.7277
  46   2.0000      -0.513009       -13.9597
  47   2.0000      -0.511803       -13.9269
  48   2.0000      -0.504793       -13.7361
  49   2.0000      -0.497325       -13.5329
  50   2.0000      -0.488990       -13.3061
  51   2.0000      -0.484796       -13.1920
  52   2.0000      -0.471568       -12.8320
  53   2.0000      -0.460302       -12.5255
  54   2.0000      -0.454356       -12.3637
  55   2.0000      -0.444813       -12.1040
  56   2.0000      -0.439156       -11.9500
  57   2.0000      -0.436374       -11.8743
  58   2.0000      -0.430937       -11.7264
  59   2.0000      -0.428443       -11.6585
  60   2.0000      -0.418894       -11.3987
  61   2.0000      -0.417024       -11.3478
  62   2.0000      -0.411180       -11.1888
  63   2.0000      -0.348770        -9.4905
  64   2.0000      -0.328427        -8.9370
  65   2.0000      -0.324077        -8.8186
  66   2.0000      -0.292327        -7.9546
  67   0.0000       0.019231         0.5233
  68   0.0000       0.063640         1.7317
  69   0.0000       0.108640         2.9562
  70   0.0000       0.116098         3.1592
  71   0.0000       0.122895         3.3441

MULLIKEN ATOMIC CHARGES
-----------------------
   0 S :    0.114655
   1 C :   -0.111931
   2 C :   -0.097473
   3 C :   -0.015542
   4 C :   -0.141951
   5 H :    0.039905
   6 C :    0.023840
   7 H :    0.016000
   8 H :    0.034531
   9 C :   -0.037315
  10 H :    0.029679
  11 H :    0.029844
  12 C :   -0.050398
  13 H :    0.060390
  14 H :    0.019067
  15 H :    0.025441
  16 S :    0.081543
  17 C :   -0.110914
  18 C :   -0.028677
  19 C :   -0.043802
  20 C :   -0.135133
  21 H :    0.011836
  22 C :    0.063146
  23 H :    0.003135
  24 H :    0.025063
  25 C :    0.009551
  26 H :    0.021683
  27 H :    0.030409
  28 C :   -0.093068
  29 H :    0.021449
  30 H :    0.032918
  31 H :    0.028615
  32 H :    0.061652
  33 H :    0.081853
Sum of atomic charges:   -0.0000000

LOEWDIN ATOMIC CHARGES
----------------------
   0 S :    0.431088
   1 C :   -0.197189
   2 C :   -0.071015
   3 C :   -0.049276
   4 C :   -0.219123
   5 H :    0.035184
   6 C :   -0.042078
   7 H :    0.024121
   8 H :    0.037791
   9 C :   -0.029009
  10 H :    0.023098
  11 H :    0.026252
  12 C :   -0.067133
  13 H :    0.030816
  14 H :    0.023777
  15 H :    0.024335
  16 S :    0.366620
  17 C :   -0.195061
  18 C :   -0.074733
  19 C :   -0.056099
  20 C :   -0.169044
  21 H :    0.025865
  22 C :   -0.031743
  23 H :    0.021628
  24 H :    0.033122
  25 C :   -0.027939
  26 H :    0.020862
  27 H :    0.030166
  28 C :   -0.078733
  29 H :    0.023812
  30 H :    0.021364
  31 H :    0.028357
  32 H :    0.033023
  33 H :    0.046892

  Mayer bond orders larger than 0.100000
B(  0-S ,  1-C ) :   1.1767 B(  0-S ,  4-C ) :   1.1477 B(  1-C ,  2-C ) :   1.5438
B(  1-C , 32-H ) :   0.9712 B(  2-C ,  3-C ) :   1.2815 B(  2-C ,  6-C ) :   1.0376
B(  3-C ,  4-C ) :   1.5128 B(  3-C ,  5-H ) :   0.9795 B(  4-C , 20-C ) :   1.0744
B(  6-C ,  7-H ) :   0.9385 B(  6-C ,  8-H ) :   0.9441 B(  6-C ,  9-C ) :   1.0490
B(  9-C , 10-H ) :   0.9581 B(  9-C , 11-H ) :   0.9567 B(  9-C , 12-C ) :   1.0756
B( 12-C , 13-H ) :   0.9726 B( 12-C , 14-H ) :   0.9738 B( 12-C , 15-H ) :   0.9701
B( 16-S , 17-C ) :   1.1440 B( 16-S , 20-C ) :   1.1189 B( 17-C , 18-C ) :   1.6115
B( 17-C , 20-C ) :   0.1041 B( 17-C , 33-H ) :   0.9564 B( 18-C , 19-C ) :   1.2521
B( 18-C , 21-H ) :   0.9852 B( 19-C , 20-C ) :   1.5944 B( 19-C , 22-C ) :   1.0398
B( 22-C , 23-H ) :   0.9240 B( 22-C , 24-H ) :   0.9357 B( 22-C , 25-C ) :   1.0737
B( 25-C , 26-H ) :   0.9525 B( 25-C , 27-H ) :   0.9501 B( 25-C , 28-C ) :   1.0771
B( 28-C , 29-H ) :   0.9742 B( 28-C , 30-H ) :   0.9742 B( 28-C , 31-H ) :   0.9724

Dispersion correction           -0.014946866
FINAL SINGLE POINT ENERGY     -1339.860552307571

DIPOLE MOMENT
-------------
                                X             Y             Z
Electronic contribution:    -11.90586      19.00823     -13.31435
Nuclear contribution   :     12.20207     -19.57846      13.49708
                        -----------------------------------------
Total Dipole Moment    :      0.29621      -0.57023       0.18273
                        -----------------------------------------
Magnitude (a.u.)       :      0.66805
Magnitude (Debye)      :      1.69805

Rotational constants in cm-1:     0.017760     0.009127     0.007310
Rotational constants in MHz :   532.443393   273.633843   219.153935

                             ****ORCA TERMINATED NORMALLY****
TOTAL RUN TIME: 0 days 0 hours 0 minutes 23 seconds 104 msec
