                         Program Version 4.2.1 -  RELEASE  -
|  1> ! wB97X-D3 SP def2-SVP
|  2> %pal
|  3> nprocs 24
|  4> end
|  5>
|  6> * xyz 0 1
|  7> S 	 -50.985 	 16.8157 	 25.3976
|  8> C 	 -51.1799 	 15.0312 	 25.0979
|  9> C 	 -50.8835 	 14.3591 	 26.2463
| 10> C 	 -50.5858 	 15.2532 	 27.3758
| 11> C 	 -50.6534 	 16.6276 	 27.0826
| 12> H 	 -50.2578 	 15.0471 	 28.4143
| 13> C 	 -50.6848 	 12.8534 	 26.3213
| 14> H 	 -50.9306 	 12.5801 	 27.3718
| 15> H 	 -49.6576 	 12.6335 	 26.2234
| 16> C 	 -51.3755 	 11.9794 	 25.3136
| 17> H 	 -52.4534 	 12.3368 	 25.2733
| 18> H 	 -50.9908 	 12.1043 	 24.2938
| 19> C 	 -51.5448 	 10.5065 	 25.7629
| 20> H 	 -50.5493 	 9.9241 	 25.7707
| 21> H 	 -51.9154 	 10.4208 	 26.7834
| 22> H 	 -52.2845 	 9.95138 	 25.1438
| 23> S 	 -49.18 	 18.7141 	 27.7875
| 24> C 	 -49.4575 	 19.6715 	 29.1686
| 25> C 	 -50.5629 	 19.1767 	 29.892
| 26> C 	 -51.2476 	 18.1689 	 29.182
| 27> C 	 -50.5501 	 17.7546 	 28.0387
| 28> H 	 -50.8592 	 19.6546 	 30.816
| 29> C 	 -52.4668 	 17.518 	 29.6716
| 30> H 	 -52.9484 	 17.1251 	 28.7629
| 31> H 	 -53.0474 	 18.336 	 30.1303
| 32> C 	 -52.2089 	 16.394 	 30.7462
| 33> H 	 -51.6702 	 16.921 	 31.4733
| 34> H 	 -51.7191 	 15.6468 	 30.2756
| 35> C 	 -53.5625 	 15.7437 	 31.196
| 36> H 	 -54.2484 	 16.4692 	 31.6609
| 37> H 	 -53.2653 	 14.9618 	 31.8631
| 38> H 	 -54.0802 	 15.4219 	 30.3233
| 39> H 	 -51.1021 	 14.6698 	 24.1208
| 40> H 	 -48.7532 	 20.4036 	 29.5416
| 41> *
| 42>
| 43>                          ****END OF INPUT****

CARTESIAN COORDINATES (ANGSTROEM)
---------------------------------
  S    -50.985000   16.815700   25.397600
  C    -51.179900   15.031200   25.097900
  C    -50.883500   14.359100   26.246300
  C    -50.585800   15.253200   27.375800
  C    -50.653400   16.627600   27.082600
  H    -50.257800   15.047100   28.414300
  C    -50.684800   12.853400   26.321300
  H    -50.930600   12.580100   27.371800
  H    -49.657600   12.633500   26.223400
  C    -51.375500   11.979400   25.313600
  H    -52.453400   12.336800   25.273300
  H    -50.990800   12.104300   24.293800
  C    -51.544800   10.506500   25.762900
  H    -50.549300    9.924100   25.770700
  H    -51.915400   10.420800   26.783400
  H    -52.284500    9.951380   25.143800
  S    -49.180000   18.714100   27.787500
  C    -49.457500   19.671500   29.168600
  C    -50.562900   19.176700   29.892000
  C    -51.247600   18.168900   29.182000
  C    -50.550100   17.754600   28.038700
  H    -50.859200   19.654600   30.816000
  C    -52.466800   17.518000   29.671600
  H    -52.948400   17.125100   28.762900
  H    -53.047400   18.336000   30.130300
  C    -52.208900   16.394000   30.746200
  H    -51.670200   16.921000   31.473300
  H    -51.719100   15.646800   30.275600
  C    -53.562500   15.743700   31.196000
  H    -54.248400   16.469200   31.660900
  H    -53.265300   14.961800   31.863100
  H    -54.080200   15.421900   30.323300
  H    -51.102100   14.669800   24.120800
  H    -48.753200   20.403600   29.541600

 Total Charge           Charge          ....    0
 Multiplicity           Mult            ....    1
 Number of Electrons    NEL             ....  134
 Basis Dimension        Dim             ....  322

ORBITAL ENERGIES
----------------

  NO   OCC          E(Eh)            E(eV)
   0   2.0000     -88.965943     -2420.8864
   1   2.0000     -88.960976     -2420.7512
   2   2.0000     -10.335127      -281.2331
   3   2.0000     -10.322808      -280.8979
   4   2.0000     -10.316171      -280.7173
   5   2.0000     -10.314653      -280.6760
   6   2.0000     -10.310990      -280.5763
   7   2.0000     -10.302882      -280.3557
   8   2.0000     -10.299979      -280.2767
   9   2.0000     -10.294845      -280.1370
  10   2.0000     -10.294840      -280.1368
  11   2.0000     -10.292175      -280.0643
  12   2.0000     -10.291131      -280.0359
  13   2.0000     -10.285523      -279.8833
  14   2.0000     -10.277518      -279.6655
  15   2.0000     -10.275752      -279.6174
  16   2.0000      -8.082454      -219.9348
  17   2.0000      -8.075388      -219.7425
  18   2.0000      -6.040560      -164.3720
  19   2.0000      -6.036460      -164.2604
  20   2.0000      -6.034047      -164.1948
  21   2.0000      -6.033779      -164.1875
  22   2.0000      -6.029849      -164.0805
  23   2.0000      -6.026070      -163.9777
  24   2.0000      -1.012705       -27.5571
  25   2.0000      -0.983351       -26.7583
  26   2.0000      -0.915870       -24.9221
  27   2.0000      -0.912390       -24.8274
  28   2.0000      -0.869359       -23.6565
  29   2.0000      -0.855098       -23.2684
  30   2.0000      -0.839683       -22.8489
  31   2.0000      -0.813632       -22.1401
  32   2.0000      -0.781717       -21.2716
  33   2.0000      -0.771794       -21.0016
  34   2.0000      -0.711460       -19.3598
  35   2.0000      -0.706025       -19.2119
  36   2.0000      -0.690356       -18.7855
  37   2.0000      -0.667837       -18.1728
  38   2.0000      -0.646146       -17.5825
  39   2.0000      -0.607057       -16.5189
  40   2.0000      -0.591240       -16.0885
  41   2.0000      -0.575901       -15.6711
  42   2.0000      -0.570990       -15.5374
  43   2.0000      -0.568907       -15.4808
  44   2.0000      -0.532052       -14.4779
  45   2.0000      -0.524544       -14.2736
  46   2.0000      -0.520966       -14.1762
  47   2.0000      -0.513348       -13.9689
  48   2.0000      -0.508740       -13.8435
  49   2.0000      -0.501077       -13.6350
  50   2.0000      -0.491820       -13.3831
  51   2.0000      -0.477928       -13.0051
  52   2.0000      -0.475871       -12.9491
  53   2.0000      -0.464553       -12.6411
  54   2.0000      -0.459697       -12.5090
  55   2.0000      -0.444248       -12.0886
  56   2.0000      -0.442579       -12.0432
  57   2.0000      -0.438076       -11.9206
  58   2.0000      -0.436494       -11.8776
  59   2.0000      -0.433705       -11.8017
  60   2.0000      -0.418759       -11.3950
  61   2.0000      -0.417622       -11.3641
  62   2.0000      -0.408198       -11.1076
  63   2.0000      -0.339617        -9.2415
  64   2.0000      -0.330719        -8.9993
  65   2.0000      -0.321837        -8.7576
  66   2.0000      -0.304365        -8.2822
  67   0.0000       0.035453         0.9647
  68   0.0000       0.062141         1.6909
  69   0.0000       0.110487         3.0065
  70   0.0000       0.124571         3.3898
  71   0.0000       0.129202         3.5158

MULLIKEN ATOMIC CHARGES
-----------------------
   0 S :    0.087277
   1 C :   -0.108647
   2 C :   -0.081895
   3 C :    0.018506
   4 C :   -0.154001
   5 H :    0.032085
   6 C :    0.086482
   7 H :    0.023569
   8 H :    0.033664
   9 C :   -0.109800
  10 H :    0.037077
  11 H :    0.041339
  12 C :   -0.072970
  13 H :    0.039848
  14 H :    0.031275
  15 H :    0.044542
  16 S :    0.130692
  17 C :   -0.094733
  18 C :   -0.056229
  19 C :   -0.026981
  20 C :   -0.185703
  21 H :    0.020548
  22 C :    0.024301
  23 H :    0.035967
  24 H :    0.024254
  25 C :   -0.008973
  26 H :    0.015564
  27 H :   -0.005072
  28 C :   -0.022424
  29 H :    0.028551
  30 H :    0.039472
  31 H :    0.026278
  32 H :    0.044799
  33 H :    0.061339
Sum of atomic charges:    0.0000000

LOEWDIN ATOMIC CHARGES
----------------------
   0 S :    0.381125
   1 C :   -0.173648
   2 C :   -0.054044
   3 C :   -0.075679
   4 C :   -0.204594
   5 H :    0.034863
   6 C :   -0.034056
   7 H :    0.034620
   8 H :    0.031131
   9 C :   -0.051543
  10 H :    0.032343
  11 H :    0.025414
  12 C :   -0.071189
  13 H :    0.029656
  14 H :    0.024219
  15 H :    0.030867
  16 S :    0.468310
  17 C :   -0.203397
  18 C :   -0.073977
  19 C :   -0.058074
  20 C :   -0.229756
  21 H :    0.030854
  22 C :   -0.034432
  23 H :    0.033614
  24 H :    0.031659
  25 C :   -0.012606
  26 H :    0.016363
  27 H :    0.006324
  28 C :   -0.055834
  29 H :    0.025346
  30 H :    0.024924
  31 H :    0.023442
  32 H :    0.018793
  33 H :    0.028959

  Mayer bond orders larger than 0.100000
B(  0-S ,  1-C ) :   1.1091 B(  0-S ,  4-C ) :   1.1622 B(  1-C ,  2-C ) :   1.6401
B(  1-C , 32-H ) :   0.9742 B(  2-C ,  3-C ) :   1.2078 B(  2-C ,  6-C ) :   1.0166
B(  3-C ,  4-C ) :   1.5937 B(  3-C ,  5-H ) :   0.9843 B(  4-C , 20-C ) :   0.9873
B(  6-C ,  7-H ) :   0.9419 B(  6-C ,  8-H ) :   0.9272 B(  6-C ,  9-C ) :   1.0726
B(  9-C , 10-H ) :   0.9595 B(  9-C , 11-H ) :   0.9471 B(  9-C , 12-C ) :   1.0800
B( 12-C , 13-H ) :   0.9744 B( 12-C , 14-H ) :   0.9743 B( 12-C , 15-H ) :   0.9761
B( 16-S , 17-C ) :   1.2045 B( 16-S , 20-C ) :   1.1935 B( 17-C , 18-C ) :   1.5410
B( 17-C , 20-C ) :   0.1093 B( 17-C , 33-H ) :   0.9697 B( 18-C , 19-C ) :   1.2877
B( 18-C , 21-H ) :   0.9924 B( 19-C , 20-C ) :   1.5366 B( 19-C , 22-C ) :   1.0660
B( 22-C , 23-H ) :   0.9280 B( 22-C , 24-H ) :   0.9291 B( 22-C , 25-C ) :   1.0664
B( 25-C , 26-H ) :   0.9586 B( 25-C , 27-H ) :   0.9512 B( 25-C , 28-C ) :   1.0807
B( 28-C , 29-H ) :   0.9773 B( 28-C , 30-H ) :   0.9762 B( 28-C , 31-H ) :   0.9735

Dispersion correction           -0.013893709
FINAL SINGLE POINT ENERGY     -1339.865206196264

DIPOLE MOMENT
-------------
                                X             Y             Z
Electronic contribution:     12.73321      25.18851     -10.12482
Nuclear contribution   :    -12.69740     -25.67766      10.56918
                        -----------------------------------------
Total Dipole Moment    :      0.03580      -0.48915       0.44435
                        -----------------------------------------
Magnitude (a.u.)       :      0.66182
Magnitude (Debye)      :      1.68220

Rotational constants in cm-1:     0.019249     0.007962     0.006160
Rotational constants in MHz :   577.057390   238.698729   184.662047

                             ****ORCA TERMINATED NORMALLY****
TOTAL RUN TIME: 0 days 0 hours 0 minutes 21 seconds 177 msec
