                         Program Version 4.2.1 -  RELEASE  -
|  1> ! wB97X-D3 SP def2-SVP
|  2> %pal
|  3> nprocs 24
|  4> end
|  5>
|  6> * xyz 0 1
|  7> S 	 -95.7435 	 50.1464 	 -97.4996
|  8> C 	 -94.645 	 50.7316 	 -96.2849
|  9> C 	 -93.7531 	 51.6418 	 -96.8688
| 10> C 	 -94.0291 	 51.922 	 -98.2531
| 11> C 	 -94.9982 	 51.0994 	 -98.7914
| 12> H 	 -93.368 	 52.4697 	 -98.9066
| 13> C 	 -92.5742 	 52.1581 	 -96.1066
| 14> H 	 -91.9574 	 52.7157 	 -96.8519
| 15> H 	 -92.1039 	 51.2613 	 -95.7304
| 16> C 	 -92.9631 	 53.2036 	 -95.033
| 17> H 	 -93.3655 	 54.0499 	 -95.5794
| 18> H 	 -93.7519 	 52.865 	 -94.3855
| 19> C 	 -91.6883 	 53.6511 	 -94.3194
| 20> H 	 -91.3129 	 52.8391 	 -93.683
| 21> H 	 -90.9376 	 54.0952 	 -94.9693
| 22> H 	 -92.0635 	 54.3737 	 -93.6452
| 23> S 	 -94.5209 	 50.6754 	 -101.57
| 24> C 	 -95.8565 	 50.8414 	 -102.6
| 25> C 	 -97.0128 	 51.2921 	 -102.008
| 26> C 	 -96.9171 	 51.3558 	 -100.588
| 27> C 	 -95.5918 	 51.1175 	 -100.158
| 28> H 	 -97.8397 	 51.5651 	 -102.616
| 29> C 	 -98.156 	 51.4669 	 -99.6117
| 30> H 	 -98.2936 	 52.5835 	 -99.5381
| 31> H 	 -97.9275 	 51.0529 	 -98.6989
| 32> C 	 -99.4761 	 50.7892 	 -100.108
| 33> H 	 -99.3174 	 49.7736 	 -100.307
| 34> H 	 -99.989 	 51.2613 	 -100.964
| 35> C 	 -100.582 	 51.1463 	 -99.0559
| 36> H 	 -100.316 	 50.7634 	 -98.0674
| 37> H 	 -101.63 	 50.7315 	 -99.3343
| 38> H 	 -100.76 	 52.2217 	 -99.0482
| 39> H 	 -94.5209 	 50.3344 	 -95.2855
| 40> H 	 -95.7795 	 50.737 	 -103.676
| 41> *
| 42>
| 43>                          ****END OF INPUT****

CARTESIAN COORDINATES (ANGSTROEM)
---------------------------------
  S    -95.743500   50.146400  -97.499600
  C    -94.645000   50.731600  -96.284900
  C    -93.753100   51.641800  -96.868800
  C    -94.029100   51.922000  -98.253100
  C    -94.998200   51.099400  -98.791400
  H    -93.368000   52.469700  -98.906600
  C    -92.574200   52.158100  -96.106600
  H    -91.957400   52.715700  -96.851900
  H    -92.103900   51.261300  -95.730400
  C    -92.963100   53.203600  -95.033000
  H    -93.365500   54.049900  -95.579400
  H    -93.751900   52.865000  -94.385500
  C    -91.688300   53.651100  -94.319400
  H    -91.312900   52.839100  -93.683000
  H    -90.937600   54.095200  -94.969300
  H    -92.063500   54.373700  -93.645200
  S    -94.520900   50.675400  -101.570000
  C    -95.856500   50.841400  -102.600000
  C    -97.012800   51.292100  -102.008000
  C    -96.917100   51.355800  -100.588000
  C    -95.591800   51.117500  -100.158000
  H    -97.839700   51.565100  -102.616000
  C    -98.156000   51.466900  -99.611700
  H    -98.293600   52.583500  -99.538100
  H    -97.927500   51.052900  -98.698900
  C    -99.476100   50.789200  -100.108000
  H    -99.317400   49.773600  -100.307000
  H    -99.989000   51.261300  -100.964000
  C    -100.582000   51.146300  -99.055900
  H    -100.316000   50.763400  -98.067400
  H    -101.630000   50.731500  -99.334300
  H    -100.760000   52.221700  -99.048200
  H    -94.520900   50.334400  -95.285500
  H    -95.779500   50.737000  -103.676000

 Total Charge           Charge          ....    0
 Multiplicity           Mult            ....    1
 Number of Electrons    NEL             ....  134
 Basis Dimension        Dim             ....  322

ORBITAL ENERGIES
----------------

  NO   OCC          E(Eh)            E(eV)
   0   2.0000     -88.967043     -2420.9163
   1   2.0000     -88.964818     -2420.8558
   2   2.0000     -10.332434      -281.1598
   3   2.0000     -10.331980      -281.1475
   4   2.0000     -10.312925      -280.6289
   5   2.0000     -10.311626      -280.5936
   6   2.0000     -10.310537      -280.5640
   7   2.0000     -10.297928      -280.2209
   8   2.0000     -10.295671      -280.1594
   9   2.0000     -10.293545      -280.1016
  10   2.0000     -10.289555      -279.9930
  11   2.0000     -10.288448      -279.9629
  12   2.0000     -10.288182      -279.9557
  13   2.0000     -10.286063      -279.8980
  14   2.0000     -10.283432      -279.8264
  15   2.0000     -10.274046      -279.5710
  16   2.0000      -8.081616      -219.9120
  17   2.0000      -8.078828      -219.8361
  18   2.0000      -6.040006      -164.3569
  19   2.0000      -6.037422      -164.2866
  20   2.0000      -6.036258      -164.2549
  21   2.0000      -6.033239      -164.1728
  22   2.0000      -6.032413      -164.1503
  23   2.0000      -6.029756      -164.0780
  24   2.0000      -0.998868       -27.1806
  25   2.0000      -0.981185       -26.6994
  26   2.0000      -0.912644       -24.8343
  27   2.0000      -0.902221       -24.5507
  28   2.0000      -0.863845       -23.5064
  29   2.0000      -0.849614       -23.1192
  30   2.0000      -0.846318       -23.0295
  31   2.0000      -0.812940       -22.1212
  32   2.0000      -0.777562       -21.1585
  33   2.0000      -0.763910       -20.7871
  34   2.0000      -0.702859       -19.1258
  35   2.0000      -0.700532       -19.0624
  36   2.0000      -0.693883       -18.8815
  37   2.0000      -0.654192       -17.8015
  38   2.0000      -0.636932       -17.3318
  39   2.0000      -0.615119       -16.7382
  40   2.0000      -0.595242       -16.1974
  41   2.0000      -0.576819       -15.6961
  42   2.0000      -0.570510       -15.5244
  43   2.0000      -0.558346       -15.1934
  44   2.0000      -0.524124       -14.2621
  45   2.0000      -0.518789       -14.1170
  46   2.0000      -0.513666       -13.9776
  47   2.0000      -0.511011       -13.9053
  48   2.0000      -0.507052       -13.7976
  49   2.0000      -0.494888       -13.4666
  50   2.0000      -0.491928       -13.3860
  51   2.0000      -0.473892       -12.8953
  52   2.0000      -0.468370       -12.7450
  53   2.0000      -0.465841       -12.6762
  54   2.0000      -0.462596       -12.5879
  55   2.0000      -0.452255       -12.3065
  56   2.0000      -0.446880       -12.1602
  57   2.0000      -0.435190       -11.8421
  58   2.0000      -0.431873       -11.7519
  59   2.0000      -0.427243       -11.6259
  60   2.0000      -0.421144       -11.4599
  61   2.0000      -0.411476       -11.1968
  62   2.0000      -0.407075       -11.0771
  63   2.0000      -0.341857        -9.3024
  64   2.0000      -0.331775        -9.0281
  65   2.0000      -0.323252        -8.7961
  66   2.0000      -0.291269        -7.9258
  67   0.0000       0.034548         0.9401
  68   0.0000       0.061816         1.6821
  69   0.0000       0.107948         2.9374
  70   0.0000       0.120451         3.2776
  71   0.0000       0.126691         3.4474

MULLIKEN ATOMIC CHARGES
-----------------------
   0 S :    0.100558
   1 C :   -0.120698
   2 C :   -0.118847
   3 C :    0.057821
   4 C :   -0.156275
   5 H :    0.013070
   6 C :    0.052378
   7 H :    0.021125
   8 H :    0.037707
   9 C :   -0.091777
  10 H :    0.024222
  11 H :    0.027470
  12 C :   -0.008523
  13 H :    0.030826
  14 H :    0.039493
  15 H :    0.020582
  16 S :    0.110863
  17 C :   -0.082143
  18 C :   -0.037324
  19 C :   -0.017384
  20 C :   -0.182626
  21 H :    0.008770
  22 C :    0.088350
  23 H :    0.047586
  24 H :    0.002863
  25 C :   -0.065110
  26 H :    0.036966
  27 H :    0.032407
  28 C :   -0.092611
  29 H :    0.037140
  30 H :    0.041578
  31 H :    0.035323
  32 H :    0.050688
  33 H :    0.055533
Sum of atomic charges:   -0.0000000

LOEWDIN ATOMIC CHARGES
----------------------
   0 S :    0.413925
   1 C :   -0.211120
   2 C :   -0.062276
   3 C :   -0.067160
   4 C :   -0.185055
   5 H :    0.030573
   6 C :   -0.034339
   7 H :    0.033086
   8 H :    0.030591
   9 C :   -0.033742
  10 H :    0.025457
  11 H :    0.019611
  12 C :   -0.061502
  13 H :    0.027005
  14 H :    0.027419
  15 H :    0.021951
  16 S :    0.399661
  17 C :   -0.194609
  18 C :   -0.075899
  19 C :   -0.043906
  20 C :   -0.190162
  21 H :    0.027928
  22 C :   -0.018926
  23 H :    0.043834
  24 H :    0.001922
  25 C :   -0.036141
  26 H :    0.017992
  27 H :    0.027990
  28 C :   -0.068691
  29 H :    0.019884
  30 H :    0.032682
  31 H :    0.024449
  32 H :    0.029311
  33 H :    0.028258

  Mayer bond orders larger than 0.100000
B(  0-S ,  1-C ) :   1.1438 B(  0-S ,  4-C ) :   1.1601 B(  1-C ,  2-C ) :   1.5835
B(  1-C , 32-H ) :   0.9701 B(  2-C ,  3-C ) :   1.2637 B(  2-C ,  6-C ) :   1.0178
B(  3-C ,  4-C ) :   1.5812 B(  3-C ,  5-H ) :   0.9829 B(  4-C , 20-C ) :   1.0062
B(  6-C ,  7-H ) :   0.9422 B(  6-C ,  8-H ) :   0.9446 B(  6-C ,  9-C ) :   1.0629
B(  9-C , 10-H ) :   0.9520 B(  9-C , 11-H ) :   0.9609 B(  9-C , 12-C ) :   1.0857
B( 12-C , 13-H ) :   0.9740 B( 12-C , 14-H ) :   0.9725 B( 12-C , 15-H ) :   0.9721
B( 16-S , 17-C ) :   1.1707 B( 16-S , 20-C ) :   1.1300 B( 17-C , 18-C ) :   1.6164
B( 17-C , 33-H ) :   0.9607 B( 18-C , 19-C ) :   1.2376 B( 18-C , 21-H ) :   0.9945
B( 19-C , 20-C ) :   1.5982 B( 19-C , 22-C ) :   1.0154 B( 22-C , 23-H ) :   0.9305
B( 22-C , 24-H ) :   0.9427 B( 22-C , 25-C ) :   1.0649 B( 25-C , 26-H ) :   0.9641
B( 25-C , 27-H ) :   0.9540 B( 25-C , 28-C ) :   1.0637 B( 28-C , 29-H ) :   0.9776
B( 28-C , 30-H ) :   0.9757 B( 28-C , 31-H ) :   0.9776

Dispersion correction           -0.013458592
FINAL SINGLE POINT ENERGY     -1339.866155910747

DIPOLE MOMENT
-------------
                                X             Y             Z
Electronic contribution:      5.94220     -10.88188     -15.22446
Nuclear contribution   :     -6.02917      11.18009      15.34980
                        -----------------------------------------
Total Dipole Moment    :     -0.08697       0.29821       0.12533
                        -----------------------------------------
Magnitude (a.u.)       :      0.33496
Magnitude (Debye)      :      0.85140

Rotational constants in cm-1:     0.020627     0.007126     0.005807
Rotational constants in MHz :   618.384917   213.620211   174.090678

                             ****ORCA TERMINATED NORMALLY****
TOTAL RUN TIME: 0 days 0 hours 0 minutes 20 seconds 696 msec
