                         Program Version 4.2.1 -  RELEASE  -
|  1> ! wB97X-D3 SP def2-SVP
|  2> %pal
|  3> nprocs 24
|  4> end
|  5>
|  6> * xyz 0 1
|  7> S 	 -1.06215 	 -14.8142 	 -101.681
|  8> C 	 0.0109366 	 -16.0558 	 -101.168
|  9> C 	 0.591795 	 -16.7471 	 -102.272
| 10> C 	 0.152716 	 -16.1706 	 -103.546
| 11> C 	 -0.86434 	 -15.2177 	 -103.387
| 12> H 	 0.533487 	 -16.2292 	 -104.6
| 13> C 	 1.44475 	 -17.9264 	 -102.246
| 14> H 	 1.64388 	 -18.1511 	 -103.282
| 15> H 	 0.809492 	 -18.7061 	 -101.918
| 16> C 	 2.67735 	 -17.9138 	 -101.354
| 17> H 	 3.14854 	 -16.9617 	 -101.518
| 18> H 	 2.48181 	 -17.9085 	 -100.326
| 19> C 	 3.67067 	 -19.0079 	 -101.666
| 20> H 	 3.73869 	 -19.3763 	 -102.73
| 21> H 	 4.63095 	 -18.6721 	 -101.319
| 22> H 	 3.32077 	 -19.8502 	 -101.085
| 23> S 	 -1.78082 	 -15.3597 	 -106.087
| 24> C 	 -2.53328 	 -13.9636 	 -106.863
| 25> C 	 -2.77993 	 -12.9908 	 -105.923
| 26> C 	 -2.34423 	 -13.2587 	 -104.591
| 27> C 	 -1.63119 	 -14.5358 	 -104.495
| 28> H 	 -3.31983 	 -12.1497 	 -106.322
| 29> C 	 -2.38086 	 -12.236 	 -103.486
| 30> H 	 -2.1096 	 -11.2606 	 -103.99
| 31> H 	 -1.70253 	 -12.4103 	 -102.71
| 32> C 	 -3.73049 	 -12.066 	 -102.86
| 33> H 	 -4.12768 	 -13.04 	 -102.485
| 34> H 	 -4.53601 	 -11.8464 	 -103.622
| 35> C 	 -3.86291 	 -11.0056 	 -101.777
| 36> H 	 -3.5511 	 -9.985 	 -102.061
| 37> H 	 -3.3055 	 -11.363 	 -100.974
| 38> H 	 -4.90208 	 -10.8661 	 -101.371
| 39> H 	 0.198979 	 -16.2975 	 -100.115
| 40> H 	 -2.98283 	 -13.883 	 -107.84
| 41> *
| 42>
| 43>                          ****END OF INPUT****

CARTESIAN COORDINATES (ANGSTROEM)
---------------------------------
  S     -1.062150  -14.814200  -101.681000
  C      0.010937  -16.055800  -101.168000
  C      0.591795  -16.747100  -102.272000
  C      0.152716  -16.170600  -103.546000
  C     -0.864340  -15.217700  -103.387000
  H      0.533487  -16.229200  -104.600000
  C      1.444750  -17.926400  -102.246000
  H      1.643880  -18.151100  -103.282000
  H      0.809492  -18.706100  -101.918000
  C      2.677350  -17.913800  -101.354000
  H      3.148540  -16.961700  -101.518000
  H      2.481810  -17.908500  -100.326000
  C      3.670670  -19.007900  -101.666000
  H      3.738690  -19.376300  -102.730000
  H      4.630950  -18.672100  -101.319000
  H      3.320770  -19.850200  -101.085000
  S     -1.780820  -15.359700  -106.087000
  C     -2.533280  -13.963600  -106.863000
  C     -2.779930  -12.990800  -105.923000
  C     -2.344230  -13.258700  -104.591000
  C     -1.631190  -14.535800  -104.495000
  H     -3.319830  -12.149700  -106.322000
  C     -2.380860  -12.236000  -103.486000
  H     -2.109600  -11.260600  -103.990000
  H     -1.702530  -12.410300  -102.710000
  C     -3.730490  -12.066000  -102.860000
  H     -4.127680  -13.040000  -102.485000
  H     -4.536010  -11.846400  -103.622000
  C     -3.862910  -11.005600  -101.777000
  H     -3.551100   -9.985000  -102.061000
  H     -3.305500  -11.363000  -100.974000
  H     -4.902080  -10.866100  -101.371000
  H      0.198979  -16.297500  -100.115000
  H     -2.982830  -13.883000  -107.840000

 Total Charge           Charge          ....    0
 Multiplicity           Mult            ....    1
 Number of Electrons    NEL             ....  134
 Basis Dimension        Dim             ....  322

ORBITAL ENERGIES
----------------

  NO   OCC          E(Eh)            E(eV)
   0   2.0000     -88.971562     -2421.0393
   1   2.0000     -88.969180     -2420.9745
   2   2.0000     -10.345636      -281.5191
   3   2.0000     -10.339806      -281.3604
   4   2.0000     -10.318541      -280.7818
   5   2.0000     -10.318425      -280.7786
   6   2.0000     -10.313827      -280.6535
   7   2.0000     -10.309173      -280.5269
   8   2.0000     -10.303085      -280.3612
   9   2.0000     -10.294468      -280.1267
  10   2.0000     -10.289418      -279.9893
  11   2.0000     -10.285301      -279.8773
  12   2.0000     -10.281929      -279.7855
  13   2.0000     -10.278043      -279.6798
  14   2.0000     -10.277961      -279.6775
  15   2.0000     -10.274558      -279.5849
  16   2.0000      -8.085719      -220.0236
  17   2.0000      -8.082351      -219.9320
  18   2.0000      -6.044338      -164.4748
  19   2.0000      -6.041056      -164.3855
  20   2.0000      -6.040204      -164.3623
  21   2.0000      -6.036953      -164.2738
  22   2.0000      -6.036531      -164.2624
  23   2.0000      -6.033113      -164.1693
  24   2.0000      -0.997555       -27.1449
  25   2.0000      -0.978449       -26.6250
  26   2.0000      -0.920746       -25.0548
  27   2.0000      -0.912193       -24.8220
  28   2.0000      -0.866179       -23.5699
  29   2.0000      -0.856988       -23.3198
  30   2.0000      -0.845806       -23.0156
  31   2.0000      -0.815273       -22.1847
  32   2.0000      -0.782608       -21.2958
  33   2.0000      -0.768635       -20.9156
  34   2.0000      -0.711466       -19.3600
  35   2.0000      -0.698719       -19.0131
  36   2.0000      -0.689771       -18.7696
  37   2.0000      -0.659225       -17.9384
  38   2.0000      -0.634988       -17.2789
  39   2.0000      -0.615086       -16.7373
  40   2.0000      -0.596744       -16.2382
  41   2.0000      -0.572758       -15.5855
  42   2.0000      -0.570988       -15.5374
  43   2.0000      -0.562090       -15.2953
  44   2.0000      -0.532523       -14.4907
  45   2.0000      -0.523834       -14.2542
  46   2.0000      -0.521090       -14.1796
  47   2.0000      -0.512383       -13.9426
  48   2.0000      -0.508651       -13.8411
  49   2.0000      -0.497452       -13.5363
  50   2.0000      -0.490347       -13.3430
  51   2.0000      -0.477999       -13.0070
  52   2.0000      -0.474924       -12.9233
  53   2.0000      -0.465680       -12.6718
  54   2.0000      -0.461056       -12.5460
  55   2.0000      -0.453665       -12.3448
  56   2.0000      -0.445486       -12.1223
  57   2.0000      -0.438011       -11.9189
  58   2.0000      -0.431012       -11.7284
  59   2.0000      -0.425331       -11.5739
  60   2.0000      -0.416202       -11.3254
  61   2.0000      -0.412987       -11.2379
  62   2.0000      -0.403990       -10.9931
  63   2.0000      -0.358342        -9.7510
  64   2.0000      -0.331194        -9.0123
  65   2.0000      -0.324463        -8.8291
  66   2.0000      -0.280259        -7.6262
  67   0.0000       0.014854         0.4042
  68   0.0000       0.077379         2.1056
  69   0.0000       0.108376         2.9491
  70   0.0000       0.116406         3.1676
  71   0.0000       0.128170         3.4877

MULLIKEN ATOMIC CHARGES
-----------------------
   0 S :    0.106764
   1 C :   -0.122233
   2 C :   -0.106114
   3 C :   -0.034703
   4 C :   -0.127502
   5 H :    0.051212
   6 C :    0.110964
   7 H :    0.010231
   8 H :    0.029224
   9 C :   -0.062659
  10 H :    0.019154
  11 H :    0.015779
  12 C :   -0.044555
  13 H :    0.040927
  14 H :    0.034131
  15 H :    0.026097
  16 S :    0.088776
  17 C :   -0.090641
  18 C :   -0.041790
  19 C :   -0.027830
  20 C :   -0.135843
  21 H :    0.018010
  22 C :    0.087961
  23 H :    0.036311
  24 H :    0.004991
  25 C :   -0.116476
  26 H :    0.026950
  27 H :    0.021818
  28 C :   -0.022747
  29 H :    0.030901
  30 H :    0.017881
  31 H :    0.036270
  32 H :    0.059599
  33 H :    0.059142
Sum of atomic charges:    0.0000000

LOEWDIN ATOMIC CHARGES
----------------------
   0 S :    0.424016
   1 C :   -0.219428
   2 C :   -0.051361
   3 C :   -0.080293
   4 C :   -0.188074
   5 H :    0.041887
   6 C :   -0.035907
   7 H :    0.032279
   8 H :    0.035109
   9 C :   -0.037190
  10 H :    0.020677
  11 H :    0.017901
  12 C :   -0.061446
  13 H :    0.031517
  14 H :    0.025943
  15 H :    0.024399
  16 S :    0.387117
  17 C :   -0.187149
  18 C :   -0.071288
  19 C :   -0.053009
  20 C :   -0.178650
  21 H :    0.032271
  22 C :   -0.034919
  23 H :    0.041766
  24 H :    0.009432
  25 C :   -0.051794
  26 H :    0.026629
  27 H :    0.022895
  28 C :   -0.066163
  29 H :    0.025433
  30 H :    0.015545
  31 H :    0.034247
  32 H :    0.032640
  33 H :    0.034964

  Mayer bond orders larger than 0.100000
B(  0-S ,  1-C ) :   1.1470 B(  0-S ,  4-C ) :   1.1530 B(  1-C ,  2-C ) :   1.5729
B(  1-C , 32-H ) :   0.9700 B(  2-C ,  3-C ) :   1.2433 B(  2-C ,  6-C ) :   1.0452
B(  3-C ,  4-C ) :   1.5633 B(  3-C ,  5-H ) :   0.9718 B(  4-C , 20-C ) :   1.0676
B(  6-C ,  7-H ) :   0.9359 B(  6-C ,  8-H ) :   0.9164 B(  6-C ,  9-C ) :   1.0605
B(  9-C , 10-H ) :   0.9650 B(  9-C , 11-H ) :   0.9483 B(  9-C , 12-C ) :   1.0833
B( 12-C , 13-H ) :   0.9775 B( 12-C , 14-H ) :   0.9753 B( 12-C , 15-H ) :   0.9767
B( 16-S , 17-C ) :   1.1391 B( 16-S , 20-C ) :   1.1460 B( 17-C , 18-C ) :   1.6230
B( 17-C , 20-C ) :   0.1009 B( 17-C , 33-H ) :   0.9633 B( 18-C , 19-C ) :   1.2574
B( 18-C , 21-H ) :   0.9880 B( 19-C , 20-C ) :   1.5158 B( 19-C , 22-C ) :   1.0471
B( 22-C , 23-H ) :   0.9317 B( 22-C , 24-H ) :   0.9334 B( 22-C , 25-C ) :   1.0561
B( 25-C , 26-H ) :   0.9495 B( 25-C , 27-H ) :   0.9567 B( 25-C , 28-C ) :   1.0832
B( 28-C , 29-H ) :   0.9739 B( 28-C , 30-H ) :   0.9729 B( 28-C , 31-H ) :   0.9724

Dispersion correction           -0.013459316
FINAL SINGLE POINT ENERGY     -1339.860676905699

DIPOLE MOMENT
-------------
                                X             Y             Z
Electronic contribution:     -6.68455      -0.54215     -11.63833
Nuclear contribution   :      6.82331       0.55789      11.78317
                        -----------------------------------------
Total Dipole Moment    :      0.13876       0.01574       0.14484
                        -----------------------------------------
Magnitude (a.u.)       :      0.20120
Magnitude (Debye)      :      0.51140

Rotational constants in cm-1:     0.022286     0.007128     0.005547
Rotational constants in MHz :   668.113986   213.684277   166.284115

                             ****ORCA TERMINATED NORMALLY****
TOTAL RUN TIME: 0 days 0 hours 0 minutes 20 seconds 316 msec
