                         Program Version 4.2.1 -  RELEASE  -
|  1> ! wB97X-D3 SP def2-SVP
|  2> %pal
|  3> nprocs 24
|  4> end
|  5>
|  6> * xyz 0 1
|  7> S 	 -93.4405 	 47.8055 	 -91.2285
|  8> C 	 -92.805 	 47.0669 	 -89.6703
|  9> C 	 -93.6162 	 46.0145 	 -89.3068
| 10> C 	 -94.8723 	 45.9528 	 -90.0443
| 11> C 	 -94.9168 	 46.8102 	 -91.126
| 12> H 	 -95.6626 	 45.2408 	 -89.9191
| 13> C 	 -93.4626 	 45.0115 	 -88.1851
| 14> H 	 -94.5025 	 44.9927 	 -87.7185
| 15> H 	 -92.705 	 45.3501 	 -87.5343
| 16> C 	 -93.1086 	 43.5255 	 -88.4564
| 17> H 	 -92.7995 	 43.4633 	 -89.4936
| 18> H 	 -92.4223 	 43.0226 	 -87.7707
| 19> C 	 -94.3336 	 42.5739 	 -88.4894
| 20> H 	 -94.778 	 42.2854 	 -87.503
| 21> H 	 -95.0127 	 43.0053 	 -89.1584
| 22> H 	 -93.9567 	 41.6745 	 -89.0032
| 23> S 	 -96.9081 	 48.7141 	 -91.4303
| 24> C 	 -98.255 	 48.3417 	 -92.5343
| 25> C 	 -97.9582 	 47.2353 	 -93.3129
| 26> C 	 -96.7847 	 46.5022 	 -92.8857
| 27> C 	 -96.1459 	 47.1498 	 -91.8748
| 28> H 	 -98.6683 	 46.938 	 -94.1354
| 29> C 	 -96.2348 	 45.2422 	 -93.5116
| 30> H 	 -95.1549 	 45.125 	 -93.285
| 31> H 	 -96.2816 	 45.3453 	 -94.579
| 32> C 	 -96.9226 	 44.0443 	 -93.2379
| 33> H 	 -97.9585 	 44.111 	 -93.5339
| 34> H 	 -97.0159 	 43.862 	 -92.1345
| 35> C 	 -96.2799 	 42.8683 	 -94.0158
| 36> H 	 -96.189 	 43.0834 	 -95.0782
| 37> H 	 -96.727 	 41.9641 	 -93.7439
| 38> H 	 -95.1645 	 42.7399 	 -93.8454
| 39> H 	 -91.8517 	 47.3476 	 -89.2372
| 40> H 	 -99.1105 	 48.9778 	 -92.7337
| 41> *
| 42>
| 43>                          ****END OF INPUT****

CARTESIAN COORDINATES (ANGSTROEM)
---------------------------------
  S    -93.440500   47.805500  -91.228500
  C    -92.805000   47.066900  -89.670300
  C    -93.616200   46.014500  -89.306800
  C    -94.872300   45.952800  -90.044300
  C    -94.916800   46.810200  -91.126000
  H    -95.662600   45.240800  -89.919100
  C    -93.462600   45.011500  -88.185100
  H    -94.502500   44.992700  -87.718500
  H    -92.705000   45.350100  -87.534300
  C    -93.108600   43.525500  -88.456400
  H    -92.799500   43.463300  -89.493600
  H    -92.422300   43.022600  -87.770700
  C    -94.333600   42.573900  -88.489400
  H    -94.778000   42.285400  -87.503000
  H    -95.012700   43.005300  -89.158400
  H    -93.956700   41.674500  -89.003200
  S    -96.908100   48.714100  -91.430300
  C    -98.255000   48.341700  -92.534300
  C    -97.958200   47.235300  -93.312900
  C    -96.784700   46.502200  -92.885700
  C    -96.145900   47.149800  -91.874800
  H    -98.668300   46.938000  -94.135400
  C    -96.234800   45.242200  -93.511600
  H    -95.154900   45.125000  -93.285000
  H    -96.281600   45.345300  -94.579000
  C    -96.922600   44.044300  -93.237900
  H    -97.958500   44.111000  -93.533900
  H    -97.015900   43.862000  -92.134500
  C    -96.279900   42.868300  -94.015800
  H    -96.189000   43.083400  -95.078200
  H    -96.727000   41.964100  -93.743900
  H    -95.164500   42.739900  -93.845400
  H    -91.851700   47.347600  -89.237200
  H    -99.110500   48.977800  -92.733700

 Total Charge           Charge          ....    0
 Multiplicity           Mult            ....    1
 Number of Electrons    NEL             ....  134
 Basis Dimension        Dim             ....  322

ORBITAL ENERGIES
----------------

  NO   OCC          E(Eh)            E(eV)
   0   2.0000     -88.966134     -2420.8916
   1   2.0000     -88.964286     -2420.8413
   2   2.0000     -10.333657      -281.1931
   3   2.0000     -10.327884      -281.0360
   4   2.0000     -10.324700      -280.9494
   5   2.0000     -10.321554      -280.8638
   6   2.0000     -10.308318      -280.5036
   7   2.0000     -10.304077      -280.3882
   8   2.0000     -10.302192      -280.3369
   9   2.0000     -10.296403      -280.1794
  10   2.0000     -10.293684      -280.1054
  11   2.0000     -10.287835      -279.9462
  12   2.0000     -10.282875      -279.8113
  13   2.0000     -10.281358      -279.7700
  14   2.0000     -10.279397      -279.7166
  15   2.0000     -10.277716      -279.6709
  16   2.0000      -8.079155      -219.8450
  17   2.0000      -8.077988      -219.8132
  18   2.0000      -6.037937      -164.3006
  19   2.0000      -6.036676      -164.2663
  20   2.0000      -6.034011      -164.1938
  21   2.0000      -6.032781      -164.1603
  22   2.0000      -6.029594      -164.0736
  23   2.0000      -6.028456      -164.0426
  24   2.0000      -0.998696       -27.1759
  25   2.0000      -0.974982       -26.5306
  26   2.0000      -0.927728       -25.2448
  27   2.0000      -0.908857       -24.7313
  28   2.0000      -0.867283       -23.6000
  29   2.0000      -0.848601       -23.0916
  30   2.0000      -0.841799       -22.9065
  31   2.0000      -0.813346       -22.1323
  32   2.0000      -0.783981       -21.3332
  33   2.0000      -0.774668       -21.0798
  34   2.0000      -0.704576       -19.1725
  35   2.0000      -0.698415       -19.0048
  36   2.0000      -0.694981       -18.9114
  37   2.0000      -0.658915       -17.9300
  38   2.0000      -0.643173       -17.5016
  39   2.0000      -0.616066       -16.7640
  40   2.0000      -0.601854       -16.3773
  41   2.0000      -0.572581       -15.5807
  42   2.0000      -0.566914       -15.4265
  43   2.0000      -0.556907       -15.1542
  44   2.0000      -0.538648       -14.6574
  45   2.0000      -0.532617       -14.4933
  46   2.0000      -0.519049       -14.1240
  47   2.0000      -0.515366       -14.0238
  48   2.0000      -0.506633       -13.7862
  49   2.0000      -0.498949       -13.5771
  50   2.0000      -0.492279       -13.3956
  51   2.0000      -0.474883       -12.9222
  52   2.0000      -0.467027       -12.7085
  53   2.0000      -0.464284       -12.6338
  54   2.0000      -0.453743       -12.3470
  55   2.0000      -0.452196       -12.3049
  56   2.0000      -0.444268       -12.0892
  57   2.0000      -0.439823       -11.9682
  58   2.0000      -0.428079       -11.6486
  59   2.0000      -0.421444       -11.4681
  60   2.0000      -0.416099       -11.3226
  61   2.0000      -0.412387       -11.2216
  62   2.0000      -0.407580       -11.0908
  63   2.0000      -0.337724        -9.1899
  64   2.0000      -0.330286        -8.9875
  65   2.0000      -0.323718        -8.8088
  66   2.0000      -0.308815        -8.4033
  67   0.0000       0.035204         0.9580
  68   0.0000       0.053954         1.4682
  69   0.0000       0.103916         2.8277
  70   0.0000       0.110602         3.0096
  71   0.0000       0.120836         3.2881

MULLIKEN ATOMIC CHARGES
-----------------------
   0 S :    0.083969
   1 C :   -0.137957
   2 C :   -0.053800
   3 C :    0.032250
   4 C :   -0.157944
   5 H :    0.015230
   6 C :    0.063533
   7 H :    0.046499
   8 H :    0.011024
   9 C :   -0.067761
  10 H :    0.030399
  11 H :    0.041447
  12 C :   -0.073007
  13 H :    0.049171
  14 H :    0.012140
  15 H :    0.029999
  16 S :    0.105530
  17 C :   -0.096930
  18 C :   -0.051025
  19 C :   -0.001464
  20 C :   -0.178057
  21 H :    0.039150
  22 C :    0.077261
  23 H :    0.032920
  24 H :    0.008554
  25 C :   -0.072034
  26 H :    0.019168
  27 H :    0.023148
  28 C :   -0.021696
  29 H :    0.023316
  30 H :    0.030413
  31 H :    0.021015
  32 H :    0.054745
  33 H :    0.060795
Sum of atomic charges:    0.0000000

LOEWDIN ATOMIC CHARGES
----------------------
   0 S :    0.350997
   1 C :   -0.167292
   2 C :   -0.059078
   3 C :   -0.056303
   4 C :   -0.181630
   5 H :    0.028302
   6 C :   -0.036007
   7 H :    0.043283
   8 H :    0.024413
   9 C :   -0.039739
  10 H :    0.027413
  11 H :    0.027415
  12 C :   -0.066141
  13 H :    0.027178
  14 H :    0.010388
  15 H :    0.029468
  16 S :    0.373480
  17 C :   -0.174778
  18 C :   -0.075772
  19 C :   -0.051964
  20 C :   -0.180862
  21 H :    0.039799
  22 C :   -0.037608
  23 H :    0.036027
  24 H :    0.030362
  25 C :   -0.044278
  26 H :    0.022574
  27 H :    0.024691
  28 C :   -0.062545
  29 H :    0.026498
  30 H :    0.018410
  31 H :    0.031522
  32 H :    0.030103
  33 H :    0.031673

  Mayer bond orders larger than 0.100000
B(  0-S ,  1-C ) :   1.1031 B(  0-S ,  4-C ) :   1.1283 B(  1-C ,  2-C ) :   1.6492
B(  1-C , 32-H ) :   0.9701 B(  2-C ,  3-C ) :   1.1775 B(  2-C ,  6-C ) :   1.0378
B(  3-C ,  4-C ) :   1.6318 B(  3-C ,  5-H ) :   0.9873 B(  4-C , 20-C ) :   1.0050
B(  6-C ,  7-H ) :   0.9474 B(  6-C ,  8-H ) :   0.9370 B(  6-C ,  9-C ) :   1.0378
B(  9-C , 10-H ) :   0.9606 B(  9-C , 11-H ) :   0.9648 B(  9-C , 12-C ) :   1.0783
B( 12-C , 13-H ) :   0.9742 B( 12-C , 14-H ) :   0.9785 B( 12-C , 15-H ) :   0.9740
B( 16-S , 17-C ) :   1.1330 B( 16-S , 20-C ) :   1.1182 B( 17-C , 18-C ) :   1.6566
B( 17-C , 33-H ) :   0.9654 B( 18-C , 19-C ) :   1.1955 B( 18-C , 21-H ) :   0.9768
B( 19-C , 20-C ) :   1.6647 B( 19-C , 22-C ) :   1.0327 B( 22-C , 23-H ) :   0.9273
B( 22-C , 24-H ) :   0.9242 B( 22-C , 25-C ) :   1.0853 B( 25-C , 26-H ) :   0.9463
B( 25-C , 27-H ) :   0.9436 B( 25-C , 28-C ) :   1.0791 B( 28-C , 29-H ) :   0.9691
B( 28-C , 30-H ) :   0.9737 B( 28-C , 31-H ) :   0.9705

Dispersion correction           -0.014212109
FINAL SINGLE POINT ENERGY     -1339.851157518626

DIPOLE MOMENT
-------------
                                X             Y             Z
Electronic contribution:     -0.25328      30.30185      -1.52426
Nuclear contribution   :      0.17030     -30.95198       1.48350
                        -----------------------------------------
Total Dipole Moment    :     -0.08298      -0.65012      -0.04076
                        -----------------------------------------
Magnitude (a.u.)       :      0.65666
Magnitude (Debye)      :      1.66911

Rotational constants in cm-1:     0.015915     0.009815     0.007124
Rotational constants in MHz :   477.122730   294.261280   213.585082

                             ****ORCA TERMINATED NORMALLY****
TOTAL RUN TIME: 0 days 0 hours 0 minutes 20 seconds 459 msec
