                         Program Version 4.2.1 -  RELEASE  -
|  1> ! wB97X-D3 SP def2-SVP
|  2> %pal
|  3> nprocs 24
|  4> end
|  5>
|  6> * xyz 0 1
|  7> S 	 -132.467 	 25.9777 	 -21.736
|  8> C 	 -133.403 	 24.6759 	 -20.9489
|  9> C 	 -132.884 	 23.4723 	 -21.305
| 10> C 	 -131.755 	 23.6004 	 -22.2475
| 11> C 	 -131.363 	 24.8894 	 -22.4925
| 12> H 	 -131.324 	 22.7868 	 -22.7315
| 13> C 	 -133.581 	 22.1518 	 -21.0528
| 14> H 	 -133.729 	 21.9858 	 -19.9782
| 15> H 	 -132.865 	 21.3963 	 -21.3799
| 16> C 	 -134.919 	 21.8611 	 -21.7188
| 17> H 	 -135.654 	 22.582 	 -21.4858
| 18> H 	 -134.696 	 21.9842 	 -22.8002
| 19> C 	 -135.453 	 20.442 	 -21.3815
| 20> H 	 -134.717 	 19.7248 	 -21.5997
| 21> H 	 -135.702 	 20.2966 	 -20.3679
| 22> H 	 -136.374 	 20.3061 	 -21.962
| 23> S 	 -130.461 	 26.9196 	 -24.1221
| 24> C 	 -128.936 	 26.7687 	 -24.8203
| 25> C 	 -128.216 	 25.6753 	 -24.3445
| 26> C 	 -128.94 	 24.8262 	 -23.4393
| 27> C 	 -130.178 	 25.3831 	 -23.2337
| 28> H 	 -127.243 	 25.4552 	 -24.6591
| 29> C 	 -128.263 	 23.6676 	 -22.8365
| 30> H 	 -129.02 	 23.0973 	 -22.2376
| 31> H 	 -127.469 	 24.057 	 -22.2165
| 32> C 	 -127.57 	 22.6808 	 -23.7673
| 33> H 	 -127.054 	 21.8958 	 -23.1942
| 34> H 	 -126.805 	 23.1355 	 -24.27
| 35> C 	 -128.516 	 22.0207 	 -24.6632
| 36> H 	 -128.032 	 21.3851 	 -25.4336
| 37> H 	 -129.136 	 22.7445 	 -25.1308
| 38> H 	 -129.185 	 21.3528 	 -24.1338
| 39> H 	 -134.364 	 24.7967 	 -20.4479
| 40> H 	 -128.576 	 27.5388 	 -25.5243
| 41> *
| 42>
| 43>                          ****END OF INPUT****

CARTESIAN COORDINATES (ANGSTROEM)
---------------------------------
  S    -132.467000   25.977700  -21.736000
  C    -133.403000   24.675900  -20.948900
  C    -132.884000   23.472300  -21.305000
  C    -131.755000   23.600400  -22.247500
  C    -131.363000   24.889400  -22.492500
  H    -131.324000   22.786800  -22.731500
  C    -133.581000   22.151800  -21.052800
  H    -133.729000   21.985800  -19.978200
  H    -132.865000   21.396300  -21.379900
  C    -134.919000   21.861100  -21.718800
  H    -135.654000   22.582000  -21.485800
  H    -134.696000   21.984200  -22.800200
  C    -135.453000   20.442000  -21.381500
  H    -134.717000   19.724800  -21.599700
  H    -135.702000   20.296600  -20.367900
  H    -136.374000   20.306100  -21.962000
  S    -130.461000   26.919600  -24.122100
  C    -128.936000   26.768700  -24.820300
  C    -128.216000   25.675300  -24.344500
  C    -128.940000   24.826200  -23.439300
  C    -130.178000   25.383100  -23.233700
  H    -127.243000   25.455200  -24.659100
  C    -128.263000   23.667600  -22.836500
  H    -129.020000   23.097300  -22.237600
  H    -127.469000   24.057000  -22.216500
  C    -127.570000   22.680800  -23.767300
  H    -127.054000   21.895800  -23.194200
  H    -126.805000   23.135500  -24.270000
  C    -128.516000   22.020700  -24.663200
  H    -128.032000   21.385100  -25.433600
  H    -129.136000   22.744500  -25.130800
  H    -129.185000   21.352800  -24.133800
  H    -134.364000   24.796700  -20.447900
  H    -128.576000   27.538800  -25.524300

 Total Charge           Charge          ....    0
 Multiplicity           Mult            ....    1
 Number of Electrons    NEL             ....  134
 Basis Dimension        Dim             ....  322

ORBITAL ENERGIES
----------------

  NO   OCC          E(Eh)            E(eV)
   0   2.0000     -88.967458     -2420.9276
   1   2.0000     -88.960059     -2420.7263
   2   2.0000     -10.331515      -281.1348
   3   2.0000     -10.328242      -281.0457
   4   2.0000     -10.319457      -280.8067
   5   2.0000     -10.312627      -280.6209
   6   2.0000     -10.305457      -280.4257
   7   2.0000     -10.300160      -280.2816
   8   2.0000     -10.293075      -280.0888
   9   2.0000     -10.291037      -280.0334
  10   2.0000     -10.288590      -279.9668
  11   2.0000     -10.288526      -279.9650
  12   2.0000     -10.284822      -279.8642
  13   2.0000     -10.277833      -279.6741
  14   2.0000     -10.274073      -279.5718
  15   2.0000     -10.269770      -279.4547
  16   2.0000      -8.083117      -219.9528
  17   2.0000      -8.074999      -219.7319
  18   2.0000      -6.041441      -164.3960
  19   2.0000      -6.037660      -164.2931
  20   2.0000      -6.033850      -164.1894
  21   2.0000      -6.033685      -164.1849
  22   2.0000      -6.029467      -164.0701
  23   2.0000      -6.025569      -163.9641
  24   2.0000      -1.008497       -27.4426
  25   2.0000      -0.984971       -26.8024
  26   2.0000      -0.928422       -25.2636
  27   2.0000      -0.911907       -24.8142
  28   2.0000      -0.869623       -23.6636
  29   2.0000      -0.862849       -23.4793
  30   2.0000      -0.839741       -22.8505
  31   2.0000      -0.812470       -22.1084
  32   2.0000      -0.790091       -21.4995
  33   2.0000      -0.776187       -21.1211
  34   2.0000      -0.713421       -19.4132
  35   2.0000      -0.706119       -19.2145
  36   2.0000      -0.691619       -18.8199
  37   2.0000      -0.665909       -18.1203
  38   2.0000      -0.638636       -17.3782
  39   2.0000      -0.620811       -16.8931
  40   2.0000      -0.603406       -16.4195
  41   2.0000      -0.571612       -15.5544
  42   2.0000      -0.567350       -15.4384
  43   2.0000      -0.560366       -15.2483
  44   2.0000      -0.551785       -15.0148
  45   2.0000      -0.524780       -14.2800
  46   2.0000      -0.520872       -14.1737
  47   2.0000      -0.512141       -13.9361
  48   2.0000      -0.507689       -13.8149
  49   2.0000      -0.500252       -13.6126
  50   2.0000      -0.495937       -13.4951
  51   2.0000      -0.480684       -13.0801
  52   2.0000      -0.472806       -12.8657
  53   2.0000      -0.465645       -12.6709
  54   2.0000      -0.460711       -12.5366
  55   2.0000      -0.452786       -12.3209
  56   2.0000      -0.444124       -12.0852
  57   2.0000      -0.442309       -12.0358
  58   2.0000      -0.439467       -11.9585
  59   2.0000      -0.430521       -11.7151
  60   2.0000      -0.420911       -11.4536
  61   2.0000      -0.415477       -11.3057
  62   2.0000      -0.409839       -11.1523
  63   2.0000      -0.354924        -9.6580
  64   2.0000      -0.334135        -9.0923
  65   2.0000      -0.324032        -8.8174
  66   2.0000      -0.289496        -7.8776
  67   0.0000       0.028232         0.7682
  68   0.0000       0.077079         2.0974
  69   0.0000       0.100797         2.7428
  70   0.0000       0.117206         3.1893
  71   0.0000       0.133116         3.6223

MULLIKEN ATOMIC CHARGES
-----------------------
   0 S :    0.078979
   1 C :   -0.120672
   2 C :   -0.077958
   3 C :    0.018080
   4 C :   -0.094516
   5 H :   -0.023012
   6 C :    0.031574
   7 H :    0.028294
   8 H :    0.012950
   9 C :   -0.064623
  10 H :    0.017082
  11 H :    0.032740
  12 C :   -0.015235
  13 H :    0.019576
  14 H :    0.019994
  15 H :    0.039666
  16 S :    0.111472
  17 C :   -0.086614
  18 C :   -0.019540
  19 C :   -0.053504
  20 C :   -0.143408
  21 H :   -0.009135
  22 C :    0.070385
  23 H :    0.023253
  24 H :    0.042504
  25 C :   -0.035967
  26 H :    0.025035
  27 H :    0.001767
  28 C :   -0.038833
  29 H :    0.034139
  30 H :    0.031048
  31 H :    0.018155
  32 H :    0.056123
  33 H :    0.070202
Sum of atomic charges:   -0.0000000

LOEWDIN ATOMIC CHARGES
----------------------
   0 S :    0.386358
   1 C :   -0.185571
   2 C :   -0.061602
   3 C :   -0.071312
   4 C :   -0.190514
   5 H :    0.014559
   6 C :   -0.039685
   7 H :    0.030111
   8 H :    0.027074
   9 C :   -0.035414
  10 H :    0.014351
  11 H :    0.028987
  12 C :   -0.054159
  13 H :    0.018822
  14 H :    0.019307
  15 H :    0.032844
  16 S :    0.413277
  17 C :   -0.198432
  18 C :   -0.066495
  19 C :   -0.051906
  20 C :   -0.179158
  21 H :    0.017858
  22 C :   -0.027414
  23 H :    0.035213
  24 H :    0.040508
  25 C :   -0.036765
  26 H :    0.030930
  27 H :    0.008512
  28 C :   -0.062076
  29 H :    0.030521
  30 H :    0.021575
  31 H :    0.021778
  32 H :    0.033466
  33 H :    0.034454

  Mayer bond orders larger than 0.100000
B(  0-S ,  1-C ) :   1.1091 B(  0-S ,  4-C ) :   1.1494 B(  1-C ,  2-C ) :   1.6397
B(  1-C , 32-H ) :   0.9718 B(  2-C ,  3-C ) :   1.2178 B(  2-C ,  6-C ) :   1.0320
B(  3-C ,  4-C ) :   1.5907 B(  3-C ,  5-H ) :   1.0017 B(  4-C , 20-C ) :   1.0177
B(  6-C ,  7-H ) :   0.9369 B(  6-C ,  8-H ) :   0.9406 B(  6-C ,  9-C ) :   1.0672
B(  9-C , 10-H ) :   0.9544 B(  9-C , 11-H ) :   0.9552 B(  9-C , 12-C ) :   1.0790
B( 12-C , 13-H ) :   0.9763 B( 12-C , 14-H ) :   0.9747 B( 12-C , 15-H ) :   0.9737
B( 16-S , 17-C ) :   1.1729 B( 16-S , 20-C ) :   1.1334 B( 17-C , 18-C ) :   1.5936
B( 17-C , 33-H ) :   0.9649 B( 18-C , 19-C ) :   1.2144 B( 18-C , 21-H ) :   1.0010
B( 19-C , 20-C ) :   1.6180 B( 19-C , 22-C ) :   1.0485 B( 22-C , 23-H ) :   0.9319
B( 22-C , 24-H ) :   0.9250 B( 22-C , 25-C ) :   1.0821 B( 25-C , 26-H ) :   0.9473
B( 25-C , 27-H ) :   0.9481 B( 25-C , 28-C ) :   1.0875 B( 28-C , 29-H ) :   0.9691
B( 28-C , 30-H ) :   0.9732 B( 28-C , 31-H ) :   0.9692

Dispersion correction           -0.014050025
FINAL SINGLE POINT ENERGY     -1339.880026613643

DIPOLE MOMENT
-------------
                                X             Y             Z
Electronic contribution:      1.66196      29.11403      -0.67816
Nuclear contribution   :     -1.42611     -29.73523       0.53544
                        -----------------------------------------
Total Dipole Moment    :      0.23585      -0.62120      -0.14271
                        -----------------------------------------
Magnitude (a.u.)       :      0.67962
Magnitude (Debye)      :      1.72745

Rotational constants in cm-1:     0.019801     0.008140     0.006238
Rotational constants in MHz :   593.609911   244.017490   187.004224

                             ****ORCA TERMINATED NORMALLY****
TOTAL RUN TIME: 0 days 0 hours 0 minutes 21 seconds 416 msec
