                         Program Version 4.2.1 -  RELEASE  -
|  1> ! wB97X-D3 SP def2-SVP
|  2> %pal
|  3> nprocs 24
|  4> end
|  5>
|  6> * xyz 0 1
|  7> S 	 -82.0502 	 -33.3482 	 -52.7456
|  8> C 	 -80.6674 	 -32.3239 	 -52.8416
|  9> C 	 -81.1051 	 -30.9975 	 -52.8176
| 10> C 	 -82.5558 	 -30.8306 	 -52.8098
| 11> C 	 -83.249 	 -31.9989 	 -52.6308
| 12> H 	 -83.1373 	 -29.8882 	 -52.7196
| 13> C 	 -80.193 	 -29.8298 	 -52.9889
| 14> H 	 -79.3336 	 -29.9734 	 -52.249
| 15> H 	 -80.7488 	 -28.9506 	 -52.6862
| 16> C 	 -79.6023 	 -29.642 	 -54.3782
| 17> H 	 -78.7306 	 -28.9269 	 -54.2595
| 18> H 	 -79.1618 	 -30.5391 	 -54.8258
| 19> C 	 -80.6716 	 -29.1113 	 -55.4128
| 20> H 	 -81.14 	 -28.3326 	 -54.8941
| 21> H 	 -80.319 	 -28.8741 	 -56.375
| 22> H 	 -81.3976 	 -29.8787 	 -55.5533
| 23> S 	 -85.5871 	 -31.9714 	 -53.8976
| 24> C 	 -87.0868 	 -32.3499 	 -53.1571
| 25> C 	 -86.8563 	 -32.5932 	 -51.8145
| 26> C 	 -85.5099 	 -32.4794 	 -51.4031
| 27> C 	 -84.6563 	 -32.2117 	 -52.4884
| 28> H 	 -87.6496 	 -32.8772 	 -51.0272
| 29> C 	 -85.0477 	 -32.7476 	 -50.0319
| 30> H 	 -84.2643 	 -33.5189 	 -49.9794
| 31> H 	 -85.8449 	 -33.2722 	 -49.3838
| 32> C 	 -84.6635 	 -31.517 	 -49.2337
| 33> H 	 -85.4252 	 -30.8105 	 -49.3778
| 34> H 	 -83.7607 	 -31.0733 	 -49.6794
| 35> C 	 -84.3432 	 -31.738 	 -47.6768
| 36> H 	 -85.1866 	 -32.0748 	 -47.0517
| 37> H 	 -84.141 	 -30.8195 	 -47.1129
| 38> H 	 -83.4802 	 -32.3725 	 -47.6177
| 39> H 	 -79.6307 	 -32.4986 	 -52.8797
| 40> H 	 -87.9731 	 -32.2548 	 -53.748
| 41> *
| 42>
| 43>                          ****END OF INPUT****

CARTESIAN COORDINATES (ANGSTROEM)
---------------------------------
  S    -82.050200  -33.348200  -52.745600
  C    -80.667400  -32.323900  -52.841600
  C    -81.105100  -30.997500  -52.817600
  C    -82.555800  -30.830600  -52.809800
  C    -83.249000  -31.998900  -52.630800
  H    -83.137300  -29.888200  -52.719600
  C    -80.193000  -29.829800  -52.988900
  H    -79.333600  -29.973400  -52.249000
  H    -80.748800  -28.950600  -52.686200
  C    -79.602300  -29.642000  -54.378200
  H    -78.730600  -28.926900  -54.259500
  H    -79.161800  -30.539100  -54.825800
  C    -80.671600  -29.111300  -55.412800
  H    -81.140000  -28.332600  -54.894100
  H    -80.319000  -28.874100  -56.375000
  H    -81.397600  -29.878700  -55.553300
  S    -85.587100  -31.971400  -53.897600
  C    -87.086800  -32.349900  -53.157100
  C    -86.856300  -32.593200  -51.814500
  C    -85.509900  -32.479400  -51.403100
  C    -84.656300  -32.211700  -52.488400
  H    -87.649600  -32.877200  -51.027200
  C    -85.047700  -32.747600  -50.031900
  H    -84.264300  -33.518900  -49.979400
  H    -85.844900  -33.272200  -49.383800
  C    -84.663500  -31.517000  -49.233700
  H    -85.425200  -30.810500  -49.377800
  H    -83.760700  -31.073300  -49.679400
  C    -84.343200  -31.738000  -47.676800
  H    -85.186600  -32.074800  -47.051700
  H    -84.141000  -30.819500  -47.112900
  H    -83.480200  -32.372500  -47.617700
  H    -79.630700  -32.498600  -52.879700
  H    -87.973100  -32.254800  -53.748000

 Total Charge           Charge          ....    0
 Multiplicity           Mult            ....    1
 Number of Electrons    NEL             ....  134
 Basis Dimension        Dim             ....  322

ORBITAL ENERGIES
----------------

  NO   OCC          E(Eh)            E(eV)
   0   2.0000     -88.966126     -2420.8914
   1   2.0000     -88.965063     -2420.8624
   2   2.0000     -10.332237      -281.1545
   3   2.0000     -10.324165      -280.9348
   4   2.0000     -10.318708      -280.7863
   5   2.0000     -10.313156      -280.6353
   6   2.0000     -10.304014      -280.3865
   7   2.0000     -10.302454      -280.3440
   8   2.0000     -10.300908      -280.3020
   9   2.0000     -10.300662      -280.2953
  10   2.0000     -10.293179      -280.0916
  11   2.0000     -10.292118      -280.0628
  12   2.0000     -10.291144      -280.0363
  13   2.0000     -10.282989      -279.8144
  14   2.0000     -10.280738      -279.7531
  15   2.0000     -10.266212      -279.3578
  16   2.0000      -8.082351      -219.9320
  17   2.0000      -8.079039      -219.8418
  18   2.0000      -6.040575      -164.3724
  19   2.0000      -6.037723      -164.2948
  20   2.0000      -6.036338      -164.2571
  21   2.0000      -6.033619      -164.1831
  22   2.0000      -6.033452      -164.1786
  23   2.0000      -6.029826      -164.0799
  24   2.0000      -1.014490       -27.6057
  25   2.0000      -0.986531       -26.8449
  26   2.0000      -0.910960       -24.7885
  27   2.0000      -0.909573       -24.7507
  28   2.0000      -0.876175       -23.8419
  29   2.0000      -0.847379       -23.0584
  30   2.0000      -0.840586       -22.8735
  31   2.0000      -0.817044       -22.2329
  32   2.0000      -0.781841       -21.2750
  33   2.0000      -0.770983       -20.9795
  34   2.0000      -0.710861       -19.3435
  35   2.0000      -0.702526       -19.1167
  36   2.0000      -0.696217       -18.9450
  37   2.0000      -0.666382       -18.1332
  38   2.0000      -0.641020       -17.4430
  39   2.0000      -0.614551       -16.7228
  40   2.0000      -0.599561       -16.3149
  41   2.0000      -0.574880       -15.6433
  42   2.0000      -0.557045       -15.1580
  43   2.0000      -0.552007       -15.0209
  44   2.0000      -0.539589       -14.6830
  45   2.0000      -0.529444       -14.4069
  46   2.0000      -0.517702       -14.0874
  47   2.0000      -0.513149       -13.9635
  48   2.0000      -0.506476       -13.7819
  49   2.0000      -0.502039       -13.6612
  50   2.0000      -0.489043       -13.3075
  51   2.0000      -0.474676       -12.9166
  52   2.0000      -0.470830       -12.8119
  53   2.0000      -0.468556       -12.7501
  54   2.0000      -0.462423       -12.5832
  55   2.0000      -0.450648       -12.2628
  56   2.0000      -0.444862       -12.1053
  57   2.0000      -0.431870       -11.7518
  58   2.0000      -0.429904       -11.6983
  59   2.0000      -0.424613       -11.5543
  60   2.0000      -0.417216       -11.3530
  61   2.0000      -0.408342       -11.1116
  62   2.0000      -0.407466       -11.0877
  63   2.0000      -0.338904        -9.2220
  64   2.0000      -0.336342        -9.1523
  65   2.0000      -0.320413        -8.7189
  66   2.0000      -0.306431        -8.3384
  67   0.0000       0.036239         0.9861
  68   0.0000       0.053187         1.4473
  69   0.0000       0.114899         3.1266
  70   0.0000       0.119393         3.2489
  71   0.0000       0.131686         3.5834

MULLIKEN ATOMIC CHARGES
-----------------------
   0 S :    0.109737
   1 C :   -0.067178
   2 C :   -0.136078
   3 C :    0.043044
   4 C :   -0.163889
   5 H :    0.033198
   6 C :    0.039224
   7 H :    0.040444
   8 H :    0.020641
   9 C :   -0.088798
  10 H :    0.035686
  11 H :    0.026708
  12 C :   -0.003154
  13 H :    0.008639
  14 H :    0.029052
  15 H :    0.030201
  16 S :    0.125388
  17 C :   -0.093106
  18 C :   -0.047905
  19 C :    0.006868
  20 C :   -0.195103
  21 H :    0.046127
  22 C :    0.029896
  23 H :    0.031924
  24 H :    0.018159
  25 C :   -0.059389
  26 H :    0.012683
  27 H :    0.035475
  28 C :   -0.058579
  29 H :    0.031098
  30 H :    0.030451
  31 H :    0.037760
  32 H :    0.029514
  33 H :    0.061261
Sum of atomic charges:   -0.0000000

LOEWDIN ATOMIC CHARGES
----------------------
   0 S :    0.395693
   1 C :   -0.197313
   2 C :   -0.070101
   3 C :   -0.065518
   4 C :   -0.188193
   5 H :    0.039981
   6 C :   -0.042002
   7 H :    0.040554
   8 H :    0.027650
   9 C :   -0.039533
  10 H :    0.026526
  11 H :    0.020230
  12 C :   -0.052452
  13 H :    0.015280
  14 H :    0.020308
  15 H :    0.025340
  16 S :    0.460119
  17 C :   -0.195676
  18 C :   -0.079553
  19 C :   -0.056649
  20 C :   -0.222433
  21 H :    0.045573
  22 C :   -0.043940
  23 H :    0.031626
  24 H :    0.035480
  25 C :   -0.033357
  26 H :    0.014177
  27 H :    0.026592
  28 C :   -0.071158
  29 H :    0.025940
  30 H :    0.029254
  31 H :    0.023603
  32 H :    0.026636
  33 H :    0.027316

  Mayer bond orders larger than 0.100000
B(  0-S ,  1-C ) :   1.1406 B(  0-S ,  4-C ) :   1.1253 B(  1-C ,  2-C ) :   1.6055
B(  1-C , 32-H ) :   0.9741 B(  2-C ,  3-C ) :   1.2225 B(  2-C ,  6-C ) :   1.0397
B(  3-C ,  4-C ) :   1.6075 B(  3-C ,  5-H ) :   0.9817 B(  4-C , 20-C ) :   1.0300
B(  6-C ,  7-H ) :   0.9341 B(  6-C ,  8-H ) :   0.9420 B(  6-C ,  9-C ) :   1.0697
B(  9-C , 10-H ) :   0.9569 B(  9-C , 11-H ) :   0.9592 B(  9-C , 12-C ) :   1.0602
B( 12-C , 13-H ) :   0.9776 B( 12-C , 14-H ) :   0.9759 B( 12-C , 15-H ) :   0.9761
B( 16-S , 17-C ) :   1.1940 B( 16-S , 20-C ) :   1.1927 B( 17-C , 18-C ) :   1.5135
B( 17-C , 20-C ) :   0.1133 B( 17-C , 33-H ) :   0.9799 B( 18-C , 19-C ) :   1.3235
B( 18-C , 21-H ) :   0.9734 B( 19-C , 20-C ) :   1.5140 B( 19-C , 22-C ) :   1.0579
B( 22-C , 23-H ) :   0.9323 B( 22-C , 24-H ) :   0.9348 B( 22-C , 25-C ) :   1.0507
B( 25-C , 26-H ) :   0.9564 B( 25-C , 27-H ) :   0.9572 B( 25-C , 28-C ) :   1.0732
B( 28-C , 29-H ) :   0.9754 B( 28-C , 30-H ) :   0.9756 B( 28-C , 31-H ) :   0.9779

Dispersion correction           -0.014717791
FINAL SINGLE POINT ENERGY     -1339.871755930741

DIPOLE MOMENT
-------------
                                X             Y             Z
Electronic contribution:     -9.29104     -12.93826     -10.89408
Nuclear contribution   :      9.30011      13.31717      11.11830
                        -----------------------------------------
Total Dipole Moment    :      0.00907       0.37891       0.22423
                        -----------------------------------------
Magnitude (a.u.)       :      0.44038
Magnitude (Debye)      :      1.11936

Rotational constants in cm-1:     0.018748     0.008638     0.007112
Rotational constants in MHz :   562.037936   258.954230   213.212738

                             ****ORCA TERMINATED NORMALLY****
TOTAL RUN TIME: 0 days 0 hours 0 minutes 20 seconds 432 msec
