                         Program Version 4.2.1 -  RELEASE  -
|  1> ! wB97X-D3 SP def2-SVP
|  2> %pal
|  3> nprocs 24
|  4> end
|  5>
|  6> * xyz 0 1
|  7> S 	 -44.6989 	 -7.1078 	 -17.2221
|  8> C 	 -45.7786 	 -8.46954 	 -16.9805
|  9> C 	 -47.1303 	 -8.1905 	 -17.2233
| 10> C 	 -47.3202 	 -6.76212 	 -17.4323
| 11> C 	 -46.0944 	 -6.04621 	 -17.4318
| 12> H 	 -48.1548 	 -6.13601 	 -17.7172
| 13> C 	 -48.2567 	 -9.13103 	 -17.2379
| 14> H 	 -49.0207 	 -8.60241 	 -16.5998
| 15> H 	 -47.9689 	 -10.0207 	 -16.5968
| 16> C 	 -48.8052 	 -9.45329 	 -18.6114
| 17> H 	 -49.3099 	 -8.5992 	 -19.0207
| 18> H 	 -48.0041 	 -9.68634 	 -19.292
| 19> C 	 -49.811 	 -10.6042 	 -18.547
| 20> H 	 -49.3499 	 -11.6505 	 -18.4901
| 21> H 	 -50.459 	 -10.4081 	 -17.6818
| 22> H 	 -50.3687 	 -10.6792 	 -19.4324
| 23> S 	 -45.269 	 -4.1349 	 -19.4381
| 24> C 	 -45.0719 	 -2.40793 	 -18.9771
| 25> C 	 -45.696 	 -2.25935 	 -17.7653
| 26> C 	 -46.2906 	 -3.407 	 -17.1654
| 27> C 	 -45.9144 	 -4.61809 	 -17.7794
| 28> H 	 -45.7152 	 -1.2187 	 -17.368
| 29> C 	 -47.191 	 -3.32097 	 -15.9985
| 30> H 	 -47.9656 	 -4.10742 	 -16.0171
| 31> H 	 -47.7109 	 -2.3767 	 -16.1116
| 32> C 	 -46.3997 	 -3.2346 	 -14.7273
| 33> H 	 -45.6729 	 -2.37178 	 -14.7038
| 34> H 	 -45.7457 	 -4.06789 	 -14.5723
| 35> C 	 -47.416 	 -3.13373 	 -13.5978
| 36> H 	 -47.8146 	 -4.10688 	 -13.4695
| 37> H 	 -48.2621 	 -2.43734 	 -13.7481
| 38> H 	 -46.8868 	 -2.8534 	 -12.6386
| 39> H 	 -45.3688 	 -9.47089 	 -16.9847
| 40> H 	 -44.6728 	 -1.52917 	 -19.5287
| 41> *
| 42>
| 43>                          ****END OF INPUT****

CARTESIAN COORDINATES (ANGSTROEM)
---------------------------------
  S    -44.698900   -7.107800  -17.222100
  C    -45.778600   -8.469540  -16.980500
  C    -47.130300   -8.190500  -17.223300
  C    -47.320200   -6.762120  -17.432300
  C    -46.094400   -6.046210  -17.431800
  H    -48.154800   -6.136010  -17.717200
  C    -48.256700   -9.131030  -17.237900
  H    -49.020700   -8.602410  -16.599800
  H    -47.968900  -10.020700  -16.596800
  C    -48.805200   -9.453290  -18.611400
  H    -49.309900   -8.599200  -19.020700
  H    -48.004100   -9.686340  -19.292000
  C    -49.811000  -10.604200  -18.547000
  H    -49.349900  -11.650500  -18.490100
  H    -50.459000  -10.408100  -17.681800
  H    -50.368700  -10.679200  -19.432400
  S    -45.269000   -4.134900  -19.438100
  C    -45.071900   -2.407930  -18.977100
  C    -45.696000   -2.259350  -17.765300
  C    -46.290600   -3.407000  -17.165400
  C    -45.914400   -4.618090  -17.779400
  H    -45.715200   -1.218700  -17.368000
  C    -47.191000   -3.320970  -15.998500
  H    -47.965600   -4.107420  -16.017100
  H    -47.710900   -2.376700  -16.111600
  C    -46.399700   -3.234600  -14.727300
  H    -45.672900   -2.371780  -14.703800
  H    -45.745700   -4.067890  -14.572300
  C    -47.416000   -3.133730  -13.597800
  H    -47.814600   -4.106880  -13.469500
  H    -48.262100   -2.437340  -13.748100
  H    -46.886800   -2.853400  -12.638600
  H    -45.368800   -9.470890  -16.984700
  H    -44.672800   -1.529170  -19.528700

 Total Charge           Charge          ....    0
 Multiplicity           Mult            ....    1
 Number of Electrons    NEL             ....  134
 Basis Dimension        Dim             ....  322

ORBITAL ENERGIES
----------------

  NO   OCC          E(Eh)            E(eV)
   0   2.0000     -88.969782     -2420.9908
   1   2.0000     -88.958084     -2420.6725
   2   2.0000     -10.336250      -281.2637
   3   2.0000     -10.333461      -281.1878
   4   2.0000     -10.322365      -280.8858
   5   2.0000     -10.317606      -280.7563
   6   2.0000     -10.308627      -280.5120
   7   2.0000     -10.303542      -280.3736
   8   2.0000     -10.303282      -280.3665
   9   2.0000     -10.297616      -280.2124
  10   2.0000     -10.293506      -280.1005
  11   2.0000     -10.286707      -279.9155
  12   2.0000     -10.285745      -279.8893
  13   2.0000     -10.282466      -279.8001
  14   2.0000     -10.280989      -279.7599
  15   2.0000     -10.275469      -279.6097
  16   2.0000      -8.084007      -219.9770
  17   2.0000      -8.070816      -219.6181
  18   2.0000      -6.042452      -164.4235
  19   2.0000      -6.038626      -164.3194
  20   2.0000      -6.034816      -164.2157
  21   2.0000      -6.029644      -164.0750
  22   2.0000      -6.025761      -163.9693
  23   2.0000      -6.021149      -163.8438
  24   2.0000      -0.995152       -27.0795
  25   2.0000      -0.975734       -26.5511
  26   2.0000      -0.919034       -25.0082
  27   2.0000      -0.915447       -24.9106
  28   2.0000      -0.865615       -23.5546
  29   2.0000      -0.851941       -23.1825
  30   2.0000      -0.841717       -22.9043
  31   2.0000      -0.810985       -22.0680
  32   2.0000      -0.778583       -21.1863
  33   2.0000      -0.764826       -20.8120
  34   2.0000      -0.708933       -19.2911
  35   2.0000      -0.701387       -19.0857
  36   2.0000      -0.694596       -18.9009
  37   2.0000      -0.651734       -17.7346
  38   2.0000      -0.646909       -17.6033
  39   2.0000      -0.612036       -16.6543
  40   2.0000      -0.592042       -16.1103
  41   2.0000      -0.575054       -15.6480
  42   2.0000      -0.565245       -15.3811
  43   2.0000      -0.556929       -15.1548
  44   2.0000      -0.531463       -14.4618
  45   2.0000      -0.527352       -14.3500
  46   2.0000      -0.516299       -14.0492
  47   2.0000      -0.512832       -13.9549
  48   2.0000      -0.505021       -13.7423
  49   2.0000      -0.494827       -13.4649
  50   2.0000      -0.491434       -13.3726
  51   2.0000      -0.471878       -12.8404
  52   2.0000      -0.466798       -12.7022
  53   2.0000      -0.462283       -12.5794
  54   2.0000      -0.457670       -12.4538
  55   2.0000      -0.452239       -12.3060
  56   2.0000      -0.442931       -12.0528
  57   2.0000      -0.442302       -12.0356
  58   2.0000      -0.432787       -11.7767
  59   2.0000      -0.425304       -11.5731
  60   2.0000      -0.418228       -11.3806
  61   2.0000      -0.415543       -11.3075
  62   2.0000      -0.406882       -11.0718
  63   2.0000      -0.336628        -9.1601
  64   2.0000      -0.324702        -8.8356
  65   2.0000      -0.319038        -8.6815
  66   2.0000      -0.298861        -8.1324
  67   0.0000       0.027295         0.7427
  68   0.0000       0.053180         1.4471
  69   0.0000       0.107025         2.9123
  70   0.0000       0.114006         3.1023
  71   0.0000       0.117957         3.2098

MULLIKEN ATOMIC CHARGES
-----------------------
   0 S :    0.122205
   1 C :   -0.110787
   2 C :   -0.089516
   3 C :    0.045095
   4 C :   -0.191870
   5 H :    0.022790
   6 C :    0.019470
   7 H :    0.037701
   8 H :    0.035260
   9 C :   -0.040560
  10 H :    0.025725
  11 H :    0.030187
  12 C :   -0.042395
  13 H :    0.040458
  14 H :    0.033019
  15 H :    0.021737
  16 S :    0.069622
  17 C :   -0.099637
  18 C :   -0.055125
  19 C :   -0.020731
  20 C :   -0.167272
  21 H :    0.029770
  22 C :    0.080361
  23 H :    0.025600
  24 H :    0.017540
  25 C :   -0.084523
  26 H :    0.030748
  27 H :    0.028307
  28 C :   -0.030154
  29 H :    0.023449
  30 H :    0.031255
  31 H :    0.035226
  32 H :    0.053345
  33 H :    0.073699
Sum of atomic charges:   -0.0000000

LOEWDIN ATOMIC CHARGES
----------------------
   0 S :    0.409722
   1 C :   -0.198066
   2 C :   -0.060231
   3 C :   -0.055159
   4 C :   -0.196524
   5 H :    0.033854
   6 C :   -0.045767
   7 H :    0.039786
   8 H :    0.037887
   9 C :   -0.035971
  10 H :    0.025341
  11 H :    0.024986
  12 C :   -0.064341
  13 H :    0.033622
  14 H :    0.027137
  15 H :    0.017329
  16 S :    0.338096
  17 C :   -0.179026
  18 C :   -0.084619
  19 C :   -0.050971
  20 C :   -0.180356
  21 H :    0.036049
  22 C :   -0.033275
  23 H :    0.032076
  24 H :    0.033397
  25 C :   -0.037979
  26 H :    0.027770
  27 H :    0.023715
  28 C :   -0.065964
  29 H :    0.020392
  30 H :    0.024998
  31 H :    0.029766
  32 H :    0.025960
  33 H :    0.046364

  Mayer bond orders larger than 0.100000
B(  0-S ,  1-C ) :   1.1437 B(  0-S ,  4-C ) :   1.1542 B(  1-C ,  2-C ) :   1.6139
B(  1-C , 32-H ) :   0.9639 B(  2-C ,  3-C ) :   1.2093 B(  2-C ,  6-C ) :   1.0355
B(  3-C ,  4-C ) :   1.5869 B(  3-C ,  5-H ) :   0.9850 B(  4-C , 20-C ) :   1.0467
B(  6-C ,  7-H ) :   0.9281 B(  6-C ,  8-H ) :   0.9464 B(  6-C ,  9-C ) :   1.0575
B(  9-C , 10-H ) :   0.9487 B(  9-C , 11-H ) :   0.9572 B(  9-C , 12-C ) :   1.0875
B( 12-C , 13-H ) :   0.9755 B( 12-C , 14-H ) :   0.9721 B( 12-C , 15-H ) :   0.9741
B( 16-S , 17-C ) :   1.1268 B( 16-S , 20-C ) :   1.1070 B( 17-C , 18-C ) :   1.6454
B( 17-C , 20-C ) :   0.1044 B( 17-C , 33-H ) :   0.9605 B( 18-C , 19-C ) :   1.2274
B( 18-C , 21-H ) :   0.9767 B( 19-C , 20-C ) :   1.5873 B( 19-C , 22-C ) :   1.0503
B( 22-C , 23-H ) :   0.9376 B( 22-C , 24-H ) :   0.9216 B( 22-C , 25-C ) :   1.0638
B( 25-C , 26-H ) :   0.9564 B( 25-C , 27-H ) :   0.9546 B( 25-C , 28-C ) :   1.0772
B( 28-C , 29-H ) :   0.9741 B( 28-C , 30-H ) :   0.9735 B( 28-C , 31-H ) :   0.9727

Dispersion correction           -0.013800630
FINAL SINGLE POINT ENERGY     -1339.859607225975

DIPOLE MOMENT
-------------
                                X             Y             Z
Electronic contribution:     19.71956       6.05105     -12.06630
Nuclear contribution   :    -20.30748      -6.06575      12.24518
                        -----------------------------------------
Total Dipole Moment    :     -0.58791      -0.01470       0.17888
                        -----------------------------------------
Magnitude (a.u.)       :      0.61470
Magnitude (Debye)      :      1.56245

Rotational constants in cm-1:     0.018519     0.007622     0.006598
Rotational constants in MHz :   555.194959   228.487351   197.792294

                             ****ORCA TERMINATED NORMALLY****
TOTAL RUN TIME: 0 days 0 hours 0 minutes 21 seconds 214 msec
