                         Program Version 4.2.1 -  RELEASE  -
|  1> ! wB97X-D3 SP def2-SVP
|  2> %pal
|  3> nprocs 24
|  4> end
|  5>
|  6> * xyz 0 1
|  7> S 	 -39.3556 	 -10.6924 	 7.23056
|  8> C 	 -39.2747 	 -11.1736 	 8.96059
|  9> C 	 -38.6105 	 -10.2129 	 9.71065
| 10> C 	 -38.4379 	 -8.97846 	 9.02039
| 11> C 	 -38.9026 	 -9.05526 	 7.7384
| 12> H 	 -38.0349 	 -8.02122 	 9.31746
| 13> C 	 -38.2006 	 -10.3044 	 11.0973
| 14> H 	 -38.2518 	 -11.3731 	 11.4079
| 15> H 	 -38.9372 	 -9.71246 	 11.7756
| 16> C 	 -36.8818 	 -9.70165 	 11.5575
| 17> H 	 -37.0943 	 -8.61498 	 11.5565
| 18> H 	 -36.7307 	 -9.84905 	 12.6405
| 19> C 	 -35.5854 	 -10.3229 	 10.8244
| 20> H 	 -34.6805 	 -9.96439 	 11.2109
| 21> H 	 -35.5886 	 -11.3519 	 11.0583
| 22> H 	 -35.6769 	 -10.038 	 9.79131
| 23> S 	 -38.4983 	 -8.25214 	 5.18297
| 24> C 	 -39.1872 	 -6.74471 	 4.62392
| 25> C 	 -39.7588 	 -6.0553 	 5.67345
| 26> C 	 -39.738 	 -6.80438 	 6.95015
| 27> C 	 -39.0791 	 -7.98403 	 6.79131
| 28> H 	 -40.195 	 -5.06136 	 5.56522
| 29> C 	 -40.5536 	 -6.34475 	 8.19843
| 30> H 	 -40.7603 	 -7.23085 	 8.66239
| 31> H 	 -41.5094 	 -5.87611 	 7.98436
| 32> C 	 -40.0787 	 -5.29389 	 9.19925
| 33> H 	 -39.9965 	 -4.32273 	 8.75258
| 34> H 	 -39.0564 	 -5.65452 	 9.41349
| 35> C 	 -41.0807 	 -5.22791 	 10.3629
| 36> H 	 -40.5744 	 -4.58417 	 11.0834
| 37> H 	 -41.1252 	 -6.2394 	 10.8081
| 38> H 	 -42.0113 	 -4.71294 	 10.1267
| 39> H 	 -39.5164 	 -12.1866 	 9.20508
| 40> H 	 -39.2097 	 -6.26683 	 3.5937
| 41> *
| 42>
| 43>                          ****END OF INPUT****

CARTESIAN COORDINATES (ANGSTROEM)
---------------------------------
  S    -39.355600  -10.692400    7.230560
  C    -39.274700  -11.173600    8.960590
  C    -38.610500  -10.212900    9.710650
  C    -38.437900   -8.978460    9.020390
  C    -38.902600   -9.055260    7.738400
  H    -38.034900   -8.021220    9.317460
  C    -38.200600  -10.304400   11.097300
  H    -38.251800  -11.373100   11.407900
  H    -38.937200   -9.712460   11.775600
  C    -36.881800   -9.701650   11.557500
  H    -37.094300   -8.614980   11.556500
  H    -36.730700   -9.849050   12.640500
  C    -35.585400  -10.322900   10.824400
  H    -34.680500   -9.964390   11.210900
  H    -35.588600  -11.351900   11.058300
  H    -35.676900  -10.038000    9.791310
  S    -38.498300   -8.252140    5.182970
  C    -39.187200   -6.744710    4.623920
  C    -39.758800   -6.055300    5.673450
  C    -39.738000   -6.804380    6.950150
  C    -39.079100   -7.984030    6.791310
  H    -40.195000   -5.061360    5.565220
  C    -40.553600   -6.344750    8.198430
  H    -40.760300   -7.230850    8.662390
  H    -41.509400   -5.876110    7.984360
  C    -40.078700   -5.293890    9.199250
  H    -39.996500   -4.322730    8.752580
  H    -39.056400   -5.654520    9.413490
  C    -41.080700   -5.227910   10.362900
  H    -40.574400   -4.584170   11.083400
  H    -41.125200   -6.239400   10.808100
  H    -42.011300   -4.712940   10.126700
  H    -39.516400  -12.186600    9.205080
  H    -39.209700   -6.266830    3.593700

 Total Charge           Charge          ....    0
 Multiplicity           Mult            ....    1
 Number of Electrons    NEL             ....  134
 Basis Dimension        Dim             ....  322

ORBITAL ENERGIES
----------------

  NO   OCC          E(Eh)            E(eV)
   0   2.0000     -88.965725     -2420.8805
   1   2.0000     -88.963810     -2420.8283
   2   2.0000     -10.327772      -281.0330
   3   2.0000     -10.321176      -280.8535
   4   2.0000     -10.321146      -280.8526
   5   2.0000     -10.317571      -280.7554
   6   2.0000     -10.305676      -280.4317
   7   2.0000     -10.303939      -280.3844
   8   2.0000     -10.295851      -280.1644
   9   2.0000     -10.295337      -280.1503
  10   2.0000     -10.294285      -280.1217
  11   2.0000     -10.293661      -280.1048
  12   2.0000     -10.285929      -279.8943
  13   2.0000     -10.284196      -279.8472
  14   2.0000     -10.281666      -279.7784
  15   2.0000     -10.273832      -279.5652
  16   2.0000      -8.080845      -219.8910
  17   2.0000      -8.077975      -219.8129
  18   2.0000      -6.039571      -164.3451
  19   2.0000      -6.036498      -164.2615
  20   2.0000      -6.035328      -164.2296
  21   2.0000      -6.032897      -164.1635
  22   2.0000      -6.031327      -164.1208
  23   2.0000      -6.028412      -164.0414
  24   2.0000      -1.009038       -27.4573
  25   2.0000      -0.982216       -26.7275
  26   2.0000      -0.913269       -24.8513
  27   2.0000      -0.912417       -24.8281
  28   2.0000      -0.868558       -23.6347
  29   2.0000      -0.851318       -23.1655
  30   2.0000      -0.841653       -22.9025
  31   2.0000      -0.816424       -22.2160
  32   2.0000      -0.784751       -21.3542
  33   2.0000      -0.775396       -21.0996
  34   2.0000      -0.711089       -19.3497
  35   2.0000      -0.698979       -19.0202
  36   2.0000      -0.693453       -18.8698
  37   2.0000      -0.658147       -17.9091
  38   2.0000      -0.642528       -17.4841
  39   2.0000      -0.621478       -16.9113
  40   2.0000      -0.593155       -16.1406
  41   2.0000      -0.577389       -15.7115
  42   2.0000      -0.554163       -15.0795
  43   2.0000      -0.552491       -15.0341
  44   2.0000      -0.543375       -14.7860
  45   2.0000      -0.525255       -14.2929
  46   2.0000      -0.520955       -14.1759
  47   2.0000      -0.513119       -13.9627
  48   2.0000      -0.504985       -13.7413
  49   2.0000      -0.500896       -13.6301
  50   2.0000      -0.491338       -13.3700
  51   2.0000      -0.480040       -13.0626
  52   2.0000      -0.469586       -12.7781
  53   2.0000      -0.464706       -12.6453
  54   2.0000      -0.458459       -12.4753
  55   2.0000      -0.454628       -12.3711
  56   2.0000      -0.448455       -12.2031
  57   2.0000      -0.439850       -11.9689
  58   2.0000      -0.430058       -11.7025
  59   2.0000      -0.424632       -11.5548
  60   2.0000      -0.422169       -11.4878
  61   2.0000      -0.407695       -11.0939
  62   2.0000      -0.404359       -11.0032
  63   2.0000      -0.347060        -9.4440
  64   2.0000      -0.330471        -8.9926
  65   2.0000      -0.327507        -8.9119
  66   2.0000      -0.292590        -7.9618
  67   0.0000       0.029430         0.8008
  68   0.0000       0.066735         1.8160
  69   0.0000       0.101821         2.7707
  70   0.0000       0.114163         3.1065
  71   0.0000       0.122367         3.3298

MULLIKEN ATOMIC CHARGES
-----------------------
   0 S :    0.094195
   1 C :   -0.124538
   2 C :   -0.022006
   3 C :    0.009893
   4 C :   -0.144977
   5 H :    0.014281
   6 C :    0.015142
   7 H :    0.019641
   8 H :    0.051554
   9 C :   -0.119063
  10 H :    0.027780
  11 H :    0.029744
  12 C :   -0.000803
  13 H :    0.020566
  14 H :    0.027128
  15 H :    0.049061
  16 S :    0.108474
  17 C :   -0.105409
  18 C :   -0.039544
  19 C :   -0.013068
  20 C :   -0.163887
  21 H :    0.021429
  22 C :    0.063203
  23 H :    0.005700
  24 H :    0.008708
  25 C :   -0.068889
  26 H :    0.022902
  27 H :    0.016424
  28 C :   -0.047932
  29 H :    0.031937
  30 H :    0.042510
  31 H :    0.047893
  32 H :    0.041904
  33 H :    0.080048
Sum of atomic charges:   -0.0000000

LOEWDIN ATOMIC CHARGES
----------------------
   0 S :    0.368252
   1 C :   -0.173165
   2 C :   -0.063380
   3 C :   -0.062080
   4 C :   -0.170017
   5 H :    0.034616
   6 C :   -0.046878
   7 H :    0.027785
   8 H :    0.047295
   9 C :   -0.048047
  10 H :    0.021724
  11 H :    0.027064
  12 C :   -0.050819
  13 H :    0.018725
  14 H :    0.023988
  15 H :    0.028391
  16 S :    0.404711
  17 C :   -0.202844
  18 C :   -0.068978
  19 C :   -0.053016
  20 C :   -0.207012
  21 H :    0.030569
  22 C :   -0.030799
  23 H :    0.015465
  24 H :    0.029457
  25 C :   -0.037429
  26 H :    0.018574
  27 H :    0.017896
  28 C :   -0.062558
  29 H :    0.029644
  30 H :    0.032495
  31 H :    0.029949
  32 H :    0.020775
  33 H :    0.049646

  Mayer bond orders larger than 0.100000
B(  0-S ,  1-C ) :   1.1124 B(  0-S ,  4-C ) :   1.1359 B(  1-C ,  2-C ) :   1.6176
B(  1-C , 32-H ) :   0.9762 B(  2-C ,  3-C ) :   1.1560 B(  2-C ,  6-C ) :   1.0508
B(  3-C ,  4-C ) :   1.6170 B(  3-C ,  5-H ) :   1.0012 B(  4-C , 20-C ) :   1.0299
B(  6-C ,  7-H ) :   0.9385 B(  6-C ,  8-H ) :   0.9302 B(  6-C ,  9-C ) :   1.0761
B(  9-C , 10-H ) :   0.9526 B(  9-C , 11-H ) :   0.9549 B(  9-C , 12-C ) :   1.0518
B( 12-C , 13-H ) :   0.9775 B( 12-C , 14-H ) :   0.9750 B( 12-C , 15-H ) :   0.9795
B( 16-S , 17-C ) :   1.1219 B( 16-S , 20-C ) :   1.1271 B( 17-C , 18-C ) :   1.6577
B( 17-C , 33-H ) :   0.9579 B( 18-C , 19-C ) :   1.2017 B( 18-C , 21-H ) :   0.9847
B( 19-C , 20-C ) :   1.6383 B( 19-C , 22-C ) :   1.0287 B( 22-C , 23-H ) :   0.9348
B( 22-C , 24-H ) :   0.9415 B( 22-C , 25-C ) :   1.0556 B( 25-C , 26-H ) :   0.9532
B( 25-C , 27-H ) :   0.9537 B( 25-C , 28-C ) :   1.0811 B( 28-C , 29-H ) :   0.9723
B( 28-C , 30-H ) :   0.9739 B( 28-C , 31-H ) :   0.9720

Dispersion correction           -0.014498448
FINAL SINGLE POINT ENERGY     -1339.849861627697

DIPOLE MOMENT
-------------
                                X             Y             Z
Electronic contribution:     -1.88406     -10.35015     -26.26813
Nuclear contribution   :      1.82739      10.76722      26.87413
                        -----------------------------------------
Total Dipole Moment    :     -0.05667       0.41707       0.60600
                        -----------------------------------------
Magnitude (a.u.)       :      0.73783
Magnitude (Debye)      :      1.87542

Rotational constants in cm-1:     0.016262     0.009916     0.007338
Rotational constants in MHz :   487.527401   297.261391   219.991892

                             ****ORCA TERMINATED NORMALLY****
TOTAL RUN TIME: 0 days 0 hours 0 minutes 21 seconds 78 msec
