                         Program Version 4.2.1 -  RELEASE  -
|  1> ! wB97X-D3 SP def2-SVP
|  2> %pal
|  3> nprocs 24
|  4> end
|  5>
|  6> * xyz 0 1
|  7> S 	 -86.5825 	 -29.5288 	 -61.1087
|  8> C 	 -87.4352 	 -28.5247 	 -59.9764
|  9> C 	 -87.4993 	 -29.1852 	 -58.7254
| 10> C 	 -86.9098 	 -30.466 	 -58.8263
| 11> C 	 -86.4246 	 -30.9014 	 -60.0366
| 12> H 	 -86.6778 	 -31.1229 	 -57.9603
| 13> C 	 -87.9931 	 -28.5712 	 -57.3602
| 14> H 	 -87.0963 	 -28.3283 	 -56.8206
| 15> H 	 -88.4743 	 -29.3988 	 -56.8471
| 16> C 	 -88.8236 	 -27.2662 	 -57.498
| 17> H 	 -88.9592 	 -26.8193 	 -56.5275
| 18> H 	 -88.2047 	 -26.6613 	 -58.1472
| 19> C 	 -90.2607 	 -27.3893 	 -58.1306
| 20> H 	 -90.6432 	 -26.3719 	 -58.2043
| 21> H 	 -90.2846 	 -27.8853 	 -59.0694
| 22> H 	 -90.8365 	 -28.0039 	 -57.3709
| 23> S 	 -86.616 	 -33.6275 	 -59.8952
| 24> C 	 -85.303 	 -34.6011 	 -60.4228
| 25> C 	 -84.2678 	 -33.7675 	 -60.8958
| 26> C 	 -84.5477 	 -32.391 	 -60.8554
| 27> C 	 -85.7548 	 -32.168 	 -60.233
| 28> H 	 -83.4073 	 -34.2476 	 -61.23
| 29> C 	 -83.538 	 -31.2963 	 -61.2094
| 30> H 	 -83.9275 	 -30.5111 	 -61.7636
| 31> H 	 -82.8526 	 -31.8338 	 -61.8667
| 32> C 	 -83.0335 	 -30.5558 	 -59.9392
| 33> H 	 -83.8548 	 -30.1103 	 -59.4029
| 34> H 	 -82.2708 	 -29.8228 	 -60.2463
| 35> C 	 -82.3413 	 -31.4885 	 -58.9089
| 36> H 	 -83.121 	 -32.1023 	 -58.4431
| 37> H 	 -81.7256 	 -31.0295 	 -58.1483
| 38> H 	 -81.693 	 -32.2331 	 -59.4143
| 39> H 	 -87.7428 	 -27.5459 	 -60.205
| 40> H 	 -85.1606 	 -35.6919 	 -60.3289
| 41> *
| 42>
| 43>                          ****END OF INPUT****

CARTESIAN COORDINATES (ANGSTROEM)
---------------------------------
  S    -86.582500  -29.528800  -61.108700
  C    -87.435200  -28.524700  -59.976400
  C    -87.499300  -29.185200  -58.725400
  C    -86.909800  -30.466000  -58.826300
  C    -86.424600  -30.901400  -60.036600
  H    -86.677800  -31.122900  -57.960300
  C    -87.993100  -28.571200  -57.360200
  H    -87.096300  -28.328300  -56.820600
  H    -88.474300  -29.398800  -56.847100
  C    -88.823600  -27.266200  -57.498000
  H    -88.959200  -26.819300  -56.527500
  H    -88.204700  -26.661300  -58.147200
  C    -90.260700  -27.389300  -58.130600
  H    -90.643200  -26.371900  -58.204300
  H    -90.284600  -27.885300  -59.069400
  H    -90.836500  -28.003900  -57.370900
  S    -86.616000  -33.627500  -59.895200
  C    -85.303000  -34.601100  -60.422800
  C    -84.267800  -33.767500  -60.895800
  C    -84.547700  -32.391000  -60.855400
  C    -85.754800  -32.168000  -60.233000
  H    -83.407300  -34.247600  -61.230000
  C    -83.538000  -31.296300  -61.209400
  H    -83.927500  -30.511100  -61.763600
  H    -82.852600  -31.833800  -61.866700
  C    -83.033500  -30.555800  -59.939200
  H    -83.854800  -30.110300  -59.402900
  H    -82.270800  -29.822800  -60.246300
  C    -82.341300  -31.488500  -58.908900
  H    -83.121000  -32.102300  -58.443100
  H    -81.725600  -31.029500  -58.148300
  H    -81.693000  -32.233100  -59.414300
  H    -87.742800  -27.545900  -60.205000
  H    -85.160600  -35.691900  -60.328900

 Total Charge           Charge          ....    0
 Multiplicity           Mult            ....    1
 Number of Electrons    NEL             ....  134
 Basis Dimension        Dim             ....  322

ORBITAL ENERGIES
----------------

  NO   OCC          E(Eh)            E(eV)
   0   2.0000     -88.970849     -2421.0199
   1   2.0000     -88.966921     -2420.9130
   2   2.0000     -10.326807      -281.0067
   3   2.0000     -10.321859      -280.8721
   4   2.0000     -10.318829      -280.7896
   5   2.0000     -10.317452      -280.7521
   6   2.0000     -10.307672      -280.4860
   7   2.0000     -10.299411      -280.2612
   8   2.0000     -10.297893      -280.2199
   9   2.0000     -10.291607      -280.0489
  10   2.0000     -10.291184      -280.0374
  11   2.0000     -10.289942      -280.0036
  12   2.0000     -10.288349      -279.9602
  13   2.0000     -10.285668      -279.8873
  14   2.0000     -10.281829      -279.7828
  15   2.0000     -10.270790      -279.4824
  16   2.0000      -8.085945      -220.0297
  17   2.0000      -8.081237      -219.9016
  18   2.0000      -6.044332      -164.4746
  19   2.0000      -6.040244      -164.3634
  20   2.0000      -6.039764      -164.3503
  21   2.0000      -6.036960      -164.2740
  22   2.0000      -6.035590      -164.2368
  23   2.0000      -6.032209      -164.1448
  24   2.0000      -1.012841       -27.5608
  25   2.0000      -0.988781       -26.9061
  26   2.0000      -0.908641       -24.7254
  27   2.0000      -0.904381       -24.6095
  28   2.0000      -0.870084       -23.6762
  29   2.0000      -0.848353       -23.0849
  30   2.0000      -0.843436       -22.9511
  31   2.0000      -0.810575       -22.0569
  32   2.0000      -0.785148       -21.3650
  33   2.0000      -0.777499       -21.1568
  34   2.0000      -0.709722       -19.3125
  35   2.0000      -0.701565       -19.0906
  36   2.0000      -0.687385       -18.7047
  37   2.0000      -0.668028       -18.1780
  38   2.0000      -0.640266       -17.4225
  39   2.0000      -0.610135       -16.6026
  40   2.0000      -0.592513       -16.1231
  41   2.0000      -0.579203       -15.7609
  42   2.0000      -0.555051       -15.1037
  43   2.0000      -0.549283       -14.9468
  44   2.0000      -0.546001       -14.8575
  45   2.0000      -0.536950       -14.6111
  46   2.0000      -0.519482       -14.1358
  47   2.0000      -0.516755       -14.0616
  48   2.0000      -0.503177       -13.6921
  49   2.0000      -0.499634       -13.5957
  50   2.0000      -0.486243       -13.2313
  51   2.0000      -0.479386       -13.0448
  52   2.0000      -0.473906       -12.8956
  53   2.0000      -0.469486       -12.7754
  54   2.0000      -0.461717       -12.5640
  55   2.0000      -0.440295       -11.9810
  56   2.0000      -0.437705       -11.9106
  57   2.0000      -0.434042       -11.8109
  58   2.0000      -0.431305       -11.7364
  59   2.0000      -0.424808       -11.5596
  60   2.0000      -0.423069       -11.5123
  61   2.0000      -0.416597       -11.3362
  62   2.0000      -0.412044       -11.2123
  63   2.0000      -0.346800        -9.4369
  64   2.0000      -0.335765        -9.1366
  65   2.0000      -0.328084        -8.9276
  66   2.0000      -0.292443        -7.9578
  67   0.0000       0.026690         0.7263
  68   0.0000       0.071922         1.9571
  69   0.0000       0.115456         3.1417
  70   0.0000       0.121669         3.3108
  71   0.0000       0.133214         3.6249

MULLIKEN ATOMIC CHARGES
-----------------------
   0 S :    0.110274
   1 C :   -0.136707
   2 C :   -0.078601
   3 C :   -0.030694
   4 C :   -0.132880
   5 H :    0.023274
   6 C :    0.086014
   7 H :    0.041956
   8 H :    0.030290
   9 C :   -0.088943
  10 H :    0.034361
  11 H :    0.022976
  12 C :   -0.058388
  13 H :    0.042715
  14 H :    0.038940
  15 H :    0.039029
  16 S :    0.143610
  17 C :   -0.107850
  18 C :   -0.044980
  19 C :   -0.039308
  20 C :   -0.185391
  21 H :   -0.008985
  22 C :    0.127163
  23 H :    0.009833
  24 H :    0.021663
  25 C :   -0.075252
  26 H :    0.048192
  27 H :    0.037958
  28 C :   -0.069797
  29 H :    0.037162
  30 H :    0.036042
  31 H :    0.018251
  32 H :    0.039377
  33 H :    0.068698
Sum of atomic charges:   -0.0000000

LOEWDIN ATOMIC CHARGES
----------------------
   0 S :    0.420434
   1 C :   -0.198917
   2 C :   -0.062556
   3 C :   -0.078660
   4 C :   -0.203109
   5 H :    0.032554
   6 C :   -0.023746
   7 H :    0.034913
   8 H :    0.028012
   9 C :   -0.038759
  10 H :    0.025669
  11 H :    0.018664
  12 C :   -0.062905
  13 H :    0.027967
  14 H :    0.018687
  15 H :    0.032620
  16 S :    0.448628
  17 C :   -0.208667
  18 C :   -0.065284
  19 C :   -0.056680
  20 C :   -0.209007
  21 H :    0.018541
  22 C :   -0.023527
  23 H :    0.016997
  24 H :    0.031962
  25 C :   -0.030524
  26 H :    0.027062
  27 H :    0.026696
  28 C :   -0.073414
  29 H :    0.025697
  30 H :    0.022368
  31 H :    0.021698
  32 H :    0.017410
  33 H :    0.039175

  Mayer bond orders larger than 0.100000
B(  0-S ,  1-C ) :   1.1648 B(  0-S ,  4-C ) :   1.1419 B(  1-C ,  2-C ) :   1.5468
B(  1-C , 32-H ) :   0.9770 B(  2-C ,  3-C ) :   1.2950 B(  2-C ,  6-C ) :   0.9898
B(  3-C ,  4-C ) :   1.5402 B(  3-C ,  5-H ) :   0.9872 B(  4-C , 20-C ) :   1.0536
B(  6-C ,  7-H ) :   0.9397 B(  6-C ,  8-H ) :   0.9462 B(  6-C ,  9-C ) :   1.0754
B(  9-C , 10-H ) :   0.9577 B(  9-C , 11-H ) :   0.9511 B(  9-C , 12-C ) :   1.0752
B( 12-C , 13-H ) :   0.9760 B( 12-C , 14-H ) :   0.9784 B( 12-C , 15-H ) :   0.9769
B( 16-S , 17-C ) :   1.1715 B( 16-S , 20-C ) :   1.1741 B( 17-C , 18-C ) :   1.5730
B( 17-C , 20-C ) :   0.1093 B( 17-C , 33-H ) :   0.9638 B( 18-C , 19-C ) :   1.2705
B( 18-C , 21-H ) :   0.9996 B( 19-C , 20-C ) :   1.5303 B( 19-C , 22-C ) :   1.0454
B( 22-C , 23-H ) :   0.9246 B( 22-C , 24-H ) :   0.9353 B( 22-C , 25-C ) :   1.0651
B( 25-C , 26-H ) :   0.9555 B( 25-C , 27-H ) :   0.9591 B( 25-C , 28-C ) :   1.0669
B( 28-C , 29-H ) :   0.9736 B( 28-C , 30-H ) :   0.9777 B( 28-C , 31-H ) :   0.9779

Dispersion correction           -0.015585251
FINAL SINGLE POINT ENERGY     -1339.878077714746

DIPOLE MOMENT
-------------
                                X             Y             Z
Electronic contribution:     -3.39020     -13.83911     -11.84774
Nuclear contribution   :      3.65294      14.05505      12.22715
                        -----------------------------------------
Total Dipole Moment    :      0.26274       0.21594       0.37942
                        -----------------------------------------
Magnitude (a.u.)       :      0.50953
Magnitude (Debye)      :      1.29512

Rotational constants in cm-1:     0.024275     0.007810     0.007031
Rotational constants in MHz :   727.739489   234.148774   210.772042

                             ****ORCA TERMINATED NORMALLY****
TOTAL RUN TIME: 0 days 0 hours 0 minutes 23 seconds 315 msec
