                         Program Version 4.2.1 -  RELEASE  -
|  1> ! wB97X-D3 SP def2-SVP
|  2> %pal
|  3> nprocs 24
|  4> end
|  5>
|  6> * xyz 0 1
|  7> S 	 -135.085 	 72.1251 	 -68.521
|  8> C 	 -133.418 	 72.0432 	 -68.9666
|  9> C 	 -132.521 	 71.7684 	 -67.9475
| 10> C 	 -133.303 	 71.6116 	 -66.6735
| 11> C 	 -134.634 	 71.9852 	 -66.7841
| 12> H 	 -132.888 	 71.3525 	 -65.7339
| 13> C 	 -131.025 	 71.518 	 -68.0095
| 14> H 	 -130.803 	 71.2909 	 -69.0722
| 15> H 	 -130.766 	 70.6619 	 -67.4262
| 16> C 	 -130.151 	 72.7464 	 -67.5506
| 17> H 	 -130.538 	 73.1026 	 -66.6047
| 18> H 	 -129.16 	 72.4024 	 -67.4296
| 19> C 	 -130.195 	 73.8579 	 -68.6334
| 20> H 	 -129.378 	 74.4474 	 -68.2937
| 21> H 	 -130.121 	 73.5861 	 -69.6191
| 22> H 	 -131.158 	 74.3908 	 -68.5495
| 23> S 	 -136.977 	 70.9479 	 -65.9996
| 24> C 	 -137.394 	 71.0729 	 -64.2917
| 25> C 	 -136.609 	 71.9712 	 -63.6192
| 26> C 	 -135.514 	 72.4325 	 -64.4116
| 27> C 	 -135.595 	 71.9537 	 -65.7215
| 28> H 	 -136.722 	 72.226 	 -62.5799
| 29> C 	 -134.399 	 73.3522 	 -63.9168
| 30> H 	 -133.534 	 73.4175 	 -64.5848
| 31> H 	 -133.919 	 72.7631 	 -63.107
| 32> C 	 -134.901 	 74.7356 	 -63.3815
| 33> H 	 -134.275 	 75.0157 	 -62.6074
| 34> H 	 -135.88 	 74.7186 	 -63.0027
| 35> C 	 -134.786 	 75.9284 	 -64.3461
| 36> H 	 -133.711 	 76.1565 	 -64.5225
| 37> H 	 -135.37 	 76.8018 	 -63.9998
| 38> H 	 -135.206 	 75.6641 	 -65.3425
| 39> H 	 -132.999 	 72.3132 	 -69.9579
| 40> H 	 -138.159 	 70.5114 	 -63.8265
| 41> *
| 42>
| 43>                          ****END OF INPUT****

CARTESIAN COORDINATES (ANGSTROEM)
---------------------------------
  S    -135.085000   72.125100  -68.521000
  C    -133.418000   72.043200  -68.966600
  C    -132.521000   71.768400  -67.947500
  C    -133.303000   71.611600  -66.673500
  C    -134.634000   71.985200  -66.784100
  H    -132.888000   71.352500  -65.733900
  C    -131.025000   71.518000  -68.009500
  H    -130.803000   71.290900  -69.072200
  H    -130.766000   70.661900  -67.426200
  C    -130.151000   72.746400  -67.550600
  H    -130.538000   73.102600  -66.604700
  H    -129.160000   72.402400  -67.429600
  C    -130.195000   73.857900  -68.633400
  H    -129.378000   74.447400  -68.293700
  H    -130.121000   73.586100  -69.619100
  H    -131.158000   74.390800  -68.549500
  S    -136.977000   70.947900  -65.999600
  C    -137.394000   71.072900  -64.291700
  C    -136.609000   71.971200  -63.619200
  C    -135.514000   72.432500  -64.411600
  C    -135.595000   71.953700  -65.721500
  H    -136.722000   72.226000  -62.579900
  C    -134.399000   73.352200  -63.916800
  H    -133.534000   73.417500  -64.584800
  H    -133.919000   72.763100  -63.107000
  C    -134.901000   74.735600  -63.381500
  H    -134.275000   75.015700  -62.607400
  H    -135.880000   74.718600  -63.002700
  C    -134.786000   75.928400  -64.346100
  H    -133.711000   76.156500  -64.522500
  H    -135.370000   76.801800  -63.999800
  H    -135.206000   75.664100  -65.342500
  H    -132.999000   72.313200  -69.957900
  H    -138.159000   70.511400  -63.826500

 Total Charge           Charge          ....    0
 Multiplicity           Mult            ....    1
 Number of Electrons    NEL             ....  134
 Basis Dimension        Dim             ....  322

ORBITAL ENERGIES
----------------

  NO   OCC          E(Eh)            E(eV)
   0   2.0000     -88.965820     -2420.8830
   1   2.0000     -88.965063     -2420.8624
   2   2.0000     -10.329646      -281.0840
   3   2.0000     -10.321277      -280.8562
   4   2.0000     -10.315862      -280.7089
   5   2.0000     -10.314461      -280.6708
   6   2.0000     -10.305559      -280.4285
   7   2.0000     -10.304595      -280.4023
   8   2.0000     -10.297292      -280.2036
   9   2.0000     -10.295842      -280.1641
  10   2.0000     -10.294668      -280.1322
  11   2.0000     -10.293780      -280.1080
  12   2.0000     -10.287093      -279.9260
  13   2.0000     -10.279189      -279.7110
  14   2.0000     -10.278282      -279.6863
  15   2.0000     -10.269598      -279.4500
  16   2.0000      -8.080264      -219.8752
  17   2.0000      -8.080230      -219.8742
  18   2.0000      -6.038983      -164.3291
  19   2.0000      -6.038725      -164.3221
  20   2.0000      -6.035022      -164.2213
  21   2.0000      -6.034812      -164.2156
  22   2.0000      -6.030910      -164.1094
  23   2.0000      -6.030546      -164.0995
  24   2.0000      -1.005594       -27.3636
  25   2.0000      -0.977533       -26.6000
  26   2.0000      -0.908309       -24.7163
  27   2.0000      -0.904127       -24.6025
  28   2.0000      -0.872259       -23.7354
  29   2.0000      -0.851835       -23.1796
  30   2.0000      -0.842691       -22.9308
  31   2.0000      -0.812189       -22.1008
  32   2.0000      -0.781524       -21.2663
  33   2.0000      -0.770743       -20.9730
  34   2.0000      -0.709665       -19.3110
  35   2.0000      -0.700615       -19.0647
  36   2.0000      -0.696009       -18.9394
  37   2.0000      -0.662275       -18.0214
  38   2.0000      -0.635707       -17.2985
  39   2.0000      -0.616600       -16.7785
  40   2.0000      -0.602051       -16.3827
  41   2.0000      -0.569055       -15.4848
  42   2.0000      -0.549059       -14.9407
  43   2.0000      -0.546963       -14.8836
  44   2.0000      -0.542675       -14.7669
  45   2.0000      -0.538042       -14.6409
  46   2.0000      -0.524353       -14.2684
  47   2.0000      -0.515659       -14.0318
  48   2.0000      -0.496909       -13.5216
  49   2.0000      -0.492073       -13.3900
  50   2.0000      -0.489130       -13.3099
  51   2.0000      -0.477787       -13.0012
  52   2.0000      -0.472578       -12.8595
  53   2.0000      -0.464034       -12.6270
  54   2.0000      -0.454621       -12.3709
  55   2.0000      -0.447838       -12.1863
  56   2.0000      -0.443161       -12.0590
  57   2.0000      -0.441051       -12.0016
  58   2.0000      -0.437060       -11.8930
  59   2.0000      -0.430161       -11.7053
  60   2.0000      -0.424595       -11.5538
  61   2.0000      -0.415200       -11.2982
  62   2.0000      -0.407651       -11.0928
  63   2.0000      -0.354100        -9.6355
  64   2.0000      -0.330715        -8.9992
  65   2.0000      -0.322804        -8.7839
  66   2.0000      -0.285628        -7.7723
  67   0.0000       0.031410         0.8547
  68   0.0000       0.068001         1.8504
  69   0.0000       0.103473         2.8156
  70   0.0000       0.117368         3.1937
  71   0.0000       0.129623         3.5272

MULLIKEN ATOMIC CHARGES
-----------------------
   0 S :    0.101580
   1 C :   -0.109636
   2 C :   -0.117680
   3 C :    0.033915
   4 C :   -0.146730
   5 H :    0.003600
   6 C :    0.057894
   7 H :    0.022308
   8 H :    0.027132
   9 C :   -0.058242
  10 H :    0.027570
  11 H :    0.023703
  12 C :   -0.029426
  13 H :    0.031968
  14 H :    0.014073
  15 H :    0.043974
  16 S :    0.106893
  17 C :   -0.075022
  18 C :   -0.016724
  19 C :   -0.055078
  20 C :   -0.144360
  21 H :    0.016042
  22 C :    0.049499
  23 H :    0.020348
  24 H :    0.029221
  25 C :   -0.010123
  26 H :    0.007952
  27 H :    0.017728
  28 C :   -0.081070
  29 H :    0.035410
  30 H :    0.041412
  31 H :    0.037137
  32 H :    0.051997
  33 H :    0.042737
Sum of atomic charges:    0.0000000

LOEWDIN ATOMIC CHARGES
----------------------
   0 S :    0.380096
   1 C :   -0.210583
   2 C :   -0.060213
   3 C :   -0.052309
   4 C :   -0.178425
   5 H :    0.020637
   6 C :   -0.030515
   7 H :    0.030687
   8 H :    0.027178
   9 C :   -0.024695
  10 H :    0.022771
  11 H :    0.015841
  12 C :   -0.056672
  13 H :    0.026558
  14 H :    0.009904
  15 H :    0.032976
  16 S :    0.405984
  17 C :   -0.169386
  18 C :   -0.065636
  19 C :   -0.054007
  20 C :   -0.206513
  21 H :    0.031517
  22 C :   -0.033103
  23 H :    0.029972
  24 H :    0.036224
  25 C :   -0.032192
  26 H :    0.016322
  27 H :    0.018458
  28 C :   -0.067448
  29 H :    0.025858
  30 H :    0.029279
  31 H :    0.026917
  32 H :    0.033323
  33 H :    0.021196

  Mayer bond orders larger than 0.100000
B(  0-S ,  1-C ) :   1.1234 B(  0-S ,  4-C ) :   1.1094 B(  1-C ,  2-C ) :   1.6708
B(  1-C , 32-H ) :   0.9520 B(  2-C ,  3-C ) :   1.1820 B(  2-C ,  6-C ) :   1.0261
B(  3-C ,  4-C ) :   1.6142 B(  3-C ,  5-H ) :   0.9896 B(  4-C , 20-C ) :   1.0591
B(  6-C ,  7-H ) :   0.9465 B(  6-C ,  8-H ) :   0.9429 B(  6-C ,  9-C ) :   1.0640
B(  9-C , 10-H ) :   0.9583 B(  9-C , 11-H ) :   0.9628 B(  9-C , 12-C ) :   1.0649
B( 12-C , 13-H ) :   0.9766 B( 12-C , 14-H ) :   0.9805 B( 12-C , 15-H ) :   0.9760
B( 16-S , 17-C ) :   1.1485 B( 16-S , 20-C ) :   1.1367 B( 17-C , 18-C ) :   1.6113
B( 17-C , 33-H ) :   0.9743 B( 18-C , 19-C ) :   1.2383 B( 18-C , 21-H ) :   0.9891
B( 19-C , 20-C ) :   1.5985 B( 19-C , 22-C ) :   1.0420 B( 22-C , 23-H ) :   0.9386
B( 22-C , 24-H ) :   0.9329 B( 22-C , 25-C ) :   1.0480 B( 25-C , 26-H ) :   0.9519
B( 25-C , 27-H ) :   0.9630 B( 25-C , 28-C ) :   1.0828 B( 28-C , 29-H ) :   0.9772
B( 28-C , 30-H ) :   0.9739 B( 28-C , 31-H ) :   0.9777

Dispersion correction           -0.014462421
FINAL SINGLE POINT ENERGY     -1339.867680672572

DIPOLE MOMENT
-------------
                                X             Y             Z
Electronic contribution:    -22.16144     -16.27915      -6.69818
Nuclear contribution   :     22.77119      16.38412       7.22316
                        -----------------------------------------
Total Dipole Moment    :      0.60975       0.10497       0.52498
                        -----------------------------------------
Magnitude (a.u.)       :      0.81143
Magnitude (Debye)      :      2.06249

Rotational constants in cm-1:     0.018456     0.009058     0.007052
Rotational constants in MHz :   553.299302   271.550539   211.421120

                             ****ORCA TERMINATED NORMALLY****
TOTAL RUN TIME: 0 days 0 hours 0 minutes 21 seconds 999 msec
