                         Program Version 4.2.1 -  RELEASE  -
|  1> ! wB97X-D3 SP def2-SVP
|  2> %pal
|  3> nprocs 24
|  4> end
|  5>
|  6> * xyz 0 1
|  7> S 	 -95.5949 	 46.681 	 -93.2113
|  8> C 	 -95.1693 	 44.9863 	 -93.0341
|  9> C 	 -96.0471 	 44.4009 	 -92.1327
| 10> C 	 -97.0503 	 45.2275 	 -91.583
| 11> C 	 -96.8687 	 46.5238 	 -91.9872
| 12> H 	 -97.7128 	 45.0418 	 -90.7485
| 13> C 	 -96.0251 	 42.972 	 -91.5773
| 14> H 	 -97.0843 	 42.6982 	 -91.6186
| 15> H 	 -95.8389 	 43.1453 	 -90.5253
| 16> C 	 -95.1554 	 41.8812 	 -92.2437
| 17> H 	 -94.1927 	 42.2693 	 -92.433
| 18> H 	 -94.9388 	 41.0442 	 -91.4739
| 19> C 	 -95.8339 	 41.3121 	 -93.5445
| 20> H 	 -95.4997 	 40.3294 	 -93.7243
| 21> H 	 -96.862 	 41.2228 	 -93.3046
| 22> H 	 -95.7621 	 41.9779 	 -94.3431
| 23> S 	 -97.2204 	 48.9739 	 -90.6539
| 24> C 	 -98.8246 	 49.5111 	 -90.479
| 25> C 	 -99.7634 	 48.8046 	 -91.223
| 26> C 	 -99.124 	 47.7009 	 -91.8507
| 27> C 	 -97.7407 	 47.6125 	 -91.5962
| 28> H 	 -100.793 	 49.1285 	 -91.2144
| 29> C 	 -99.9191 	 46.6688 	 -92.6243
| 30> H 	 -99.2668 	 46.036 	 -93.2297
| 31> H 	 -100.466 	 47.2836 	 -93.3156
| 32> C 	 -100.845 	 45.7758 	 -91.8141
| 33> H 	 -101.485 	 46.3783 	 -91.2348
| 34> H 	 -100.093 	 45.262 	 -91.1341
| 35> C 	 -101.55 	 44.6162 	 -92.6047
| 36> H 	 -102.359 	 44.989 	 -93.1704
| 37> H 	 -101.789 	 43.785 	 -91.9722
| 38> H 	 -100.808 	 44.0736 	 -93.1795
| 39> H 	 -94.3429 	 44.4912 	 -93.5471
| 40> H 	 -99.1485 	 50.377 	 -89.9264
| 41> *
| 42>
| 43>                          ****END OF INPUT****

CARTESIAN COORDINATES (ANGSTROEM)
---------------------------------
  S    -95.594900   46.681000  -93.211300
  C    -95.169300   44.986300  -93.034100
  C    -96.047100   44.400900  -92.132700
  C    -97.050300   45.227500  -91.583000
  C    -96.868700   46.523800  -91.987200
  H    -97.712800   45.041800  -90.748500
  C    -96.025100   42.972000  -91.577300
  H    -97.084300   42.698200  -91.618600
  H    -95.838900   43.145300  -90.525300
  C    -95.155400   41.881200  -92.243700
  H    -94.192700   42.269300  -92.433000
  H    -94.938800   41.044200  -91.473900
  C    -95.833900   41.312100  -93.544500
  H    -95.499700   40.329400  -93.724300
  H    -96.862000   41.222800  -93.304600
  H    -95.762100   41.977900  -94.343100
  S    -97.220400   48.973900  -90.653900
  C    -98.824600   49.511100  -90.479000
  C    -99.763400   48.804600  -91.223000
  C    -99.124000   47.700900  -91.850700
  C    -97.740700   47.612500  -91.596200
  H    -100.793000   49.128500  -91.214400
  C    -99.919100   46.668800  -92.624300
  H    -99.266800   46.036000  -93.229700
  H    -100.466000   47.283600  -93.315600
  C    -100.845000   45.775800  -91.814100
  H    -101.485000   46.378300  -91.234800
  H    -100.093000   45.262000  -91.134100
  C    -101.550000   44.616200  -92.604700
  H    -102.359000   44.989000  -93.170400
  H    -101.789000   43.785000  -91.972200
  H    -100.808000   44.073600  -93.179500
  H    -94.342900   44.491200  -93.547100
  H    -99.148500   50.377000  -89.926400

 Total Charge           Charge          ....    0
 Multiplicity           Mult            ....    1
 Number of Electrons    NEL             ....  134
 Basis Dimension        Dim             ....  322

ORBITAL ENERGIES
----------------

  NO   OCC          E(Eh)            E(eV)
   0   2.0000     -88.969215     -2420.9754
   1   2.0000     -88.964087     -2420.8359
   2   2.0000     -10.327920      -281.0370
   3   2.0000     -10.320853      -280.8447
   4   2.0000     -10.314638      -280.6756
   5   2.0000     -10.313953      -280.6569
   6   2.0000     -10.303161      -280.3633
   7   2.0000     -10.300854      -280.3005
   8   2.0000     -10.293669      -280.1050
   9   2.0000     -10.293073      -280.0888
  10   2.0000     -10.290806      -280.0271
  11   2.0000     -10.289981      -280.0046
  12   2.0000     -10.287202      -279.9290
  13   2.0000     -10.282079      -279.7896
  14   2.0000     -10.275664      -279.6150
  15   2.0000     -10.269810      -279.4557
  16   2.0000      -8.084758      -219.9974
  17   2.0000      -8.078409      -219.8247
  18   2.0000      -6.043019      -164.4389
  19   2.0000      -6.039114      -164.3326
  20   2.0000      -6.036978      -164.2745
  21   2.0000      -6.035781      -164.2419
  22   2.0000      -6.032960      -164.1652
  23   2.0000      -6.029143      -164.0613
  24   2.0000      -1.008685       -27.4477
  25   2.0000      -0.986419       -26.8418
  26   2.0000      -0.908792       -24.7295
  27   2.0000      -0.905918       -24.6513
  28   2.0000      -0.868238       -23.6260
  29   2.0000      -0.853279       -23.2189
  30   2.0000      -0.850482       -23.1428
  31   2.0000      -0.812747       -22.1160
  32   2.0000      -0.785154       -21.3651
  33   2.0000      -0.771359       -20.9898
  34   2.0000      -0.714945       -19.4546
  35   2.0000      -0.703601       -19.1460
  36   2.0000      -0.692863       -18.8538
  37   2.0000      -0.658525       -17.9194
  38   2.0000      -0.642527       -17.4841
  39   2.0000      -0.609411       -16.5829
  40   2.0000      -0.592100       -16.1119
  41   2.0000      -0.572846       -15.5879
  42   2.0000      -0.569548       -15.4982
  43   2.0000      -0.554880       -15.0991
  44   2.0000      -0.539653       -14.6847
  45   2.0000      -0.525580       -14.3018
  46   2.0000      -0.521343       -14.1865
  47   2.0000      -0.511868       -13.9286
  48   2.0000      -0.503261       -13.6944
  49   2.0000      -0.496021       -13.4974
  50   2.0000      -0.488746       -13.2995
  51   2.0000      -0.483208       -13.1488
  52   2.0000      -0.476905       -12.9772
  53   2.0000      -0.466333       -12.6896
  54   2.0000      -0.465024       -12.6540
  55   2.0000      -0.447644       -12.1810
  56   2.0000      -0.441273       -12.0077
  57   2.0000      -0.436367       -11.8742
  58   2.0000      -0.433853       -11.8057
  59   2.0000      -0.430729       -11.7207
  60   2.0000      -0.426352       -11.6016
  61   2.0000      -0.411041       -11.1850
  62   2.0000      -0.407821       -11.0974
  63   2.0000      -0.341407        -9.2902
  64   2.0000      -0.330987        -9.0066
  65   2.0000      -0.325943        -8.8694
  66   2.0000      -0.297447        -8.0939
  67   0.0000       0.038087         1.0364
  68   0.0000       0.064099         1.7442
  69   0.0000       0.116074         3.1585
  70   0.0000       0.122803         3.3416
  71   0.0000       0.130503         3.5512

MULLIKEN ATOMIC CHARGES
-----------------------
   0 S :    0.105848
   1 C :   -0.142110
   2 C :   -0.069830
   3 C :   -0.000918
   4 C :   -0.151486
   5 H :    0.035140
   6 C :    0.026420
   7 H :    0.026356
   8 H :    0.038766
   9 C :   -0.073663
  10 H :    0.017953
  11 H :    0.038064
  12 C :    0.013218
  13 H :    0.027390
  14 H :    0.009526
  15 H :    0.028799
  16 S :    0.140842
  17 C :   -0.091777
  18 C :   -0.043062
  19 C :   -0.034556
  20 C :   -0.185827
  21 H :    0.020989
  22 C :    0.092625
  23 H :    0.022631
  24 H :    0.013835
  25 C :   -0.080353
  26 H :    0.017551
  27 H :    0.015898
  28 C :   -0.002793
  29 H :    0.039875
  30 H :    0.023227
  31 H :    0.016189
  32 H :    0.055515
  33 H :    0.049718
Sum of atomic charges:    0.0000000

LOEWDIN ATOMIC CHARGES
----------------------
   0 S :    0.389280
   1 C :   -0.211826
   2 C :   -0.060117
   3 C :   -0.064874
   4 C :   -0.175701
   5 H :    0.037329
   6 C :   -0.037259
   7 H :    0.029999
   8 H :    0.033976
   9 C :   -0.041036
  10 H :    0.012604
  11 H :    0.035730
  12 C :   -0.047516
  13 H :    0.022810
  14 H :    0.021612
  15 H :    0.019211
  16 S :    0.440654
  17 C :   -0.194959
  18 C :   -0.074827
  19 C :   -0.043309
  20 C :   -0.225399
  21 H :    0.034013
  22 C :   -0.034328
  23 H :    0.028059
  24 H :    0.025011
  25 C :   -0.034457
  26 H :    0.012524
  27 H :    0.027171
  28 C :   -0.060054
  29 H :    0.020568
  30 H :    0.027766
  31 H :    0.028408
  32 H :    0.031904
  33 H :    0.027033

  Mayer bond orders larger than 0.100000
B(  0-S ,  1-C ) :   1.1121 B(  0-S ,  4-C ) :   1.1540 B(  1-C ,  2-C ) :   1.6237
B(  1-C , 32-H ) :   0.9694 B(  2-C ,  3-C ) :   1.2243 B(  2-C ,  6-C ) :   0.9897
B(  3-C ,  4-C ) :   1.5884 B(  3-C ,  5-H ) :   0.9915 B(  4-C , 20-C ) :   1.0403
B(  6-C ,  7-H ) :   0.9474 B(  6-C ,  8-H ) :   0.9418 B(  6-C ,  9-C ) :   1.0686
B(  9-C , 10-H ) :   0.9555 B(  9-C , 11-H ) :   0.9557 B(  9-C , 12-C ) :   1.0628
B( 12-C , 13-H ) :   0.9761 B( 12-C , 14-H ) :   0.9758 B( 12-C , 15-H ) :   0.9797
B( 16-S , 17-C ) :   1.1915 B( 16-S , 20-C ) :   1.1421 B( 17-C , 18-C ) :   1.5847
B( 17-C , 33-H ) :   0.9642 B( 18-C , 19-C ) :   1.2534 B( 18-C , 21-H ) :   0.9964
B( 19-C , 20-C ) :   1.5645 B( 19-C , 22-C ) :   1.0474 B( 22-C , 23-H ) :   0.9276
B( 22-C , 24-H ) :   0.9249 B( 22-C , 25-C ) :   1.0629 B( 25-C , 26-H ) :   0.9593
B( 25-C , 27-H ) :   0.9522 B( 25-C , 28-C ) :   1.0818 B( 28-C , 29-H ) :   0.9792
B( 28-C , 30-H ) :   0.9723 B( 28-C , 31-H ) :   0.9676

Dispersion correction           -0.014726776
FINAL SINGLE POINT ENERGY     -1339.870982808943

DIPOLE MOMENT
-------------
                                X             Y             Z
Electronic contribution:     12.08020      27.44615       3.78155
Nuclear contribution   :    -12.50251     -27.91089      -3.62148
                        -----------------------------------------
Total Dipole Moment    :     -0.42232      -0.46474       0.16007
                        -----------------------------------------
Magnitude (a.u.)       :      0.64804
Magnitude (Debye)      :      1.64719

Rotational constants in cm-1:     0.018985     0.008784     0.006671
Rotational constants in MHz :   569.159797   263.335826   199.978939

                             ****ORCA TERMINATED NORMALLY****
TOTAL RUN TIME: 0 days 0 hours 0 minutes 21 seconds 925 msec
