                         Program Version 4.2.1 -  RELEASE  -
|  1> ! wB97X-D3 SP def2-SVP
|  2> %pal
|  3> nprocs 24
|  4> end
|  5>
|  6> * xyz 0 1
|  7> S 	 -69.7314 	 7.77169 	 -77.3913
|  8> C 	 -69.4078 	 7.30702 	 -79.0713
|  9> C 	 -70.2004 	 6.29266 	 -79.5982
| 10> C 	 -71.1309 	 5.84649 	 -78.5441
| 11> C 	 -71.06 	 6.66737 	 -77.3685
| 12> H 	 -72.0336 	 5.23168 	 -78.7697
| 13> C 	 -70.2221 	 5.87038 	 -81.013
| 14> H 	 -69.2907 	 6.16782 	 -81.4874
| 15> H 	 -70.9354 	 6.54165 	 -81.5364
| 16> C 	 -70.2866 	 4.43356 	 -81.456
| 17> H 	 -70.322 	 4.26908 	 -82.553
| 18> H 	 -69.3347 	 4.1082 	 -81.2288
| 19> C 	 -71.2843 	 3.63062 	 -80.7701
| 20> H 	 -71.2364 	 3.66386 	 -79.6961
| 21> H 	 -72.3525 	 3.91596 	 -81.1725
| 22> H 	 -71.1326 	 2.59294 	 -81.0797
| 23> S 	 -72.0108 	 8.24537 	 -75.2996
| 24> C 	 -73.2366 	 7.63694 	 -74.2852
| 25> C 	 -73.4958 	 6.35606 	 -74.5231
| 26> C 	 -72.8233 	 5.7894 	 -75.6524
| 27> C 	 -72.0474 	 6.73302 	 -76.2886
| 28> H 	 -74.2059 	 5.94394 	 -73.8282
| 29> C 	 -73.1969 	 4.38444 	 -76.1268
| 30> H 	 -73.4489 	 4.46518 	 -77.1733
| 31> H 	 -74.1188 	 4.11168 	 -75.602
| 32> C 	 -72.115 	 3.36138 	 -75.687
| 33> H 	 -72.1978 	 3.35131 	 -74.5672
| 34> H 	 -71.0723 	 3.63761 	 -76.1125
| 35> C 	 -72.424 	 1.96569 	 -76.2149
| 36> H 	 -72.2075 	 1.8464 	 -77.3039
| 37> H 	 -73.4222 	 1.62381 	 -76.1188
| 38> H 	 -71.7443 	 1.23441 	 -75.8012
| 39> H 	 -68.8223 	 7.97846 	 -79.6757
| 40> H 	 -73.6044 	 8.25694 	 -73.4145
| 41> *
| 42>
| 43>                          ****END OF INPUT****

CARTESIAN COORDINATES (ANGSTROEM)
---------------------------------
  S    -69.731400    7.771690  -77.391300
  C    -69.407800    7.307020  -79.071300
  C    -70.200400    6.292660  -79.598200
  C    -71.130900    5.846490  -78.544100
  C    -71.060000    6.667370  -77.368500
  H    -72.033600    5.231680  -78.769700
  C    -70.222100    5.870380  -81.013000
  H    -69.290700    6.167820  -81.487400
  H    -70.935400    6.541650  -81.536400
  C    -70.286600    4.433560  -81.456000
  H    -70.322000    4.269080  -82.553000
  H    -69.334700    4.108200  -81.228800
  C    -71.284300    3.630620  -80.770100
  H    -71.236400    3.663860  -79.696100
  H    -72.352500    3.915960  -81.172500
  H    -71.132600    2.592940  -81.079700
  S    -72.010800    8.245370  -75.299600
  C    -73.236600    7.636940  -74.285200
  C    -73.495800    6.356060  -74.523100
  C    -72.823300    5.789400  -75.652400
  C    -72.047400    6.733020  -76.288600
  H    -74.205900    5.943940  -73.828200
  C    -73.196900    4.384440  -76.126800
  H    -73.448900    4.465180  -77.173300
  H    -74.118800    4.111680  -75.602000
  C    -72.115000    3.361380  -75.687000
  H    -72.197800    3.351310  -74.567200
  H    -71.072300    3.637610  -76.112500
  C    -72.424000    1.965690  -76.214900
  H    -72.207500    1.846400  -77.303900
  H    -73.422200    1.623810  -76.118800
  H    -71.744300    1.234410  -75.801200
  H    -68.822300    7.978460  -79.675700
  H    -73.604400    8.256940  -73.414500

 Total Charge           Charge          ....    0
 Multiplicity           Mult            ....    1
 Number of Electrons    NEL             ....  134
 Basis Dimension        Dim             ....  322

ORBITAL ENERGIES
----------------

  NO   OCC          E(Eh)            E(eV)
   0   2.0000     -88.969091     -2420.9720
   1   2.0000     -88.959477     -2420.7104
   2   2.0000     -10.335914      -281.2545
   3   2.0000     -10.329501      -281.0800
   4   2.0000     -10.312121      -280.6071
   5   2.0000     -10.311793      -280.5982
   6   2.0000     -10.309744      -280.5424
   7   2.0000     -10.304699      -280.4051
   8   2.0000     -10.302640      -280.3491
   9   2.0000     -10.298149      -280.2269
  10   2.0000     -10.294374      -280.1242
  11   2.0000     -10.290057      -280.0067
  12   2.0000     -10.285804      -279.8910
  13   2.0000     -10.278612      -279.6953
  14   2.0000     -10.278222      -279.6846
  15   2.0000     -10.273456      -279.5549
  16   2.0000      -8.083849      -219.9727
  17   2.0000      -8.074928      -219.7300
  18   2.0000      -6.042280      -164.4188
  19   2.0000      -6.038503      -164.3160
  20   2.0000      -6.034549      -164.2084
  21   2.0000      -6.033444      -164.1784
  22   2.0000      -6.029476      -164.0704
  23   2.0000      -6.025500      -163.9622
  24   2.0000      -1.006872       -27.3984
  25   2.0000      -0.982228       -26.7278
  26   2.0000      -0.927544       -25.2397
  27   2.0000      -0.908162       -24.7123
  28   2.0000      -0.873346       -23.7650
  29   2.0000      -0.853559       -23.2265
  30   2.0000      -0.843032       -22.9401
  31   2.0000      -0.814355       -22.1597
  32   2.0000      -0.788649       -21.4602
  33   2.0000      -0.774798       -21.0833
  34   2.0000      -0.705720       -19.2036
  35   2.0000      -0.700256       -19.0549
  36   2.0000      -0.688030       -18.7223
  37   2.0000      -0.659408       -17.9434
  38   2.0000      -0.631547       -17.1853
  39   2.0000      -0.617891       -16.8137
  40   2.0000      -0.593701       -16.1554
  41   2.0000      -0.575271       -15.6539
  42   2.0000      -0.567744       -15.4491
  43   2.0000      -0.552032       -15.0216
  44   2.0000      -0.548440       -14.9238
  45   2.0000      -0.525408       -14.2971
  46   2.0000      -0.518212       -14.1013
  47   2.0000      -0.511009       -13.9053
  48   2.0000      -0.505448       -13.7539
  49   2.0000      -0.494497       -13.4559
  50   2.0000      -0.492601       -13.4043
  51   2.0000      -0.485133       -13.2011
  52   2.0000      -0.474541       -12.9129
  53   2.0000      -0.461317       -12.5531
  54   2.0000      -0.459426       -12.5016
  55   2.0000      -0.451821       -12.2947
  56   2.0000      -0.439643       -11.9633
  57   2.0000      -0.434616       -11.8265
  58   2.0000      -0.427862       -11.6427
  59   2.0000      -0.423421       -11.5219
  60   2.0000      -0.417336       -11.3563
  61   2.0000      -0.413862       -11.2618
  62   2.0000      -0.410100       -11.1594
  63   2.0000      -0.356200        -9.6927
  64   2.0000      -0.332778        -9.0554
  65   2.0000      -0.327571        -8.9137
  66   2.0000      -0.280756        -7.6397
  67   0.0000       0.017754         0.4831
  68   0.0000       0.075983         2.0676
  69   0.0000       0.100375         2.7313
  70   0.0000       0.113389         3.0855
  71   0.0000       0.127851         3.4790

MULLIKEN ATOMIC CHARGES
-----------------------
   0 S :    0.108117
   1 C :   -0.122072
   2 C :   -0.093852
   3 C :   -0.029814
   4 C :   -0.120383
   5 H :    0.041690
   6 C :    0.051153
   7 H :    0.012830
   8 H :    0.046027
   9 C :   -0.023258
  10 H :    0.030986
  11 H :    0.001503
  12 C :   -0.072614
  13 H :    0.044586
  14 H :    0.036787
  15 H :    0.026487
  16 S :    0.066196
  17 C :   -0.100930
  18 C :   -0.029264
  19 C :   -0.034562
  20 C :   -0.129058
  21 H :    0.009891
  22 C :    0.057927
  23 H :    0.034306
  24 H :    0.018016
  25 C :   -0.105203
  26 H :    0.043104
  27 H :    0.063599
  28 C :   -0.025637
  29 H :    0.025120
  30 H :    0.018352
  31 H :    0.028967
  32 H :    0.044374
  33 H :    0.076628
Sum of atomic charges:    0.0000000

LOEWDIN ATOMIC CHARGES
----------------------
   0 S :    0.404486
   1 C :   -0.194967
   2 C :   -0.049091
   3 C :   -0.086498
   4 C :   -0.188139
   5 H :    0.035395
   6 C :   -0.041703
   7 H :    0.035025
   8 H :    0.038791
   9 C :   -0.043959
  10 H :    0.035264
  11 H :    0.016589
  12 C :   -0.070567
  13 H :    0.021608
  14 H :    0.033645
  15 H :    0.026793
  16 S :    0.380135
  17 C :   -0.196649
  18 C :   -0.083248
  19 C :   -0.049944
  20 C :   -0.175914
  21 H :    0.031618
  22 C :   -0.027565
  23 H :    0.026172
  24 H :    0.031189
  25 C :   -0.041487
  26 H :    0.032637
  27 H :    0.040434
  28 C :   -0.073551
  29 H :    0.028515
  30 H :    0.016247
  31 H :    0.025584
  32 H :    0.020165
  33 H :    0.042991

  Mayer bond orders larger than 0.100000
B(  0-S ,  1-C ) :   1.1168 B(  0-S ,  4-C ) :   1.1614 B(  1-C ,  2-C ) :   1.6441
B(  1-C , 32-H ) :   0.9631 B(  2-C ,  3-C ) :   1.2225 B(  2-C ,  6-C ) :   1.0350
B(  3-C ,  4-C ) :   1.5525 B(  3-C ,  5-H ) :   0.9676 B(  4-C , 20-C ) :   1.0892
B(  6-C ,  7-H ) :   0.9369 B(  6-C ,  8-H ) :   0.9265 B(  6-C ,  9-C ) :   1.0607
B(  9-C , 10-H ) :   0.9462 B(  9-C , 11-H ) :   0.9460 B(  9-C , 12-C ) :   1.1169
B( 12-C , 13-H ) :   0.9574 B( 12-C , 14-H ) :   0.9707 B( 12-C , 15-H ) :   0.9647
B( 16-S , 17-C ) :   1.1513 B( 16-S , 20-C ) :   1.1144 B( 17-C , 18-C ) :   1.6495
B( 17-C , 33-H ) :   0.9547 B( 18-C , 19-C ) :   1.2116 B( 18-C , 21-H ) :   0.9938
B( 19-C , 20-C ) :   1.6065 B( 19-C , 22-C ) :   1.0223 B( 22-C , 23-H ) :   0.9473
B( 22-C , 24-H ) :   0.9361 B( 22-C , 25-C ) :   1.0496 B( 25-C , 26-H ) :   0.9528
B( 25-C , 27-H ) :   0.9571 B( 25-C , 28-C ) :   1.0860 B( 28-C , 29-H ) :   0.9721
B( 28-C , 30-H ) :   0.9710 B( 28-C , 31-H ) :   0.9716

Dispersion correction           -0.014577696
FINAL SINGLE POINT ENERGY     -1339.851973645136

DIPOLE MOMENT
-------------
                                X             Y             Z
Electronic contribution:      4.79154      27.37285      14.02224
Nuclear contribution   :     -5.08922     -27.82982     -14.30157
                        -----------------------------------------
Total Dipole Moment    :     -0.29768      -0.45697      -0.27933
                        -----------------------------------------
Magnitude (a.u.)       :      0.61275
Magnitude (Debye)      :      1.55748

Rotational constants in cm-1:     0.017102     0.010321     0.006953
Rotational constants in MHz :   512.701087   309.408449   208.457269

                             ****ORCA TERMINATED NORMALLY****
TOTAL RUN TIME: 0 days 0 hours 0 minutes 22 seconds 333 msec
