                         Program Version 4.2.1 -  RELEASE  -
|  1> ! wB97X-D3 SP def2-SVP
|  2> %pal
|  3> nprocs 24
|  4> end
|  5>
|  6> * xyz 0 1
|  7> S 	 -71.2929 	 0.360484 	 13.0909
|  8> C 	 -72.2413 	 1.6961 	 12.5878
|  9> C 	 -73.2818 	 1.97539 	 13.4384
| 10> C 	 -73.1492 	 1.22074 	 14.6632
| 11> C 	 -72.1198 	 0.253325 	 14.6537
| 12> H 	 -73.6954 	 1.2034 	 15.5811
| 13> C 	 -74.325 	 3.05837 	 13.2001
| 14> H 	 -74.9178 	 3.13144 	 14.1212
| 15> H 	 -75.0527 	 2.65398 	 12.519
| 16> C 	 -73.7513 	 4.3909 	 12.6381
| 17> H 	 -74.0107 	 5.15597 	 13.389
| 18> H 	 -72.6774 	 4.37747 	 12.6271
| 19> C 	 -74.3343 	 4.81911 	 11.2464
| 20> H 	 -74.2546 	 3.9021 	 10.6569
| 21> H 	 -75.4003 	 5.07805 	 11.3308
| 22> H 	 -73.8001 	 5.69529 	 10.8921
| 23> S 	 -72.0821 	 -2.52842 	 14.9914
| 24> C 	 -71.6488 	 -3.11425 	 16.5868
| 25> C 	 -71.4041 	 -2.13631 	 17.5151
| 26> C 	 -71.6031 	 -0.807897 	 16.964
| 27> C 	 -71.8713 	 -0.840868 	 15.5728
| 28> H 	 -71.0711 	 -2.29282 	 18.5171
| 29> C 	 -71.4634 	 0.487338 	 17.7281
| 30> H 	 -71.542 	 0.38069 	 18.808
| 31> H 	 -72.2828 	 1.2377 	 17.489
| 32> C 	 -70.0789 	 1.16282 	 17.4758
| 33> H 	 -69.9011 	 1.00355 	 16.4399
| 34> H 	 -69.1956 	 0.751295 	 18.0015
| 35> C 	 -70.1285 	 2.74805 	 17.8093
| 36> H 	 -70.4015 	 2.93729 	 18.8938
| 37> H 	 -70.7856 	 3.39105 	 17.2229
| 38> H 	 -69.1718 	 3.10647 	 17.7275
| 39> H 	 -72.2572 	 2.18572 	 11.5644
| 40> H 	 -71.4628 	 -4.09587 	 16.8454
| 41> *
| 42>
| 43>                          ****END OF INPUT****

CARTESIAN COORDINATES (ANGSTROEM)
---------------------------------
  S    -71.292900    0.360484   13.090900
  C    -72.241300    1.696100   12.587800
  C    -73.281800    1.975390   13.438400
  C    -73.149200    1.220740   14.663200
  C    -72.119800    0.253325   14.653700
  H    -73.695400    1.203400   15.581100
  C    -74.325000    3.058370   13.200100
  H    -74.917800    3.131440   14.121200
  H    -75.052700    2.653980   12.519000
  C    -73.751300    4.390900   12.638100
  H    -74.010700    5.155970   13.389000
  H    -72.677400    4.377470   12.627100
  C    -74.334300    4.819110   11.246400
  H    -74.254600    3.902100   10.656900
  H    -75.400300    5.078050   11.330800
  H    -73.800100    5.695290   10.892100
  S    -72.082100   -2.528420   14.991400
  C    -71.648800   -3.114250   16.586800
  C    -71.404100   -2.136310   17.515100
  C    -71.603100   -0.807897   16.964000
  C    -71.871300   -0.840868   15.572800
  H    -71.071100   -2.292820   18.517100
  C    -71.463400    0.487338   17.728100
  H    -71.542000    0.380690   18.808000
  H    -72.282800    1.237700   17.489000
  C    -70.078900    1.162820   17.475800
  H    -69.901100    1.003550   16.439900
  H    -69.195600    0.751295   18.001500
  C    -70.128500    2.748050   17.809300
  H    -70.401500    2.937290   18.893800
  H    -70.785600    3.391050   17.222900
  H    -69.171800    3.106470   17.727500
  H    -72.257200    2.185720   11.564400
  H    -71.462800   -4.095870   16.845400

 Total Charge           Charge          ....    0
 Multiplicity           Mult            ....    1
 Number of Electrons    NEL             ....  134
 Basis Dimension        Dim             ....  322

ORBITAL ENERGIES
----------------

  NO   OCC          E(Eh)            E(eV)
   0   2.0000     -88.969224     -2420.9757
   1   2.0000     -88.966559     -2420.9031
   2   2.0000     -10.331090      -281.1233
   3   2.0000     -10.330317      -281.1022
   4   2.0000     -10.314071      -280.6601
   5   2.0000     -10.313084      -280.6333
   6   2.0000     -10.308585      -280.5109
   7   2.0000     -10.302855      -280.3549
   8   2.0000     -10.297881      -280.2196
   9   2.0000     -10.296088      -280.1708
  10   2.0000     -10.294920      -280.1390
  11   2.0000     -10.293731      -280.1067
  12   2.0000     -10.289522      -279.9921
  13   2.0000     -10.288275      -279.9582
  14   2.0000     -10.285572      -279.8846
  15   2.0000     -10.276151      -279.6283
  16   2.0000      -8.082954      -219.9483
  17   2.0000      -8.081318      -219.9039
  18   2.0000      -6.041591      -164.4001
  19   2.0000      -6.039791      -164.3511
  20   2.0000      -6.037689      -164.2939
  21   2.0000      -6.035709      -164.2400
  22   2.0000      -6.033555      -164.1814
  23   2.0000      -6.032220      -164.1450
  24   2.0000      -1.001570       -27.2541
  25   2.0000      -0.979712       -26.6593
  26   2.0000      -0.908639       -24.7253
  27   2.0000      -0.898808       -24.4578
  28   2.0000      -0.867527       -23.6066
  29   2.0000      -0.847380       -23.0584
  30   2.0000      -0.840647       -22.8752
  31   2.0000      -0.812384       -22.1061
  32   2.0000      -0.782311       -21.2878
  33   2.0000      -0.768623       -20.9153
  34   2.0000      -0.708181       -19.2706
  35   2.0000      -0.706066       -19.2130
  36   2.0000      -0.692603       -18.8467
  37   2.0000      -0.663607       -18.0577
  38   2.0000      -0.640988       -17.4422
  39   2.0000      -0.609639       -16.5891
  40   2.0000      -0.597057       -16.2467
  41   2.0000      -0.575707       -15.6658
  42   2.0000      -0.555983       -15.1291
  43   2.0000      -0.549777       -14.9602
  44   2.0000      -0.525879       -14.3099
  45   2.0000      -0.516626       -14.0581
  46   2.0000      -0.514809       -14.0087
  47   2.0000      -0.509588       -13.8666
  48   2.0000      -0.497539       -13.5387
  49   2.0000      -0.494627       -13.4595
  50   2.0000      -0.491384       -13.3712
  51   2.0000      -0.484474       -13.1832
  52   2.0000      -0.474312       -12.9067
  53   2.0000      -0.463310       -12.6073
  54   2.0000      -0.459431       -12.5018
  55   2.0000      -0.446166       -12.1408
  56   2.0000      -0.444319       -12.0905
  57   2.0000      -0.441485       -12.0134
  58   2.0000      -0.432496       -11.7688
  59   2.0000      -0.427286       -11.6271
  60   2.0000      -0.422296       -11.4913
  61   2.0000      -0.416986       -11.3468
  62   2.0000      -0.410930       -11.1820
  63   2.0000      -0.344264        -9.3679
  64   2.0000      -0.330781        -9.0010
  65   2.0000      -0.326532        -8.8854
  66   2.0000      -0.291518        -7.9326
  67   0.0000       0.027699         0.7537
  68   0.0000       0.061790         1.6814
  69   0.0000       0.112733         3.0676
  70   0.0000       0.122701         3.3389
  71   0.0000       0.125416         3.4128

MULLIKEN ATOMIC CHARGES
-----------------------
   0 S :    0.119686
   1 C :   -0.131707
   2 C :   -0.115936
   3 C :    0.054474
   4 C :   -0.198029
   5 H :    0.003946
   6 C :    0.088754
   7 H :    0.022017
   8 H :    0.031165
   9 C :   -0.098719
  10 H :    0.032701
  11 H :    0.038640
  12 C :   -0.057309
  13 H :    0.035532
  14 H :    0.040089
  15 H :    0.045306
  16 S :    0.116695
  17 C :   -0.046025
  18 C :   -0.016051
  19 C :   -0.038602
  20 C :   -0.166064
  21 H :    0.011666
  22 C :    0.046045
  23 H :    0.019119
  24 H :    0.037385
  25 C :   -0.071672
  26 H :    0.031464
  27 H :    0.037494
  28 C :   -0.053053
  29 H :    0.027757
  30 H :    0.039327
  31 H :    0.014224
  32 H :    0.072395
  33 H :    0.027288
Sum of atomic charges:   -0.0000000

LOEWDIN ATOMIC CHARGES
----------------------
   0 S :    0.415789
   1 C :   -0.222296
   2 C :   -0.067368
   3 C :   -0.055704
   4 C :   -0.199226
   5 H :    0.026347
   6 C :   -0.033351
   7 H :    0.033140
   8 H :    0.031639
   9 C :   -0.042754
  10 H :    0.028045
  11 H :    0.021124
  12 C :   -0.062458
  13 H :    0.023297
  14 H :    0.027657
  15 H :    0.028585
  16 S :    0.390724
  17 C :   -0.169726
  18 C :   -0.062496
  19 C :   -0.047782
  20 C :   -0.194874
  21 H :    0.029821
  22 C :   -0.040431
  23 H :    0.027344
  24 H :    0.038329
  25 C :   -0.028584
  26 H :    0.018538
  27 H :    0.028049
  28 C :   -0.065688
  29 H :    0.028515
  30 H :    0.024943
  31 H :    0.011693
  32 H :    0.044362
  33 H :    0.014796

  Mayer bond orders larger than 0.100000
B(  0-S ,  1-C ) :   1.1523 B(  0-S ,  4-C ) :   1.1430 B(  1-C ,  2-C ) :   1.6183
B(  1-C , 32-H ) :   0.9500 B(  2-C ,  3-C ) :   1.2398 B(  2-C ,  6-C ) :   1.0187
B(  3-C ,  4-C ) :   1.5693 B(  3-C ,  5-H ) :   0.9904 B(  4-C , 20-C ) :   1.0634
B(  6-C ,  7-H ) :   0.9436 B(  6-C ,  8-H ) :   0.9400 B(  6-C ,  9-C ) :   1.0305
B(  9-C , 10-H ) :   0.9581 B(  9-C , 11-H ) :   0.9711 B(  9-C , 12-C ) :   1.0686
B( 12-C , 13-H ) :   0.9803 B( 12-C , 14-H ) :   0.9770 B( 12-C , 15-H ) :   0.9746
B( 16-S , 17-C ) :   1.1439 B( 16-S , 20-C ) :   1.1249 B( 17-C , 18-C ) :   1.6264
B( 17-C , 33-H ) :   0.9697 B( 18-C , 19-C ) :   1.2373 B( 18-C , 21-H ) :   0.9903
B( 19-C , 20-C ) :   1.5886 B( 19-C , 22-C ) :   1.0582 B( 22-C , 23-H ) :   0.9320
B( 22-C , 24-H ) :   0.9403 B( 22-C , 25-C ) :   1.0415 B( 25-C , 26-H ) :   0.9644
B( 25-C , 27-H ) :   0.9584 B( 25-C , 28-C ) :   1.0681 B( 28-C , 29-H ) :   0.9766
B( 28-C , 30-H ) :   0.9784 B( 28-C , 31-H ) :   0.9766

Dispersion correction           -0.014328865
FINAL SINGLE POINT ENERGY     -1339.866533248294

DIPOLE MOMENT
-------------
                                X             Y             Z
Electronic contribution:      3.51756     -26.88877      -4.49735
Nuclear contribution   :     -3.73818      27.34188       4.79509
                        -----------------------------------------
Total Dipole Moment    :     -0.22062       0.45311       0.29773
                        -----------------------------------------
Magnitude (a.u.)       :      0.58534
Magnitude (Debye)      :      1.48783

Rotational constants in cm-1:     0.020948     0.007881     0.006435
Rotational constants in MHz :   628.002835   236.276326   192.925066

                             ****ORCA TERMINATED NORMALLY****
TOTAL RUN TIME: 0 days 0 hours 0 minutes 21 seconds 448 msec
