                         Program Version 4.2.1 -  RELEASE  -
|  1> ! wB97X-D3 SP def2-SVP
|  2> %pal
|  3> nprocs 24
|  4> end
|  5>
|  6> * xyz 0 1
|  7> S 	 -99.9769 	 0.0183504 	 -103.414
|  8> C 	 -99.7533 	 -0.255079 	 -105.144
|  9> C 	 -100.995 	 -0.463047 	 -105.709
| 10> C 	 -102.129 	 -0.394955 	 -104.834
| 11> C 	 -101.729 	 -0.133258 	 -103.522
| 12> H 	 -103.152 	 -0.758653 	 -104.928
| 13> C 	 -101.191 	 -1.0161 	 -107.054
| 14> H 	 -100.522 	 -0.463014 	 -107.722
| 15> H 	 -102.255 	 -0.937971 	 -107.29
| 16> C 	 -100.808 	 -2.53866 	 -107.156
| 17> H 	 -99.7302 	 -2.63839 	 -106.765
| 18> H 	 -101.457 	 -3.0602 	 -106.431
| 19> C 	 -100.859 	 -3.33879 	 -108.478
| 20> H 	 -101.588 	 -2.76214 	 -109.068
| 21> H 	 -99.7863 	 -3.46927 	 -108.79
| 22> H 	 -101.253 	 -4.33146 	 -108.363
| 23> S 	 -101.751 	 0.0470235 	 -100.789
| 24> C 	 -103.229 	 0.360222 	 -99.8701
| 25> C 	 -104.179 	 0.786296 	 -100.785
| 26> C 	 -103.773 	 0.699869 	 -102.159
| 27> C 	 -102.475 	 0.261778 	 -102.379
| 28> H 	 -105.151 	 1.14575 	 -100.413
| 29> C 	 -104.808 	 0.957884 	 -103.231
| 30> H 	 -105.782 	 0.930034 	 -102.787
| 31> H 	 -104.892 	 0.107563 	 -103.937
| 32> C 	 -104.693 	 2.1793 	 -104.171
| 33> H 	 -103.619 	 2.37445 	 -104.46
| 34> H 	 -105.061 	 2.96737 	 -103.437
| 35> C 	 -105.5 	 2.09208 	 -105.45
| 36> H 	 -105.604 	 3.04858 	 -106.051
| 37> H 	 -106.535 	 1.62484 	 -105.324
| 38> H 	 -105.092 	 1.34154 	 -106.186
| 39> H 	 -98.8082 	 -0.364178 	 -105.626
| 40> H 	 -103.347 	 0.130507 	 -98.7988
| 41> *
| 42>
| 43>                          ****END OF INPUT****

CARTESIAN COORDINATES (ANGSTROEM)
---------------------------------
  S    -99.976900    0.018350  -103.414000
  C    -99.753300   -0.255079  -105.144000
  C    -100.995000   -0.463047  -105.709000
  C    -102.129000   -0.394955  -104.834000
  C    -101.729000   -0.133258  -103.522000
  H    -103.152000   -0.758653  -104.928000
  C    -101.191000   -1.016100  -107.054000
  H    -100.522000   -0.463014  -107.722000
  H    -102.255000   -0.937971  -107.290000
  C    -100.808000   -2.538660  -107.156000
  H    -99.730200   -2.638390  -106.765000
  H    -101.457000   -3.060200  -106.431000
  C    -100.859000   -3.338790  -108.478000
  H    -101.588000   -2.762140  -109.068000
  H    -99.786300   -3.469270  -108.790000
  H    -101.253000   -4.331460  -108.363000
  S    -101.751000    0.047024  -100.789000
  C    -103.229000    0.360222  -99.870100
  C    -104.179000    0.786296  -100.785000
  C    -103.773000    0.699869  -102.159000
  C    -102.475000    0.261778  -102.379000
  H    -105.151000    1.145750  -100.413000
  C    -104.808000    0.957884  -103.231000
  H    -105.782000    0.930034  -102.787000
  H    -104.892000    0.107563  -103.937000
  C    -104.693000    2.179300  -104.171000
  H    -103.619000    2.374450  -104.460000
  H    -105.061000    2.967370  -103.437000
  C    -105.500000    2.092080  -105.450000
  H    -105.604000    3.048580  -106.051000
  H    -106.535000    1.624840  -105.324000
  H    -105.092000    1.341540  -106.186000
  H    -98.808200   -0.364178  -105.626000
  H    -103.347000    0.130507  -98.798800

 Total Charge           Charge          ....    0
 Multiplicity           Mult            ....    1
 Number of Electrons    NEL             ....  134
 Basis Dimension        Dim             ....  322

ORBITAL ENERGIES
----------------

  NO   OCC          E(Eh)            E(eV)
   0   2.0000     -88.966061     -2420.8896
   1   2.0000     -88.963238     -2420.8128
   2   2.0000     -10.335003      -281.2297
   3   2.0000     -10.330839      -281.1164
   4   2.0000     -10.326858      -281.0081
   5   2.0000     -10.316233      -280.7190
   6   2.0000     -10.308712      -280.5143
   7   2.0000     -10.301825      -280.3269
   8   2.0000     -10.301749      -280.3248
   9   2.0000     -10.298906      -280.2475
  10   2.0000     -10.294518      -280.1281
  11   2.0000     -10.292243      -280.0662
  12   2.0000     -10.291704      -280.0515
  13   2.0000     -10.291406      -280.0434
  14   2.0000     -10.291371      -280.0425
  15   2.0000     -10.283348      -279.8241
  16   2.0000      -8.080596      -219.8842
  17   2.0000      -8.077927      -219.8116
  18   2.0000      -6.039199      -164.3350
  19   2.0000      -6.036599      -164.2642
  20   2.0000      -6.035080      -164.2229
  21   2.0000      -6.032315      -164.1476
  22   2.0000      -6.031298      -164.1200
  23   2.0000      -6.028619      -164.0471
  24   2.0000      -1.010561       -27.4988
  25   2.0000      -0.984855       -26.7993
  26   2.0000      -0.912422       -24.8283
  27   2.0000      -0.906977       -24.6801
  28   2.0000      -0.873068       -23.7574
  29   2.0000      -0.852523       -23.1983
  30   2.0000      -0.844394       -22.9771
  31   2.0000      -0.820410       -22.3245
  32   2.0000      -0.779061       -21.1993
  33   2.0000      -0.771105       -20.9828
  34   2.0000      -0.712081       -19.3767
  35   2.0000      -0.692927       -18.8555
  36   2.0000      -0.688602       -18.7378
  37   2.0000      -0.668165       -18.1817
  38   2.0000      -0.644077       -17.5262
  39   2.0000      -0.617661       -16.8074
  40   2.0000      -0.596387       -16.2285
  41   2.0000      -0.572292       -15.5728
  42   2.0000      -0.563692       -15.3388
  43   2.0000      -0.554862       -15.0986
  44   2.0000      -0.530109       -14.4250
  45   2.0000      -0.524068       -14.2606
  46   2.0000      -0.522303       -14.2126
  47   2.0000      -0.519651       -14.1404
  48   2.0000      -0.509859       -13.8740
  49   2.0000      -0.505215       -13.7476
  50   2.0000      -0.498645       -13.5688
  51   2.0000      -0.483886       -13.1672
  52   2.0000      -0.481945       -13.1144
  53   2.0000      -0.463333       -12.6079
  54   2.0000      -0.453480       -12.3398
  55   2.0000      -0.447527       -12.1778
  56   2.0000      -0.443680       -12.0732
  57   2.0000      -0.430671       -11.7192
  58   2.0000      -0.425072       -11.5668
  59   2.0000      -0.418611       -11.3910
  60   2.0000      -0.411136       -11.1876
  61   2.0000      -0.405261       -11.0277
  62   2.0000      -0.401153       -10.9159
  63   2.0000      -0.363403        -9.8887
  64   2.0000      -0.334604        -9.1050
  65   2.0000      -0.325317        -8.8523
  66   2.0000      -0.283055        -7.7023
  67   0.0000       0.009605         0.2614
  68   0.0000       0.074810         2.0357
  69   0.0000       0.097050         2.6409
  70   0.0000       0.112499         3.0612
  71   0.0000       0.130882         3.5615

MULLIKEN ATOMIC CHARGES
-----------------------
   0 S :    0.088820
   1 C :   -0.103623
   2 C :   -0.071564
   3 C :   -0.014488
   4 C :   -0.116760
   5 H :    0.033474
   6 C :    0.078293
   7 H :    0.027932
   8 H :    0.022589
   9 C :   -0.147436
  10 H :    0.028034
  11 H :    0.027264
  12 C :   -0.023819
  13 H :    0.035502
  14 H :    0.048931
  15 H :    0.033169
  16 S :    0.073152
  17 C :   -0.106015
  18 C :   -0.031785
  19 C :   -0.056170
  20 C :   -0.083390
  21 H :    0.029853
  22 C :    0.029133
  23 H :    0.007650
  24 H :    0.010072
  25 C :   -0.066003
  26 H :    0.056899
  27 H :    0.040256
  28 C :   -0.099113
  29 H :    0.057088
  30 H :    0.032459
  31 H :    0.030041
  32 H :    0.046963
  33 H :    0.082591
Sum of atomic charges:    0.0000000

LOEWDIN ATOMIC CHARGES
----------------------
   0 S :    0.397747
   1 C :   -0.185941
   2 C :   -0.061809
   3 C :   -0.074030
   4 C :   -0.173439
   5 H :    0.037610
   6 C :   -0.035208
   7 H :    0.030625
   8 H :    0.027936
   9 C :   -0.051517
  10 H :    0.024472
  11 H :    0.022077
  12 C :   -0.072686
  13 H :    0.029935
  14 H :    0.036911
  15 H :    0.025218
  16 S :    0.389006
  17 C :   -0.179172
  18 C :   -0.074353
  19 C :   -0.060165
  20 C :   -0.191904
  21 H :    0.035686
  22 C :   -0.039077
  23 H :    0.025062
  24 H :    0.023860
  25 C :   -0.050812
  26 H :    0.035416
  27 H :    0.032529
  28 C :   -0.086996
  29 H :    0.037129
  30 H :    0.028465
  31 H :    0.028035
  32 H :    0.027356
  33 H :    0.042031

  Mayer bond orders larger than 0.100000
B(  0-S ,  1-C ) :   1.1243 B(  0-S ,  4-C ) :   1.1503 B(  1-C ,  2-C ) :   1.5898
B(  1-C ,  4-C ) :   0.1025 B(  1-C , 32-H ) :   0.9784 B(  2-C ,  3-C ) :   1.2364
B(  2-C ,  6-C ) :   1.0501 B(  3-C ,  4-C ) :   1.5657 B(  3-C ,  5-H ) :   0.9804
B(  4-C , 20-C ) :   1.0853 B(  6-C ,  7-H ) :   0.9313 B(  6-C ,  8-H ) :   0.9349
B(  6-C ,  9-C ) :   1.0630 B(  9-C , 10-H ) :   0.9641 B(  9-C , 11-H ) :   0.9590
B(  9-C , 12-C ) :   1.0595 B( 12-C , 13-H ) :   0.9760 B( 12-C , 14-H ) :   0.9800
B( 12-C , 15-H ) :   0.9770 B( 16-S , 17-C ) :   1.1604 B( 16-S , 20-C ) :   1.1156
B( 17-C , 18-C ) :   1.5781 B( 17-C , 33-H ) :   0.9680 B( 18-C , 19-C ) :   1.2639
B( 18-C , 21-H ) :   0.9879 B( 19-C , 20-C ) :   1.5658 B( 19-C , 22-C ) :   1.0456
B( 22-C , 23-H ) :   0.9283 B( 22-C , 24-H ) :   0.9423 B( 22-C , 25-C ) :   1.0398
B( 25-C , 26-H ) :   0.9579 B( 25-C , 27-H ) :   0.9557 B( 25-C , 28-C ) :   1.0747
B( 28-C , 29-H ) :   0.9727 B( 28-C , 30-H ) :   0.9716 B( 28-C , 31-H ) :   0.9681

Dispersion correction           -0.014180266
FINAL SINGLE POINT ENERGY     -1339.855651531499

DIPOLE MOMENT
-------------
                                X             Y             Z
Electronic contribution:     13.24704       3.70509      26.00710
Nuclear contribution   :    -13.75557      -3.94696     -26.32722
                        -----------------------------------------
Total Dipole Moment    :     -0.50852      -0.24187      -0.32012
                        -----------------------------------------
Magnitude (a.u.)       :      0.64774
Magnitude (Debye)      :      1.64644

Rotational constants in cm-1:     0.018686     0.008584     0.006568
Rotational constants in MHz :   560.195600   257.351541   196.913237

                             ****ORCA TERMINATED NORMALLY****
TOTAL RUN TIME: 0 days 0 hours 0 minutes 20 seconds 447 msec
