                         Program Version 4.2.1 -  RELEASE  -
|  1> ! wB97X-D3 SP def2-SVP
|  2> %pal
|  3> nprocs 24
|  4> end
|  5>
|  6> * xyz 0 1
|  7> S 	 -67.3339 	 -58.5468 	 -83.5561
|  8> C 	 -68.1511 	 -59.972 	 -83.0296
|  9> C 	 -67.5381 	 -60.5937 	 -81.9171
| 10> C 	 -66.4015 	 -59.8526 	 -81.5065
| 11> C 	 -66.1954 	 -58.6421 	 -82.156
| 12> H 	 -65.6676 	 -60.1566 	 -80.7967
| 13> C 	 -67.8774 	 -61.9176 	 -81.4042
| 14> H 	 -67.661 	 -62.1005 	 -80.3102
| 15> H 	 -67.3008 	 -62.6156 	 -81.9009
| 16> C 	 -69.3593 	 -62.3457 	 -81.3646
| 17> H 	 -69.6957 	 -62.1764 	 -82.3871
| 18> H 	 -69.5145 	 -63.3885 	 -81.1895
| 19> C 	 -70.1677 	 -61.448 	 -80.4306
| 20> H 	 -70.3436 	 -60.5258 	 -80.9844
| 21> H 	 -71.1662 	 -61.9324 	 -80.3326
| 22> H 	 -69.6985 	 -61.1175 	 -79.5156
| 23> S 	 -64.1544 	 -57.7149 	 -83.7929
| 24> C 	 -62.8132 	 -56.8642 	 -83.047
| 25> C 	 -62.9487 	 -56.7973 	 -81.6577
| 26> C 	 -64.0101 	 -57.5582 	 -81.204
| 27> C 	 -64.9132 	 -57.8763 	 -82.2181
| 28> H 	 -62.2071 	 -56.3254 	 -81.0167
| 29> C 	 -64.4028 	 -57.5659 	 -79.751
| 30> H 	 -65.232 	 -58.274 	 -79.5237
| 31> H 	 -64.6727 	 -56.5957 	 -79.3645
| 32> C 	 -63.3262 	 -58.0577 	 -78.7902
| 33> H 	 -62.4644 	 -57.3687 	 -78.7938
| 34> H 	 -62.8334 	 -58.967 	 -79.0372
| 35> C 	 -63.8029 	 -57.8611 	 -77.3998
| 36> H 	 -64.6911 	 -58.4476 	 -77.1385
| 37> H 	 -64.0905 	 -56.8013 	 -77.2467
| 38> H 	 -63.0511 	 -57.9662 	 -76.6265
| 39> H 	 -69.0337 	 -60.3533 	 -83.5752
| 40> H 	 -62.0464 	 -56.4115 	 -83.6883
| 41> *
| 42>
| 43>                          ****END OF INPUT****

CARTESIAN COORDINATES (ANGSTROEM)
---------------------------------
  S    -67.333900  -58.546800  -83.556100
  C    -68.151100  -59.972000  -83.029600
  C    -67.538100  -60.593700  -81.917100
  C    -66.401500  -59.852600  -81.506500
  C    -66.195400  -58.642100  -82.156000
  H    -65.667600  -60.156600  -80.796700
  C    -67.877400  -61.917600  -81.404200
  H    -67.661000  -62.100500  -80.310200
  H    -67.300800  -62.615600  -81.900900
  C    -69.359300  -62.345700  -81.364600
  H    -69.695700  -62.176400  -82.387100
  H    -69.514500  -63.388500  -81.189500
  C    -70.167700  -61.448000  -80.430600
  H    -70.343600  -60.525800  -80.984400
  H    -71.166200  -61.932400  -80.332600
  H    -69.698500  -61.117500  -79.515600
  S    -64.154400  -57.714900  -83.792900
  C    -62.813200  -56.864200  -83.047000
  C    -62.948700  -56.797300  -81.657700
  C    -64.010100  -57.558200  -81.204000
  C    -64.913200  -57.876300  -82.218100
  H    -62.207100  -56.325400  -81.016700
  C    -64.402800  -57.565900  -79.751000
  H    -65.232000  -58.274000  -79.523700
  H    -64.672700  -56.595700  -79.364500
  C    -63.326200  -58.057700  -78.790200
  H    -62.464400  -57.368700  -78.793800
  H    -62.833400  -58.967000  -79.037200
  C    -63.802900  -57.861100  -77.399800
  H    -64.691100  -58.447600  -77.138500
  H    -64.090500  -56.801300  -77.246700
  H    -63.051100  -57.966200  -76.626500
  H    -69.033700  -60.353300  -83.575200
  H    -62.046400  -56.411500  -83.688300

 Total Charge           Charge          ....    0
 Multiplicity           Mult            ....    1
 Number of Electrons    NEL             ....  134
 Basis Dimension        Dim             ....  322

ORBITAL ENERGIES
----------------

  NO   OCC          E(Eh)            E(eV)
   0   2.0000     -88.969031     -2420.9704
   1   2.0000     -88.966607     -2420.9044
   2   2.0000     -10.334283      -281.2101
   3   2.0000     -10.329164      -281.0709
   4   2.0000     -10.321234      -280.8551
   5   2.0000     -10.319034      -280.7952
   6   2.0000     -10.305154      -280.4175
   7   2.0000     -10.296521      -280.1826
   8   2.0000     -10.296025      -280.1691
   9   2.0000     -10.293822      -280.1091
  10   2.0000     -10.288775      -279.9718
  11   2.0000     -10.286160      -279.9007
  12   2.0000     -10.284737      -279.8619
  13   2.0000     -10.279428      -279.7174
  14   2.0000     -10.276445      -279.6363
  15   2.0000     -10.275990      -279.6239
  16   2.0000      -8.083182      -219.9546
  17   2.0000      -8.081216      -219.9011
  18   2.0000      -6.041655      -164.4018
  19   2.0000      -6.039575      -164.3452
  20   2.0000      -6.037742      -164.2953
  21   2.0000      -6.035778      -164.2419
  22   2.0000      -6.034052      -164.1949
  23   2.0000      -6.032093      -164.1416
  24   2.0000      -1.005763       -27.3682
  25   2.0000      -0.985107       -26.8061
  26   2.0000      -0.919855       -25.0305
  27   2.0000      -0.916941       -24.9512
  28   2.0000      -0.863581       -23.4992
  29   2.0000      -0.859537       -23.3892
  30   2.0000      -0.851763       -23.1777
  31   2.0000      -0.811236       -22.0748
  32   2.0000      -0.781393       -21.2628
  33   2.0000      -0.768551       -20.9133
  34   2.0000      -0.707247       -19.2452
  35   2.0000      -0.702273       -19.1098
  36   2.0000      -0.691861       -18.8265
  37   2.0000      -0.662616       -18.0307
  38   2.0000      -0.640969       -17.4416
  39   2.0000      -0.616835       -16.7849
  40   2.0000      -0.604152       -16.4398
  41   2.0000      -0.579590       -15.7715
  42   2.0000      -0.572600       -15.5813
  43   2.0000      -0.564618       -15.3640
  44   2.0000      -0.536949       -14.6111
  45   2.0000      -0.523595       -14.2477
  46   2.0000      -0.515268       -14.0212
  47   2.0000      -0.510338       -13.8870
  48   2.0000      -0.507600       -13.8125
  49   2.0000      -0.490953       -13.3595
  50   2.0000      -0.487735       -13.2719
  51   2.0000      -0.481139       -13.0925
  52   2.0000      -0.476649       -12.9703
  53   2.0000      -0.465774       -12.6744
  54   2.0000      -0.459600       -12.5063
  55   2.0000      -0.453912       -12.3516
  56   2.0000      -0.443382       -12.0650
  57   2.0000      -0.436856       -11.8875
  58   2.0000      -0.435043       -11.8381
  59   2.0000      -0.432466       -11.7680
  60   2.0000      -0.417845       -11.3701
  61   2.0000      -0.407869       -11.0987
  62   2.0000      -0.404123       -10.9968
  63   2.0000      -0.352922        -9.6035
  64   2.0000      -0.335948        -9.1416
  65   2.0000      -0.327372        -8.9083
  66   2.0000      -0.284065        -7.7298
  67   0.0000       0.021392         0.5821
  68   0.0000       0.064594         1.7577
  69   0.0000       0.104839         2.8528
  70   0.0000       0.119152         3.2423
  71   0.0000       0.126093         3.4312

MULLIKEN ATOMIC CHARGES
-----------------------
   0 S :    0.095150
   1 C :   -0.141055
   2 C :   -0.060710
   3 C :    0.029761
   4 C :   -0.139046
   5 H :    0.015268
   6 C :    0.048414
   7 H :    0.027373
   8 H :    0.028006
   9 C :   -0.073783
  10 H :    0.009759
  11 H :    0.027255
  12 C :   -0.042814
  13 H :    0.027121
  14 H :    0.040593
  15 H :    0.034635
  16 S :    0.104681
  17 C :   -0.114862
  18 C :   -0.014870
  19 C :   -0.006928
  20 C :   -0.127777
  21 H :    0.026330
  22 C :    0.024825
  23 H :    0.023870
  24 H :    0.029428
  25 C :   -0.077511
  26 H :    0.012171
  27 H :    0.022296
  28 C :   -0.039475
  29 H :    0.027656
  30 H :    0.019966
  31 H :    0.027605
  32 H :    0.070121
  33 H :    0.066547
Sum of atomic charges:    0.0000000

LOEWDIN ATOMIC CHARGES
----------------------
   0 S :    0.396811
   1 C :   -0.203421
   2 C :   -0.065342
   3 C :   -0.046814
   4 C :   -0.180233
   5 H :    0.029033
   6 C :   -0.035783
   7 H :    0.035595
   8 H :    0.025573
   9 C :   -0.037596
  10 H :    0.017039
  11 H :    0.020493
  12 C :   -0.066744
  13 H :    0.027631
  14 H :    0.032952
  15 H :    0.023266
  16 S :    0.405402
  17 C :   -0.186762
  18 C :   -0.064353
  19 C :   -0.071286
  20 C :   -0.188879
  21 H :    0.034365
  22 C :   -0.027667
  23 H :    0.031554
  24 H :    0.031592
  25 C :   -0.048227
  26 H :    0.022746
  27 H :    0.018743
  28 C :   -0.065411
  29 H :    0.020916
  30 H :    0.028800
  31 H :    0.024489
  32 H :    0.032090
  33 H :    0.029428

  Mayer bond orders larger than 0.100000
B(  0-S ,  1-C ) :   1.1641 B(  0-S ,  4-C ) :   1.1423 B(  1-C ,  2-C ) :   1.5534
B(  1-C , 32-H ) :   0.9616 B(  2-C ,  3-C ) :   1.2781 B(  2-C ,  6-C ) :   1.0247
B(  3-C ,  4-C ) :   1.5479 B(  3-C ,  5-H ) :   0.9886 B(  4-C , 20-C ) :   1.0350
B(  6-C ,  7-H ) :   0.9494 B(  6-C ,  8-H ) :   0.9316 B(  6-C ,  9-C ) :   1.0733
B(  9-C , 10-H ) :   0.9511 B(  9-C , 11-H ) :   0.9601 B(  9-C , 12-C ) :   1.0714
B( 12-C , 13-H ) :   0.9718 B( 12-C , 14-H ) :   0.9740 B( 12-C , 15-H ) :   0.9784
B( 16-S , 17-C ) :   1.1643 B( 16-S , 20-C ) :   1.1578 B( 17-C , 18-C ) :   1.5701
B( 17-C , 20-C ) :   0.1057 B( 17-C , 33-H ) :   0.9682 B( 18-C , 19-C ) :   1.2663
B( 18-C , 21-H ) :   0.9899 B( 19-C , 20-C ) :   1.5602 B( 19-C , 22-C ) :   1.0509
B( 22-C , 23-H ) :   0.9458 B( 22-C , 24-H ) :   0.9424 B( 22-C , 25-C ) :   1.0469
B( 25-C , 26-H ) :   0.9462 B( 25-C , 27-H ) :   0.9598 B( 25-C , 28-C ) :   1.0849
B( 28-C , 29-H ) :   0.9728 B( 28-C , 30-H ) :   0.9664 B( 28-C , 31-H ) :   0.9710

Dispersion correction           -0.013699405
FINAL SINGLE POINT ENERGY     -1339.859528336089

DIPOLE MOMENT
-------------
                                X             Y             Z
Electronic contribution:      5.87634      10.62398     -25.47876
Nuclear contribution   :     -5.73992     -10.99400      25.87822
                        -----------------------------------------
Total Dipole Moment    :      0.13642      -0.37002       0.39946
                        -----------------------------------------
Magnitude (a.u.)       :      0.56133
Magnitude (Debye)      :      1.42680

Rotational constants in cm-1:     0.018518     0.008518     0.006218
Rotational constants in MHz :   555.155517   255.359320   186.396961

                             ****ORCA TERMINATED NORMALLY****
TOTAL RUN TIME: 0 days 0 hours 0 minutes 21 seconds 360 msec
