                         Program Version 4.2.1 -  RELEASE  -
|  1> ! wB97X-D3 SP def2-SVP
|  2> %pal
|  3> nprocs 24
|  4> end
|  5>
|  6> * xyz 0 1
|  7> S 	 -37.8595 	 -3.67699 	 10.719
|  8> C 	 -38.0219 	 -2.61285 	 12.1837
|  9> C 	 -38.4225 	 -3.28537 	 13.3403
| 10> C 	 -38.4955 	 -4.71196 	 13.0451
| 11> C 	 -38.3318 	 -5.06509 	 11.7082
| 12> H 	 -38.5546 	 -5.49254 	 13.8055
| 13> C 	 -38.5376 	 -2.69053 	 14.8152
| 14> H 	 -39.5825 	 -2.91895 	 15.143
| 15> H 	 -38.4732 	 -1.58251 	 14.7132
| 16> C 	 -37.5282 	 -3.26567 	 15.8095
| 17> H 	 -37.7904 	 -2.74326 	 16.7106
| 18> H 	 -37.6888 	 -4.37559 	 15.9894
| 19> C 	 -36.1258 	 -2.80429 	 15.361
| 20> H 	 -35.8535 	 -3.1384 	 14.3549
| 21> H 	 -36.1842 	 -1.70198 	 15.266
| 22> H 	 -35.3056 	 -3.1645 	 16.0156
| 23> S 	 -36.8791 	 -7.27357 	 10.9353
| 24> C 	 -37.62 	 -8.81184 	 10.5441
| 25> C 	 -38.9657 	 -8.69063 	 10.669
| 26> C 	 -39.3786 	 -7.35626 	 11.031
| 27> C 	 -38.3239 	 -6.47156 	 11.1503
| 28> H 	 -39.5924 	 -9.52915 	 10.5579
| 29> C 	 -40.8093 	 -6.94051 	 11.2192
| 30> H 	 -41.0322 	 -5.95237 	 11.6547
| 31> H 	 -41.1639 	 -7.53486 	 12.0998
| 32> C 	 -41.7899 	 -7.07104 	 9.98801
| 33> H 	 -41.7363 	 -8.1311 	 9.69683
| 34> H 	 -41.425 	 -6.42677 	 9.17366
| 35> C 	 -43.2744 	 -6.81758 	 10.4495
| 36> H 	 -43.5101 	 -7.25932 	 11.3908
| 37> H 	 -43.9723 	 -7.24788 	 9.72823
| 38> H 	 -43.5172 	 -5.7509 	 10.4532
| 39> H 	 -37.9007 	 -1.55212 	 12.2072
| 40> H 	 -37.078 	 -9.78289 	 10.4615
| 41> *
| 42>
| 43>                          ****END OF INPUT****

CARTESIAN COORDINATES (ANGSTROEM)
---------------------------------
  S    -37.859500   -3.676990   10.719000
  C    -38.021900   -2.612850   12.183700
  C    -38.422500   -3.285370   13.340300
  C    -38.495500   -4.711960   13.045100
  C    -38.331800   -5.065090   11.708200
  H    -38.554600   -5.492540   13.805500
  C    -38.537600   -2.690530   14.815200
  H    -39.582500   -2.918950   15.143000
  H    -38.473200   -1.582510   14.713200
  C    -37.528200   -3.265670   15.809500
  H    -37.790400   -2.743260   16.710600
  H    -37.688800   -4.375590   15.989400
  C    -36.125800   -2.804290   15.361000
  H    -35.853500   -3.138400   14.354900
  H    -36.184200   -1.701980   15.266000
  H    -35.305600   -3.164500   16.015600
  S    -36.879100   -7.273570   10.935300
  C    -37.620000   -8.811840   10.544100
  C    -38.965700   -8.690630   10.669000
  C    -39.378600   -7.356260   11.031000
  C    -38.323900   -6.471560   11.150300
  H    -39.592400   -9.529150   10.557900
  C    -40.809300   -6.940510   11.219200
  H    -41.032200   -5.952370   11.654700
  H    -41.163900   -7.534860   12.099800
  C    -41.789900   -7.071040    9.988010
  H    -41.736300   -8.131100    9.696830
  H    -41.425000   -6.426770    9.173660
  C    -43.274400   -6.817580   10.449500
  H    -43.510100   -7.259320   11.390800
  H    -43.972300   -7.247880    9.728230
  H    -43.517200   -5.750900   10.453200
  H    -37.900700   -1.552120   12.207200
  H    -37.078000   -9.782890   10.461500

 Total Charge           Charge          ....    0
 Multiplicity           Mult            ....    1
 Number of Electrons    NEL             ....  134
 Basis Dimension        Dim             ....  322

ORBITAL ENERGIES
----------------

  NO   OCC          E(Eh)            E(eV)
   0   2.0000     -88.969358     -2420.9793
   1   2.0000     -88.960878     -2420.7485
   2   2.0000     -10.336138      -281.2606
   3   2.0000     -10.321089      -280.8511
   4   2.0000     -10.319775      -280.8154
   5   2.0000     -10.317678      -280.7583
   6   2.0000     -10.310135      -280.5530
   7   2.0000     -10.308382      -280.5053
   8   2.0000     -10.300487      -280.2905
   9   2.0000     -10.299584      -280.2659
  10   2.0000     -10.295524      -280.1555
  11   2.0000     -10.291020      -280.0329
  12   2.0000     -10.291001      -280.0324
  13   2.0000     -10.288449      -279.9629
  14   2.0000     -10.281546      -279.7751
  15   2.0000     -10.276867      -279.6478
  16   2.0000      -8.082503      -219.9361
  17   2.0000      -8.077360      -219.7961
  18   2.0000      -6.041197      -164.3893
  19   2.0000      -6.037360      -164.2849
  20   2.0000      -6.035763      -164.2415
  21   2.0000      -6.033036      -164.1673
  22   2.0000      -6.031448      -164.1240
  23   2.0000      -6.028272      -164.0376
  24   2.0000      -1.009547       -27.4712
  25   2.0000      -0.976062       -26.5600
  26   2.0000      -0.909783       -24.7565
  27   2.0000      -0.897273       -24.4160
  28   2.0000      -0.866659       -23.5830
  29   2.0000      -0.843948       -22.9650
  30   2.0000      -0.838381       -22.8135
  31   2.0000      -0.812976       -22.1222
  32   2.0000      -0.778777       -21.1916
  33   2.0000      -0.766907       -20.8686
  34   2.0000      -0.703474       -19.1425
  35   2.0000      -0.696888       -18.9633
  36   2.0000      -0.690325       -18.7847
  37   2.0000      -0.658769       -17.9260
  38   2.0000      -0.635132       -17.2828
  39   2.0000      -0.618082       -16.8189
  40   2.0000      -0.597432       -16.2570
  41   2.0000      -0.567659       -15.4468
  42   2.0000      -0.554558       -15.0903
  43   2.0000      -0.553113       -15.0510
  44   2.0000      -0.538053       -14.6412
  45   2.0000      -0.515981       -14.0406
  46   2.0000      -0.513531       -13.9739
  47   2.0000      -0.511216       -13.9109
  48   2.0000      -0.501903       -13.6575
  49   2.0000      -0.493498       -13.4288
  50   2.0000      -0.482508       -13.1297
  51   2.0000      -0.472340       -12.8530
  52   2.0000      -0.463387       -12.6094
  53   2.0000      -0.460334       -12.5263
  54   2.0000      -0.457116       -12.4387
  55   2.0000      -0.446987       -12.1631
  56   2.0000      -0.445836       -12.1318
  57   2.0000      -0.439833       -11.9685
  58   2.0000      -0.438055       -11.9201
  59   2.0000      -0.429285       -11.6814
  60   2.0000      -0.419595       -11.4177
  61   2.0000      -0.415594       -11.3089
  62   2.0000      -0.400811       -10.9066
  63   2.0000      -0.342274        -9.3138
  64   2.0000      -0.330982        -9.0065
  65   2.0000      -0.318834        -8.6759
  66   2.0000      -0.307614        -8.3706
  67   0.0000       0.043985         1.1969
  68   0.0000       0.062564         1.7025
  69   0.0000       0.108502         2.9525
  70   0.0000       0.122895         3.3442
  71   0.0000       0.127788         3.4773

MULLIKEN ATOMIC CHARGES
-----------------------
   0 S :    0.104774
   1 C :   -0.112264
   2 C :   -0.101663
   3 C :    0.039816
   4 C :   -0.169850
   5 H :    0.018959
   6 C :    0.018186
   7 H :    0.044480
   8 H :    0.031585
   9 C :   -0.058512
  10 H :    0.032420
  11 H :    0.050902
  12 C :   -0.062935
  13 H :    0.045018
  14 H :    0.026378
  15 H :    0.045279
  16 S :    0.109027
  17 C :   -0.112401
  18 C :   -0.006582
  19 C :   -0.028808
  20 C :   -0.138481
  21 H :    0.004499
  22 C :    0.011063
  23 H :    0.026966
  24 H :    0.022690
  25 C :   -0.076247
  26 H :    0.027612
  27 H :    0.049454
  28 C :   -0.047845
  29 H :    0.025587
  30 H :    0.030562
  31 H :    0.038149
  32 H :    0.035658
  33 H :    0.076527
Sum of atomic charges:   -0.0000000

LOEWDIN ATOMIC CHARGES
----------------------
   0 S :    0.372814
   1 C :   -0.178049
   2 C :   -0.060807
   3 C :   -0.060318
   4 C :   -0.185844
   5 H :    0.030771
   6 C :   -0.028247
   7 H :    0.034720
   8 H :    0.031016
   9 C :   -0.044683
  10 H :    0.026020
  11 H :    0.032237
  12 C :   -0.068939
  13 H :    0.027797
  14 H :    0.028442
  15 H :    0.028672
  16 S :    0.439485
  17 C :   -0.192865
  18 C :   -0.065823
  19 C :   -0.062104
  20 C :   -0.233598
  21 H :    0.025079
  22 C :   -0.048276
  23 H :    0.030751
  24 H :    0.032931
  25 C :   -0.034097
  26 H :    0.020538
  27 H :    0.030047
  28 C :   -0.065762
  29 H :    0.020764
  30 H :    0.027125
  31 H :    0.027039
  32 H :    0.020344
  33 H :    0.042820

  Mayer bond orders larger than 0.100000
B(  0-S ,  1-C ) :   1.1227 B(  0-S ,  4-C ) :   1.1344 B(  1-C ,  2-C ) :   1.6559
B(  1-C , 32-H ) :   0.9636 B(  2-C ,  3-C ) :   1.2036 B(  2-C ,  6-C ) :   1.0039
B(  3-C ,  4-C ) :   1.6353 B(  3-C ,  5-H ) :   0.9855 B(  4-C , 20-C ) :   0.9756
B(  6-C ,  7-H ) :   0.9416 B(  6-C ,  8-H ) :   0.9475 B(  6-C ,  9-C ) :   1.0697
B(  9-C , 10-H ) :   0.9524 B(  9-C , 11-H ) :   0.9528 B(  9-C , 12-C ) :   1.0595
B( 12-C , 13-H ) :   0.9771 B( 12-C , 14-H ) :   0.9726 B( 12-C , 15-H ) :   0.9749
B( 16-S , 17-C ) :   1.1645 B( 16-S , 20-C ) :   1.1706 B( 17-C , 18-C ) :   1.5938
B( 17-C , 33-H ) :   0.9629 B( 18-C , 19-C ) :   1.2529 B( 18-C , 21-H ) :   1.0010
B( 19-C , 20-C ) :   1.5902 B( 19-C , 22-C ) :   1.0466 B( 22-C , 23-H ) :   0.9409
B( 22-C , 24-H ) :   0.9309 B( 22-C , 25-C ) :   1.0501 B( 25-C , 26-H ) :   0.9604
B( 25-C , 27-H ) :   0.9597 B( 25-C , 28-C ) :   1.0702 B( 28-C , 29-H ) :   0.9761
B( 28-C , 30-H ) :   0.9764 B( 28-C , 31-H ) :   0.9778

Dispersion correction           -0.014249544
FINAL SINGLE POINT ENERGY     -1339.875826812847

DIPOLE MOMENT
-------------
                                X             Y             Z
Electronic contribution:     14.35389      -3.77614     -13.50974
Nuclear contribution   :    -14.70161       3.66930      14.12976
                        -----------------------------------------
Total Dipole Moment    :     -0.34771      -0.10685       0.62002
                        -----------------------------------------
Magnitude (a.u.)       :      0.71885
Magnitude (Debye)      :      1.82718

Rotational constants in cm-1:     0.018520     0.008018     0.006876
Rotational constants in MHz :   555.225132   240.382419   206.126280

                             ****ORCA TERMINATED NORMALLY****
TOTAL RUN TIME: 0 days 0 hours 0 minutes 21 seconds 223 msec
