                         Program Version 4.2.1 -  RELEASE  -
|  1> ! wB97X-D3 SP def2-SVP
|  2> %pal
|  3> nprocs 24
|  4> end
|  5>
|  6> * xyz 0 1
|  7> S 	 -86.9219 	 5.40727 	 -114.414
|  8> C 	 -86.5624 	 4.34199 	 -113.03
|  9> C 	 -86.9244 	 3.01138 	 -113.249
| 10> C 	 -87.3519 	 2.86975 	 -114.617
| 11> C 	 -87.5814 	 4.06595 	 -115.29
| 12> H 	 -87.5132 	 1.93166 	 -115.091
| 13> C 	 -86.8094 	 1.78331 	 -112.41
| 14> H 	 -85.8512 	 1.78953 	 -111.906
| 15> H 	 -86.8059 	 0.819513 	 -113.1
| 16> C 	 -87.8957 	 1.69187 	 -111.276
| 17> H 	 -87.6458 	 0.823004 	 -110.667
| 18> H 	 -87.7254 	 2.58126 	 -110.685
| 19> C 	 -89.3001 	 1.57085 	 -111.803
| 20> H 	 -89.6605 	 2.45461 	 -112.274
| 21> H 	 -89.3084 	 0.721161 	 -112.523
| 22> H 	 -89.9671 	 1.09348 	 -111.075
| 23> S 	 -86.9649 	 4.74339 	 -117.92
| 24> C 	 -88.214 	 4.79523 	 -119.125
| 25> C 	 -89.4397 	 4.57455 	 -118.572
| 26> C 	 -89.408 	 4.24508 	 -117.159
| 27> C 	 -88.1342 	 4.27439 	 -116.634
| 28> H 	 -90.2778 	 4.63038 	 -119.266
| 29> C 	 -90.6297 	 3.77649 	 -116.319
| 30> H 	 -91.4961 	 4.20894 	 -116.775
| 31> H 	 -90.7747 	 4.1946 	 -115.357
| 32> C 	 -90.7212 	 2.23056 	 -116.093
| 33> H 	 -91.5838 	 1.92344 	 -115.469
| 34> H 	 -89.892 	 1.80352 	 -115.464
| 35> C 	 -90.6416 	 1.46495 	 -117.426
| 36> H 	 -89.8679 	 1.83525 	 -118.056
| 37> H 	 -91.5265 	 1.65914 	 -117.995
| 38> H 	 -90.4712 	 0.418187 	 -117.452
| 39> H 	 -86.2026 	 4.72989 	 -112.09
| 40> H 	 -87.9156 	 4.75509 	 -120.116
| 41> *
| 42>
| 43>                          ****END OF INPUT****

CARTESIAN COORDINATES (ANGSTROEM)
---------------------------------
  S    -86.921900    5.407270  -114.414000
  C    -86.562400    4.341990  -113.030000
  C    -86.924400    3.011380  -113.249000
  C    -87.351900    2.869750  -114.617000
  C    -87.581400    4.065950  -115.290000
  H    -87.513200    1.931660  -115.091000
  C    -86.809400    1.783310  -112.410000
  H    -85.851200    1.789530  -111.906000
  H    -86.805900    0.819513  -113.100000
  C    -87.895700    1.691870  -111.276000
  H    -87.645800    0.823004  -110.667000
  H    -87.725400    2.581260  -110.685000
  C    -89.300100    1.570850  -111.803000
  H    -89.660500    2.454610  -112.274000
  H    -89.308400    0.721161  -112.523000
  H    -89.967100    1.093480  -111.075000
  S    -86.964900    4.743390  -117.920000
  C    -88.214000    4.795230  -119.125000
  C    -89.439700    4.574550  -118.572000
  C    -89.408000    4.245080  -117.159000
  C    -88.134200    4.274390  -116.634000
  H    -90.277800    4.630380  -119.266000
  C    -90.629700    3.776490  -116.319000
  H    -91.496100    4.208940  -116.775000
  H    -90.774700    4.194600  -115.357000
  C    -90.721200    2.230560  -116.093000
  H    -91.583800    1.923440  -115.469000
  H    -89.892000    1.803520  -115.464000
  C    -90.641600    1.464950  -117.426000
  H    -89.867900    1.835250  -118.056000
  H    -91.526500    1.659140  -117.995000
  H    -90.471200    0.418187  -117.452000
  H    -86.202600    4.729890  -112.090000
  H    -87.915600    4.755090  -120.116000

 Total Charge           Charge          ....    0
 Multiplicity           Mult            ....    1
 Number of Electrons    NEL             ....  134
 Basis Dimension        Dim             ....  322

ORBITAL ENERGIES
----------------

  NO   OCC          E(Eh)            E(eV)
   0   2.0000     -88.968229     -2420.9486
   1   2.0000     -88.958180     -2420.6751
   2   2.0000     -10.329348      -281.0759
   3   2.0000     -10.328904      -281.0638
   4   2.0000     -10.318838      -280.7899
   5   2.0000     -10.312626      -280.6208
   6   2.0000     -10.312321      -280.6125
   7   2.0000     -10.304269      -280.3934
   8   2.0000     -10.301952      -280.3304
   9   2.0000     -10.298695      -280.2417
  10   2.0000     -10.292583      -280.0754
  11   2.0000     -10.292105      -280.0624
  12   2.0000     -10.292082      -280.0618
  13   2.0000     -10.288903      -279.9753
  14   2.0000     -10.276499      -279.6378
  15   2.0000     -10.262098      -279.2459
  16   2.0000      -8.082659      -219.9403
  17   2.0000      -8.073228      -219.6837
  18   2.0000      -6.041223      -164.3900
  19   2.0000      -6.037201      -164.2806
  20   2.0000      -6.033383      -164.1767
  21   2.0000      -6.031716      -164.1313
  22   2.0000      -6.027601      -164.0193
  23   2.0000      -6.024077      -163.9235
  24   2.0000      -1.002623       -27.2828
  25   2.0000      -0.981266       -26.7016
  26   2.0000      -0.913384       -24.8544
  27   2.0000      -0.901312       -24.5259
  28   2.0000      -0.867657       -23.6101
  29   2.0000      -0.847945       -23.0738
  30   2.0000      -0.840438       -22.8695
  31   2.0000      -0.812380       -22.1060
  32   2.0000      -0.787099       -21.4180
  33   2.0000      -0.776948       -21.1418
  34   2.0000      -0.707558       -19.2536
  35   2.0000      -0.703638       -19.1470
  36   2.0000      -0.692854       -18.8535
  37   2.0000      -0.662839       -18.0368
  38   2.0000      -0.641629       -17.4596
  39   2.0000      -0.613534       -16.6951
  40   2.0000      -0.596374       -16.2282
  41   2.0000      -0.577465       -15.7136
  42   2.0000      -0.552888       -15.0448
  43   2.0000      -0.546722       -14.8771
  44   2.0000      -0.545812       -14.8523
  45   2.0000      -0.542037       -14.7496
  46   2.0000      -0.514964       -14.0129
  47   2.0000      -0.503743       -13.7075
  48   2.0000      -0.501840       -13.6557
  49   2.0000      -0.495031       -13.4705
  50   2.0000      -0.487103       -13.2547
  51   2.0000      -0.483400       -13.1540
  52   2.0000      -0.469963       -12.7883
  53   2.0000      -0.461316       -12.5530
  54   2.0000      -0.454811       -12.3760
  55   2.0000      -0.446754       -12.1568
  56   2.0000      -0.439117       -11.9490
  57   2.0000      -0.437306       -11.8997
  58   2.0000      -0.433751       -11.8030
  59   2.0000      -0.427699       -11.6383
  60   2.0000      -0.425184       -11.5699
  61   2.0000      -0.415499       -11.3063
  62   2.0000      -0.400971       -10.9110
  63   2.0000      -0.335217        -9.1217
  64   2.0000      -0.331714        -9.0264
  65   2.0000      -0.326686        -8.8896
  66   2.0000      -0.302529        -8.2322
  67   0.0000       0.039149         1.0653
  68   0.0000       0.051360         1.3976
  69   0.0000       0.108579         2.9546
  70   0.0000       0.118879         3.2349
  71   0.0000       0.129387         3.5208

MULLIKEN ATOMIC CHARGES
-----------------------
   0 S :    0.122093
   1 C :   -0.127178
   2 C :   -0.064172
   3 C :    0.045650
   4 C :   -0.162851
   5 H :    0.009391
   6 C :    0.003460
   7 H :    0.031476
   8 H :    0.046568
   9 C :   -0.058024
  10 H :    0.029572
  11 H :    0.027138
  12 C :   -0.036196
  13 H :    0.052553
  14 H :    0.014235
  15 H :    0.031448
  16 S :    0.081091
  17 C :   -0.074455
  18 C :   -0.038332
  19 C :   -0.023581
  20 C :   -0.176489
  21 H :    0.025314
  22 C :    0.120611
  23 H :    0.009606
  24 H :    0.018626
  25 C :   -0.083837
  26 H :    0.031542
  27 H :    0.027840
  28 C :   -0.032360
  29 H :    0.026545
  30 H :    0.012032
  31 H :    0.021325
  32 H :    0.043272
  33 H :    0.046087
Sum of atomic charges:   -0.0000000

LOEWDIN ATOMIC CHARGES
----------------------
   0 S :    0.409334
   1 C :   -0.187837
   2 C :   -0.063619
   3 C :   -0.051705
   4 C :   -0.204372
   5 H :    0.023760
   6 C :   -0.037436
   7 H :    0.030073
   8 H :    0.040305
   9 C :   -0.035768
  10 H :    0.025298
  11 H :    0.021498
  12 C :   -0.069303
  13 H :    0.025115
  14 H :    0.027846
  15 H :    0.031125
  16 S :    0.380641
  17 C :   -0.170728
  18 C :   -0.074201
  19 C :   -0.049589
  20 C :   -0.182939
  21 H :    0.034825
  22 C :   -0.025331
  23 H :    0.027705
  24 H :    0.030575
  25 C :   -0.040469
  26 H :    0.026534
  27 H :    0.026235
  28 C :   -0.070482
  29 H :    0.024000
  30 H :    0.019599
  31 H :    0.020109
  32 H :    0.022109
  33 H :    0.017097

  Mayer bond orders larger than 0.100000
B(  0-S ,  1-C ) :   1.1388 B(  0-S ,  4-C ) :   1.1598 B(  1-C ,  2-C ) :   1.6065
B(  1-C ,  4-C ) :   0.1012 B(  1-C , 32-H ) :   0.9677 B(  2-C ,  3-C ) :   1.2355
B(  2-C ,  6-C ) :   1.0127 B(  3-C ,  4-C ) :   1.5925 B(  3-C ,  5-H ) :   0.9861
B(  4-C , 20-C ) :   1.0126 B(  6-C ,  7-H ) :   0.9377 B(  6-C ,  8-H ) :   0.9496
B(  6-C ,  9-C ) :   1.0694 B(  9-C , 10-H ) :   0.9552 B(  9-C , 11-H ) :   0.9566
B(  9-C , 12-C ) :   1.0806 B( 12-C , 13-H ) :   0.9749 B( 12-C , 14-H ) :   0.9679
B( 12-C , 15-H ) :   0.9695 B( 16-S , 17-C ) :   1.1565 B( 16-S , 20-C ) :   1.1395
B( 17-C , 18-C ) :   1.6214 B( 17-C , 33-H ) :   0.9757 B( 18-C , 19-C ) :   1.2047
B( 18-C , 21-H ) :   0.9930 B( 19-C , 20-C ) :   1.6295 B( 19-C , 22-C ) :   1.0357
B( 22-C , 23-H ) :   0.9353 B( 22-C , 24-H ) :   0.9319 B( 22-C , 25-C ) :   1.0613
B( 25-C , 26-H ) :   0.9569 B( 25-C , 27-H ) :   0.9550 B( 25-C , 28-C ) :   1.0649
B( 28-C , 29-H ) :   0.9711 B( 28-C , 30-H ) :   0.9749 B( 28-C , 31-H ) :   0.9749

Dispersion correction           -0.016040288
FINAL SINGLE POINT ENERGY     -1339.868427419451

DIPOLE MOMENT
-------------
                                X             Y             Z
Electronic contribution:     15.97195      20.82714     -11.33960
Nuclear contribution   :    -16.29994     -21.36042      11.55832
                        -----------------------------------------
Total Dipole Moment    :     -0.32800      -0.53329       0.21872
                        -----------------------------------------
Magnitude (a.u.)       :      0.66319
Magnitude (Debye)      :      1.68568

Rotational constants in cm-1:     0.019871     0.009848     0.007358
Rotational constants in MHz :   595.707799   295.233636   220.576639

                             ****ORCA TERMINATED NORMALLY****
TOTAL RUN TIME: 0 days 0 hours 0 minutes 22 seconds 979 msec
