                         Program Version 4.2.1 -  RELEASE  -
|  1> ! wB97X-D3 SP def2-SVP
|  2> %pal
|  3> nprocs 24
|  4> end
|  5>
|  6> * xyz 0 1
|  7> S 	 -27.7028 	 -35.0779 	 -89.3049
|  8> C 	 -29.0404 	 -35.6859 	 -90.2846
|  9> C 	 -28.5653 	 -36.6519 	 -91.114
| 10> C 	 -27.2008 	 -36.8511 	 -91.0815
| 11> C 	 -26.5421 	 -36.0697 	 -90.1695
| 12> H 	 -26.6657 	 -37.6122 	 -91.6991
| 13> C 	 -29.4383 	 -37.3354 	 -92.1493
| 14> H 	 -28.8011 	 -37.2309 	 -93.0598
| 15> H 	 -30.4104 	 -36.7841 	 -92.2526
| 16> C 	 -29.8205 	 -38.8041 	 -91.9718
| 17> H 	 -30.7836 	 -38.9536 	 -91.4264
| 18> H 	 -29.9254 	 -39.1639 	 -93.0148
| 19> C 	 -28.8402 	 -39.7884 	 -91.2624
| 20> H 	 -27.8879 	 -39.7112 	 -91.7253
| 21> H 	 -28.6523 	 -39.4558 	 -90.2429
| 22> H 	 -29.2468 	 -40.8353 	 -91.3151
| 23> S 	 -24.2832 	 -37.6768 	 -89.9695
| 24> C 	 -22.6843 	 -36.9438 	 -89.776
| 25> C 	 -22.7637 	 -35.6196 	 -89.7246
| 26> C 	 -24.1355 	 -35.1259 	 -89.7845
| 27> C 	 -25.0535 	 -36.1152 	 -89.9861
| 28> H 	 -21.8719 	 -35.0228 	 -89.4316
| 29> C 	 -24.5185 	 -33.6965 	 -89.4714
| 30> H 	 -23.5596 	 -33.2501 	 -89.2304
| 31> H 	 -25.1402 	 -33.8336 	 -88.6061
| 32> C 	 -25.1984 	 -32.8173 	 -90.5982
| 33> H 	 -25.7322 	 -33.3357 	 -91.3663
| 34> H 	 -24.3652 	 -32.3726 	 -91.1584
| 35> C 	 -26.0062 	 -31.5592 	 -90.0538
| 36> H 	 -26.4379 	 -30.9859 	 -90.8487
| 37> H 	 -25.3703 	 -31.0657 	 -89.4198
| 38> H 	 -26.8048 	 -31.9243 	 -89.3766
| 39> H 	 -30.0962 	 -35.537 	 -90.1407
| 40> H 	 -21.7875 	 -37.5581 	 -89.6313
| 41> *
| 42>
| 43>                          ****END OF INPUT****

CARTESIAN COORDINATES (ANGSTROEM)
---------------------------------
  S    -27.702800  -35.077900  -89.304900
  C    -29.040400  -35.685900  -90.284600
  C    -28.565300  -36.651900  -91.114000
  C    -27.200800  -36.851100  -91.081500
  C    -26.542100  -36.069700  -90.169500
  H    -26.665700  -37.612200  -91.699100
  C    -29.438300  -37.335400  -92.149300
  H    -28.801100  -37.230900  -93.059800
  H    -30.410400  -36.784100  -92.252600
  C    -29.820500  -38.804100  -91.971800
  H    -30.783600  -38.953600  -91.426400
  H    -29.925400  -39.163900  -93.014800
  C    -28.840200  -39.788400  -91.262400
  H    -27.887900  -39.711200  -91.725300
  H    -28.652300  -39.455800  -90.242900
  H    -29.246800  -40.835300  -91.315100
  S    -24.283200  -37.676800  -89.969500
  C    -22.684300  -36.943800  -89.776000
  C    -22.763700  -35.619600  -89.724600
  C    -24.135500  -35.125900  -89.784500
  C    -25.053500  -36.115200  -89.986100
  H    -21.871900  -35.022800  -89.431600
  C    -24.518500  -33.696500  -89.471400
  H    -23.559600  -33.250100  -89.230400
  H    -25.140200  -33.833600  -88.606100
  C    -25.198400  -32.817300  -90.598200
  H    -25.732200  -33.335700  -91.366300
  H    -24.365200  -32.372600  -91.158400
  C    -26.006200  -31.559200  -90.053800
  H    -26.437900  -30.985900  -90.848700
  H    -25.370300  -31.065700  -89.419800
  H    -26.804800  -31.924300  -89.376600
  H    -30.096200  -35.537000  -90.140700
  H    -21.787500  -37.558100  -89.631300

 Total Charge           Charge          ....    0
 Multiplicity           Mult            ....    1
 Number of Electrons    NEL             ....  134
 Basis Dimension        Dim             ....  322

ORBITAL ENERGIES
----------------

  NO   OCC          E(Eh)            E(eV)
   0   2.0000     -88.970773     -2421.0178
   1   2.0000     -88.962494     -2420.7925
   2   2.0000     -10.335047      -281.2309
   3   2.0000     -10.326338      -280.9939
   4   2.0000     -10.317226      -280.7460
   5   2.0000     -10.311835      -280.5993
   6   2.0000     -10.301072      -280.3064
   7   2.0000     -10.296456      -280.1808
   8   2.0000     -10.296050      -280.1698
   9   2.0000     -10.292324      -280.0684
  10   2.0000     -10.291823      -280.0547
  11   2.0000     -10.290476      -280.0181
  12   2.0000     -10.289503      -279.9916
  13   2.0000     -10.285224      -279.8752
  14   2.0000     -10.276790      -279.6457
  15   2.0000     -10.269565      -279.4491
  16   2.0000      -8.084349      -219.9863
  17   2.0000      -8.077393      -219.7970
  18   2.0000      -6.043066      -164.4402
  19   2.0000      -6.038926      -164.3275
  20   2.0000      -6.036071      -164.2498
  21   2.0000      -6.035063      -164.2224
  22   2.0000      -6.031970      -164.1382
  23   2.0000      -6.027874      -164.0268
  24   2.0000      -1.010727       -27.5033
  25   2.0000      -0.990988       -26.9662
  26   2.0000      -0.908557       -24.7231
  27   2.0000      -0.898082       -24.4380
  28   2.0000      -0.871290       -23.7090
  29   2.0000      -0.848188       -23.0804
  30   2.0000      -0.843232       -22.9455
  31   2.0000      -0.821277       -22.3481
  32   2.0000      -0.783193       -21.3118
  33   2.0000      -0.770988       -20.9797
  34   2.0000      -0.709856       -19.3162
  35   2.0000      -0.696019       -18.9396
  36   2.0000      -0.693252       -18.8644
  37   2.0000      -0.664905       -18.0930
  38   2.0000      -0.633056       -17.2263
  39   2.0000      -0.612421       -16.6648
  40   2.0000      -0.589766       -16.0484
  41   2.0000      -0.570503       -15.5242
  42   2.0000      -0.558359       -15.1937
  43   2.0000      -0.552748       -15.0410
  44   2.0000      -0.539670       -14.6852
  45   2.0000      -0.528503       -14.3813
  46   2.0000      -0.519092       -14.1252
  47   2.0000      -0.511895       -13.9294
  48   2.0000      -0.502789       -13.6816
  49   2.0000      -0.493484       -13.4284
  50   2.0000      -0.489834       -13.3291
  51   2.0000      -0.484764       -13.1911
  52   2.0000      -0.470430       -12.8011
  53   2.0000      -0.467408       -12.7188
  54   2.0000      -0.463053       -12.6003
  55   2.0000      -0.443572       -12.0702
  56   2.0000      -0.442469       -12.0402
  57   2.0000      -0.437398       -11.9022
  58   2.0000      -0.436303       -11.8724
  59   2.0000      -0.416823       -11.3423
  60   2.0000      -0.415213       -11.2985
  61   2.0000      -0.411890       -11.2081
  62   2.0000      -0.404600       -11.0097
  63   2.0000      -0.356068        -9.6891
  64   2.0000      -0.335188        -9.1209
  65   2.0000      -0.328365        -8.9353
  66   2.0000      -0.294877        -8.0240
  67   0.0000       0.029850         0.8123
  68   0.0000       0.078278         2.1301
  69   0.0000       0.109807         2.9880
  70   0.0000       0.115394         3.1400
  71   0.0000       0.125525         3.4157

MULLIKEN ATOMIC CHARGES
-----------------------
   0 S :    0.104387
   1 C :   -0.117681
   2 C :   -0.073863
   3 C :   -0.027111
   4 C :   -0.108300
   5 H :    0.031569
   6 C :    0.050553
   7 H :    0.039859
   8 H :    0.033262
   9 C :   -0.104648
  10 H :    0.036482
  11 H :    0.033949
  12 C :   -0.054022
  13 H :    0.014723
  14 H :    0.043870
  15 H :    0.051859
  16 S :    0.084089
  17 C :   -0.100693
  18 C :   -0.022341
  19 C :   -0.091806
  20 C :   -0.134826
  21 H :    0.036462
  22 C :    0.068785
  23 H :    0.016382
  24 H :    0.039330
  25 C :   -0.077230
  26 H :    0.037830
  27 H :    0.021320
  28 C :   -0.017754
  29 H :    0.040193
  30 H :    0.010855
  31 H :    0.023916
  32 H :    0.044909
  33 H :    0.065689
Sum of atomic charges:   -0.0000000

LOEWDIN ATOMIC CHARGES
----------------------
   0 S :    0.407106
   1 C :   -0.193355
   2 C :   -0.074484
   3 C :   -0.078253
   4 C :   -0.180592
   5 H :    0.035864
   6 C :   -0.035448
   7 H :    0.038762
   8 H :    0.038434
   9 C :   -0.049272
  10 H :    0.025934
  11 H :    0.028582
  12 C :   -0.068690
  13 H :    0.013985
  14 H :    0.026517
  15 H :    0.036212
  16 S :    0.391532
  17 C :   -0.174143
  18 C :   -0.079526
  19 C :   -0.061183
  20 C :   -0.192187
  21 H :    0.041290
  22 C :   -0.031292
  23 H :    0.030939
  24 H :    0.026350
  25 C :   -0.037663
  26 H :    0.018175
  27 H :    0.024210
  28 C :   -0.054239
  29 H :    0.025973
  30 H :    0.010875
  31 H :    0.023255
  32 H :    0.030988
  33 H :    0.035345

  Mayer bond orders larger than 0.100000
B(  0-S ,  1-C ) :   1.1210 B(  0-S ,  4-C ) :   1.1564 B(  1-C ,  2-C ) :   1.6177
B(  1-C , 32-H ) :   0.9659 B(  2-C ,  3-C ) :   1.2602 B(  2-C ,  6-C ) :   1.0129
B(  3-C ,  4-C ) :   1.5581 B(  3-C ,  5-H ) :   0.9853 B(  4-C , 20-C ) :   1.0217
B(  6-C ,  7-H ) :   0.9413 B(  6-C ,  8-H ) :   0.9448 B(  6-C ,  9-C ) :   1.0629
B(  9-C , 10-H ) :   0.9590 B(  9-C , 11-H ) :   0.9555 B(  9-C , 12-C ) :   1.0964
B( 12-C , 13-H ) :   0.9723 B( 12-C , 14-H ) :   0.9672 B( 12-C , 15-H ) :   0.9733
B( 16-S , 17-C ) :   1.1360 B( 16-S , 20-C ) :   1.1286 B( 17-C , 18-C ) :   1.6540
B( 17-C , 33-H ) :   0.9630 B( 18-C , 19-C ) :   1.2195 B( 18-C , 21-H ) :   0.9786
B( 19-C , 20-C ) :   1.6333 B( 19-C , 22-C ) :   1.0258 B( 22-C , 23-H ) :   0.9302
B( 22-C , 24-H ) :   0.9484 B( 22-C , 25-C ) :   1.0380 B( 25-C , 26-H ) :   0.9717
B( 25-C , 27-H ) :   0.9549 B( 25-C , 28-C ) :   1.0700 B( 28-C , 29-H ) :   0.9760
B( 28-C , 30-H ) :   0.9757 B( 28-C , 31-H ) :   0.9774

Dispersion correction           -0.015107925
FINAL SINGLE POINT ENERGY     -1339.873583625598

DIPOLE MOMENT
-------------
                                X             Y             Z
Electronic contribution:      8.88592      -3.79314       7.59359
Nuclear contribution   :     -8.86829       3.82330      -7.72775
                        -----------------------------------------
Total Dipole Moment    :      0.01762       0.03016      -0.13416
                        -----------------------------------------
Magnitude (a.u.)       :      0.13863
Magnitude (Debye)      :      0.35238

Rotational constants in cm-1:     0.018660     0.009895     0.006976
Rotational constants in MHz :   559.418424   296.640631   209.127570

                             ****ORCA TERMINATED NORMALLY****
TOTAL RUN TIME: 0 days 0 hours 0 minutes 22 seconds 12 msec
