                         Program Version 4.2.1 -  RELEASE  -
|  1> ! wB97X-D3 SP def2-SVP
|  2> %pal
|  3> nprocs 24
|  4> end
|  5>
|  6> * xyz 0 1
|  7> S 	 -48.4718 	 13.9269 	 22.6537
|  8> C 	 -49.9014 	 13.6019 	 23.4797
|  9> C 	 -50.9616 	 14.3712 	 23.0514
| 10> C 	 -50.5178 	 15.384 	 22.1564
| 11> C 	 -49.1203 	 15.5362 	 22.1766
| 12> H 	 -51.1922 	 16.1132 	 21.6996
| 13> C 	 -52.4076 	 14.0609 	 23.2902
| 14> H 	 -53.1179 	 14.8736 	 23.0685
| 15> H 	 -52.4704 	 13.7915 	 24.3253
| 16> C 	 -52.8722 	 12.8172 	 22.4941
| 17> H 	 -53.0532 	 13.2592 	 21.48
| 18> H 	 -52.0751 	 12.1194 	 22.4381
| 19> C 	 -54.0211 	 12.0326 	 23.194
| 20> H 	 -54.8173 	 12.6878 	 23.5594
| 21> H 	 -54.5018 	 11.1418 	 22.7303
| 22> H 	 -53.7296 	 11.7748 	 24.1933
| 23> S 	 -47.0044 	 15.931 	 20.532
| 24> C 	 -46.7049 	 17.4732 	 19.8055
| 25> C 	 -47.4718 	 18.493 	 20.3411
| 26> C 	 -48.4096 	 17.9512 	 21.3088
| 27> C 	 -48.2395 	 16.5729 	 21.5416
| 28> H 	 -47.2022 	 19.4594 	 20.0298
| 29> C 	 -49.3598 	 18.8689 	 22.0684
| 30> H 	 -50.1616 	 18.2854 	 22.4718
| 31> H 	 -49.8106 	 19.6323 	 21.4586
| 32> C 	 -48.8438 	 19.5252 	 23.3394
| 33> H 	 -48.4211 	 18.8125 	 24.0816
| 34> H 	 -49.6864 	 19.9737 	 23.8966
| 35> C 	 -47.8658 	 20.6228 	 23.2389
| 36> H 	 -48.1754 	 21.2501 	 22.3682
| 37> H 	 -46.811 	 20.2578 	 23.0651
| 38> H 	 -47.935 	 21.1957 	 24.1607
| 39> H 	 -50.0635 	 12.643 	 23.9884
| 40> H 	 -46.0149 	 17.5969 	 18.9702
| 41> *
| 42>
| 43>                          ****END OF INPUT****

CARTESIAN COORDINATES (ANGSTROEM)
---------------------------------
  S    -48.471800   13.926900   22.653700
  C    -49.901400   13.601900   23.479700
  C    -50.961600   14.371200   23.051400
  C    -50.517800   15.384000   22.156400
  C    -49.120300   15.536200   22.176600
  H    -51.192200   16.113200   21.699600
  C    -52.407600   14.060900   23.290200
  H    -53.117900   14.873600   23.068500
  H    -52.470400   13.791500   24.325300
  C    -52.872200   12.817200   22.494100
  H    -53.053200   13.259200   21.480000
  H    -52.075100   12.119400   22.438100
  C    -54.021100   12.032600   23.194000
  H    -54.817300   12.687800   23.559400
  H    -54.501800   11.141800   22.730300
  H    -53.729600   11.774800   24.193300
  S    -47.004400   15.931000   20.532000
  C    -46.704900   17.473200   19.805500
  C    -47.471800   18.493000   20.341100
  C    -48.409600   17.951200   21.308800
  C    -48.239500   16.572900   21.541600
  H    -47.202200   19.459400   20.029800
  C    -49.359800   18.868900   22.068400
  H    -50.161600   18.285400   22.471800
  H    -49.810600   19.632300   21.458600
  C    -48.843800   19.525200   23.339400
  H    -48.421100   18.812500   24.081600
  H    -49.686400   19.973700   23.896600
  C    -47.865800   20.622800   23.238900
  H    -48.175400   21.250100   22.368200
  H    -46.811000   20.257800   23.065100
  H    -47.935000   21.195700   24.160700
  H    -50.063500   12.643000   23.988400
  H    -46.014900   17.596900   18.970200

 Total Charge           Charge          ....    0
 Multiplicity           Mult            ....    1
 Number of Electrons    NEL             ....  134
 Basis Dimension        Dim             ....  322

ORBITAL ENERGIES
----------------

  NO   OCC          E(Eh)            E(eV)
   0   2.0000     -88.966792     -2420.9095
   1   2.0000     -88.965011     -2420.8610
   2   2.0000     -10.339450      -281.3507
   3   2.0000     -10.331855      -281.1441
   4   2.0000     -10.318611      -280.7837
   5   2.0000     -10.313232      -280.6373
   6   2.0000     -10.307940      -280.4933
   7   2.0000     -10.298052      -280.2242
   8   2.0000     -10.297729      -280.2154
   9   2.0000     -10.296146      -280.1724
  10   2.0000     -10.291262      -280.0395
  11   2.0000     -10.289425      -279.9895
  12   2.0000     -10.286602      -279.9127
  13   2.0000     -10.281959      -279.7863
  14   2.0000     -10.279038      -279.7068
  15   2.0000     -10.274663      -279.5878
  16   2.0000      -8.082665      -219.9405
  17   2.0000      -8.080411      -219.8792
  18   2.0000      -6.041064      -164.3857
  19   2.0000      -6.038857      -164.3256
  20   2.0000      -6.036944      -164.2736
  21   2.0000      -6.035255      -164.2277
  22   2.0000      -6.033550      -164.1812
  23   2.0000      -6.030779      -164.1058
  24   2.0000      -1.009712       -27.4757
  25   2.0000      -0.990545       -26.9541
  26   2.0000      -0.914186       -24.8763
  27   2.0000      -0.911813       -24.8117
  28   2.0000      -0.867587       -23.6082
  29   2.0000      -0.854347       -23.2480
  30   2.0000      -0.847065       -23.0498
  31   2.0000      -0.817432       -22.2435
  32   2.0000      -0.784835       -21.3564
  33   2.0000      -0.771327       -20.9889
  34   2.0000      -0.705908       -19.2087
  35   2.0000      -0.700395       -19.0587
  36   2.0000      -0.679453       -18.4889
  37   2.0000      -0.666483       -18.1359
  38   2.0000      -0.636006       -17.3066
  39   2.0000      -0.623092       -16.9552
  40   2.0000      -0.596096       -16.2206
  41   2.0000      -0.579240       -15.7619
  42   2.0000      -0.561449       -15.2778
  43   2.0000      -0.549201       -14.9445
  44   2.0000      -0.548058       -14.9134
  45   2.0000      -0.524361       -14.2686
  46   2.0000      -0.517823       -14.0907
  47   2.0000      -0.511312       -13.9135
  48   2.0000      -0.501990       -13.6598
  49   2.0000      -0.498304       -13.5595
  50   2.0000      -0.485649       -13.2152
  51   2.0000      -0.480413       -13.0727
  52   2.0000      -0.478779       -13.0282
  53   2.0000      -0.465802       -12.6751
  54   2.0000      -0.464306       -12.6344
  55   2.0000      -0.447014       -12.1639
  56   2.0000      -0.441727       -12.0200
  57   2.0000      -0.433267       -11.7898
  58   2.0000      -0.430895       -11.7253
  59   2.0000      -0.427534       -11.6338
  60   2.0000      -0.419115       -11.4047
  61   2.0000      -0.416965       -11.3462
  62   2.0000      -0.406133       -11.0514
  63   2.0000      -0.355473        -9.6729
  64   2.0000      -0.334376        -9.0988
  65   2.0000      -0.322132        -8.7657
  66   2.0000      -0.282227        -7.6798
  67   0.0000       0.018125         0.4932
  68   0.0000       0.066633         1.8132
  69   0.0000       0.094027         2.5586
  70   0.0000       0.116369         3.1666
  71   0.0000       0.138348         3.7646

MULLIKEN ATOMIC CHARGES
-----------------------
   0 S :    0.093405
   1 C :   -0.093714
   2 C :   -0.124845
   3 C :    0.039373
   4 C :   -0.153991
   5 H :    0.025405
   6 C :    0.057549
   7 H :    0.033798
   8 H :    0.016238
   9 C :   -0.051955
  10 H :    0.036723
  11 H :    0.023475
  12 C :   -0.049872
  13 H :    0.013824
  14 H :    0.054706
  15 H :    0.008710
  16 S :    0.099901
  17 C :   -0.107228
  18 C :   -0.007038
  19 C :   -0.065115
  20 C :   -0.104447
  21 H :    0.006880
  22 C :    0.111760
  23 H :    0.008348
  24 H :    0.018942
  25 C :   -0.106346
  26 H :    0.031185
  27 H :    0.022637
  28 C :   -0.053904
  29 H :    0.018067
  30 H :    0.046549
  31 H :    0.035614
  32 H :    0.053252
  33 H :    0.062114
Sum of atomic charges:    0.0000000

LOEWDIN ATOMIC CHARGES
----------------------
   0 S :    0.404689
   1 C :   -0.216594
   2 C :   -0.068410
   3 C :   -0.061061
   4 C :   -0.170610
   5 H :    0.031338
   6 C :   -0.030463
   7 H :    0.032161
   8 H :    0.027247
   9 C :   -0.034529
  10 H :    0.029608
  11 H :    0.016167
  12 C :   -0.079649
  13 H :    0.024712
  14 H :    0.033721
  15 H :    0.022249
  16 S :    0.426135
  17 C :   -0.184161
  18 C :   -0.066392
  19 C :   -0.049967
  20 C :   -0.210317
  21 H :    0.028087
  22 C :   -0.032804
  23 H :    0.030464
  24 H :    0.028078
  25 C :   -0.050485
  26 H :    0.029118
  27 H :    0.026483
  28 C :   -0.072873
  29 H :    0.021980
  30 H :    0.029072
  31 H :    0.028130
  32 H :    0.028946
  33 H :    0.029930

  Mayer bond orders larger than 0.100000
B(  0-S ,  1-C ) :   1.1554 B(  0-S ,  4-C ) :   1.1543 B(  1-C ,  2-C ) :   1.5891
B(  1-C ,  4-C ) :   0.1023 B(  1-C , 32-H ) :   0.9616 B(  2-C ,  3-C ) :   1.2677
B(  2-C ,  6-C ) :   1.0394 B(  3-C ,  4-C ) :   1.5350 B(  3-C ,  5-H ) :   0.9841
B(  4-C , 20-C ) :   1.0355 B(  6-C ,  7-H ) :   0.9453 B(  6-C ,  8-H ) :   0.9363
B(  6-C ,  9-C ) :   1.0452 B(  9-C , 10-H ) :   0.9584 B(  9-C , 11-H ) :   0.9660
B(  9-C , 12-C ) :   1.0608 B( 12-C , 13-H ) :   0.9709 B( 12-C , 14-H ) :   0.9772
B( 12-C , 15-H ) :   0.9676 B( 16-S , 17-C ) :   1.1791 B( 16-S , 20-C ) :   1.1444
B( 17-C , 18-C ) :   1.6038 B( 17-C , 33-H ) :   0.9646 B( 18-C , 19-C ) :   1.2175
B( 18-C , 21-H ) :   1.0055 B( 19-C , 20-C ) :   1.5977 B( 19-C , 22-C ) :   1.0506
B( 22-C , 23-H ) :   0.9231 B( 22-C , 24-H ) :   0.9333 B( 22-C , 25-C ) :   1.0852
B( 25-C , 26-H ) :   0.9477 B( 25-C , 27-H ) :   0.9542 B( 25-C , 28-C ) :   1.0934
B( 28-C , 29-H ) :   0.9697 B( 28-C , 30-H ) :   0.9720 B( 28-C , 31-H ) :   0.9722

Dispersion correction           -0.013767872
FINAL SINGLE POINT ENERGY     -1339.847111330708

DIPOLE MOMENT
-------------
                                X             Y             Z
Electronic contribution:     20.09481      -7.71171      -9.44271
Nuclear contribution   :    -20.58599       7.98279       9.39667
                        -----------------------------------------
Total Dipole Moment    :     -0.49118       0.27108      -0.04603
                        -----------------------------------------
Magnitude (a.u.)       :      0.56290
Magnitude (Debye)      :      1.43078

Rotational constants in cm-1:     0.022712     0.007163     0.006077
Rotational constants in MHz :   680.890820   214.738139   182.188347

                             ****ORCA TERMINATED NORMALLY****
TOTAL RUN TIME: 0 days 0 hours 0 minutes 21 seconds 194 msec
