                         Program Version 4.2.1 -  RELEASE  -
|  1> ! wB97X-D3 SP def2-SVP
|  2> %pal
|  3> nprocs 24
|  4> end
|  5>
|  6> * xyz 0 1
|  7> S 	 -61.2247 	 18.4269 	 18.3457
|  8> C 	 -61.1895 	 17.1177 	 19.5074
|  9> C 	 -61.0593 	 17.5107 	 20.8864
| 10> C 	 -60.7142 	 18.8869 	 20.9545
| 11> C 	 -60.6364 	 19.458 	 19.6921
| 12> H 	 -60.4514 	 19.4686 	 21.8093
| 13> C 	 -61.2262 	 16.5695 	 22.0212
| 14> H 	 -60.5625 	 16.9131 	 22.8348
| 15> H 	 -60.8741 	 15.5762 	 21.7482
| 16> C 	 -62.7373 	 16.4928 	 22.4554
| 17> H 	 -63.1125 	 17.4702 	 22.782
| 18> H 	 -63.422 	 16.1896 	 21.6418
| 19> C 	 -62.9714 	 15.4699 	 23.5787
| 20> H 	 -62.4528 	 14.4993 	 23.5136
| 21> H 	 -62.7051 	 15.8949 	 24.5158
| 22> H 	 -64.0693 	 15.2856 	 23.6809
| 23> S 	 -61.7116 	 21.9022 	 18.879
| 24> C 	 -60.7655 	 23.3085 	 19.2062
| 25> C 	 -59.4627 	 23.0004 	 19.5068
| 26> C 	 -59.1642 	 21.6371 	 19.6476
| 27> C 	 -60.3133 	 20.8315 	 19.3746
| 28> H 	 -58.647 	 23.756 	 19.6819
| 29> C 	 -57.8389 	 21.1293 	 20.1141
| 30> H 	 -57.8252 	 20.0593 	 20.0224
| 31> H 	 -57.8845 	 21.4087 	 21.2026
| 32> C 	 -56.5751 	 21.6198 	 19.3714
| 33> H 	 -56.4328 	 22.6661 	 19.5965
| 34> H 	 -56.7803 	 21.6953 	 18.3307
| 35> C 	 -55.2763 	 20.8902 	 19.6929
| 36> H 	 -55.5031 	 19.8014 	 19.6516
| 37> H 	 -55.0034 	 21.1686 	 20.7428
| 38> H 	 -54.5501 	 21.1414 	 18.9516
| 39> H 	 -61.5953 	 16.0919 	 19.205
| 40> H 	 -61.0146 	 24.3491 	 18.9644
| 41> *
| 42>
| 43>                          ****END OF INPUT****

CARTESIAN COORDINATES (ANGSTROEM)
---------------------------------
  S    -61.224700   18.426900   18.345700
  C    -61.189500   17.117700   19.507400
  C    -61.059300   17.510700   20.886400
  C    -60.714200   18.886900   20.954500
  C    -60.636400   19.458000   19.692100
  H    -60.451400   19.468600   21.809300
  C    -61.226200   16.569500   22.021200
  H    -60.562500   16.913100   22.834800
  H    -60.874100   15.576200   21.748200
  C    -62.737300   16.492800   22.455400
  H    -63.112500   17.470200   22.782000
  H    -63.422000   16.189600   21.641800
  C    -62.971400   15.469900   23.578700
  H    -62.452800   14.499300   23.513600
  H    -62.705100   15.894900   24.515800
  H    -64.069300   15.285600   23.680900
  S    -61.711600   21.902200   18.879000
  C    -60.765500   23.308500   19.206200
  C    -59.462700   23.000400   19.506800
  C    -59.164200   21.637100   19.647600
  C    -60.313300   20.831500   19.374600
  H    -58.647000   23.756000   19.681900
  C    -57.838900   21.129300   20.114100
  H    -57.825200   20.059300   20.022400
  H    -57.884500   21.408700   21.202600
  C    -56.575100   21.619800   19.371400
  H    -56.432800   22.666100   19.596500
  H    -56.780300   21.695300   18.330700
  C    -55.276300   20.890200   19.692900
  H    -55.503100   19.801400   19.651600
  H    -55.003400   21.168600   20.742800
  H    -54.550100   21.141400   18.951600
  H    -61.595300   16.091900   19.205000
  H    -61.014600   24.349100   18.964400

 Total Charge           Charge          ....    0
 Multiplicity           Mult            ....    1
 Number of Electrons    NEL             ....  134
 Basis Dimension        Dim             ....  322

ORBITAL ENERGIES
----------------

  NO   OCC          E(Eh)            E(eV)
   0   2.0000     -88.968732     -2420.9623
   1   2.0000     -88.963507     -2420.8201
   2   2.0000     -10.328540      -281.0539
   3   2.0000     -10.326943      -281.0104
   4   2.0000     -10.320604      -280.8379
   5   2.0000     -10.315440      -280.6974
   6   2.0000     -10.305697      -280.4323
   7   2.0000     -10.303244      -280.3655
   8   2.0000     -10.296886      -280.1925
   9   2.0000     -10.296846      -280.1914
  10   2.0000     -10.292681      -280.0781
  11   2.0000     -10.292073      -280.0615
  12   2.0000     -10.290453      -280.0175
  13   2.0000     -10.283047      -279.8159
  14   2.0000     -10.281381      -279.7706
  15   2.0000     -10.277670      -279.6696
  16   2.0000      -8.082800      -219.9442
  17   2.0000      -8.077576      -219.8020
  18   2.0000      -6.041025      -164.3847
  19   2.0000      -6.037747      -164.2954
  20   2.0000      -6.036120      -164.2512
  21   2.0000      -6.033569      -164.1818
  22   2.0000      -6.032225      -164.1452
  23   2.0000      -6.028290      -164.0381
  24   2.0000      -0.997837       -27.1525
  25   2.0000      -0.976609       -26.5749
  26   2.0000      -0.910410       -24.7735
  27   2.0000      -0.908105       -24.7108
  28   2.0000      -0.861371       -23.4391
  29   2.0000      -0.855486       -23.2790
  30   2.0000      -0.850544       -23.1445
  31   2.0000      -0.810232       -22.0475
  32   2.0000      -0.782493       -21.2927
  33   2.0000      -0.759529       -20.6678
  34   2.0000      -0.704622       -19.1737
  35   2.0000      -0.700588       -19.0640
  36   2.0000      -0.693541       -18.8722
  37   2.0000      -0.649497       -17.6737
  38   2.0000      -0.640158       -17.4196
  39   2.0000      -0.616362       -16.7721
  40   2.0000      -0.596103       -16.2208
  41   2.0000      -0.565612       -15.3911
  42   2.0000      -0.562835       -15.3155
  43   2.0000      -0.549270       -14.9464
  44   2.0000      -0.533450       -14.5159
  45   2.0000      -0.524225       -14.2649
  46   2.0000      -0.511060       -13.9066
  47   2.0000      -0.507692       -13.8150
  48   2.0000      -0.504307       -13.7229
  49   2.0000      -0.496933       -13.5222
  50   2.0000      -0.483276       -13.1506
  51   2.0000      -0.471678       -12.8350
  52   2.0000      -0.469290       -12.7700
  53   2.0000      -0.462070       -12.5736
  54   2.0000      -0.455642       -12.3986
  55   2.0000      -0.451811       -12.2944
  56   2.0000      -0.446727       -12.1560
  57   2.0000      -0.443181       -12.0596
  58   2.0000      -0.433282       -11.7902
  59   2.0000      -0.428835       -11.6692
  60   2.0000      -0.424445       -11.5497
  61   2.0000      -0.417908       -11.3719
  62   2.0000      -0.410996       -11.1838
  63   2.0000      -0.341417        -9.2904
  64   2.0000      -0.329734        -8.9725
  65   2.0000      -0.322547        -8.7769
  66   2.0000      -0.285839        -7.7781
  67   0.0000       0.028491         0.7753
  68   0.0000       0.051964         1.4140
  69   0.0000       0.104156         2.8342
  70   0.0000       0.120865         3.2889
  71   0.0000       0.128019         3.4836

MULLIKEN ATOMIC CHARGES
-----------------------
   0 S :    0.113035
   1 C :   -0.128684
   2 C :   -0.101434
   3 C :    0.063137
   4 C :   -0.181364
   5 H :    0.007583
   6 C :    0.073493
   7 H :    0.029426
   8 H :    0.026355
   9 C :   -0.088912
  10 H :    0.031843
  11 H :    0.035992
  12 C :   -0.042988
  13 H :    0.035864
  14 H :    0.017769
  15 H :    0.034595
  16 S :    0.097660
  17 C :   -0.077535
  18 C :   -0.068782
  19 C :   -0.040241
  20 C :   -0.172742
  21 H :    0.030887
  22 C :    0.073346
  23 H :    0.020944
  24 H :    0.047692
  25 C :   -0.090009
  26 H :    0.013624
  27 H :    0.024350
  28 C :   -0.031995
  29 H :    0.035941
  30 H :    0.040925
  31 H :    0.041209
  32 H :    0.066865
  33 H :    0.062154
Sum of atomic charges:   -0.0000000

LOEWDIN ATOMIC CHARGES
----------------------
   0 S :    0.391753
   1 C :   -0.210421
   2 C :   -0.059160
   3 C :   -0.047538
   4 C :   -0.183390
   5 H :    0.032545
   6 C :   -0.032808
   7 H :    0.033840
   8 H :    0.032347
   9 C :   -0.036971
  10 H :    0.026706
  11 H :    0.027390
  12 C :   -0.072074
  13 H :    0.026050
  14 H :    0.017363
  15 H :    0.031387
  16 S :    0.383213
  17 C :   -0.195123
  18 C :   -0.086786
  19 C :   -0.051334
  20 C :   -0.191366
  21 H :    0.037027
  22 C :   -0.033185
  23 H :    0.027154
  24 H :    0.042189
  25 C :   -0.045057
  26 H :    0.017803
  27 H :    0.021681
  28 C :   -0.059175
  29 H :    0.028645
  30 H :    0.032408
  31 H :    0.026803
  32 H :    0.032681
  33 H :    0.035403

  Mayer bond orders larger than 0.100000
B(  0-S ,  1-C ) :   1.1492 B(  0-S ,  4-C ) :   1.1451 B(  1-C ,  2-C ) :   1.5918
B(  1-C ,  4-C ) :   0.1065 B(  1-C , 32-H ) :   0.9549 B(  2-C ,  3-C ) :   1.2343
B(  2-C ,  6-C ) :   1.0390 B(  3-C ,  4-C ) :   1.5755 B(  3-C ,  5-H ) :   0.9998
B(  4-C , 20-C ) :   1.0309 B(  6-C ,  7-H ) :   0.9406 B(  6-C ,  8-H ) :   0.9385
B(  6-C ,  9-C ) :   1.0485 B(  9-C , 10-H ) :   0.9564 B(  9-C , 11-H ) :   0.9638
B(  9-C , 12-C ) :   1.0788 B( 12-C , 13-H ) :   0.9751 B( 12-C , 14-H ) :   0.9752
B( 12-C , 15-H ) :   0.9748 B( 16-S , 17-C ) :   1.1624 B( 16-S , 20-C ) :   1.1240
B( 17-C , 18-C ) :   1.5975 B( 17-C , 20-C ) :   0.1073 B( 17-C , 33-H ) :   0.9581
B( 18-C , 19-C ) :   1.2704 B( 18-C , 21-H ) :   0.9773 B( 19-C , 20-C ) :   1.5724
B( 19-C , 22-C ) :   1.0445 B( 22-C , 23-H ) :   0.9331 B( 22-C , 24-H ) :   0.9275
B( 22-C , 25-C ) :   1.0555 B( 25-C , 26-H ) :   0.9448 B( 25-C , 27-H ) :   0.9589
B( 25-C , 28-C ) :   1.0904 B( 28-C , 29-H ) :   0.9760 B( 28-C , 30-H ) :   0.9747
B( 28-C , 31-H ) :   0.9731

Dispersion correction           -0.013521422
FINAL SINGLE POINT ENERGY     -1339.869355816274

DIPOLE MOMENT
-------------
                                X             Y             Z
Electronic contribution:    -12.23738      10.17736     -17.11899
Nuclear contribution   :     12.54751     -10.23118      17.63950
                        -----------------------------------------
Total Dipole Moment    :      0.31014      -0.05382       0.52051
                        -----------------------------------------
Magnitude (a.u.)       :      0.60829
Magnitude (Debye)      :      1.54615

Rotational constants in cm-1:     0.018770     0.007245     0.006215
Rotational constants in MHz :   562.707441   217.203040   186.313317

                             ****ORCA TERMINATED NORMALLY****
TOTAL RUN TIME: 0 days 0 hours 0 minutes 20 seconds 765 msec
