                         Program Version 4.2.1 -  RELEASE  -
|  1> ! wB97X-D3 SP def2-SVP
|  2> %pal
|  3> nprocs 24
|  4> end
|  5>
|  6> * xyz 0 1
|  7> S 	 -146.086 	 6.3001 	 9.49525
|  8> C 	 -145.634 	 4.73089 	 8.86534
|  9> C 	 -146.743 	 4.05619 	 8.4206
| 10> C 	 -147.928 	 4.86928 	 8.3351
| 11> C 	 -147.691 	 6.15913 	 8.80941
| 12> H 	 -148.925 	 4.62912 	 8.04051
| 13> C 	 -146.786 	 2.57258 	 7.99773
| 14> H 	 -147.748 	 2.33617 	 7.59981
| 15> H 	 -146.641 	 2.0403 	 9.00433
| 16> C 	 -145.684 	 1.99833 	 7.08643
| 17> H 	 -145.734 	 2.55642 	 6.13666
| 18> H 	 -144.799 	 2.12509 	 7.66052
| 19> C 	 -146.035 	 0.578615 	 6.67912
| 20> H 	 -145.893 	 -0.202662 	 7.46627
| 21> H 	 -147.07 	 0.553805 	 6.37111
| 22> H 	 -145.479 	 0.308918 	 5.81278
| 23> S 	 -149.484 	 7.35604 	 10.4494
| 24> C 	 -150.74 	 8.43508 	 9.8646
| 25> C 	 -150.684 	 8.45551 	 8.48172
| 26> C 	 -149.579 	 7.77433 	 7.90423
| 27> C 	 -148.754 	 7.15092 	 8.85334
| 28> H 	 -151.409 	 9.13593 	 8.01784
| 29> C 	 -149.412 	 7.61616 	 6.37482
| 30> H 	 -149.884 	 6.6251 	 6.06771
| 31> H 	 -148.334 	 7.44433 	 6.19374
| 32> C 	 -149.928 	 8.74202 	 5.52366
| 33> H 	 -149.479 	 9.67617 	 5.94993
| 34> H 	 -151.041 	 8.75723 	 5.63153
| 35> C 	 -149.379 	 8.79676 	 4.00808
| 36> H 	 -148.304 	 9.10856 	 4.13508
| 37> H 	 -149.933 	 9.5095 	 3.41187
| 38> H 	 -149.327 	 7.80394 	 3.55226
| 39> H 	 -144.72 	 4.28304 	 9.2087
| 40> H 	 -151.331 	 8.9455 	 10.5921
| 41> *
| 42>
| 43>                          ****END OF INPUT****

CARTESIAN COORDINATES (ANGSTROEM)
---------------------------------
  S    -146.086000    6.300100    9.495250
  C    -145.634000    4.730890    8.865340
  C    -146.743000    4.056190    8.420600
  C    -147.928000    4.869280    8.335100
  C    -147.691000    6.159130    8.809410
  H    -148.925000    4.629120    8.040510
  C    -146.786000    2.572580    7.997730
  H    -147.748000    2.336170    7.599810
  H    -146.641000    2.040300    9.004330
  C    -145.684000    1.998330    7.086430
  H    -145.734000    2.556420    6.136660
  H    -144.799000    2.125090    7.660520
  C    -146.035000    0.578615    6.679120
  H    -145.893000   -0.202662    7.466270
  H    -147.070000    0.553805    6.371110
  H    -145.479000    0.308918    5.812780
  S    -149.484000    7.356040   10.449400
  C    -150.740000    8.435080    9.864600
  C    -150.684000    8.455510    8.481720
  C    -149.579000    7.774330    7.904230
  C    -148.754000    7.150920    8.853340
  H    -151.409000    9.135930    8.017840
  C    -149.412000    7.616160    6.374820
  H    -149.884000    6.625100    6.067710
  H    -148.334000    7.444330    6.193740
  C    -149.928000    8.742020    5.523660
  H    -149.479000    9.676170    5.949930
  H    -151.041000    8.757230    5.631530
  C    -149.379000    8.796760    4.008080
  H    -148.304000    9.108560    4.135080
  H    -149.933000    9.509500    3.411870
  H    -149.327000    7.803940    3.552260
  H    -144.720000    4.283040    9.208700
  H    -151.331000    8.945500   10.592100

 Total Charge           Charge          ....    0
 Multiplicity           Mult            ....    1
 Number of Electrons    NEL             ....  134
 Basis Dimension        Dim             ....  322

ORBITAL ENERGIES
----------------

  NO   OCC          E(Eh)            E(eV)
   0   2.0000     -88.966927     -2420.9132
   1   2.0000     -88.957899     -2420.6675
   2   2.0000     -10.329777      -281.0875
   3   2.0000     -10.327603      -281.0284
   4   2.0000     -10.317857      -280.7632
   5   2.0000     -10.312368      -280.6138
   6   2.0000     -10.309688      -280.5409
   7   2.0000     -10.305410      -280.4245
   8   2.0000     -10.296780      -280.1896
   9   2.0000     -10.296318      -280.1771
  10   2.0000     -10.295414      -280.1525
  11   2.0000     -10.294556      -280.1291
  12   2.0000     -10.294466      -280.1267
  13   2.0000     -10.288083      -279.9530
  14   2.0000     -10.286567      -279.9117
  15   2.0000     -10.278348      -279.6881
  16   2.0000      -8.081598      -219.9115
  17   2.0000      -8.072888      -219.6744
  18   2.0000      -6.040073      -164.3588
  19   2.0000      -6.036149      -164.2520
  20   2.0000      -6.032360      -164.1489
  21   2.0000      -6.031276      -164.1194
  22   2.0000      -6.027229      -164.0092
  23   2.0000      -6.023881      -163.9181
  24   2.0000      -1.004659       -27.3382
  25   2.0000      -0.982220       -26.7276
  26   2.0000      -0.912660       -24.8347
  27   2.0000      -0.901862       -24.5409
  28   2.0000      -0.872536       -23.7429
  29   2.0000      -0.851157       -23.1612
  30   2.0000      -0.839586       -22.8463
  31   2.0000      -0.811862       -22.0919
  32   2.0000      -0.778764       -21.1913
  33   2.0000      -0.770818       -20.9750
  34   2.0000      -0.706397       -19.2220
  35   2.0000      -0.698912       -19.0184
  36   2.0000      -0.693870       -18.8812
  37   2.0000      -0.651566       -17.7300
  38   2.0000      -0.646292       -17.5865
  39   2.0000      -0.609873       -16.5955
  40   2.0000      -0.595327       -16.1997
  41   2.0000      -0.582191       -15.8422
  42   2.0000      -0.564460       -15.3597
  43   2.0000      -0.561975       -15.2921
  44   2.0000      -0.530084       -14.4243
  45   2.0000      -0.520694       -14.1688
  46   2.0000      -0.516612       -14.0577
  47   2.0000      -0.511769       -13.9259
  48   2.0000      -0.503349       -13.6968
  49   2.0000      -0.496401       -13.5078
  50   2.0000      -0.486708       -13.2440
  51   2.0000      -0.484543       -13.1851
  52   2.0000      -0.472822       -12.8661
  53   2.0000      -0.469108       -12.7651
  54   2.0000      -0.454529       -12.3684
  55   2.0000      -0.453583       -12.3426
  56   2.0000      -0.441921       -12.0253
  57   2.0000      -0.433661       -11.8005
  58   2.0000      -0.428386       -11.6570
  59   2.0000      -0.425099       -11.5675
  60   2.0000      -0.419404       -11.4126
  61   2.0000      -0.414049       -11.2668
  62   2.0000      -0.406724       -11.0675
  63   2.0000      -0.338871        -9.2211
  64   2.0000      -0.326466        -8.8836
  65   2.0000      -0.322978        -8.7887
  66   2.0000      -0.304542        -8.2870
  67   0.0000       0.030719         0.8359
  68   0.0000       0.059360         1.6153
  69   0.0000       0.114115         3.1052
  70   0.0000       0.120134         3.2690
  71   0.0000       0.139044         3.7836

MULLIKEN ATOMIC CHARGES
-----------------------
   0 S :    0.114139
   1 C :   -0.122693
   2 C :   -0.059684
   3 C :    0.042760
   4 C :   -0.166963
   5 H :    0.010757
   6 C :    0.025707
   7 H :    0.006408
   8 H :    0.045912
   9 C :   -0.058031
  10 H :    0.037782
  11 H :    0.028765
  12 C :   -0.033338
  13 H :    0.037848
  14 H :    0.020171
  15 H :    0.027488
  16 S :    0.080111
  17 C :   -0.099937
  18 C :   -0.046928
  19 C :   -0.024460
  20 C :   -0.166583
  21 H :    0.033890
  22 C :    0.053576
  23 H :    0.044098
  24 H :    0.029806
  25 C :   -0.134716
  26 H :    0.041648
  27 H :    0.046898
  28 C :   -0.051582
  29 H :    0.041806
  30 H :    0.046593
  31 H :    0.036255
  32 H :    0.052587
  33 H :    0.059910
Sum of atomic charges:    0.0000000

LOEWDIN ATOMIC CHARGES
----------------------
   0 S :    0.409587
   1 C :   -0.202299
   2 C :   -0.058878
   3 C :   -0.051287
   4 C :   -0.204099
   5 H :    0.030423
   6 C :   -0.033692
   7 H :    0.017732
   8 H :    0.042196
   9 C :   -0.036731
  10 H :    0.031039
  11 H :    0.019135
  12 C :   -0.062094
  13 H :    0.028665
  14 H :    0.024385
  15 H :    0.022855
  16 S :    0.394944
  17 C :   -0.173205
  18 C :   -0.082092
  19 C :   -0.056559
  20 C :   -0.195197
  21 H :    0.036100
  22 C :   -0.041269
  23 H :    0.036574
  24 H :    0.032508
  25 C :   -0.052211
  26 H :    0.030719
  27 H :    0.024355
  28 C :   -0.064245
  29 H :    0.033688
  30 H :    0.026441
  31 H :    0.022923
  32 H :    0.024672
  33 H :    0.024919

  Mayer bond orders larger than 0.100000
B(  0-S ,  1-C ) :   1.1317 B(  0-S ,  4-C ) :   1.1627 B(  1-C ,  2-C ) :   1.6128
B(  1-C , 32-H ) :   0.9698 B(  2-C ,  3-C ) :   1.2337 B(  2-C ,  6-C ) :   1.0111
B(  3-C ,  4-C ) :   1.5596 B(  3-C ,  5-H ) :   1.0008 B(  4-C , 20-C ) :   1.0244
B(  6-C ,  7-H ) :   0.9501 B(  6-C ,  8-H ) :   0.9348 B(  6-C ,  9-C ) :   1.0689
B(  9-C , 10-H ) :   0.9571 B(  9-C , 11-H ) :   0.9528 B(  9-C , 12-C ) :   1.0890
B( 12-C , 13-H ) :   0.9743 B( 12-C , 14-H ) :   0.9709 B( 12-C , 15-H ) :   0.9747
B( 16-S , 17-C ) :   1.1690 B( 16-S , 20-C ) :   1.1602 B( 17-C , 18-C ) :   1.5743
B( 17-C , 20-C ) :   0.1114 B( 17-C , 33-H ) :   0.9757 B( 18-C , 19-C ) :   1.2467
B( 18-C , 21-H ) :   0.9878 B( 19-C , 20-C ) :   1.5895 B( 19-C , 22-C ) :   1.0314
B( 22-C , 23-H ) :   0.9277 B( 22-C , 24-H ) :   0.9380 B( 22-C , 25-C ) :   1.0666
B( 25-C , 26-H ) :   0.9659 B( 25-C , 27-H ) :   0.9482 B( 25-C , 28-C ) :   1.0616
B( 28-C , 29-H ) :   0.9776 B( 28-C , 30-H ) :   0.9769 B( 28-C , 31-H ) :   0.9790

Dispersion correction           -0.013264457
FINAL SINGLE POINT ENERGY     -1339.870698437002

DIPOLE MOMENT
-------------
                                X             Y             Z
Electronic contribution:      0.10580      12.33962      24.46679
Nuclear contribution   :     -0.32116     -12.71166     -24.89026
                        -----------------------------------------
Total Dipole Moment    :     -0.21536      -0.37204      -0.42347
                        -----------------------------------------
Magnitude (a.u.)       :      0.60342
Magnitude (Debye)      :      1.53378

Rotational constants in cm-1:     0.017444     0.007467     0.006013
Rotational constants in MHz :   522.953713   223.867771   180.277077

                             ****ORCA TERMINATED NORMALLY****
TOTAL RUN TIME: 0 days 0 hours 0 minutes 20 seconds 431 msec
