                         Program Version 4.2.1 -  RELEASE  -
|  1> ! wB97X-D3 SP def2-SVP
|  2> %pal
|  3> nprocs 24
|  4> end
|  5>
|  6> * xyz 0 1
|  7> S 	 -95.9186 	 0.382234 	 -118.833
|  8> C 	 -94.7593 	 -0.879784 	 -119.077
|  9> C 	 -95.3218 	 -2.14653 	 -119.227
| 10> C 	 -96.7535 	 -2.00949 	 -119.254
| 11> C 	 -97.2472 	 -0.76486 	 -119.05
| 12> H 	 -97.4933 	 -2.82995 	 -119.428
| 13> C 	 -94.5216 	 -3.42773 	 -119.458
| 14> H 	 -93.5151 	 -3.33606 	 -119.948
| 15> H 	 -94.8707 	 -4.05103 	 -120.278
| 16> C 	 -94.3581 	 -4.37136 	 -118.247
| 17> H 	 -95.2924 	 -4.44747 	 -117.781
| 18> H 	 -93.9421 	 -5.34621 	 -118.568
| 19> C 	 -93.5962 	 -3.68274 	 -117.086
| 20> H 	 -92.8942 	 -2.97306 	 -117.482
| 21> H 	 -94.211 	 -3.06188 	 -116.51
| 22> H 	 -93.0205 	 -4.41972 	 -116.487
| 23> S 	 -99.2573 	 0.152079 	 -117.289
| 24> C 	 -100.966 	 0.16745 	 -117.901
| 25> C 	 -101.023 	 -0.386372 	 -119.157
| 26> C 	 -99.7687 	 -0.713404 	 -119.718
| 27> C 	 -98.7078 	 -0.416126 	 -118.861
| 28> H 	 -101.954 	 -0.607333 	 -119.639
| 29> C 	 -99.7937 	 -1.44258 	 -120.989
| 30> H 	 -98.909 	 -1.21666 	 -121.586
| 31> H 	 -100.636 	 -1.12441 	 -121.587
| 32> C 	 -99.9706 	 -2.93665 	 -120.764
| 33> H 	 -100.902 	 -3.1229 	 -120.192
| 34> H 	 -99.2377 	 -3.43718 	 -120.109
| 35> C 	 -100.253 	 -3.63853 	 -122.136
| 36> H 	 -100.525 	 -4.74208 	 -122.104
| 37> H 	 -99.401 	 -3.55044 	 -122.792
| 38> H 	 -101.11 	 -3.23093 	 -122.525
| 39> H 	 -93.6784 	 -0.682007 	 -119.031
| 40> H 	 -101.794 	 0.704594 	 -117.454
| 41> *
| 42>
| 43>                          ****END OF INPUT****

CARTESIAN COORDINATES (ANGSTROEM)
---------------------------------
  S    -95.918600    0.382234  -118.833000
  C    -94.759300   -0.879784  -119.077000
  C    -95.321800   -2.146530  -119.227000
  C    -96.753500   -2.009490  -119.254000
  C    -97.247200   -0.764860  -119.050000
  H    -97.493300   -2.829950  -119.428000
  C    -94.521600   -3.427730  -119.458000
  H    -93.515100   -3.336060  -119.948000
  H    -94.870700   -4.051030  -120.278000
  C    -94.358100   -4.371360  -118.247000
  H    -95.292400   -4.447470  -117.781000
  H    -93.942100   -5.346210  -118.568000
  C    -93.596200   -3.682740  -117.086000
  H    -92.894200   -2.973060  -117.482000
  H    -94.211000   -3.061880  -116.510000
  H    -93.020500   -4.419720  -116.487000
  S    -99.257300    0.152079  -117.289000
  C    -100.966000    0.167450  -117.901000
  C    -101.023000   -0.386372  -119.157000
  C    -99.768700   -0.713404  -119.718000
  C    -98.707800   -0.416126  -118.861000
  H    -101.954000   -0.607333  -119.639000
  C    -99.793700   -1.442580  -120.989000
  H    -98.909000   -1.216660  -121.586000
  H    -100.636000   -1.124410  -121.587000
  C    -99.970600   -2.936650  -120.764000
  H    -100.902000   -3.122900  -120.192000
  H    -99.237700   -3.437180  -120.109000
  C    -100.253000   -3.638530  -122.136000
  H    -100.525000   -4.742080  -122.104000
  H    -99.401000   -3.550440  -122.792000
  H    -101.110000   -3.230930  -122.525000
  H    -93.678400   -0.682007  -119.031000
  H    -101.794000    0.704594  -117.454000

 Total Charge           Charge          ....    0
 Multiplicity           Mult            ....    1
 Number of Electrons    NEL             ....  134
 Basis Dimension        Dim             ....  322

ORBITAL ENERGIES
----------------

  NO   OCC          E(Eh)            E(eV)
   0   2.0000     -88.967553     -2420.9302
   1   2.0000     -88.967490     -2420.9285
   2   2.0000     -10.332849      -281.1711
   3   2.0000     -10.330435      -281.1054
   4   2.0000     -10.320812      -280.8436
   5   2.0000     -10.319890      -280.8185
   6   2.0000     -10.309284      -280.5299
   7   2.0000     -10.298240      -280.2294
   8   2.0000     -10.298089      -280.2252
   9   2.0000     -10.296891      -280.1927
  10   2.0000     -10.293301      -280.0950
  11   2.0000     -10.290765      -280.0259
  12   2.0000     -10.289020      -279.9785
  13   2.0000     -10.283272      -279.8221
  14   2.0000     -10.278467      -279.6913
  15   2.0000     -10.268104      -279.4093
  16   2.0000      -8.082450      -219.9346
  17   2.0000      -8.080992      -219.8950
  18   2.0000      -6.040922      -164.3819
  19   2.0000      -6.039690      -164.3483
  20   2.0000      -6.036923      -164.2730
  21   2.0000      -6.035765      -164.2415
  22   2.0000      -6.033244      -164.1729
  23   2.0000      -6.031538      -164.1265
  24   2.0000      -1.003793       -27.3146
  25   2.0000      -0.983942       -26.7744
  26   2.0000      -0.915569       -24.9139
  27   2.0000      -0.908125       -24.7114
  28   2.0000      -0.865009       -23.5381
  29   2.0000      -0.850361       -23.1395
  30   2.0000      -0.845895       -23.0180
  31   2.0000      -0.815056       -22.1788
  32   2.0000      -0.783516       -21.3206
  33   2.0000      -0.771749       -21.0004
  34   2.0000      -0.708495       -19.2791
  35   2.0000      -0.699200       -19.0262
  36   2.0000      -0.690155       -18.7801
  37   2.0000      -0.664002       -18.0684
  38   2.0000      -0.647319       -17.6145
  39   2.0000      -0.619291       -16.8518
  40   2.0000      -0.600784       -16.3482
  41   2.0000      -0.575512       -15.6605
  42   2.0000      -0.567405       -15.4399
  43   2.0000      -0.545828       -14.8527
  44   2.0000      -0.535458       -14.5706
  45   2.0000      -0.522075       -14.2064
  46   2.0000      -0.521394       -14.1878
  47   2.0000      -0.515776       -14.0350
  48   2.0000      -0.500900       -13.6302
  49   2.0000      -0.492971       -13.4144
  50   2.0000      -0.489905       -13.3310
  51   2.0000      -0.479848       -13.0573
  52   2.0000      -0.470047       -12.7906
  53   2.0000      -0.464306       -12.6344
  54   2.0000      -0.455338       -12.3904
  55   2.0000      -0.453576       -12.3424
  56   2.0000      -0.442450       -12.0397
  57   2.0000      -0.440547       -11.9879
  58   2.0000      -0.429723       -11.6934
  59   2.0000      -0.427988       -11.6462
  60   2.0000      -0.426794       -11.6137
  61   2.0000      -0.416758       -11.3406
  62   2.0000      -0.402323       -10.9478
  63   2.0000      -0.346109        -9.4181
  64   2.0000      -0.332044        -9.0354
  65   2.0000      -0.328006        -8.9255
  66   2.0000      -0.300036        -8.1644
  67   0.0000       0.032543         0.8855
  68   0.0000       0.064464         1.7542
  69   0.0000       0.106619         2.9012
  70   0.0000       0.119119         3.2414
  71   0.0000       0.130669         3.5557

MULLIKEN ATOMIC CHARGES
-----------------------
   0 S :    0.114795
   1 C :   -0.129930
   2 C :   -0.047592
   3 C :    0.034495
   4 C :   -0.167650
   5 H :    0.009173
   6 C :    0.015448
   7 H :    0.025879
   8 H :    0.019213
   9 C :   -0.054315
  10 H :    0.020388
  11 H :    0.039557
  12 C :   -0.038978
  13 H :    0.003173
  14 H :    0.027425
  15 H :    0.040298
  16 S :    0.099024
  17 C :   -0.097071
  18 C :   -0.026836
  19 C :   -0.025901
  20 C :   -0.148528
  21 H :    0.014643
  22 C :    0.087109
  23 H :    0.032306
  24 H :    0.011663
  25 C :   -0.100485
  26 H :    0.022132
  27 H :    0.037579
  28 C :   -0.024103
  29 H :    0.036547
  30 H :    0.034064
  31 H :    0.010560
  32 H :    0.062791
  33 H :    0.063124
Sum of atomic charges:    0.0000000

LOEWDIN ATOMIC CHARGES
----------------------
   0 S :    0.404613
   1 C :   -0.190148
   2 C :   -0.067683
   3 C :   -0.060192
   4 C :   -0.197432
   5 H :    0.036710
   6 C :   -0.045768
   7 H :    0.035699
   8 H :    0.030981
   9 C :   -0.036598
  10 H :    0.018896
  11 H :    0.028439
  12 C :   -0.063261
  13 H :    0.015492
  14 H :    0.019629
  15 H :    0.031191
  16 S :    0.377868
  17 C :   -0.167654
  18 C :   -0.063014
  19 C :   -0.059330
  20 C :   -0.192516
  21 H :    0.029436
  22 C :   -0.031494
  23 H :    0.033330
  24 H :    0.031284
  25 C :   -0.037599
  26 H :    0.026880
  27 H :    0.021361
  28 C :   -0.061040
  29 H :    0.033890
  30 H :    0.022439
  31 H :    0.011745
  32 H :    0.031906
  33 H :    0.031940

  Mayer bond orders larger than 0.100000
B(  0-S ,  1-C ) :   1.1618 B(  0-S ,  4-C ) :   1.1342 B(  1-C ,  2-C ) :   1.6039
B(  1-C , 32-H ) :   0.9619 B(  2-C ,  3-C ) :   1.2378 B(  2-C ,  6-C ) :   1.0131
B(  3-C ,  4-C ) :   1.6154 B(  3-C ,  5-H ) :   0.9805 B(  4-C , 20-C ) :   0.9994
B(  6-C ,  7-H ) :   0.9463 B(  6-C ,  8-H ) :   0.9419 B(  6-C ,  9-C ) :   1.0805
B(  9-C , 10-H ) :   0.9619 B(  9-C , 11-H ) :   0.9589 B(  9-C , 12-C ) :   1.0601
B( 12-C , 13-H ) :   0.9778 B( 12-C , 14-H ) :   0.9758 B( 12-C , 15-H ) :   0.9753
B( 16-S , 17-C ) :   1.1327 B( 16-S , 20-C ) :   1.1440 B( 17-C , 18-C ) :   1.6162
B( 17-C , 33-H ) :   0.9650 B( 18-C , 19-C ) :   1.2474 B( 18-C , 21-H ) :   0.9872
B( 19-C , 20-C ) :   1.5970 B( 19-C , 22-C ) :   1.0695 B( 22-C , 23-H ) :   0.9221
B( 22-C , 24-H ) :   0.9280 B( 22-C , 25-C ) :   1.0532 B( 25-C , 26-H ) :   0.9501
B( 25-C , 27-H ) :   0.9540 B( 25-C , 28-C ) :   1.0685 B( 28-C , 29-H ) :   0.9741
B( 28-C , 30-H ) :   0.9776 B( 28-C , 31-H ) :   0.9745

Dispersion correction           -0.014680602
FINAL SINGLE POINT ENERGY     -1339.865306223581

DIPOLE MOMENT
-------------
                                X             Y             Z
Electronic contribution:     -3.62045      23.90214       9.73779
Nuclear contribution   :      3.43570     -24.46131     -10.13610
                        -----------------------------------------
Total Dipole Moment    :     -0.18475      -0.55918      -0.39830
                        -----------------------------------------
Magnitude (a.u.)       :      0.71096
Magnitude (Debye)      :      1.80711

Rotational constants in cm-1:     0.017892     0.008838     0.006964
Rotational constants in MHz :   536.374803   264.967407   208.765869

                             ****ORCA TERMINATED NORMALLY****
TOTAL RUN TIME: 0 days 0 hours 0 minutes 21 seconds 889 msec
