                         Program Version 4.2.1 -  RELEASE  -
|  1> ! wB97X-D3 SP def2-SVP
|  2> %pal
|  3> nprocs 24
|  4> end
|  5>
|  6> * xyz 0 1
|  7> S 	 -129.592 	 61.7093 	 -57.6137
|  8> C 	 -128.717 	 63.2417 	 -57.8512
|  9> C 	 -127.35 	 62.997 	 -57.7881
| 10> C 	 -127.05 	 61.6283 	 -57.6158
| 11> C 	 -128.157 	 60.7678 	 -57.5002
| 12> H 	 -126.003 	 61.2745 	 -57.4482
| 13> C 	 -126.364 	 64.1763 	 -58.0249
| 14> H 	 -125.336 	 63.8795 	 -57.6613
| 15> H 	 -126.656 	 64.8683 	 -57.2027
| 16> C 	 -126.494 	 64.7992 	 -59.4592
| 17> H 	 -126.146 	 63.9243 	 -60.1141
| 18> H 	 -127.557 	 65.0195 	 -59.5955
| 19> C 	 -125.581 	 66.0496 	 -59.622
| 20> H 	 -125.922 	 66.3869 	 -60.5951
| 21> H 	 -125.759 	 66.8347 	 -58.9563
| 22> H 	 -124.483 	 65.8652 	 -59.6407
| 23> S 	 -129.244 	 58.3019 	 -58.0885
| 24> C 	 -128.631 	 56.9202 	 -57.2318
| 25> C 	 -127.557 	 57.1828 	 -56.3676
| 26> C 	 -127.38 	 58.5658 	 -56.2575
| 27> C 	 -128.12 	 59.3656 	 -57.124
| 28> H 	 -127.047 	 56.4457 	 -55.724
| 29> C 	 -126.552 	 59.077 	 -55.1295
| 30> H 	 -126.715 	 60.2269 	 -55.1539
| 31> H 	 -125.504 	 58.924 	 -55.1424
| 32> C 	 -127.086 	 58.6868 	 -53.7981
| 33> H 	 -126.925 	 57.6155 	 -53.778
| 34> H 	 -128.205 	 58.6849 	 -53.5564
| 35> C 	 -126.279 	 59.3742 	 -52.7433
| 36> H 	 -125.165 	 59.2378 	 -52.8208
| 37> H 	 -126.652 	 58.87 	 -51.8387
| 38> H 	 -126.511 	 60.4326 	 -52.8365
| 39> H 	 -129.031 	 64.1528 	 -58.2079
| 40> H 	 -128.94 	 55.9385 	 -57.4364
| 41> *
| 42>
| 43>                          ****END OF INPUT****

CARTESIAN COORDINATES (ANGSTROEM)
---------------------------------
  S    -129.592000   61.709300  -57.613700
  C    -128.717000   63.241700  -57.851200
  C    -127.350000   62.997000  -57.788100
  C    -127.050000   61.628300  -57.615800
  C    -128.157000   60.767800  -57.500200
  H    -126.003000   61.274500  -57.448200
  C    -126.364000   64.176300  -58.024900
  H    -125.336000   63.879500  -57.661300
  H    -126.656000   64.868300  -57.202700
  C    -126.494000   64.799200  -59.459200
  H    -126.146000   63.924300  -60.114100
  H    -127.557000   65.019500  -59.595500
  C    -125.581000   66.049600  -59.622000
  H    -125.922000   66.386900  -60.595100
  H    -125.759000   66.834700  -58.956300
  H    -124.483000   65.865200  -59.640700
  S    -129.244000   58.301900  -58.088500
  C    -128.631000   56.920200  -57.231800
  C    -127.557000   57.182800  -56.367600
  C    -127.380000   58.565800  -56.257500
  C    -128.120000   59.365600  -57.124000
  H    -127.047000   56.445700  -55.724000
  C    -126.552000   59.077000  -55.129500
  H    -126.715000   60.226900  -55.153900
  H    -125.504000   58.924000  -55.142400
  C    -127.086000   58.686800  -53.798100
  H    -126.925000   57.615500  -53.778000
  H    -128.205000   58.684900  -53.556400
  C    -126.279000   59.374200  -52.743300
  H    -125.165000   59.237800  -52.820800
  H    -126.652000   58.870000  -51.838700
  H    -126.511000   60.432600  -52.836500
  H    -129.031000   64.152800  -58.207900
  H    -128.940000   55.938500  -57.436400

 Total Charge           Charge          ....    0
 Multiplicity           Mult            ....    1
 Number of Electrons    NEL             ....  134
 Basis Dimension        Dim             ....  322

ORBITAL ENERGIES
----------------

  NO   OCC          E(Eh)            E(eV)
   0   2.0000     -88.968054     -2420.9438
   1   2.0000     -88.966726     -2420.9077
   2   2.0000     -10.331269      -281.1281
   3   2.0000     -10.330857      -281.1169
   4   2.0000     -10.319138      -280.7980
   5   2.0000     -10.307734      -280.4877
   6   2.0000     -10.303009      -280.3591
   7   2.0000     -10.301987      -280.3313
   8   2.0000     -10.299488      -280.2633
   9   2.0000     -10.298687      -280.2415
  10   2.0000     -10.295918      -280.1662
  11   2.0000     -10.295239      -280.1477
  12   2.0000     -10.286853      -279.9195
  13   2.0000     -10.282116      -279.7906
  14   2.0000     -10.280570      -279.7485
  15   2.0000     -10.279212      -279.7116
  16   2.0000      -8.082284      -219.9301
  17   2.0000      -8.080790      -219.8895
  18   2.0000      -6.040899      -164.3812
  19   2.0000      -6.039191      -164.3347
  20   2.0000      -6.036689      -164.2667
  21   2.0000      -6.035433      -164.2325
  22   2.0000      -6.033113      -164.1693
  23   2.0000      -6.031659      -164.1298
  24   2.0000      -1.003758       -27.3136
  25   2.0000      -0.982581       -26.7374
  26   2.0000      -0.922778       -25.1101
  27   2.0000      -0.905300       -24.6345
  28   2.0000      -0.866633       -23.5823
  29   2.0000      -0.856664       -23.3110
  30   2.0000      -0.842104       -22.9148
  31   2.0000      -0.810730       -22.0611
  32   2.0000      -0.780818       -21.2471
  33   2.0000      -0.769385       -20.9360
  34   2.0000      -0.707052       -19.2399
  35   2.0000      -0.701256       -19.0822
  36   2.0000      -0.695839       -18.9347
  37   2.0000      -0.663515       -18.0552
  38   2.0000      -0.633761       -17.2455
  39   2.0000      -0.614425       -16.7193
  40   2.0000      -0.602260       -16.3883
  41   2.0000      -0.570175       -15.5152
  42   2.0000      -0.569111       -15.4863
  43   2.0000      -0.556153       -15.1337
  44   2.0000      -0.529687       -14.4135
  45   2.0000      -0.527600       -14.3567
  46   2.0000      -0.516383       -14.0515
  47   2.0000      -0.514763       -14.0074
  48   2.0000      -0.511457       -13.9175
  49   2.0000      -0.498856       -13.5746
  50   2.0000      -0.491748       -13.3811
  51   2.0000      -0.472300       -12.8519
  52   2.0000      -0.470741       -12.8095
  53   2.0000      -0.465720       -12.6729
  54   2.0000      -0.460587       -12.5332
  55   2.0000      -0.449084       -12.2202
  56   2.0000      -0.443141       -12.0585
  57   2.0000      -0.440549       -11.9879
  58   2.0000      -0.429976       -11.7002
  59   2.0000      -0.422150       -11.4873
  60   2.0000      -0.413713       -11.2577
  61   2.0000      -0.411862       -11.2073
  62   2.0000      -0.397536       -10.8175
  63   2.0000      -0.343153        -9.3377
  64   2.0000      -0.335128        -9.1193
  65   2.0000      -0.330754        -9.0003
  66   2.0000      -0.286844        -7.8054
  67   0.0000       0.021475         0.5844
  68   0.0000       0.069035         1.8786
  69   0.0000       0.105775         2.8783
  70   0.0000       0.123076         3.3491
  71   0.0000       0.134345         3.6557

MULLIKEN ATOMIC CHARGES
-----------------------
   0 S :    0.117889
   1 C :   -0.085964
   2 C :   -0.118630
   3 C :    0.017134
   4 C :   -0.131235
   5 H :    0.021074
   6 C :    0.022765
   7 H :    0.024711
   8 H :    0.035516
   9 C :   -0.098427
  10 H :    0.058891
  11 H :    0.036728
  12 C :   -0.018953
  13 H :    0.029870
  14 H :    0.022668
  15 H :    0.046377
  16 S :    0.093699
  17 C :   -0.061563
  18 C :   -0.047192
  19 C :   -0.005688
  20 C :   -0.150415
  21 H :    0.038348
  22 C :    0.022878
  23 H :    0.033057
  24 H :    0.025402
  25 C :   -0.118313
  26 H :    0.003229
  27 H :    0.051307
  28 C :   -0.028220
  29 H :    0.036331
  30 H :    0.036972
  31 H :    0.038323
  32 H :    0.012295
  33 H :    0.039138
Sum of atomic charges:    0.0000000

LOEWDIN ATOMIC CHARGES
----------------------
   0 S :    0.417103
   1 C :   -0.188097
   2 C :   -0.063789
   3 C :   -0.075171
   4 C :   -0.212470
   5 H :    0.035361
   6 C :   -0.045626
   7 H :    0.029800
   8 H :    0.032061
   9 C :   -0.036433
  10 H :    0.041589
  11 H :    0.024647
  12 C :   -0.064313
  13 H :    0.029391
  14 H :    0.016818
  15 H :    0.033379
  16 S :    0.385072
  17 C :   -0.165694
  18 C :   -0.074014
  19 C :   -0.051625
  20 C :   -0.179077
  21 H :    0.039289
  22 C :   -0.038622
  23 H :    0.037050
  24 H :    0.025663
  25 C :   -0.053115
  26 H :    0.012546
  27 H :    0.039199
  28 C :   -0.063568
  29 H :    0.029322
  30 H :    0.031432
  31 H :    0.026657
  32 H :    0.009770
  33 H :    0.015466

  Mayer bond orders larger than 0.100000
B(  0-S ,  1-C ) :   1.1367 B(  0-S ,  4-C ) :   1.1712 B(  1-C ,  2-C ) :   1.5725
B(  1-C ,  4-C ) :   0.1107 B(  1-C , 32-H ) :   0.9776 B(  2-C ,  3-C ) :   1.3049
B(  2-C ,  6-C ) :   1.0000 B(  3-C ,  4-C ) :   1.5055 B(  3-C ,  5-H ) :   0.9905
B(  4-C , 20-C ) :   1.0462 B(  6-C ,  7-H ) :   0.9497 B(  6-C ,  8-H ) :   0.9424
B(  6-C ,  9-C ) :   1.0429 B(  9-C , 10-H ) :   0.9567 B(  9-C , 11-H ) :   0.9580
B(  9-C , 12-C ) :   1.0704 B( 12-C , 13-H ) :   0.9747 B( 12-C , 14-H ) :   0.9761
B( 12-C , 15-H ) :   0.9761 B( 16-S , 17-C ) :   1.1820 B( 16-S , 20-C ) :   1.1076
B( 17-C , 18-C ) :   1.5817 B( 17-C , 20-C ) :   0.1074 B( 17-C , 33-H ) :   0.9696
B( 18-C , 19-C ) :   1.2530 B( 18-C , 21-H ) :   0.9837 B( 19-C , 20-C ) :   1.6040
B( 19-C , 22-C ) :   1.0284 B( 22-C , 23-H ) :   0.9443 B( 22-C , 24-H ) :   0.9324
B( 22-C , 25-C ) :   1.0589 B( 25-C , 26-H ) :   0.9430 B( 25-C , 27-H ) :   0.9532
B( 25-C , 28-C ) :   1.0826 B( 28-C , 29-H ) :   0.9697 B( 28-C , 30-H ) :   0.9707
B( 28-C , 31-H ) :   0.9750

Dispersion correction           -0.013430012
FINAL SINGLE POINT ENERGY     -1339.848048029229

DIPOLE MOMENT
-------------
                                X             Y             Z
Electronic contribution:    -19.12991     -14.37822      -9.47906
Nuclear contribution   :     19.71648      14.49576       9.73353
                        -----------------------------------------
Total Dipole Moment    :      0.58658       0.11753       0.25447
                        -----------------------------------------
Magnitude (a.u.)       :      0.65011
Magnitude (Debye)      :      1.65245

Rotational constants in cm-1:     0.020323     0.007273     0.006041
Rotational constants in MHz :   609.278621   218.052861   181.107454

                             ****ORCA TERMINATED NORMALLY****
TOTAL RUN TIME: 0 days 0 hours 0 minutes 21 seconds 172 msec
