                         Program Version 4.2.1 -  RELEASE  -
|  1> ! wB97X-D3 SP def2-SVP
|  2> %pal
|  3> nprocs 24
|  4> end
|  5>
|  6> * xyz 0 1
|  7> S 	 -55.7189 	 3.19943 	 -22.8712
|  8> C 	 -57.3582 	 3.63308 	 -22.5829
|  9> C 	 -58.1253 	 3.09382 	 -23.5719
| 10> C 	 -57.4213 	 2.32612 	 -24.5463
| 11> C 	 -56.0785 	 2.29523 	 -24.3165
| 12> H 	 -57.7456 	 1.68865 	 -25.4071
| 13> C 	 -59.6495 	 3.14107 	 -23.5588
| 14> H 	 -59.9129 	 3.8282 	 -22.7171
| 15> H 	 -60.0156 	 2.08057 	 -23.3102
| 16> C 	 -60.2294 	 3.74665 	 -24.7897
| 17> H 	 -59.4694 	 4.56758 	 -25.1763
| 18> H 	 -60.193 	 2.9542 	 -25.5943
| 19> C 	 -61.6387 	 4.32224 	 -24.7206
| 20> H 	 -62.1073 	 4.08742 	 -25.6581
| 21> H 	 -62.2149 	 3.78427 	 -23.8958
| 22> H 	 -61.6324 	 5.42965 	 -24.6052
| 23> S 	 -54.3181 	 0.189591 	 -24.8255
| 24> C 	 -53.843 	 -0.0796934 	 -26.5117
| 25> C 	 -54.2623 	 0.955201 	 -27.3304
| 26> C 	 -54.9208 	 2.02155 	 -26.6197
| 27> C 	 -55.0814 	 1.7147 	 -25.2877
| 28> H 	 -54.0893 	 0.780306 	 -28.3884
| 29> C 	 -55.4837 	 3.15925 	 -27.4018
| 30> H 	 -54.541 	 3.46569 	 -27.8736
| 31> H 	 -55.8214 	 3.84258 	 -26.6434
| 32> C 	 -56.6325 	 3.08231 	 -28.4611
| 33> H 	 -56.8433 	 4.0563 	 -28.891
| 34> H 	 -57.4921 	 2.89725 	 -27.8484
| 35> C 	 -56.483 	 2.09974 	 -29.5805
| 36> H 	 -57.3141 	 2.33214 	 -30.2559
| 37> H 	 -56.5717 	 1.13184 	 -29.0278
| 38> H 	 -55.4409 	 2.14294 	 -30.0204
| 39> H 	 -57.6384 	 4.20492 	 -21.7371
| 40> H 	 -53.3618 	 -1.01018 	 -26.8552
| 41> *
| 42>
| 43>                          ****END OF INPUT****

CARTESIAN COORDINATES (ANGSTROEM)
---------------------------------
  S    -55.718900    3.199430  -22.871200
  C    -57.358200    3.633080  -22.582900
  C    -58.125300    3.093820  -23.571900
  C    -57.421300    2.326120  -24.546300
  C    -56.078500    2.295230  -24.316500
  H    -57.745600    1.688650  -25.407100
  C    -59.649500    3.141070  -23.558800
  H    -59.912900    3.828200  -22.717100
  H    -60.015600    2.080570  -23.310200
  C    -60.229400    3.746650  -24.789700
  H    -59.469400    4.567580  -25.176300
  H    -60.193000    2.954200  -25.594300
  C    -61.638700    4.322240  -24.720600
  H    -62.107300    4.087420  -25.658100
  H    -62.214900    3.784270  -23.895800
  H    -61.632400    5.429650  -24.605200
  S    -54.318100    0.189591  -24.825500
  C    -53.843000   -0.079693  -26.511700
  C    -54.262300    0.955201  -27.330400
  C    -54.920800    2.021550  -26.619700
  C    -55.081400    1.714700  -25.287700
  H    -54.089300    0.780306  -28.388400
  C    -55.483700    3.159250  -27.401800
  H    -54.541000    3.465690  -27.873600
  H    -55.821400    3.842580  -26.643400
  C    -56.632500    3.082310  -28.461100
  H    -56.843300    4.056300  -28.891000
  H    -57.492100    2.897250  -27.848400
  C    -56.483000    2.099740  -29.580500
  H    -57.314100    2.332140  -30.255900
  H    -56.571700    1.131840  -29.027800
  H    -55.440900    2.142940  -30.020400
  H    -57.638400    4.204920  -21.737100
  H    -53.361800   -1.010180  -26.855200

 Total Charge           Charge          ....    0
 Multiplicity           Mult            ....    1
 Number of Electrons    NEL             ....  134
 Basis Dimension        Dim             ....  322

ORBITAL ENERGIES
----------------

  NO   OCC          E(Eh)            E(eV)
   0   2.0000     -88.964339     -2420.8427
   1   2.0000     -88.961007     -2420.7521
   2   2.0000     -10.329702      -281.0855
   3   2.0000     -10.327924      -281.0371
   4   2.0000     -10.322113      -280.8790
   5   2.0000     -10.311129      -280.5801
   6   2.0000     -10.307125      -280.4711
   7   2.0000     -10.299679      -280.2685
   8   2.0000     -10.295779      -280.1624
   9   2.0000     -10.295593      -280.1573
  10   2.0000     -10.294457      -280.1264
  11   2.0000     -10.293747      -280.1071
  12   2.0000     -10.288193      -279.9560
  13   2.0000     -10.285556      -279.8842
  14   2.0000     -10.285185      -279.8741
  15   2.0000     -10.285165      -279.8736
  16   2.0000      -8.078703      -219.8327
  17   2.0000      -8.076747      -219.7795
  18   2.0000      -6.037224      -164.2812
  19   2.0000      -6.035115      -164.2238
  20   2.0000      -6.033333      -164.1753
  21   2.0000      -6.031005      -164.1120
  22   2.0000      -6.029400      -164.0683
  23   2.0000      -6.027691      -164.0218
  24   2.0000      -1.008622       -27.4460
  25   2.0000      -0.986533       -26.8449
  26   2.0000      -0.912318       -24.8254
  27   2.0000      -0.911157       -24.7938
  28   2.0000      -0.869762       -23.6674
  29   2.0000      -0.855790       -23.2872
  30   2.0000      -0.846278       -23.0284
  31   2.0000      -0.819132       -22.2897
  32   2.0000      -0.782468       -21.2920
  33   2.0000      -0.771693       -20.9988
  34   2.0000      -0.707340       -19.2477
  35   2.0000      -0.690455       -18.7882
  36   2.0000      -0.682090       -18.5606
  37   2.0000      -0.659499       -17.9459
  38   2.0000      -0.647558       -17.6210
  39   2.0000      -0.614491       -16.7211
  40   2.0000      -0.581407       -15.8209
  41   2.0000      -0.571105       -15.5406
  42   2.0000      -0.565351       -15.3840
  43   2.0000      -0.558339       -15.1932
  44   2.0000      -0.552155       -15.0249
  45   2.0000      -0.526486       -14.3264
  46   2.0000      -0.523727       -14.2513
  47   2.0000      -0.516453       -14.0534
  48   2.0000      -0.503719       -13.7069
  49   2.0000      -0.497911       -13.5489
  50   2.0000      -0.490003       -13.3337
  51   2.0000      -0.479812       -13.0563
  52   2.0000      -0.474897       -12.9226
  53   2.0000      -0.464727       -12.6459
  54   2.0000      -0.461027       -12.5452
  55   2.0000      -0.443474       -12.0675
  56   2.0000      -0.441123       -12.0036
  57   2.0000      -0.437066       -11.8932
  58   2.0000      -0.429071       -11.6756
  59   2.0000      -0.426241       -11.5986
  60   2.0000      -0.415816       -11.3149
  61   2.0000      -0.405660       -11.0386
  62   2.0000      -0.401028       -10.9125
  63   2.0000      -0.341142        -9.2830
  64   2.0000      -0.329674        -8.9709
  65   2.0000      -0.324625        -8.8335
  66   2.0000      -0.308172        -8.3858
  67   0.0000       0.041714         1.1351
  68   0.0000       0.062464         1.6997
  69   0.0000       0.116534         3.1711
  70   0.0000       0.119797         3.2598
  71   0.0000       0.125720         3.4210

MULLIKEN ATOMIC CHARGES
-----------------------
   0 S :    0.101322
   1 C :   -0.109616
   2 C :   -0.092198
   3 C :    0.018765
   4 C :   -0.166887
   5 H :    0.039887
   6 C :    0.069267
   7 H :    0.012964
   8 H :    0.057696
   9 C :   -0.159750
  10 H :    0.049911
  11 H :    0.032641
  12 C :   -0.034598
  13 H :    0.030103
  14 H :    0.042897
  15 H :    0.049211
  16 S :    0.097813
  17 C :   -0.112021
  18 C :   -0.055041
  19 C :   -0.027965
  20 C :   -0.161767
  21 H :    0.024930
  22 C :    0.056100
  23 H :    0.034180
  24 H :    0.030257
  25 C :   -0.045515
  26 H :    0.022849
  27 H :    0.011336
  28 C :   -0.066018
  29 H :    0.049457
  30 H :    0.045588
  31 H :    0.045368
  32 H :    0.041314
  33 H :    0.067521
Sum of atomic charges:    0.0000000

LOEWDIN ATOMIC CHARGES
----------------------
   0 S :    0.414057
   1 C :   -0.195353
   2 C :   -0.069835
   3 C :   -0.072686
   4 C :   -0.200593
   5 H :    0.044348
   6 C :   -0.041670
   7 H :    0.027920
   8 H :    0.040942
   9 C :   -0.064155
  10 H :    0.036604
  11 H :    0.022821
  12 C :   -0.071863
  13 H :    0.025856
  14 H :    0.034604
  15 H :    0.032450
  16 S :    0.385044
  17 C :   -0.176110
  18 C :   -0.077427
  19 C :   -0.054278
  20 C :   -0.196586
  21 H :    0.034526
  22 C :   -0.035145
  23 H :    0.037149
  24 H :    0.032820
  25 C :   -0.038276
  26 H :    0.023732
  27 H :    0.019452
  28 C :   -0.072781
  29 H :    0.033071
  30 H :    0.032483
  31 H :    0.029763
  32 H :    0.025314
  33 H :    0.033803

  Mayer bond orders larger than 0.100000
B(  0-S ,  1-C ) :   1.1427 B(  0-S ,  4-C ) :   1.1658 B(  1-C ,  2-C ) :   1.6056
B(  1-C , 32-H ) :   0.9813 B(  2-C ,  3-C ) :   1.2127 B(  2-C ,  6-C ) :   1.0265
B(  3-C ,  4-C ) :   1.5989 B(  3-C ,  5-H ) :   0.9902 B(  4-C , 20-C ) :   0.9757
B(  6-C ,  7-H ) :   0.9429 B(  6-C ,  8-H ) :   0.9343 B(  6-C ,  9-C ) :   1.0551
B(  9-C , 10-H ) :   0.9584 B(  9-C , 11-H ) :   0.9544 B(  9-C , 12-C ) :   1.0718
B( 12-C , 13-H ) :   0.9750 B( 12-C , 14-H ) :   0.9747 B( 12-C , 15-H ) :   0.9757
B( 16-S , 17-C ) :   1.1470 B( 16-S , 20-C ) :   1.1347 B( 17-C , 18-C ) :   1.6443
B( 17-C , 33-H ) :   0.9630 B( 18-C , 19-C ) :   1.1866 B( 18-C , 21-H ) :   0.9902
B( 19-C , 20-C ) :   1.6290 B( 19-C , 22-C ) :   1.0338 B( 22-C , 23-H ) :   0.9280
B( 22-C , 24-H ) :   0.9300 B( 22-C , 25-C ) :   1.0740 B( 25-C , 26-H ) :   0.9509
B( 25-C , 27-H ) :   0.9513 B( 25-C , 28-C ) :   1.0779 B( 28-C , 29-H ) :   0.9692
B( 28-C , 30-H ) :   0.9707 B( 28-C , 31-H ) :   0.9725

Dispersion correction           -0.014900225
FINAL SINGLE POINT ENERGY     -1339.863406242262

DIPOLE MOMENT
-------------
                                X             Y             Z
Electronic contribution:     22.97616      -9.35374      17.80247
Nuclear contribution   :    -23.57252       9.42805     -18.34686
                        -----------------------------------------
Total Dipole Moment    :     -0.59636       0.07431      -0.54439
                        -----------------------------------------
Magnitude (a.u.)       :      0.81088
Magnitude (Debye)      :      2.06110

Rotational constants in cm-1:     0.017317     0.009321     0.006772
Rotational constants in MHz :   519.142714   279.443870   203.032764

                             ****ORCA TERMINATED NORMALLY****
TOTAL RUN TIME: 0 days 0 hours 0 minutes 22 seconds 25 msec
