                         Program Version 4.2.1 -  RELEASE  -
|  1> ! wB97X-D3 SP def2-SVP
|  2> %pal
|  3> nprocs 24
|  4> end
|  5>
|  6> * xyz 0 1
|  7> S 	 -115.831 	 20.8647 	 -113.502
|  8> C 	 -117.453 	 21.4374 	 -114.027
|  9> C 	 -118.436 	 20.4423 	 -113.858
| 10> C 	 -117.837 	 19.2992 	 -113.202
| 11> C 	 -116.428 	 19.2826 	 -113.073
| 12> H 	 -118.474 	 18.4596 	 -112.911
| 13> C 	 -119.907 	 20.5778 	 -114.142
| 14> H 	 -120.079 	 19.983 	 -114.994
| 15> H 	 -120.035 	 21.5517 	 -114.59
| 16> C 	 -120.939 	 20.2389 	 -113.028
| 17> H 	 -120.528 	 19.5551 	 -112.217
| 18> H 	 -121.227 	 21.1403 	 -112.529
| 19> C 	 -122.253 	 19.6361 	 -113.511
| 20> H 	 -122.687 	 20.3154 	 -114.241
| 21> H 	 -122.017 	 18.657 	 -113.955
| 22> H 	 -122.982 	 19.5791 	 -112.756
| 23> S 	 -114.627 	 19.0947 	 -111.073
| 24> C 	 -113.941 	 17.5927 	 -110.614
| 25> C 	 -114.347 	 16.5905 	 -111.507
| 26> C 	 -115.256 	 16.9871 	 -112.537
| 27> C 	 -115.533 	 18.3332 	 -112.41
| 28> H 	 -114.032 	 15.5934 	 -111.401
| 29> C 	 -115.816 	 16.0367 	 -113.524
| 30> H 	 -116.952 	 16.1434 	 -113.6
| 31> H 	 -115.647 	 15.0985 	 -113.007
| 32> C 	 -115.257 	 16.1064 	 -114.98
| 33> H 	 -115.398 	 15.1562 	 -115.454
| 34> H 	 -114.164 	 16.2729 	 -114.963
| 35> C 	 -115.794 	 17.0615 	 -115.995
| 36> H 	 -115.276 	 16.9939 	 -116.984
| 37> H 	 -115.616 	 18.0394 	 -115.606
| 38> H 	 -116.905 	 17.0557 	 -116.133
| 39> H 	 -117.672 	 22.3692 	 -114.6
| 40> H 	 -113.244 	 17.4812 	 -109.875
| 41> *
| 42>
| 43>                          ****END OF INPUT****

CARTESIAN COORDINATES (ANGSTROEM)
---------------------------------
  S    -115.831000   20.864700  -113.502000
  C    -117.453000   21.437400  -114.027000
  C    -118.436000   20.442300  -113.858000
  C    -117.837000   19.299200  -113.202000
  C    -116.428000   19.282600  -113.073000
  H    -118.474000   18.459600  -112.911000
  C    -119.907000   20.577800  -114.142000
  H    -120.079000   19.983000  -114.994000
  H    -120.035000   21.551700  -114.590000
  C    -120.939000   20.238900  -113.028000
  H    -120.528000   19.555100  -112.217000
  H    -121.227000   21.140300  -112.529000
  C    -122.253000   19.636100  -113.511000
  H    -122.687000   20.315400  -114.241000
  H    -122.017000   18.657000  -113.955000
  H    -122.982000   19.579100  -112.756000
  S    -114.627000   19.094700  -111.073000
  C    -113.941000   17.592700  -110.614000
  C    -114.347000   16.590500  -111.507000
  C    -115.256000   16.987100  -112.537000
  C    -115.533000   18.333200  -112.410000
  H    -114.032000   15.593400  -111.401000
  C    -115.816000   16.036700  -113.524000
  H    -116.952000   16.143400  -113.600000
  H    -115.647000   15.098500  -113.007000
  C    -115.257000   16.106400  -114.980000
  H    -115.398000   15.156200  -115.454000
  H    -114.164000   16.272900  -114.963000
  C    -115.794000   17.061500  -115.995000
  H    -115.276000   16.993900  -116.984000
  H    -115.616000   18.039400  -115.606000
  H    -116.905000   17.055700  -116.133000
  H    -117.672000   22.369200  -114.600000
  H    -113.244000   17.481200  -109.875000

 Total Charge           Charge          ....    0
 Multiplicity           Mult            ....    1
 Number of Electrons    NEL             ....  134
 Basis Dimension        Dim             ....  322

ORBITAL ENERGIES
----------------

  NO   OCC          E(Eh)            E(eV)
   0   2.0000     -88.967460     -2420.9277
   1   2.0000     -88.964592     -2420.8496
   2   2.0000     -10.334480      -281.2155
   3   2.0000     -10.328481      -281.0523
   4   2.0000     -10.321762      -280.8694
   5   2.0000     -10.312661      -280.6218
   6   2.0000     -10.306462      -280.4531
   7   2.0000     -10.302794      -280.3533
   8   2.0000     -10.299097      -280.2527
   9   2.0000     -10.298137      -280.2266
  10   2.0000     -10.292850      -280.0827
  11   2.0000     -10.292591      -280.0756
  12   2.0000     -10.292018      -280.0600
  13   2.0000     -10.283120      -279.8179
  14   2.0000     -10.277562      -279.6667
  15   2.0000     -10.272170      -279.5200
  16   2.0000      -8.081097      -219.8978
  17   2.0000      -8.079564      -219.8561
  18   2.0000      -6.039719      -164.3491
  19   2.0000      -6.037985      -164.3019
  20   2.0000      -6.035660      -164.2387
  21   2.0000      -6.033903      -164.1908
  22   2.0000      -6.031879      -164.1358
  23   2.0000      -6.030515      -164.0986
  24   2.0000      -1.003792       -27.3146
  25   2.0000      -0.977545       -26.6003
  26   2.0000      -0.913333       -24.8530
  27   2.0000      -0.909823       -24.7576
  28   2.0000      -0.869351       -23.6563
  29   2.0000      -0.858328       -23.3563
  30   2.0000      -0.841845       -22.9078
  31   2.0000      -0.809681       -22.0326
  32   2.0000      -0.786306       -21.3965
  33   2.0000      -0.775300       -21.0970
  34   2.0000      -0.709265       -19.3001
  35   2.0000      -0.697951       -18.9922
  36   2.0000      -0.691834       -18.8258
  37   2.0000      -0.669472       -18.2173
  38   2.0000      -0.636045       -17.3077
  39   2.0000      -0.617597       -16.8057
  40   2.0000      -0.598081       -16.2746
  41   2.0000      -0.567274       -15.4363
  42   2.0000      -0.561427       -15.2772
  43   2.0000      -0.555491       -15.1157
  44   2.0000      -0.539924       -14.6921
  45   2.0000      -0.524397       -14.2696
  46   2.0000      -0.519160       -14.1271
  47   2.0000      -0.514308       -13.9950
  48   2.0000      -0.501011       -13.6332
  49   2.0000      -0.496966       -13.5231
  50   2.0000      -0.494917       -13.4674
  51   2.0000      -0.485649       -13.2152
  52   2.0000      -0.473582       -12.8868
  53   2.0000      -0.462608       -12.5882
  54   2.0000      -0.454494       -12.3674
  55   2.0000      -0.450055       -12.2466
  56   2.0000      -0.444332       -12.0909
  57   2.0000      -0.439416       -11.9571
  58   2.0000      -0.429900       -11.6982
  59   2.0000      -0.421658       -11.4739
  60   2.0000      -0.421324       -11.4648
  61   2.0000      -0.418603       -11.3908
  62   2.0000      -0.405206       -11.0262
  63   2.0000      -0.341961        -9.3052
  64   2.0000      -0.332256        -9.0411
  65   2.0000      -0.327086        -8.9005
  66   2.0000      -0.289649        -7.8818
  67   0.0000       0.028437         0.7738
  68   0.0000       0.062444         1.6992
  69   0.0000       0.108490         2.9522
  70   0.0000       0.116600         3.1729
  71   0.0000       0.129084         3.5126

MULLIKEN ATOMIC CHARGES
-----------------------
   0 S :    0.099896
   1 C :   -0.138081
   2 C :   -0.124796
   3 C :    0.029151
   4 C :   -0.153072
   5 H :    0.012891
   6 C :    0.132694
   7 H :    0.017660
   8 H :    0.004479
   9 C :   -0.093775
  10 H :    0.047471
  11 H :    0.028158
  12 C :   -0.045675
  13 H :    0.027883
  14 H :    0.038941
  15 H :    0.026963
  16 S :    0.107620
  17 C :   -0.041503
  18 C :   -0.039922
  19 C :   -0.022743
  20 C :   -0.167407
  21 H :   -0.003548
  22 C :    0.070190
  23 H :    0.040652
  24 H :    0.016535
  25 C :   -0.055599
  26 H :    0.020899
  27 H :    0.030902
  28 C :   -0.051140
  29 H :    0.044073
  30 H :    0.023316
  31 H :    0.028560
  32 H :    0.063378
  33 H :    0.024950
Sum of atomic charges:    0.0000000

LOEWDIN ATOMIC CHARGES
----------------------
   0 S :    0.391753
   1 C :   -0.198965
   2 C :   -0.058272
   3 C :   -0.066252
   4 C :   -0.201724
   5 H :    0.026327
   6 C :   -0.031933
   7 H :    0.029314
   8 H :    0.032012
   9 C :   -0.040673
  10 H :    0.032116
  11 H :    0.022925
  12 C :   -0.059201
  13 H :    0.024662
  14 H :    0.026391
  15 H :    0.020830
  16 S :    0.413845
  17 C :   -0.179352
  18 C :   -0.064668
  19 C :   -0.059199
  20 C :   -0.187177
  21 H :    0.019580
  22 C :   -0.033465
  23 H :    0.041703
  24 H :    0.033601
  25 C :   -0.042866
  26 H :    0.020892
  27 H :    0.029733
  28 C :   -0.069807
  29 H :    0.035119
  30 H :    0.019218
  31 H :    0.025834
  32 H :    0.036411
  33 H :    0.011287

  Mayer bond orders larger than 0.100000
B(  0-S ,  1-C ) :   1.1318 B(  0-S ,  4-C ) :   1.1459 B(  1-C ,  2-C ) :   1.6078
B(  1-C ,  4-C ) :   0.1043 B(  1-C , 32-H ) :   0.9554 B(  2-C ,  3-C ) :   1.2546
B(  2-C ,  6-C ) :   1.0284 B(  3-C ,  4-C ) :   1.5644 B(  3-C ,  5-H ) :   0.9832
B(  4-C , 20-C ) :   1.0251 B(  6-C ,  7-H ) :   0.9333 B(  6-C ,  8-H ) :   0.9274
B(  6-C ,  9-C ) :   1.0286 B(  9-C , 10-H ) :   0.9651 B(  9-C , 11-H ) :   0.9574
B(  9-C , 12-C ) :   1.0849 B( 12-C , 13-H ) :   0.9754 B( 12-C , 14-H ) :   0.9771
B( 12-C , 15-H ) :   0.9732 B( 16-S , 17-C ) :   1.1645 B( 16-S , 20-C ) :   1.1494
B( 17-C , 18-C ) :   1.5783 B( 17-C , 20-C ) :   0.1030 B( 17-C , 33-H ) :   0.9822
B( 18-C , 19-C ) :   1.2556 B( 18-C , 21-H ) :   0.9906 B( 19-C , 20-C ) :   1.5831
B( 19-C , 22-C ) :   1.0433 B( 22-C , 23-H ) :   0.9346 B( 22-C , 24-H ) :   0.9242
B( 22-C , 25-C ) :   1.0549 B( 25-C , 26-H ) :   0.9556 B( 25-C , 27-H ) :   0.9538
B( 25-C , 28-C ) :   1.0890 B( 28-C , 29-H ) :   0.9679 B( 28-C , 30-H ) :   0.9719
B( 28-C , 31-H ) :   0.9707

Dispersion correction           -0.014415116
FINAL SINGLE POINT ENERGY     -1339.868555053827

DIPOLE MOMENT
-------------
                                X             Y             Z
Electronic contribution:     20.99018       9.71271      13.15015
Nuclear contribution   :    -21.50866     -10.05874     -13.32020
                        -----------------------------------------
Total Dipole Moment    :     -0.51848      -0.34603      -0.17004
                        -----------------------------------------
Magnitude (a.u.)       :      0.64612
Magnitude (Debye)      :      1.64231

Rotational constants in cm-1:     0.018553     0.008248     0.007360
Rotational constants in MHz :   556.194608   247.277173   220.658404

                             ****ORCA TERMINATED NORMALLY****
TOTAL RUN TIME: 0 days 0 hours 0 minutes 21 seconds 615 msec
