                         Program Version 4.2.1 -  RELEASE  -
|  1> ! wB97X-D3 SP def2-SVP
|  2> %pal
|  3> nprocs 24
|  4> end
|  5>
|  6> * xyz 0 1
|  7> S 	 -40.2612 	 -7.56527 	 9.19697
|  8> C 	 -40.8158 	 -9.03439 	 9.78841
|  9> C 	 -40.6794 	 -10.1045 	 8.89059
| 10> C 	 -39.965 	 -9.69959 	 7.74759
| 11> C 	 -39.7899 	 -8.315 	 7.64326
| 12> H 	 -39.7387 	 -10.3073 	 6.82803
| 13> C 	 -41.1904 	 -11.569 	 9.0686
| 14> H 	 -40.8872 	 -12.1931 	 8.21901
| 15> H 	 -42.2494 	 -11.6337 	 9.09198
| 16> C 	 -40.7327 	 -12.249 	 10.3506
| 17> H 	 -39.791 	 -11.9204 	 10.4714
| 18> H 	 -41.3387 	 -12.0167 	 11.2676
| 19> C 	 -40.6636 	 -13.7981 	 10.2931
| 20> H 	 -41.5997 	 -14.3163 	 10.2756
| 21> H 	 -40.0374 	 -14.1123 	 9.45107
| 22> H 	 -40.184 	 -14.1335 	 11.1695
| 23> S 	 -37.6029 	 -6.81735 	 7.01652
| 24> C 	 -37.2121 	 -6.52408 	 5.36617
| 25> C 	 -38.1286 	 -7.12377 	 4.52223
| 26> C 	 -39.1511 	 -7.86836 	 5.21183
| 27> C 	 -38.9962 	 -7.70263 	 6.59018
| 28> H 	 -38.0087 	 -7.06508 	 3.47601
| 29> C 	 -40.3613 	 -8.41396 	 4.52132
| 30> H 	 -40.8404 	 -9.18377 	 5.10244
| 31> H 	 -40.0378 	 -8.95158 	 3.60817
| 32> C 	 -41.3917 	 -7.364 	 4.14115
| 33> H 	 -40.8932 	 -6.47353 	 3.62933
| 34> H 	 -41.746 	 -6.98479 	 5.0445
| 35> C 	 -42.5708 	 -7.92175 	 3.30962
| 36> H 	 -42.8789 	 -7.23599 	 2.52733
| 37> H 	 -43.4806 	 -8.12211 	 3.91526
| 38> H 	 -42.2852 	 -8.90501 	 2.78024
| 39> H 	 -41.1967 	 -9.15183 	 10.8058
| 40> H 	 -36.4517 	 -5.78979 	 5.0038
| 41> *
| 42>
| 43>                          ****END OF INPUT****

CARTESIAN COORDINATES (ANGSTROEM)
---------------------------------
  S    -40.261200   -7.565270    9.196970
  C    -40.815800   -9.034390    9.788410
  C    -40.679400  -10.104500    8.890590
  C    -39.965000   -9.699590    7.747590
  C    -39.789900   -8.315000    7.643260
  H    -39.738700  -10.307300    6.828030
  C    -41.190400  -11.569000    9.068600
  H    -40.887200  -12.193100    8.219010
  H    -42.249400  -11.633700    9.091980
  C    -40.732700  -12.249000   10.350600
  H    -39.791000  -11.920400   10.471400
  H    -41.338700  -12.016700   11.267600
  C    -40.663600  -13.798100   10.293100
  H    -41.599700  -14.316300   10.275600
  H    -40.037400  -14.112300    9.451070
  H    -40.184000  -14.133500   11.169500
  S    -37.602900   -6.817350    7.016520
  C    -37.212100   -6.524080    5.366170
  C    -38.128600   -7.123770    4.522230
  C    -39.151100   -7.868360    5.211830
  C    -38.996200   -7.702630    6.590180
  H    -38.008700   -7.065080    3.476010
  C    -40.361300   -8.413960    4.521320
  H    -40.840400   -9.183770    5.102440
  H    -40.037800   -8.951580    3.608170
  C    -41.391700   -7.364000    4.141150
  H    -40.893200   -6.473530    3.629330
  H    -41.746000   -6.984790    5.044500
  C    -42.570800   -7.921750    3.309620
  H    -42.878900   -7.235990    2.527330
  H    -43.480600   -8.122110    3.915260
  H    -42.285200   -8.905010    2.780240
  H    -41.196700   -9.151830   10.805800
  H    -36.451700   -5.789790    5.003800

 Total Charge           Charge          ....    0
 Multiplicity           Mult            ....    1
 Number of Electrons    NEL             ....  134
 Basis Dimension        Dim             ....  322

ORBITAL ENERGIES
----------------

  NO   OCC          E(Eh)            E(eV)
   0   2.0000     -88.971685     -2421.0426
   1   2.0000     -88.964954     -2420.8595
   2   2.0000     -10.328059      -281.0408
   3   2.0000     -10.321759      -280.8694
   4   2.0000     -10.314820      -280.6805
   5   2.0000     -10.314527      -280.6726
   6   2.0000     -10.303807      -280.3808
   7   2.0000     -10.299886      -280.2742
   8   2.0000     -10.297006      -280.1958
   9   2.0000     -10.291174      -280.0371
  10   2.0000     -10.290074      -280.0071
  11   2.0000     -10.287390      -279.9341
  12   2.0000     -10.284104      -279.8447
  13   2.0000     -10.282452      -279.7997
  14   2.0000     -10.278375      -279.6888
  15   2.0000     -10.272823      -279.5377
  16   2.0000      -8.086742      -220.0514
  17   2.0000      -8.080992      -219.8950
  18   2.0000      -6.045016      -164.4933
  19   2.0000      -6.041094      -164.3865
  20   2.0000      -6.039343      -164.3389
  21   2.0000      -6.037858      -164.2985
  22   2.0000      -6.035258      -164.2277
  23   2.0000      -6.031906      -164.1365
  24   2.0000      -1.010859       -27.5069
  25   2.0000      -0.989038       -26.9131
  26   2.0000      -0.910602       -24.7787
  27   2.0000      -0.909935       -24.7606
  28   2.0000      -0.870623       -23.6908
  29   2.0000      -0.854411       -23.2497
  30   2.0000      -0.846709       -23.0401
  31   2.0000      -0.810227       -22.0474
  32   2.0000      -0.782829       -21.3018
  33   2.0000      -0.768613       -20.9150
  34   2.0000      -0.704552       -19.1718
  35   2.0000      -0.700483       -19.0611
  36   2.0000      -0.689348       -18.7581
  37   2.0000      -0.664197       -18.0737
  38   2.0000      -0.640792       -17.4368
  39   2.0000      -0.617505       -16.8032
  40   2.0000      -0.598031       -16.2733
  41   2.0000      -0.570080       -15.5127
  42   2.0000      -0.566466       -15.4143
  43   2.0000      -0.557636       -15.1740
  44   2.0000      -0.522752       -14.2248
  45   2.0000      -0.517627       -14.0854
  46   2.0000      -0.514587       -14.0026
  47   2.0000      -0.509494       -13.8640
  48   2.0000      -0.501686       -13.6516
  49   2.0000      -0.496943       -13.5225
  50   2.0000      -0.494770       -13.4634
  51   2.0000      -0.478843       -13.0300
  52   2.0000      -0.474439       -12.9101
  53   2.0000      -0.465890       -12.6775
  54   2.0000      -0.458516       -12.4769
  55   2.0000      -0.450615       -12.2619
  56   2.0000      -0.444585       -12.0978
  57   2.0000      -0.434746       -11.8300
  58   2.0000      -0.433498       -11.7961
  59   2.0000      -0.428024       -11.6471
  60   2.0000      -0.426750       -11.6125
  61   2.0000      -0.420021       -11.4293
  62   2.0000      -0.411813       -11.2060
  63   2.0000      -0.350591        -9.5401
  64   2.0000      -0.331205        -9.0125
  65   2.0000      -0.328214        -8.9311
  66   2.0000      -0.288694        -7.8558
  67   0.0000       0.028710         0.7812
  68   0.0000       0.074363         2.0235
  69   0.0000       0.116555         3.1716
  70   0.0000       0.121426         3.3042
  71   0.0000       0.133405         3.6301

MULLIKEN ATOMIC CHARGES
-----------------------
   0 S :    0.131106
   1 C :   -0.126519
   2 C :   -0.085308
   3 C :    0.001892
   4 C :   -0.179711
   5 H :    0.045918
   6 C :    0.106116
   7 H :    0.014488
   8 H :    0.026581
   9 C :   -0.075622
  10 H :    0.006108
  11 H :    0.035705
  12 C :   -0.041488
  13 H :    0.028682
  14 H :    0.028309
  15 H :    0.020131
  16 S :    0.125943
  17 C :   -0.111379
  18 C :   -0.025405
  19 C :   -0.048454
  20 C :   -0.156033
  21 H :    0.003269
  22 C :    0.064830
  23 H :    0.011809
  24 H :    0.018965
  25 C :   -0.046950
  26 H :    0.035368
  27 H :    0.014839
  28 C :   -0.071505
  29 H :    0.035958
  30 H :    0.044125
  31 H :    0.036982
  32 H :    0.057933
  33 H :    0.073316
Sum of atomic charges:   -0.0000000

LOEWDIN ATOMIC CHARGES
----------------------
   0 S :    0.430831
   1 C :   -0.218233
   2 C :   -0.067997
   3 C :   -0.059943
   4 C :   -0.199973
   5 H :    0.042043
   6 C :   -0.025191
   7 H :    0.030540
   8 H :    0.027784
   9 C :   -0.035892
  10 H :    0.007555
  11 H :    0.028530
  12 C :   -0.058855
  13 H :    0.020492
  14 H :    0.024945
  15 H :    0.021931
  16 S :    0.438032
  17 C :   -0.208950
  18 C :   -0.062616
  19 C :   -0.059874
  20 C :   -0.213106
  21 H :    0.023499
  22 C :   -0.035641
  23 H :    0.025047
  24 H :    0.029266
  25 C :   -0.038513
  26 H :    0.030869
  27 H :    0.018037
  28 C :   -0.074873
  29 H :    0.026194
  30 H :    0.030508
  31 H :    0.031693
  32 H :    0.031507
  33 H :    0.040352

  Mayer bond orders larger than 0.100000
B(  0-S ,  1-C ) :   1.1838 B(  0-S ,  4-C ) :   1.1512 B(  1-C ,  2-C ) :   1.5520
B(  1-C ,  4-C ) :   0.1018 B(  1-C , 32-H ) :   0.9648 B(  2-C ,  3-C ) :   1.3024
B(  2-C ,  6-C ) :   1.0198 B(  3-C ,  4-C ) :   1.5451 B(  3-C ,  5-H ) :   0.9713
B(  4-C , 20-C ) :   1.0475 B(  6-C ,  7-H ) :   0.9456 B(  6-C ,  8-H ) :   0.9353
B(  6-C ,  9-C ) :   1.0612 B(  9-C , 10-H ) :   0.9599 B(  9-C , 11-H ) :   0.9516
B(  9-C , 12-C ) :   1.0974 B( 12-C , 13-H ) :   0.9768 B( 12-C , 14-H ) :   0.9736
B( 12-C , 15-H ) :   0.9733 B( 16-S , 17-C ) :   1.1554 B( 16-S , 20-C ) :   1.1733
B( 17-C , 18-C ) :   1.6016 B( 17-C , 33-H ) :   0.9615 B( 18-C , 19-C ) :   1.2515
B( 18-C , 21-H ) :   0.9961 B( 19-C , 20-C ) :   1.5585 B( 19-C , 22-C ) :   1.0723
B( 22-C , 23-H ) :   0.9247 B( 22-C , 24-H ) :   0.9234 B( 22-C , 25-C ) :   1.0696
B( 25-C , 26-H ) :   0.9609 B( 25-C , 27-H ) :   0.9542 B( 25-C , 28-C ) :   1.0585
B( 28-C , 29-H ) :   0.9770 B( 28-C , 30-H ) :   0.9766 B( 28-C , 31-H ) :   0.9775

Dispersion correction           -0.013653166
FINAL SINGLE POINT ENERGY     -1339.876185897100

DIPOLE MOMENT
-------------
                                X             Y             Z
Electronic contribution:     14.94798      20.51410       7.10804
Nuclear contribution   :    -15.21040     -20.89538      -7.28605
                        -----------------------------------------
Total Dipole Moment    :     -0.26241      -0.38127      -0.17801
                        -----------------------------------------
Magnitude (a.u.)       :      0.49590
Magnitude (Debye)      :      1.26048

Rotational constants in cm-1:     0.018489     0.007668     0.006453
Rotational constants in MHz :   554.292697   229.871810   193.470702

                             ****ORCA TERMINATED NORMALLY****
TOTAL RUN TIME: 0 days 0 hours 0 minutes 19 seconds 968 msec
