                         Program Version 4.2.1 -  RELEASE  -
|  1> ! wB97X-D3 SP def2-SVP
|  2> %pal
|  3> nprocs 24
|  4> end
|  5>
|  6> * xyz 0 1
|  7> S 	 -124.52 	 34.5901 	 -110.524
|  8> C 	 -124.415 	 34.0685 	 -112.122
|  9> C 	 -125.629 	 34.202 	 -112.7
| 10> C 	 -126.625 	 34.7324 	 -111.82
| 11> C 	 -126.167 	 35.1108 	 -110.579
| 12> H 	 -127.648 	 34.8668 	 -112.13
| 13> C 	 -126.004 	 33.5195 	 -113.997
| 14> H 	 -125.167 	 32.8604 	 -114.253
| 15> H 	 -125.983 	 34.3657 	 -114.701
| 16> C 	 -127.276 	 32.7129 	 -114.036
| 17> H 	 -127.221 	 31.9522 	 -113.219
| 18> H 	 -128.028 	 33.4661 	 -113.974
| 19> C 	 -127.283 	 31.9925 	 -115.363
| 20> H 	 -126.704 	 31.0461 	 -115.292
| 21> H 	 -128.294 	 31.7922 	 -115.714
| 22> H 	 -126.802 	 32.6603 	 -116.028
| 23> S 	 -126.854 	 34.2504 	 -108.081
| 24> C 	 -128.371 	 34.8552 	 -107.393
| 25> C 	 -128.88 	 35.9472 	 -108.066
| 26> C 	 -128.109 	 36.2313 	 -109.241
| 27> C 	 -126.993 	 35.4141 	 -109.442
| 28> H 	 -129.704 	 36.452 	 -107.695
| 29> C 	 -128.399 	 37.5039 	 -110.074
| 30> H 	 -129.413 	 37.5041 	 -110.53
| 31> H 	 -127.791 	 37.308 	 -110.986
| 32> C 	 -127.943 	 38.911 	 -109.585
| 33> H 	 -127.194 	 38.7953 	 -108.805
| 34> H 	 -128.628 	 39.4765 	 -109.053
| 35> C 	 -127.454 	 39.7633 	 -110.802
| 36> H 	 -126.816 	 39.1374 	 -111.391
| 37> H 	 -126.878 	 40.6554 	 -110.424
| 38> H 	 -128.264 	 40.103 	 -111.39
| 39> H 	 -123.539 	 33.6847 	 -112.62
| 40> H 	 -128.651 	 34.5639 	 -106.419
| 41> *
| 42>
| 43>                          ****END OF INPUT****

CARTESIAN COORDINATES (ANGSTROEM)
---------------------------------
  S    -124.520000   34.590100  -110.524000
  C    -124.415000   34.068500  -112.122000
  C    -125.629000   34.202000  -112.700000
  C    -126.625000   34.732400  -111.820000
  C    -126.167000   35.110800  -110.579000
  H    -127.648000   34.866800  -112.130000
  C    -126.004000   33.519500  -113.997000
  H    -125.167000   32.860400  -114.253000
  H    -125.983000   34.365700  -114.701000
  C    -127.276000   32.712900  -114.036000
  H    -127.221000   31.952200  -113.219000
  H    -128.028000   33.466100  -113.974000
  C    -127.283000   31.992500  -115.363000
  H    -126.704000   31.046100  -115.292000
  H    -128.294000   31.792200  -115.714000
  H    -126.802000   32.660300  -116.028000
  S    -126.854000   34.250400  -108.081000
  C    -128.371000   34.855200  -107.393000
  C    -128.880000   35.947200  -108.066000
  C    -128.109000   36.231300  -109.241000
  C    -126.993000   35.414100  -109.442000
  H    -129.704000   36.452000  -107.695000
  C    -128.399000   37.503900  -110.074000
  H    -129.413000   37.504100  -110.530000
  H    -127.791000   37.308000  -110.986000
  C    -127.943000   38.911000  -109.585000
  H    -127.194000   38.795300  -108.805000
  H    -128.628000   39.476500  -109.053000
  C    -127.454000   39.763300  -110.802000
  H    -126.816000   39.137400  -111.391000
  H    -126.878000   40.655400  -110.424000
  H    -128.264000   40.103000  -111.390000
  H    -123.539000   33.684700  -112.620000
  H    -128.651000   34.563900  -106.419000

 Total Charge           Charge          ....    0
 Multiplicity           Mult            ....    1
 Number of Electrons    NEL             ....  134
 Basis Dimension        Dim             ....  322

ORBITAL ENERGIES
----------------

  NO   OCC          E(Eh)            E(eV)
   0   2.0000     -88.962953     -2420.8050
   1   2.0000     -88.962166     -2420.7836
   2   2.0000     -10.332672      -281.1663
   3   2.0000     -10.327039      -281.0130
   4   2.0000     -10.317008      -280.7401
   5   2.0000     -10.309314      -280.5307
   6   2.0000     -10.306984      -280.4673
   7   2.0000     -10.294873      -280.1377
   8   2.0000     -10.292001      -280.0596
   9   2.0000     -10.291132      -280.0359
  10   2.0000     -10.290296      -280.0132
  11   2.0000     -10.286940      -279.9219
  12   2.0000     -10.284247      -279.8486
  13   2.0000     -10.281703      -279.7794
  14   2.0000     -10.276088      -279.6266
  15   2.0000     -10.275054      -279.5984
  16   2.0000      -8.078565      -219.8289
  17   2.0000      -8.077083      -219.7886
  18   2.0000      -6.037005      -164.2753
  19   2.0000      -6.035666      -164.2388
  20   2.0000      -6.032701      -164.1581
  21   2.0000      -6.031709      -164.1312
  22   2.0000      -6.029404      -164.0684
  23   2.0000      -6.027748      -164.0234
  24   2.0000      -1.015573       -27.6351
  25   2.0000      -0.983715       -26.7682
  26   2.0000      -0.922957       -25.1149
  27   2.0000      -0.899032       -24.4639
  28   2.0000      -0.880015       -23.9464
  29   2.0000      -0.850959       -23.1558
  30   2.0000      -0.844465       -22.9791
  31   2.0000      -0.818383       -22.2693
  32   2.0000      -0.775797       -21.1105
  33   2.0000      -0.766778       -20.8651
  34   2.0000      -0.715312       -19.4646
  35   2.0000      -0.705065       -19.1858
  36   2.0000      -0.692520       -18.8444
  37   2.0000      -0.664505       -18.0821
  38   2.0000      -0.642995       -17.4968
  39   2.0000      -0.624153       -16.9841
  40   2.0000      -0.594318       -16.1722
  41   2.0000      -0.583823       -15.8866
  42   2.0000      -0.573853       -15.6153
  43   2.0000      -0.558803       -15.2058
  44   2.0000      -0.531659       -14.4672
  45   2.0000      -0.522968       -14.2307
  46   2.0000      -0.516070       -14.0430
  47   2.0000      -0.510619       -13.8946
  48   2.0000      -0.508334       -13.8325
  49   2.0000      -0.501480       -13.6460
  50   2.0000      -0.494145       -13.4464
  51   2.0000      -0.476706       -12.9718
  52   2.0000      -0.472289       -12.8516
  53   2.0000      -0.465165       -12.6578
  54   2.0000      -0.454428       -12.3656
  55   2.0000      -0.450230       -12.2514
  56   2.0000      -0.448256       -12.1977
  57   2.0000      -0.436469       -11.8769
  58   2.0000      -0.431122       -11.7314
  59   2.0000      -0.423394       -11.5211
  60   2.0000      -0.417827       -11.3696
  61   2.0000      -0.409227       -11.1356
  62   2.0000      -0.407179       -11.0799
  63   2.0000      -0.354705        -9.6520
  64   2.0000      -0.331518        -9.0211
  65   2.0000      -0.323945        -8.8150
  66   2.0000      -0.292070        -7.9476
  67   0.0000       0.027468         0.7474
  68   0.0000       0.069646         1.8952
  69   0.0000       0.116368         3.1665
  70   0.0000       0.125387         3.4120
  71   0.0000       0.132348         3.6014

MULLIKEN ATOMIC CHARGES
-----------------------
   0 S :    0.101029
   1 C :   -0.113057
   2 C :   -0.088779
   3 C :    0.015954
   4 C :   -0.126833
   5 H :    0.010456
   6 C :    0.006542
   7 H :    0.011559
   8 H :    0.037896
   9 C :   -0.056695
  10 H :    0.048191
  11 H :    0.026262
  12 C :   -0.019846
  13 H :    0.041873
  14 H :    0.031699
  15 H :    0.015930
  16 S :    0.082239
  17 C :   -0.077988
  18 C :    0.017736
  19 C :   -0.071834
  20 C :   -0.118203
  21 H :   -0.003678
  22 C :    0.029314
  23 H :    0.032662
  24 H :    0.012204
  25 C :   -0.013288
  26 H :    0.025242
  27 H :    0.007494
  28 C :   -0.069685
  29 H :    0.036047
  30 H :    0.041857
  31 H :    0.031977
  32 H :    0.049600
  33 H :    0.046123
Sum of atomic charges:    0.0000000

LOEWDIN ATOMIC CHARGES
----------------------
   0 S :    0.437734
   1 C :   -0.212199
   2 C :   -0.077284
   3 C :   -0.058087
   4 C :   -0.212068
   5 H :    0.026538
   6 C :   -0.037240
   7 H :    0.024701
   8 H :    0.031939
   9 C :   -0.038166
  10 H :    0.034641
  11 H :    0.019895
  12 C :   -0.057692
  13 H :    0.032286
  14 H :    0.025391
  15 H :    0.018867
  16 S :    0.375529
  17 C :   -0.160849
  18 C :   -0.057918
  19 C :   -0.055041
  20 C :   -0.177592
  21 H :    0.023531
  22 C :   -0.041638
  23 H :    0.031563
  24 H :    0.030838
  25 C :   -0.035632
  26 H :    0.027205
  27 H :    0.012007
  28 C :   -0.055755
  29 H :    0.020907
  30 H :    0.033631
  31 H :    0.019085
  32 H :    0.033484
  33 H :    0.017388

  Mayer bond orders larger than 0.100000
B(  0-S ,  1-C ) :   1.1571 B(  0-S ,  4-C ) :   1.1619 B(  1-C ,  2-C ) :   1.5878
B(  1-C , 32-H ) :   0.9703 B(  2-C ,  3-C ) :   1.2844 B(  2-C ,  6-C ) :   1.0063
B(  3-C ,  4-C ) :   1.5220 B(  3-C ,  5-H ) :   0.9952 B(  4-C , 20-C ) :   1.0499
B(  6-C ,  7-H ) :   0.9553 B(  6-C ,  8-H ) :   0.9191 B(  6-C ,  9-C ) :   1.0846
B(  9-C , 10-H ) :   0.9596 B(  9-C , 11-H ) :   0.9409 B(  9-C , 12-C ) :   1.0907
B( 12-C , 13-H ) :   0.9733 B( 12-C , 14-H ) :   0.9717 B( 12-C , 15-H ) :   0.9719
B( 16-S , 17-C ) :   1.1563 B( 16-S , 20-C ) :   1.1166 B( 17-C , 18-C ) :   1.6085
B( 17-C , 33-H ) :   0.9683 B( 18-C , 19-C ) :   1.2197 B( 18-C , 21-H ) :   1.0087
B( 19-C , 20-C ) :   1.6090 B( 19-C , 22-C ) :   1.0505 B( 22-C , 23-H ) :   0.9337
B( 22-C , 24-H ) :   0.9424 B( 22-C , 25-C ) :   1.0385 B( 25-C , 26-H ) :   0.9580
B( 25-C , 27-H ) :   0.9536 B( 25-C , 28-C ) :   1.0775 B( 28-C , 29-H ) :   0.9803
B( 28-C , 30-H ) :   0.9748 B( 28-C , 31-H ) :   0.9807

Dispersion correction           -0.013469289
FINAL SINGLE POINT ENERGY     -1339.856521639255

DIPOLE MOMENT
-------------
                                X             Y             Z
Electronic contribution:      9.92777      -7.73959      20.49333
Nuclear contribution   :    -10.33809       7.82943     -20.89841
                        -----------------------------------------
Total Dipole Moment    :     -0.41032       0.08984      -0.40508
                        -----------------------------------------
Magnitude (a.u.)       :      0.58354
Magnitude (Debye)      :      1.48325

Rotational constants in cm-1:     0.017288     0.008046     0.007136
Rotational constants in MHz :   518.295595   241.216524   213.918420

                             ****ORCA TERMINATED NORMALLY****
TOTAL RUN TIME: 0 days 0 hours 0 minutes 21 seconds 333 msec
