                         Program Version 4.2.1 -  RELEASE  -
|  1> ! wB97X-D3 SP def2-SVP
|  2> %pal
|  3> nprocs 24
|  4> end
|  5>
|  6> * xyz 0 1
|  7> S 	 -56.1432 	 2.46212 	 -31.7209
|  8> C 	 -55.7844 	 0.829409 	 -31.7468
|  9> C 	 -54.9942 	 0.412282 	 -32.806
| 10> C 	 -54.5806 	 1.57432 	 -33.539
| 11> C 	 -55.0741 	 2.81857 	 -33.046
| 12> H 	 -53.9593 	 1.44069 	 -34.3352
| 13> C 	 -54.5529 	 -0.982086 	 -33.102
| 14> H 	 -54.3026 	 -1.17526 	 -34.1473
| 15> H 	 -55.467 	 -1.55767 	 -32.8709
| 16> C 	 -53.3113 	 -1.45995 	 -32.3421
| 17> H 	 -53.1675 	 -2.5597 	 -32.7089
| 18> H 	 -52.4209 	 -0.924991 	 -32.616
| 19> C 	 -53.3849 	 -1.41456 	 -30.8235
| 20> H 	 -52.5111 	 -1.85399 	 -30.2953
| 21> H 	 -53.3098 	 -0.352723 	 -30.5243
| 22> H 	 -54.369 	 -1.81754 	 -30.4435
| 23> S 	 -56.4163 	 5.12719 	 -33.682
| 24> C 	 -55.7266 	 6.36191 	 -34.6801
| 25> C 	 -54.3983 	 6.10523 	 -34.9756
| 26> C 	 -54.0171 	 4.79167 	 -34.4372
| 27> C 	 -54.9828 	 4.1036 	 -33.7066
| 28> H 	 -53.7802 	 6.83778 	 -35.4811
| 29> C 	 -52.61 	 4.23207 	 -34.6865
| 30> H 	 -52.4343 	 4.18342 	 -35.7823
| 31> H 	 -52.5228 	 3.12245 	 -34.307
| 32> C 	 -51.4826 	 5.10424 	 -34.133
| 33> H 	 -51.5119 	 5.0741 	 -33.0724
| 34> H 	 -51.6408 	 6.10496 	 -34.4773
| 35> C 	 -50.0786 	 4.59762 	 -34.6402
| 36> H 	 -49.3618 	 5.44339 	 -34.6081
| 37> H 	 -50.1309 	 4.0039 	 -35.5629
| 38> H 	 -49.6059 	 3.94098 	 -33.89
| 39> H 	 -56.1344 	 0.182965 	 -30.9264
| 40> H 	 -56.1862 	 7.30645 	 -34.7103
| 41> *
| 42>
| 43>                          ****END OF INPUT****

CARTESIAN COORDINATES (ANGSTROEM)
---------------------------------
  S    -56.143200    2.462120  -31.720900
  C    -55.784400    0.829409  -31.746800
  C    -54.994200    0.412282  -32.806000
  C    -54.580600    1.574320  -33.539000
  C    -55.074100    2.818570  -33.046000
  H    -53.959300    1.440690  -34.335200
  C    -54.552900   -0.982086  -33.102000
  H    -54.302600   -1.175260  -34.147300
  H    -55.467000   -1.557670  -32.870900
  C    -53.311300   -1.459950  -32.342100
  H    -53.167500   -2.559700  -32.708900
  H    -52.420900   -0.924991  -32.616000
  C    -53.384900   -1.414560  -30.823500
  H    -52.511100   -1.853990  -30.295300
  H    -53.309800   -0.352723  -30.524300
  H    -54.369000   -1.817540  -30.443500
  S    -56.416300    5.127190  -33.682000
  C    -55.726600    6.361910  -34.680100
  C    -54.398300    6.105230  -34.975600
  C    -54.017100    4.791670  -34.437200
  C    -54.982800    4.103600  -33.706600
  H    -53.780200    6.837780  -35.481100
  C    -52.610000    4.232070  -34.686500
  H    -52.434300    4.183420  -35.782300
  H    -52.522800    3.122450  -34.307000
  C    -51.482600    5.104240  -34.133000
  H    -51.511900    5.074100  -33.072400
  H    -51.640800    6.104960  -34.477300
  C    -50.078600    4.597620  -34.640200
  H    -49.361800    5.443390  -34.608100
  H    -50.130900    4.003900  -35.562900
  H    -49.605900    3.940980  -33.890000
  H    -56.134400    0.182965  -30.926400
  H    -56.186200    7.306450  -34.710300

 Total Charge           Charge          ....    0
 Multiplicity           Mult            ....    1
 Number of Electrons    NEL             ....  134
 Basis Dimension        Dim             ....  322

ORBITAL ENERGIES
----------------

  NO   OCC          E(Eh)            E(eV)
   0   2.0000     -88.971741     -2421.0442
   1   2.0000     -88.959264     -2420.7046
   2   2.0000     -10.334656      -281.2203
   3   2.0000     -10.330379      -281.1039
   4   2.0000     -10.313784      -280.6523
   5   2.0000     -10.312918      -280.6288
   6   2.0000     -10.307940      -280.4933
   7   2.0000     -10.301027      -280.3052
   8   2.0000     -10.300145      -280.2812
   9   2.0000     -10.297246      -280.2023
  10   2.0000     -10.296552      -280.1834
  11   2.0000     -10.294769      -280.1349
  12   2.0000     -10.293015      -280.0872
  13   2.0000     -10.284413      -279.8531
  14   2.0000     -10.282665      -279.8055
  15   2.0000     -10.281802      -279.7821
  16   2.0000      -8.087803      -220.0803
  17   2.0000      -8.074684      -219.7233
  18   2.0000      -6.046153      -164.5242
  19   2.0000      -6.041974      -164.4105
  20   2.0000      -6.038803      -164.3242
  21   2.0000      -6.033258      -164.1733
  22   2.0000      -6.029007      -164.0576
  23   2.0000      -6.025424      -163.9601
  24   2.0000      -1.011244       -27.5173
  25   2.0000      -0.986819       -26.8527
  26   2.0000      -0.917175       -24.9576
  27   2.0000      -0.903025       -24.5726
  28   2.0000      -0.872476       -23.7413
  29   2.0000      -0.854513       -23.2525
  30   2.0000      -0.839806       -22.8523
  31   2.0000      -0.813457       -22.1353
  32   2.0000      -0.784630       -21.3509
  33   2.0000      -0.768287       -20.9061
  34   2.0000      -0.710115       -19.3232
  35   2.0000      -0.695640       -18.9293
  36   2.0000      -0.692211       -18.8360
  37   2.0000      -0.663812       -18.0633
  38   2.0000      -0.644523       -17.5384
  39   2.0000      -0.623591       -16.9688
  40   2.0000      -0.594464       -16.1762
  41   2.0000      -0.573761       -15.6128
  42   2.0000      -0.562400       -15.3037
  43   2.0000      -0.554090       -15.0776
  44   2.0000      -0.540710       -14.7135
  45   2.0000      -0.528375       -14.3778
  46   2.0000      -0.522800       -14.2261
  47   2.0000      -0.509742       -13.8708
  48   2.0000      -0.505024       -13.7424
  49   2.0000      -0.495007       -13.4698
  50   2.0000      -0.489521       -13.3205
  51   2.0000      -0.482986       -13.1427
  52   2.0000      -0.468756       -12.7555
  53   2.0000      -0.462796       -12.5933
  54   2.0000      -0.454909       -12.3787
  55   2.0000      -0.451328       -12.2813
  56   2.0000      -0.444747       -12.1022
  57   2.0000      -0.439903       -11.9704
  58   2.0000      -0.436803       -11.8860
  59   2.0000      -0.428708       -11.6657
  60   2.0000      -0.416237       -11.3264
  61   2.0000      -0.410313       -11.1652
  62   2.0000      -0.405396       -11.0314
  63   2.0000      -0.360024        -9.7968
  64   2.0000      -0.333110        -9.0644
  65   2.0000      -0.324529        -8.8309
  66   2.0000      -0.284881        -7.7520
  67   0.0000       0.023755         0.6464
  68   0.0000       0.075874         2.0646
  69   0.0000       0.108698         2.9578
  70   0.0000       0.119834         3.2609
  71   0.0000       0.127919         3.4809

MULLIKEN ATOMIC CHARGES
-----------------------
   0 S :    0.138146
   1 C :   -0.141521
   2 C :   -0.098142
   3 C :    0.054279
   4 C :   -0.133725
   5 H :   -0.030974
   6 C :    0.069280
   7 H :    0.030203
   8 H :    0.036156
   9 C :   -0.078297
  10 H :    0.040825
  11 H :    0.026275
  12 C :   -0.082488
  13 H :    0.044225
  14 H :    0.042013
  15 H :    0.035434
  16 S :    0.071237
  17 C :   -0.072511
  18 C :   -0.028652
  19 C :   -0.056193
  20 C :   -0.111095
  21 H :    0.030954
  22 C :   -0.012502
  23 H :    0.033098
  24 H :    0.041335
  25 C :   -0.048780
  26 H :    0.030316
  27 H :    0.021275
  28 C :   -0.067162
  29 H :    0.036859
  30 H :    0.040665
  31 H :    0.028344
  32 H :    0.058465
  33 H :    0.052658
Sum of atomic charges:    0.0000000

LOEWDIN ATOMIC CHARGES
----------------------
   0 S :    0.456383
   1 C :   -0.220930
   2 C :   -0.068540
   3 C :   -0.042600
   4 C :   -0.206829
   5 H :    0.009004
   6 C :   -0.036571
   7 H :    0.035978
   8 H :    0.037759
   9 C :   -0.042987
  10 H :    0.031954
  11 H :    0.021769
  12 C :   -0.078432
  13 H :    0.031879
  14 H :    0.028808
  15 H :    0.025490
  16 S :    0.395737
  17 C :   -0.181788
  18 C :   -0.068252
  19 C :   -0.060995
  20 C :   -0.191170
  21 H :    0.034087
  22 C :   -0.043950
  23 H :    0.029349
  24 H :    0.037335
  25 C :   -0.033621
  26 H :    0.022516
  27 H :    0.017153
  28 C :   -0.073796
  29 H :    0.030583
  30 H :    0.026096
  31 H :    0.027207
  32 H :    0.030966
  33 H :    0.020408

  Mayer bond orders larger than 0.100000
B(  0-S ,  1-C ) :   1.1881 B(  0-S ,  4-C ) :   1.1678 B(  1-C ,  2-C ) :   1.5462
B(  1-C , 32-H ) :   0.9609 B(  2-C ,  3-C ) :   1.3170 B(  2-C ,  6-C ) :   1.0217
B(  3-C ,  4-C ) :   1.4789 B(  3-C ,  5-H ) :   1.0025 B(  4-C , 20-C ) :   1.0849
B(  6-C ,  7-H ) :   0.9390 B(  6-C ,  8-H ) :   0.9378 B(  6-C ,  9-C ) :   1.0697
B(  9-C , 10-H ) :   0.9550 B(  9-C , 11-H ) :   0.9546 B(  9-C , 12-C ) :   1.0802
B( 12-C , 13-H ) :   0.9714 B( 12-C , 14-H ) :   0.9686 B( 12-C , 15-H ) :   0.9748
B( 16-S , 17-C ) :   1.1687 B( 16-S , 20-C ) :   1.1164 B( 17-C , 18-C ) :   1.6041
B( 17-C , 33-H ) :   0.9682 B( 18-C , 19-C ) :   1.2250 B( 18-C , 21-H ) :   0.9913
B( 19-C , 20-C ) :   1.6051 B( 19-C , 22-C ) :   1.0399 B( 22-C , 23-H ) :   0.9368
B( 22-C , 24-H ) :   0.9402 B( 22-C , 25-C ) :   1.0658 B( 25-C , 26-H ) :   0.9563
B( 25-C , 27-H ) :   0.9612 B( 25-C , 28-C ) :   1.0684 B( 28-C , 29-H ) :   0.9756
B( 28-C , 30-H ) :   0.9769 B( 28-C , 31-H ) :   0.9767

Dispersion correction           -0.013804217
FINAL SINGLE POINT ENERGY     -1339.875701849121

DIPOLE MOMENT
-------------
                                X             Y             Z
Electronic contribution:    -25.27220      13.67653       1.73931
Nuclear contribution   :     25.82925     -13.94422      -1.80759
                        -----------------------------------------
Total Dipole Moment    :      0.55705      -0.26769      -0.06828
                        -----------------------------------------
Magnitude (a.u.)       :      0.62179
Magnitude (Debye)      :      1.58047

Rotational constants in cm-1:     0.018071     0.008686     0.006326
Rotational constants in MHz :   541.758795   260.385908   189.657101

                             ****ORCA TERMINATED NORMALLY****
TOTAL RUN TIME: 0 days 0 hours 0 minutes 21 seconds 237 msec
