                         Program Version 4.2.1 -  RELEASE  -
|  1> ! wB97X-D3 SP def2-SVP
|  2> %pal
|  3> nprocs 24
|  4> end
|  5>
|  6> * xyz 0 1
|  7> S 	 -32.5558 	 10.2217 	 9.89565
|  8> C 	 -33.2382 	 11.7775 	 9.50209
|  9> C 	 -32.5339 	 12.7559 	 10.2791
| 10> C 	 -31.6602 	 12.1772 	 11.2812
| 11> C 	 -31.5925 	 10.7927 	 11.1899
| 12> H 	 -30.9618 	 12.6637 	 11.8965
| 13> C 	 -32.7636 	 14.2305 	 10.0429
| 14> H 	 -33.5187 	 14.4415 	 10.7604
| 15> H 	 -33.2676 	 14.3656 	 9.10292
| 16> C 	 -31.5693 	 15.2324 	 10.1218
| 17> H 	 -31.3206 	 15.6875 	 11.0656
| 18> H 	 -30.603 	 14.769 	 10.0127
| 19> C 	 -31.7529 	 16.3568 	 9.12574
| 20> H 	 -32.8006 	 16.6557 	 9.22
| 21> H 	 -31.1212 	 17.1775 	 9.25773
| 22> H 	 -31.5539 	 16.0183 	 8.09145
| 23> S 	 -29.8877 	 8.55115 	 11.1772
| 24> C 	 -29.0925 	 8.27794 	 12.6615
| 25> C 	 -29.6281 	 8.88875 	 13.7566
| 26> C 	 -30.6364 	 9.81587 	 13.3545
| 27> C 	 -30.774 	 9.85428 	 12.0104
| 28> H 	 -29.3542 	 8.58783 	 14.7229
| 29> C 	 -31.3802 	 10.5659 	 14.3863
| 30> H 	 -31.2385 	 11.594 	 14.3623
| 31> H 	 -31.1665 	 10.127 	 15.3958
| 32> C 	 -32.9374 	 10.405 	 14.4203
| 33> H 	 -33.2064 	 9.40986 	 14.7757
| 34> H 	 -33.4499 	 10.5112 	 13.4171
| 35> C 	 -33.4984 	 11.4411 	 15.4338
| 36> H 	 -33.486 	 12.393 	 14.9508
| 37> H 	 -32.9641 	 11.5328 	 16.3592
| 38> H 	 -34.5637 	 11.4952 	 15.741
| 39> H 	 -33.7668 	 11.9776 	 8.55839
| 40> H 	 -28.4436 	 7.3816 	 12.7504
| 41> *
| 42>
| 43>                          ****END OF INPUT****

CARTESIAN COORDINATES (ANGSTROEM)
---------------------------------
  S    -32.555800   10.221700    9.895650
  C    -33.238200   11.777500    9.502090
  C    -32.533900   12.755900   10.279100
  C    -31.660200   12.177200   11.281200
  C    -31.592500   10.792700   11.189900
  H    -30.961800   12.663700   11.896500
  C    -32.763600   14.230500   10.042900
  H    -33.518700   14.441500   10.760400
  H    -33.267600   14.365600    9.102920
  C    -31.569300   15.232400   10.121800
  H    -31.320600   15.687500   11.065600
  H    -30.603000   14.769000   10.012700
  C    -31.752900   16.356800    9.125740
  H    -32.800600   16.655700    9.220000
  H    -31.121200   17.177500    9.257730
  H    -31.553900   16.018300    8.091450
  S    -29.887700    8.551150   11.177200
  C    -29.092500    8.277940   12.661500
  C    -29.628100    8.888750   13.756600
  C    -30.636400    9.815870   13.354500
  C    -30.774000    9.854280   12.010400
  H    -29.354200    8.587830   14.722900
  C    -31.380200   10.565900   14.386300
  H    -31.238500   11.594000   14.362300
  H    -31.166500   10.127000   15.395800
  C    -32.937400   10.405000   14.420300
  H    -33.206400    9.409860   14.775700
  H    -33.449900   10.511200   13.417100
  C    -33.498400   11.441100   15.433800
  H    -33.486000   12.393000   14.950800
  H    -32.964100   11.532800   16.359200
  H    -34.563700   11.495200   15.741000
  H    -33.766800   11.977600    8.558390
  H    -28.443600    7.381600   12.750400

 Total Charge           Charge          ....    0
 Multiplicity           Mult            ....    1
 Number of Electrons    NEL             ....  134
 Basis Dimension        Dim             ....  322

ORBITAL ENERGIES
----------------

  NO   OCC          E(Eh)            E(eV)
   0   2.0000     -88.968097     -2420.9450
   1   2.0000     -88.963589     -2420.8223
   2   2.0000     -10.329874      -281.0902
   3   2.0000     -10.326916      -281.0097
   4   2.0000     -10.315627      -280.7025
   5   2.0000     -10.314367      -280.6682
   6   2.0000     -10.310865      -280.5729
   7   2.0000     -10.300009      -280.2775
   8   2.0000     -10.292847      -280.0826
   9   2.0000     -10.290250      -280.0119
  10   2.0000     -10.289852      -280.0011
  11   2.0000     -10.289809      -279.9999
  12   2.0000     -10.288964      -279.9769
  13   2.0000     -10.283956      -279.8407
  14   2.0000     -10.274299      -279.5779
  15   2.0000     -10.272610      -279.5319
  16   2.0000      -8.083478      -219.9626
  17   2.0000      -8.078917      -219.8385
  18   2.0000      -6.041826      -164.4064
  19   2.0000      -6.038244      -164.3090
  20   2.0000      -6.037339      -164.2843
  21   2.0000      -6.034022      -164.1941
  22   2.0000      -6.033159      -164.1706
  23   2.0000      -6.029942      -164.0831
  24   2.0000      -1.011267       -27.5180
  25   2.0000      -0.987206       -26.8633
  26   2.0000      -0.911845       -24.8126
  27   2.0000      -0.910636       -24.7797
  28   2.0000      -0.867413       -23.6035
  29   2.0000      -0.856033       -23.2938
  30   2.0000      -0.847358       -23.0578
  31   2.0000      -0.817460       -22.2442
  32   2.0000      -0.784060       -21.3354
  33   2.0000      -0.769105       -20.9284
  34   2.0000      -0.714750       -19.4493
  35   2.0000      -0.703471       -19.1424
  36   2.0000      -0.684335       -18.6217
  37   2.0000      -0.665123       -18.0989
  38   2.0000      -0.644659       -17.5421
  39   2.0000      -0.619857       -16.8672
  40   2.0000      -0.604596       -16.4519
  41   2.0000      -0.572493       -15.5783
  42   2.0000      -0.564129       -15.3507
  43   2.0000      -0.561384       -15.2760
  44   2.0000      -0.534143       -14.5348
  45   2.0000      -0.518016       -14.0959
  46   2.0000      -0.514589       -14.0027
  47   2.0000      -0.512426       -13.9438
  48   2.0000      -0.500576       -13.6214
  49   2.0000      -0.498302       -13.5595
  50   2.0000      -0.489134       -13.3100
  51   2.0000      -0.478796       -13.0287
  52   2.0000      -0.470713       -12.8088
  53   2.0000      -0.466155       -12.6847
  54   2.0000      -0.461224       -12.5505
  55   2.0000      -0.453944       -12.3524
  56   2.0000      -0.449882       -12.2419
  57   2.0000      -0.443600       -12.0710
  58   2.0000      -0.434528       -11.8241
  59   2.0000      -0.422555       -11.4983
  60   2.0000      -0.418883       -11.3984
  61   2.0000      -0.413931       -11.2636
  62   2.0000      -0.407377       -11.0853
  63   2.0000      -0.347451        -9.4546
  64   2.0000      -0.335180        -9.1207
  65   2.0000      -0.325794        -8.8653
  66   2.0000      -0.290430        -7.9030
  67   0.0000       0.027287         0.7425
  68   0.0000       0.068181         1.8553
  69   0.0000       0.106606         2.9009
  70   0.0000       0.116886         3.1806
  71   0.0000       0.137463         3.7406

MULLIKEN ATOMIC CHARGES
-----------------------
   0 S :    0.100182
   1 C :   -0.131842
   2 C :   -0.138900
   3 C :    0.044742
   4 C :   -0.152703
   5 H :   -0.000510
   6 C :    0.098573
   7 H :    0.040384
   8 H :    0.010292
   9 C :   -0.049633
  10 H :    0.013957
  11 H :    0.017764
  12 C :   -0.055590
  13 H :    0.035496
  14 H :    0.018979
  15 H :    0.036877
  16 S :    0.116705
  17 C :   -0.088738
  18 C :   -0.018559
  19 C :    0.001044
  20 C :   -0.152571
  21 H :   -0.001789
  22 C :    0.069369
  23 H :    0.016346
  24 H :    0.029575
  25 C :   -0.087347
  26 H :    0.027181
  27 H :    0.057807
  28 C :   -0.061092
  29 H :    0.016674
  30 H :    0.023397
  31 H :    0.030223
  32 H :    0.070346
  33 H :    0.063363
Sum of atomic charges:    0.0000000

LOEWDIN ATOMIC CHARGES
----------------------
   0 S :    0.422499
   1 C :   -0.227478
   2 C :   -0.045260
   3 C :   -0.074591
   4 C :   -0.195307
   5 H :    0.023844
   6 C :   -0.030735
   7 H :    0.037446
   8 H :    0.029083
   9 C :   -0.046274
  10 H :    0.022836
  11 H :    0.021956
  12 C :   -0.058875
  13 H :    0.026929
  14 H :    0.016809
  15 H :    0.027928
  16 S :    0.405804
  17 C :   -0.191102
  18 C :   -0.062258
  19 C :   -0.053604
  20 C :   -0.186793
  21 H :    0.025250
  22 C :   -0.026554
  23 H :    0.021296
  24 H :    0.040701
  25 C :   -0.033894
  26 H :    0.018369
  27 H :    0.032067
  28 C :   -0.079269
  29 H :    0.022323
  30 H :    0.019807
  31 H :    0.031534
  32 H :    0.034661
  33 H :    0.030849

  Mayer bond orders larger than 0.100000
B(  0-S ,  1-C ) :   1.1397 B(  0-S ,  4-C ) :   1.1882 B(  1-C ,  2-C ) :   1.5701
B(  1-C ,  4-C ) :   0.1072 B(  1-C , 32-H ) :   0.9645 B(  2-C ,  3-C ) :   1.2519
B(  2-C ,  6-C ) :   1.0314 B(  3-C ,  4-C ) :   1.5470 B(  3-C ,  5-H ) :   1.0022
B(  4-C , 20-C ) :   1.0221 B(  6-C ,  7-H ) :   0.9247 B(  6-C ,  8-H ) :   0.9477
B(  6-C ,  9-C ) :   1.0322 B(  9-C , 10-H ) :   0.9510 B(  9-C , 11-H ) :   0.9627
B(  9-C , 12-C ) :   1.0909 B( 12-C , 13-H ) :   0.9771 B( 12-C , 14-H ) :   0.9732
B( 12-C , 15-H ) :   0.9758 B( 16-S , 17-C ) :   1.1643 B( 16-S , 20-C ) :   1.1204
B( 17-C , 18-C ) :   1.6276 B( 17-C , 33-H ) :   0.9557 B( 18-C , 19-C ) :   1.2175
B( 18-C , 21-H ) :   1.0027 B( 19-C , 20-C ) :   1.6252 B( 19-C , 22-C ) :   1.0443
B( 22-C , 23-H ) :   0.9358 B( 22-C , 24-H ) :   0.9391 B( 22-C , 25-C ) :   1.0412
B( 25-C , 26-H ) :   0.9628 B( 25-C , 27-H ) :   0.9597 B( 25-C , 28-C ) :   1.0636
B( 28-C , 29-H ) :   0.9731 B( 28-C , 30-H ) :   0.9747 B( 28-C , 31-H ) :   0.9732

Dispersion correction           -0.014074282
FINAL SINGLE POINT ENERGY     -1339.854793049995

DIPOLE MOMENT
-------------
                                X             Y             Z
Electronic contribution:      8.12743     -24.74763     -10.26802
Nuclear contribution   :     -8.07327      25.18626      10.60725
                        -----------------------------------------
Total Dipole Moment    :      0.05416       0.43863       0.33923
                        -----------------------------------------
Magnitude (a.u.)       :      0.55714
Magnitude (Debye)      :      1.41614

Rotational constants in cm-1:     0.018115     0.008319     0.006996
Rotational constants in MHz :   543.068154   249.405304   209.737471

                             ****ORCA TERMINATED NORMALLY****
TOTAL RUN TIME: 0 days 0 hours 0 minutes 20 seconds 355 msec
