                         Program Version 4.2.1 -  RELEASE  -
|  1> ! wB97X-D3 SP def2-SVP
|  2> %pal
|  3> nprocs 24
|  4> end
|  5>
|  6> * xyz 0 1
|  7> S 	 -108.463 	 49.4539 	 -6.01365
|  8> C 	 -108.649 	 51.1592 	 -6.17851
|  9> C 	 -107.43 	 51.7928 	 -6.34935
| 10> C 	 -106.34 	 50.8554 	 -6.23976
| 11> C 	 -106.718 	 49.5676 	 -6.04069
| 12> H 	 -105.303 	 51.0333 	 -6.31641
| 13> C 	 -107.135 	 53.3076 	 -6.50729
| 14> H 	 -106.083 	 53.6151 	 -6.4481
| 15> H 	 -107.504 	 53.8071 	 -5.54713
| 16> C 	 -107.732 	 54.0854 	 -7.67118
| 17> H 	 -107.478 	 55.1218 	 -7.60996
| 18> H 	 -107.26 	 53.904 	 -8.62092
| 19> C 	 -109.251 	 53.8889 	 -7.8462
| 20> H 	 -109.678 	 53.6524 	 -6.94645
| 21> H 	 -109.848 	 54.7823 	 -8.11904
| 22> H 	 -109.375 	 53.1394 	 -8.62186
| 23> S 	 -106.36 	 47.4383 	 -4.30252
| 24> C 	 -104.974 	 46.3946 	 -4.49658
| 25> C 	 -104.343 	 46.6181 	 -5.68745
| 26> C 	 -104.911 	 47.7511 	 -6.39067
| 27> C 	 -105.966 	 48.3408 	 -5.73197
| 28> H 	 -103.397 	 46.0522 	 -5.82189
| 29> C 	 -104.287 	 48.2077 	 -7.68929
| 30> H 	 -103.223 	 47.9149 	 -7.76537
| 31> H 	 -104.357 	 49.3005 	 -7.71143
| 32> C 	 -105.105 	 47.7343 	 -8.89923
| 33> H 	 -105.461 	 46.6945 	 -8.88712
| 34> H 	 -104.345 	 47.9609 	 -9.72642
| 35> C 	 -106.369 	 48.6225 	 -9.17976
| 36> H 	 -107.189 	 48.5692 	 -8.48726
| 37> H 	 -106.869 	 48.2921 	 -10.1358
| 38> H 	 -106.12 	 49.6358 	 -9.21728
| 39> H 	 -109.6 	 51.6602 	 -6.07103
| 40> H 	 -104.651 	 45.6364 	 -3.84797
| 41> *
| 42>
| 43>                          ****END OF INPUT****

CARTESIAN COORDINATES (ANGSTROEM)
---------------------------------
  S    -108.463000   49.453900   -6.013650
  C    -108.649000   51.159200   -6.178510
  C    -107.430000   51.792800   -6.349350
  C    -106.340000   50.855400   -6.239760
  C    -106.718000   49.567600   -6.040690
  H    -105.303000   51.033300   -6.316410
  C    -107.135000   53.307600   -6.507290
  H    -106.083000   53.615100   -6.448100
  H    -107.504000   53.807100   -5.547130
  C    -107.732000   54.085400   -7.671180
  H    -107.478000   55.121800   -7.609960
  H    -107.260000   53.904000   -8.620920
  C    -109.251000   53.888900   -7.846200
  H    -109.678000   53.652400   -6.946450
  H    -109.848000   54.782300   -8.119040
  H    -109.375000   53.139400   -8.621860
  S    -106.360000   47.438300   -4.302520
  C    -104.974000   46.394600   -4.496580
  C    -104.343000   46.618100   -5.687450
  C    -104.911000   47.751100   -6.390670
  C    -105.966000   48.340800   -5.731970
  H    -103.397000   46.052200   -5.821890
  C    -104.287000   48.207700   -7.689290
  H    -103.223000   47.914900   -7.765370
  H    -104.357000   49.300500   -7.711430
  C    -105.105000   47.734300   -8.899230
  H    -105.461000   46.694500   -8.887120
  H    -104.345000   47.960900   -9.726420
  C    -106.369000   48.622500   -9.179760
  H    -107.189000   48.569200   -8.487260
  H    -106.869000   48.292100  -10.135800
  H    -106.120000   49.635800   -9.217280
  H    -109.600000   51.660200   -6.071030
  H    -104.651000   45.636400   -3.847970

 Total Charge           Charge          ....    0
 Multiplicity           Mult            ....    1
 Number of Electrons    NEL             ....  134
 Basis Dimension        Dim             ....  322

ORBITAL ENERGIES
----------------

  NO   OCC          E(Eh)            E(eV)
   0   2.0000     -88.964473     -2420.8464
   1   2.0000     -88.964312     -2420.8420
   2   2.0000     -10.327923      -281.0371
   3   2.0000     -10.324848      -280.9534
   4   2.0000     -10.314218      -280.6641
   5   2.0000     -10.312225      -280.6099
   6   2.0000     -10.308825      -280.5174
   7   2.0000     -10.303007      -280.3591
   8   2.0000     -10.302042      -280.3328
   9   2.0000     -10.294660      -280.1320
  10   2.0000     -10.291626      -280.0494
  11   2.0000     -10.291537      -280.0470
  12   2.0000     -10.291077      -280.0345
  13   2.0000     -10.281859      -279.7836
  14   2.0000     -10.270960      -279.4870
  15   2.0000     -10.266837      -279.3749
  16   2.0000      -8.079556      -219.8559
  17   2.0000      -8.079370      -219.8508
  18   2.0000      -6.038019      -164.3028
  19   2.0000      -6.037903      -164.2997
  20   2.0000      -6.033952      -164.1922
  21   2.0000      -6.033812      -164.1884
  22   2.0000      -6.030395      -164.0954
  23   2.0000      -6.030093      -164.0872
  24   2.0000      -1.010621       -27.5004
  25   2.0000      -0.987761       -26.8783
  26   2.0000      -0.909797       -24.7568
  27   2.0000      -0.905575       -24.6419
  28   2.0000      -0.870181       -23.6788
  29   2.0000      -0.850385       -23.1402
  30   2.0000      -0.839112       -22.8334
  31   2.0000      -0.817368       -22.2417
  32   2.0000      -0.786893       -21.4124
  33   2.0000      -0.774071       -21.0635
  34   2.0000      -0.709915       -19.3178
  35   2.0000      -0.698896       -19.0179
  36   2.0000      -0.689131       -18.7522
  37   2.0000      -0.660567       -17.9749
  38   2.0000      -0.649003       -17.6603
  39   2.0000      -0.619120       -16.8471
  40   2.0000      -0.597188       -16.2503
  41   2.0000      -0.572757       -15.5855
  42   2.0000      -0.549539       -14.9537
  43   2.0000      -0.547364       -14.8945
  44   2.0000      -0.541533       -14.7359
  45   2.0000      -0.530532       -14.4365
  46   2.0000      -0.520857       -14.1732
  47   2.0000      -0.511038       -13.9060
  48   2.0000      -0.506220       -13.7750
  49   2.0000      -0.500223       -13.6118
  50   2.0000      -0.491911       -13.3856
  51   2.0000      -0.481708       -13.1079
  52   2.0000      -0.469988       -12.7890
  53   2.0000      -0.465117       -12.6565
  54   2.0000      -0.456305       -12.4167
  55   2.0000      -0.445132       -12.1126
  56   2.0000      -0.441713       -12.0196
  57   2.0000      -0.437296       -11.8994
  58   2.0000      -0.434612       -11.8264
  59   2.0000      -0.422801       -11.5050
  60   2.0000      -0.418126       -11.3778
  61   2.0000      -0.408343       -11.1116
  62   2.0000      -0.402256       -10.9460
  63   2.0000      -0.349093        -9.4993
  64   2.0000      -0.330134        -8.9834
  65   2.0000      -0.328133        -8.9290
  66   2.0000      -0.296907        -8.0792
  67   0.0000       0.034992         0.9522
  68   0.0000       0.068837         1.8732
  69   0.0000       0.114740         3.1222
  70   0.0000       0.120396         3.2762
  71   0.0000       0.130837         3.5602

MULLIKEN ATOMIC CHARGES
-----------------------
   0 S :    0.103835
   1 C :   -0.126767
   2 C :   -0.050913
   3 C :    0.057274
   4 C :   -0.188684
   5 H :   -0.004282
   6 C :    0.020474
   7 H :    0.024571
   8 H :    0.044653
   9 C :   -0.050379
  10 H :    0.013598
  11 H :    0.017113
  12 C :   -0.032417
  13 H :    0.000449
  14 H :    0.029754
  15 H :    0.045509
  16 S :    0.113095
  17 C :   -0.079665
  18 C :   -0.049805
  19 C :   -0.047322
  20 C :   -0.130881
  21 H :    0.037584
  22 C :    0.085125
  23 H :    0.032377
  24 H :    0.008951
  25 C :   -0.084873
  26 H :    0.044232
  27 H :    0.038651
  28 C :   -0.038916
  29 H :    0.029004
  30 H :    0.032918
  31 H :    0.012772
  32 H :    0.055762
  33 H :    0.037207
Sum of atomic charges:    0.0000000

LOEWDIN ATOMIC CHARGES
----------------------
   0 S :    0.416145
   1 C :   -0.200717
   2 C :   -0.060221
   3 C :   -0.059548
   4 C :   -0.183492
   5 H :    0.025004
   6 C :   -0.038433
   7 H :    0.033031
   8 H :    0.041095
   9 C :   -0.043692
  10 H :    0.022330
  11 H :    0.021379
  12 C :   -0.061444
  13 H :    0.006458
  14 H :    0.031902
  15 H :    0.030906
  16 S :    0.410638
  17 C :   -0.175612
  18 C :   -0.078518
  19 C :   -0.053135
  20 C :   -0.214917
  21 H :    0.041402
  22 C :   -0.036222
  23 H :    0.032359
  24 H :    0.029429
  25 C :   -0.036289
  26 H :    0.026925
  27 H :    0.032376
  28 C :   -0.068235
  29 H :    0.015412
  30 H :    0.031652
  31 H :    0.013005
  32 H :    0.027465
  33 H :    0.021563

  Mayer bond orders larger than 0.100000
B(  0-S ,  1-C ) :   1.1437 B(  0-S ,  4-C ) :   1.1497 B(  1-C ,  2-C ) :   1.6178
B(  1-C , 32-H ) :   0.9670 B(  2-C ,  3-C ) :   1.2224 B(  2-C ,  6-C ) :   0.9992
B(  3-C ,  4-C ) :   1.6207 B(  3-C ,  5-H ) :   1.0017 B(  4-C , 20-C ) :   0.9999
B(  6-C ,  7-H ) :   0.9484 B(  6-C ,  8-H ) :   0.9421 B(  6-C ,  9-C ) :   1.0859
B(  9-C , 10-H ) :   0.9511 B(  9-C , 11-H ) :   0.9586 B(  9-C , 12-C ) :   1.0685
B( 12-C , 13-H ) :   0.9763 B( 12-C , 14-H ) :   0.9698 B( 12-C , 15-H ) :   0.9778
B( 16-S , 17-C ) :   1.1535 B( 16-S , 20-C ) :   1.1311 B( 17-C , 18-C ) :   1.6432
B( 17-C , 33-H ) :   0.9703 B( 18-C , 19-C ) :   1.2158 B( 18-C , 21-H ) :   0.9838
B( 19-C , 20-C ) :   1.6151 B( 19-C , 22-C ) :   1.0448 B( 22-C , 23-H ) :   0.9393
B( 22-C , 24-H ) :   0.9277 B( 22-C , 25-C ) :   1.0597 B( 25-C , 26-H ) :   0.9587
B( 25-C , 27-H ) :   0.9559 B( 25-C , 28-C ) :   1.0795 B( 28-C , 29-H ) :   0.9671
B( 28-C , 30-H ) :   0.9719 B( 28-C , 31-H ) :   0.9728

Dispersion correction           -0.015633235
FINAL SINGLE POINT ENERGY     -1339.869333051700

DIPOLE MOMENT
-------------
                                X             Y             Z
Electronic contribution:     -1.47379     -17.12591      18.95746
Nuclear contribution   :      1.89071      17.51363     -19.15822
                        -----------------------------------------
Total Dipole Moment    :      0.41692       0.38772      -0.20076
                        -----------------------------------------
Magnitude (a.u.)       :      0.60370
Magnitude (Debye)      :      1.53449

Rotational constants in cm-1:     0.024600     0.008310     0.007211
Rotational constants in MHz :   737.498325   249.136019   216.167828

                             ****ORCA TERMINATED NORMALLY****
TOTAL RUN TIME: 0 days 0 hours 0 minutes 22 seconds 735 msec
