                         Program Version 4.2.1 -  RELEASE  -
|  1> ! wB97X-D3 SP def2-SVP
|  2> %pal
|  3> nprocs 24
|  4> end
|  5>
|  6> * xyz 0 1
|  7> S 	 -70.0977 	 -42.0567 	 -94.6553
|  8> C 	 -68.473 	 -41.8345 	 -95.4035
|  9> C 	 -67.8062 	 -43.027 	 -95.3912
| 10> C 	 -68.644 	 -44.1388 	 -95.1359
| 11> C 	 -69.9743 	 -43.7553 	 -94.9532
| 12> H 	 -68.3441 	 -45.1471 	 -95.0139
| 13> C 	 -66.3178 	 -43.2552 	 -95.7232
| 14> H 	 -65.9887 	 -43.0411 	 -96.7154
| 15> H 	 -66.2239 	 -44.293 	 -95.7255
| 16> C 	 -65.3819 	 -42.7139 	 -94.6268
| 17> H 	 -64.3213 	 -42.6751 	 -95.0271
| 18> H 	 -65.658 	 -41.5932 	 -94.5757
| 19> C 	 -65.4716 	 -43.4525 	 -93.207
| 20> H 	 -66.5025 	 -43.3957 	 -92.8916
| 21> H 	 -65.2223 	 -44.525 	 -93.1282
| 22> H 	 -64.8331 	 -42.9613 	 -92.5404
| 23> S 	 -71.7036 	 -44.7132 	 -93.0152
| 24> C 	 -72.8597 	 -45.947 	 -93.4658
| 25> C 	 -72.8125 	 -46.1768 	 -94.8284
| 26> C 	 -71.6604 	 -45.5907 	 -95.4794
| 27> C 	 -71.0811 	 -44.6379 	 -94.6566
| 28> H 	 -73.5508 	 -46.8768 	 -95.2275
| 29> C 	 -71.3899 	 -45.7781 	 -96.9507
| 30> H 	 -70.3818 	 -45.3781 	 -97.2994
| 31> H 	 -72.1689 	 -45.273 	 -97.5943
| 32> C 	 -71.2681 	 -47.2595 	 -97.324
| 33> H 	 -72.15 	 -47.8629 	 -97.0357
| 34> H 	 -70.4324 	 -47.7322 	 -96.6672
| 35> C 	 -71.0041 	 -47.4647 	 -98.8202
| 36> H 	 -71.7581 	 -47.0228 	 -99.4945
| 37> H 	 -70.9084 	 -48.5125 	 -99.0375
| 38> H 	 -70.0626 	 -47.0319 	 -99.0302
| 39> H 	 -68.0407 	 -40.8664 	 -95.4094
| 40> H 	 -73.5488 	 -46.5939 	 -92.8731
| 41> *
| 42>
| 43>                          ****END OF INPUT****

CARTESIAN COORDINATES (ANGSTROEM)
---------------------------------
  S    -70.097700  -42.056700  -94.655300
  C    -68.473000  -41.834500  -95.403500
  C    -67.806200  -43.027000  -95.391200
  C    -68.644000  -44.138800  -95.135900
  C    -69.974300  -43.755300  -94.953200
  H    -68.344100  -45.147100  -95.013900
  C    -66.317800  -43.255200  -95.723200
  H    -65.988700  -43.041100  -96.715400
  H    -66.223900  -44.293000  -95.725500
  C    -65.381900  -42.713900  -94.626800
  H    -64.321300  -42.675100  -95.027100
  H    -65.658000  -41.593200  -94.575700
  C    -65.471600  -43.452500  -93.207000
  H    -66.502500  -43.395700  -92.891600
  H    -65.222300  -44.525000  -93.128200
  H    -64.833100  -42.961300  -92.540400
  S    -71.703600  -44.713200  -93.015200
  C    -72.859700  -45.947000  -93.465800
  C    -72.812500  -46.176800  -94.828400
  C    -71.660400  -45.590700  -95.479400
  C    -71.081100  -44.637900  -94.656600
  H    -73.550800  -46.876800  -95.227500
  C    -71.389900  -45.778100  -96.950700
  H    -70.381800  -45.378100  -97.299400
  H    -72.168900  -45.273000  -97.594300
  C    -71.268100  -47.259500  -97.324000
  H    -72.150000  -47.862900  -97.035700
  H    -70.432400  -47.732200  -96.667200
  C    -71.004100  -47.464700  -98.820200
  H    -71.758100  -47.022800  -99.494500
  H    -70.908400  -48.512500  -99.037500
  H    -70.062600  -47.031900  -99.030200
  H    -68.040700  -40.866400  -95.409400
  H    -73.548800  -46.593900  -92.873100

 Total Charge           Charge          ....    0
 Multiplicity           Mult            ....    1
 Number of Electrons    NEL             ....  134
 Basis Dimension        Dim             ....  322

ORBITAL ENERGIES
----------------

  NO   OCC          E(Eh)            E(eV)
   0   2.0000     -88.967668     -2420.9333
   1   2.0000     -88.964366     -2420.8435
   2   2.0000     -10.327845      -281.0350
   3   2.0000     -10.325073      -280.9595
   4   2.0000     -10.319817      -280.8165
   5   2.0000     -10.312313      -280.6123
   6   2.0000     -10.305494      -280.4267
   7   2.0000     -10.302467      -280.3444
   8   2.0000     -10.301960      -280.3306
   9   2.0000     -10.297875      -280.2194
  10   2.0000     -10.295042      -280.1423
  11   2.0000     -10.292210      -280.0653
  12   2.0000     -10.291846      -280.0554
  13   2.0000     -10.285934      -279.8945
  14   2.0000     -10.278783      -279.6999
  15   2.0000     -10.274069      -279.5716
  16   2.0000      -8.082144      -219.9263
  17   2.0000      -8.079111      -219.8438
  18   2.0000      -6.040731      -164.3766
  19   2.0000      -6.037531      -164.2896
  20   2.0000      -6.036745      -164.2682
  21   2.0000      -6.033958      -164.1923
  22   2.0000      -6.032758      -164.1597
  23   2.0000      -6.029615      -164.0742
  24   2.0000      -1.007810       -27.4239
  25   2.0000      -0.983519       -26.7629
  26   2.0000      -0.907770       -24.7017
  27   2.0000      -0.906442       -24.6655
  28   2.0000      -0.865721       -23.5575
  29   2.0000      -0.849269       -23.1098
  30   2.0000      -0.841143       -22.8887
  31   2.0000      -0.811534       -22.0830
  32   2.0000      -0.788064       -21.4443
  33   2.0000      -0.772980       -21.0339
  34   2.0000      -0.706869       -19.2349
  35   2.0000      -0.698511       -19.0074
  36   2.0000      -0.689739       -18.7688
  37   2.0000      -0.652528       -17.7562
  38   2.0000      -0.642921       -17.4948
  39   2.0000      -0.616316       -16.7708
  40   2.0000      -0.596428       -16.2296
  41   2.0000      -0.569723       -15.5029
  42   2.0000      -0.560221       -15.2444
  43   2.0000      -0.548019       -14.9124
  44   2.0000      -0.533494       -14.5171
  45   2.0000      -0.523008       -14.2318
  46   2.0000      -0.514993       -14.0137
  47   2.0000      -0.510361       -13.8876
  48   2.0000      -0.506196       -13.7743
  49   2.0000      -0.492561       -13.4033
  50   2.0000      -0.491419       -13.3722
  51   2.0000      -0.479573       -13.0498
  52   2.0000      -0.472371       -12.8539
  53   2.0000      -0.466382       -12.6909
  54   2.0000      -0.455319       -12.3899
  55   2.0000      -0.452256       -12.3065
  56   2.0000      -0.445946       -12.1348
  57   2.0000      -0.434672       -11.8280
  58   2.0000      -0.429241       -11.6802
  59   2.0000      -0.423957       -11.5365
  60   2.0000      -0.419415       -11.4129
  61   2.0000      -0.411879       -11.2078
  62   2.0000      -0.410157       -11.1609
  63   2.0000      -0.339226        -9.2308
  64   2.0000      -0.332511        -9.0481
  65   2.0000      -0.328204        -8.9309
  66   2.0000      -0.295612        -8.0440
  67   0.0000       0.030194         0.8216
  68   0.0000       0.056157         1.5281
  69   0.0000       0.100359         2.7309
  70   0.0000       0.119848         3.2612
  71   0.0000       0.128032         3.4839

MULLIKEN ATOMIC CHARGES
-----------------------
   0 S :    0.093100
   1 C :   -0.106371
   2 C :   -0.097385
   3 C :    0.053404
   4 C :   -0.170971
   5 H :    0.005447
   6 C :    0.131077
   7 H :    0.031113
   8 H :   -0.014897
   9 C :   -0.133908
  10 H :    0.037071
  11 H :    0.037486
  12 C :   -0.034629
  13 H :    0.042056
  14 H :    0.035846
  15 H :    0.028957
  16 S :    0.117913
  17 C :   -0.106286
  18 C :   -0.048161
  19 C :   -0.003467
  20 C :   -0.148737
  21 H :    0.027977
  22 C :    0.034220
  23 H :    0.035664
  24 H :    0.052467
  25 C :   -0.158883
  26 H :    0.028558
  27 H :    0.038975
  28 C :    0.001995
  29 H :    0.036669
  30 H :    0.028355
  31 H :    0.014184
  32 H :    0.041214
  33 H :    0.069946
Sum of atomic charges:   -0.0000000

LOEWDIN ATOMIC CHARGES
----------------------
   0 S :    0.393038
   1 C :   -0.174560
   2 C :   -0.056923
   3 C :   -0.057944
   4 C :   -0.190905
   5 H :    0.027014
   6 C :   -0.029993
   7 H :    0.031417
   8 H :    0.018340
   9 C :   -0.044235
  10 H :    0.025685
  11 H :    0.028954
  12 C :   -0.062890
  13 H :    0.028131
  14 H :    0.029582
  15 H :    0.019938
  16 S :    0.401090
  17 C :   -0.198172
  18 C :   -0.070814
  19 C :   -0.056366
  20 C :   -0.199762
  21 H :    0.032181
  22 C :   -0.040457
  23 H :    0.036991
  24 H :    0.039278
  25 C :   -0.051624
  26 H :    0.016962
  27 H :    0.032609
  28 C :   -0.061989
  29 H :    0.029182
  30 H :    0.025387
  31 H :    0.018421
  32 H :    0.018180
  33 H :    0.044252

  Mayer bond orders larger than 0.100000
B(  0-S ,  1-C ) :   1.1207 B(  0-S ,  4-C ) :   1.1690 B(  1-C ,  2-C ) :   1.6153
B(  1-C ,  4-C ) :   0.1047 B(  1-C , 32-H ) :   0.9751 B(  2-C ,  3-C ) :   1.2420
B(  2-C ,  6-C ) :   0.9995 B(  3-C ,  4-C ) :   1.5503 B(  3-C ,  5-H ) :   1.0027
B(  4-C , 20-C ) :   1.0402 B(  6-C ,  7-H ) :   0.9448 B(  6-C ,  8-H ) :   0.9342
B(  6-C ,  9-C ) :   1.0608 B(  9-C , 10-H ) :   0.9592 B(  9-C , 11-H ) :   0.9627
B(  9-C , 12-C ) :   1.0543 B( 12-C , 13-H ) :   0.9773 B( 12-C , 14-H ) :   0.9769
B( 12-C , 15-H ) :   0.9770 B( 16-S , 17-C ) :   1.1348 B( 16-S , 20-C ) :   1.1368
B( 17-C , 18-C ) :   1.6553 B( 17-C , 33-H ) :   0.9596 B( 18-C , 19-C ) :   1.2028
B( 18-C , 21-H ) :   0.9815 B( 19-C , 20-C ) :   1.6117 B( 19-C , 22-C ) :   1.0566
B( 22-C , 23-H ) :   0.9355 B( 22-C , 24-H ) :   0.9406 B( 22-C , 25-C ) :   1.0401
B( 25-C , 26-H ) :   0.9582 B( 25-C , 27-H ) :   0.9541 B( 25-C , 28-C ) :   1.0836
B( 28-C , 29-H ) :   0.9725 B( 28-C , 30-H ) :   0.9721 B( 28-C , 31-H ) :   0.9709

Dispersion correction           -0.014230255
FINAL SINGLE POINT ENERGY     -1339.857875972089

DIPOLE MOMENT
-------------
                                X             Y             Z
Electronic contribution:    -16.18767      11.28079      13.32201
Nuclear contribution   :     16.53151     -11.74394     -13.57687
                        -----------------------------------------
Total Dipole Moment    :      0.34384      -0.46315      -0.25485
                        -----------------------------------------
Magnitude (a.u.)       :      0.63062
Magnitude (Debye)      :      1.60291

Rotational constants in cm-1:     0.018116     0.008399     0.006834
Rotational constants in MHz :   543.115305   251.804027   204.889284

                             ****ORCA TERMINATED NORMALLY****
TOTAL RUN TIME: 0 days 0 hours 0 minutes 21 seconds 378 msec
