                         Program Version 4.2.1 -  RELEASE  -
|  1> ! wB97X-D3 SP def2-SVP
|  2> %pal
|  3> nprocs 24
|  4> end
|  5>
|  6> * xyz 0 1
|  7> S 	 -104.154 	 -1.98872 	 -108.756
|  8> C 	 -105.076 	 -1.50099 	 -110.165
|  9> C 	 -106.322 	 -1.1299 	 -109.772
| 10> C 	 -106.623 	 -1.32928 	 -108.429
| 11> C 	 -105.516 	 -1.67672 	 -107.74
| 12> H 	 -107.536 	 -1.04775 	 -107.966
| 13> C 	 -107.341 	 -0.846093 	 -110.874
| 14> H 	 -108.263 	 -1.1662 	 -110.397
| 15> H 	 -107.175 	 -1.58851 	 -111.656
| 16> C 	 -107.433 	 0.673587 	 -111.233
| 17> H 	 -107.338 	 1.31093 	 -110.321
| 18> H 	 -106.676 	 0.948163 	 -112.026
| 19> C 	 -108.824 	 0.957695 	 -111.866
| 20> H 	 -108.816 	 2.04703 	 -112.11
| 21> H 	 -108.927 	 0.273855 	 -112.665
| 22> H 	 -109.625 	 0.737649 	 -111.171
| 23> S 	 -104.779 	 -3.32076 	 -105.59
| 24> C 	 -105.764 	 -3.14748 	 -104.145
| 25> C 	 -106.334 	 -1.89682 	 -104.117
| 26> C 	 -106.129 	 -1.14634 	 -105.345
| 27> C 	 -105.372 	 -1.81378 	 -106.294
| 28> H 	 -107.043 	 -1.63995 	 -103.333
| 29> C 	 -106.643 	 0.29024 	 -105.481
| 30> H 	 -107.563 	 0.347994 	 -104.872
| 31> H 	 -106.981 	 0.476929 	 -106.473
| 32> C 	 -105.734 	 1.34032 	 -104.937
| 33> H 	 -105.842 	 1.50855 	 -103.872
| 34> H 	 -106.168 	 2.3489 	 -105.171
| 35> C 	 -104.199 	 1.2995 	 -105.251
| 36> H 	 -103.786 	 0.368744 	 -104.891
| 37> H 	 -103.802 	 2.16749 	 -104.76
| 38> H 	 -104.048 	 1.23297 	 -106.324
| 39> H 	 -104.81 	 -1.72508 	 -111.204
| 40> H 	 -105.834 	 -3.8248 	 -103.321
| 41> *
| 42>
| 43>                          ****END OF INPUT****

CARTESIAN COORDINATES (ANGSTROEM)
---------------------------------
  S    -104.154000   -1.988720  -108.756000
  C    -105.076000   -1.500990  -110.165000
  C    -106.322000   -1.129900  -109.772000
  C    -106.623000   -1.329280  -108.429000
  C    -105.516000   -1.676720  -107.740000
  H    -107.536000   -1.047750  -107.966000
  C    -107.341000   -0.846093  -110.874000
  H    -108.263000   -1.166200  -110.397000
  H    -107.175000   -1.588510  -111.656000
  C    -107.433000    0.673587  -111.233000
  H    -107.338000    1.310930  -110.321000
  H    -106.676000    0.948163  -112.026000
  C    -108.824000    0.957695  -111.866000
  H    -108.816000    2.047030  -112.110000
  H    -108.927000    0.273855  -112.665000
  H    -109.625000    0.737649  -111.171000
  S    -104.779000   -3.320760  -105.590000
  C    -105.764000   -3.147480  -104.145000
  C    -106.334000   -1.896820  -104.117000
  C    -106.129000   -1.146340  -105.345000
  C    -105.372000   -1.813780  -106.294000
  H    -107.043000   -1.639950  -103.333000
  C    -106.643000    0.290240  -105.481000
  H    -107.563000    0.347994  -104.872000
  H    -106.981000    0.476929  -106.473000
  C    -105.734000    1.340320  -104.937000
  H    -105.842000    1.508550  -103.872000
  H    -106.168000    2.348900  -105.171000
  C    -104.199000    1.299500  -105.251000
  H    -103.786000    0.368744  -104.891000
  H    -103.802000    2.167490  -104.760000
  H    -104.048000    1.232970  -106.324000
  H    -104.810000   -1.725080  -111.204000
  H    -105.834000   -3.824800  -103.321000

 Total Charge           Charge          ....    0
 Multiplicity           Mult            ....    1
 Number of Electrons    NEL             ....  134
 Basis Dimension        Dim             ....  322

ORBITAL ENERGIES
----------------

  NO   OCC          E(Eh)            E(eV)
   0   2.0000     -88.963989     -2420.8332
   1   2.0000     -88.961745     -2420.7721
   2   2.0000     -10.326955      -281.0107
   3   2.0000     -10.325374      -280.9677
   4   2.0000     -10.321662      -280.8667
   5   2.0000     -10.307363      -280.4776
   6   2.0000     -10.306624      -280.4575
   7   2.0000     -10.297547      -280.2105
   8   2.0000     -10.296063      -280.1701
   9   2.0000     -10.290380      -280.0155
  10   2.0000     -10.290226      -280.0113
  11   2.0000     -10.289613      -279.9946
  12   2.0000     -10.286276      -279.9038
  13   2.0000     -10.283892      -279.8389
  14   2.0000     -10.276670      -279.6424
  15   2.0000     -10.269894      -279.4580
  16   2.0000      -8.078677      -219.8320
  17   2.0000      -8.077216      -219.7922
  18   2.0000      -6.037369      -164.2852
  19   2.0000      -6.035607      -164.2372
  20   2.0000      -6.033102      -164.1691
  21   2.0000      -6.031679      -164.1303
  22   2.0000      -6.029304      -164.0657
  23   2.0000      -6.028012      -164.0306
  24   2.0000      -1.013497       -27.5787
  25   2.0000      -0.987311       -26.8661
  26   2.0000      -0.908326       -24.7168
  27   2.0000      -0.908109       -24.7109
  28   2.0000      -0.870678       -23.6924
  29   2.0000      -0.853288       -23.2192
  30   2.0000      -0.839916       -22.8553
  31   2.0000      -0.819799       -22.3079
  32   2.0000      -0.785995       -21.3880
  33   2.0000      -0.769511       -20.9395
  34   2.0000      -0.706841       -19.2341
  35   2.0000      -0.695830       -18.9345
  36   2.0000      -0.693636       -18.8748
  37   2.0000      -0.659925       -17.9575
  38   2.0000      -0.641432       -17.4543
  39   2.0000      -0.624780       -17.0011
  40   2.0000      -0.591899       -16.1064
  41   2.0000      -0.566827       -15.4242
  42   2.0000      -0.560178       -15.2432
  43   2.0000      -0.555094       -15.1049
  44   2.0000      -0.541387       -14.7319
  45   2.0000      -0.535301       -14.5663
  46   2.0000      -0.516624       -14.0581
  47   2.0000      -0.509549       -13.8655
  48   2.0000      -0.505389       -13.7523
  49   2.0000      -0.499932       -13.6038
  50   2.0000      -0.492835       -13.4107
  51   2.0000      -0.478789       -13.0285
  52   2.0000      -0.470554       -12.8044
  53   2.0000      -0.465886       -12.6774
  54   2.0000      -0.457159       -12.4399
  55   2.0000      -0.452099       -12.3022
  56   2.0000      -0.445682       -12.1276
  57   2.0000      -0.443009       -12.0549
  58   2.0000      -0.434062       -11.8114
  59   2.0000      -0.425813       -11.5870
  60   2.0000      -0.412242       -11.2177
  61   2.0000      -0.402511       -10.9529
  62   2.0000      -0.396656       -10.7936
  63   2.0000      -0.350513        -9.5379
  64   2.0000      -0.335752        -9.1363
  65   2.0000      -0.328287        -8.9332
  66   2.0000      -0.291631        -7.9357
  67   0.0000       0.023403         0.6368
  68   0.0000       0.071664         1.9501
  69   0.0000       0.106909         2.9091
  70   0.0000       0.119400         3.2490
  71   0.0000       0.129574         3.5259

MULLIKEN ATOMIC CHARGES
-----------------------
   0 S :    0.097557
   1 C :   -0.115587
   2 C :   -0.117596
   3 C :    0.041505
   4 C :   -0.132030
   5 H :    0.005989
   6 C :    0.046833
   7 H :    0.006163
   8 H :    0.033884
   9 C :   -0.088791
  10 H :    0.044167
  11 H :    0.046075
  12 C :   -0.043772
  13 H :    0.046329
  14 H :    0.025245
  15 H :    0.027916
  16 S :    0.089549
  17 C :   -0.081546
  18 C :   -0.022849
  19 C :   -0.125312
  20 C :   -0.088244
  21 H :    0.027854
  22 C :    0.119658
  23 H :    0.013380
  24 H :    0.011984
  25 C :   -0.099742
  26 H :    0.011264
  27 H :    0.015907
  28 C :   -0.017086
  29 H :    0.041142
  30 H :    0.037361
  31 H :    0.033864
  32 H :    0.054516
  33 H :    0.054412
Sum of atomic charges:    0.0000000

LOEWDIN ATOMIC CHARGES
----------------------
   0 S :    0.404603
   1 C :   -0.201096
   2 C :   -0.066624
   3 C :   -0.066911
   4 C :   -0.180887
   5 H :    0.028968
   6 C :   -0.032255
   7 H :    0.024933
   8 H :    0.031614
   9 C :   -0.039733
  10 H :    0.028946
  11 H :    0.031076
  12 C :   -0.064049
  13 H :    0.031822
  14 H :    0.018131
  15 H :    0.020035
  16 S :    0.390060
  17 C :   -0.168899
  18 C :   -0.074637
  19 C :   -0.045425
  20 C :   -0.207320
  21 H :    0.033587
  22 C :   -0.032564
  23 H :    0.035641
  24 H :    0.021529
  25 C :   -0.051304
  26 H :    0.020114
  27 H :    0.028219
  28 C :   -0.057029
  29 H :    0.025344
  30 H :    0.026856
  31 H :    0.025912
  32 H :    0.032036
  33 H :    0.029307

  Mayer bond orders larger than 0.100000
B(  0-S ,  1-C ) :   1.1220 B(  0-S ,  4-C ) :   1.1651 B(  1-C ,  2-C ) :   1.6174
B(  1-C , 32-H ) :   0.9687 B(  2-C ,  3-C ) :   1.2653 B(  2-C ,  6-C ) :   1.0086
B(  3-C ,  4-C ) :   1.5710 B(  3-C ,  5-H ) :   0.9901 B(  4-C , 20-C ) :   1.0093
B(  6-C ,  7-H ) :   0.9504 B(  6-C ,  8-H ) :   0.9467 B(  6-C ,  9-C ) :   1.0395
B(  9-C , 10-H ) :   0.9617 B(  9-C , 11-H ) :   0.9561 B(  9-C , 12-C ) :   1.0753
B( 12-C , 13-H ) :   0.9755 B( 12-C , 14-H ) :   0.9748 B( 12-C , 15-H ) :   0.9787
B( 16-S , 17-C ) :   1.1571 B( 16-S , 20-C ) :   1.1129 B( 17-C , 18-C ) :   1.6137
B( 17-C , 33-H ) :   0.9681 B( 18-C , 19-C ) :   1.2357 B( 18-C , 21-H ) :   0.9883
B( 19-C , 20-C ) :   1.5988 B( 19-C , 22-C ) :   1.0421 B( 22-C , 23-H ) :   0.9252
B( 22-C , 24-H ) :   0.9346 B( 22-C , 25-C ) :   1.0814 B( 25-C , 26-H ) :   0.9508
B( 25-C , 27-H ) :   0.9466 B( 25-C , 28-C ) :   1.0744 B( 28-C , 29-H ) :   0.9700
B( 28-C , 30-H ) :   0.9731 B( 28-C , 31-H ) :   0.9778

Dispersion correction           -0.014679090
FINAL SINGLE POINT ENERGY     -1339.863472980489

DIPOLE MOMENT
-------------
                                X             Y             Z
Electronic contribution:     13.95544     -21.72085       7.54186
Nuclear contribution   :    -14.67310      22.02282      -7.46114
                        -----------------------------------------
Total Dipole Moment    :     -0.71765       0.30198       0.08072
                        -----------------------------------------
Magnitude (a.u.)       :      0.78277
Magnitude (Debye)      :      1.98965

Rotational constants in cm-1:     0.020300     0.008338     0.007143
Rotational constants in MHz :   608.574994   249.957230   214.139597

                             ****ORCA TERMINATED NORMALLY****
TOTAL RUN TIME: 0 days 0 hours 0 minutes 22 seconds 263 msec
