                         Program Version 4.2.1 -  RELEASE  -
|  1> ! wB97X-D3 SP def2-SVP
|  2> %pal
|  3> nprocs 24
|  4> end
|  5>
|  6> * xyz 0 1
|  7> S 	 -78.584 	 -2.60278 	 -67.233
|  8> C 	 -77.8207 	 -1.01051 	 -67.0549
|  9> C 	 -77.3667 	 -0.851246 	 -65.7881
| 10> C 	 -77.6055 	 -1.9894 	 -64.9222
| 11> C 	 -78.0879 	 -3.06557 	 -65.6338
| 12> H 	 -77.2516 	 -1.99973 	 -63.8955
| 13> C 	 -76.6588 	 0.388575 	 -65.2748
| 14> H 	 -76.836 	 0.580921 	 -64.2675
| 15> H 	 -77.1364 	 1.21758 	 -65.776
| 16> C 	 -75.135 	 0.251048 	 -65.5155
| 17> H 	 -74.6 	 -0.425118 	 -64.9207
| 18> H 	 -74.9929 	 -0.135288 	 -66.5463
| 19> C 	 -74.3902 	 1.55015 	 -65.4035
| 20> H 	 -73.4636 	 1.42432 	 -65.8245
| 21> H 	 -74.9824 	 2.40397 	 -65.7828
| 22> H 	 -74.2435 	 1.77142 	 -64.3169
| 23> S 	 -77.2087 	 -5.15155 	 -64.0001
| 24> C 	 -78.1914 	 -6.4946 	 -63.6018
| 25> C 	 -79.3771 	 -6.368 	 -64.2342
| 26> C 	 -79.5387 	 -5.20687 	 -65.0891
| 27> C 	 -78.3691 	 -4.43677 	 -65.0872
| 28> H 	 -80.0974 	 -7.15649 	 -64.1072
| 29> C 	 -80.7418 	 -4.98169 	 -65.941
| 30> H 	 -80.6908 	 -5.80141 	 -66.5964
| 31> H 	 -80.7585 	 -4.01493 	 -66.48
| 32> C 	 -82.0488 	 -4.88115 	 -65.118
| 33> H 	 -81.7766 	 -4.2792 	 -64.2182
| 34> H 	 -82.4558 	 -5.86519 	 -64.7245
| 35> C 	 -83.1379 	 -4.03638 	 -65.9025
| 36> H 	 -82.7535 	 -3.07274 	 -66.1697
| 37> H 	 -83.9658 	 -3.74769 	 -65.2722
| 38> H 	 -83.5759 	 -4.66508 	 -66.7137
| 39> H 	 -77.7625 	 -0.300012 	 -67.8362
| 40> H 	 -77.9189 	 -7.20734 	 -62.8713
| 41> *
| 42>
| 43>                          ****END OF INPUT****

CARTESIAN COORDINATES (ANGSTROEM)
---------------------------------
  S    -78.584000   -2.602780  -67.233000
  C    -77.820700   -1.010510  -67.054900
  C    -77.366700   -0.851246  -65.788100
  C    -77.605500   -1.989400  -64.922200
  C    -78.087900   -3.065570  -65.633800
  H    -77.251600   -1.999730  -63.895500
  C    -76.658800    0.388575  -65.274800
  H    -76.836000    0.580921  -64.267500
  H    -77.136400    1.217580  -65.776000
  C    -75.135000    0.251048  -65.515500
  H    -74.600000   -0.425118  -64.920700
  H    -74.992900   -0.135288  -66.546300
  C    -74.390200    1.550150  -65.403500
  H    -73.463600    1.424320  -65.824500
  H    -74.982400    2.403970  -65.782800
  H    -74.243500    1.771420  -64.316900
  S    -77.208700   -5.151550  -64.000100
  C    -78.191400   -6.494600  -63.601800
  C    -79.377100   -6.368000  -64.234200
  C    -79.538700   -5.206870  -65.089100
  C    -78.369100   -4.436770  -65.087200
  H    -80.097400   -7.156490  -64.107200
  C    -80.741800   -4.981690  -65.941000
  H    -80.690800   -5.801410  -66.596400
  H    -80.758500   -4.014930  -66.480000
  C    -82.048800   -4.881150  -65.118000
  H    -81.776600   -4.279200  -64.218200
  H    -82.455800   -5.865190  -64.724500
  C    -83.137900   -4.036380  -65.902500
  H    -82.753500   -3.072740  -66.169700
  H    -83.965800   -3.747690  -65.272200
  H    -83.575900   -4.665080  -66.713700
  H    -77.762500   -0.300012  -67.836200
  H    -77.918900   -7.207340  -62.871300

 Total Charge           Charge          ....    0
 Multiplicity           Mult            ....    1
 Number of Electrons    NEL             ....  134
 Basis Dimension        Dim             ....  322

ORBITAL ENERGIES
----------------

  NO   OCC          E(Eh)            E(eV)
   0   2.0000     -88.964964     -2420.8597
   1   2.0000     -88.960231     -2420.7310
   2   2.0000     -10.334100      -281.2051
   3   2.0000     -10.327921      -281.0370
   4   2.0000     -10.310331      -280.5584
   5   2.0000     -10.308984      -280.5217
   6   2.0000     -10.303650      -280.3766
   7   2.0000     -10.297867      -280.2192
   8   2.0000     -10.294430      -280.1257
   9   2.0000     -10.293360      -280.0966
  10   2.0000     -10.290314      -280.0137
  11   2.0000     -10.286261      -279.9034
  12   2.0000     -10.286203      -279.9018
  13   2.0000     -10.279611      -279.7224
  14   2.0000     -10.279221      -279.7118
  15   2.0000     -10.271024      -279.4888
  16   2.0000      -8.079286      -219.8485
  17   2.0000      -8.075967      -219.7582
  18   2.0000      -6.037923      -164.3002
  19   2.0000      -6.034436      -164.2054
  20   2.0000      -6.033881      -164.1902
  21   2.0000      -6.030216      -164.0905
  22   2.0000      -6.029910      -164.0822
  23   2.0000      -6.026831      -163.9984
  24   2.0000      -1.006967       -27.4010
  25   2.0000      -0.987495       -26.8711
  26   2.0000      -0.914503       -24.8849
  27   2.0000      -0.907437       -24.6926
  28   2.0000      -0.869614       -23.6634
  29   2.0000      -0.849288       -23.1103
  30   2.0000      -0.842942       -22.9376
  31   2.0000      -0.816517       -22.2186
  32   2.0000      -0.782893       -21.3036
  33   2.0000      -0.772948       -21.0330
  34   2.0000      -0.702301       -19.1106
  35   2.0000      -0.700781       -19.0692
  36   2.0000      -0.694075       -18.8868
  37   2.0000      -0.659764       -17.9531
  38   2.0000      -0.638641       -17.3783
  39   2.0000      -0.620238       -16.8775
  40   2.0000      -0.600872       -16.3506
  41   2.0000      -0.575655       -15.6644
  42   2.0000      -0.568973       -15.4825
  43   2.0000      -0.560192       -15.2436
  44   2.0000      -0.538189       -14.6449
  45   2.0000      -0.523194       -14.2368
  46   2.0000      -0.519730       -14.1426
  47   2.0000      -0.513994       -13.9865
  48   2.0000      -0.505525       -13.7560
  49   2.0000      -0.500597       -13.6220
  50   2.0000      -0.487389       -13.2625
  51   2.0000      -0.482012       -13.1162
  52   2.0000      -0.469645       -12.7797
  53   2.0000      -0.466253       -12.6874
  54   2.0000      -0.458597       -12.4791
  55   2.0000      -0.448933       -12.2161
  56   2.0000      -0.444841       -12.1048
  57   2.0000      -0.440809       -11.9950
  58   2.0000      -0.428050       -11.6478
  59   2.0000      -0.423234       -11.5168
  60   2.0000      -0.414922       -11.2906
  61   2.0000      -0.411521       -11.1981
  62   2.0000      -0.408710       -11.1216
  63   2.0000      -0.350844        -9.5470
  64   2.0000      -0.328956        -8.9514
  65   2.0000      -0.325895        -8.8680
  66   2.0000      -0.295008        -8.0276
  67   0.0000       0.033974         0.9245
  68   0.0000       0.080578         2.1926
  69   0.0000       0.110933         3.0186
  70   0.0000       0.129797         3.5320
  71   0.0000       0.132973         3.6184

MULLIKEN ATOMIC CHARGES
-----------------------
   0 S :    0.094040
   1 C :   -0.110964
   2 C :   -0.108334
   3 C :    0.028051
   4 C :   -0.128894
   5 H :    0.018647
   6 C :    0.112752
   7 H :    0.003274
   8 H :    0.016279
   9 C :   -0.075543
  10 H :    0.018746
  11 H :    0.025795
  12 C :   -0.014529
  13 H :    0.021386
  14 H :    0.028880
  15 H :    0.023154
  16 S :    0.090744
  17 C :   -0.073980
  18 C :   -0.026515
  19 C :   -0.054734
  20 C :   -0.141666
  21 H :    0.010511
  22 C :    0.106046
  23 H :    0.035357
  24 H :    0.021920
  25 C :   -0.140305
  26 H :    0.042293
  27 H :    0.042778
  28 C :   -0.050864
  29 H :    0.035442
  30 H :    0.024706
  31 H :    0.046148
  32 H :    0.029949
  33 H :    0.049431
Sum of atomic charges:   -0.0000000

LOEWDIN ATOMIC CHARGES
----------------------
   0 S :    0.403121
   1 C :   -0.187397
   2 C :   -0.055158
   3 C :   -0.068548
   4 C :   -0.183535
   5 H :    0.031799
   6 C :   -0.021901
   7 H :    0.020090
   8 H :    0.029968
   9 C :   -0.035891
  10 H :    0.019286
  11 H :    0.025505
  12 C :   -0.058562
  13 H :    0.015301
  14 H :    0.025435
  15 H :    0.026873
  16 S :    0.419271
  17 C :   -0.188003
  18 C :   -0.073709
  19 C :   -0.055158
  20 C :   -0.203087
  21 H :    0.027089
  22 C :   -0.035788
  23 H :    0.029564
  24 H :    0.025752
  25 C :   -0.043904
  26 H :    0.029587
  27 H :    0.025434
  28 C :   -0.069417
  29 H :    0.023641
  30 H :    0.024053
  31 H :    0.031307
  32 H :    0.020415
  33 H :    0.026566

  Mayer bond orders larger than 0.100000
B(  0-S ,  1-C ) :   1.1091 B(  0-S ,  4-C ) :   1.1601 B(  1-C ,  2-C ) :   1.6427
B(  1-C , 32-H ) :   0.9775 B(  2-C ,  3-C ) :   1.2253 B(  2-C ,  6-C ) :   1.0308
B(  3-C ,  4-C ) :   1.5811 B(  3-C ,  5-H ) :   0.9895 B(  4-C , 20-C ) :   1.0039
B(  6-C ,  7-H ) :   0.9363 B(  6-C ,  8-H ) :   0.9414 B(  6-C ,  9-C ) :   1.0513
B(  9-C , 10-H ) :   0.9541 B(  9-C , 11-H ) :   0.9613 B(  9-C , 12-C ) :   1.0907
B( 12-C , 13-H ) :   0.9718 B( 12-C , 14-H ) :   0.9761 B( 12-C , 15-H ) :   0.9726
B( 16-S , 17-C ) :   1.1608 B( 16-S , 20-C ) :   1.1519 B( 17-C , 18-C ) :   1.6025
B( 17-C , 33-H ) :   0.9758 B( 18-C , 19-C ) :   1.2351 B( 18-C , 21-H ) :   0.9945
B( 19-C , 20-C ) :   1.5741 B( 19-C , 22-C ) :   1.0481 B( 22-C , 23-H ) :   0.9294
B( 22-C , 24-H ) :   0.9336 B( 22-C , 25-C ) :   1.0360 B( 25-C , 26-H ) :   0.9621
B( 25-C , 27-H ) :   0.9547 B( 25-C , 28-C ) :   1.0899 B( 28-C , 29-H ) :   0.9707
B( 28-C , 30-H ) :   0.9751 B( 28-C , 31-H ) :   0.9757

Dispersion correction           -0.013754564
FINAL SINGLE POINT ENERGY     -1339.875097538992

DIPOLE MOMENT
-------------
                                X             Y             Z
Electronic contribution:      4.87760     -13.99773      -0.64179
Nuclear contribution   :     -5.03333      14.20920       0.87786
                        -----------------------------------------
Total Dipole Moment    :     -0.15573       0.21147       0.23607
                        -----------------------------------------
Magnitude (a.u.)       :      0.35313
Magnitude (Debye)      :      0.89759

Rotational constants in cm-1:     0.021500     0.007583     0.006084
Rotational constants in MHz :   644.568711   227.330479   182.388900

                             ****ORCA TERMINATED NORMALLY****
TOTAL RUN TIME: 0 days 0 hours 0 minutes 21 seconds 62 msec
