                         Program Version 4.2.1 -  RELEASE  -
|  1> ! wB97X-D3 SP def2-SVP
|  2> %pal
|  3> nprocs 24
|  4> end
|  5>
|  6> * xyz 0 1
|  7> S 	 -45.4465 	 12.4948 	 27.138
|  8> C 	 -45.5767 	 12.6428 	 25.3986
|  9> C 	 -46.8673 	 12.8984 	 25.0392
| 10> C 	 -47.7217 	 12.9477 	 26.1581
| 11> C 	 -47.1779 	 12.684 	 27.3523
| 12> H 	 -48.7868 	 13.0853 	 25.9871
| 13> C 	 -47.418 	 13.0081 	 23.5971
| 14> H 	 -48.323 	 12.3923 	 23.5026
| 15> H 	 -46.6969 	 12.5852 	 22.8852
| 16> C 	 -47.7739 	 14.4558 	 23.1697
| 17> H 	 -46.8967 	 15.0991 	 23.1165
| 18> H 	 -48.0828 	 14.464 	 22.1124
| 19> C 	 -48.8401 	 15.1331 	 24.0284
| 20> H 	 -48.4705 	 15.6071 	 24.9445
| 21> H 	 -49.3286 	 15.9025 	 23.4906
| 22> H 	 -49.6833 	 14.5226 	 24.4824
| 23> S 	 -47.3304 	 11.2379 	 29.759
| 24> C 	 -48.4798 	 11.7086 	 30.9107
| 25> C 	 -49.1351 	 12.8343 	 30.5125
| 26> C 	 -48.723 	 13.4423 	 29.2755
| 27> C 	 -47.7428 	 12.6371 	 28.6939
| 28> H 	 -49.8296 	 13.2242 	 31.2049
| 29> C 	 -49.373 	 14.6797 	 28.7915
| 30> H 	 -50.3589 	 14.5679 	 29.1677
| 31> H 	 -49.3937 	 14.5358 	 27.7451
| 32> C 	 -48.6367 	 16.0581 	 29.0832
| 33> H 	 -49.0958 	 16.9077 	 28.5511
| 34> H 	 -47.6001 	 16.0713 	 28.6611
| 35> C 	 -48.5692 	 16.4112 	 30.5821
| 36> H 	 -49.5304 	 16.3493 	 31.08
| 37> H 	 -48.2723 	 17.3974 	 30.7693
| 38> H 	 -47.7845 	 15.7914 	 31.1117
| 39> H 	 -44.7561 	 12.694 	 24.6518
| 40> H 	 -48.87 	 11.0894 	 31.7025
| 41> *
| 42>
| 43>                          ****END OF INPUT****

CARTESIAN COORDINATES (ANGSTROEM)
---------------------------------
  S    -45.446500   12.494800   27.138000
  C    -45.576700   12.642800   25.398600
  C    -46.867300   12.898400   25.039200
  C    -47.721700   12.947700   26.158100
  C    -47.177900   12.684000   27.352300
  H    -48.786800   13.085300   25.987100
  C    -47.418000   13.008100   23.597100
  H    -48.323000   12.392300   23.502600
  H    -46.696900   12.585200   22.885200
  C    -47.773900   14.455800   23.169700
  H    -46.896700   15.099100   23.116500
  H    -48.082800   14.464000   22.112400
  C    -48.840100   15.133100   24.028400
  H    -48.470500   15.607100   24.944500
  H    -49.328600   15.902500   23.490600
  H    -49.683300   14.522600   24.482400
  S    -47.330400   11.237900   29.759000
  C    -48.479800   11.708600   30.910700
  C    -49.135100   12.834300   30.512500
  C    -48.723000   13.442300   29.275500
  C    -47.742800   12.637100   28.693900
  H    -49.829600   13.224200   31.204900
  C    -49.373000   14.679700   28.791500
  H    -50.358900   14.567900   29.167700
  H    -49.393700   14.535800   27.745100
  C    -48.636700   16.058100   29.083200
  H    -49.095800   16.907700   28.551100
  H    -47.600100   16.071300   28.661100
  C    -48.569200   16.411200   30.582100
  H    -49.530400   16.349300   31.080000
  H    -48.272300   17.397400   30.769300
  H    -47.784500   15.791400   31.111700
  H    -44.756100   12.694000   24.651800
  H    -48.870000   11.089400   31.702500

 Total Charge           Charge          ....    0
 Multiplicity           Mult            ....    1
 Number of Electrons    NEL             ....  134
 Basis Dimension        Dim             ....  322

ORBITAL ENERGIES
----------------

  NO   OCC          E(Eh)            E(eV)
   0   2.0000     -88.964426     -2420.8451
   1   2.0000     -88.961465     -2420.7645
   2   2.0000     -10.330523      -281.1078
   3   2.0000     -10.325978      -280.9841
   4   2.0000     -10.313291      -280.6389
   5   2.0000     -10.309986      -280.5490
   6   2.0000     -10.304330      -280.3951
   7   2.0000     -10.298500      -280.2364
   8   2.0000     -10.296923      -280.1935
   9   2.0000     -10.295543      -280.1560
  10   2.0000     -10.291642      -280.0498
  11   2.0000     -10.289492      -279.9913
  12   2.0000     -10.285803      -279.8909
  13   2.0000     -10.284754      -279.8624
  14   2.0000     -10.280043      -279.7342
  15   2.0000     -10.274502      -279.5834
  16   2.0000      -8.079500      -219.8544
  17   2.0000      -8.076422      -219.7706
  18   2.0000      -6.037954      -164.3011
  19   2.0000      -6.035022      -164.2213
  20   2.0000      -6.033979      -164.1929
  21   2.0000      -6.030945      -164.1103
  22   2.0000      -6.030263      -164.0918
  23   2.0000      -6.027011      -164.0033
  24   2.0000      -1.009278       -27.4639
  25   2.0000      -0.988282       -26.8925
  26   2.0000      -0.908998       -24.7351
  27   2.0000      -0.907852       -24.7039
  28   2.0000      -0.870092       -23.6764
  29   2.0000      -0.851592       -23.1730
  30   2.0000      -0.841442       -22.8968
  31   2.0000      -0.816715       -22.2239
  32   2.0000      -0.789920       -21.4948
  33   2.0000      -0.776226       -21.1222
  34   2.0000      -0.712782       -19.3958
  35   2.0000      -0.703632       -19.1468
  36   2.0000      -0.694592       -18.9008
  37   2.0000      -0.660567       -17.9749
  38   2.0000      -0.636489       -17.3197
  39   2.0000      -0.623725       -16.9724
  40   2.0000      -0.588868       -16.0239
  41   2.0000      -0.568951       -15.4819
  42   2.0000      -0.555304       -15.1106
  43   2.0000      -0.546874       -14.8812
  44   2.0000      -0.543545       -14.7906
  45   2.0000      -0.537836       -14.6352
  46   2.0000      -0.519870       -14.1464
  47   2.0000      -0.510265       -13.8850
  48   2.0000      -0.503290       -13.6952
  49   2.0000      -0.494190       -13.4476
  50   2.0000      -0.490088       -13.3360
  51   2.0000      -0.477776       -13.0009
  52   2.0000      -0.475155       -12.9296
  53   2.0000      -0.466398       -12.6913
  54   2.0000      -0.463987       -12.6257
  55   2.0000      -0.441021       -12.0008
  56   2.0000      -0.438452       -11.9309
  57   2.0000      -0.437706       -11.9106
  58   2.0000      -0.433377       -11.7928
  59   2.0000      -0.429595       -11.6899
  60   2.0000      -0.424772       -11.5586
  61   2.0000      -0.416287       -11.3277
  62   2.0000      -0.409931       -11.1548
  63   2.0000      -0.353516        -9.6197
  64   2.0000      -0.331238        -9.0134
  65   2.0000      -0.329528        -8.9669
  66   2.0000      -0.290111        -7.8943
  67   0.0000       0.030833         0.8390
  68   0.0000       0.072064         1.9610
  69   0.0000       0.116198         3.1619
  70   0.0000       0.120373         3.2755
  71   0.0000       0.128343         3.4924

MULLIKEN ATOMIC CHARGES
-----------------------
   0 S :    0.094776
   1 C :   -0.127460
   2 C :   -0.094509
   3 C :    0.007683
   4 C :   -0.120688
   5 H :    0.006206
   6 C :    0.052785
   7 H :    0.038784
   8 H :    0.022569
   9 C :   -0.049385
  10 H :    0.027223
  11 H :    0.030845
  12 C :   -0.076705
  13 H :    0.038528
  14 H :    0.025032
  15 H :    0.029523
  16 S :    0.109186
  17 C :   -0.076263
  18 C :   -0.053430
  19 C :   -0.052897
  20 C :   -0.152746
  21 H :    0.000776
  22 C :    0.149205
  23 H :    0.018583
  24 H :   -0.007447
  25 C :   -0.073153
  26 H :    0.033535
  27 H :    0.042736
  28 C :   -0.049400
  29 H :    0.024674
  30 H :    0.014982
  31 H :    0.049936
  32 H :    0.055506
  33 H :    0.061009
Sum of atomic charges:   -0.0000000

LOEWDIN ATOMIC CHARGES
----------------------
   0 S :    0.395576
   1 C :   -0.199716
   2 C :   -0.069203
   3 C :   -0.072267
   4 C :   -0.186054
   5 H :    0.028483
   6 C :   -0.026430
   7 H :    0.033303
   8 H :    0.030532
   9 C :   -0.042061
  10 H :    0.026771
  11 H :    0.026700
  12 C :   -0.077021
  13 H :    0.027317
  14 H :    0.022024
  15 H :    0.028018
  16 S :    0.406409
  17 C :   -0.202078
  18 C :   -0.073812
  19 C :   -0.046721
  20 C :   -0.185140
  21 H :    0.021694
  22 C :   -0.024926
  23 H :    0.030753
  24 H :    0.026492
  25 C :   -0.034942
  26 H :    0.025637
  27 H :    0.034059
  28 C :   -0.071439
  29 H :    0.022242
  30 H :    0.017709
  31 H :    0.035753
  32 H :    0.037750
  33 H :    0.034589

  Mayer bond orders larger than 0.100000
B(  0-S ,  1-C ) :   1.1297 B(  0-S ,  4-C ) :   1.1384 B(  1-C ,  2-C ) :   1.6448
B(  1-C , 32-H ) :   0.9586 B(  2-C ,  3-C ) :   1.2512 B(  2-C ,  6-C ) :   1.0103
B(  3-C ,  4-C ) :   1.5971 B(  3-C ,  5-H ) :   0.9908 B(  4-C , 20-C ) :   1.0264
B(  6-C ,  7-H ) :   0.9485 B(  6-C ,  8-H ) :   0.9437 B(  6-C ,  9-C ) :   1.0766
B(  9-C , 10-H ) :   0.9510 B(  9-C , 11-H ) :   0.9596 B(  9-C , 12-C ) :   1.0711
B( 12-C , 13-H ) :   0.9709 B( 12-C , 14-H ) :   0.9713 B( 12-C , 15-H ) :   0.9744
B( 16-S , 17-C ) :   1.1531 B( 16-S , 20-C ) :   1.1421 B( 17-C , 18-C ) :   1.6311
B( 17-C , 33-H ) :   0.9618 B( 18-C , 19-C ) :   1.2259 B( 18-C , 21-H ) :   0.9908
B( 19-C , 20-C ) :   1.5824 B( 19-C , 22-C ) :   1.0306 B( 22-C , 23-H ) :   0.9333
B( 22-C , 24-H ) :   0.9162 B( 22-C , 25-C ) :   1.0619 B( 25-C , 26-H ) :   0.9593
B( 25-C , 27-H ) :   0.9562 B( 25-C , 28-C ) :   1.0779 B( 28-C , 29-H ) :   0.9754
B( 28-C , 30-H ) :   0.9718 B( 28-C , 31-H ) :   0.9743

Dispersion correction           -0.015131121
FINAL SINGLE POINT ENERGY     -1339.880954209699

DIPOLE MOMENT
-------------
                                X             Y             Z
Electronic contribution:     13.20679     -21.37958      10.44487
Nuclear contribution   :    -13.76390      21.87064     -10.75849
                        -----------------------------------------
Total Dipole Moment    :     -0.55711       0.49106      -0.31363
                        -----------------------------------------
Magnitude (a.u.)       :      0.80614
Magnitude (Debye)      :      2.04906

Rotational constants in cm-1:     0.018546     0.009507     0.007260
Rotational constants in MHz :   556.008395   285.007289   217.658321

                             ****ORCA TERMINATED NORMALLY****
TOTAL RUN TIME: 0 days 0 hours 0 minutes 22 seconds 444 msec
