                         Program Version 4.2.1 -  RELEASE  -
|  1> ! wB97X-D3 SP def2-SVP
|  2> %pal
|  3> nprocs 24
|  4> end
|  5>
|  6> * xyz 0 1
|  7> S 	 -48.124 	 10.8079 	 25.5682
|  8> C 	 -48.4393 	 11.6914 	 27.0884
|  9> C 	 -49.7211 	 12.165 	 27.1104
| 10> C 	 -50.4133 	 11.9798 	 25.8616
| 11> C 	 -49.7113 	 11.3106 	 24.9076
| 12> H 	 -51.4122 	 12.3233 	 25.6465
| 13> C 	 -50.3804 	 12.7817 	 28.3027
| 14> H 	 -49.7448 	 12.9367 	 29.1527
| 15> H 	 -51.0735 	 11.9779 	 28.5874
| 16> C 	 -51.359 	 13.991 	 28.0853
| 17> H 	 -52.2518 	 13.6785 	 27.6046
| 18> H 	 -51.6493 	 14.3464 	 29.0831
| 19> C 	 -50.6326 	 15.199 	 27.3759
| 20> H 	 -51.3594 	 16.029 	 27.37
| 21> H 	 -49.7728 	 15.5319 	 27.9328
| 22> H 	 -50.3609 	 15.0835 	 26.2918
| 23> S 	 -49.999 	 9.206 	 23.3254
| 24> C 	 -50.3577 	 9.41232 	 21.6243
| 25> C 	 -50.7089 	 10.7616 	 21.3929
| 26> C 	 -50.6432 	 11.6037 	 22.5331
| 27> C 	 -50.0684 	 10.918 	 23.5771
| 28> H 	 -50.9773 	 11.0332 	 20.4136
| 29> C 	 -51.0641 	 13.0488 	 22.6872
| 30> H 	 -51.58 	 13.0581 	 23.6131
| 31> H 	 -51.7554 	 13.208 	 21.8644
| 32> C 	 -50.1139 	 14.1891 	 22.6464
| 33> H 	 -49.5092 	 14.1665 	 23.5422
| 34> H 	 -50.5975 	 15.2194 	 22.671
| 35> C 	 -49.2388 	 14.095 	 21.4164
| 36> H 	 -49.7514 	 14.1964 	 20.4763
| 37> H 	 -48.5314 	 13.3122 	 21.4708
| 38> H 	 -48.6108 	 14.9749 	 21.3769
| 39> H 	 -47.9298 	 11.5074 	 28.0199
| 40> H 	 -50.2068 	 8.72181 	 20.8079
| 41> *
| 42>
| 43>                          ****END OF INPUT****

CARTESIAN COORDINATES (ANGSTROEM)
---------------------------------
  S    -48.124000   10.807900   25.568200
  C    -48.439300   11.691400   27.088400
  C    -49.721100   12.165000   27.110400
  C    -50.413300   11.979800   25.861600
  C    -49.711300   11.310600   24.907600
  H    -51.412200   12.323300   25.646500
  C    -50.380400   12.781700   28.302700
  H    -49.744800   12.936700   29.152700
  H    -51.073500   11.977900   28.587400
  C    -51.359000   13.991000   28.085300
  H    -52.251800   13.678500   27.604600
  H    -51.649300   14.346400   29.083100
  C    -50.632600   15.199000   27.375900
  H    -51.359400   16.029000   27.370000
  H    -49.772800   15.531900   27.932800
  H    -50.360900   15.083500   26.291800
  S    -49.999000    9.206000   23.325400
  C    -50.357700    9.412320   21.624300
  C    -50.708900   10.761600   21.392900
  C    -50.643200   11.603700   22.533100
  C    -50.068400   10.918000   23.577100
  H    -50.977300   11.033200   20.413600
  C    -51.064100   13.048800   22.687200
  H    -51.580000   13.058100   23.613100
  H    -51.755400   13.208000   21.864400
  C    -50.113900   14.189100   22.646400
  H    -49.509200   14.166500   23.542200
  H    -50.597500   15.219400   22.671000
  C    -49.238800   14.095000   21.416400
  H    -49.751400   14.196400   20.476300
  H    -48.531400   13.312200   21.470800
  H    -48.610800   14.974900   21.376900
  H    -47.929800   11.507400   28.019900
  H    -50.206800    8.721810   20.807900

 Total Charge           Charge          ....    0
 Multiplicity           Mult            ....    1
 Number of Electrons    NEL             ....  134
 Basis Dimension        Dim             ....  322

ORBITAL ENERGIES
----------------

  NO   OCC          E(Eh)            E(eV)
   0   2.0000     -88.966009     -2420.8882
   1   2.0000     -88.961355     -2420.7615
   2   2.0000     -10.329550      -281.0814
   3   2.0000     -10.319348      -280.8037
   4   2.0000     -10.317562      -280.7551
   5   2.0000     -10.310262      -280.5565
   6   2.0000     -10.302702      -280.3508
   7   2.0000     -10.301983      -280.3312
   8   2.0000     -10.295361      -280.1510
   9   2.0000     -10.294197      -280.1193
  10   2.0000     -10.293881      -280.1108
  11   2.0000     -10.292502      -280.0732
  12   2.0000     -10.284479      -279.8549
  13   2.0000     -10.283901      -279.8392
  14   2.0000     -10.282910      -279.8122
  15   2.0000     -10.264947      -279.3234
  16   2.0000      -8.080950      -219.8938
  17   2.0000      -8.075118      -219.7351
  18   2.0000      -6.039439      -164.3415
  19   2.0000      -6.035382      -164.2311
  20   2.0000      -6.033854      -164.1895
  21   2.0000      -6.031745      -164.1321
  22   2.0000      -6.029804      -164.0793
  23   2.0000      -6.025636      -163.9659
  24   2.0000      -1.009827       -27.4788
  25   2.0000      -0.981668       -26.7126
  26   2.0000      -0.918113       -24.9831
  27   2.0000      -0.908438       -24.7199
  28   2.0000      -0.870071       -23.6758
  29   2.0000      -0.853186       -23.2164
  30   2.0000      -0.838301       -22.8113
  31   2.0000      -0.817106       -22.2346
  32   2.0000      -0.788535       -21.4571
  33   2.0000      -0.775031       -21.0897
  34   2.0000      -0.715121       -19.4594
  35   2.0000      -0.699970       -19.0472
  36   2.0000      -0.692209       -18.8360
  37   2.0000      -0.666960       -18.1489
  38   2.0000      -0.640100       -17.4180
  39   2.0000      -0.624266       -16.9872
  40   2.0000      -0.587703       -15.9922
  41   2.0000      -0.570740       -15.5306
  42   2.0000      -0.559169       -15.2158
  43   2.0000      -0.552470       -15.0335
  44   2.0000      -0.550287       -14.9741
  45   2.0000      -0.532408       -14.4876
  46   2.0000      -0.520533       -14.1644
  47   2.0000      -0.510793       -13.8994
  48   2.0000      -0.505816       -13.7639
  49   2.0000      -0.503370       -13.6974
  50   2.0000      -0.486145       -13.2287
  51   2.0000      -0.483820       -13.1654
  52   2.0000      -0.474949       -12.9240
  53   2.0000      -0.462257       -12.5786
  54   2.0000      -0.458498       -12.4764
  55   2.0000      -0.445127       -12.1125
  56   2.0000      -0.440293       -11.9810
  57   2.0000      -0.437449       -11.9036
  58   2.0000      -0.432274       -11.7628
  59   2.0000      -0.429136       -11.6774
  60   2.0000      -0.421276       -11.4635
  61   2.0000      -0.416993       -11.3470
  62   2.0000      -0.407288       -11.0829
  63   2.0000      -0.342734        -9.3263
  64   2.0000      -0.332646        -9.0518
  65   2.0000      -0.323856        -8.8126
  66   2.0000      -0.293913        -7.9978
  67   0.0000       0.023826         0.6483
  68   0.0000       0.070285         1.9126
  69   0.0000       0.106921         2.9095
  70   0.0000       0.120026         3.2661
  71   0.0000       0.127128         3.4593

MULLIKEN ATOMIC CHARGES
-----------------------
   0 S :    0.086163
   1 C :   -0.110794
   2 C :   -0.089550
   3 C :    0.030796
   4 C :   -0.146102
   5 H :    0.010852
   6 C :    0.058851
   7 H :    0.018157
   8 H :    0.040472
   9 C :   -0.068515
  10 H :    0.027010
  11 H :    0.031927
  12 C :   -0.072245
  13 H :    0.028942
  14 H :    0.034973
  15 H :    0.048843
  16 S :    0.119777
  17 C :   -0.087472
  18 C :   -0.045732
  19 C :   -0.028933
  20 C :   -0.177866
  21 H :   -0.004305
  22 C :    0.123290
  23 H :    0.004954
  24 H :    0.011678
  25 C :   -0.064868
  26 H :    0.031862
  27 H :    0.036229
  28 C :   -0.024730
  29 H :    0.020881
  30 H :    0.037029
  31 H :    0.010082
  32 H :    0.050010
  33 H :    0.058337
Sum of atomic charges:    0.0000000

LOEWDIN ATOMIC CHARGES
----------------------
   0 S :    0.365300
   1 C :   -0.194179
   2 C :   -0.057229
   3 C :   -0.064222
   4 C :   -0.175975
   5 H :    0.027849
   6 C :   -0.035755
   7 H :    0.025949
   8 H :    0.042124
   9 C :   -0.032772
  10 H :    0.016489
  11 H :    0.030283
  12 C :   -0.072379
  13 H :    0.025458
  14 H :    0.024139
  15 H :    0.030481
  16 S :    0.422516
  17 C :   -0.193305
  18 C :   -0.059041
  19 C :   -0.052843
  20 C :   -0.204396
  21 H :    0.021036
  22 C :   -0.030330
  23 H :    0.024823
  24 H :    0.031340
  25 C :   -0.040741
  26 H :    0.022872
  27 H :    0.033991
  28 C :   -0.063494
  29 H :    0.022321
  30 H :    0.024123
  31 H :    0.025806
  32 H :    0.028860
  33 H :    0.030901

  Mayer bond orders larger than 0.100000
B(  0-S ,  1-C ) :   1.1031 B(  0-S ,  4-C ) :   1.1293 B(  1-C ,  2-C ) :   1.6648
B(  1-C , 32-H ) :   0.9590 B(  2-C ,  3-C ) :   1.1977 B(  2-C ,  6-C ) :   1.0230
B(  3-C ,  4-C ) :   1.6092 B(  3-C ,  5-H ) :   0.9906 B(  4-C , 20-C ) :   1.0415
B(  6-C ,  7-H ) :   0.9478 B(  6-C ,  8-H ) :   0.9289 B(  6-C ,  9-C ) :   1.0787
B(  9-C , 10-H ) :   0.9534 B(  9-C , 11-H ) :   0.9541 B(  9-C , 12-C ) :   1.0724
B( 12-C , 13-H ) :   0.9760 B( 12-C , 14-H ) :   0.9769 B( 12-C , 15-H ) :   0.9744
B( 16-S , 17-C ) :   1.1463 B( 16-S , 20-C ) :   1.1710 B( 17-C , 18-C ) :   1.5977
B( 17-C , 20-C ) :   0.1109 B( 17-C , 33-H ) :   0.9688 B( 18-C , 19-C ) :   1.2370
B( 18-C , 21-H ) :   0.9977 B( 19-C , 20-C ) :   1.5630 B( 19-C , 22-C ) :   1.0338
B( 22-C , 23-H ) :   0.9239 B( 22-C , 24-H ) :   0.9229 B( 22-C , 25-C ) :   1.0880
B( 25-C , 26-H ) :   0.9464 B( 25-C , 27-H ) :   0.9523 B( 25-C , 28-C ) :   1.0906
B( 28-C , 29-H ) :   0.9743 B( 28-C , 30-H ) :   0.9698 B( 28-C , 31-H ) :   0.9663

Dispersion correction           -0.015558087
FINAL SINGLE POINT ENERGY     -1339.869200251232

DIPOLE MOMENT
-------------
                                X             Y             Z
Electronic contribution:      7.48051     -26.06573      -3.07434
Nuclear contribution   :     -7.95408      26.57556       3.22019
                        -----------------------------------------
Total Dipole Moment    :     -0.47357       0.50982       0.14586
                        -----------------------------------------
Magnitude (a.u.)       :      0.71096
Magnitude (Debye)      :      1.80711

Rotational constants in cm-1:     0.019044     0.009925     0.007702
Rotational constants in MHz :   570.920176   297.550154   230.886513

                             ****ORCA TERMINATED NORMALLY****
TOTAL RUN TIME: 0 days 0 hours 0 minutes 22 seconds 968 msec
