                         Program Version 4.2.1 -  RELEASE  -
|  1> ! wB97X-D3 SP def2-SVP
|  2> %pal
|  3> nprocs 24
|  4> end
|  5>
|  6> * xyz 0 1
|  7> S 	 -43.1767 	 -5.42325 	 17.9847
|  8> C 	 -44.4355 	 -5.35435 	 16.6926
|  9> C 	 -45.5573 	 -4.71362 	 17.2046
| 10> C 	 -45.2172 	 -4.00313 	 18.4284
| 11> C 	 -43.9174 	 -4.11874 	 18.8454
| 12> H 	 -45.8959 	 -3.34366 	 18.967
| 13> C 	 -47.0053 	 -4.67058 	 16.7042
| 14> H 	 -47.0424 	 -5.71909 	 16.2962
| 15> H 	 -47.0177 	 -3.99431 	 15.7854
| 16> C 	 -48.1913 	 -4.29401 	 17.6391
| 17> H 	 -48.4258 	 -5.17982 	 18.2884
| 18> H 	 -47.9604 	 -3.42884 	 18.2281
| 19> C 	 -49.4454 	 -4.08614 	 16.7769
| 20> H 	 -49.2582 	 -3.48208 	 15.8473
| 21> H 	 -49.7261 	 -5.06931 	 16.5762
| 22> H 	 -50.1327 	 -3.69466 	 17.4771
| 23> S 	 -42.9197 	 -4.63824 	 21.4355
| 24> C 	 -42.3155 	 -3.3376 	 22.3819
| 25> C 	 -42.6077 	 -2.12889 	 21.7745
| 26> C 	 -43.2139 	 -2.23238 	 20.4712
| 27> C 	 -43.3695 	 -3.54257 	 20.0653
| 28> H 	 -42.3538 	 -1.18844 	 22.2883
| 29> C 	 -43.4401 	 -0.945668 	 19.664
| 30> H 	 -43.9796 	 -0.260647 	 20.3542
| 31> H 	 -44.1827 	 -1.03846 	 18.8943
| 32> C 	 -42.1206 	 -0.231912 	 19.296
| 33> H 	 -41.3555 	 -0.843177 	 18.8893
| 34> H 	 -41.7321 	 0.125132 	 20.1512
| 35> C 	 -42.2789 	 0.849528 	 18.2331
| 36> H 	 -42.969 	 1.5427 	 18.6054
| 37> H 	 -42.6746 	 0.461463 	 17.2483
| 38> H 	 -41.3284 	 1.39891 	 18.1443
| 39> H 	 -44.3772 	 -6.01644 	 15.8128
| 40> H 	 -41.9695 	 -3.37885 	 23.4419
| 41> *
| 42>
| 43>                          ****END OF INPUT****

CARTESIAN COORDINATES (ANGSTROEM)
---------------------------------
  S    -43.176700   -5.423250   17.984700
  C    -44.435500   -5.354350   16.692600
  C    -45.557300   -4.713620   17.204600
  C    -45.217200   -4.003130   18.428400
  C    -43.917400   -4.118740   18.845400
  H    -45.895900   -3.343660   18.967000
  C    -47.005300   -4.670580   16.704200
  H    -47.042400   -5.719090   16.296200
  H    -47.017700   -3.994310   15.785400
  C    -48.191300   -4.294010   17.639100
  H    -48.425800   -5.179820   18.288400
  H    -47.960400   -3.428840   18.228100
  C    -49.445400   -4.086140   16.776900
  H    -49.258200   -3.482080   15.847300
  H    -49.726100   -5.069310   16.576200
  H    -50.132700   -3.694660   17.477100
  S    -42.919700   -4.638240   21.435500
  C    -42.315500   -3.337600   22.381900
  C    -42.607700   -2.128890   21.774500
  C    -43.213900   -2.232380   20.471200
  C    -43.369500   -3.542570   20.065300
  H    -42.353800   -1.188440   22.288300
  C    -43.440100   -0.945668   19.664000
  H    -43.979600   -0.260647   20.354200
  H    -44.182700   -1.038460   18.894300
  C    -42.120600   -0.231912   19.296000
  H    -41.355500   -0.843177   18.889300
  H    -41.732100    0.125132   20.151200
  C    -42.278900    0.849528   18.233100
  H    -42.969000    1.542700   18.605400
  H    -42.674600    0.461463   17.248300
  H    -41.328400    1.398910   18.144300
  H    -44.377200   -6.016440   15.812800
  H    -41.969500   -3.378850   23.441900

 Total Charge           Charge          ....    0
 Multiplicity           Mult            ....    1
 Number of Electrons    NEL             ....  134
 Basis Dimension        Dim             ....  322

ORBITAL ENERGIES
----------------

  NO   OCC          E(Eh)            E(eV)
   0   2.0000     -88.962601     -2420.7954
   1   2.0000     -88.961071     -2420.7538
   2   2.0000     -10.329384      -281.0768
   3   2.0000     -10.325441      -280.9695
   4   2.0000     -10.320009      -280.8217
   5   2.0000     -10.317687      -280.7585
   6   2.0000     -10.308129      -280.4985
   7   2.0000     -10.305503      -280.4270
   8   2.0000     -10.304207      -280.3917
   9   2.0000     -10.295847      -280.1642
  10   2.0000     -10.293300      -280.0949
  11   2.0000     -10.293240      -280.0933
  12   2.0000     -10.291449      -280.0446
  13   2.0000     -10.277168      -279.6560
  14   2.0000     -10.274955      -279.5958
  15   2.0000     -10.271408      -279.4992
  16   2.0000      -8.077076      -219.7884
  17   2.0000      -8.075607      -219.7484
  18   2.0000      -6.035730      -164.2406
  19   2.0000      -6.034296      -164.2015
  20   2.0000      -6.031618      -164.1287
  21   2.0000      -6.030357      -164.0943
  22   2.0000      -6.027688      -164.0217
  23   2.0000      -6.025956      -163.9746
  24   2.0000      -1.001952       -27.2645
  25   2.0000      -0.979617       -26.6567
  26   2.0000      -0.911732       -24.8095
  27   2.0000      -0.908972       -24.7344
  28   2.0000      -0.871502       -23.7148
  29   2.0000      -0.851311       -23.1653
  30   2.0000      -0.840907       -22.8822
  31   2.0000      -0.808790       -22.0083
  32   2.0000      -0.780149       -21.2289
  33   2.0000      -0.771728       -20.9998
  34   2.0000      -0.709847       -19.3159
  35   2.0000      -0.703374       -19.1398
  36   2.0000      -0.690403       -18.7868
  37   2.0000      -0.652114       -17.7449
  38   2.0000      -0.636729       -17.3263
  39   2.0000      -0.616258       -16.7692
  40   2.0000      -0.593662       -16.1544
  41   2.0000      -0.575690       -15.6653
  42   2.0000      -0.564815       -15.3694
  43   2.0000      -0.562923       -15.3179
  44   2.0000      -0.534628       -14.5480
  45   2.0000      -0.526694       -14.3321
  46   2.0000      -0.514330       -13.9956
  47   2.0000      -0.505638       -13.7591
  48   2.0000      -0.501989       -13.6598
  49   2.0000      -0.497849       -13.5472
  50   2.0000      -0.491974       -13.3873
  51   2.0000      -0.475151       -12.9295
  52   2.0000      -0.470167       -12.7939
  53   2.0000      -0.462601       -12.5880
  54   2.0000      -0.457143       -12.4395
  55   2.0000      -0.448304       -12.1990
  56   2.0000      -0.440458       -11.9855
  57   2.0000      -0.437425       -11.9029
  58   2.0000      -0.433842       -11.8054
  59   2.0000      -0.431508       -11.7419
  60   2.0000      -0.423767       -11.5313
  61   2.0000      -0.412373       -11.2212
  62   2.0000      -0.408139       -11.1060
  63   2.0000      -0.341501        -9.2927
  64   2.0000      -0.327811        -8.9202
  65   2.0000      -0.320927        -8.7329
  66   2.0000      -0.295152        -8.0315
  67   0.0000       0.030532         0.8308
  68   0.0000       0.061561         1.6752
  69   0.0000       0.104549         2.8449
  70   0.0000       0.117280         3.1913
  71   0.0000       0.133650         3.6368

MULLIKEN ATOMIC CHARGES
-----------------------
   0 S :    0.092075
   1 C :   -0.145160
   2 C :   -0.059168
   3 C :    0.015886
   4 C :   -0.142621
   5 H :    0.011791
   6 C :   -0.005693
   7 H :    0.038362
   8 H :    0.050553
   9 C :   -0.095815
  10 H :    0.047805
  11 H :    0.040864
  12 C :   -0.005871
  13 H :    0.048962
  14 H :    0.017876
  15 H :    0.027309
  16 S :    0.098007
  17 C :   -0.100197
  18 C :   -0.066976
  19 C :   -0.020621
  20 C :   -0.165194
  21 H :    0.027132
  22 C :    0.073911
  23 H :    0.021271
  24 H :    0.010952
  25 C :   -0.017496
  26 H :    0.028113
  27 H :   -0.007646
  28 C :   -0.044624
  29 H :    0.006847
  30 H :    0.048599
  31 H :    0.035896
  32 H :    0.057908
  33 H :    0.076961
Sum of atomic charges:    0.0000000

LOEWDIN ATOMIC CHARGES
----------------------
   0 S :    0.387524
   1 C :   -0.189419
   2 C :   -0.059625
   3 C :   -0.064522
   4 C :   -0.200395
   5 H :    0.027483
   6 C :   -0.047183
   7 H :    0.038985
   8 H :    0.039710
   9 C :   -0.037153
  10 H :    0.036277
  11 H :    0.017183
  12 C :   -0.053402
  13 H :    0.032642
  14 H :    0.019450
  15 H :    0.024217
  16 S :    0.387872
  17 C :   -0.203390
  18 C :   -0.080337
  19 C :   -0.052267
  20 C :   -0.180400
  21 H :    0.032208
  22 C :   -0.027059
  23 H :    0.035666
  24 H :    0.022454
  25 C :   -0.028261
  26 H :    0.024397
  27 H :    0.006994
  28 C :   -0.060104
  29 H :    0.011763
  30 H :    0.033788
  31 H :    0.030381
  32 H :    0.030745
  33 H :    0.043779

  Mayer bond orders larger than 0.100000
B(  0-S ,  1-C ) :   1.1179 B(  0-S ,  4-C ) :   1.1444 B(  1-C ,  2-C ) :   1.6168
B(  1-C , 32-H ) :   0.9736 B(  2-C ,  3-C ) :   1.2235 B(  2-C ,  6-C ) :   0.9885
B(  3-C ,  4-C ) :   1.5874 B(  3-C ,  5-H ) :   0.9890 B(  4-C , 20-C ) :   1.0441
B(  6-C ,  7-H ) :   0.9432 B(  6-C ,  8-H ) :   0.9413 B(  6-C ,  9-C ) :   1.0694
B(  9-C , 10-H ) :   0.9555 B(  9-C , 11-H ) :   0.9527 B(  9-C , 12-C ) :   1.0738
B( 12-C , 13-H ) :   0.9762 B( 12-C , 14-H ) :   0.9783 B( 12-C , 15-H ) :   0.9714
B( 16-S , 17-C ) :   1.1518 B( 16-S , 20-C ) :   1.1213 B( 17-C , 18-C ) :   1.6255
B( 17-C , 33-H ) :   0.9585 B( 18-C , 19-C ) :   1.2214 B( 18-C , 21-H ) :   0.9839
B( 19-C , 20-C ) :   1.6301 B( 19-C , 22-C ) :   1.0475 B( 22-C , 23-H ) :   0.9278
B( 22-C , 24-H ) :   0.9418 B( 22-C , 25-C ) :   1.0486 B( 25-C , 26-H ) :   0.9605
B( 25-C , 27-H ) :   0.9467 B( 25-C , 28-C ) :   1.0941 B( 28-C , 29-H ) :   0.9723
B( 28-C , 30-H ) :   0.9767 B( 28-C , 31-H ) :   0.9723

Dispersion correction           -0.013235767
FINAL SINGLE POINT ENERGY     -1339.849294918905

DIPOLE MOMENT
-------------
                                X             Y             Z
Electronic contribution:     15.54059     -18.52674      10.90529
Nuclear contribution   :    -16.15373      19.00167     -10.94708
                        -----------------------------------------
Total Dipole Moment    :     -0.61314       0.47493      -0.04180
                        -----------------------------------------
Magnitude (a.u.)       :      0.77669
Magnitude (Debye)      :      1.97418

Rotational constants in cm-1:     0.016513     0.007936     0.006801
Rotational constants in MHz :   495.043589   237.920921   203.896813

                             ****ORCA TERMINATED NORMALLY****
TOTAL RUN TIME: 0 days 0 hours 0 minutes 19 seconds 535 msec
