                         Program Version 4.2.1 -  RELEASE  -
|  1> ! wB97X-D3 SP def2-SVP
|  2> %pal
|  3> nprocs 24
|  4> end
|  5>
|  6> * xyz 0 1
|  7> S 	 33.6399 	 -35.3618 	 -128.7
|  8> C 	 33.5744 	 -33.746 	 -128.217
|  9> C 	 32.6357 	 -33.0458 	 -128.953
| 10> C 	 32.1507 	 -33.816 	 -130.088
| 11> C 	 32.514 	 -35.1155 	 -130.025
| 12> H 	 31.4758 	 -33.4332 	 -130.819
| 13> C 	 32.1317 	 -31.6056 	 -128.807
| 14> H 	 33.0404 	 -31.1667 	 -128.47
| 15> H 	 31.4587 	 -31.6035 	 -127.978
| 16> C 	 31.6228 	 -30.878 	 -130.07
| 17> H 	 32.4565 	 -30.9241 	 -130.754
| 18> H 	 30.8178 	 -31.5348 	 -130.481
| 19> C 	 31.0995 	 -29.4606 	 -129.977
| 20> H 	 30.6008 	 -29.3139 	 -129.061
| 21> H 	 31.9868 	 -28.8056 	 -129.915
| 22> H 	 30.4194 	 -29.1982 	 -130.739
| 23> S 	 33.7543 	 -37.1118 	 -131.474
| 24> C 	 32.7174 	 -37.9859 	 -132.603
| 25> C 	 31.4114 	 -37.5628 	 -132.711
| 26> C 	 31.2031 	 -36.3806 	 -131.921
| 27> C 	 32.29 	 -36.1124 	 -131.031
| 28> H 	 30.6719 	 -37.9411 	 -133.352
| 29> C 	 29.9814 	 -35.5871 	 -131.999
| 30> H 	 29.393 	 -35.9326 	 -132.871
| 31> H 	 30.3138 	 -34.5714 	 -132.291
| 32> C 	 29.0849 	 -35.3655 	 -130.773
| 33> H 	 28.1595 	 -34.8678 	 -131.1
| 34> H 	 29.7003 	 -34.7795 	 -130.067
| 35> C 	 28.7577 	 -36.7225 	 -129.932
| 36> H 	 28.1955 	 -37.5325 	 -130.405
| 37> H 	 28.0733 	 -36.4406 	 -129.13
| 38> H 	 29.5851 	 -37.1994 	 -129.501
| 39> H 	 34.1321 	 -33.4089 	 -127.351
| 40> H 	 33.0037 	 -38.7147 	 -133.359
| 41> *
| 42>
| 43>                          ****END OF INPUT****

CARTESIAN COORDINATES (ANGSTROEM)
---------------------------------
  S     33.639900  -35.361800  -128.700000
  C     33.574400  -33.746000  -128.217000
  C     32.635700  -33.045800  -128.953000
  C     32.150700  -33.816000  -130.088000
  C     32.514000  -35.115500  -130.025000
  H     31.475800  -33.433200  -130.819000
  C     32.131700  -31.605600  -128.807000
  H     33.040400  -31.166700  -128.470000
  H     31.458700  -31.603500  -127.978000
  C     31.622800  -30.878000  -130.070000
  H     32.456500  -30.924100  -130.754000
  H     30.817800  -31.534800  -130.481000
  C     31.099500  -29.460600  -129.977000
  H     30.600800  -29.313900  -129.061000
  H     31.986800  -28.805600  -129.915000
  H     30.419400  -29.198200  -130.739000
  S     33.754300  -37.111800  -131.474000
  C     32.717400  -37.985900  -132.603000
  C     31.411400  -37.562800  -132.711000
  C     31.203100  -36.380600  -131.921000
  C     32.290000  -36.112400  -131.031000
  H     30.671900  -37.941100  -133.352000
  C     29.981400  -35.587100  -131.999000
  H     29.393000  -35.932600  -132.871000
  H     30.313800  -34.571400  -132.291000
  C     29.084900  -35.365500  -130.773000
  H     28.159500  -34.867800  -131.100000
  H     29.700300  -34.779500  -130.067000
  C     28.757700  -36.722500  -129.932000
  H     28.195500  -37.532500  -130.405000
  H     28.073300  -36.440600  -129.130000
  H     29.585100  -37.199400  -129.501000
  H     34.132100  -33.408900  -127.351000
  H     33.003700  -38.714700  -133.359000

 Total Charge           Charge          ....    0
 Multiplicity           Mult            ....    1
 Number of Electrons    NEL             ....  134
 Basis Dimension        Dim             ....  322

ORBITAL ENERGIES
----------------

  NO   OCC          E(Eh)            E(eV)
   0   2.0000     -88.969461     -2420.9821
   1   2.0000     -88.963713     -2420.8257
   2   2.0000     -10.330197      -281.0989
   3   2.0000     -10.324110      -280.9333
   4   2.0000     -10.317034      -280.7408
   5   2.0000     -10.311130      -280.5801
   6   2.0000     -10.305335      -280.4224
   7   2.0000     -10.303457      -280.3713
   8   2.0000     -10.296327      -280.1773
   9   2.0000     -10.291319      -280.0410
  10   2.0000     -10.291067      -280.0342
  11   2.0000     -10.290516      -280.0192
  12   2.0000     -10.288401      -279.9616
  13   2.0000     -10.286787      -279.9177
  14   2.0000     -10.275670      -279.6152
  15   2.0000     -10.271890      -279.5123
  16   2.0000      -8.082460      -219.9349
  17   2.0000      -8.079676      -219.8592
  18   2.0000      -6.041032      -164.3848
  19   2.0000      -6.038208      -164.3080
  20   2.0000      -6.037417      -164.2865
  21   2.0000      -6.033958      -164.1923
  22   2.0000      -6.033046      -164.1675
  23   2.0000      -6.030391      -164.0953
  24   2.0000      -1.009003       -27.4564
  25   2.0000      -0.978883       -26.6367
  26   2.0000      -0.913101       -24.8467
  27   2.0000      -0.905078       -24.6284
  28   2.0000      -0.875097       -23.8126
  29   2.0000      -0.853213       -23.2171
  30   2.0000      -0.840979       -22.8842
  31   2.0000      -0.815523       -22.1915
  32   2.0000      -0.786216       -21.3940
  33   2.0000      -0.771724       -20.9997
  34   2.0000      -0.718622       -19.5547
  35   2.0000      -0.703915       -19.1545
  36   2.0000      -0.683532       -18.5998
  37   2.0000      -0.664673       -18.0867
  38   2.0000      -0.644307       -17.5325
  39   2.0000      -0.622828       -16.9480
  40   2.0000      -0.588238       -16.0068
  41   2.0000      -0.574633       -15.6366
  42   2.0000      -0.562190       -15.2980
  43   2.0000      -0.551001       -14.9935
  44   2.0000      -0.538750       -14.6601
  45   2.0000      -0.528353       -14.3772
  46   2.0000      -0.517117       -14.0715
  47   2.0000      -0.510638       -13.8952
  48   2.0000      -0.505196       -13.7471
  49   2.0000      -0.500038       -13.6067
  50   2.0000      -0.486047       -13.2260
  51   2.0000      -0.481190       -13.0938
  52   2.0000      -0.472302       -12.8520
  53   2.0000      -0.469656       -12.7800
  54   2.0000      -0.461582       -12.5603
  55   2.0000      -0.455809       -12.4032
  56   2.0000      -0.446263       -12.1434
  57   2.0000      -0.435435       -11.8488
  58   2.0000      -0.429661       -11.6917
  59   2.0000      -0.428092       -11.6490
  60   2.0000      -0.419561       -11.4168
  61   2.0000      -0.412367       -11.2211
  62   2.0000      -0.406853       -11.0710
  63   2.0000      -0.356920        -9.7123
  64   2.0000      -0.331463        -9.0196
  65   2.0000      -0.324354        -8.8261
  66   2.0000      -0.279396        -7.6027
  67   0.0000       0.021809         0.5934
  68   0.0000       0.070929         1.9301
  69   0.0000       0.101950         2.7742
  70   0.0000       0.117945         3.2094
  71   0.0000       0.135744         3.6938

MULLIKEN ATOMIC CHARGES
-----------------------
   0 S :    0.108813
   1 C :   -0.136029
   2 C :   -0.117419
   3 C :    0.002723
   4 C :   -0.118503
   5 H :   -0.005292
   6 C :    0.113954
   7 H :    0.008775
   8 H :    0.032399
   9 C :   -0.139169
  10 H :    0.032545
  11 H :    0.039151
  12 C :    0.030210
  13 H :    0.011862
  14 H :    0.031620
  15 H :    0.033017
  16 S :    0.103605
  17 C :   -0.066039
  18 C :   -0.014278
  19 C :   -0.050853
  20 C :   -0.141766
  21 H :    0.000249
  22 C :    0.036798
  23 H :    0.015074
  24 H :    0.036642
  25 C :   -0.065669
  26 H :    0.043430
  27 H :    0.044009
  28 C :   -0.061346
  29 H :    0.022952
  30 H :    0.027087
  31 H :    0.035981
  32 H :    0.051836
  33 H :    0.053630
Sum of atomic charges:   -0.0000000

LOEWDIN ATOMIC CHARGES
----------------------
   0 S :    0.422472
   1 C :   -0.220689
   2 C :   -0.056143
   3 C :   -0.065949
   4 C :   -0.195678
   5 H :    0.022489
   6 C :   -0.030567
   7 H :    0.026991
   8 H :    0.027967
   9 C :   -0.044294
  10 H :    0.025372
  11 H :    0.023733
  12 C :   -0.055421
  13 H :    0.020446
  14 H :    0.032183
  15 H :    0.025707
  16 S :    0.373635
  17 C :   -0.179405
  18 C :   -0.062774
  19 C :   -0.046052
  20 C :   -0.174428
  21 H :    0.025457
  22 C :   -0.047566
  23 H :    0.031271
  24 H :    0.036181
  25 C :   -0.031553
  26 H :    0.029389
  27 H :    0.028363
  28 C :   -0.071133
  29 H :    0.022147
  30 H :    0.026651
  31 H :    0.019958
  32 H :    0.029792
  33 H :    0.031447

  Mayer bond orders larger than 0.100000
B(  0-S ,  1-C ) :   1.1455 B(  0-S ,  4-C ) :   1.1449 B(  1-C ,  2-C ) :   1.6061
B(  1-C , 32-H ) :   0.9728 B(  2-C ,  3-C ) :   1.2455 B(  2-C ,  6-C ) :   0.9910
B(  3-C ,  4-C ) :   1.5552 B(  3-C ,  5-H ) :   0.9879 B(  4-C , 20-C ) :   1.0893
B(  6-C ,  7-H ) :   0.9344 B(  6-C ,  8-H ) :   0.9268 B(  6-C ,  9-C ) :   1.0847
B(  9-C , 10-H ) :   0.9604 B(  9-C , 11-H ) :   0.9430 B(  9-C , 12-C ) :   1.0813
B( 12-C , 13-H ) :   0.9712 B( 12-C , 14-H ) :   0.9719 B( 12-C , 15-H ) :   0.9723
B( 16-S , 17-C ) :   1.1421 B( 16-S , 20-C ) :   1.1111 B( 17-C , 18-C ) :   1.6226
B( 17-C , 33-H ) :   0.9577 B( 18-C , 19-C ) :   1.2424 B( 18-C , 21-H ) :   0.9900
B( 19-C , 20-C ) :   1.5668 B( 19-C , 22-C ) :   1.0614 B( 22-C , 23-H ) :   0.9254
B( 22-C , 24-H ) :   0.9222 B( 22-C , 25-C ) :   1.0714 B( 25-C , 26-H ) :   0.9569
B( 25-C , 27-H ) :   0.9454 B( 25-C , 28-C ) :   1.0674 B( 28-C , 29-H ) :   0.9803
B( 28-C , 30-H ) :   0.9773 B( 28-C , 31-H ) :   0.9756

Dispersion correction           -0.014919648
FINAL SINGLE POINT ENERGY     -1339.856596024327

DIPOLE MOMENT
-------------
                                X             Y             Z
Electronic contribution:     20.99665     -19.19838       0.34443
Nuclear contribution   :    -21.50034      19.76025      -0.53692
                        -----------------------------------------
Total Dipole Moment    :     -0.50369       0.56187      -0.19249
                        -----------------------------------------
Magnitude (a.u.)       :      0.77875
Magnitude (Debye)      :      1.97942

Rotational constants in cm-1:     0.018566     0.009184     0.007417
Rotational constants in MHz :   556.587494   275.315469   222.346042

                             ****ORCA TERMINATED NORMALLY****
TOTAL RUN TIME: 0 days 0 hours 0 minutes 21 seconds 274 msec
