                         Program Version 4.2.1 -  RELEASE  -
|  1> ! wB97X-D3 SP def2-SVP
|  2> %pal
|  3> nprocs 24
|  4> end
|  5>
|  6> * xyz 0 1
|  7> S 	 -53.2025 	 -47.9426 	 -80.1341
|  8> C 	 -52.918 	 -46.4801 	 -79.2588
|  9> C 	 -51.6816 	 -46.5499 	 -78.6086
| 10> C 	 -50.9027 	 -47.7338 	 -78.9865
| 11> C 	 -51.6204 	 -48.6536 	 -79.713
| 12> H 	 -49.8992 	 -47.9449 	 -78.6324
| 13> C 	 -51.1335 	 -45.4453 	 -77.7107
| 14> H 	 -51.6989 	 -45.4182 	 -76.803
| 15> H 	 -51.3334 	 -44.4662 	 -78.1676
| 16> C 	 -49.6313 	 -45.4097 	 -77.4019
| 17> H 	 -49.3248 	 -44.8094 	 -76.5168
| 18> H 	 -49.3831 	 -46.418 	 -77.0473
| 19> C 	 -48.6971 	 -45.1191 	 -78.5918
| 20> H 	 -48.7736 	 -45.7847 	 -79.3821
| 21> H 	 -48.6719 	 -44.0589 	 -78.825
| 22> H 	 -47.7135 	 -45.3036 	 -78.3523
| 23> S 	 -52.3871 	 -51.1809 	 -79.4644
| 24> C 	 -51.5622 	 -52.4768 	 -80.3668
| 25> C 	 -50.4609 	 -51.9178 	 -81.0404
| 26> C 	 -50.33 	 -50.528 	 -80.9417
| 27> C 	 -51.2588 	 -49.9948 	 -80.1141
| 28> H 	 -49.8272 	 -52.5631 	 -81.6709
| 29> C 	 -49.225 	 -49.7168 	 -81.6611
| 30> H 	 -48.3203 	 -50.2047 	 -81.4344
| 31> H 	 -49.0684 	 -48.8326 	 -81.0628
| 32> C 	 -49.3836 	 -49.3968 	 -83.192
| 33> H 	 -50.1148 	 -48.6017 	 -83.2364
| 34> H 	 -49.6557 	 -50.3381 	 -83.739
| 35> C 	 -47.9632 	 -49.043 	 -83.6145
| 36> H 	 -47.9999 	 -48.3773 	 -84.4516
| 37> H 	 -47.373 	 -49.894 	 -84.0304
| 38> H 	 -47.3601 	 -48.4462 	 -82.838
| 39> H 	 -53.5819 	 -45.596 	 -79.0865
| 40> H 	 -51.863 	 -53.4943 	 -80.4273
| 41> *
| 42>
| 43>                          ****END OF INPUT****

CARTESIAN COORDINATES (ANGSTROEM)
---------------------------------
  S    -53.202500  -47.942600  -80.134100
  C    -52.918000  -46.480100  -79.258800
  C    -51.681600  -46.549900  -78.608600
  C    -50.902700  -47.733800  -78.986500
  C    -51.620400  -48.653600  -79.713000
  H    -49.899200  -47.944900  -78.632400
  C    -51.133500  -45.445300  -77.710700
  H    -51.698900  -45.418200  -76.803000
  H    -51.333400  -44.466200  -78.167600
  C    -49.631300  -45.409700  -77.401900
  H    -49.324800  -44.809400  -76.516800
  H    -49.383100  -46.418000  -77.047300
  C    -48.697100  -45.119100  -78.591800
  H    -48.773600  -45.784700  -79.382100
  H    -48.671900  -44.058900  -78.825000
  H    -47.713500  -45.303600  -78.352300
  S    -52.387100  -51.180900  -79.464400
  C    -51.562200  -52.476800  -80.366800
  C    -50.460900  -51.917800  -81.040400
  C    -50.330000  -50.528000  -80.941700
  C    -51.258800  -49.994800  -80.114100
  H    -49.827200  -52.563100  -81.670900
  C    -49.225000  -49.716800  -81.661100
  H    -48.320300  -50.204700  -81.434400
  H    -49.068400  -48.832600  -81.062800
  C    -49.383600  -49.396800  -83.192000
  H    -50.114800  -48.601700  -83.236400
  H    -49.655700  -50.338100  -83.739000
  C    -47.963200  -49.043000  -83.614500
  H    -47.999900  -48.377300  -84.451600
  H    -47.373000  -49.894000  -84.030400
  H    -47.360100  -48.446200  -82.838000
  H    -53.581900  -45.596000  -79.086500
  H    -51.863000  -53.494300  -80.427300

 Total Charge           Charge          ....    0
 Multiplicity           Mult            ....    1
 Number of Electrons    NEL             ....  134
 Basis Dimension        Dim             ....  322

ORBITAL ENERGIES
----------------

  NO   OCC          E(Eh)            E(eV)
   0   2.0000     -88.965592     -2420.8768
   1   2.0000     -88.964071     -2420.8354
   2   2.0000     -10.330048      -281.0949
   3   2.0000     -10.322166      -280.8804
   4   2.0000     -10.319410      -280.8054
   5   2.0000     -10.316707      -280.7319
   6   2.0000     -10.305196      -280.4186
   7   2.0000     -10.298365      -280.2328
   8   2.0000     -10.297382      -280.2060
   9   2.0000     -10.295134      -280.1448
  10   2.0000     -10.294301      -280.1222
  11   2.0000     -10.290621      -280.0220
  12   2.0000     -10.290314      -280.0137
  13   2.0000     -10.287868      -279.9471
  14   2.0000     -10.283916      -279.8396
  15   2.0000     -10.265840      -279.3477
  16   2.0000      -8.079816      -219.8630
  17   2.0000      -8.078229      -219.8198
  18   2.0000      -6.038502      -164.3160
  19   2.0000      -6.036813      -164.2700
  20   2.0000      -6.034227      -164.1997
  21   2.0000      -6.032738      -164.1591
  22   2.0000      -6.030564      -164.1000
  23   2.0000      -6.029011      -164.0577
  24   2.0000      -1.005029       -27.3482
  25   2.0000      -0.979662       -26.6580
  26   2.0000      -0.908710       -24.7273
  27   2.0000      -0.905961       -24.6524
  28   2.0000      -0.870051       -23.6753
  29   2.0000      -0.851879       -23.1808
  30   2.0000      -0.841464       -22.8974
  31   2.0000      -0.816116       -22.2076
  32   2.0000      -0.783124       -21.3099
  33   2.0000      -0.772101       -21.0099
  34   2.0000      -0.710985       -19.3469
  35   2.0000      -0.701405       -19.0862
  36   2.0000      -0.691449       -18.8153
  37   2.0000      -0.664678       -18.0868
  38   2.0000      -0.637098       -17.3363
  39   2.0000      -0.621405       -16.9093
  40   2.0000      -0.595491       -16.2041
  41   2.0000      -0.565741       -15.3946
  42   2.0000      -0.561196       -15.2709
  43   2.0000      -0.554746       -15.0954
  44   2.0000      -0.541494       -14.7348
  45   2.0000      -0.524547       -14.2737
  46   2.0000      -0.515205       -14.0194
  47   2.0000      -0.510026       -13.8785
  48   2.0000      -0.503008       -13.6875
  49   2.0000      -0.500065       -13.6075
  50   2.0000      -0.489827       -13.3289
  51   2.0000      -0.479225       -13.0404
  52   2.0000      -0.465517       -12.6674
  53   2.0000      -0.462714       -12.5911
  54   2.0000      -0.459066       -12.4918
  55   2.0000      -0.448489       -12.2040
  56   2.0000      -0.444889       -12.1060
  57   2.0000      -0.439236       -11.9522
  58   2.0000      -0.434129       -11.8133
  59   2.0000      -0.427126       -11.6227
  60   2.0000      -0.418132       -11.3779
  61   2.0000      -0.411699       -11.2029
  62   2.0000      -0.407471       -11.0879
  63   2.0000      -0.342569        -9.3218
  64   2.0000      -0.334181        -9.0935
  65   2.0000      -0.322329        -8.7710
  66   2.0000      -0.296250        -8.0614
  67   0.0000       0.034466         0.9379
  68   0.0000       0.061521         1.6741
  69   0.0000       0.114226         3.1082
  70   0.0000       0.120568         3.2808
  71   0.0000       0.130864         3.5610

MULLIKEN ATOMIC CHARGES
-----------------------
   0 S :    0.122503
   1 C :   -0.127677
   2 C :   -0.117111
   3 C :    0.048671
   4 C :   -0.156489
   5 H :    0.015527
   6 C :    0.087019
   7 H :    0.034922
   8 H :    0.024079
   9 C :   -0.109693
  10 H :    0.033586
  11 H :    0.015434
  12 C :    0.011779
  13 H :    0.013419
  14 H :    0.032068
  15 H :   -0.002548
  16 S :    0.101718
  17 C :   -0.086961
  18 C :   -0.054915
  19 C :   -0.003432
  20 C :   -0.196311
  21 H :    0.021337
  22 C :    0.072294
  23 H :    0.009007
  24 H :    0.005004
  25 C :   -0.031533
  26 H :    0.047461
  27 H :    0.044993
  28 C :   -0.078837
  29 H :    0.018984
  30 H :    0.046832
  31 H :    0.043001
  32 H :    0.065866
  33 H :    0.050003
Sum of atomic charges:   -0.0000000

LOEWDIN ATOMIC CHARGES
----------------------
   0 S :    0.404382
   1 C :   -0.216454
   2 C :   -0.062142
   3 C :   -0.063547
   4 C :   -0.191700
   5 H :    0.029812
   6 C :   -0.037517
   7 H :    0.032242
   8 H :    0.031606
   9 C :   -0.045517
  10 H :    0.032321
  11 H :    0.019089
  12 C :   -0.060867
  13 H :    0.017690
  14 H :    0.028615
  15 H :    0.020114
  16 S :    0.395370
  17 C :   -0.173498
  18 C :   -0.070223
  19 C :   -0.062351
  20 C :   -0.193525
  21 H :    0.032425
  22 C :   -0.027842
  23 H :    0.023198
  24 H :    0.027418
  25 C :   -0.030637
  26 H :    0.029050
  27 H :    0.034691
  28 C :   -0.076250
  29 H :    0.019123
  30 H :    0.033415
  31 H :    0.032999
  32 H :    0.044263
  33 H :    0.024247

  Mayer bond orders larger than 0.100000
B(  0-S ,  1-C ) :   1.1362 B(  0-S ,  4-C ) :   1.1395 B(  1-C ,  2-C ) :   1.6213
B(  1-C , 32-H ) :   0.9632 B(  2-C ,  3-C ) :   1.2360 B(  2-C ,  6-C ) :   1.0042
B(  3-C ,  4-C ) :   1.5921 B(  3-C ,  5-H ) :   0.9831 B(  4-C , 20-C ) :   1.0216
B(  6-C ,  7-H ) :   0.9322 B(  6-C ,  8-H ) :   0.9450 B(  6-C ,  9-C ) :   1.0798
B(  9-C , 10-H ) :   0.9542 B(  9-C , 11-H ) :   0.9492 B(  9-C , 12-C ) :   1.0880
B( 12-C , 13-H ) :   0.9703 B( 12-C , 14-H ) :   0.9728 B( 12-C , 15-H ) :   0.9625
B( 16-S , 17-C ) :   1.1449 B( 16-S , 20-C ) :   1.1456 B( 17-C , 18-C ) :   1.5996
B( 17-C , 20-C ) :   0.1088 B( 17-C , 33-H ) :   0.9754 B( 18-C , 19-C ) :   1.2446
B( 18-C , 21-H ) :   0.9834 B( 19-C , 20-C ) :   1.6180 B( 19-C , 22-C ) :   1.0196
B( 22-C , 23-H ) :   0.9374 B( 22-C , 24-H ) :   0.9239 B( 22-C , 25-C ) :   1.0502
B( 25-C , 26-H ) :   0.9581 B( 25-C , 27-H ) :   0.9598 B( 25-C , 28-C ) :   1.0693
B( 28-C , 29-H ) :   0.9713 B( 28-C , 30-H ) :   0.9746 B( 28-C , 31-H ) :   0.9715

Dispersion correction           -0.014095561
FINAL SINGLE POINT ENERGY     -1339.861806644408

DIPOLE MOMENT
-------------
                                X             Y             Z
Electronic contribution:    -24.03335     -14.80376       4.80099
Nuclear contribution   :     24.66436      15.04054      -4.87130
                        -----------------------------------------
Total Dipole Moment    :      0.63102       0.23677      -0.07031
                        -----------------------------------------
Magnitude (a.u.)       :      0.67763
Magnitude (Debye)      :      1.72241

Rotational constants in cm-1:     0.016247     0.009458     0.007148
Rotational constants in MHz :   487.081561   283.553892   214.290798

                             ****ORCA TERMINATED NORMALLY****
TOTAL RUN TIME: 0 days 0 hours 0 minutes 20 seconds 467 msec
