                         Program Version 4.2.1 -  RELEASE  -
|  1> ! wB97X-D3 SP def2-SVP
|  2> %pal
|  3> nprocs 24
|  4> end
|  5>
|  6> * xyz 0 1
|  7> S 	 -127.156 	 1.26417 	 4.53148
|  8> C 	 -125.556 	 0.722782 	 4.06979
|  9> C 	 -124.566 	 0.991559 	 5.00653
| 10> C 	 -125.147 	 1.55751 	 6.1367
| 11> C 	 -126.526 	 1.83872 	 6.04114
| 12> H 	 -124.752 	 1.78633 	 7.08737
| 13> C 	 -123.102 	 0.692196 	 4.97038
| 14> H 	 -123.026 	 -0.37547 	 4.87787
| 15> H 	 -122.725 	 0.771911 	 5.91972
| 16> C 	 -122.113 	 1.27216 	 3.90123
| 17> H 	 -122.213 	 0.93615 	 2.89594
| 18> H 	 -122.397 	 2.28171 	 3.74784
| 19> C 	 -120.6 	 1.36071 	 4.2469
| 20> H 	 -120.114 	 1.78525 	 3.39906
| 21> H 	 -120.311 	 1.94094 	 5.07904
| 22> H 	 -120.126 	 0.427193 	 4.48941
| 23> S 	 -127.662 	 4.09219 	 7.08999
| 24> C 	 -128.771 	 3.80344 	 8.37995
| 25> C 	 -128.607 	 2.62501 	 8.98185
| 26> C 	 -127.692 	 1.82372 	 8.31619
| 27> C 	 -127.327 	 2.33704 	 7.08145
| 28> H 	 -129.111 	 2.36242 	 9.9116
| 29> C 	 -127.361 	 0.390161 	 8.73684
| 30> H 	 -127.686 	 0.319813 	 9.7606
| 31> H 	 -126.318 	 0.225576 	 8.80602
| 32> C 	 -127.951 	 -0.717118 	 7.85839
| 33> H 	 -127.342 	 -1.61523 	 7.92096
| 34> H 	 -128.021 	 -0.425372 	 6.78187
| 35> C 	 -129.332 	 -1.22086 	 8.28193
| 36> H 	 -129.573 	 -2.04524 	 7.60292
| 37> H 	 -130.147 	 -0.444721 	 8.23683
| 38> H 	 -129.278 	 -1.6143 	 9.42235
| 39> H 	 -125.368 	 0.284463 	 3.1422
| 40> H 	 -129.313 	 4.6041 	 8.85466
| 41> *
| 42>
| 43>                          ****END OF INPUT****

CARTESIAN COORDINATES (ANGSTROEM)
---------------------------------
  S    -127.156000    1.264170    4.531480
  C    -125.556000    0.722782    4.069790
  C    -124.566000    0.991559    5.006530
  C    -125.147000    1.557510    6.136700
  C    -126.526000    1.838720    6.041140
  H    -124.752000    1.786330    7.087370
  C    -123.102000    0.692196    4.970380
  H    -123.026000   -0.375470    4.877870
  H    -122.725000    0.771911    5.919720
  C    -122.113000    1.272160    3.901230
  H    -122.213000    0.936150    2.895940
  H    -122.397000    2.281710    3.747840
  C    -120.600000    1.360710    4.246900
  H    -120.114000    1.785250    3.399060
  H    -120.311000    1.940940    5.079040
  H    -120.126000    0.427193    4.489410
  S    -127.662000    4.092190    7.089990
  C    -128.771000    3.803440    8.379950
  C    -128.607000    2.625010    8.981850
  C    -127.692000    1.823720    8.316190
  C    -127.327000    2.337040    7.081450
  H    -129.111000    2.362420    9.911600
  C    -127.361000    0.390161    8.736840
  H    -127.686000    0.319813    9.760600
  H    -126.318000    0.225576    8.806020
  C    -127.951000   -0.717118    7.858390
  H    -127.342000   -1.615230    7.920960
  H    -128.021000   -0.425372    6.781870
  C    -129.332000   -1.220860    8.281930
  H    -129.573000   -2.045240    7.602920
  H    -130.147000   -0.444721    8.236830
  H    -129.278000   -1.614300    9.422350
  H    -125.368000    0.284463    3.142200
  H    -129.313000    4.604100    8.854660

 Total Charge           Charge          ....    0
 Multiplicity           Mult            ....    1
 Number of Electrons    NEL             ....  134
 Basis Dimension        Dim             ....  322

ORBITAL ENERGIES
----------------

  NO   OCC          E(Eh)            E(eV)
   0   2.0000     -88.970739     -2421.0169
   1   2.0000     -88.959108     -2420.7004
   2   2.0000     -10.319601      -280.8106
   3   2.0000     -10.316742      -280.7328
   4   2.0000     -10.311421      -280.5880
   5   2.0000     -10.306536      -280.4551
   6   2.0000     -10.301190      -280.3096
   7   2.0000     -10.297834      -280.2183
   8   2.0000     -10.288173      -279.9554
   9   2.0000     -10.286944      -279.9220
  10   2.0000     -10.286923      -279.9214
  11   2.0000     -10.286706      -279.9155
  12   2.0000     -10.283872      -279.8384
  13   2.0000     -10.283725      -279.8344
  14   2.0000     -10.282325      -279.7963
  15   2.0000     -10.274062      -279.5714
  16   2.0000      -8.085042      -220.0052
  17   2.0000      -8.074406      -219.7158
  18   2.0000      -6.043275      -164.4459
  19   2.0000      -6.039519      -164.3437
  20   2.0000      -6.036207      -164.2535
  21   2.0000      -6.032651      -164.1568
  22   2.0000      -6.029235      -164.0638
  23   2.0000      -6.025001      -163.9486
  24   2.0000      -1.011831       -27.5333
  25   2.0000      -0.989696       -26.9310
  26   2.0000      -0.911743       -24.8098
  27   2.0000      -0.904760       -24.6198
  28   2.0000      -0.874326       -23.7916
  29   2.0000      -0.857255       -23.3271
  30   2.0000      -0.846914       -23.0457
  31   2.0000      -0.811916       -22.0934
  32   2.0000      -0.791136       -21.5279
  33   2.0000      -0.772032       -21.0080
  34   2.0000      -0.720262       -19.5993
  35   2.0000      -0.708293       -19.2736
  36   2.0000      -0.683449       -18.5976
  37   2.0000      -0.658705       -17.9243
  38   2.0000      -0.652522       -17.7560
  39   2.0000      -0.614951       -16.7337
  40   2.0000      -0.599037       -16.3006
  41   2.0000      -0.571619       -15.5546
  42   2.0000      -0.555795       -15.1240
  43   2.0000      -0.548959       -14.9379
  44   2.0000      -0.538219       -14.6457
  45   2.0000      -0.530516       -14.4361
  46   2.0000      -0.522225       -14.2105
  47   2.0000      -0.511642       -13.9225
  48   2.0000      -0.503088       -13.6897
  49   2.0000      -0.489604       -13.3228
  50   2.0000      -0.484838       -13.1931
  51   2.0000      -0.481039       -13.0897
  52   2.0000      -0.476322       -12.9614
  53   2.0000      -0.470259       -12.7964
  54   2.0000      -0.455924       -12.4063
  55   2.0000      -0.453755       -12.3473
  56   2.0000      -0.446338       -12.1455
  57   2.0000      -0.435413       -11.8482
  58   2.0000      -0.434647       -11.8274
  59   2.0000      -0.433237       -11.7890
  60   2.0000      -0.420249       -11.4355
  61   2.0000      -0.413591       -11.2544
  62   2.0000      -0.407703       -11.0942
  63   2.0000      -0.337480        -9.1833
  64   2.0000      -0.330607        -8.9963
  65   2.0000      -0.317725        -8.6457
  66   2.0000      -0.301496        -8.2041
  67   0.0000       0.033517         0.9120
  68   0.0000       0.051820         1.4101
  69   0.0000       0.108099         2.9415
  70   0.0000       0.118271         3.2183
  71   0.0000       0.131475         3.5776

MULLIKEN ATOMIC CHARGES
-----------------------
   0 S :    0.133739
   1 C :   -0.110096
   2 C :   -0.051335
   3 C :    0.046670
   4 C :   -0.205005
   5 H :   -0.008657
   6 C :    0.146082
   7 H :    0.021900
   8 H :   -0.018964
   9 C :   -0.043154
  10 H :    0.017581
  11 H :    0.015014
  12 C :   -0.037536
  13 H :    0.028669
  14 H :    0.020165
  15 H :    0.020318
  16 S :    0.100354
  17 C :   -0.058259
  18 C :   -0.043302
  19 C :   -0.013368
  20 C :   -0.202406
  21 H :    0.018090
  22 C :    0.134495
  23 H :   -0.002391
  24 H :    0.011669
  25 C :   -0.072702
  26 H :    0.024844
  27 H :    0.043777
  28 C :   -0.105955
  29 H :    0.041942
  30 H :    0.044134
  31 H :    0.037685
  32 H :    0.020075
  33 H :    0.045923
Sum of atomic charges:    0.0000000

LOEWDIN ATOMIC CHARGES
----------------------
   0 S :    0.432413
   1 C :   -0.182757
   2 C :   -0.060304
   3 C :   -0.046619
   4 C :   -0.216848
   5 H :    0.023897
   6 C :   -0.029053
   7 H :    0.037267
   8 H :    0.021223
   9 C :   -0.034156
  10 H :    0.021703
  11 H :    0.022210
  12 C :   -0.058516
  13 H :    0.028145
  14 H :    0.019744
  15 H :    0.020290
  16 S :    0.395561
  17 C :   -0.180144
  18 C :   -0.079913
  19 C :   -0.045921
  20 C :   -0.195790
  21 H :    0.036015
  22 C :   -0.027253
  23 H :    0.025050
  24 H :    0.026018
  25 C :   -0.045165
  26 H :    0.024767
  27 H :    0.025465
  28 C :   -0.076000
  29 H :    0.025671
  30 H :    0.024497
  31 H :    0.031432
  32 H :    0.012153
  33 H :    0.024916

  Mayer bond orders larger than 0.100000
B(  0-S ,  1-C ) :   1.1651 B(  0-S ,  4-C ) :   1.1582 B(  1-C ,  2-C ) :   1.5640
B(  1-C ,  4-C ) :   0.1118 B(  1-C , 32-H ) :   0.9788 B(  2-C ,  3-C ) :   1.2542
B(  2-C ,  6-C ) :   1.0286 B(  3-C ,  4-C ) :   1.5543 B(  3-C ,  5-H ) :   1.0028
B(  4-C , 20-C ) :   1.0650 B(  6-C ,  7-H ) :   0.9187 B(  6-C ,  8-H ) :   0.9314
B(  6-C ,  9-C ) :   1.0400 B(  9-C , 10-H ) :   0.9565 B(  9-C , 11-H ) :   0.9575
B(  9-C , 12-C ) :   1.0859 B( 12-C , 13-H ) :   0.9732 B( 12-C , 14-H ) :   0.9756
B( 12-C , 15-H ) :   0.9775 B( 16-S , 17-C ) :   1.1580 B( 16-S , 20-C ) :   1.1368
B( 17-C , 18-C ) :   1.6131 B( 17-C , 20-C ) :   0.1079 B( 17-C , 33-H ) :   0.9623
B( 18-C , 19-C ) :   1.2531 B( 18-C , 21-H ) :   0.9910 B( 19-C , 20-C ) :   1.5748
B( 19-C , 22-C ) :   1.0503 B( 22-C , 23-H ) :   0.9304 B( 22-C , 24-H ) :   0.9254
B( 22-C , 25-C ) :   1.0588 B( 25-C , 26-H ) :   0.9536 B( 25-C , 27-H ) :   0.9532
B( 25-C , 28-C ) :   1.0816 B( 28-C , 29-H ) :   0.9741 B( 28-C , 30-H ) :   0.9763
B( 28-C , 31-H ) :   0.9720

Dispersion correction           -0.014640604
FINAL SINGLE POINT ENERGY     -1339.846167085421

DIPOLE MOMENT
-------------
                                X             Y             Z
Electronic contribution:    -15.02975      15.70602      -2.76421
Nuclear contribution   :     15.53883     -16.04951       3.01034
                        -----------------------------------------
Total Dipole Moment    :      0.50908      -0.34349       0.24613
                        -----------------------------------------
Magnitude (a.u.)       :      0.66161
Magnitude (Debye)      :      1.68168

Rotational constants in cm-1:     0.021071     0.007579     0.006765
Rotational constants in MHz :   631.690664   227.211847   202.804559

                             ****ORCA TERMINATED NORMALLY****
TOTAL RUN TIME: 0 days 0 hours 0 minutes 21 seconds 679 msec
