                         Program Version 4.2.1 -  RELEASE  -
|  1> ! wB97X-D3 SP def2-SVP
|  2> %pal
|  3> nprocs 24
|  4> end
|  5>
|  6> * xyz 0 1
|  7> S 	 -84.34 	 -6.04517 	 -62.9989
|  8> C 	 -85.7281 	 -6.21115 	 -64.0641
|  9> C 	 -86.9101 	 -6.1871 	 -63.352
| 10> C 	 -86.6777 	 -5.9098 	 -61.9851
| 11> C 	 -85.3086 	 -5.82071 	 -61.6389
| 12> H 	 -87.4334 	 -5.85604 	 -61.192
| 13> C 	 -88.2782 	 -6.50105 	 -63.8879
| 14> H 	 -88.4636 	 -7.54386 	 -63.8855
| 15> H 	 -88.2168 	 -6.22691 	 -64.9014
| 16> C 	 -89.4495 	 -5.76548 	 -63.0532
| 17> H 	 -89.5677 	 -6.20406 	 -62.0211
| 18> H 	 -89.1226 	 -4.74907 	 -62.8334
| 19> C 	 -90.8448 	 -5.8425 	 -63.7002
| 20> H 	 -91.6333 	 -5.5159 	 -63.005
| 21> H 	 -90.7962 	 -5.33274 	 -64.682
| 22> H 	 -91.105 	 -6.86762 	 -63.9688
| 23> S 	 -84.1137 	 -7.0766 	 -59.4182
| 24> C 	 -84.213 	 -6.17012 	 -57.9389
| 25> C 	 -84.4627 	 -4.83298 	 -58.1982
| 26> C 	 -84.6522 	 -4.53658 	 -59.5452
| 27> C 	 -84.7426 	 -5.67404 	 -60.3058
| 28> H 	 -84.5303 	 -4.16445 	 -57.4145
| 29> C 	 -84.9337 	 -3.062 	 -59.9441
| 30> H 	 -85.345 	 -2.39431 	 -59.1712
| 31> H 	 -85.8818 	 -3.01355 	 -60.6117
| 32> C 	 -83.7766 	 -2.40819 	 -60.6947
| 33> H 	 -82.9278 	 -3.06524 	 -60.9528
| 34> H 	 -83.295 	 -1.67221 	 -60.0756
| 35> C 	 -84.2895 	 -1.66638 	 -61.8898
| 36> H 	 -83.4864 	 -1.16502 	 -62.4125
| 37> H 	 -85.0029 	 -0.936082 	 -61.556
| 38> H 	 -84.8292 	 -2.32865 	 -62.5825
| 39> H 	 -85.6845 	 -6.37582 	 -65.2205
| 40> H 	 -84.0934 	 -6.66163 	 -56.9709
| 41> *
| 42>
| 43>                          ****END OF INPUT****

CARTESIAN COORDINATES (ANGSTROEM)
---------------------------------
  S    -84.340000   -6.045170  -62.998900
  C    -85.728100   -6.211150  -64.064100
  C    -86.910100   -6.187100  -63.352000
  C    -86.677700   -5.909800  -61.985100
  C    -85.308600   -5.820710  -61.638900
  H    -87.433400   -5.856040  -61.192000
  C    -88.278200   -6.501050  -63.887900
  H    -88.463600   -7.543860  -63.885500
  H    -88.216800   -6.226910  -64.901400
  C    -89.449500   -5.765480  -63.053200
  H    -89.567700   -6.204060  -62.021100
  H    -89.122600   -4.749070  -62.833400
  C    -90.844800   -5.842500  -63.700200
  H    -91.633300   -5.515900  -63.005000
  H    -90.796200   -5.332740  -64.682000
  H    -91.105000   -6.867620  -63.968800
  S    -84.113700   -7.076600  -59.418200
  C    -84.213000   -6.170120  -57.938900
  C    -84.462700   -4.832980  -58.198200
  C    -84.652200   -4.536580  -59.545200
  C    -84.742600   -5.674040  -60.305800
  H    -84.530300   -4.164450  -57.414500
  C    -84.933700   -3.062000  -59.944100
  H    -85.345000   -2.394310  -59.171200
  H    -85.881800   -3.013550  -60.611700
  C    -83.776600   -2.408190  -60.694700
  H    -82.927800   -3.065240  -60.952800
  H    -83.295000   -1.672210  -60.075600
  C    -84.289500   -1.666380  -61.889800
  H    -83.486400   -1.165020  -62.412500
  H    -85.002900   -0.936082  -61.556000
  H    -84.829200   -2.328650  -62.582500
  H    -85.684500   -6.375820  -65.220500
  H    -84.093400   -6.661630  -56.970900

 Total Charge           Charge          ....    0
 Multiplicity           Mult            ....    1
 Number of Electrons    NEL             ....  134
 Basis Dimension        Dim             ....  322

ORBITAL ENERGIES
----------------

  NO   OCC          E(Eh)            E(eV)
   0   2.0000     -88.966782     -2420.9092
   1   2.0000     -88.963594     -2420.8225
   2   2.0000     -10.323265      -280.9103
   3   2.0000     -10.323065      -280.9049
   4   2.0000     -10.318260      -280.7741
   5   2.0000     -10.316301      -280.7208
   6   2.0000     -10.301039      -280.3055
   7   2.0000     -10.298132      -280.2264
   8   2.0000     -10.297745      -280.2159
   9   2.0000     -10.296559      -280.1836
  10   2.0000     -10.291925      -280.0575
  11   2.0000     -10.290886      -280.0292
  12   2.0000     -10.283580      -279.8304
  13   2.0000     -10.283513      -279.8286
  14   2.0000     -10.276787      -279.6456
  15   2.0000     -10.267168      -279.3838
  16   2.0000      -8.082175      -219.9272
  17   2.0000      -8.078519      -219.8277
  18   2.0000      -6.040534      -164.3713
  19   2.0000      -6.036950      -164.2738
  20   2.0000      -6.036389      -164.2585
  21   2.0000      -6.033258      -164.1733
  22   2.0000      -6.033121      -164.1696
  23   2.0000      -6.029233      -164.0638
  24   2.0000      -1.009120       -27.4596
  25   2.0000      -0.987644       -26.8752
  26   2.0000      -0.908075       -24.7100
  27   2.0000      -0.907683       -24.6993
  28   2.0000      -0.865505       -23.5516
  29   2.0000      -0.853314       -23.2199
  30   2.0000      -0.844683       -22.9850
  31   2.0000      -0.808032       -21.9877
  32   2.0000      -0.782092       -21.2818
  33   2.0000      -0.769500       -20.9392
  34   2.0000      -0.711298       -19.3554
  35   2.0000      -0.694905       -18.9093
  36   2.0000      -0.685683       -18.6584
  37   2.0000      -0.661767       -18.0076
  38   2.0000      -0.635857       -17.3026
  39   2.0000      -0.616324       -16.7710
  40   2.0000      -0.602485       -16.3944
  41   2.0000      -0.568953       -15.4820
  42   2.0000      -0.559933       -15.2365
  43   2.0000      -0.554744       -15.0953
  44   2.0000      -0.527766       -14.3612
  45   2.0000      -0.524306       -14.2671
  46   2.0000      -0.513926       -13.9846
  47   2.0000      -0.507525       -13.8105
  48   2.0000      -0.499623       -13.5954
  49   2.0000      -0.495692       -13.4885
  50   2.0000      -0.494453       -13.4548
  51   2.0000      -0.479265       -13.0415
  52   2.0000      -0.472723       -12.8634
  53   2.0000      -0.466518       -12.6946
  54   2.0000      -0.459456       -12.5024
  55   2.0000      -0.450070       -12.2470
  56   2.0000      -0.443545       -12.0695
  57   2.0000      -0.435068       -11.8388
  58   2.0000      -0.432946       -11.7811
  59   2.0000      -0.426195       -11.5974
  60   2.0000      -0.415335       -11.3018
  61   2.0000      -0.413506       -11.2521
  62   2.0000      -0.403727       -10.9860
  63   2.0000      -0.335162        -9.1202
  64   2.0000      -0.330059        -8.9814
  65   2.0000      -0.322814        -8.7842
  66   2.0000      -0.300167        -8.1680
  67   0.0000       0.042873         1.1666
  68   0.0000       0.050973         1.3870
  69   0.0000       0.119936         3.2636
  70   0.0000       0.124583         3.3901
  71   0.0000       0.133786         3.6405

MULLIKEN ATOMIC CHARGES
-----------------------
   0 S :    0.129491
   1 C :   -0.173872
   2 C :   -0.102607
   3 C :    0.034240
   4 C :   -0.181995
   5 H :    0.013518
   6 C :    0.129134
   7 H :    0.038777
   8 H :    0.005677
   9 C :   -0.143923
  10 H :    0.040522
  11 H :    0.036895
  12 C :   -0.027999
  13 H :    0.045452
  14 H :    0.036570
  15 H :    0.022179
  16 S :    0.114398
  17 C :   -0.104222
  18 C :   -0.008388
  19 C :    0.039287
  20 C :   -0.196275
  21 H :   -0.012993
  22 C :    0.012677
  23 H :    0.027584
  24 H :    0.037318
  25 C :   -0.040380
  26 H :    0.039189
  27 H :    0.017659
  28 C :   -0.057841
  29 H :    0.028035
  30 H :    0.020896
  31 H :    0.039423
  32 H :    0.077112
  33 H :    0.064458
Sum of atomic charges:   -0.0000000

LOEWDIN ATOMIC CHARGES
----------------------
   0 S :    0.442107
   1 C :   -0.223316
   2 C :   -0.069058
   3 C :   -0.064286
   4 C :   -0.221413
   5 H :    0.032384
   6 C :   -0.019673
   7 H :    0.031438
   8 H :    0.023918
   9 C :   -0.043829
  10 H :    0.027895
  11 H :    0.022103
  12 C :   -0.069992
  13 H :    0.031454
  14 H :    0.028678
  15 H :    0.023651
  16 S :    0.398478
  17 C :   -0.183243
  18 C :   -0.065114
  19 C :   -0.046946
  20 C :   -0.200264
  21 H :    0.018515
  22 C :   -0.035783
  23 H :    0.032218
  24 H :    0.039697
  25 C :   -0.046275
  26 H :    0.027980
  27 H :    0.021923
  28 C :   -0.060609
  29 H :    0.022664
  30 H :    0.019549
  31 H :    0.025963
  32 H :    0.048353
  33 H :    0.030832

  Mayer bond orders larger than 0.100000
B(  0-S ,  1-C ) :   1.1482 B(  0-S ,  4-C ) :   1.1955 B(  1-C ,  2-C ) :   1.5915
B(  1-C ,  4-C ) :   0.1051 B(  1-C , 32-H ) :   0.9546 B(  2-C ,  3-C ) :   1.2766
B(  2-C ,  6-C ) :   1.0146 B(  3-C ,  4-C ) :   1.5377 B(  3-C ,  5-H ) :   0.9928
B(  4-C , 20-C ) :   1.0148 B(  6-C ,  7-H ) :   0.9312 B(  6-C ,  8-H ) :   0.9358
B(  6-C ,  9-C ) :   1.0578 B(  9-C , 10-H ) :   0.9478 B(  9-C , 11-H ) :   0.9648
B(  9-C , 12-C ) :   1.0816 B( 12-C , 13-H ) :   0.9734 B( 12-C , 14-H ) :   0.9747
B( 12-C , 15-H ) :   0.9720 B( 16-S , 17-C ) :   1.1614 B( 16-S , 20-C ) :   1.1402
B( 17-C , 18-C ) :   1.5842 B( 17-C , 20-C ) :   0.1067 B( 17-C , 33-H ) :   0.9696
B( 18-C , 19-C ) :   1.2473 B( 18-C , 21-H ) :   1.0094 B( 19-C , 20-C ) :   1.5910
B( 19-C , 22-C ) :   1.0311 B( 22-C , 23-H ) :   0.9408 B( 22-C , 24-H ) :   0.9490
B( 22-C , 25-C ) :   1.0241 B( 25-C , 26-H ) :   0.9653 B( 25-C , 27-H ) :   0.9506
B( 25-C , 28-C ) :   1.0910 B( 28-C , 29-H ) :   0.9708 B( 28-C , 30-H ) :   0.9744
B( 28-C , 31-H ) :   0.9754

Dispersion correction           -0.014437733
FINAL SINGLE POINT ENERGY     -1339.865899857569

DIPOLE MOMENT
-------------
                                X             Y             Z
Electronic contribution:     18.68776     -15.67751       7.62488
Nuclear contribution   :    -19.20449      15.93184      -7.54081
                        -----------------------------------------
Total Dipole Moment    :     -0.51672       0.25433       0.08407
                        -----------------------------------------
Magnitude (a.u.)       :      0.58203
Magnitude (Debye)      :      1.47940

Rotational constants in cm-1:     0.017530     0.008288     0.007571
Rotational constants in MHz :   525.537494   248.454951   226.963920

                             ****ORCA TERMINATED NORMALLY****
TOTAL RUN TIME: 0 days 0 hours 0 minutes 21 seconds 753 msec
