                         Program Version 4.2.1 -  RELEASE  -
|  1> ! wB97X-D3 SP def2-SVP
|  2> %pal
|  3> nprocs 24
|  4> end
|  5>
|  6> * xyz 0 1
|  7> S 	 -47.1175 	 27.8025 	 24.7033
|  8> C 	 -47.6898 	 28.375 	 26.2519
|  9> C 	 -47.4015 	 27.4572 	 27.261
| 10> C 	 -46.7482 	 26.2992 	 26.6814
| 11> C 	 -46.395 	 26.4003 	 25.3451
| 12> H 	 -46.477 	 25.3587 	 27.1539
| 13> C 	 -47.7864 	 27.5479 	 28.7243
| 14> H 	 -48.8231 	 27.1058 	 28.9647
| 15> H 	 -47.8572 	 28.6176 	 28.9449
| 16> C 	 -46.6811 	 26.8613 	 29.5838
| 17> H 	 -46.2956 	 25.9434 	 29.173
| 18> H 	 -45.748 	 27.5213 	 29.5585
| 19> C 	 -47.0508 	 26.4012 	 31.0602
| 20> H 	 -48.0427 	 26.0071 	 31.0352
| 21> H 	 -46.3732 	 25.6083 	 31.2693
| 22> H 	 -46.9243 	 27.1682 	 31.7948
| 23> S 	 -44.0746 	 26.2872 	 23.7404
| 24> C 	 -43.3936 	 24.6979 	 23.4529
| 25> C 	 -44.2353 	 23.6817 	 23.8833
| 26> C 	 -45.3693 	 24.193 	 24.5804
| 27> C 	 -45.4848 	 25.6001 	 24.556
| 28> H 	 -43.9698 	 22.6917 	 23.7739
| 29> C 	 -46.4147 	 23.2882 	 25.2363
| 30> H 	 -47.1422 	 23.8608 	 25.8297
| 31> H 	 -45.8541 	 22.657 	 25.9816
| 32> C 	 -47.1514 	 22.3995 	 24.2339
| 33> H 	 -46.5047 	 21.5506 	 24.0108
| 34> H 	 -47.289 	 22.9832 	 23.3459
| 35> C 	 -48.542 	 21.865 	 24.557
| 36> H 	 -48.7519 	 21.0185 	 23.8799
| 37> H 	 -49.4334 	 22.5757 	 24.5501
| 38> H 	 -48.5693 	 21.4582 	 25.5292
| 39> H 	 -48.4962 	 29.179 	 26.3324
| 40> H 	 -42.5294 	 24.4819 	 22.8327
| 41> *
| 42>
| 43>                          ****END OF INPUT****

CARTESIAN COORDINATES (ANGSTROEM)
---------------------------------
  S    -47.117500   27.802500   24.703300
  C    -47.689800   28.375000   26.251900
  C    -47.401500   27.457200   27.261000
  C    -46.748200   26.299200   26.681400
  C    -46.395000   26.400300   25.345100
  H    -46.477000   25.358700   27.153900
  C    -47.786400   27.547900   28.724300
  H    -48.823100   27.105800   28.964700
  H    -47.857200   28.617600   28.944900
  C    -46.681100   26.861300   29.583800
  H    -46.295600   25.943400   29.173000
  H    -45.748000   27.521300   29.558500
  C    -47.050800   26.401200   31.060200
  H    -48.042700   26.007100   31.035200
  H    -46.373200   25.608300   31.269300
  H    -46.924300   27.168200   31.794800
  S    -44.074600   26.287200   23.740400
  C    -43.393600   24.697900   23.452900
  C    -44.235300   23.681700   23.883300
  C    -45.369300   24.193000   24.580400
  C    -45.484800   25.600100   24.556000
  H    -43.969800   22.691700   23.773900
  C    -46.414700   23.288200   25.236300
  H    -47.142200   23.860800   25.829700
  H    -45.854100   22.657000   25.981600
  C    -47.151400   22.399500   24.233900
  H    -46.504700   21.550600   24.010800
  H    -47.289000   22.983200   23.345900
  C    -48.542000   21.865000   24.557000
  H    -48.751900   21.018500   23.879900
  H    -49.433400   22.575700   24.550100
  H    -48.569300   21.458200   25.529200
  H    -48.496200   29.179000   26.332400
  H    -42.529400   24.481900   22.832700

 Total Charge           Charge          ....    0
 Multiplicity           Mult            ....    1
 Number of Electrons    NEL             ....  134
 Basis Dimension        Dim             ....  322

ORBITAL ENERGIES
----------------

  NO   OCC          E(Eh)            E(eV)
   0   2.0000     -88.969543     -2420.9844
   1   2.0000     -88.962503     -2420.7928
   2   2.0000     -10.329297      -281.0745
   3   2.0000     -10.325863      -280.9810
   4   2.0000     -10.320656      -280.8393
   5   2.0000     -10.319973      -280.8207
   6   2.0000     -10.307902      -280.4923
   7   2.0000     -10.305982      -280.4400
   8   2.0000     -10.304210      -280.3918
   9   2.0000     -10.294782      -280.1353
  10   2.0000     -10.294325      -280.1228
  11   2.0000     -10.292408      -280.0706
  12   2.0000     -10.291971      -280.0588
  13   2.0000     -10.282288      -279.7953
  14   2.0000     -10.278943      -279.7043
  15   2.0000     -10.274853      -279.5930
  16   2.0000      -8.083634      -219.9669
  17   2.0000      -8.078318      -219.8222
  18   2.0000      -6.042222      -164.4172
  19   2.0000      -6.038155      -164.3066
  20   2.0000      -6.036696      -164.2668
  21   2.0000      -6.034403      -164.2045
  22   2.0000      -6.032541      -164.1538
  23   2.0000      -6.029282      -164.0651
  24   2.0000      -1.008337       -27.4383
  25   2.0000      -0.983627       -26.7659
  26   2.0000      -0.907748       -24.7011
  27   2.0000      -0.906504       -24.6672
  28   2.0000      -0.869637       -23.6640
  29   2.0000      -0.851018       -23.1574
  30   2.0000      -0.841911       -22.9096
  31   2.0000      -0.814272       -22.1575
  32   2.0000      -0.785455       -21.3733
  33   2.0000      -0.771702       -20.9991
  34   2.0000      -0.709744       -19.3131
  35   2.0000      -0.696852       -18.9623
  36   2.0000      -0.687848       -18.7173
  37   2.0000      -0.659437       -17.9442
  38   2.0000      -0.641053       -17.4439
  39   2.0000      -0.618672       -16.8349
  40   2.0000      -0.594608       -16.1801
  41   2.0000      -0.570099       -15.5132
  42   2.0000      -0.564594       -15.3634
  43   2.0000      -0.556907       -15.1542
  44   2.0000      -0.530671       -14.4403
  45   2.0000      -0.523101       -14.2343
  46   2.0000      -0.518394       -14.1062
  47   2.0000      -0.510207       -13.8834
  48   2.0000      -0.503025       -13.6880
  49   2.0000      -0.500535       -13.6202
  50   2.0000      -0.494727       -13.4622
  51   2.0000      -0.477528       -12.9942
  52   2.0000      -0.473160       -12.8753
  53   2.0000      -0.465840       -12.6761
  54   2.0000      -0.456337       -12.4176
  55   2.0000      -0.447808       -12.1855
  56   2.0000      -0.445724       -12.1288
  57   2.0000      -0.437059       -11.8930
  58   2.0000      -0.430645       -11.7185
  59   2.0000      -0.423670       -11.5286
  60   2.0000      -0.421608       -11.4725
  61   2.0000      -0.412898       -11.2355
  62   2.0000      -0.407917       -11.1000
  63   2.0000      -0.350786        -9.5454
  64   2.0000      -0.332441        -9.0462
  65   2.0000      -0.326787        -8.8923
  66   2.0000      -0.289063        -7.8658
  67   0.0000       0.027352         0.7443
  68   0.0000       0.068502         1.8640
  69   0.0000       0.109652         2.9838
  70   0.0000       0.121429         3.3043
  71   0.0000       0.128447         3.4952

MULLIKEN ATOMIC CHARGES
-----------------------
   0 S :    0.103179
   1 C :   -0.140102
   2 C :   -0.102632
   3 C :    0.019746
   4 C :   -0.187266
   5 H :    0.017459
   6 C :    0.088077
   7 H :    0.052722
   8 H :    0.032503
   9 C :   -0.158427
  10 H :    0.029239
  11 H :    0.042238
  12 C :   -0.004843
  13 H :    0.023653
  14 H :    0.023133
  15 H :    0.035676
  16 S :    0.118470
  17 C :   -0.096633
  18 C :    0.005205
  19 C :   -0.073913
  20 C :   -0.110223
  21 H :   -0.008860
  22 C :    0.052776
  23 H :    0.024708
  24 H :    0.034544
  25 C :   -0.063931
  26 H :    0.027985
  27 H :    0.034891
  28 C :   -0.053714
  29 H :    0.036012
  30 H :    0.045743
  31 H :    0.010983
  32 H :    0.079177
  33 H :    0.062425
Sum of atomic charges:   -0.0000000

LOEWDIN ATOMIC CHARGES
----------------------
   0 S :    0.425330
   1 C :   -0.214348
   2 C :   -0.064565
   3 C :   -0.067345
   4 C :   -0.209781
   5 H :    0.026474
   6 C :   -0.036455
   7 H :    0.040017
   8 H :    0.033534
   9 C :   -0.047339
  10 H :    0.019117
  11 H :    0.034278
  12 C :   -0.055530
  13 H :    0.021393
  14 H :    0.024091
  15 H :    0.021065
  16 S :    0.406898
  17 C :   -0.180583
  18 C :   -0.060866
  19 C :   -0.048212
  20 C :   -0.205956
  21 H :    0.019755
  22 C :   -0.037734
  23 H :    0.028216
  24 H :    0.033986
  25 C :   -0.043312
  26 H :    0.024818
  27 H :    0.026285
  28 C :   -0.070072
  29 H :    0.032222
  30 H :    0.033505
  31 H :    0.014222
  32 H :    0.044659
  33 H :    0.032234

  Mayer bond orders larger than 0.100000
B(  0-S ,  1-C ) :   1.1501 B(  0-S ,  4-C ) :   1.1660 B(  1-C ,  2-C ) :   1.5937
B(  1-C , 32-H ) :   0.9583 B(  2-C ,  3-C ) :   1.2565 B(  2-C ,  6-C ) :   1.0189
B(  3-C ,  4-C ) :   1.5633 B(  3-C ,  5-H ) :   0.9778 B(  4-C , 20-C ) :   1.0395
B(  6-C ,  7-H ) :   0.9368 B(  6-C ,  8-H ) :   0.9439 B(  6-C ,  9-C ) :   1.0480
B(  9-C , 10-H ) :   0.9677 B(  9-C , 11-H ) :   0.9554 B(  9-C , 12-C ) :   1.0689
B( 12-C , 13-H ) :   0.9754 B( 12-C , 14-H ) :   0.9801 B( 12-C , 15-H ) :   0.9787
B( 16-S , 17-C ) :   1.1652 B( 16-S , 20-C ) :   1.1311 B( 17-C , 18-C ) :   1.5919
B( 17-C , 20-C ) :   0.1003 B( 17-C , 33-H ) :   0.9633 B( 18-C , 19-C ) :   1.2537
B( 18-C , 21-H ) :   1.0044 B( 19-C , 20-C ) :   1.5708 B( 19-C , 22-C ) :   1.0494
B( 22-C , 23-H ) :   0.9360 B( 22-C , 24-H ) :   0.9307 B( 22-C , 25-C ) :   1.0548
B( 25-C , 26-H ) :   0.9507 B( 25-C , 27-H ) :   0.9590 B( 25-C , 28-C ) :   1.0965
B( 28-C , 29-H ) :   0.9732 B( 28-C , 30-H ) :   0.9735 B( 28-C , 31-H ) :   0.9719

Dispersion correction           -0.013636998
FINAL SINGLE POINT ENERGY     -1339.869719251981

DIPOLE MOMENT
-------------
                                X             Y             Z
Electronic contribution:     11.34842      16.11129     -20.09251
Nuclear contribution   :    -11.51128     -16.68760      20.52173
                        -----------------------------------------
Total Dipole Moment    :     -0.16286      -0.57632       0.42923
                        -----------------------------------------
Magnitude (a.u.)       :      0.73682
Magnitude (Debye)      :      1.87284

Rotational constants in cm-1:     0.015841     0.008606     0.007195
Rotational constants in MHz :   474.905981   257.999714   215.712631

                             ****ORCA TERMINATED NORMALLY****
TOTAL RUN TIME: 0 days 0 hours 0 minutes 21 seconds 207 msec
