                         Program Version 4.2.1 -  RELEASE  -
|  1> ! wB97X-D3 SP def2-SVP
|  2> %pal
|  3> nprocs 24
|  4> end
|  5>
|  6> * xyz 0 1
|  7> S 	 -90.8404 	 -27.7345 	 -60.8456
|  8> C 	 -89.6465 	 -26.526 	 -60.4056
|  9> C 	 -88.62 	 -27.012 	 -59.5945
| 10> C 	 -88.779 	 -28.3905 	 -59.2751
| 11> C 	 -89.8595 	 -28.989 	 -59.9466
| 12> H 	 -88.1251 	 -28.9706 	 -58.6518
| 13> C 	 -87.3873 	 -26.2554 	 -59.0383
| 14> H 	 -87.0971 	 -25.5975 	 -59.8653
| 15> H 	 -86.5369 	 -26.9244 	 -58.9368
| 16> C 	 -87.7033 	 -25.4086 	 -57.794
| 17> H 	 -86.8331 	 -24.8351 	 -57.5954
| 18> H 	 -88.5755 	 -24.7583 	 -58.0821
| 19> C 	 -88.0161 	 -26.235 	 -56.5378
| 20> H 	 -87.274 	 -27.0075 	 -56.2675
| 21> H 	 -87.9999 	 -25.6781 	 -55.6319
| 22> H 	 -88.9713 	 -26.7916 	 -56.5772
| 23> S 	 -90.9388 	 -31.0127 	 -61.3707
| 24> C 	 -91.3858 	 -32.5199 	 -60.7155
| 25> C 	 -90.8558 	 -32.6248 	 -59.4102
| 26> C 	 -90.2161 	 -31.4498 	 -58.9022
| 27> C 	 -90.3435 	 -30.3775 	 -59.8765
| 28> H 	 -91.1566 	 -33.5566 	 -58.8385
| 29> C 	 -89.4947 	 -31.4089 	 -57.5147
| 30> H 	 -88.7231 	 -30.637 	 -57.527
| 31> H 	 -88.9982 	 -32.3716 	 -57.4501
| 32> C 	 -90.4404 	 -31.0912 	 -56.3379
| 33> H 	 -89.8003 	 -31.0945 	 -55.4095
| 34> H 	 -91.1206 	 -31.858 	 -56.1518
| 35> C 	 -91.2688 	 -29.7922 	 -56.5282
| 36> H 	 -90.7484 	 -28.993 	 -57.0162
| 37> H 	 -91.5043 	 -29.4776 	 -55.5291
| 38> H 	 -92.2803 	 -29.936 	 -56.9918
| 39> H 	 -89.6715 	 -25.4512 	 -60.7314
| 40> H 	 -92.2471 	 -33.0415 	 -60.9753
| 41> *
| 42>
| 43>                          ****END OF INPUT****

CARTESIAN COORDINATES (ANGSTROEM)
---------------------------------
  S    -90.840400  -27.734500  -60.845600
  C    -89.646500  -26.526000  -60.405600
  C    -88.620000  -27.012000  -59.594500
  C    -88.779000  -28.390500  -59.275100
  C    -89.859500  -28.989000  -59.946600
  H    -88.125100  -28.970600  -58.651800
  C    -87.387300  -26.255400  -59.038300
  H    -87.097100  -25.597500  -59.865300
  H    -86.536900  -26.924400  -58.936800
  C    -87.703300  -25.408600  -57.794000
  H    -86.833100  -24.835100  -57.595400
  H    -88.575500  -24.758300  -58.082100
  C    -88.016100  -26.235000  -56.537800
  H    -87.274000  -27.007500  -56.267500
  H    -87.999900  -25.678100  -55.631900
  H    -88.971300  -26.791600  -56.577200
  S    -90.938800  -31.012700  -61.370700
  C    -91.385800  -32.519900  -60.715500
  C    -90.855800  -32.624800  -59.410200
  C    -90.216100  -31.449800  -58.902200
  C    -90.343500  -30.377500  -59.876500
  H    -91.156600  -33.556600  -58.838500
  C    -89.494700  -31.408900  -57.514700
  H    -88.723100  -30.637000  -57.527000
  H    -88.998200  -32.371600  -57.450100
  C    -90.440400  -31.091200  -56.337900
  H    -89.800300  -31.094500  -55.409500
  H    -91.120600  -31.858000  -56.151800
  C    -91.268800  -29.792200  -56.528200
  H    -90.748400  -28.993000  -57.016200
  H    -91.504300  -29.477600  -55.529100
  H    -92.280300  -29.936000  -56.991800
  H    -89.671500  -25.451200  -60.731400
  H    -92.247100  -33.041500  -60.975300

 Total Charge           Charge          ....    0
 Multiplicity           Mult            ....    1
 Number of Electrons    NEL             ....  134
 Basis Dimension        Dim             ....  322

ORBITAL ENERGIES
----------------

  NO   OCC          E(Eh)            E(eV)
   0   2.0000     -88.972398     -2421.0620
   1   2.0000     -88.962951     -2420.8050
   2   2.0000     -10.339437      -281.3504
   3   2.0000     -10.333580      -281.1910
   4   2.0000     -10.322484      -280.8891
   5   2.0000     -10.314095      -280.6608
   6   2.0000     -10.305393      -280.4240
   7   2.0000     -10.304876      -280.4099
   8   2.0000     -10.300923      -280.3024
   9   2.0000     -10.298683      -280.2414
  10   2.0000     -10.298105      -280.2257
  11   2.0000     -10.296074      -280.1704
  12   2.0000     -10.292926      -280.0847
  13   2.0000     -10.286798      -279.9180
  14   2.0000     -10.278279      -279.6862
  15   2.0000     -10.273040      -279.5436
  16   2.0000      -8.085520      -220.0182
  17   2.0000      -8.078736      -219.8336
  18   2.0000      -6.044174      -164.4703
  19   2.0000      -6.040322      -164.3655
  20   2.0000      -6.037062      -164.2768
  21   2.0000      -6.036136      -164.2516
  22   2.0000      -6.032847      -164.1621
  23   2.0000      -6.029877      -164.0813
  24   2.0000      -1.000994       -27.2384
  25   2.0000      -0.978044       -26.6139
  26   2.0000      -0.908514       -24.7219
  27   2.0000      -0.904317       -24.6077
  28   2.0000      -0.863204       -23.4890
  29   2.0000      -0.848981       -23.1020
  30   2.0000      -0.841035       -22.8857
  31   2.0000      -0.809512       -22.0279
  32   2.0000      -0.784197       -21.3391
  33   2.0000      -0.772768       -21.0281
  34   2.0000      -0.705285       -19.1918
  35   2.0000      -0.704257       -19.1638
  36   2.0000      -0.692554       -18.8454
  37   2.0000      -0.654369       -17.8063
  38   2.0000      -0.633090       -17.2272
  39   2.0000      -0.618696       -16.8356
  40   2.0000      -0.591851       -16.1051
  41   2.0000      -0.574580       -15.6351
  42   2.0000      -0.552531       -15.0351
  43   2.0000      -0.544928       -14.8283
  44   2.0000      -0.536404       -14.5963
  45   2.0000      -0.531082       -14.4515
  46   2.0000      -0.518456       -14.1079
  47   2.0000      -0.510616       -13.8946
  48   2.0000      -0.499640       -13.5959
  49   2.0000      -0.491986       -13.3876
  50   2.0000      -0.486939       -13.2503
  51   2.0000      -0.483363       -13.1530
  52   2.0000      -0.469311       -12.7706
  53   2.0000      -0.464552       -12.6411
  54   2.0000      -0.458315       -12.4714
  55   2.0000      -0.445931       -12.1344
  56   2.0000      -0.441839       -12.0230
  57   2.0000      -0.435413       -11.8482
  58   2.0000      -0.433343       -11.7919
  59   2.0000      -0.428379       -11.6568
  60   2.0000      -0.419979       -11.4282
  61   2.0000      -0.417314       -11.3557
  62   2.0000      -0.410759       -11.1773
  63   2.0000      -0.348824        -9.4920
  64   2.0000      -0.334230        -9.0948
  65   2.0000      -0.328224        -8.9314
  66   2.0000      -0.281848        -7.6695
  67   0.0000       0.012119         0.3298
  68   0.0000       0.072172         1.9639
  69   0.0000       0.099877         2.7178
  70   0.0000       0.111694         3.0393
  71   0.0000       0.128415         3.4943

MULLIKEN ATOMIC CHARGES
-----------------------
   0 S :    0.111524
   1 C :   -0.134198
   2 C :   -0.103900
   3 C :    0.021425
   4 C :   -0.126136
   5 H :    0.008026
   6 C :    0.053668
   7 H :    0.025895
   8 H :    0.026841
   9 C :   -0.032447
  10 H :    0.028372
  11 H :    0.040793
  12 C :   -0.068771
  13 H :    0.017808
  14 H :    0.025112
  15 H :    0.045981
  16 S :    0.103309
  17 C :   -0.076696
  18 C :   -0.099481
  19 C :   -0.044414
  20 C :   -0.159558
  21 H :    0.045487
  22 C :    0.078223
  23 H :    0.015595
  24 H :    0.032500
  25 C :   -0.057654
  26 H :    0.033940
  27 H :    0.012328
  28 C :   -0.051628
  29 H :    0.039274
  30 H :    0.020164
  31 H :    0.049115
  32 H :    0.064364
  33 H :    0.055138
Sum of atomic charges:    0.0000000

LOEWDIN ATOMIC CHARGES
----------------------
   0 S :    0.380670
   1 C :   -0.205738
   2 C :   -0.064060
   3 C :   -0.056210
   4 C :   -0.171990
   5 H :    0.026621
   6 C :   -0.029729
   7 H :    0.032526
   8 H :    0.027749
   9 C :   -0.034094
  10 H :    0.021137
  11 H :    0.033979
  12 C :   -0.075946
  13 H :    0.025528
  14 H :    0.022662
  15 H :    0.029608
  16 S :    0.439869
  17 C :   -0.219132
  18 C :   -0.073859
  19 C :   -0.058008
  20 C :   -0.205097
  21 H :    0.040251
  22 C :   -0.026972
  23 H :    0.024518
  24 H :    0.033566
  25 C :   -0.036537
  26 H :    0.028398
  27 H :    0.014090
  28 C :   -0.065828
  29 H :    0.020937
  30 H :    0.024519
  31 H :    0.036722
  32 H :    0.038682
  33 H :    0.021169

  Mayer bond orders larger than 0.100000
B(  0-S ,  1-C ) :   1.1350 B(  0-S ,  4-C ) :   1.1341 B(  1-C ,  2-C ) :   1.6226
B(  1-C ,  4-C ) :   0.1030 B(  1-C , 32-H ) :   0.9552 B(  2-C ,  3-C ) :   1.2509
B(  2-C ,  6-C ) :   1.0054 B(  3-C ,  4-C ) :   1.5628 B(  3-C ,  5-H ) :   0.9917
B(  4-C , 20-C ) :   1.0591 B(  6-C ,  7-H ) :   0.9391 B(  6-C ,  8-H ) :   0.9481
B(  6-C ,  9-C ) :   1.0751 B(  9-C , 10-H ) :   0.9546 B(  9-C , 11-H ) :   0.9542
B(  9-C , 12-C ) :   1.0769 B( 12-C , 13-H ) :   0.9713 B( 12-C , 14-H ) :   0.9726
B( 12-C , 15-H ) :   0.9740 B( 16-S , 17-C ) :   1.1719 B( 16-S , 20-C ) :   1.1914
B( 17-C , 18-C ) :   1.5660 B( 17-C , 20-C ) :   0.1164 B( 17-C , 33-H ) :   0.9662
B( 18-C , 19-C ) :   1.3006 B( 18-C , 21-H ) :   0.9744 B( 19-C , 20-C ) :   1.4943
B( 19-C , 22-C ) :   1.0202 B( 22-C , 23-H ) :   0.9434 B( 22-C , 24-H ) :   0.9365
B( 22-C , 25-C ) :   1.0766 B( 25-C , 26-H ) :   0.9610 B( 25-C , 27-H ) :   0.9554
B( 25-C , 28-C ) :   1.0623 B( 28-C , 29-H ) :   0.9810 B( 28-C , 30-H ) :   0.9711
B( 28-C , 31-H ) :   0.9711

Dispersion correction           -0.015790831
FINAL SINGLE POINT ENERGY     -1339.865636214758

DIPOLE MOMENT
-------------
                                X             Y             Z
Electronic contribution:     -9.50460      -7.50832     -25.86168
Nuclear contribution   :      9.79361       7.68064      26.56979
                        -----------------------------------------
Total Dipole Moment    :      0.28901       0.17232       0.70811
                        -----------------------------------------
Magnitude (a.u.)       :      0.78399
Magnitude (Debye)      :      1.99274

Rotational constants in cm-1:     0.019817     0.009733     0.007315
Rotational constants in MHz :   594.111836   291.779955   219.292519

                             ****ORCA TERMINATED NORMALLY****
TOTAL RUN TIME: 0 days 0 hours 0 minutes 23 seconds 601 msec
