                         Program Version 4.2.1 -  RELEASE  -
|  1> ! wB97X-D3 SP def2-SVP
|  2> %pal
|  3> nprocs 24
|  4> end
|  5>
|  6> * xyz 0 1
|  7> S 	 25.7279 	 -0.563871 	 -107.609
|  8> C 	 27.0692 	 -0.445309 	 -108.744
|  9> C 	 27.0738 	 -1.44499 	 -109.667
| 10> C 	 25.9707 	 -2.31163 	 -109.388
| 11> C 	 25.1477 	 -1.99509 	 -108.303
| 12> H 	 25.7603 	 -3.23185 	 -110.055
| 13> C 	 27.988 	 -1.45343 	 -110.852
| 14> H 	 28.7833 	 -0.706356 	 -110.746
| 15> H 	 27.4268 	 -1.1376 	 -111.697
| 16> C 	 28.6233 	 -2.82098 	 -111.135
| 17> H 	 29.2244 	 -3.14186 	 -110.28
| 18> H 	 27.8439 	 -3.64552 	 -111.313
| 19> C 	 29.4456 	 -2.85207 	 -112.389
| 20> H 	 29.995 	 -3.79541 	 -112.473
| 21> H 	 28.8322 	 -2.87012 	 -113.219
| 22> H 	 30.0749 	 -2.02093 	 -112.359
| 23> S 	 22.3251 	 -1.93889 	 -108.008
| 24> C 	 21.5427 	 -3.42517 	 -107.505
| 25> C 	 22.4678 	 -4.44003 	 -107.331
| 26> C 	 23.8012 	 -4.10528 	 -107.564
| 27> C 	 23.9595 	 -2.74239 	 -107.867
| 28> H 	 22.14 	 -5.39699 	 -107.107
| 29> C 	 24.9218 	 -5.14463 	 -107.603
| 30> H 	 25.8821 	 -4.64993 	 -107.753
| 31> H 	 24.8972 	 -5.88943 	 -108.397
| 32> C 	 25.1549 	 -5.92837 	 -106.294
| 33> H 	 24.147 	 -6.41716 	 -106.007
| 34> H 	 25.3593 	 -5.27138 	 -105.44
| 35> C 	 26.1815 	 -7.03879 	 -106.462
| 36> H 	 25.6499 	 -7.86107 	 -106.97
| 37> H 	 26.7328 	 -7.4391 	 -105.614
| 38> H 	 27.0117 	 -6.69923 	 -107.075
| 39> H 	 27.7071 	 0.447407 	 -108.792
| 40> H 	 20.5356 	 -3.57105 	 -107.213
| 41> *
| 42>
| 43>                          ****END OF INPUT****

CARTESIAN COORDINATES (ANGSTROEM)
---------------------------------
  S     25.727900   -0.563871  -107.609000
  C     27.069200   -0.445309  -108.744000
  C     27.073800   -1.444990  -109.667000
  C     25.970700   -2.311630  -109.388000
  C     25.147700   -1.995090  -108.303000
  H     25.760300   -3.231850  -110.055000
  C     27.988000   -1.453430  -110.852000
  H     28.783300   -0.706356  -110.746000
  H     27.426800   -1.137600  -111.697000
  C     28.623300   -2.820980  -111.135000
  H     29.224400   -3.141860  -110.280000
  H     27.843900   -3.645520  -111.313000
  C     29.445600   -2.852070  -112.389000
  H     29.995000   -3.795410  -112.473000
  H     28.832200   -2.870120  -113.219000
  H     30.074900   -2.020930  -112.359000
  S     22.325100   -1.938890  -108.008000
  C     21.542700   -3.425170  -107.505000
  C     22.467800   -4.440030  -107.331000
  C     23.801200   -4.105280  -107.564000
  C     23.959500   -2.742390  -107.867000
  H     22.140000   -5.396990  -107.107000
  C     24.921800   -5.144630  -107.603000
  H     25.882100   -4.649930  -107.753000
  H     24.897200   -5.889430  -108.397000
  C     25.154900   -5.928370  -106.294000
  H     24.147000   -6.417160  -106.007000
  H     25.359300   -5.271380  -105.440000
  C     26.181500   -7.038790  -106.462000
  H     25.649900   -7.861070  -106.970000
  H     26.732800   -7.439100  -105.614000
  H     27.011700   -6.699230  -107.075000
  H     27.707100    0.447407  -108.792000
  H     20.535600   -3.571050  -107.213000

 Total Charge           Charge          ....    0
 Multiplicity           Mult            ....    1
 Number of Electrons    NEL             ....  134
 Basis Dimension        Dim             ....  322

ORBITAL ENERGIES
----------------

  NO   OCC          E(Eh)            E(eV)
   0   2.0000     -88.968472     -2420.9552
   1   2.0000     -88.964538     -2420.8482
   2   2.0000     -10.335392      -281.2403
   3   2.0000     -10.327995      -281.0390
   4   2.0000     -10.316797      -280.7343
   5   2.0000     -10.312890      -280.6280
   6   2.0000     -10.306362      -280.4504
   7   2.0000     -10.300154      -280.2814
   8   2.0000     -10.299219      -280.2560
   9   2.0000     -10.294154      -280.1182
  10   2.0000     -10.292601      -280.0759
  11   2.0000     -10.290593      -280.0213
  12   2.0000     -10.289472      -279.9908
  13   2.0000     -10.285673      -279.8874
  14   2.0000     -10.277672      -279.6697
  15   2.0000     -10.266868      -279.3757
  16   2.0000      -8.081837      -219.9180
  17   2.0000      -8.080217      -219.8739
  18   2.0000      -6.040468      -164.3695
  19   2.0000      -6.038566      -164.3177
  20   2.0000      -6.036530      -164.2623
  21   2.0000      -6.034511      -164.2074
  22   2.0000      -6.032557      -164.1542
  23   2.0000      -6.031163      -164.1163
  24   2.0000      -1.006943       -27.4003
  25   2.0000      -0.983543       -26.7636
  26   2.0000      -0.920399       -25.0453
  27   2.0000      -0.906938       -24.6791
  28   2.0000      -0.874146       -23.7867
  29   2.0000      -0.851858       -23.1802
  30   2.0000      -0.846173       -23.0255
  31   2.0000      -0.810123       -22.0446
  32   2.0000      -0.788644       -21.4601
  33   2.0000      -0.774370       -21.0717
  34   2.0000      -0.709064       -19.2946
  35   2.0000      -0.694719       -18.9043
  36   2.0000      -0.691925       -18.8282
  37   2.0000      -0.657979       -17.9045
  38   2.0000      -0.640468       -17.4280
  39   2.0000      -0.618566       -16.8320
  40   2.0000      -0.602393       -16.3920
  41   2.0000      -0.574295       -15.6274
  42   2.0000      -0.573044       -15.5933
  43   2.0000      -0.564522       -15.3614
  44   2.0000      -0.531002       -14.4493
  45   2.0000      -0.522865       -14.2279
  46   2.0000      -0.517668       -14.0865
  47   2.0000      -0.507812       -13.8183
  48   2.0000      -0.503574       -13.7029
  49   2.0000      -0.500125       -13.6091
  50   2.0000      -0.496904       -13.5215
  51   2.0000      -0.484842       -13.1932
  52   2.0000      -0.469838       -12.7849
  53   2.0000      -0.468329       -12.7439
  54   2.0000      -0.459098       -12.4927
  55   2.0000      -0.448497       -12.2042
  56   2.0000      -0.446409       -12.1474
  57   2.0000      -0.433429       -11.7942
  58   2.0000      -0.429308       -11.6821
  59   2.0000      -0.427349       -11.6288
  60   2.0000      -0.422259       -11.4902
  61   2.0000      -0.418578       -11.3901
  62   2.0000      -0.405804       -11.0425
  63   2.0000      -0.338329        -9.2064
  64   2.0000      -0.335789        -9.1373
  65   2.0000      -0.329055        -8.9540
  66   2.0000      -0.298026        -8.1097
  67   0.0000       0.029631         0.8063
  68   0.0000       0.066630         1.8131
  69   0.0000       0.111884         3.0445
  70   0.0000       0.123295         3.3550
  71   0.0000       0.131928         3.5899

MULLIKEN ATOMIC CHARGES
-----------------------
   0 S :    0.115265
   1 C :   -0.151755
   2 C :   -0.064458
   3 C :   -0.001740
   4 C :   -0.167474
   5 H :    0.036289
   6 C :    0.104482
   7 H :    0.016407
   8 H :    0.031312
   9 C :   -0.149758
  10 H :    0.035767
  11 H :    0.034454
  12 C :    0.028435
  13 H :    0.029406
  14 H :    0.010853
  15 H :    0.013613
  16 S :    0.103984
  17 C :   -0.069295
  18 C :   -0.024278
  19 C :    0.024071
  20 C :   -0.164446
  21 H :   -0.011654
  22 C :    0.060255
  23 H :    0.026639
  24 H :    0.032782
  25 C :   -0.120605
  26 H :    0.029554
  27 H :    0.037335
  28 C :   -0.039793
  29 H :    0.036340
  30 H :    0.036562
  31 H :    0.020778
  32 H :    0.053455
  33 H :    0.047219
Sum of atomic charges:    0.0000000

LOEWDIN ATOMIC CHARGES
----------------------
   0 S :    0.427222
   1 C :   -0.193491
   2 C :   -0.068936
   3 C :   -0.068597
   4 C :   -0.226503
   5 H :    0.038978
   6 C :   -0.025698
   7 H :    0.031819
   8 H :    0.031973
   9 C :   -0.044465
  10 H :    0.024012
  11 H :    0.028290
  12 C :   -0.052842
  13 H :    0.031860
  14 H :    0.015414
  15 H :    0.015052
  16 S :    0.381668
  17 C :   -0.175083
  18 C :   -0.063572
  19 C :   -0.047315
  20 C :   -0.174386
  21 H :    0.018556
  22 C :   -0.031862
  23 H :    0.031185
  24 H :    0.030854
  25 C :   -0.046312
  26 H :    0.023148
  27 H :    0.023865
  28 C :   -0.072669
  29 H :    0.030201
  30 H :    0.028717
  31 H :    0.023099
  32 H :    0.029884
  33 H :    0.025931

  Mayer bond orders larger than 0.100000
B(  0-S ,  1-C ) :   1.1521 B(  0-S ,  4-C ) :   1.1686 B(  1-C ,  2-C ) :   1.5978
B(  1-C , 32-H ) :   0.9641 B(  2-C ,  3-C ) :   1.2662 B(  2-C ,  6-C ) :   1.0287
B(  3-C ,  4-C ) :   1.5469 B(  3-C ,  5-H ) :   0.9791 B(  4-C , 20-C ) :   1.0267
B(  6-C ,  7-H ) :   0.9346 B(  6-C ,  8-H ) :   0.9323 B(  6-C ,  9-C ) :   1.0577
B(  9-C , 10-H ) :   0.9599 B(  9-C , 11-H ) :   0.9548 B(  9-C , 12-C ) :   1.0900
B( 12-C , 13-H ) :   0.9698 B( 12-C , 14-H ) :   0.9731 B( 12-C , 15-H ) :   0.9716
B( 16-S , 17-C ) :   1.1522 B( 16-S , 20-C ) :   1.1375 B( 17-C , 18-C ) :   1.6050
B( 17-C , 20-C ) :   0.1100 B( 17-C , 33-H ) :   0.9673 B( 18-C , 19-C ) :   1.2539
B( 18-C , 21-H ) :   0.9979 B( 19-C , 20-C ) :   1.5846 B( 19-C , 22-C ) :   1.0349
B( 22-C , 23-H ) :   0.9263 B( 22-C , 24-H ) :   0.9455 B( 22-C , 25-C ) :   1.0482
B( 25-C , 26-H ) :   0.9624 B( 25-C , 27-H ) :   0.9582 B( 25-C , 28-C ) :   1.0681
B( 28-C , 29-H ) :   0.9750 B( 28-C , 30-H ) :   0.9749 B( 28-C , 31-H ) :   0.9728

Dispersion correction           -0.013423038
FINAL SINGLE POINT ENERGY     -1339.875943911933

DIPOLE MOMENT
-------------
                                X             Y             Z
Electronic contribution:    -20.70099      20.61971       9.19451
Nuclear contribution   :     21.08111     -21.08523      -9.59931
                        -----------------------------------------
Total Dipole Moment    :      0.38012      -0.46552      -0.40480
                        -----------------------------------------
Magnitude (a.u.)       :      0.72461
Magnitude (Debye)      :      1.84181

Rotational constants in cm-1:     0.016097     0.008471     0.006487
Rotational constants in MHz :   482.574040   253.955753   194.467960

                             ****ORCA TERMINATED NORMALLY****
TOTAL RUN TIME: 0 days 0 hours 0 minutes 21 seconds 25 msec
