                         Program Version 4.2.1 -  RELEASE  -
|  1> ! wB97X-D3 SP def2-SVP
|  2> %pal
|  3> nprocs 24
|  4> end
|  5>
|  6> * xyz 0 1
|  7> S 	 -68.8911 	 7.48403 	 -73.4145
|  8> C 	 -70.1059 	 7.92064 	 -72.1703
|  9> C 	 -69.8639 	 7.24459 	 -70.9693
| 10> C 	 -68.5748 	 6.62219 	 -71.0095
| 11> C 	 -68.0529 	 6.5102 	 -72.2594
| 12> H 	 -68.0897 	 6.058 	 -70.1988
| 13> C 	 -70.6905 	 7.16632 	 -69.7012
| 14> H 	 -71.2411 	 8.12119 	 -69.6166
| 15> H 	 -69.9837 	 7.23511 	 -68.8694
| 16> C 	 -71.7211 	 5.95594 	 -69.6213
| 17> H 	 -71.2553 	 4.92698 	 -69.4012
| 18> H 	 -72.3302 	 6.19051 	 -68.7619
| 19> C 	 -72.6871 	 5.82224 	 -70.8293
| 20> H 	 -72.0485 	 5.8071 	 -71.7649
| 21> H 	 -73.4162 	 5.00624 	 -70.8254
| 22> H 	 -73.1997 	 6.77691 	 -70.8444
| 23> S 	 -65.7908 	 6.68412 	 -73.6864
| 24> C 	 -64.4444 	 5.58476 	 -73.3345
| 25> C 	 -64.9084 	 4.4623 	 -72.5468
| 26> C 	 -66.2589 	 4.69193 	 -72.1389
| 27> C 	 -66.8809 	 5.80042 	 -72.6412
| 28> H 	 -64.311 	 3.55897 	 -72.3391
| 29> C 	 -67.0599 	 3.70981 	 -71.2282
| 30> H 	 -68.0811 	 4.04585 	 -71.3009
| 31> H 	 -66.6304 	 3.85408 	 -70.2789
| 32> C 	 -66.9006 	 2.22773 	 -71.6339
| 33> H 	 -65.9338 	 1.95435 	 -71.364
| 34> H 	 -66.9903 	 2.22748 	 -72.7537
| 35> C 	 -67.9559 	 1.27023 	 -71.0516
| 36> H 	 -68.0012 	 1.25356 	 -69.9323
| 37> H 	 -67.8365 	 0.257856 	 -71.2855
| 38> H 	 -68.9707 	 1.5095 	 -71.272
| 39> H 	 -70.9037 	 8.64794 	 -72.3358
| 40> H 	 -63.4947 	 5.57182 	 -73.8107
| 41> *
| 42>
| 43>                          ****END OF INPUT****

CARTESIAN COORDINATES (ANGSTROEM)
---------------------------------
  S    -68.891100    7.484030  -73.414500
  C    -70.105900    7.920640  -72.170300
  C    -69.863900    7.244590  -70.969300
  C    -68.574800    6.622190  -71.009500
  C    -68.052900    6.510200  -72.259400
  H    -68.089700    6.058000  -70.198800
  C    -70.690500    7.166320  -69.701200
  H    -71.241100    8.121190  -69.616600
  H    -69.983700    7.235110  -68.869400
  C    -71.721100    5.955940  -69.621300
  H    -71.255300    4.926980  -69.401200
  H    -72.330200    6.190510  -68.761900
  C    -72.687100    5.822240  -70.829300
  H    -72.048500    5.807100  -71.764900
  H    -73.416200    5.006240  -70.825400
  H    -73.199700    6.776910  -70.844400
  S    -65.790800    6.684120  -73.686400
  C    -64.444400    5.584760  -73.334500
  C    -64.908400    4.462300  -72.546800
  C    -66.258900    4.691930  -72.138900
  C    -66.880900    5.800420  -72.641200
  H    -64.311000    3.558970  -72.339100
  C    -67.059900    3.709810  -71.228200
  H    -68.081100    4.045850  -71.300900
  H    -66.630400    3.854080  -70.278900
  C    -66.900600    2.227730  -71.633900
  H    -65.933800    1.954350  -71.364000
  H    -66.990300    2.227480  -72.753700
  C    -67.955900    1.270230  -71.051600
  H    -68.001200    1.253560  -69.932300
  H    -67.836500    0.257856  -71.285500
  H    -68.970700    1.509500  -71.272000
  H    -70.903700    8.647940  -72.335800
  H    -63.494700    5.571820  -73.810700

 Total Charge           Charge          ....    0
 Multiplicity           Mult            ....    1
 Number of Electrons    NEL             ....  134
 Basis Dimension        Dim             ....  322

ORBITAL ENERGIES
----------------

  NO   OCC          E(Eh)            E(eV)
   0   2.0000     -88.966297     -2420.8960
   1   2.0000     -88.966221     -2420.8939
   2   2.0000     -10.326897      -281.0091
   3   2.0000     -10.323764      -280.9239
   4   2.0000     -10.320328      -280.8304
   5   2.0000     -10.320286      -280.8293
   6   2.0000     -10.306254      -280.4474
   7   2.0000     -10.305669      -280.4315
   8   2.0000     -10.303322      -280.3676
   9   2.0000     -10.302622      -280.3486
  10   2.0000     -10.299065      -280.2518
  11   2.0000     -10.290007      -280.0053
  12   2.0000     -10.287674      -279.9419
  13   2.0000     -10.286436      -279.9082
  14   2.0000     -10.281197      -279.7656
  15   2.0000     -10.275004      -279.5971
  16   2.0000      -8.080970      -219.8944
  17   2.0000      -8.080658      -219.8859
  18   2.0000      -6.039496      -164.3430
  19   2.0000      -6.039309      -164.3379
  20   2.0000      -6.035644      -164.2382
  21   2.0000      -6.035042      -164.2219
  22   2.0000      -6.031560      -164.1271
  23   2.0000      -6.031428      -164.1235
  24   2.0000      -1.010767       -27.5044
  25   2.0000      -0.979711       -26.6593
  26   2.0000      -0.907908       -24.7054
  27   2.0000      -0.904487       -24.6123
  28   2.0000      -0.867243       -23.5989
  29   2.0000      -0.853078       -23.2134
  30   2.0000      -0.842039       -22.9130
  31   2.0000      -0.810189       -22.0464
  32   2.0000      -0.783760       -21.3272
  33   2.0000      -0.775389       -21.0994
  34   2.0000      -0.710433       -19.3319
  35   2.0000      -0.701257       -19.0822
  36   2.0000      -0.696789       -18.9606
  37   2.0000      -0.662198       -18.0193
  38   2.0000      -0.639839       -17.4109
  39   2.0000      -0.615674       -16.7533
  40   2.0000      -0.586769       -15.9668
  41   2.0000      -0.575546       -15.6614
  42   2.0000      -0.562755       -15.3133
  43   2.0000      -0.549442       -14.9511
  44   2.0000      -0.541351       -14.7309
  45   2.0000      -0.523262       -14.2387
  46   2.0000      -0.514479       -13.9997
  47   2.0000      -0.513174       -13.9642
  48   2.0000      -0.505659       -13.7597
  49   2.0000      -0.495097       -13.4723
  50   2.0000      -0.488528       -13.2935
  51   2.0000      -0.482665       -13.1340
  52   2.0000      -0.471387       -12.8271
  53   2.0000      -0.466540       -12.6952
  54   2.0000      -0.455901       -12.4057
  55   2.0000      -0.451349       -12.2818
  56   2.0000      -0.446389       -12.1469
  57   2.0000      -0.442063       -12.0291
  58   2.0000      -0.433562       -11.7978
  59   2.0000      -0.422284       -11.4909
  60   2.0000      -0.418043       -11.3755
  61   2.0000      -0.416139       -11.3237
  62   2.0000      -0.410205       -11.1622
  63   2.0000      -0.349019        -9.4973
  64   2.0000      -0.334121        -9.0919
  65   2.0000      -0.329220        -8.9585
  66   2.0000      -0.286164        -7.7869
  67   0.0000       0.022160         0.6030
  68   0.0000       0.069380         1.8879
  69   0.0000       0.095084         2.5874
  70   0.0000       0.116663         3.1746
  71   0.0000       0.132324         3.6007

MULLIKEN ATOMIC CHARGES
-----------------------
   0 S :    0.096934
   1 C :   -0.126893
   2 C :   -0.106581
   3 C :    0.005150
   4 C :   -0.129681
   5 H :    0.023911
   6 C :    0.058580
   7 H :    0.024503
   8 H :    0.034401
   9 C :   -0.079219
  10 H :    0.043227
  11 H :    0.031113
  12 C :   -0.073875
  13 H :    0.057314
  14 H :    0.049103
  15 H :    0.019940
  16 S :    0.096430
  17 C :   -0.084902
  18 C :   -0.052022
  19 C :   -0.099522
  20 C :   -0.110215
  21 H :    0.038817
  22 C :    0.077462
  23 H :    0.037065
  24 H :    0.026618
  25 C :   -0.067433
  26 H :    0.016205
  27 H :    0.043804
  28 C :   -0.018952
  29 H :    0.017656
  30 H :    0.021619
  31 H :    0.020036
  32 H :    0.054338
  33 H :    0.055067
Sum of atomic charges:    0.0000000

LOEWDIN ATOMIC CHARGES
----------------------
   0 S :    0.389913
   1 C :   -0.189551
   2 C :   -0.059947
   3 C :   -0.068516
   4 C :   -0.195868
   5 H :    0.035965
   6 C :   -0.032976
   7 H :    0.032689
   8 H :    0.035512
   9 C :   -0.041540
  10 H :    0.028593
  11 H :    0.021617
  12 C :   -0.073098
  13 H :    0.034526
  14 H :    0.028610
  15 H :    0.021306
  16 S :    0.402080
  17 C :   -0.171869
  18 C :   -0.071919
  19 C :   -0.054781
  20 C :   -0.206197
  21 H :    0.037964
  22 C :   -0.022015
  23 H :    0.027463
  24 H :    0.022904
  25 C :   -0.033453
  26 H :    0.012259
  27 H :    0.033264
  28 C :   -0.065200
  29 H :    0.028490
  30 H :    0.019683
  31 H :    0.022169
  32 H :    0.028991
  33 H :    0.022931

  Mayer bond orders larger than 0.100000
B(  0-S ,  1-C ) :   1.1176 B(  0-S ,  4-C ) :   1.1350 B(  1-C ,  2-C ) :   1.6137
B(  1-C , 32-H ) :   0.9709 B(  2-C ,  3-C ) :   1.2187 B(  2-C ,  6-C ) :   1.0248
B(  3-C ,  4-C ) :   1.5999 B(  3-C ,  5-H ) :   0.9807 B(  4-C , 20-C ) :   1.0423
B(  6-C ,  7-H ) :   0.9406 B(  6-C ,  8-H ) :   0.9440 B(  6-C ,  9-C ) :   1.0491
B(  9-C , 10-H ) :   0.9598 B(  9-C , 11-H ) :   0.9590 B(  9-C , 12-C ) :   1.0648
B( 12-C , 13-H ) :   0.9729 B( 12-C , 14-H ) :   0.9760 B( 12-C , 15-H ) :   0.9758
B( 16-S , 17-C ) :   1.1776 B( 16-S , 20-C ) :   1.1136 B( 17-C , 18-C ) :   1.5644
B( 17-C , 20-C ) :   0.1074 B( 17-C , 33-H ) :   0.9696 B( 18-C , 19-C ) :   1.2576
B( 18-C , 21-H ) :   0.9850 B( 19-C , 20-C ) :   1.6214 B( 19-C , 22-C ) :   1.0156
B( 22-C , 23-H ) :   0.9463 B( 22-C , 24-H ) :   0.9241 B( 22-C , 25-C ) :   1.0631
B( 25-C , 26-H ) :   0.9500 B( 25-C , 27-H ) :   0.9620 B( 25-C , 28-C ) :   1.0886
B( 28-C , 29-H ) :   0.9710 B( 28-C , 30-H ) :   0.9747 B( 28-C , 31-H ) :   0.9741

Dispersion correction           -0.014371349
FINAL SINGLE POINT ENERGY     -1339.864854460923

DIPOLE MOMENT
-------------
                                X             Y             Z
Electronic contribution:     15.70945      18.77650     -17.23488
Nuclear contribution   :    -15.85702     -19.21868      17.80682
                        -----------------------------------------
Total Dipole Moment    :     -0.14757      -0.44218       0.57194
                        -----------------------------------------
Magnitude (a.u.)       :      0.73784
Magnitude (Debye)      :      1.87545

Rotational constants in cm-1:     0.017116     0.009807     0.006827
Rotational constants in MHz :   513.122733   294.001317   204.658710

                             ****ORCA TERMINATED NORMALLY****
TOTAL RUN TIME: 0 days 0 hours 0 minutes 20 seconds 787 msec
