                         Program Version 4.2.1 -  RELEASE  -
|  1> ! wB97X-D3 SP def2-SVP
|  2> %pal
|  3> nprocs 24
|  4> end
|  5>
|  6> * xyz 0 1
|  7> S 	 -105.653 	 22.0913 	 -109.776
|  8> C 	 -105.533 	 20.9739 	 -108.504
|  9> C 	 -104.976 	 21.519 	 -107.362
| 10> C 	 -104.61 	 22.8728 	 -107.594
| 11> C 	 -104.768 	 23.2731 	 -108.891
| 12> H 	 -104.124 	 23.5461 	 -106.928
| 13> C 	 -104.768 	 20.7421 	 -106.047
| 14> H 	 -105.753 	 20.4308 	 -105.709
| 15> H 	 -104.52 	 21.448 	 -105.261
| 16> C 	 -103.652 	 19.7255 	 -106.018
| 17> H 	 -103.587 	 19.2671 	 -106.963
| 18> H 	 -102.698 	 20.1071 	 -105.905
| 19> C 	 -103.829 	 18.6003 	 -104.996
| 20> H 	 -103.026 	 17.893 	 -105.15
| 21> H 	 -103.805 	 19.0305 	 -104.038
| 22> H 	 -104.738 	 17.9707 	 -104.982
| 23> S 	 -103.526 	 24.7195 	 -110.844
| 24> C 	 -103.741 	 26.4296 	 -111.038
| 25> C 	 -104.649 	 26.8611 	 -110.044
| 26> C 	 -104.901 	 25.8491 	 -109.062
| 27> C 	 -104.38 	 24.6093 	 -109.373
| 28> H 	 -104.788 	 27.9742 	 -109.993
| 29> C 	 -105.9 	 26.1559 	 -107.941
| 30> H 	 -105.632 	 27.1149 	 -107.569
| 31> H 	 -105.882 	 25.5301 	 -107.116
| 32> C 	 -107.283 	 26.1827 	 -108.488
| 33> H 	 -107.455 	 25.2734 	 -109.039
| 34> H 	 -107.243 	 26.956 	 -109.204
| 35> C 	 -108.454 	 26.5939 	 -107.529
| 36> H 	 -108.166 	 27.3743 	 -106.767
| 37> H 	 -108.831 	 25.7935 	 -106.967
| 38> H 	 -109.262 	 27.0474 	 -108.03
| 39> H 	 -105.935 	 19.9529 	 -108.673
| 40> H 	 -103.339 	 27.193 	 -111.669
| 41> *
| 42>
| 43>                          ****END OF INPUT****

CARTESIAN COORDINATES (ANGSTROEM)
---------------------------------
  S    -105.653000   22.091300  -109.776000
  C    -105.533000   20.973900  -108.504000
  C    -104.976000   21.519000  -107.362000
  C    -104.610000   22.872800  -107.594000
  C    -104.768000   23.273100  -108.891000
  H    -104.124000   23.546100  -106.928000
  C    -104.768000   20.742100  -106.047000
  H    -105.753000   20.430800  -105.709000
  H    -104.520000   21.448000  -105.261000
  C    -103.652000   19.725500  -106.018000
  H    -103.587000   19.267100  -106.963000
  H    -102.698000   20.107100  -105.905000
  C    -103.829000   18.600300  -104.996000
  H    -103.026000   17.893000  -105.150000
  H    -103.805000   19.030500  -104.038000
  H    -104.738000   17.970700  -104.982000
  S    -103.526000   24.719500  -110.844000
  C    -103.741000   26.429600  -111.038000
  C    -104.649000   26.861100  -110.044000
  C    -104.901000   25.849100  -109.062000
  C    -104.380000   24.609300  -109.373000
  H    -104.788000   27.974200  -109.993000
  C    -105.900000   26.155900  -107.941000
  H    -105.632000   27.114900  -107.569000
  H    -105.882000   25.530100  -107.116000
  C    -107.283000   26.182700  -108.488000
  H    -107.455000   25.273400  -109.039000
  H    -107.243000   26.956000  -109.204000
  C    -108.454000   26.593900  -107.529000
  H    -108.166000   27.374300  -106.767000
  H    -108.831000   25.793500  -106.967000
  H    -109.262000   27.047400  -108.030000
  H    -105.935000   19.952900  -108.673000
  H    -103.339000   27.193000  -111.669000

 Total Charge           Charge          ....    0
 Multiplicity           Mult            ....    1
 Number of Electrons    NEL             ....  134
 Basis Dimension        Dim             ....  322

ORBITAL ENERGIES
----------------

  NO   OCC          E(Eh)            E(eV)
   0   2.0000     -88.967085     -2420.9175
   1   2.0000     -88.966608     -2420.9045
   2   2.0000     -10.324121      -280.9336
   3   2.0000     -10.323203      -280.9086
   4   2.0000     -10.318790      -280.7885
   5   2.0000     -10.311905      -280.6012
   6   2.0000     -10.303710      -280.3782
   7   2.0000     -10.301748      -280.3248
   8   2.0000     -10.298600      -280.2392
   9   2.0000     -10.290188      -280.0103
  10   2.0000     -10.287850      -279.9466
  11   2.0000     -10.275718      -279.6165
  12   2.0000     -10.274473      -279.5826
  13   2.0000     -10.273520      -279.5567
  14   2.0000     -10.272854      -279.5386
  15   2.0000     -10.271890      -279.5123
  16   2.0000      -8.083150      -219.9537
  17   2.0000      -8.081974      -219.9217
  18   2.0000      -6.041462      -164.3965
  19   2.0000      -6.040486      -164.3700
  20   2.0000      -6.037376      -164.2854
  21   2.0000      -6.036092      -164.2504
  22   2.0000      -6.034137      -164.1972
  23   2.0000      -6.032959      -164.1652
  24   2.0000      -1.016018       -27.6473
  25   2.0000      -0.993376       -27.0311
  26   2.0000      -0.913619       -24.8608
  27   2.0000      -0.912725       -24.8365
  28   2.0000      -0.871665       -23.7192
  29   2.0000      -0.855020       -23.2663
  30   2.0000      -0.842882       -22.9360
  31   2.0000      -0.817309       -22.2401
  32   2.0000      -0.784824       -21.3561
  33   2.0000      -0.775663       -21.1069
  34   2.0000      -0.710485       -19.3333
  35   2.0000      -0.702810       -19.1244
  36   2.0000      -0.695757       -18.9325
  37   2.0000      -0.661908       -18.0114
  38   2.0000      -0.648639       -17.6504
  39   2.0000      -0.620244       -16.8777
  40   2.0000      -0.595660       -16.2087
  41   2.0000      -0.577400       -15.7119
  42   2.0000      -0.564141       -15.3511
  43   2.0000      -0.555629       -15.1194
  44   2.0000      -0.532623       -14.4934
  45   2.0000      -0.521379       -14.1875
  46   2.0000      -0.518778       -14.1167
  47   2.0000      -0.511491       -13.9184
  48   2.0000      -0.507721       -13.8158
  49   2.0000      -0.501577       -13.6486
  50   2.0000      -0.493059       -13.4168
  51   2.0000      -0.479351       -13.0438
  52   2.0000      -0.477238       -12.9863
  53   2.0000      -0.469709       -12.7814
  54   2.0000      -0.463730       -12.6187
  55   2.0000      -0.451564       -12.2877
  56   2.0000      -0.442899       -12.0519
  57   2.0000      -0.438953       -11.9445
  58   2.0000      -0.431577       -11.7438
  59   2.0000      -0.421540       -11.4707
  60   2.0000      -0.415490       -11.3061
  61   2.0000      -0.413487       -11.2515
  62   2.0000      -0.410157       -11.1609
  63   2.0000      -0.346252        -9.4220
  64   2.0000      -0.334051        -9.0900
  65   2.0000      -0.329926        -8.9777
  66   2.0000      -0.296616        -8.0713
  67   0.0000       0.037526         1.0211
  68   0.0000       0.065852         1.7919
  69   0.0000       0.119625         3.2552
  70   0.0000       0.123392         3.3577
  71   0.0000       0.132562         3.6072

MULLIKEN ATOMIC CHARGES
-----------------------
   0 S :    0.137348
   1 C :   -0.156475
   2 C :   -0.074283
   3 C :    0.023754
   4 C :   -0.140982
   5 H :    0.002685
   6 C :    0.088718
   7 H :    0.029313
   8 H :    0.006275
   9 C :   -0.003530
  10 H :    0.007031
  11 H :    0.011510
  12 C :   -0.050946
  13 H :    0.029701
  14 H :    0.017990
  15 H :    0.029459
  16 S :    0.117012
  17 C :   -0.085323
  18 C :   -0.082435
  19 C :   -0.071823
  20 C :   -0.159748
  21 H :    0.044086
  22 C :    0.155926
  23 H :   -0.001010
  24 H :   -0.008118
  25 C :   -0.067124
  26 H :    0.026901
  27 H :    0.004274
  28 C :   -0.015204
  29 H :    0.021320
  30 H :    0.024661
  31 H :    0.022641
  32 H :    0.064658
  33 H :    0.051737
Sum of atomic charges:    0.0000000

LOEWDIN ATOMIC CHARGES
----------------------
   0 S :    0.442123
   1 C :   -0.215552
   2 C :   -0.063764
   3 C :   -0.059498
   4 C :   -0.208630
   5 H :    0.027624
   6 C :   -0.030766
   7 H :    0.032741
   8 H :    0.029214
   9 C :   -0.031733
  10 H :    0.017472
  11 H :    0.020324
  12 C :   -0.059580
  13 H :    0.027021
  14 H :    0.015753
  15 H :    0.026367
  16 S :    0.441303
  17 C :   -0.195660
  18 C :   -0.081740
  19 C :   -0.051327
  20 C :   -0.220679
  21 H :    0.039598
  22 C :   -0.020941
  23 H :    0.023618
  24 H :    0.013954
  25 C :   -0.032755
  26 H :    0.024857
  27 H :    0.016505
  28 C :   -0.061748
  29 H :    0.030762
  30 H :    0.017058
  31 H :    0.021307
  32 H :    0.033716
  33 H :    0.033058

  Mayer bond orders larger than 0.100000
B(  0-S ,  1-C ) :   1.1685 B(  0-S ,  4-C ) :   1.1638 B(  1-C ,  2-C ) :   1.5708
B(  1-C , 32-H ) :   0.9686 B(  2-C ,  3-C ) :   1.2635 B(  2-C ,  6-C ) :   1.0177
B(  3-C ,  4-C ) :   1.5636 B(  3-C ,  5-H ) :   1.0047 B(  4-C , 20-C ) :   1.0198
B(  6-C ,  7-H ) :   0.9461 B(  6-C ,  8-H ) :   0.9342 B(  6-C ,  9-C ) :   1.0518
B(  9-C , 10-H ) :   0.9610 B(  9-C , 11-H ) :   0.9493 B(  9-C , 12-C ) :   1.0795
B( 12-C , 13-H ) :   0.9740 B( 12-C , 14-H ) :   0.9771 B( 12-C , 15-H ) :   0.9786
B( 16-S , 17-C ) :   1.1785 B( 16-S , 20-C ) :   1.1471 B( 17-C , 18-C ) :   1.5840
B( 17-C , 33-H ) :   0.9699 B( 18-C , 19-C ) :   1.2787 B( 18-C , 21-H ) :   0.9727
B( 19-C , 20-C ) :   1.5688 B( 19-C , 22-C ) :   1.0473 B( 22-C , 23-H ) :   0.9181
B( 22-C , 24-H ) :   0.9342 B( 22-C , 25-C ) :   1.0695 B( 25-C , 26-H ) :   0.9560
B( 25-C , 27-H ) :   0.9548 B( 25-C , 28-C ) :   1.0711 B( 28-C , 29-H ) :   0.9728
B( 28-C , 30-H ) :   0.9767 B( 28-C , 31-H ) :   0.9764

Dispersion correction           -0.013945801
FINAL SINGLE POINT ENERGY     -1339.857878093903

DIPOLE MOMENT
-------------
                                X             Y             Z
Electronic contribution:      8.14781       3.52890     -22.55719
Nuclear contribution   :     -8.27298      -3.40324      23.02219
                        -----------------------------------------
Total Dipole Moment    :     -0.12517       0.12566       0.46500
                        -----------------------------------------
Magnitude (a.u.)       :      0.49767
Magnitude (Debye)      :      1.26499

Rotational constants in cm-1:     0.020644     0.007500     0.006370
Rotational constants in MHz :   618.880958   224.846391   190.962619

                             ****ORCA TERMINATED NORMALLY****
TOTAL RUN TIME: 0 days 0 hours 0 minutes 19 seconds 900 msec
