                         Program Version 4.2.1 -  RELEASE  -
|  1> ! wB97X-D3 SP def2-SVP
|  2> %pal
|  3> nprocs 24
|  4> end
|  5>
|  6> * xyz 0 1
|  7> S 	 -99.3117 	 0.955319 	 -105.049
|  8> C 	 -98.8752 	 2.61251 	 -105.48
|  9> C 	 -99.975 	 3.32314 	 -106.044
| 10> C 	 -101.167 	 2.52949 	 -105.964
| 11> C 	 -101.036 	 1.32355 	 -105.317
| 12> H 	 -102.096 	 2.88403 	 -106.396
| 13> C 	 -100.085 	 4.80443 	 -106.447
| 14> H 	 -100.864 	 4.87336 	 -107.233
| 15> H 	 -99.1633 	 5.15949 	 -106.915
| 16> C 	 -100.46 	 5.77255 	 -105.267
| 17> H 	 -101.144 	 6.62328 	 -105.475
| 18> H 	 -101.265 	 5.21245 	 -104.694
| 19> C 	 -99.2809 	 6.04407 	 -104.374
| 20> H 	 -98.6667 	 6.81503 	 -104.853
| 21> H 	 -99.5443 	 6.32056 	 -103.402
| 22> H 	 -98.6485 	 5.20952 	 -104.198
| 23> S 	 -101.812 	 -1.28881 	 -105.398
| 24> C 	 -103.451 	 -1.76436 	 -105.11
| 25> C 	 -104.192 	 -0.698154 	 -104.764
| 26> C 	 -103.483 	 0.535965 	 -104.725
| 27> C 	 -102.124 	 0.375475 	 -105.069
| 28> H 	 -105.247 	 -0.743097 	 -104.597
| 29> C 	 -104.077 	 1.88784 	 -104.206
| 30> H 	 -103.186 	 2.53893 	 -104.151
| 31> H 	 -104.284 	 1.78318 	 -103.163
| 32> C 	 -105.132 	 2.5019 	 -105.074
| 33> H 	 -106.042 	 1.91592 	 -105.055
| 34> H 	 -104.757 	 2.43435 	 -106.099
| 35> C 	 -105.426 	 4.02959 	 -104.767
| 36> H 	 -106.197 	 4.45317 	 -105.432
| 37> H 	 -104.55 	 4.54571 	 -104.984
| 38> H 	 -105.593 	 4.24876 	 -103.703
| 39> H 	 -97.922 	 3.04179 	 -105.264
| 40> H 	 -103.811 	 -2.79431 	 -105.241
| 41> *
| 42>
| 43>                          ****END OF INPUT****

CARTESIAN COORDINATES (ANGSTROEM)
---------------------------------
  S    -99.311700    0.955319  -105.049000
  C    -98.875200    2.612510  -105.480000
  C    -99.975000    3.323140  -106.044000
  C    -101.167000    2.529490  -105.964000
  C    -101.036000    1.323550  -105.317000
  H    -102.096000    2.884030  -106.396000
  C    -100.085000    4.804430  -106.447000
  H    -100.864000    4.873360  -107.233000
  H    -99.163300    5.159490  -106.915000
  C    -100.460000    5.772550  -105.267000
  H    -101.144000    6.623280  -105.475000
  H    -101.265000    5.212450  -104.694000
  C    -99.280900    6.044070  -104.374000
  H    -98.666700    6.815030  -104.853000
  H    -99.544300    6.320560  -103.402000
  H    -98.648500    5.209520  -104.198000
  S    -101.812000   -1.288810  -105.398000
  C    -103.451000   -1.764360  -105.110000
  C    -104.192000   -0.698154  -104.764000
  C    -103.483000    0.535965  -104.725000
  C    -102.124000    0.375475  -105.069000
  H    -105.247000   -0.743097  -104.597000
  C    -104.077000    1.887840  -104.206000
  H    -103.186000    2.538930  -104.151000
  H    -104.284000    1.783180  -103.163000
  C    -105.132000    2.501900  -105.074000
  H    -106.042000    1.915920  -105.055000
  H    -104.757000    2.434350  -106.099000
  C    -105.426000    4.029590  -104.767000
  H    -106.197000    4.453170  -105.432000
  H    -104.550000    4.545710  -104.984000
  H    -105.593000    4.248760  -103.703000
  H    -97.922000    3.041790  -105.264000
  H    -103.811000   -2.794310  -105.241000

 Total Charge           Charge          ....    0
 Multiplicity           Mult            ....    1
 Number of Electrons    NEL             ....  134
 Basis Dimension        Dim             ....  322

ORBITAL ENERGIES
----------------

  NO   OCC          E(Eh)            E(eV)
   0   2.0000     -88.971002     -2421.0241
   1   2.0000     -88.962646     -2420.7967
   2   2.0000     -10.335204      -281.2352
   3   2.0000     -10.328690      -281.0580
   4   2.0000     -10.322207      -280.8815
   5   2.0000     -10.315124      -280.6888
   6   2.0000     -10.310017      -280.5498
   7   2.0000     -10.305485      -280.4265
   8   2.0000     -10.302749      -280.3521
   9   2.0000     -10.295711      -280.1605
  10   2.0000     -10.294977      -280.1406
  11   2.0000     -10.289845      -280.0009
  12   2.0000     -10.289004      -279.9780
  13   2.0000     -10.288897      -279.9751
  14   2.0000     -10.280105      -279.7359
  15   2.0000     -10.271136      -279.4918
  16   2.0000      -8.084781      -219.9981
  17   2.0000      -8.078586      -219.8295
  18   2.0000      -6.043465      -164.4510
  19   2.0000      -6.039544      -164.3444
  20   2.0000      -6.037061      -164.2768
  21   2.0000      -6.035297      -164.2288
  22   2.0000      -6.032826      -164.1615
  23   2.0000      -6.029417      -164.0688
  24   2.0000      -1.008551       -27.4441
  25   2.0000      -0.982940       -26.7472
  26   2.0000      -0.908911       -24.7327
  27   2.0000      -0.907316       -24.6893
  28   2.0000      -0.870477       -23.6869
  29   2.0000      -0.852109       -23.1871
  30   2.0000      -0.844618       -22.9832
  31   2.0000      -0.814424       -22.1616
  32   2.0000      -0.784151       -21.3378
  33   2.0000      -0.774747       -21.0819
  34   2.0000      -0.709570       -19.3084
  35   2.0000      -0.702943       -19.1280
  36   2.0000      -0.699271       -19.0281
  37   2.0000      -0.660350       -17.9690
  38   2.0000      -0.639212       -17.3939
  39   2.0000      -0.624840       -17.0027
  40   2.0000      -0.597989       -16.2721
  41   2.0000      -0.566068       -15.4035
  42   2.0000      -0.563141       -15.3238
  43   2.0000      -0.551627       -15.0105
  44   2.0000      -0.539067       -14.6688
  45   2.0000      -0.529855       -14.4181
  46   2.0000      -0.517970       -14.0947
  47   2.0000      -0.509711       -13.8700
  48   2.0000      -0.506334       -13.7781
  49   2.0000      -0.496380       -13.5072
  50   2.0000      -0.490152       -13.3377
  51   2.0000      -0.485710       -13.2168
  52   2.0000      -0.470462       -12.8019
  53   2.0000      -0.467292       -12.7156
  54   2.0000      -0.460324       -12.5260
  55   2.0000      -0.452686       -12.3182
  56   2.0000      -0.450545       -12.2600
  57   2.0000      -0.442784       -12.0488
  58   2.0000      -0.434390       -11.8203
  59   2.0000      -0.429873       -11.6974
  60   2.0000      -0.418138       -11.3781
  61   2.0000      -0.412774       -11.2321
  62   2.0000      -0.403306       -10.9745
  63   2.0000      -0.356972        -9.7137
  64   2.0000      -0.334842        -9.1115
  65   2.0000      -0.329132        -8.9561
  66   2.0000      -0.286876        -7.8063
  67   0.0000       0.022966         0.6249
  68   0.0000       0.070923         1.9299
  69   0.0000       0.101592         2.7645
  70   0.0000       0.119554         3.2532
  71   0.0000       0.121212         3.2983

MULLIKEN ATOMIC CHARGES
-----------------------
   0 S :    0.108407
   1 C :   -0.119798
   2 C :   -0.078435
   3 C :    0.007765
   4 C :   -0.118484
   5 H :    0.011447
   6 C :    0.047515
   7 H :    0.030034
   8 H :    0.028784
   9 C :   -0.089164
  10 H :    0.035212
  11 H :    0.018977
  12 C :    0.002390
  13 H :    0.032735
  14 H :    0.018116
  15 H :    0.010864
  16 S :    0.092679
  17 C :   -0.091063
  18 C :   -0.006923
  19 C :   -0.080172
  20 C :   -0.141087
  21 H :    0.008108
  22 C :    0.072640
  23 H :    0.012991
  24 H :    0.029093
  25 C :   -0.074002
  26 H :    0.030237
  27 H :    0.029530
  28 C :   -0.028363
  29 H :    0.042837
  30 H :    0.006188
  31 H :    0.034710
  32 H :    0.049247
  33 H :    0.066982
Sum of atomic charges:    0.0000000

LOEWDIN ATOMIC CHARGES
----------------------
   0 S :    0.385287
   1 C :   -0.187800
   2 C :   -0.056772
   3 C :   -0.059608
   4 C :   -0.181628
   5 H :    0.030397
   6 C :   -0.029967
   7 H :    0.033823
   8 H :    0.027197
   9 C :   -0.052695
  10 H :    0.030033
  11 H :    0.026290
  12 C :   -0.059658
  13 H :    0.028501
  14 H :    0.021225
  15 H :    0.021917
  16 S :    0.418084
  17 C :   -0.190625
  18 C :   -0.073328
  19 C :   -0.056924
  20 C :   -0.202315
  21 H :    0.029183
  22 C :   -0.033579
  23 H :    0.030777
  24 H :    0.027420
  25 C :   -0.039653
  26 H :    0.019973
  27 H :    0.025932
  28 C :   -0.061885
  29 H :    0.031168
  30 H :    0.013457
  31 H :    0.027780
  32 H :    0.021013
  33 H :    0.036981

  Mayer bond orders larger than 0.100000
B(  0-S ,  1-C ) :   1.1380 B(  0-S ,  4-C ) :   1.1321 B(  1-C ,  2-C ) :   1.5965
B(  1-C , 32-H ) :   0.9697 B(  2-C ,  3-C ) :   1.2408 B(  2-C ,  6-C ) :   1.0378
B(  3-C ,  4-C ) :   1.5685 B(  3-C ,  5-H ) :   0.9916 B(  4-C , 20-C ) :   1.0491
B(  6-C ,  7-H ) :   0.9401 B(  6-C ,  8-H ) :   0.9476 B(  6-C ,  9-C ) :   1.0461
B(  9-C , 10-H ) :   0.9578 B(  9-C , 11-H ) :   0.9531 B(  9-C , 12-C ) :   1.0733
B( 12-C , 13-H ) :   0.9745 B( 12-C , 14-H ) :   0.9688 B( 12-C , 15-H ) :   0.9711
B( 16-S , 17-C ) :   1.1561 B( 16-S , 20-C ) :   1.1575 B( 17-C , 18-C ) :   1.5887
B( 17-C , 33-H ) :   0.9680 B( 18-C , 19-C ) :   1.2668 B( 18-C , 21-H ) :   0.9972
B( 19-C , 20-C ) :   1.5745 B( 19-C , 22-C ) :   1.0256 B( 22-C , 23-H ) :   0.9373
B( 22-C , 24-H ) :   0.9363 B( 22-C , 25-C ) :   1.0494 B( 25-C , 26-H ) :   0.9585
B( 25-C , 27-H ) :   0.9547 B( 25-C , 28-C ) :   1.0769 B( 28-C , 29-H ) :   0.9760
B( 28-C , 30-H ) :   0.9741 B( 28-C , 31-H ) :   0.9762

Dispersion correction           -0.014861196
FINAL SINGLE POINT ENERGY     -1339.876359566355

DIPOLE MOMENT
-------------
                                X             Y             Z
Electronic contribution:     11.31251     -29.44828      -2.30871
Nuclear contribution   :    -11.74004      30.02857       2.33699
                        -----------------------------------------
Total Dipole Moment    :     -0.42753       0.58029       0.02828
                        -----------------------------------------
Magnitude (a.u.)       :      0.72133
Magnitude (Debye)      :      1.83347

Rotational constants in cm-1:     0.017412     0.009911     0.006695
Rotational constants in MHz :   522.012093   297.132129   200.700171

                             ****ORCA TERMINATED NORMALLY****
TOTAL RUN TIME: 0 days 0 hours 0 minutes 22 seconds 333 msec
