                         Program Version 4.2.1 -  RELEASE  -
|  1> ! wB97X-D3 SP def2-SVP
|  2> %pal
|  3> nprocs 24
|  4> end
|  5>
|  6> * xyz 0 1
|  7> S 	 -77.5902 	 5.53976 	 -107.453
|  8> C 	 -79.2462 	 5.56285 	 -107.134
|  9> C 	 -79.8856 	 6.68573 	 -107.67
| 10> C 	 -78.9852 	 7.44428 	 -108.529
| 11> C 	 -77.6652 	 6.99088 	 -108.439
| 12> H 	 -79.3287 	 8.34035 	 -108.997
| 13> C 	 -81.3105 	 7.1126 	 -107.415
| 14> H 	 -81.4005 	 8.198 	 -107.24
| 15> H 	 -81.6118 	 6.72095 	 -106.48
| 16> C 	 -82.3499 	 6.68204 	 -108.506
| 17> H 	 -83.2877 	 7.17023 	 -108.161
| 18> H 	 -81.9787 	 7.11086 	 -109.388
| 19> C 	 -82.4623 	 5.1654 	 -108.629
| 20> H 	 -82.7187 	 4.75514 	 -107.65
| 21> H 	 -83.4058 	 4.92715 	 -109.216
| 22> H 	 -81.5257 	 4.76725 	 -109.203
| 23> S 	 -75.429 	 6.83073 	 -110.155
| 24> C 	 -74.5987 	 8.34424 	 -110.46
| 25> C 	 -75.0397 	 9.40142 	 -109.638
| 26> C 	 -76.0859 	 8.97176 	 -108.735
| 27> C 	 -76.4709 	 7.68678 	 -108.956
| 28> H 	 -74.6556 	 10.4111 	 -109.746
| 29> C 	 -76.9369 	 10.0407 	 -108.08
| 30> H 	 -76.3077 	 10.3787 	 -107.32
| 31> H 	 -77.7426 	 9.60151 	 -107.438
| 32> C 	 -77.4485 	 11.1931 	 -108.963
| 33> H 	 -78.3252 	 10.9093 	 -109.472
| 34> H 	 -76.728 	 11.4583 	 -109.732
| 35> C 	 -77.6962 	 12.4362 	 -108.129
| 36> H 	 -78.1855 	 13.2094 	 -108.681
| 37> H 	 -76.812 	 13.0602 	 -107.938
| 38> H 	 -78.2242 	 12.296 	 -107.175
| 39> H 	 -79.5738 	 4.7829 	 -106.372
| 40> H 	 -73.8831 	 8.61292 	 -111.277
| 41> *
| 42>
| 43>                          ****END OF INPUT****

CARTESIAN COORDINATES (ANGSTROEM)
---------------------------------
  S    -77.590200    5.539760  -107.453000
  C    -79.246200    5.562850  -107.134000
  C    -79.885600    6.685730  -107.670000
  C    -78.985200    7.444280  -108.529000
  C    -77.665200    6.990880  -108.439000
  H    -79.328700    8.340350  -108.997000
  C    -81.310500    7.112600  -107.415000
  H    -81.400500    8.198000  -107.240000
  H    -81.611800    6.720950  -106.480000
  C    -82.349900    6.682040  -108.506000
  H    -83.287700    7.170230  -108.161000
  H    -81.978700    7.110860  -109.388000
  C    -82.462300    5.165400  -108.629000
  H    -82.718700    4.755140  -107.650000
  H    -83.405800    4.927150  -109.216000
  H    -81.525700    4.767250  -109.203000
  S    -75.429000    6.830730  -110.155000
  C    -74.598700    8.344240  -110.460000
  C    -75.039700    9.401420  -109.638000
  C    -76.085900    8.971760  -108.735000
  C    -76.470900    7.686780  -108.956000
  H    -74.655600   10.411100  -109.746000
  C    -76.936900   10.040700  -108.080000
  H    -76.307700   10.378700  -107.320000
  H    -77.742600    9.601510  -107.438000
  C    -77.448500   11.193100  -108.963000
  H    -78.325200   10.909300  -109.472000
  H    -76.728000   11.458300  -109.732000
  C    -77.696200   12.436200  -108.129000
  H    -78.185500   13.209400  -108.681000
  H    -76.812000   13.060200  -107.938000
  H    -78.224200   12.296000  -107.175000
  H    -79.573800    4.782900  -106.372000
  H    -73.883100    8.612920  -111.277000

 Total Charge           Charge          ....    0
 Multiplicity           Mult            ....    1
 Number of Electrons    NEL             ....  134
 Basis Dimension        Dim             ....  322

ORBITAL ENERGIES
----------------

  NO   OCC          E(Eh)            E(eV)
   0   2.0000     -88.967327     -2420.9240
   1   2.0000     -88.964023     -2420.8342
   2   2.0000     -10.330136      -281.0973
   3   2.0000     -10.326598      -281.0010
   4   2.0000     -10.323816      -280.9253
   5   2.0000     -10.316495      -280.7261
   6   2.0000     -10.303424      -280.3704
   7   2.0000     -10.301069      -280.3063
   8   2.0000     -10.297132      -280.1992
   9   2.0000     -10.296930      -280.1937
  10   2.0000     -10.287615      -279.9402
  11   2.0000     -10.287276      -279.9310
  12   2.0000     -10.287042      -279.9246
  13   2.0000     -10.286559      -279.9115
  14   2.0000     -10.284508      -279.8557
  15   2.0000     -10.277325      -279.6602
  16   2.0000      -8.081113      -219.8983
  17   2.0000      -8.080073      -219.8700
  18   2.0000      -6.039755      -164.3501
  19   2.0000      -6.038402      -164.3133
  20   2.0000      -6.035849      -164.2438
  21   2.0000      -6.034266      -164.2007
  22   2.0000      -6.031690      -164.1306
  23   2.0000      -6.031079      -164.1140
  24   2.0000      -1.002617       -27.2826
  25   2.0000      -0.980662       -26.6852
  26   2.0000      -0.911097       -24.7922
  27   2.0000      -0.908358       -24.7177
  28   2.0000      -0.864923       -23.5357
  29   2.0000      -0.851704       -23.1760
  30   2.0000      -0.846044       -23.0220
  31   2.0000      -0.807478       -21.9726
  32   2.0000      -0.782545       -21.2941
  33   2.0000      -0.768874       -20.9221
  34   2.0000      -0.713231       -19.4080
  35   2.0000      -0.697890       -18.9906
  36   2.0000      -0.684906       -18.6373
  37   2.0000      -0.659985       -17.9591
  38   2.0000      -0.642563       -17.4850
  39   2.0000      -0.622369       -16.9355
  40   2.0000      -0.594941       -16.1892
  41   2.0000      -0.566946       -15.4274
  42   2.0000      -0.557685       -15.1754
  43   2.0000      -0.544747       -14.8233
  44   2.0000      -0.534867       -14.5545
  45   2.0000      -0.528067       -14.3694
  46   2.0000      -0.518810       -14.1175
  47   2.0000      -0.512401       -13.9431
  48   2.0000      -0.502620       -13.6770
  49   2.0000      -0.490342       -13.3429
  50   2.0000      -0.486785       -13.2461
  51   2.0000      -0.479640       -13.0517
  52   2.0000      -0.464404       -12.6371
  53   2.0000      -0.461549       -12.5594
  54   2.0000      -0.456389       -12.4190
  55   2.0000      -0.455267       -12.3885
  56   2.0000      -0.444143       -12.0857
  57   2.0000      -0.437383       -11.9018
  58   2.0000      -0.427866       -11.6428
  59   2.0000      -0.427218       -11.6252
  60   2.0000      -0.419824       -11.4240
  61   2.0000      -0.418427       -11.3860
  62   2.0000      -0.413276       -11.2458
  63   2.0000      -0.340691        -9.2707
  64   2.0000      -0.330948        -9.0056
  65   2.0000      -0.324981        -8.8432
  66   2.0000      -0.294643        -8.0176
  67   0.0000       0.038990         1.0610
  68   0.0000       0.061254         1.6668
  69   0.0000       0.111328         3.0294
  70   0.0000       0.111934         3.0459
  71   0.0000       0.130063         3.5392

MULLIKEN ATOMIC CHARGES
-----------------------
   0 S :    0.119862
   1 C :   -0.148460
   2 C :   -0.124199
   3 C :    0.054920
   4 C :   -0.153246
   5 H :    0.004910
   6 C :    0.060612
   7 H :    0.026907
   8 H :    0.000314
   9 C :   -0.049401
  10 H :    0.034180
  11 H :    0.016679
  12 C :   -0.082894
  13 H :    0.026388
  14 H :    0.038910
  15 H :    0.075396
  16 S :    0.110462
  17 C :   -0.097335
  18 C :   -0.076580
  19 C :    0.009540
  20 C :   -0.174706
  21 H :    0.029087
  22 C :    0.049364
  23 H :    0.008045
  24 H :    0.035466
  25 C :   -0.005245
  26 H :    0.021913
  27 H :    0.022714
  28 C :   -0.066288
  29 H :    0.014596
  30 H :    0.023923
  31 H :    0.041619
  32 H :    0.080904
  33 H :    0.071640
Sum of atomic charges:    0.0000000

LOEWDIN ATOMIC CHARGES
----------------------
   0 S :    0.431844
   1 C :   -0.227030
   2 C :   -0.068306
   3 C :   -0.052787
   4 C :   -0.198092
   5 H :    0.026580
   6 C :   -0.034895
   7 H :    0.031773
   8 H :    0.019315
   9 C :   -0.035374
  10 H :    0.026970
  11 H :    0.013851
  12 C :   -0.078795
  13 H :    0.022537
  14 H :    0.032075
  15 H :    0.046494
  16 S :    0.379155
  17 C :   -0.190417
  18 C :   -0.070959
  19 C :   -0.052726
  20 C :   -0.185383
  21 H :    0.030887
  22 C :   -0.033913
  23 H :    0.025061
  24 H :    0.037038
  25 C :   -0.028623
  26 H :    0.018529
  27 H :    0.026792
  28 C :   -0.073268
  29 H :    0.023353
  30 H :    0.028821
  31 H :    0.027425
  32 H :    0.041085
  33 H :    0.040982

  Mayer bond orders larger than 0.100000
B(  0-S ,  1-C ) :   1.1718 B(  0-S ,  4-C ) :   1.1736 B(  1-C ,  2-C ) :   1.5718
B(  1-C , 32-H ) :   0.9594 B(  2-C ,  3-C ) :   1.2595 B(  2-C ,  6-C ) :   1.0323
B(  3-C ,  4-C ) :   1.5453 B(  3-C ,  5-H ) :   0.9977 B(  4-C , 20-C ) :   1.0174
B(  6-C ,  7-H ) :   0.9425 B(  6-C ,  8-H ) :   0.9387 B(  6-C ,  9-C ) :   1.0612
B(  9-C , 10-H ) :   0.9560 B(  9-C , 11-H ) :   0.9589 B(  9-C , 12-C ) :   1.0807
B( 12-C , 13-H ) :   0.9737 B( 12-C , 14-H ) :   0.9724 B( 12-C , 15-H ) :   0.9678
B( 16-S , 17-C ) :   1.1424 B( 16-S , 20-C ) :   1.1110 B( 17-C , 18-C ) :   1.6521
B( 17-C , 33-H ) :   0.9584 B( 18-C , 19-C ) :   1.1887 B( 18-C , 21-H ) :   0.9838
B( 19-C , 20-C ) :   1.6520 B( 19-C , 22-C ) :   1.0508 B( 22-C , 23-H ) :   0.9235
B( 22-C , 24-H ) :   0.9307 B( 22-C , 25-C ) :   1.0524 B( 25-C , 26-H ) :   0.9563
B( 25-C , 27-H ) :   0.9504 B( 25-C , 28-C ) :   1.0845 B( 28-C , 29-H ) :   0.9674
B( 28-C , 30-H ) :   0.9704 B( 28-C , 31-H ) :   0.9773

Dispersion correction           -0.014548420
FINAL SINGLE POINT ENERGY     -1339.864597860910

DIPOLE MOMENT
-------------
                                X             Y             Z
Electronic contribution:     21.54831     -16.88038      -2.78879
Nuclear contribution   :    -22.01755      17.60185       2.87386
                        -----------------------------------------
Total Dipole Moment    :     -0.46924       0.72147       0.08507
                        -----------------------------------------
Magnitude (a.u.)       :      0.86484
Magnitude (Debye)      :      2.19825

Rotational constants in cm-1:     0.017993     0.008715     0.006643
Rotational constants in MHz :   539.408158   261.267078   199.158268

                             ****ORCA TERMINATED NORMALLY****
TOTAL RUN TIME: 0 days 0 hours 0 minutes 21 seconds 610 msec
