                         Program Version 4.2.1 -  RELEASE  -
|  1> ! wB97X-D3 SP def2-SVP
|  2> %pal
|  3> nprocs 24
|  4> end
|  5>
|  6> * xyz 0 1
|  7> S 	 -112.607 	 61.9282 	 -73.1889
|  8> C 	 -111.698 	 62.4698 	 -71.7217
|  9> C 	 -112.478 	 63.1181 	 -70.7962
| 10> C 	 -113.814 	 63.0074 	 -71.1879
| 11> C 	 -114.016 	 62.4839 	 -72.4827
| 12> H 	 -114.7 	 63.3813 	 -70.6622
| 13> C 	 -111.963 	 63.7846 	 -69.5208
| 14> H 	 -111.525 	 62.9881 	 -68.8785
| 15> H 	 -112.927 	 64.131 	 -69.0753
| 16> C 	 -110.938 	 64.8973 	 -69.6939
| 17> H 	 -110.433 	 65.0688 	 -68.7097
| 18> H 	 -110.077 	 64.5873 	 -70.282
| 19> C 	 -111.467 	 66.1658 	 -70.4029
| 20> H 	 -110.641 	 66.8692 	 -70.5954
| 21> H 	 -111.838 	 65.8732 	 -71.3557
| 22> H 	 -112.223 	 66.6726 	 -69.8459
| 23> S 	 -116.72 	 62.1227 	 -72.0926
| 24> C 	 -117.838 	 62.2216 	 -73.4835
| 25> C 	 -117.144 	 62.2425 	 -74.7028
| 26> C 	 -115.771 	 62.3403 	 -74.4694
| 27> C 	 -115.311 	 62.3046 	 -73.1269
| 28> H 	 -117.58 	 62.2139 	 -75.6756
| 29> C 	 -114.944 	 62.5266 	 -75.7122
| 30> H 	 -114.052 	 63.151 	 -75.4954
| 31> H 	 -115.544 	 63.1269 	 -76.3994
| 32> C 	 -114.543 	 61.3254 	 -76.5807
| 33> H 	 -113.824 	 60.7581 	 -76.0013
| 34> H 	 -113.947 	 61.7131 	 -77.4238
| 35> C 	 -115.679 	 60.4575 	 -77.0723
| 36> H 	 -116.27 	 61.0331 	 -77.766
| 37> H 	 -116.239 	 59.9901 	 -76.289
| 38> H 	 -115.219 	 59.5167 	 -77.4619
| 39> H 	 -110.645 	 62.234 	 -71.6144
| 40> H 	 -118.957 	 62.1835 	 -73.4109
| 41> *
| 42>
| 43>                          ****END OF INPUT****

CARTESIAN COORDINATES (ANGSTROEM)
---------------------------------
  S    -112.607000   61.928200  -73.188900
  C    -111.698000   62.469800  -71.721700
  C    -112.478000   63.118100  -70.796200
  C    -113.814000   63.007400  -71.187900
  C    -114.016000   62.483900  -72.482700
  H    -114.700000   63.381300  -70.662200
  C    -111.963000   63.784600  -69.520800
  H    -111.525000   62.988100  -68.878500
  H    -112.927000   64.131000  -69.075300
  C    -110.938000   64.897300  -69.693900
  H    -110.433000   65.068800  -68.709700
  H    -110.077000   64.587300  -70.282000
  C    -111.467000   66.165800  -70.402900
  H    -110.641000   66.869200  -70.595400
  H    -111.838000   65.873200  -71.355700
  H    -112.223000   66.672600  -69.845900
  S    -116.720000   62.122700  -72.092600
  C    -117.838000   62.221600  -73.483500
  C    -117.144000   62.242500  -74.702800
  C    -115.771000   62.340300  -74.469400
  C    -115.311000   62.304600  -73.126900
  H    -117.580000   62.213900  -75.675600
  C    -114.944000   62.526600  -75.712200
  H    -114.052000   63.151000  -75.495400
  H    -115.544000   63.126900  -76.399400
  C    -114.543000   61.325400  -76.580700
  H    -113.824000   60.758100  -76.001300
  H    -113.947000   61.713100  -77.423800
  C    -115.679000   60.457500  -77.072300
  H    -116.270000   61.033100  -77.766000
  H    -116.239000   59.990100  -76.289000
  H    -115.219000   59.516700  -77.461900
  H    -110.645000   62.234000  -71.614400
  H    -118.957000   62.183500  -73.410900

 Total Charge           Charge          ....    0
 Multiplicity           Mult            ....    1
 Number of Electrons    NEL             ....  134
 Basis Dimension        Dim             ....  322

ORBITAL ENERGIES
----------------

  NO   OCC          E(Eh)            E(eV)
   0   2.0000     -88.971002     -2421.0241
   1   2.0000     -88.968194     -2420.9476
   2   2.0000     -10.331087      -281.1232
   3   2.0000     -10.328816      -281.0614
   4   2.0000     -10.326235      -280.9911
   5   2.0000     -10.313934      -280.6564
   6   2.0000     -10.301567      -280.3199
   7   2.0000     -10.301418      -280.3158
   8   2.0000     -10.299819      -280.2723
   9   2.0000     -10.292934      -280.0850
  10   2.0000     -10.292899      -280.0840
  11   2.0000     -10.291329      -280.0413
  12   2.0000     -10.285434      -279.8809
  13   2.0000     -10.282025      -279.7881
  14   2.0000     -10.275441      -279.6090
  15   2.0000     -10.273328      -279.5515
  16   2.0000      -8.085918      -220.0290
  17   2.0000      -8.081790      -219.9167
  18   2.0000      -6.044183      -164.4706
  19   2.0000      -6.040463      -164.3693
  20   2.0000      -6.040429      -164.3684
  21   2.0000      -6.036874      -164.2717
  22   2.0000      -6.036390      -164.2585
  23   2.0000      -6.032568      -164.1545
  24   2.0000      -1.009530       -27.4707
  25   2.0000      -0.983157       -26.7531
  26   2.0000      -0.914736       -24.8912
  27   2.0000      -0.908889       -24.7321
  28   2.0000      -0.868707       -23.6387
  29   2.0000      -0.856161       -23.2973
  30   2.0000      -0.841599       -22.9011
  31   2.0000      -0.807544       -21.9744
  32   2.0000      -0.788778       -21.4637
  33   2.0000      -0.771987       -21.0068
  34   2.0000      -0.708532       -19.2801
  35   2.0000      -0.705336       -19.1932
  36   2.0000      -0.683523       -18.5996
  37   2.0000      -0.669638       -18.2218
  38   2.0000      -0.635780       -17.3004
  39   2.0000      -0.607796       -16.5390
  40   2.0000      -0.590567       -16.0702
  41   2.0000      -0.571206       -15.5433
  42   2.0000      -0.560572       -15.2540
  43   2.0000      -0.553702       -15.0670
  44   2.0000      -0.540268       -14.7014
  45   2.0000      -0.537344       -14.6219
  46   2.0000      -0.520300       -14.1581
  47   2.0000      -0.516268       -14.0484
  48   2.0000      -0.501071       -13.6348
  49   2.0000      -0.491341       -13.3701
  50   2.0000      -0.489903       -13.3309
  51   2.0000      -0.479841       -13.0571
  52   2.0000      -0.472548       -12.8587
  53   2.0000      -0.466741       -12.7007
  54   2.0000      -0.462482       -12.5848
  55   2.0000      -0.446387       -12.1468
  56   2.0000      -0.441990       -12.0272
  57   2.0000      -0.435934       -11.8624
  58   2.0000      -0.431522       -11.7423
  59   2.0000      -0.425621       -11.5817
  60   2.0000      -0.417389       -11.3577
  61   2.0000      -0.414114       -11.2686
  62   2.0000      -0.410146       -11.1606
  63   2.0000      -0.353838        -9.6284
  64   2.0000      -0.338491        -9.2108
  65   2.0000      -0.330186        -8.9848
  66   2.0000      -0.277184        -7.5426
  67   0.0000       0.018264         0.4970
  68   0.0000       0.078314         2.1310
  69   0.0000       0.097170         2.6441
  70   0.0000       0.114903         3.1267
  71   0.0000       0.126755         3.4492

MULLIKEN ATOMIC CHARGES
-----------------------
   0 S :    0.115385
   1 C :   -0.153433
   2 C :   -0.060367
   3 C :   -0.030258
   4 C :   -0.128386
   5 H :    0.017911
   6 C :    0.073745
   7 H :    0.049867
   8 H :    0.028475
   9 C :   -0.078527
  10 H :    0.029956
  11 H :    0.022126
  12 C :   -0.032018
  13 H :    0.034242
  14 H :    0.036294
  15 H :    0.028834
  16 S :    0.090554
  17 C :   -0.112101
  18 C :   -0.009596
  19 C :   -0.055005
  20 C :   -0.106560
  21 H :    0.015534
  22 C :    0.007664
  23 H :    0.028909
  24 H :    0.011387
  25 C :   -0.046532
  26 H :    0.011129
  27 H :    0.031207
  28 C :   -0.043550
  29 H :    0.035419
  30 H :    0.034419
  31 H :    0.033361
  32 H :    0.045277
  33 H :    0.074641
Sum of atomic charges:    0.0000000

LOEWDIN ATOMIC CHARGES
----------------------
   0 S :    0.433113
   1 C :   -0.182848
   2 C :   -0.063546
   3 C :   -0.080327
   4 C :   -0.214214
   5 H :    0.025643
   6 C :   -0.030166
   7 H :    0.041705
   8 H :    0.035039
   9 C :   -0.045834
  10 H :    0.028171
  11 H :    0.023528
  12 C :   -0.057778
  13 H :    0.030284
  14 H :    0.025058
  15 H :    0.019822
  16 S :    0.400422
  17 C :   -0.180429
  18 C :   -0.064262
  19 C :   -0.065885
  20 C :   -0.195723
  21 H :    0.031280
  22 C :   -0.045687
  23 H :    0.027438
  24 H :    0.026114
  25 C :   -0.039992
  26 H :    0.014540
  27 H :    0.028151
  28 C :   -0.069253
  29 H :    0.022596
  30 H :    0.025564
  31 H :    0.037454
  32 H :    0.021781
  33 H :    0.038243

  Mayer bond orders larger than 0.100000
B(  0-S ,  1-C ) :   1.1374 B(  0-S ,  4-C ) :   1.1827 B(  1-C ,  2-C ) :   1.5805
B(  1-C , 32-H ) :   0.9706 B(  2-C ,  3-C ) :   1.2797 B(  2-C ,  6-C ) :   0.9950
B(  3-C ,  4-C ) :   1.5185 B(  3-C ,  5-H ) :   0.9796 B(  4-C , 20-C ) :   1.0641
B(  6-C ,  7-H ) :   0.9354 B(  6-C ,  8-H ) :   0.9452 B(  6-C ,  9-C ) :   1.0759
B(  9-C , 10-H ) :   0.9541 B(  9-C , 11-H ) :   0.9549 B(  9-C , 12-C ) :   1.0688
B( 12-C , 13-H ) :   0.9740 B( 12-C , 14-H ) :   0.9755 B( 12-C , 15-H ) :   0.9785
B( 16-S , 17-C ) :   1.1629 B( 16-S , 20-C ) :   1.1310 B( 17-C , 18-C ) :   1.5570
B( 17-C , 20-C ) :   0.1038 B( 17-C , 33-H ) :   0.9605 B( 18-C , 19-C ) :   1.2891
B( 18-C , 21-H ) :   0.9909 B( 19-C , 20-C ) :   1.5349 B( 19-C , 22-C ) :   1.0428
B( 22-C , 23-H ) :   0.9335 B( 22-C , 24-H ) :   0.9348 B( 22-C , 25-C ) :   1.0749
B( 25-C , 26-H ) :   0.9506 B( 25-C , 27-H ) :   0.9522 B( 25-C , 28-C ) :   1.0929
B( 28-C , 29-H ) :   0.9744 B( 28-C , 30-H ) :   0.9645 B( 28-C , 31-H ) :   0.9661

Dispersion correction           -0.014461916
FINAL SINGLE POINT ENERGY     -1339.877906864604

DIPOLE MOMENT
-------------
                                X             Y             Z
Electronic contribution:     -8.68496      -7.54927       4.89694
Nuclear contribution   :      8.85695       7.69731      -4.97444
                        -----------------------------------------
Total Dipole Moment    :      0.17199       0.14803      -0.07751
                        -----------------------------------------
Magnitude (a.u.)       :      0.23980
Magnitude (Debye)      :      0.60951

Rotational constants in cm-1:     0.024533     0.007585     0.006450
Rotational constants in MHz :   735.488941   227.401672   193.355451

                             ****ORCA TERMINATED NORMALLY****
TOTAL RUN TIME: 0 days 0 hours 0 minutes 22 seconds 452 msec
