                         Program Version 4.2.1 -  RELEASE  -
|  1> ! wB97X-D3 SP def2-SVP
|  2> %pal
|  3> nprocs 24
|  4> end
|  5>
|  6> * xyz 0 1
|  7> S 	 -49.7709 	 10.7763 	 -21.8192
|  8> C 	 -48.9949 	 11.2448 	 -20.3462
|  9> C 	 -49.8242 	 12.146 	 -19.6481
| 10> C 	 -51.0526 	 12.4654 	 -20.3348
| 11> C 	 -51.141 	 11.7935 	 -21.5475
| 12> H 	 -51.9087 	 13.0048 	 -19.9601
| 13> C 	 -49.5076 	 12.6486 	 -18.1811
| 14> H 	 -48.6364 	 12.1729 	 -17.8376
| 15> H 	 -50.2245 	 12.2197 	 -17.5546
| 16> C 	 -49.5951 	 14.1036 	 -17.9255
| 17> H 	 -50.4089 	 14.6035 	 -18.4665
| 18> H 	 -49.8246 	 14.2239 	 -16.8531
| 19> C 	 -48.2089 	 14.8493 	 -18.2647
| 20> H 	 -48.4127 	 15.9247 	 -18.4051
| 21> H 	 -47.4321 	 14.6104 	 -17.5132
| 22> H 	 -47.8565 	 14.531 	 -19.2891
| 23> S 	 -52.947 	 10.2526 	 -23.083
| 24> C 	 -54.3109 	 10.9956 	 -23.8102
| 25> C 	 -54.3073 	 12.3787 	 -23.598
| 26> C 	 -53.1985 	 12.7302 	 -22.7929
| 27> C 	 -52.3173 	 11.7418 	 -22.398
| 28> H 	 -55.1237 	 12.9901 	 -23.9066
| 29> C 	 -52.8904 	 14.2283 	 -22.4818
| 30> H 	 -53.1477 	 14.5736 	 -21.4739
| 31> H 	 -53.6231 	 14.8193 	 -23.0475
| 32> C 	 -51.5098 	 14.7297 	 -22.9608
| 33> H 	 -51.404 	 14.5651 	 -24.0182
| 34> H 	 -50.6925 	 14.2224 	 -22.5176
| 35> C 	 -51.2884 	 16.2448 	 -22.7748
| 36> H 	 -52.2307 	 16.7125 	 -22.9894
| 37> H 	 -50.526 	 16.6865 	 -23.3629
| 38> H 	 -51.0543 	 16.481 	 -21.666
| 39> H 	 -48.1047 	 10.8173 	 -19.9239
| 40> H 	 -55.1434 	 10.4512 	 -24.2557
| 41> *
| 42>
| 43>                          ****END OF INPUT****

CARTESIAN COORDINATES (ANGSTROEM)
---------------------------------
  S    -49.770900   10.776300  -21.819200
  C    -48.994900   11.244800  -20.346200
  C    -49.824200   12.146000  -19.648100
  C    -51.052600   12.465400  -20.334800
  C    -51.141000   11.793500  -21.547500
  H    -51.908700   13.004800  -19.960100
  C    -49.507600   12.648600  -18.181100
  H    -48.636400   12.172900  -17.837600
  H    -50.224500   12.219700  -17.554600
  C    -49.595100   14.103600  -17.925500
  H    -50.408900   14.603500  -18.466500
  H    -49.824600   14.223900  -16.853100
  C    -48.208900   14.849300  -18.264700
  H    -48.412700   15.924700  -18.405100
  H    -47.432100   14.610400  -17.513200
  H    -47.856500   14.531000  -19.289100
  S    -52.947000   10.252600  -23.083000
  C    -54.310900   10.995600  -23.810200
  C    -54.307300   12.378700  -23.598000
  C    -53.198500   12.730200  -22.792900
  C    -52.317300   11.741800  -22.398000
  H    -55.123700   12.990100  -23.906600
  C    -52.890400   14.228300  -22.481800
  H    -53.147700   14.573600  -21.473900
  H    -53.623100   14.819300  -23.047500
  C    -51.509800   14.729700  -22.960800
  H    -51.404000   14.565100  -24.018200
  H    -50.692500   14.222400  -22.517600
  C    -51.288400   16.244800  -22.774800
  H    -52.230700   16.712500  -22.989400
  H    -50.526000   16.686500  -23.362900
  H    -51.054300   16.481000  -21.666000
  H    -48.104700   10.817300  -19.923900
  H    -55.143400   10.451200  -24.255700

 Total Charge           Charge          ....    0
 Multiplicity           Mult            ....    1
 Number of Electrons    NEL             ....  134
 Basis Dimension        Dim             ....  322

ORBITAL ENERGIES
----------------

  NO   OCC          E(Eh)            E(eV)
   0   2.0000     -88.969893     -2420.9939
   1   2.0000     -88.966998     -2420.9151
   2   2.0000     -10.332703      -281.1671
   3   2.0000     -10.327461      -281.0245
   4   2.0000     -10.320672      -280.8398
   5   2.0000     -10.315717      -280.7049
   6   2.0000     -10.310078      -280.5515
   7   2.0000     -10.304337      -280.3953
   8   2.0000     -10.297300      -280.2038
   9   2.0000     -10.295715      -280.1606
  10   2.0000     -10.292709      -280.0788
  11   2.0000     -10.290167      -280.0097
  12   2.0000     -10.285588      -279.8851
  13   2.0000     -10.284157      -279.8461
  14   2.0000     -10.274739      -279.5899
  15   2.0000     -10.274002      -279.5698
  16   2.0000      -8.084992      -220.0038
  17   2.0000      -8.082187      -219.9275
  18   2.0000      -6.043504      -164.4521
  19   2.0000      -6.040577      -164.3725
  20   2.0000      -6.039274      -164.3370
  21   2.0000      -6.036426      -164.2595
  22   2.0000      -6.035909      -164.2454
  23   2.0000      -6.033229      -164.1725
  24   2.0000      -1.011337       -27.5199
  25   2.0000      -0.988249       -26.8916
  26   2.0000      -0.910630       -24.7795
  27   2.0000      -0.902033       -24.5456
  28   2.0000      -0.870950       -23.6998
  29   2.0000      -0.849807       -23.1244
  30   2.0000      -0.840926       -22.8828
  31   2.0000      -0.813352       -22.1324
  32   2.0000      -0.781676       -21.2705
  33   2.0000      -0.770499       -20.9664
  34   2.0000      -0.710148       -19.3241
  35   2.0000      -0.697129       -18.9699
  36   2.0000      -0.688841       -18.7443
  37   2.0000      -0.664986       -18.0952
  38   2.0000      -0.644175       -17.5289
  39   2.0000      -0.622585       -16.9414
  40   2.0000      -0.595647       -16.2084
  41   2.0000      -0.574707       -15.6386
  42   2.0000      -0.557856       -15.1800
  43   2.0000      -0.546386       -14.8679
  44   2.0000      -0.536130       -14.5889
  45   2.0000      -0.522383       -14.2148
  46   2.0000      -0.520456       -14.1623
  47   2.0000      -0.515515       -14.0279
  48   2.0000      -0.511641       -13.9224
  49   2.0000      -0.497958       -13.5501
  50   2.0000      -0.488043       -13.2803
  51   2.0000      -0.481859       -13.1120
  52   2.0000      -0.469621       -12.7790
  53   2.0000      -0.467375       -12.7179
  54   2.0000      -0.458017       -12.4633
  55   2.0000      -0.448423       -12.2022
  56   2.0000      -0.444164       -12.0863
  57   2.0000      -0.439215       -11.9516
  58   2.0000      -0.432163       -11.7597
  59   2.0000      -0.418714       -11.3938
  60   2.0000      -0.413117       -11.2415
  61   2.0000      -0.411084       -11.1862
  62   2.0000      -0.407916       -11.1000
  63   2.0000      -0.354678        -9.6513
  64   2.0000      -0.334312        -9.0971
  65   2.0000      -0.331233        -9.0133
  66   2.0000      -0.289385        -7.8746
  67   0.0000       0.024607         0.6696
  68   0.0000       0.074077         2.0157
  69   0.0000       0.117117         3.1869
  70   0.0000       0.122449         3.3320
  71   0.0000       0.126353         3.4382

MULLIKEN ATOMIC CHARGES
-----------------------
   0 S :    0.118716
   1 C :   -0.110682
   2 C :   -0.109359
   3 C :    0.021572
   4 C :   -0.161424
   5 H :    0.020791
   6 C :    0.137061
   7 H :   -0.007446
   8 H :    0.014026
   9 C :   -0.086942
  10 H :    0.033485
  11 H :    0.030384
  12 C :   -0.090266
  13 H :    0.039541
  14 H :    0.047422
  15 H :    0.039858
  16 S :    0.112753
  17 C :   -0.104315
  18 C :   -0.018174
  19 C :   -0.047166
  20 C :   -0.118736
  21 H :    0.017613
  22 C :    0.039633
  23 H :    0.028470
  24 H :    0.001647
  25 C :   -0.052110
  26 H :    0.022846
  27 H :    0.039325
  28 C :   -0.051861
  29 H :    0.014414
  30 H :    0.033581
  31 H :    0.030996
  32 H :    0.046666
  33 H :    0.067682
Sum of atomic charges:   -0.0000000

LOEWDIN ATOMIC CHARGES
----------------------
   0 S :    0.428654
   1 C :   -0.213096
   2 C :   -0.050913
   3 C :   -0.062854
   4 C :   -0.194647
   5 H :    0.033595
   6 C :   -0.027265
   7 H :    0.021892
   8 H :    0.027914
   9 C :   -0.041222
  10 H :    0.025357
  11 H :    0.026849
  12 C :   -0.074346
  13 H :    0.026191
  14 H :    0.027100
  15 H :    0.029818
  16 S :    0.423926
  17 C :   -0.192244
  18 C :   -0.072922
  19 C :   -0.057872
  20 C :   -0.203820
  21 H :    0.031462
  22 C :   -0.035025
  23 H :    0.025151
  24 H :    0.026381
  25 C :   -0.038310
  26 H :    0.024081
  27 H :    0.018097
  28 C :   -0.062495
  29 H :    0.017311
  30 H :    0.020634
  31 H :    0.029619
  32 H :    0.028574
  33 H :    0.034426

  Mayer bond orders larger than 0.100000
B(  0-S ,  1-C ) :   1.1377 B(  0-S ,  4-C ) :   1.1675 B(  1-C ,  2-C ) :   1.5935
B(  1-C , 32-H ) :   0.9720 B(  2-C ,  3-C ) :   1.2482 B(  2-C ,  6-C ) :   1.0152
B(  3-C ,  4-C ) :   1.5431 B(  3-C ,  5-H ) :   0.9926 B(  4-C , 20-C ) :   1.0650
B(  6-C ,  7-H ) :   0.9389 B(  6-C ,  8-H ) :   0.9332 B(  6-C ,  9-C ) :   1.0697
B(  9-C , 10-H ) :   0.9590 B(  9-C , 11-H ) :   0.9559 B(  9-C , 12-C ) :   1.0628
B( 12-C , 13-H ) :   0.9782 B( 12-C , 14-H ) :   0.9776 B( 12-C , 15-H ) :   0.9793
B( 16-S , 17-C ) :   1.1966 B( 16-S , 20-C ) :   1.1306 B( 17-C , 18-C ) :   1.5478
B( 17-C , 33-H ) :   0.9646 B( 18-C , 19-C ) :   1.2961 B( 18-C , 21-H ) :   0.9968
B( 19-C , 20-C ) :   1.5663 B( 19-C , 22-C ) :   1.0261 B( 22-C , 23-H ) :   0.9394
B( 22-C , 24-H ) :   0.9330 B( 22-C , 25-C ) :   1.0577 B( 25-C , 26-H ) :   0.9543
B( 25-C , 27-H ) :   0.9549 B( 25-C , 28-C ) :   1.0843 B( 28-C , 29-H ) :   0.9746
B( 28-C , 30-H ) :   0.9765 B( 28-C , 31-H ) :   0.9752

Dispersion correction           -0.014804964
FINAL SINGLE POINT ENERGY     -1339.877688613518

DIPOLE MOMENT
-------------
                                X             Y             Z
Electronic contribution:     -7.11285     -27.34576     -12.74233
Nuclear contribution   :      6.86948      27.68129      13.12710
                        -----------------------------------------
Total Dipole Moment    :     -0.24337       0.33553       0.38477
                        -----------------------------------------
Magnitude (a.u.)       :      0.56556
Magnitude (Debye)      :      1.43753

Rotational constants in cm-1:     0.019492     0.009261     0.007135
Rotational constants in MHz :   584.352554   277.646299   213.908023

                             ****ORCA TERMINATED NORMALLY****
TOTAL RUN TIME: 0 days 0 hours 0 minutes 21 seconds 89 msec
