                         Program Version 4.2.1 -  RELEASE  -
|  1> ! wB97X-D3 SP def2-SVP
|  2> %pal
|  3> nprocs 24
|  4> end
|  5>
|  6> * xyz 0 1
|  7> S 	 -112.588 	 22.7555 	 -113.139
|  8> C 	 -114.149 	 22.622 	 -113.926
|  9> C 	 -115.056 	 23.4775 	 -113.363
| 10> C 	 -114.443 	 24.2307 	 -112.265
| 11> C 	 -113.108 	 24.1031 	 -112.134
| 12> H 	 -114.987 	 24.9597 	 -111.727
| 13> C 	 -116.511 	 23.7101 	 -113.713
| 14> H 	 -117.22 	 23.6994 	 -112.848
| 15> H 	 -116.912 	 22.8283 	 -114.263
| 16> C 	 -116.831 	 24.9855 	 -114.522
| 17> H 	 -116.544 	 25.902 	 -113.956
| 18> H 	 -116.215 	 24.8641 	 -115.433
| 19> C 	 -118.257 	 25.1342 	 -115.044
| 20> H 	 -118.347 	 24.4036 	 -115.839
| 21> H 	 -119.007 	 24.998 	 -114.256
| 22> H 	 -118.392 	 26.1322 	 -115.487
| 23> S 	 -110.625 	 25.1605 	 -111.6
| 24> C 	 -110.295 	 25.8175 	 -110.024
| 25> C 	 -111.311 	 25.5948 	 -109.23
| 26> C 	 -112.525 	 24.9615 	 -109.756
| 27> C 	 -112.292 	 24.6839 	 -111.104
| 28> H 	 -111.169 	 25.9964 	 -108.267
| 29> C 	 -113.831 	 24.9743 	 -109.04
| 30> H 	 -114.728 	 24.7731 	 -109.642
| 31> H 	 -114.015 	 26.0024 	 -108.825
| 32> C 	 -114.06 	 23.9758 	 -107.86
| 33> H 	 -115.036 	 24.1508 	 -107.333
| 34> H 	 -113.334 	 24.2385 	 -107.09
| 35> C 	 -113.954 	 22.5006 	 -108.171
| 36> H 	 -114.412 	 22.3598 	 -109.181
| 37> H 	 -114.652 	 21.8863 	 -107.522
| 38> H 	 -112.951 	 22.1449 	 -108.158
| 39> H 	 -114.285 	 21.8595 	 -114.693
| 40> H 	 -109.545 	 26.445 	 -109.734
| 41> *
| 42>
| 43>                          ****END OF INPUT****

CARTESIAN COORDINATES (ANGSTROEM)
---------------------------------
  S    -112.588000   22.755500  -113.139000
  C    -114.149000   22.622000  -113.926000
  C    -115.056000   23.477500  -113.363000
  C    -114.443000   24.230700  -112.265000
  C    -113.108000   24.103100  -112.134000
  H    -114.987000   24.959700  -111.727000
  C    -116.511000   23.710100  -113.713000
  H    -117.220000   23.699400  -112.848000
  H    -116.912000   22.828300  -114.263000
  C    -116.831000   24.985500  -114.522000
  H    -116.544000   25.902000  -113.956000
  H    -116.215000   24.864100  -115.433000
  C    -118.257000   25.134200  -115.044000
  H    -118.347000   24.403600  -115.839000
  H    -119.007000   24.998000  -114.256000
  H    -118.392000   26.132200  -115.487000
  S    -110.625000   25.160500  -111.600000
  C    -110.295000   25.817500  -110.024000
  C    -111.311000   25.594800  -109.230000
  C    -112.525000   24.961500  -109.756000
  C    -112.292000   24.683900  -111.104000
  H    -111.169000   25.996400  -108.267000
  C    -113.831000   24.974300  -109.040000
  H    -114.728000   24.773100  -109.642000
  H    -114.015000   26.002400  -108.825000
  C    -114.060000   23.975800  -107.860000
  H    -115.036000   24.150800  -107.333000
  H    -113.334000   24.238500  -107.090000
  C    -113.954000   22.500600  -108.171000
  H    -114.412000   22.359800  -109.181000
  H    -114.652000   21.886300  -107.522000
  H    -112.951000   22.144900  -108.158000
  H    -114.285000   21.859500  -114.693000
  H    -109.545000   26.445000  -109.734000

 Total Charge           Charge          ....    0
 Multiplicity           Mult            ....    1
 Number of Electrons    NEL             ....  134
 Basis Dimension        Dim             ....  322

ORBITAL ENERGIES
----------------

  NO   OCC          E(Eh)            E(eV)
   0   2.0000     -88.961537     -2420.7665
   1   2.0000     -88.960109     -2420.7276
   2   2.0000     -10.333089      -281.1776
   3   2.0000     -10.325620      -280.9744
   4   2.0000     -10.318239      -280.7736
   5   2.0000     -10.312036      -280.6048
   6   2.0000     -10.305869      -280.4370
   7   2.0000     -10.303959      -280.3850
   8   2.0000     -10.298650      -280.2405
   9   2.0000     -10.294305      -280.1223
  10   2.0000     -10.289248      -279.9847
  11   2.0000     -10.289227      -279.9841
  12   2.0000     -10.288893      -279.9750
  13   2.0000     -10.285568      -279.8845
  14   2.0000     -10.280759      -279.7537
  15   2.0000     -10.277609      -279.6679
  16   2.0000      -8.076596      -219.7754
  17   2.0000      -8.074756      -219.7253
  18   2.0000      -6.035281      -164.2284
  19   2.0000      -6.033417      -164.1776
  20   2.0000      -6.031104      -164.1147
  21   2.0000      -6.029358      -164.0672
  22   2.0000      -6.027073      -164.0050
  23   2.0000      -6.025260      -163.9556
  24   2.0000      -1.007870       -27.4255
  25   2.0000      -0.985619       -26.8200
  26   2.0000      -0.910606       -24.7789
  27   2.0000      -0.909106       -24.7380
  28   2.0000      -0.878728       -23.9114
  29   2.0000      -0.851122       -23.1602
  30   2.0000      -0.843307       -22.9475
  31   2.0000      -0.823137       -22.3987
  32   2.0000      -0.784960       -21.3599
  33   2.0000      -0.775258       -21.0958
  34   2.0000      -0.711648       -19.3649
  35   2.0000      -0.694513       -18.8987
  36   2.0000      -0.690618       -18.7927
  37   2.0000      -0.658429       -17.9168
  38   2.0000      -0.643878       -17.5208
  39   2.0000      -0.627255       -17.0685
  40   2.0000      -0.604892       -16.4599
  41   2.0000      -0.572758       -15.5855
  42   2.0000      -0.563708       -15.3393
  43   2.0000      -0.555282       -15.1100
  44   2.0000      -0.547726       -14.9044
  45   2.0000      -0.521339       -14.1864
  46   2.0000      -0.517341       -14.0776
  47   2.0000      -0.514708       -14.0059
  48   2.0000      -0.506704       -13.7881
  49   2.0000      -0.505465       -13.7544
  50   2.0000      -0.492947       -13.4138
  51   2.0000      -0.479314       -13.0428
  52   2.0000      -0.473929       -12.8963
  53   2.0000      -0.460445       -12.5293
  54   2.0000      -0.457498       -12.4491
  55   2.0000      -0.448376       -12.2009
  56   2.0000      -0.445322       -12.1178
  57   2.0000      -0.434830       -11.8323
  58   2.0000      -0.427241       -11.6258
  59   2.0000      -0.419758       -11.4222
  60   2.0000      -0.417472       -11.3600
  61   2.0000      -0.412967       -11.2374
  62   2.0000      -0.402909       -10.9637
  63   2.0000      -0.360391        -9.8067
  64   2.0000      -0.328478        -8.9383
  65   2.0000      -0.327057        -8.8997
  66   2.0000      -0.295893        -8.0517
  67   0.0000       0.030153         0.8205
  68   0.0000       0.074987         2.0405
  69   0.0000       0.107478         2.9246
  70   0.0000       0.117777         3.2049
  71   0.0000       0.134415         3.6576

MULLIKEN ATOMIC CHARGES
-----------------------
   0 S :    0.091017
   1 C :   -0.134888
   2 C :   -0.037817
   3 C :   -0.014884
   4 C :   -0.060003
   5 H :    0.002459
   6 C :    0.030827
   7 H :    0.025950
   8 H :    0.014589
   9 C :   -0.102747
  10 H :    0.038886
  11 H :    0.032742
  12 C :   -0.036146
  13 H :    0.029482
  14 H :    0.032141
  15 H :    0.041154
  16 S :    0.081486
  17 C :   -0.026589
  18 C :   -0.032147
  19 C :    0.020955
  20 C :   -0.185042
  21 H :   -0.003601
  22 C :    0.036836
  23 H :    0.020094
  24 H :    0.031426
  25 C :   -0.094157
  26 H :    0.032101
  27 H :    0.020745
  28 C :   -0.049119
  29 H :    0.031121
  30 H :    0.040264
  31 H :    0.046880
  32 H :    0.056050
  33 H :    0.019933
Sum of atomic charges:   -0.0000000

LOEWDIN ATOMIC CHARGES
----------------------
   0 S :    0.391313
   1 C :   -0.185068
   2 C :   -0.062287
   3 C :   -0.057419
   4 C :   -0.189810
   5 H :    0.019704
   6 C :   -0.044411
   7 H :    0.031000
   8 H :    0.030019
   9 C :   -0.046630
  10 H :    0.024393
  11 H :    0.028096
  12 C :   -0.064091
  13 H :    0.024327
  14 H :    0.022731
  15 H :    0.032049
  16 S :    0.371953
  17 C :   -0.169465
  18 C :   -0.064445
  19 C :   -0.048612
  20 C :   -0.167728
  21 H :    0.023291
  22 C :   -0.038397
  23 H :    0.032919
  24 H :    0.035254
  25 C :   -0.047445
  26 H :    0.029860
  27 H :    0.017247
  28 C :   -0.068930
  29 H :    0.031164
  30 H :    0.035443
  31 H :    0.024323
  32 H :    0.030749
  33 H :    0.018904

  Mayer bond orders larger than 0.100000
B(  0-S ,  1-C ) :   1.1300 B(  0-S ,  4-C ) :   1.1241 B(  1-C ,  2-C ) :   1.6238
B(  1-C , 32-H ) :   0.9719 B(  2-C ,  3-C ) :   1.2081 B(  2-C ,  6-C ) :   1.0339
B(  3-C ,  4-C ) :   1.6076 B(  3-C ,  5-H ) :   1.0028 B(  4-C , 20-C ) :   1.0514
B(  6-C ,  7-H ) :   0.9382 B(  6-C ,  8-H ) :   0.9415 B(  6-C ,  9-C ) :   1.0564
B(  9-C , 10-H ) :   0.9579 B(  9-C , 11-H ) :   0.9565 B(  9-C , 12-C ) :   1.0830
B( 12-C , 13-H ) :   0.9768 B( 12-C , 14-H ) :   0.9744 B( 12-C , 15-H ) :   0.9732
B( 16-S , 17-C ) :   1.1042 B( 16-S , 20-C ) :   1.1248 B( 17-C , 18-C ) :   1.7086
B( 17-C , 33-H ) :   0.9715 B( 18-C , 19-C ) :   1.1619 B( 18-C , 21-H ) :   0.9873
B( 19-C , 20-C ) :   1.6153 B( 19-C , 22-C ) :   1.0409 B( 22-C , 23-H ) :   0.9369
B( 22-C , 24-H ) :   0.9360 B( 22-C , 25-C ) :   1.0637 B( 25-C , 26-H ) :   0.9585
B( 25-C , 27-H ) :   0.9602 B( 25-C , 28-C ) :   1.0685 B( 28-C , 29-H ) :   0.9745
B( 28-C , 30-H ) :   0.9747 B( 28-C , 31-H ) :   0.9749

Dispersion correction           -0.014053250
FINAL SINGLE POINT ENERGY     -1339.867766590115

DIPOLE MOMENT
-------------
                                X             Y             Z
Electronic contribution:     26.44907      -0.96814      -5.16810
Nuclear contribution   :    -27.14163       1.24461       5.50287
                        -----------------------------------------
Total Dipole Moment    :     -0.69257       0.27647       0.33477
                        -----------------------------------------
Magnitude (a.u.)       :      0.81741
Magnitude (Debye)      :      2.07769

Rotational constants in cm-1:     0.018682     0.008043     0.006932
Rotational constants in MHz :   560.064909   241.129886   207.821102

                             ****ORCA TERMINATED NORMALLY****
TOTAL RUN TIME: 0 days 0 hours 0 minutes 21 seconds 442 msec
