                         Program Version 4.2.1 -  RELEASE  -
|  1> ! wB97X-D3 SP def2-SVP
|  2> %pal
|  3> nprocs 24
|  4> end
|  5>
|  6> * xyz 0 1
|  7> S 	 -90.8818 	 -34.5272 	 -61.1396
|  8> C 	 -90.7217 	 -35.4635 	 -62.5908
|  9> C 	 -90.6099 	 -36.853 	 -62.3083
| 10> C 	 -90.7161 	 -37.0654 	 -60.8931
| 11> C 	 -90.7413 	 -35.9502 	 -60.1287
| 12> H 	 -90.7863 	 -38.0453 	 -60.5156
| 13> C 	 -90.7449 	 -37.9871 	 -63.2538
| 14> H 	 -91.3523 	 -37.6059 	 -64.0843
| 15> H 	 -91.4157 	 -38.6924 	 -62.729
| 16> C 	 -89.4295 	 -38.5465 	 -63.7106
| 17> H 	 -88.8454 	 -37.738 	 -64.0716
| 18> H 	 -88.8834 	 -38.885 	 -62.8434
| 19> C 	 -89.4661 	 -39.6077 	 -64.7714
| 20> H 	 -89.6321 	 -40.5979 	 -64.3709
| 21> H 	 -90.1477 	 -39.4345 	 -65.5366
| 22> H 	 -88.5592 	 -39.5122 	 -65.3583
| 23> S 	 -89.9138 	 -36.998 	 -57.6607
| 24> C 	 -90.5882 	 -36.2771 	 -56.2411
| 25> C 	 -91.6649 	 -35.5238 	 -56.5637
| 26> C 	 -91.8951 	 -35.3445 	 -57.9557
| 27> C 	 -90.9543 	 -35.9587 	 -58.6835
| 28> H 	 -92.3706 	 -35.2246 	 -55.8165
| 29> C 	 -93.0158 	 -34.4106 	 -58.4933
| 30> H 	 -93.3827 	 -34.6944 	 -59.4535
| 31> H 	 -92.5817 	 -33.4239 	 -58.7579
| 32> C 	 -94.3016 	 -34.2518 	 -57.6799
| 33> H 	 -94.9981 	 -33.4905 	 -58.067
| 34> H 	 -94.0857 	 -33.7934 	 -56.681
| 35> C 	 -95.1341 	 -35.525 	 -57.6249
| 36> H 	 -94.6467 	 -36.2121 	 -56.8367
| 37> H 	 -94.9989 	 -36.1112 	 -58.5802
| 38> H 	 -96.2155 	 -35.5213 	 -57.3606
| 39> H 	 -90.9421 	 -35.0227 	 -63.5895
| 40> H 	 -90.2129 	 -36.6041 	 -55.2797
| 41> *
| 42>
| 43>                          ****END OF INPUT****

CARTESIAN COORDINATES (ANGSTROEM)
---------------------------------
  S    -90.881800  -34.527200  -61.139600
  C    -90.721700  -35.463500  -62.590800
  C    -90.609900  -36.853000  -62.308300
  C    -90.716100  -37.065400  -60.893100
  C    -90.741300  -35.950200  -60.128700
  H    -90.786300  -38.045300  -60.515600
  C    -90.744900  -37.987100  -63.253800
  H    -91.352300  -37.605900  -64.084300
  H    -91.415700  -38.692400  -62.729000
  C    -89.429500  -38.546500  -63.710600
  H    -88.845400  -37.738000  -64.071600
  H    -88.883400  -38.885000  -62.843400
  C    -89.466100  -39.607700  -64.771400
  H    -89.632100  -40.597900  -64.370900
  H    -90.147700  -39.434500  -65.536600
  H    -88.559200  -39.512200  -65.358300
  S    -89.913800  -36.998000  -57.660700
  C    -90.588200  -36.277100  -56.241100
  C    -91.664900  -35.523800  -56.563700
  C    -91.895100  -35.344500  -57.955700
  C    -90.954300  -35.958700  -58.683500
  H    -92.370600  -35.224600  -55.816500
  C    -93.015800  -34.410600  -58.493300
  H    -93.382700  -34.694400  -59.453500
  H    -92.581700  -33.423900  -58.757900
  C    -94.301600  -34.251800  -57.679900
  H    -94.998100  -33.490500  -58.067000
  H    -94.085700  -33.793400  -56.681000
  C    -95.134100  -35.525000  -57.624900
  H    -94.646700  -36.212100  -56.836700
  H    -94.998900  -36.111200  -58.580200
  H    -96.215500  -35.521300  -57.360600
  H    -90.942100  -35.022700  -63.589500
  H    -90.212900  -36.604100  -55.279700

 Total Charge           Charge          ....    0
 Multiplicity           Mult            ....    1
 Number of Electrons    NEL             ....  134
 Basis Dimension        Dim             ....  322

ORBITAL ENERGIES
----------------

  NO   OCC          E(Eh)            E(eV)
   0   2.0000     -88.968518     -2420.9564
   1   2.0000     -88.960584     -2420.7406
   2   2.0000     -10.324095      -280.9329
   3   2.0000     -10.323144      -280.9070
   4   2.0000     -10.319542      -280.8090
   5   2.0000     -10.315364      -280.6953
   6   2.0000     -10.300910      -280.3020
   7   2.0000     -10.300319      -280.2859
   8   2.0000     -10.295624      -280.1582
   9   2.0000     -10.292271      -280.0669
  10   2.0000     -10.288991      -279.9777
  11   2.0000     -10.288493      -279.9641
  12   2.0000     -10.287048      -279.9248
  13   2.0000     -10.285459      -279.8816
  14   2.0000     -10.276629      -279.6413
  15   2.0000     -10.268118      -279.4097
  16   2.0000      -8.082925      -219.9476
  17   2.0000      -8.075753      -219.7524
  18   2.0000      -6.041490      -164.3973
  19   2.0000      -6.037439      -164.2871
  20   2.0000      -6.034284      -164.2012
  21   2.0000      -6.033705      -164.1855
  22   2.0000      -6.030408      -164.0957
  23   2.0000      -6.026253      -163.9827
  24   2.0000      -1.009933       -27.4817
  25   2.0000      -0.987771       -26.8786
  26   2.0000      -0.920165       -25.0390
  27   2.0000      -0.908037       -24.7089
  28   2.0000      -0.871810       -23.7232
  29   2.0000      -0.856350       -23.3025
  30   2.0000      -0.846736       -23.0409
  31   2.0000      -0.814382       -22.1605
  32   2.0000      -0.783027       -21.3073
  33   2.0000      -0.773986       -21.0612
  34   2.0000      -0.707254       -19.2454
  35   2.0000      -0.700805       -19.0699
  36   2.0000      -0.693474       -18.8704
  37   2.0000      -0.663093       -18.0437
  38   2.0000      -0.641441       -17.4545
  39   2.0000      -0.619777       -16.8650
  40   2.0000      -0.608249       -16.5513
  41   2.0000      -0.573246       -15.5988
  42   2.0000      -0.558559       -15.1992
  43   2.0000      -0.554763       -15.0959
  44   2.0000      -0.535322       -14.5669
  45   2.0000      -0.528592       -14.3837
  46   2.0000      -0.518631       -14.1127
  47   2.0000      -0.514654       -14.0044
  48   2.0000      -0.510230       -13.8841
  49   2.0000      -0.496045       -13.4981
  50   2.0000      -0.487950       -13.2778
  51   2.0000      -0.473700       -12.8900
  52   2.0000      -0.470515       -12.8034
  53   2.0000      -0.467126       -12.7111
  54   2.0000      -0.462288       -12.5795
  55   2.0000      -0.452270       -12.3069
  56   2.0000      -0.441920       -12.0253
  57   2.0000      -0.436598       -11.8804
  58   2.0000      -0.432179       -11.7602
  59   2.0000      -0.427813       -11.6414
  60   2.0000      -0.423525       -11.5247
  61   2.0000      -0.415641       -11.3102
  62   2.0000      -0.401668       -10.9300
  63   2.0000      -0.351620        -9.5681
  64   2.0000      -0.330425        -8.9913
  65   2.0000      -0.327721        -8.9177
  66   2.0000      -0.292180        -7.9506
  67   0.0000       0.030324         0.8252
  68   0.0000       0.073387         1.9970
  69   0.0000       0.099310         2.7024
  70   0.0000       0.120393         3.2761
  71   0.0000       0.137926         3.7531

MULLIKEN ATOMIC CHARGES
-----------------------
   0 S :    0.106451
   1 C :   -0.141805
   2 C :   -0.099929
   3 C :    0.015965
   4 C :   -0.123050
   5 H :   -0.003774
   6 C :    0.058458
   7 H :    0.015166
   8 H :    0.026813
   9 C :   -0.057201
  10 H :    0.014032
  11 H :    0.020674
  12 C :    0.023344
  13 H :    0.035953
  14 H :    0.000440
  15 H :    0.020664
  16 S :    0.091713
  17 C :   -0.083077
  18 C :   -0.019828
  19 C :   -0.012895
  20 C :   -0.164566
  21 H :    0.013615
  22 C :    0.066133
  23 H :    0.017484
  24 H :    0.046004
  25 C :   -0.083930
  26 H :    0.030718
  27 H :    0.031786
  28 C :   -0.099470
  29 H :    0.034244
  30 H :    0.040820
  31 H :    0.052437
  32 H :    0.068024
  33 H :    0.058586
Sum of atomic charges:   -0.0000000

LOEWDIN ATOMIC CHARGES
----------------------
   0 S :    0.420556
   1 C :   -0.212630
   2 C :   -0.058869
   3 C :   -0.059065
   4 C :   -0.192813
   5 H :    0.021981
   6 C :   -0.035765
   7 H :    0.029856
   8 H :    0.033138
   9 C :   -0.040583
  10 H :    0.023001
  11 H :    0.026032
  12 C :   -0.059514
  13 H :    0.026327
  14 H :    0.016109
  15 H :    0.032050
  16 S :    0.386233
  17 C :   -0.176791
  18 C :   -0.071376
  19 C :   -0.058259
  20 C :   -0.175866
  21 H :    0.027809
  22 C :   -0.033839
  23 H :    0.022939
  24 H :    0.037617
  25 C :   -0.054451
  26 H :    0.030583
  27 H :    0.023029
  28 C :   -0.083742
  29 H :    0.030645
  30 H :    0.032211
  31 H :    0.030208
  32 H :    0.034709
  33 H :    0.028531

  Mayer bond orders larger than 0.100000
B(  0-S ,  1-C ) :   1.1568 B(  0-S ,  4-C ) :   1.1430 B(  1-C ,  2-C ) :   1.5757
B(  1-C , 32-H ) :   0.9618 B(  2-C ,  3-C ) :   1.2726 B(  2-C ,  6-C ) :   1.0250
B(  3-C ,  4-C ) :   1.5660 B(  3-C ,  5-H ) :   0.9968 B(  4-C , 20-C ) :   1.0243
B(  6-C ,  7-H ) :   0.9355 B(  6-C ,  8-H ) :   0.9434 B(  6-C ,  9-C ) :   1.0616
B(  9-C , 10-H ) :   0.9538 B(  9-C , 11-H ) :   0.9516 B(  9-C , 12-C ) :   1.0902
B( 12-C , 13-H ) :   0.9748 B( 12-C , 14-H ) :   0.9665 B( 12-C , 15-H ) :   0.9702
B( 16-S , 17-C ) :   1.1471 B( 16-S , 20-C ) :   1.1268 B( 17-C , 18-C ) :   1.6141
B( 17-C , 33-H ) :   0.9714 B( 18-C , 19-C ) :   1.2185 B( 18-C , 21-H ) :   0.9897
B( 19-C , 20-C ) :   1.6434 B( 19-C , 22-C ) :   1.0171 B( 22-C , 23-H ) :   0.9316
B( 22-C , 24-H ) :   0.9353 B( 22-C , 25-C ) :   1.0813 B( 25-C , 26-H ) :   0.9526
B( 25-C , 27-H ) :   0.9505 B( 25-C , 28-C ) :   1.0597 B( 28-C , 29-H ) :   0.9728
B( 28-C , 30-H ) :   0.9721 B( 28-C , 31-H ) :   0.9777

Dispersion correction           -0.014019392
FINAL SINGLE POINT ENERGY     -1339.871742995733

DIPOLE MOMENT
-------------
                                X             Y             Z
Electronic contribution:     11.28609       7.99928      10.34193
Nuclear contribution   :    -11.77655      -8.16618     -10.53949
                        -----------------------------------------
Total Dipole Moment    :     -0.49046      -0.16690      -0.19755
                        -----------------------------------------
Magnitude (a.u.)       :      0.55447
Magnitude (Debye)      :      1.40934

Rotational constants in cm-1:     0.022308     0.007218     0.006364
Rotational constants in MHz :   668.783888   216.396248   190.799183

                             ****ORCA TERMINATED NORMALLY****
TOTAL RUN TIME: 0 days 0 hours 0 minutes 21 seconds 275 msec
