                         Program Version 4.2.1 -  RELEASE  -
|  1> ! wB97X-D3 SP def2-SVP
|  2> %pal
|  3> nprocs 24
|  4> end
|  5>
|  6> * xyz 0 1
|  7> S 	 -130.443 	 58.6673 	 -59.3965
|  8> C 	 -131.401 	 59.5611 	 -58.1835
|  9> C 	 -130.661 	 60.3422 	 -57.3275
| 10> C 	 -129.276 	 60.2035 	 -57.6607
| 11> C 	 -129.042 	 59.5267 	 -58.9192
| 12> H 	 -128.484 	 60.6705 	 -57.086
| 13> C 	 -131.328 	 61.1392 	 -56.2189
| 14> H 	 -131.49 	 60.4434 	 -55.3546
| 15> H 	 -132.379 	 61.3584 	 -56.5665
| 16> C 	 -130.553 	 62.4106 	 -55.7852
| 17> H 	 -129.486 	 62.1046 	 -55.7071
| 18> H 	 -130.64 	 63.1674 	 -56.6079
| 19> C 	 -130.994 	 62.9037 	 -54.4377
| 20> H 	 -130.35 	 63.7103 	 -54.0986
| 21> H 	 -131.986 	 63.3382 	 -54.531
| 22> H 	 -130.925 	 62.146 	 -53.6431
| 23> S 	 -127.208 	 57.8598 	 -60.0636
| 24> C 	 -125.671 	 58.4768 	 -60.4656
| 25> C 	 -125.613 	 59.8572 	 -60.4263
| 26> C 	 -126.769 	 60.3584 	 -59.8646
| 27> C 	 -127.772 	 59.4544 	 -59.5682
| 28> H 	 -124.675 	 60.3855 	 -60.7191
| 29> C 	 -126.914 	 61.8481 	 -59.4757
| 30> H 	 -126.217 	 62.0582 	 -58.7568
| 31> H 	 -127.759 	 62.1258 	 -58.8206
| 32> C 	 -127.017 	 62.8529 	 -60.6747
| 33> H 	 -128.007 	 62.7601 	 -61.1668
| 34> H 	 -126.3 	 62.7583 	 -61.4624
| 35> C 	 -126.99 	 64.326 	 -60.2477
| 36> H 	 -126.869 	 64.9297 	 -61.0601
| 37> H 	 -126.083 	 64.559 	 -59.6004
| 38> H 	 -127.813 	 64.6697 	 -59.5636
| 39> H 	 -132.544 	 59.4552 	 -58.0661
| 40> H 	 -124.829 	 57.9732 	 -60.855
| 41> *
| 42>
| 43>                          ****END OF INPUT****

CARTESIAN COORDINATES (ANGSTROEM)
---------------------------------
  S    -130.443000   58.667300  -59.396500
  C    -131.401000   59.561100  -58.183500
  C    -130.661000   60.342200  -57.327500
  C    -129.276000   60.203500  -57.660700
  C    -129.042000   59.526700  -58.919200
  H    -128.484000   60.670500  -57.086000
  C    -131.328000   61.139200  -56.218900
  H    -131.490000   60.443400  -55.354600
  H    -132.379000   61.358400  -56.566500
  C    -130.553000   62.410600  -55.785200
  H    -129.486000   62.104600  -55.707100
  H    -130.640000   63.167400  -56.607900
  C    -130.994000   62.903700  -54.437700
  H    -130.350000   63.710300  -54.098600
  H    -131.986000   63.338200  -54.531000
  H    -130.925000   62.146000  -53.643100
  S    -127.208000   57.859800  -60.063600
  C    -125.671000   58.476800  -60.465600
  C    -125.613000   59.857200  -60.426300
  C    -126.769000   60.358400  -59.864600
  C    -127.772000   59.454400  -59.568200
  H    -124.675000   60.385500  -60.719100
  C    -126.914000   61.848100  -59.475700
  H    -126.217000   62.058200  -58.756800
  H    -127.759000   62.125800  -58.820600
  C    -127.017000   62.852900  -60.674700
  H    -128.007000   62.760100  -61.166800
  H    -126.300000   62.758300  -61.462400
  C    -126.990000   64.326000  -60.247700
  H    -126.869000   64.929700  -61.060100
  H    -126.083000   64.559000  -59.600400
  H    -127.813000   64.669700  -59.563600
  H    -132.544000   59.455200  -58.066100
  H    -124.829000   57.973200  -60.855000

 Total Charge           Charge          ....    0
 Multiplicity           Mult            ....    1
 Number of Electrons    NEL             ....  134
 Basis Dimension        Dim             ....  322

ORBITAL ENERGIES
----------------

  NO   OCC          E(Eh)            E(eV)
   0   2.0000     -88.970330     -2421.0058
   1   2.0000     -88.964881     -2420.8575
   2   2.0000     -10.331313      -281.1293
   3   2.0000     -10.322727      -280.8957
   4   2.0000     -10.316823      -280.7350
   5   2.0000     -10.311852      -280.5997
   6   2.0000     -10.302712      -280.3510
   7   2.0000     -10.301455      -280.3168
   8   2.0000     -10.301045      -280.3057
   9   2.0000     -10.298583      -280.2387
  10   2.0000     -10.295324      -280.1500
  11   2.0000     -10.292372      -280.0697
  12   2.0000     -10.285924      -279.8942
  13   2.0000     -10.284733      -279.8618
  14   2.0000     -10.280257      -279.7400
  15   2.0000     -10.275181      -279.6019
  16   2.0000      -8.084849      -219.9999
  17   2.0000      -8.080426      -219.8796
  18   2.0000      -6.043295      -164.4464
  19   2.0000      -6.039494      -164.3430
  20   2.0000      -6.038733      -164.3223
  21   2.0000      -6.035589      -164.2367
  22   2.0000      -6.034795      -164.2151
  23   2.0000      -6.031379      -164.1222
  24   2.0000      -1.011503       -27.5244
  25   2.0000      -0.985573       -26.8188
  26   2.0000      -0.914624       -24.8882
  27   2.0000      -0.901561       -24.5327
  28   2.0000      -0.874697       -23.8017
  29   2.0000      -0.853725       -23.2311
  30   2.0000      -0.847109       -23.0510
  31   2.0000      -0.808071       -21.9887
  32   2.0000      -0.784710       -21.3530
  33   2.0000      -0.771689       -20.9987
  34   2.0000      -0.713736       -19.4217
  35   2.0000      -0.700319       -19.0567
  36   2.0000      -0.687733       -18.7142
  37   2.0000      -0.659311       -17.9408
  38   2.0000      -0.629826       -17.1384
  39   2.0000      -0.620729       -16.8909
  40   2.0000      -0.600412       -16.3381
  41   2.0000      -0.569921       -15.5083
  42   2.0000      -0.567543       -15.4436
  43   2.0000      -0.552630       -15.0378
  44   2.0000      -0.529489       -14.4081
  45   2.0000      -0.521453       -14.1895
  46   2.0000      -0.518523       -14.1097
  47   2.0000      -0.510357       -13.8875
  48   2.0000      -0.503075       -13.6894
  49   2.0000      -0.495094       -13.4722
  50   2.0000      -0.491162       -13.3652
  51   2.0000      -0.486031       -13.2256
  52   2.0000      -0.469271       -12.7695
  53   2.0000      -0.460988       -12.5441
  54   2.0000      -0.458551       -12.4778
  55   2.0000      -0.456208       -12.4140
  56   2.0000      -0.450542       -12.2599
  57   2.0000      -0.437470       -11.9042
  58   2.0000      -0.433994       -11.8096
  59   2.0000      -0.424973       -11.5641
  60   2.0000      -0.418731       -11.3943
  61   2.0000      -0.413990       -11.2652
  62   2.0000      -0.403943       -10.9918
  63   2.0000      -0.346394        -9.4258
  64   2.0000      -0.335298        -9.1239
  65   2.0000      -0.330820        -9.0021
  66   2.0000      -0.281166        -7.6509
  67   0.0000       0.024225         0.6592
  68   0.0000       0.069435         1.8894
  69   0.0000       0.106324         2.8932
  70   0.0000       0.122512         3.3337
  71   0.0000       0.132367         3.6019

MULLIKEN ATOMIC CHARGES
-----------------------
   0 S :    0.125678
   1 C :   -0.161078
   2 C :   -0.068003
   3 C :    0.009624
   4 C :   -0.143632
   5 H :    0.016832
   6 C :    0.034612
   7 H :    0.047671
   8 H :    0.033811
   9 C :   -0.108977
  10 H :    0.034214
  11 H :    0.048285
  12 C :   -0.029645
  13 H :    0.028796
  14 H :    0.033075
  15 H :    0.036241
  16 S :    0.108677
  17 C :   -0.065320
  18 C :   -0.070091
  19 C :   -0.003618
  20 C :   -0.152533
  21 H :    0.037519
  22 C :    0.075315
  23 H :    0.001992
  24 H :    0.009719
  25 C :   -0.063738
  26 H :    0.040025
  27 H :    0.022476
  28 C :   -0.057588
  29 H :    0.017307
  30 H :    0.018334
  31 H :    0.037630
  32 H :    0.068611
  33 H :    0.037778
Sum of atomic charges:    0.0000000

LOEWDIN ATOMIC CHARGES
----------------------
   0 S :    0.413023
   1 C :   -0.205753
   2 C :   -0.067987
   3 C :   -0.063302
   4 C :   -0.206072
   5 H :    0.023807
   6 C :   -0.036738
   7 H :    0.038232
   8 H :    0.035597
   9 C :   -0.047018
  10 H :    0.025324
  11 H :    0.032772
  12 C :   -0.065699
  13 H :    0.026659
  14 H :    0.026410
  15 H :    0.028484
  16 S :    0.419390
  17 C :   -0.186895
  18 C :   -0.078769
  19 C :   -0.051784
  20 C :   -0.199162
  21 H :    0.043954
  22 C :   -0.031373
  23 H :    0.016534
  24 H :    0.034480
  25 C :   -0.035837
  26 H :    0.032965
  27 H :    0.017176
  28 C :   -0.068388
  29 H :    0.011748
  30 H :    0.025697
  31 H :    0.028470
  32 H :    0.041120
  33 H :    0.022936

  Mayer bond orders larger than 0.100000
B(  0-S ,  1-C ) :   1.1289 B(  0-S ,  4-C ) :   1.1700 B(  1-C ,  2-C ) :   1.6141
B(  1-C ,  4-C ) :   0.1054 B(  1-C , 32-H ) :   0.9539 B(  2-C ,  3-C ) :   1.2674
B(  2-C ,  6-C ) :   1.0106 B(  3-C ,  4-C ) :   1.5027 B(  3-C ,  5-H ) :   0.9840
B(  4-C , 20-C ) :   1.0867 B(  6-C ,  7-H ) :   0.9397 B(  6-C ,  8-H ) :   0.9410
B(  6-C ,  9-C ) :   1.0507 B(  9-C , 10-H ) :   0.9543 B(  9-C , 11-H ) :   0.9556
B(  9-C , 12-C ) :   1.0953 B( 12-C , 13-H ) :   0.9712 B( 12-C , 14-H ) :   0.9720
B( 12-C , 15-H ) :   0.9731 B( 16-S , 17-C ) :   1.1882 B( 16-S , 20-C ) :   1.1237
B( 17-C , 18-C ) :   1.5808 B( 17-C , 20-C ) :   0.1067 B( 17-C , 33-H ) :   0.9667
B( 18-C , 19-C ) :   1.2740 B( 18-C , 21-H ) :   0.9882 B( 19-C , 20-C ) :   1.5842
B( 19-C , 22-C ) :   1.0236 B( 22-C , 23-H ) :   0.9403 B( 22-C , 24-H ) :   0.9319
B( 22-C , 25-C ) :   1.0477 B( 25-C , 26-H ) :   0.9550 B( 25-C , 27-H ) :   0.9638
B( 25-C , 28-C ) :   1.0841 B( 28-C , 29-H ) :   0.9741 B( 28-C , 30-H ) :   0.9728
B( 28-C , 31-H ) :   0.9749

Dispersion correction           -0.013651209
FINAL SINGLE POINT ENERGY     -1339.857487001229

DIPOLE MOMENT
-------------
                                X             Y             Z
Electronic contribution:      1.24913     -29.88550     -13.32757
Nuclear contribution   :     -1.10950      30.48963      13.70284
                        -----------------------------------------
Total Dipole Moment    :      0.13963       0.60413       0.37527
                        -----------------------------------------
Magnitude (a.u.)       :      0.72477
Magnitude (Debye)      :      1.84223

Rotational constants in cm-1:     0.016250     0.009127     0.006600
Rotational constants in MHz :   487.152505   273.617387   197.871172

                             ****ORCA TERMINATED NORMALLY****
TOTAL RUN TIME: 0 days 0 hours 0 minutes 21 seconds 318 msec
