                         Program Version 4.2.1 -  RELEASE  -
|  1> ! wB97X-D3 SP def2-SVP
|  2> %pal
|  3> nprocs 24
|  4> end
|  5>
|  6> * xyz 0 1
|  7> S 	 -119.536 	 29.4717 	 -19.4106
|  8> C 	 -119.746 	 28.2312 	 -20.6793
|  9> C 	 -118.594 	 27.4332 	 -20.8543
| 10> C 	 -117.614 	 27.7906 	 -19.9063
| 11> C 	 -117.902 	 28.8739 	 -19.0416
| 12> H 	 -116.561 	 27.3359 	 -19.8048
| 13> C 	 -118.356 	 26.3372 	 -21.9189
| 14> H 	 -119.28 	 25.7403 	 -21.9486
| 15> H 	 -117.541 	 25.6597 	 -21.609
| 16> C 	 -118.058 	 26.8806 	 -23.3045
| 17> H 	 -119.042 	 27.1707 	 -23.6976
| 18> H 	 -117.535 	 27.8514 	 -23.2033
| 19> C 	 -117.338 	 25.9443 	 -24.3077
| 20> H 	 -116.444 	 25.5769 	 -23.8616
| 21> H 	 -117.743 	 25.0712 	 -24.7558
| 22> H 	 -116.842 	 26.6039 	 -25.0053
| 23> S 	 -117.887 	 29.0544 	 -16.2796
| 24> C 	 -116.517 	 29.7767 	 -15.4848
| 25> C 	 -115.588 	 30.1785 	 -16.4125
| 26> C 	 -115.873 	 29.8061 	 -17.7453
| 27> C 	 -117.121 	 29.2514 	 -17.8868
| 28> H 	 -114.743 	 30.794 	 -16.0406
| 29> C 	 -115.028 	 30.261 	 -18.9154
| 30> H 	 -115.342 	 29.7117 	 -19.8652
| 31> H 	 -114.025 	 29.9269 	 -18.7072
| 32> C 	 -115.156 	 31.8146 	 -19.2785
| 33> H 	 -114.332 	 32.0294 	 -19.9483
| 34> H 	 -114.922 	 32.4064 	 -18.3558
| 35> C 	 -116.558 	 32.2299 	 -19.9831
| 36> H 	 -116.624 	 33.2878 	 -20.1223
| 37> H 	 -117.384 	 31.8976 	 -19.4053
| 38> H 	 -116.745 	 31.7577 	 -21.0183
| 39> H 	 -120.618 	 28.2813 	 -21.3042
| 40> H 	 -116.571 	 29.9951 	 -14.3924
| 41> *
| 42>
| 43>                          ****END OF INPUT****

CARTESIAN COORDINATES (ANGSTROEM)
---------------------------------
  S    -119.536000   29.471700  -19.410600
  C    -119.746000   28.231200  -20.679300
  C    -118.594000   27.433200  -20.854300
  C    -117.614000   27.790600  -19.906300
  C    -117.902000   28.873900  -19.041600
  H    -116.561000   27.335900  -19.804800
  C    -118.356000   26.337200  -21.918900
  H    -119.280000   25.740300  -21.948600
  H    -117.541000   25.659700  -21.609000
  C    -118.058000   26.880600  -23.304500
  H    -119.042000   27.170700  -23.697600
  H    -117.535000   27.851400  -23.203300
  C    -117.338000   25.944300  -24.307700
  H    -116.444000   25.576900  -23.861600
  H    -117.743000   25.071200  -24.755800
  H    -116.842000   26.603900  -25.005300
  S    -117.887000   29.054400  -16.279600
  C    -116.517000   29.776700  -15.484800
  C    -115.588000   30.178500  -16.412500
  C    -115.873000   29.806100  -17.745300
  C    -117.121000   29.251400  -17.886800
  H    -114.743000   30.794000  -16.040600
  C    -115.028000   30.261000  -18.915400
  H    -115.342000   29.711700  -19.865200
  H    -114.025000   29.926900  -18.707200
  C    -115.156000   31.814600  -19.278500
  H    -114.332000   32.029400  -19.948300
  H    -114.922000   32.406400  -18.355800
  C    -116.558000   32.229900  -19.983100
  H    -116.624000   33.287800  -20.122300
  H    -117.384000   31.897600  -19.405300
  H    -116.745000   31.757700  -21.018300
  H    -120.618000   28.281300  -21.304200
  H    -116.571000   29.995100  -14.392400

 Total Charge           Charge          ....    0
 Multiplicity           Mult            ....    1
 Number of Electrons    NEL             ....  134
 Basis Dimension        Dim             ....  322

ORBITAL ENERGIES
----------------

  NO   OCC          E(Eh)            E(eV)
   0   2.0000     -88.971877     -2421.0479
   1   2.0000     -88.959998     -2420.7246
   2   2.0000     -10.333042      -281.1764
   3   2.0000     -10.326189      -280.9899
   4   2.0000     -10.322922      -280.9010
   5   2.0000     -10.318932      -280.7924
   6   2.0000     -10.309988      -280.5490
   7   2.0000     -10.302261      -280.3388
   8   2.0000     -10.301287      -280.3123
   9   2.0000     -10.298763      -280.2436
  10   2.0000     -10.296996      -280.1955
  11   2.0000     -10.296669      -280.1866
  12   2.0000     -10.294379      -280.1243
  13   2.0000     -10.291677      -280.0508
  14   2.0000     -10.280833      -279.7557
  15   2.0000     -10.275525      -279.6112
  16   2.0000      -8.085003      -220.0041
  17   2.0000      -8.074776      -219.7258
  18   2.0000      -6.043448      -164.4506
  19   2.0000      -6.039664      -164.3476
  20   2.0000      -6.035996      -164.2478
  21   2.0000      -6.033293      -164.1743
  22   2.0000      -6.029240      -164.0640
  23   2.0000      -6.025547      -163.9635
  24   2.0000      -1.002080       -27.2680
  25   2.0000      -0.978766       -26.6336
  26   2.0000      -0.910056       -24.7639
  27   2.0000      -0.893667       -24.3179
  28   2.0000      -0.867219       -23.5982
  29   2.0000      -0.847208       -23.0537
  30   2.0000      -0.837475       -22.7889
  31   2.0000      -0.808153       -21.9910
  32   2.0000      -0.785597       -21.3772
  33   2.0000      -0.771980       -21.0066
  34   2.0000      -0.706063       -19.2130
  35   2.0000      -0.704487       -19.1701
  36   2.0000      -0.694318       -18.8934
  37   2.0000      -0.655562       -17.8387
  38   2.0000      -0.641033       -17.4434
  39   2.0000      -0.611985       -16.6530
  40   2.0000      -0.591891       -16.1062
  41   2.0000      -0.564088       -15.3496
  42   2.0000      -0.559762       -15.2319
  43   2.0000      -0.546433       -14.8692
  44   2.0000      -0.531371       -14.4593
  45   2.0000      -0.526115       -14.3163
  46   2.0000      -0.516699       -14.0601
  47   2.0000      -0.503139       -13.6911
  48   2.0000      -0.500212       -13.6115
  49   2.0000      -0.492578       -13.4037
  50   2.0000      -0.486525       -13.2390
  51   2.0000      -0.478916       -13.0320
  52   2.0000      -0.468243       -12.7415
  53   2.0000      -0.462735       -12.5917
  54   2.0000      -0.457383       -12.4460
  55   2.0000      -0.447516       -12.1775
  56   2.0000      -0.438680       -11.9371
  57   2.0000      -0.435102       -11.8397
  58   2.0000      -0.432103       -11.7581
  59   2.0000      -0.426424       -11.6036
  60   2.0000      -0.420568       -11.4442
  61   2.0000      -0.414894       -11.2898
  62   2.0000      -0.412065       -11.2128
  63   2.0000      -0.341153        -9.2832
  64   2.0000      -0.334727        -9.1084
  65   2.0000      -0.328743        -8.9456
  66   2.0000      -0.293387        -7.9835
  67   0.0000       0.026894         0.7318
  68   0.0000       0.060458         1.6451
  69   0.0000       0.109569         2.9815
  70   0.0000       0.126011         3.4289
  71   0.0000       0.128825         3.5055

MULLIKEN ATOMIC CHARGES
-----------------------
   0 S :    0.111110
   1 C :   -0.139180
   2 C :   -0.074892
   3 C :    0.008535
   4 C :   -0.179276
   5 H :    0.044838
   6 C :    0.077155
   7 H :    0.035900
   8 H :    0.024624
   9 C :   -0.092324
  10 H :    0.024991
  11 H :    0.038790
  12 C :   -0.003557
  13 H :    0.002199
  14 H :    0.040306
  15 H :    0.022203
  16 S :    0.094456
  17 C :   -0.118149
  18 C :   -0.051377
  19 C :   -0.005928
  20 C :   -0.168660
  21 H :    0.033171
  22 C :    0.038071
  23 H :    0.032540
  24 H :    0.027228
  25 C :   -0.075080
  26 H :    0.032478
  27 H :    0.035818
  28 C :   -0.055427
  29 H :    0.035548
  30 H :    0.030025
  31 H :    0.041965
  32 H :    0.052530
  33 H :    0.079370
Sum of atomic charges:   -0.0000000

LOEWDIN ATOMIC CHARGES
----------------------
   0 S :    0.392941
   1 C :   -0.182518
   2 C :   -0.062475
   3 C :   -0.065722
   4 C :   -0.198496
   5 H :    0.044404
   6 C :   -0.031765
   7 H :    0.034325
   8 H :    0.029472
   9 C :   -0.044076
  10 H :    0.024153
  11 H :    0.031217
  12 C :   -0.070040
  13 H :    0.022434
  14 H :    0.024488
  15 H :    0.033491
  16 S :    0.387607
  17 C :   -0.189978
  18 C :   -0.080198
  19 C :   -0.061808
  20 C :   -0.187763
  21 H :    0.038288
  22 C :   -0.035152
  23 H :    0.036247
  24 H :    0.027200
  25 C :   -0.033970
  26 H :    0.021560
  27 H :    0.025611
  28 C :   -0.066340
  29 H :    0.022607
  30 H :    0.016067
  31 H :    0.036477
  32 H :    0.022565
  33 H :    0.039149

  Mayer bond orders larger than 0.100000
B(  0-S ,  1-C ) :   1.1546 B(  0-S ,  4-C ) :   1.1463 B(  1-C ,  2-C ) :   1.5602
B(  1-C ,  4-C ) :   0.1134 B(  1-C , 32-H ) :   0.9730 B(  2-C ,  3-C ) :   1.2834
B(  2-C ,  6-C ) :   1.0169 B(  3-C ,  4-C ) :   1.5549 B(  3-C ,  5-H ) :   0.9722
B(  4-C , 20-C ) :   1.0523 B(  6-C ,  7-H ) :   0.9403 B(  6-C ,  8-H ) :   0.9479
B(  6-C ,  9-C ) :   1.0531 B(  9-C , 10-H ) :   0.9536 B(  9-C , 11-H ) :   0.9597
B(  9-C , 12-C ) :   1.0770 B( 12-C , 13-H ) :   0.9659 B( 12-C , 14-H ) :   0.9794
B( 12-C , 15-H ) :   0.9695 B( 16-S , 17-C ) :   1.1574 B( 16-S , 20-C ) :   1.1330
B( 17-C , 18-C ) :   1.6109 B( 17-C , 33-H ) :   0.9624 B( 18-C , 19-C ) :   1.2268
B( 18-C , 21-H ) :   0.9868 B( 19-C , 20-C ) :   1.6024 B( 19-C , 22-C ) :   1.0528
B( 22-C , 23-H ) :   0.9358 B( 22-C , 24-H ) :   0.9326 B( 22-C , 25-C ) :   1.0590
B( 25-C , 26-H ) :   0.9593 B( 25-C , 27-H ) :   0.9608 B( 25-C , 28-C ) :   1.0554
B( 28-C , 29-H ) :   0.9772 B( 28-C , 30-H ) :   0.9791 B( 28-C , 31-H ) :   0.9753

Dispersion correction           -0.015005873
FINAL SINGLE POINT ENERGY     -1339.872279041455

DIPOLE MOMENT
-------------
                                X             Y             Z
Electronic contribution:    -11.45973       0.97286      23.76842
Nuclear contribution   :     11.86969      -0.97277     -24.22153
                        -----------------------------------------
Total Dipole Moment    :      0.40996       0.00009      -0.45311
                        -----------------------------------------
Magnitude (a.u.)       :      0.61105
Magnitude (Debye)      :      1.55315

Rotational constants in cm-1:     0.020696     0.007906     0.007015
Rotational constants in MHz :   620.453303   237.007339   210.308728

                             ****ORCA TERMINATED NORMALLY****
TOTAL RUN TIME: 0 days 0 hours 0 minutes 20 seconds 354 msec
