                         Program Version 4.2.1 -  RELEASE  -
|  1> ! wB97X-D3 SP def2-SVP
|  2> %pal
|  3> nprocs 24
|  4> end
|  5>
|  6> * xyz 0 1
|  7> S 	 -120.803 	 63.7264 	 -52.5378
|  8> C 	 -120.66 	 65.4868 	 -52.7144
|  9> C 	 -121.879 	 66.1002 	 -52.6804
| 10> C 	 -122.93 	 65.1273 	 -52.5207
| 11> C 	 -122.572 	 63.803 	 -52.5241
| 12> H 	 -123.973 	 65.5571 	 -52.5422
| 13> C 	 -122.101 	 67.5793 	 -52.8695
| 14> H 	 -121.325 	 67.9306 	 -52.239
| 15> H 	 -123.109 	 67.8143 	 -52.3932
| 16> C 	 -122.137 	 68.072 	 -54.3574
| 17> H 	 -122.214 	 69.1784 	 -54.4841
| 18> H 	 -121.236 	 67.8346 	 -54.9308
| 19> C 	 -123.311 	 67.4761 	 -55.2051
| 20> H 	 -123.131 	 67.7721 	 -56.2752
| 21> H 	 -123.347 	 66.315 	 -55.2622
| 22> H 	 -124.268 	 67.9303 	 -54.8914
| 23> S 	 -124.293 	 62.2408 	 -54.0076
| 24> C 	 -125.041 	 60.8099 	 -53.3739
| 25> C 	 -124.643 	 60.6397 	 -52.0289
| 26> C 	 -123.813 	 61.7249 	 -51.4913
| 27> C 	 -123.483 	 62.6311 	 -52.5118
| 28> H 	 -125.103 	 59.8943 	 -51.4181
| 29> C 	 -123.295 	 61.7117 	 -50.0589
| 30> H 	 -124.06 	 61.4016 	 -49.4715
| 31> H 	 -123.039 	 62.7537 	 -49.7362
| 32> C 	 -122.042 	 60.837 	 -49.9131
| 33> H 	 -121.647 	 61.0186 	 -48.8904
| 34> H 	 -121.242 	 61.2056 	 -50.6218
| 35> C 	 -122.226 	 59.3574 	 -50.1628
| 36> H 	 -121.282 	 58.889 	 -49.7844
| 37> H 	 -122.396 	 59.0718 	 -51.2148
| 38> H 	 -123.154 	 59.033 	 -49.6051
| 39> H 	 -119.77 	 66.0255 	 -52.8075
| 40> H 	 -125.614 	 60.1119 	 -53.9609
| 41> *
| 42>
| 43>                          ****END OF INPUT****

CARTESIAN COORDINATES (ANGSTROEM)
---------------------------------
  S    -120.803000   63.726400  -52.537800
  C    -120.660000   65.486800  -52.714400
  C    -121.879000   66.100200  -52.680400
  C    -122.930000   65.127300  -52.520700
  C    -122.572000   63.803000  -52.524100
  H    -123.973000   65.557100  -52.542200
  C    -122.101000   67.579300  -52.869500
  H    -121.325000   67.930600  -52.239000
  H    -123.109000   67.814300  -52.393200
  C    -122.137000   68.072000  -54.357400
  H    -122.214000   69.178400  -54.484100
  H    -121.236000   67.834600  -54.930800
  C    -123.311000   67.476100  -55.205100
  H    -123.131000   67.772100  -56.275200
  H    -123.347000   66.315000  -55.262200
  H    -124.268000   67.930300  -54.891400
  S    -124.293000   62.240800  -54.007600
  C    -125.041000   60.809900  -53.373900
  C    -124.643000   60.639700  -52.028900
  C    -123.813000   61.724900  -51.491300
  C    -123.483000   62.631100  -52.511800
  H    -125.103000   59.894300  -51.418100
  C    -123.295000   61.711700  -50.058900
  H    -124.060000   61.401600  -49.471500
  H    -123.039000   62.753700  -49.736200
  C    -122.042000   60.837000  -49.913100
  H    -121.647000   61.018600  -48.890400
  H    -121.242000   61.205600  -50.621800
  C    -122.226000   59.357400  -50.162800
  H    -121.282000   58.889000  -49.784400
  H    -122.396000   59.071800  -51.214800
  H    -123.154000   59.033000  -49.605100
  H    -119.770000   66.025500  -52.807500
  H    -125.614000   60.111900  -53.960900

 Total Charge           Charge          ....    0
 Multiplicity           Mult            ....    1
 Number of Electrons    NEL             ....  134
 Basis Dimension        Dim             ....  322

ORBITAL ENERGIES
----------------

  NO   OCC          E(Eh)            E(eV)
   0   2.0000     -88.966499     -2420.9015
   1   2.0000     -88.965561     -2420.8760
   2   2.0000     -10.332963      -281.1742
   3   2.0000     -10.329159      -281.0707
   4   2.0000     -10.321602      -280.8651
   5   2.0000     -10.311081      -280.5788
   6   2.0000     -10.308251      -280.5018
   7   2.0000     -10.299723      -280.2697
   8   2.0000     -10.298376      -280.2331
   9   2.0000     -10.297776      -280.2167
  10   2.0000     -10.296751      -280.1888
  11   2.0000     -10.296500      -280.1820
  12   2.0000     -10.290416      -280.0165
  13   2.0000     -10.287092      -279.9260
  14   2.0000     -10.286423      -279.9078
  15   2.0000     -10.281034      -279.7611
  16   2.0000      -8.080477      -219.8810
  17   2.0000      -8.080162      -219.8724
  18   2.0000      -6.038953      -164.3283
  19   2.0000      -6.038867      -164.3259
  20   2.0000      -6.034837      -164.2163
  21   2.0000      -6.034725      -164.2132
  22   2.0000      -6.031494      -164.1253
  23   2.0000      -6.030763      -164.1054
  24   2.0000      -1.000790       -27.2329
  25   2.0000      -0.981030       -26.6952
  26   2.0000      -0.909558       -24.7503
  27   2.0000      -0.905860       -24.6497
  28   2.0000      -0.863437       -23.4953
  29   2.0000      -0.842711       -22.9313
  30   2.0000      -0.840480       -22.8706
  31   2.0000      -0.812616       -22.1124
  32   2.0000      -0.783442       -21.3185
  33   2.0000      -0.771365       -20.9899
  34   2.0000      -0.703164       -19.1341
  35   2.0000      -0.698274       -19.0010
  36   2.0000      -0.685032       -18.6407
  37   2.0000      -0.663542       -18.0559
  38   2.0000      -0.633151       -17.2289
  39   2.0000      -0.614937       -16.7333
  40   2.0000      -0.592240       -16.1157
  41   2.0000      -0.568886       -15.4802
  42   2.0000      -0.552298       -15.0288
  43   2.0000      -0.549514       -14.9530
  44   2.0000      -0.544392       -14.8137
  45   2.0000      -0.539307       -14.6753
  46   2.0000      -0.518774       -14.1166
  47   2.0000      -0.504697       -13.7335
  48   2.0000      -0.502925       -13.6853
  49   2.0000      -0.490386       -13.3441
  50   2.0000      -0.482674       -13.1342
  51   2.0000      -0.481498       -13.1022
  52   2.0000      -0.466516       -12.6946
  53   2.0000      -0.462402       -12.5826
  54   2.0000      -0.455868       -12.4048
  55   2.0000      -0.439594       -11.9620
  56   2.0000      -0.434928       -11.8350
  57   2.0000      -0.434049       -11.8111
  58   2.0000      -0.430942       -11.7265
  59   2.0000      -0.427246       -11.6260
  60   2.0000      -0.423179       -11.5153
  61   2.0000      -0.414373       -11.2757
  62   2.0000      -0.408663       -11.1203
  63   2.0000      -0.332651        -9.0519
  64   2.0000      -0.330580        -8.9955
  65   2.0000      -0.323782        -8.8106
  66   2.0000      -0.308828        -8.4036
  67   0.0000       0.042351         1.1524
  68   0.0000       0.054510         1.4833
  69   0.0000       0.105841         2.8801
  70   0.0000       0.120665         3.2834
  71   0.0000       0.127357         3.4656

MULLIKEN ATOMIC CHARGES
-----------------------
   0 S :    0.106461
   1 C :   -0.103707
   2 C :   -0.131537
   3 C :    0.037535
   4 C :   -0.150957
   5 H :    0.025653
   6 C :    0.087441
   7 H :    0.030147
   8 H :    0.032690
   9 C :   -0.062473
  10 H :    0.040678
  11 H :    0.028539
  12 C :   -0.122578
  13 H :    0.040449
  14 H :    0.065201
  15 H :    0.040327
  16 S :    0.119953
  17 C :   -0.095305
  18 C :   -0.038862
  19 C :   -0.054090
  20 C :   -0.182073
  21 H :    0.016770
  22 C :    0.119217
  23 H :   -0.002325
  24 H :    0.036425
  25 C :   -0.091179
  26 H :    0.035138
  27 H :    0.031009
  28 C :   -0.071879
  29 H :    0.048366
  30 H :    0.052359
  31 H :    0.027581
  32 H :    0.021930
  33 H :    0.063095
Sum of atomic charges:    0.0000000

LOEWDIN ATOMIC CHARGES
----------------------
   0 S :    0.388582
   1 C :   -0.175862
   2 C :   -0.070571
   3 C :   -0.064492
   4 C :   -0.198493
   5 H :    0.037752
   6 C :   -0.032875
   7 H :    0.030029
   8 H :    0.038186
   9 C :   -0.044271
  10 H :    0.030152
  11 H :    0.023528
  12 C :   -0.080624
  13 H :    0.031386
  14 H :    0.038106
  15 H :    0.022959
  16 S :    0.424253
  17 C :   -0.191820
  18 C :   -0.072153
  19 C :   -0.045913
  20 C :   -0.207949
  21 H :    0.023996
  22 C :   -0.025953
  23 H :    0.013844
  24 H :    0.040599
  25 C :   -0.045191
  26 H :    0.026365
  27 H :    0.025547
  28 C :   -0.074806
  29 H :    0.035151
  30 H :    0.028000
  31 H :    0.025251
  32 H :    0.017206
  33 H :    0.030080

  Mayer bond orders larger than 0.100000
B(  0-S ,  1-C ) :   1.1349 B(  0-S ,  4-C ) :   1.1280 B(  1-C ,  2-C ) :   1.6307
B(  1-C , 32-H ) :   0.9718 B(  2-C ,  3-C ) :   1.2476 B(  2-C ,  6-C ) :   0.9993
B(  3-C ,  4-C ) :   1.5938 B(  3-C ,  5-H ) :   0.9815 B(  4-C , 20-C ) :   1.0056
B(  6-C ,  7-H ) :   0.9403 B(  6-C ,  8-H ) :   0.9445 B(  6-C ,  9-C ) :   1.0520
B(  9-C , 10-H ) :   0.9587 B(  9-C , 11-H ) :   0.9612 B(  9-C , 12-C ) :   1.0691
B( 12-C , 13-H ) :   0.9738 B( 12-C , 14-H ) :   0.9715 B( 12-C , 15-H ) :   0.9770
B( 16-S , 17-C ) :   1.1694 B( 16-S , 20-C ) :   1.1639 B( 17-C , 18-C ) :   1.5828
B( 17-C , 20-C ) :   0.1010 B( 17-C , 33-H ) :   0.9712 B( 18-C , 19-C ) :   1.2500
B( 18-C , 21-H ) :   0.9834 B( 19-C , 20-C ) :   1.5860 B( 19-C , 22-C ) :   1.0487
B( 22-C , 23-H ) :   0.9260 B( 22-C , 24-H ) :   0.9293 B( 22-C , 25-C ) :   1.0780
B( 25-C , 26-H ) :   0.9560 B( 25-C , 27-H ) :   0.9478 B( 25-C , 28-C ) :   1.0790
B( 28-C , 29-H ) :   0.9707 B( 28-C , 30-H ) :   0.9681 B( 28-C , 31-H ) :   0.9729

Dispersion correction           -0.015272825
FINAL SINGLE POINT ENERGY     -1339.880238444459

DIPOLE MOMENT
-------------
                                X             Y             Z
Electronic contribution:     -0.18070      -5.95207      -5.02060
Nuclear contribution   :      0.07913       6.21754       5.17754
                        -----------------------------------------
Total Dipole Moment    :     -0.10157       0.26547       0.15694
                        -----------------------------------------
Magnitude (a.u.)       :      0.32469
Magnitude (Debye)      :      0.82529

Rotational constants in cm-1:     0.024040     0.008088     0.006671
Rotational constants in MHz :   720.704851   242.486008   199.996995

                             ****ORCA TERMINATED NORMALLY****
TOTAL RUN TIME: 0 days 0 hours 0 minutes 21 seconds 527 msec
