                         Program Version 4.2.1 -  RELEASE  -
|  1> ! wB97X-D3 SP def2-SVP
|  2> %pal
|  3> nprocs 24
|  4> end
|  5>
|  6> * xyz 0 1
|  7> S 	 -53.0596 	 -52.2881 	 -75.5627
|  8> C 	 -51.5404 	 -52.2251 	 -74.5913
|  9> C 	 -51.3677 	 -53.4028 	 -73.8652
| 10> C 	 -52.4373 	 -54.3235 	 -74.1269
| 11> C 	 -53.3162 	 -53.9036 	 -75.0537
| 12> H 	 -52.3841 	 -55.3502 	 -73.8153
| 13> C 	 -50.2252 	 -53.6141 	 -72.8548
| 14> H 	 -50.6599 	 -54.286 	 -72.0439
| 15> H 	 -50.0142 	 -52.6713 	 -72.2293
| 16> C 	 -48.9189 	 -54.2083 	 -73.4392
| 17> H 	 -49.1894 	 -55.0968 	 -74.0396
| 18> H 	 -48.489 	 -53.4118 	 -74.1186
| 19> C 	 -47.8956 	 -54.5991 	 -72.326
| 20> H 	 -47.3952 	 -53.6897 	 -71.9842
| 21> H 	 -48.1996 	 -55.2386 	 -71.5058
| 22> H 	 -47.0685 	 -55.0446 	 -72.8748
| 23> S 	 -55.9332 	 -54.6407 	 -75.1605
| 24> C 	 -56.481 	 -55.6897 	 -76.4785
| 25> C 	 -55.4467 	 -56.0988 	 -77.28
| 26> C 	 -54.2167 	 -55.5663 	 -76.8437
| 27> C 	 -54.2953 	 -54.7127 	 -75.7851
| 28> H 	 -55.6175 	 -56.7835 	 -78.0719
| 29> C 	 -52.8795 	 -55.8983 	 -77.5842
| 30> H 	 -52.9065 	 -56.9504 	 -77.8953
| 31> H 	 -52.0937 	 -55.9265 	 -76.8369
| 32> C 	 -52.4485 	 -55.0144 	 -78.7311
| 33> H 	 -51.5028 	 -55.3458 	 -79.0958
| 34> H 	 -52.1607 	 -53.9936 	 -78.3593
| 35> C 	 -53.34 	 -54.8499 	 -79.8821
| 36> H 	 -52.967 	 -54.1137 	 -80.6751
| 37> H 	 -54.2689 	 -54.375 	 -79.5376
| 38> H 	 -53.5684 	 -55.8481 	 -80.4185
| 39> H 	 -50.7803 	 -51.4407 	 -74.5895
| 40> H 	 -57.4578 	 -55.9753 	 -76.821
| 41> *
| 42>
| 43>                          ****END OF INPUT****

CARTESIAN COORDINATES (ANGSTROEM)
---------------------------------
  S    -53.059600  -52.288100  -75.562700
  C    -51.540400  -52.225100  -74.591300
  C    -51.367700  -53.402800  -73.865200
  C    -52.437300  -54.323500  -74.126900
  C    -53.316200  -53.903600  -75.053700
  H    -52.384100  -55.350200  -73.815300
  C    -50.225200  -53.614100  -72.854800
  H    -50.659900  -54.286000  -72.043900
  H    -50.014200  -52.671300  -72.229300
  C    -48.918900  -54.208300  -73.439200
  H    -49.189400  -55.096800  -74.039600
  H    -48.489000  -53.411800  -74.118600
  C    -47.895600  -54.599100  -72.326000
  H    -47.395200  -53.689700  -71.984200
  H    -48.199600  -55.238600  -71.505800
  H    -47.068500  -55.044600  -72.874800
  S    -55.933200  -54.640700  -75.160500
  C    -56.481000  -55.689700  -76.478500
  C    -55.446700  -56.098800  -77.280000
  C    -54.216700  -55.566300  -76.843700
  C    -54.295300  -54.712700  -75.785100
  H    -55.617500  -56.783500  -78.071900
  C    -52.879500  -55.898300  -77.584200
  H    -52.906500  -56.950400  -77.895300
  H    -52.093700  -55.926500  -76.836900
  C    -52.448500  -55.014400  -78.731100
  H    -51.502800  -55.345800  -79.095800
  H    -52.160700  -53.993600  -78.359300
  C    -53.340000  -54.849900  -79.882100
  H    -52.967000  -54.113700  -80.675100
  H    -54.268900  -54.375000  -79.537600
  H    -53.568400  -55.848100  -80.418500
  H    -50.780300  -51.440700  -74.589500
  H    -57.457800  -55.975300  -76.821000

 Total Charge           Charge          ....    0
 Multiplicity           Mult            ....    1
 Number of Electrons    NEL             ....  134
 Basis Dimension        Dim             ....  322

ORBITAL ENERGIES
----------------

  NO   OCC          E(Eh)            E(eV)
   0   2.0000     -88.968221     -2420.9484
   1   2.0000     -88.965355     -2420.8704
   2   2.0000     -10.324165      -280.9348
   3   2.0000     -10.322475      -280.8888
   4   2.0000     -10.319787      -280.8157
   5   2.0000     -10.314134      -280.6619
   6   2.0000     -10.305629      -280.4304
   7   2.0000     -10.305288      -280.4211
   8   2.0000     -10.300363      -280.2871
   9   2.0000     -10.300293      -280.2852
  10   2.0000     -10.291541      -280.0471
  11   2.0000     -10.289896      -280.0023
  12   2.0000     -10.287211      -279.9292
  13   2.0000     -10.282648      -279.8051
  14   2.0000     -10.280487      -279.7463
  15   2.0000     -10.276724      -279.6439
  16   2.0000      -8.082626      -219.9394
  17   2.0000      -8.079642      -219.8582
  18   2.0000      -6.041131      -164.3875
  19   2.0000      -6.038261      -164.3094
  20   2.0000      -6.037207      -164.2807
  21   2.0000      -6.034184      -164.1985
  22   2.0000      -6.033345      -164.1757
  23   2.0000      -6.030337      -164.0938
  24   2.0000      -1.009203       -27.4618
  25   2.0000      -0.984057       -26.7776
  26   2.0000      -0.907839       -24.7035
  27   2.0000      -0.905700       -24.6453
  28   2.0000      -0.868792       -23.6410
  29   2.0000      -0.847455       -23.0604
  30   2.0000      -0.846794       -23.0424
  31   2.0000      -0.817404       -22.2427
  32   2.0000      -0.782976       -21.3059
  33   2.0000      -0.771935       -21.0054
  34   2.0000      -0.704446       -19.1689
  35   2.0000      -0.698012       -18.9939
  36   2.0000      -0.682863       -18.5817
  37   2.0000      -0.663606       -18.0576
  38   2.0000      -0.640191       -17.4205
  39   2.0000      -0.620339       -16.8803
  40   2.0000      -0.587323       -15.9819
  41   2.0000      -0.569696       -15.5022
  42   2.0000      -0.559950       -15.2370
  43   2.0000      -0.547460       -14.8971
  44   2.0000      -0.547188       -14.8898
  45   2.0000      -0.523220       -14.2376
  46   2.0000      -0.516167       -14.0456
  47   2.0000      -0.513053       -13.9609
  48   2.0000      -0.502193       -13.6654
  49   2.0000      -0.496884       -13.5209
  50   2.0000      -0.483724       -13.1628
  51   2.0000      -0.477691       -12.9986
  52   2.0000      -0.468984       -12.7617
  53   2.0000      -0.464144       -12.6300
  54   2.0000      -0.460244       -12.5239
  55   2.0000      -0.451430       -12.2840
  56   2.0000      -0.439091       -11.9483
  57   2.0000      -0.436362       -11.8740
  58   2.0000      -0.431861       -11.7515
  59   2.0000      -0.424873       -11.5614
  60   2.0000      -0.414953       -11.2914
  61   2.0000      -0.414241       -11.2721
  62   2.0000      -0.400724       -10.9042
  63   2.0000      -0.338950        -9.2233
  64   2.0000      -0.333218        -9.0673
  65   2.0000      -0.320705        -8.7268
  66   2.0000      -0.314025        -8.5451
  67   0.0000       0.046761         1.2724
  68   0.0000       0.052358         1.4247
  69   0.0000       0.108669         2.9570
  70   0.0000       0.116284         3.1642
  71   0.0000       0.129282         3.5179

MULLIKEN ATOMIC CHARGES
-----------------------
   0 S :    0.120807
   1 C :   -0.120645
   2 C :   -0.090777
   3 C :    0.077736
   4 C :   -0.159676
   5 H :    0.009765
   6 C :   -0.011644
   7 H :    0.032747
   8 H :    0.043425
   9 C :   -0.089520
  10 H :    0.038011
  11 H :    0.041100
  12 C :   -0.034875
  13 H :    0.026569
  14 H :    0.048630
  15 H :    0.028388
  16 S :    0.111639
  17 C :   -0.065724
  18 C :   -0.045432
  19 C :   -0.016844
  20 C :   -0.195724
  21 H :    0.008819
  22 C :    0.095421
  23 H :    0.015698
  24 H :    0.015509
  25 C :   -0.028214
  26 H :    0.010366
  27 H :    0.021093
  28 C :   -0.092074
  29 H :    0.042737
  30 H :    0.038501
  31 H :    0.034310
  32 H :    0.048151
  33 H :    0.041726
Sum of atomic charges:    0.0000000

LOEWDIN ATOMIC CHARGES
----------------------
   0 S :    0.407674
   1 C :   -0.182384
   2 C :   -0.062902
   3 C :   -0.059537
   4 C :   -0.209301
   5 H :    0.031967
   6 C :   -0.048567
   7 H :    0.033965
   8 H :    0.037386
   9 C :   -0.042250
  10 H :    0.025282
  11 H :    0.032371
  12 C :   -0.070370
  13 H :    0.027605
  14 H :    0.027044
  15 H :    0.029441
  16 S :    0.399368
  17 C :   -0.176595
  18 C :   -0.068343
  19 C :   -0.056071
  20 C :   -0.200856
  21 H :    0.028922
  22 C :   -0.026903
  23 H :    0.028829
  24 H :    0.030629
  25 C :   -0.052057
  26 H :    0.020141
  27 H :    0.027832
  28 C :   -0.078794
  29 H :    0.035371
  30 H :    0.025151
  31 H :    0.027987
  32 H :    0.029234
  33 H :    0.028728

  Mayer bond orders larger than 0.100000
B(  0-S ,  1-C ) :   1.1248 B(  0-S ,  4-C ) :   1.1559 B(  1-C ,  2-C ) :   1.6404
B(  1-C , 32-H ) :   0.9675 B(  2-C ,  3-C ) :   1.2285 B(  2-C ,  6-C ) :   1.0062
B(  3-C ,  4-C ) :   1.6211 B(  3-C ,  5-H ) :   0.9927 B(  4-C , 20-C ) :   0.9694
B(  6-C ,  7-H ) :   0.9478 B(  6-C ,  8-H ) :   0.9491 B(  6-C ,  9-C ) :   1.0506
B(  9-C , 10-H ) :   0.9598 B(  9-C , 11-H ) :   0.9547 B(  9-C , 12-C ) :   1.0769
B( 12-C , 13-H ) :   0.9721 B( 12-C , 14-H ) :   0.9776 B( 12-C , 15-H ) :   0.9721
B( 16-S , 17-C ) :   1.1435 B( 16-S , 20-C ) :   1.1397 B( 17-C , 18-C ) :   1.6396
B( 17-C , 33-H ) :   0.9624 B( 18-C , 19-C ) :   1.2257 B( 18-C , 21-H ) :   0.9956
B( 19-C , 20-C ) :   1.6500 B( 19-C , 22-C ) :   1.0237 B( 22-C , 23-H ) :   0.9349
B( 22-C , 24-H ) :   0.9279 B( 22-C , 25-C ) :   1.0866 B( 25-C , 26-H ) :   0.9449
B( 25-C , 27-H ) :   0.9432 B( 25-C , 28-C ) :   1.0954 B( 28-C , 29-H ) :   0.9685
B( 28-C , 30-H ) :   0.9693 B( 28-C , 31-H ) :   0.9697

Dispersion correction           -0.014808255
FINAL SINGLE POINT ENERGY     -1339.876014820513

DIPOLE MOMENT
-------------
                                X             Y             Z
Electronic contribution:    -23.81173       7.25342       4.19094
Nuclear contribution   :     24.47272      -7.58245      -4.26406
                        -----------------------------------------
Total Dipole Moment    :      0.66100      -0.32904      -0.07312
                        -----------------------------------------
Magnitude (a.u.)       :      0.74198
Magnitude (Debye)      :      1.88596

Rotational constants in cm-1:     0.020605     0.007730     0.006886
Rotational constants in MHz :   617.713637   231.734314   206.433839

                             ****ORCA TERMINATED NORMALLY****
TOTAL RUN TIME: 0 days 0 hours 0 minutes 21 seconds 495 msec
