                         Program Version 4.2.1 -  RELEASE  -
|  1> ! wB97X-D3 SP def2-SVP
|  2> %pal
|  3> nprocs 24
|  4> end
|  5>
|  6> * xyz 0 1
|  7> S 	 -54.2079 	 -0.992855 	 -21.3526
|  8> C 	 -52.8637 	 -0.192803 	 -22.1134
|  9> C 	 -53.1776 	 1.12668 	 -22.3006
| 10> C 	 -54.4806 	 1.43974 	 -21.8749
| 11> C 	 -55.1736 	 0.456536 	 -21.2877
| 12> H 	 -54.9658 	 2.40592 	 -21.7656
| 13> C 	 -52.2009 	 2.13898 	 -22.8846
| 14> H 	 -51.2338 	 1.89218 	 -22.4035
| 15> H 	 -52.3829 	 3.1246 	 -22.4215
| 16> C 	 -52.1121 	 2.20736 	 -24.408
| 17> H 	 -51.9509 	 1.25887 	 -24.8343
| 18> H 	 -53.0735 	 2.46742 	 -24.8143
| 19> C 	 -50.9694 	 3.11611 	 -24.9716
| 20> H 	 -50.0162 	 2.75091 	 -24.6881
| 21> H 	 -51.0192 	 3.22456 	 -26.0405
| 22> H 	 -50.9663 	 4.17314 	 -24.5649
| 23> S 	 -57.859 	 1.20919 	 -21.4509
| 24> C 	 -58.7215 	 1.27243 	 -19.9927
| 25> C 	 -58.2522 	 0.399348 	 -19.0472
| 26> C 	 -56.9115 	 0.0750486 	 -19.309
| 27> C 	 -56.4831 	 0.504042 	 -20.5765
| 28> H 	 -58.823 	 0.192813 	 -18.1898
| 29> C 	 -56.0897 	 -0.683021 	 -18.3266
| 30> H 	 -55.2315 	 -1.16887 	 -18.8524
| 31> H 	 -56.7056 	 -1.51534 	 -18.0391
| 32> C 	 -55.8419 	 0.161585 	 -17.0646
| 33> H 	 -56.8623 	 0.401467 	 -16.597
| 34> H 	 -55.3583 	 1.11539 	 -17.4337
| 35> C 	 -54.8831 	 -0.57685 	 -16.076
| 36> H 	 -54.8775 	 0.0924676 	 -15.2368
| 37> H 	 -53.8665 	 -0.659685 	 -16.4816
| 38> H 	 -55.2096 	 -1.48917 	 -15.7337
| 39> H 	 -51.9005 	 -0.671129 	 -22.4185
| 40> H 	 -59.7376 	 1.69934 	 -19.8336
| 41> *
| 42>
| 43>                          ****END OF INPUT****

CARTESIAN COORDINATES (ANGSTROEM)
---------------------------------
  S    -54.207900   -0.992855  -21.352600
  C    -52.863700   -0.192803  -22.113400
  C    -53.177600    1.126680  -22.300600
  C    -54.480600    1.439740  -21.874900
  C    -55.173600    0.456536  -21.287700
  H    -54.965800    2.405920  -21.765600
  C    -52.200900    2.138980  -22.884600
  H    -51.233800    1.892180  -22.403500
  H    -52.382900    3.124600  -22.421500
  C    -52.112100    2.207360  -24.408000
  H    -51.950900    1.258870  -24.834300
  H    -53.073500    2.467420  -24.814300
  C    -50.969400    3.116110  -24.971600
  H    -50.016200    2.750910  -24.688100
  H    -51.019200    3.224560  -26.040500
  H    -50.966300    4.173140  -24.564900
  S    -57.859000    1.209190  -21.450900
  C    -58.721500    1.272430  -19.992700
  C    -58.252200    0.399348  -19.047200
  C    -56.911500    0.075049  -19.309000
  C    -56.483100    0.504042  -20.576500
  H    -58.823000    0.192813  -18.189800
  C    -56.089700   -0.683021  -18.326600
  H    -55.231500   -1.168870  -18.852400
  H    -56.705600   -1.515340  -18.039100
  C    -55.841900    0.161585  -17.064600
  H    -56.862300    0.401467  -16.597000
  H    -55.358300    1.115390  -17.433700
  C    -54.883100   -0.576850  -16.076000
  H    -54.877500    0.092468  -15.236800
  H    -53.866500   -0.659685  -16.481600
  H    -55.209600   -1.489170  -15.733700
  H    -51.900500   -0.671129  -22.418500
  H    -59.737600    1.699340  -19.833600

 Total Charge           Charge          ....    0
 Multiplicity           Mult            ....    1
 Number of Electrons    NEL             ....  134
 Basis Dimension        Dim             ....  322

ORBITAL ENERGIES
----------------

  NO   OCC          E(Eh)            E(eV)
   0   2.0000     -88.965774     -2420.8818
   1   2.0000     -88.961683     -2420.7705
   2   2.0000     -10.327837      -281.0347
   3   2.0000     -10.325452      -280.9698
   4   2.0000     -10.315791      -280.7069
   5   2.0000     -10.313934      -280.6564
   6   2.0000     -10.300182      -280.2822
   7   2.0000     -10.297938      -280.2211
   8   2.0000     -10.297196      -280.2010
   9   2.0000     -10.293564      -280.1021
  10   2.0000     -10.285573      -279.8847
  11   2.0000     -10.285498      -279.8826
  12   2.0000     -10.283638      -279.8320
  13   2.0000     -10.283508      -279.8285
  14   2.0000     -10.279399      -279.7167
  15   2.0000     -10.270861      -279.4843
  16   2.0000      -8.081059      -219.8968
  17   2.0000      -8.076674      -219.7775
  18   2.0000      -6.039384      -164.3400
  19   2.0000      -6.035785      -164.2421
  20   2.0000      -6.035134      -164.2244
  21   2.0000      -6.031679      -164.1303
  22   2.0000      -6.031036      -164.1128
  23   2.0000      -6.027560      -164.0182
  24   2.0000      -1.011745       -27.5310
  25   2.0000      -0.993876       -27.0448
  26   2.0000      -0.909517       -24.7492
  27   2.0000      -0.907163       -24.6852
  28   2.0000      -0.868027       -23.6202
  29   2.0000      -0.851972       -23.1833
  30   2.0000      -0.845184       -22.9986
  31   2.0000      -0.818257       -22.2659
  32   2.0000      -0.783699       -21.3255
  33   2.0000      -0.769919       -20.9506
  34   2.0000      -0.708792       -19.2872
  35   2.0000      -0.701204       -19.0807
  36   2.0000      -0.688978       -18.7480
  37   2.0000      -0.663951       -18.0670
  38   2.0000      -0.640774       -17.4364
  39   2.0000      -0.617285       -16.7972
  40   2.0000      -0.593076       -16.1384
  41   2.0000      -0.571421       -15.5492
  42   2.0000      -0.560561       -15.2536
  43   2.0000      -0.551463       -15.0061
  44   2.0000      -0.528828       -14.3901
  45   2.0000      -0.526942       -14.3388
  46   2.0000      -0.516755       -14.0616
  47   2.0000      -0.510674       -13.8961
  48   2.0000      -0.508642       -13.8409
  49   2.0000      -0.500153       -13.6099
  50   2.0000      -0.489659       -13.3243
  51   2.0000      -0.478598       -13.0233
  52   2.0000      -0.469569       -12.7776
  53   2.0000      -0.468687       -12.7536
  54   2.0000      -0.458762       -12.4836
  55   2.0000      -0.449990       -12.2449
  56   2.0000      -0.445022       -12.1097
  57   2.0000      -0.438503       -11.9323
  58   2.0000      -0.437498       -11.9049
  59   2.0000      -0.421832       -11.4786
  60   2.0000      -0.417094       -11.3497
  61   2.0000      -0.415488       -11.3060
  62   2.0000      -0.410298       -11.1648
  63   2.0000      -0.344833        -9.3834
  64   2.0000      -0.331945        -9.0327
  65   2.0000      -0.327889        -8.9223
  66   2.0000      -0.293177        -7.9778
  67   0.0000       0.029665         0.8072
  68   0.0000       0.075828         2.0634
  69   0.0000       0.104573         2.8456
  70   0.0000       0.123523         3.3612
  71   0.0000       0.139288         3.7902

MULLIKEN ATOMIC CHARGES
-----------------------
   0 S :    0.097181
   1 C :   -0.137630
   2 C :   -0.084476
   3 C :    0.027001
   4 C :   -0.143598
   5 H :    0.008275
   6 C :    0.050620
   7 H :    0.019513
   8 H :    0.021942
   9 C :   -0.013763
  10 H :    0.011084
  11 H :    0.019943
  12 C :   -0.049343
  13 H :    0.020129
  14 H :    0.036382
  15 H :    0.029108
  16 S :    0.123232
  17 C :   -0.100776
  18 C :   -0.029907
  19 C :   -0.041465
  20 C :   -0.165523
  21 H :    0.005354
  22 C :    0.094723
  23 H :    0.023619
  24 H :    0.015343
  25 C :   -0.154594
  26 H :    0.043584
  27 H :    0.047574
  28 C :    0.019775
  29 H :    0.024249
  30 H :    0.040218
  31 H :    0.011730
  32 H :    0.066461
  33 H :    0.064034
Sum of atomic charges:   -0.0000000

LOEWDIN ATOMIC CHARGES
----------------------
   0 S :    0.413350
   1 C :   -0.201475
   2 C :   -0.070743
   3 C :   -0.072453
   4 C :   -0.194710
   5 H :    0.033653
   6 C :   -0.034259
   7 H :    0.031182
   8 H :    0.031330
   9 C :   -0.034054
  10 H :    0.018892
  11 H :    0.023642
  12 C :   -0.063554
  13 H :    0.017461
  14 H :    0.025330
  15 H :    0.029106
  16 S :    0.418705
  17 C :   -0.197965
  18 C :   -0.069869
  19 C :   -0.049435
  20 C :   -0.198707
  21 H :    0.024467
  22 C :   -0.044538
  23 H :    0.022165
  24 H :    0.029191
  25 C :   -0.038826
  26 H :    0.030316
  27 H :    0.032333
  28 C :   -0.056417
  29 H :    0.025716
  30 H :    0.031565
  31 H :    0.011415
  32 H :    0.041237
  33 H :    0.035950

  Mayer bond orders larger than 0.100000
B(  0-S ,  1-C ) :   1.1474 B(  0-S ,  4-C ) :   1.1459 B(  1-C ,  2-C ) :   1.6055
B(  1-C , 32-H ) :   0.9662 B(  2-C ,  3-C ) :   1.2398 B(  2-C ,  6-C ) :   1.0124
B(  3-C ,  4-C ) :   1.6060 B(  3-C ,  5-H ) :   0.9938 B(  4-C , 20-C ) :   1.0120
B(  6-C ,  7-H ) :   0.9431 B(  6-C ,  8-H ) :   0.9417 B(  6-C ,  9-C ) :   1.0604
B(  9-C , 10-H ) :   0.9542 B(  9-C , 11-H ) :   0.9540 B(  9-C , 12-C ) :   1.0753
B( 12-C , 13-H ) :   0.9767 B( 12-C , 14-H ) :   0.9764 B( 12-C , 15-H ) :   0.9765
B( 16-S , 17-C ) :   1.1780 B( 16-S , 20-C ) :   1.1363 B( 17-C , 18-C ) :   1.5999
B( 17-C , 33-H ) :   0.9577 B( 18-C , 19-C ) :   1.2473 B( 18-C , 21-H ) :   0.9946
B( 19-C , 20-C ) :   1.5745 B( 19-C , 22-C ) :   1.0513 B( 22-C , 23-H ) :   0.9323
B( 22-C , 24-H ) :   0.9208 B( 22-C , 25-C ) :   1.0443 B( 25-C , 26-H ) :   0.9546
B( 25-C , 27-H ) :   0.9586 B( 25-C , 28-C ) :   1.0793 B( 28-C , 29-H ) :   0.9740
B( 28-C , 30-H ) :   0.9743 B( 28-C , 31-H ) :   0.9733

Dispersion correction           -0.013648225
FINAL SINGLE POINT ENERGY     -1339.869797844274

DIPOLE MOMENT
-------------
                                X             Y             Z
Electronic contribution:    -16.63420      -6.93153      -5.07265
Nuclear contribution   :     16.79803       7.08404       5.37386
                        -----------------------------------------
Total Dipole Moment    :      0.16383       0.15251       0.30121
                        -----------------------------------------
Magnitude (a.u.)       :      0.37527
Magnitude (Debye)      :      0.95386

Rotational constants in cm-1:     0.021124     0.007224     0.006044
Rotational constants in MHz :   633.287151   216.581645   181.184589

                             ****ORCA TERMINATED NORMALLY****
TOTAL RUN TIME: 0 days 0 hours 0 minutes 20 seconds 892 msec
