                         Program Version 4.2.1 -  RELEASE  -
|  1> ! wB97X-D3 SP def2-SVP
|  2> %pal
|  3> nprocs 24
|  4> end
|  5>
|  6> * xyz 0 1
|  7> S 	 -65.5118 	 7.42396 	 -78.0268
|  8> C 	 -64.7915 	 6.11088 	 -78.9343
|  9> C 	 -65.405 	 5.93574 	 -80.238
| 10> C 	 -66.3431 	 6.98884 	 -80.4575
| 11> C 	 -66.3703 	 7.93142 	 -79.4988
| 12> H 	 -66.8989 	 7.11899 	 -81.3417
| 13> C 	 -65.1179 	 4.98735 	 -81.2976
| 14> H 	 -65.6064 	 3.99639 	 -81.0818
| 15> H 	 -64.0759 	 4.69135 	 -81.2765
| 16> C 	 -65.4775 	 5.36712 	 -82.8519
| 17> H 	 -66.5645 	 5.46772 	 -82.9236
| 18> H 	 -65.0544 	 6.32614 	 -83.1692
| 19> C 	 -64.9959 	 4.32109 	 -83.9586
| 20> H 	 -65.4924 	 3.41221 	 -83.693
| 21> H 	 -65.4297 	 4.57658 	 -84.9476
| 22> H 	 -63.9663 	 4.05283 	 -84.0685
| 23> S 	 -66.7111 	 10.1506 	 -81.1465
| 24> C 	 -67.8156 	 11.38 	 -80.656
| 25> C 	 -68.2419 	 11.2125 	 -79.3697
| 26> C 	 -67.7289 	 10.0033 	 -78.7984
| 27> C 	 -66.9492 	 9.26524 	 -79.6945
| 28> H 	 -68.8319 	 11.9983 	 -78.8675
| 29> C 	 -68.21 	 9.50021 	 -77.448
| 30> H 	 -67.9013 	 8.49217 	 -77.4602
| 31> H 	 -69.3299 	 9.53195 	 -77.4655
| 32> C 	 -67.5935 	 10.0951 	 -76.1902
| 33> H 	 -67.9826 	 11.1235 	 -76.1714
| 34> H 	 -66.5345 	 10.0382 	 -76.4138
| 35> C 	 -68.0775 	 9.17305 	 -75.0189
| 36> H 	 -67.5292 	 9.37886 	 -74.0815
| 37> H 	 -67.8359 	 8.05025 	 -75.2416
| 38> H 	 -69.1785 	 9.27196 	 -74.8131
| 39> H 	 -63.9567 	 5.53118 	 -78.5027
| 40> H 	 -68.0127 	 12.2531 	 -81.1815
| 41> *
| 42>
| 43>                          ****END OF INPUT****

CARTESIAN COORDINATES (ANGSTROEM)
---------------------------------
  S    -65.511800    7.423960  -78.026800
  C    -64.791500    6.110880  -78.934300
  C    -65.405000    5.935740  -80.238000
  C    -66.343100    6.988840  -80.457500
  C    -66.370300    7.931420  -79.498800
  H    -66.898900    7.118990  -81.341700
  C    -65.117900    4.987350  -81.297600
  H    -65.606400    3.996390  -81.081800
  H    -64.075900    4.691350  -81.276500
  C    -65.477500    5.367120  -82.851900
  H    -66.564500    5.467720  -82.923600
  H    -65.054400    6.326140  -83.169200
  C    -64.995900    4.321090  -83.958600
  H    -65.492400    3.412210  -83.693000
  H    -65.429700    4.576580  -84.947600
  H    -63.966300    4.052830  -84.068500
  S    -66.711100   10.150600  -81.146500
  C    -67.815600   11.380000  -80.656000
  C    -68.241900   11.212500  -79.369700
  C    -67.728900   10.003300  -78.798400
  C    -66.949200    9.265240  -79.694500
  H    -68.831900   11.998300  -78.867500
  C    -68.210000    9.500210  -77.448000
  H    -67.901300    8.492170  -77.460200
  H    -69.329900    9.531950  -77.465500
  C    -67.593500   10.095100  -76.190200
  H    -67.982600   11.123500  -76.171400
  H    -66.534500   10.038200  -76.413800
  C    -68.077500    9.173050  -75.018900
  H    -67.529200    9.378860  -74.081500
  H    -67.835900    8.050250  -75.241600
  H    -69.178500    9.271960  -74.813100
  H    -63.956700    5.531180  -78.502700
  H    -68.012700   12.253100  -81.181500

 Total Charge           Charge          ....    0
 Multiplicity           Mult            ....    1
 Number of Electrons    NEL             ....  134
 Basis Dimension        Dim             ....  322

ORBITAL ENERGIES
----------------

  NO   OCC          E(Eh)            E(eV)
   0   2.0000     -88.970763     -2421.0175
   1   2.0000     -88.966831     -2420.9106
   2   2.0000     -10.326590      -281.0008
   3   2.0000     -10.323942      -280.9287
   4   2.0000     -10.322413      -280.8871
   5   2.0000     -10.309058      -280.5237
   6   2.0000     -10.307127      -280.4712
   7   2.0000     -10.303342      -280.3682
   8   2.0000     -10.300321      -280.2860
   9   2.0000     -10.295792      -280.1627
  10   2.0000     -10.291163      -280.0368
  11   2.0000     -10.291009      -280.0326
  12   2.0000     -10.286841      -279.9192
  13   2.0000     -10.285594      -279.8852
  14   2.0000     -10.283019      -279.8152
  15   2.0000     -10.279892      -279.7301
  16   2.0000      -8.084519      -219.9909
  17   2.0000      -8.082264      -219.9296
  18   2.0000      -6.043023      -164.4390
  19   2.0000      -6.040662      -164.3748
  20   2.0000      -6.039339      -164.3388
  21   2.0000      -6.036698      -164.2669
  22   2.0000      -6.035203      -164.2262
  23   2.0000      -6.033080      -164.1684
  24   2.0000      -1.008917       -27.4540
  25   2.0000      -0.984701       -26.7951
  26   2.0000      -0.909939       -24.7607
  27   2.0000      -0.902003       -24.5447
  28   2.0000      -0.868878       -23.6434
  29   2.0000      -0.850900       -23.1542
  30   2.0000      -0.843343       -22.9485
  31   2.0000      -0.817299       -22.2398
  32   2.0000      -0.775558       -21.1040
  33   2.0000      -0.762928       -20.7603
  34   2.0000      -0.714451       -19.4412
  35   2.0000      -0.697876       -18.9902
  36   2.0000      -0.689714       -18.7681
  37   2.0000      -0.664556       -18.0835
  38   2.0000      -0.636514       -17.3204
  39   2.0000      -0.624778       -17.0011
  40   2.0000      -0.594031       -16.1644
  41   2.0000      -0.570963       -15.5367
  42   2.0000      -0.564362       -15.3571
  43   2.0000      -0.557240       -15.1633
  44   2.0000      -0.523298       -14.2397
  45   2.0000      -0.516266       -14.0483
  46   2.0000      -0.512716       -13.9517
  47   2.0000      -0.506155       -13.7732
  48   2.0000      -0.500707       -13.6249
  49   2.0000      -0.497770       -13.5450
  50   2.0000      -0.485073       -13.1995
  51   2.0000      -0.482777       -13.1370
  52   2.0000      -0.473694       -12.8899
  53   2.0000      -0.464181       -12.6310
  54   2.0000      -0.462270       -12.5790
  55   2.0000      -0.449122       -12.2212
  56   2.0000      -0.443509       -12.0685
  57   2.0000      -0.439111       -11.9488
  58   2.0000      -0.431695       -11.7470
  59   2.0000      -0.424529       -11.5520
  60   2.0000      -0.422963       -11.5094
  61   2.0000      -0.417427       -11.3588
  62   2.0000      -0.413125       -11.2417
  63   2.0000      -0.350448        -9.5362
  64   2.0000      -0.333631        -9.0786
  65   2.0000      -0.325236        -8.8501
  66   2.0000      -0.283160        -7.7052
  67   0.0000       0.026402         0.7184
  68   0.0000       0.068829         1.8729
  69   0.0000       0.098112         2.6698
  70   0.0000       0.120404         3.2764
  71   0.0000       0.134639         3.6637

MULLIKEN ATOMIC CHARGES
-----------------------
   0 S :    0.107084
   1 C :   -0.141218
   2 C :   -0.044691
   3 C :    0.004312
   4 C :   -0.129850
   5 H :   -0.001646
   6 C :    0.031906
   7 H :    0.047188
   8 H :    0.023794
   9 C :   -0.112685
  10 H :    0.045611
  11 H :    0.044358
  12 C :   -0.047167
  13 H :    0.016673
  14 H :    0.039576
  15 H :    0.039976
  16 S :    0.123253
  17 C :   -0.073059
  18 C :   -0.030956
  19 C :   -0.060757
  20 C :   -0.131739
  21 H :    0.028537
  22 C :    0.024316
  23 H :   -0.011374
  24 H :    0.039248
  25 C :   -0.034982
  26 H :    0.034604
  27 H :    0.032527
  28 C :   -0.089414
  29 H :    0.040851
  30 H :    0.046477
  31 H :    0.047155
  32 H :    0.062216
  33 H :    0.029880
Sum of atomic charges:    0.0000000

LOEWDIN ATOMIC CHARGES
----------------------
   0 S :    0.398787
   1 C :   -0.203456
   2 C :   -0.055496
   3 C :   -0.059278
   4 C :   -0.175401
   5 H :    0.024074
   6 C :   -0.044614
   7 H :    0.043368
   8 H :    0.032560
   9 C :   -0.034424
  10 H :    0.024021
  11 H :    0.023598
  12 C :   -0.067246
  13 H :    0.020429
  14 H :    0.033730
  15 H :    0.022795
  16 S :    0.434860
  17 C :   -0.187374
  18 C :   -0.071043
  19 C :   -0.062633
  20 C :   -0.209627
  21 H :    0.036917
  22 C :   -0.039712
  23 H :    0.005496
  24 H :    0.033881
  25 C :   -0.037503
  26 H :    0.025798
  27 H :    0.023877
  28 C :   -0.075828
  29 H :    0.024436
  30 H :    0.036524
  31 H :    0.031843
  32 H :    0.030369
  33 H :    0.016274

  Mayer bond orders larger than 0.100000
B(  0-S ,  1-C ) :   1.1437 B(  0-S ,  4-C ) :   1.1271 B(  1-C ,  2-C ) :   1.5712
B(  1-C , 32-H ) :   0.9694 B(  2-C ,  3-C ) :   1.2308 B(  2-C ,  6-C ) :   1.0504
B(  3-C ,  4-C ) :   1.5827 B(  3-C ,  5-H ) :   0.9989 B(  4-C , 20-C ) :   1.0420
B(  6-C ,  7-H ) :   0.9205 B(  6-C ,  8-H ) :   0.9383 B(  6-C ,  9-C ) :   1.0528
B(  9-C , 10-H ) :   0.9501 B(  9-C , 11-H ) :   0.9653 B(  9-C , 12-C ) :   1.0718
B( 12-C , 13-H ) :   0.9755 B( 12-C , 14-H ) :   0.9750 B( 12-C , 15-H ) :   0.9803
B( 16-S , 17-C ) :   1.1606 B( 16-S , 20-C ) :   1.1488 B( 17-C , 18-C ) :   1.6021
B( 17-C , 33-H ) :   0.9721 B( 18-C , 19-C ) :   1.2577 B( 18-C , 21-H ) :   0.9881
B( 19-C , 20-C ) :   1.5585 B( 19-C , 22-C ) :   1.0431 B( 22-C , 23-H ) :   0.9268
B( 22-C , 24-H ) :   0.9401 B( 22-C , 25-C ) :   1.0500 B( 25-C , 26-H ) :   0.9577
B( 25-C , 27-H ) :   0.9519 B( 25-C , 28-C ) :   1.0719 B( 28-C , 29-H ) :   0.9762
B( 28-C , 30-H ) :   0.9720 B( 28-C , 31-H ) :   0.9736

Dispersion correction           -0.014151687
FINAL SINGLE POINT ENERGY     -1339.860458021055

DIPOLE MOMENT
-------------
                                X             Y             Z
Electronic contribution:      2.69858      11.02243      -0.23074
Nuclear contribution   :     -2.75680     -11.22014       0.03814
                        -----------------------------------------
Total Dipole Moment    :     -0.05822      -0.19771      -0.19260
                        -----------------------------------------
Magnitude (a.u.)       :      0.28209
Magnitude (Debye)      :      0.71701

Rotational constants in cm-1:     0.020786     0.008247     0.006228
Rotational constants in MHz :   623.134433   247.237250   186.698187

                             ****ORCA TERMINATED NORMALLY****
TOTAL RUN TIME: 0 days 0 hours 0 minutes 21 seconds 52 msec
