                         Program Version 4.2.1 -  RELEASE  -
|  1> ! wB97X-D3 SP def2-SVP
|  2> %pal
|  3> nprocs 24
|  4> end
|  5>
|  6> * xyz 0 1
|  7> S 	 -138.052 	 2.49638 	 4.62722
|  8> C 	 -137.896 	 2.29898 	 2.914
|  9> C 	 -137.274 	 3.36458 	 2.33892
| 10> C 	 -136.843 	 4.33627 	 3.31649
| 11> C 	 -137.247 	 3.99796 	 4.56193
| 12> H 	 -136.135 	 5.1897 	 3.27025
| 13> C 	 -137.105 	 3.52455 	 0.880193
| 14> H 	 -136.468 	 2.75165 	 0.437985
| 15> H 	 -136.688 	 4.54758 	 0.687911
| 16> C 	 -138.393 	 3.45811 	 0.0395264
| 17> H 	 -138.154 	 3.5031 	 -1.01315
| 18> H 	 -138.766 	 2.38347 	 0.129291
| 19> C 	 -139.475 	 4.53257 	 0.395032
| 20> H 	 -139.88 	 4.51514 	 1.41127
| 21> H 	 -139.086 	 5.50017 	 0.345407
| 22> H 	 -140.183 	 4.42255 	 -0.408749
| 23> S 	 -137.852 	 5.84375 	 6.54649
| 24> C 	 -136.789 	 5.98463 	 7.9279
| 25> C 	 -135.603 	 5.32387 	 7.69723
| 26> C 	 -135.6 	 4.49178 	 6.48694
| 27> C 	 -136.808 	 4.62974 	 5.76697
| 28> H 	 -134.813 	 5.44128 	 8.45867
| 29> C 	 -134.369 	 3.75887 	 6.07442
| 30> H 	 -134.527 	 3.47244 	 5.08519
| 31> H 	 -134.34 	 2.75047 	 6.60327
| 32> C 	 -132.985 	 4.45092 	 6.00431
| 33> H 	 -132.279 	 3.77155 	 5.52117
| 34> H 	 -132.641 	 4.58627 	 7.02839
| 35> C 	 -132.908 	 5.78754 	 5.28998
| 36> H 	 -133.086 	 5.67265 	 4.24605
| 37> H 	 -132.035 	 6.2809 	 5.4965
| 38> H 	 -133.757 	 6.36306 	 5.57691
| 39> H 	 -138.277 	 1.51179 	 2.33771
| 40> H 	 -136.885 	 6.77111 	 8.68221
| 41> *
| 42>
| 43>                          ****END OF INPUT****

CARTESIAN COORDINATES (ANGSTROEM)
---------------------------------
  S    -138.052000    2.496380    4.627220
  C    -137.896000    2.298980    2.914000
  C    -137.274000    3.364580    2.338920
  C    -136.843000    4.336270    3.316490
  C    -137.247000    3.997960    4.561930
  H    -136.135000    5.189700    3.270250
  C    -137.105000    3.524550    0.880193
  H    -136.468000    2.751650    0.437985
  H    -136.688000    4.547580    0.687911
  C    -138.393000    3.458110    0.039526
  H    -138.154000    3.503100   -1.013150
  H    -138.766000    2.383470    0.129291
  C    -139.475000    4.532570    0.395032
  H    -139.880000    4.515140    1.411270
  H    -139.086000    5.500170    0.345407
  H    -140.183000    4.422550   -0.408749
  S    -137.852000    5.843750    6.546490
  C    -136.789000    5.984630    7.927900
  C    -135.603000    5.323870    7.697230
  C    -135.600000    4.491780    6.486940
  C    -136.808000    4.629740    5.766970
  H    -134.813000    5.441280    8.458670
  C    -134.369000    3.758870    6.074420
  H    -134.527000    3.472440    5.085190
  H    -134.340000    2.750470    6.603270
  C    -132.985000    4.450920    6.004310
  H    -132.279000    3.771550    5.521170
  H    -132.641000    4.586270    7.028390
  C    -132.908000    5.787540    5.289980
  H    -133.086000    5.672650    4.246050
  H    -132.035000    6.280900    5.496500
  H    -133.757000    6.363060    5.576910
  H    -138.277000    1.511790    2.337710
  H    -136.885000    6.771110    8.682210

 Total Charge           Charge          ....    0
 Multiplicity           Mult            ....    1
 Number of Electrons    NEL             ....  134
 Basis Dimension        Dim             ....  322

ORBITAL ENERGIES
----------------

  NO   OCC          E(Eh)            E(eV)
   0   2.0000     -88.964915     -2420.8584
   1   2.0000     -88.962253     -2420.7860
   2   2.0000     -10.327378      -281.0222
   3   2.0000     -10.317624      -280.7568
   4   2.0000     -10.317011      -280.7401
   5   2.0000     -10.310017      -280.5498
   6   2.0000     -10.306484      -280.4537
   7   2.0000     -10.297821      -280.2179
   8   2.0000     -10.297018      -280.1961
   9   2.0000     -10.295019      -280.1417
  10   2.0000     -10.292706      -280.0788
  11   2.0000     -10.290696      -280.0241
  12   2.0000     -10.287081      -279.9257
  13   2.0000     -10.286445      -279.9084
  14   2.0000     -10.272091      -279.5178
  15   2.0000     -10.263312      -279.2789
  16   2.0000      -8.080943      -219.8936
  17   2.0000      -8.076712      -219.7785
  18   2.0000      -6.039342      -164.3389
  19   2.0000      -6.035277      -164.2282
  20   2.0000      -6.035257      -164.2277
  21   2.0000      -6.031709      -164.1311
  22   2.0000      -6.031248      -164.1186
  23   2.0000      -6.027465      -164.0157
  24   2.0000      -1.013480       -27.5782
  25   2.0000      -0.981632       -26.7116
  26   2.0000      -0.914003       -24.8713
  27   2.0000      -0.909334       -24.7442
  28   2.0000      -0.871653       -23.7189
  29   2.0000      -0.848833       -23.0979
  30   2.0000      -0.847538       -23.0627
  31   2.0000      -0.816209       -22.2102
  32   2.0000      -0.788441       -21.4546
  33   2.0000      -0.775900       -21.1133
  34   2.0000      -0.710523       -19.3343
  35   2.0000      -0.706617       -19.2280
  36   2.0000      -0.693773       -18.8785
  37   2.0000      -0.648700       -17.6520
  38   2.0000      -0.646761       -17.5993
  39   2.0000      -0.607748       -16.5377
  40   2.0000      -0.592884       -16.1332
  41   2.0000      -0.572667       -15.5831
  42   2.0000      -0.557311       -15.1652
  43   2.0000      -0.553491       -15.0613
  44   2.0000      -0.544197       -14.8083
  45   2.0000      -0.540551       -14.7091
  46   2.0000      -0.518576       -14.1112
  47   2.0000      -0.513542       -13.9742
  48   2.0000      -0.507656       -13.8140
  49   2.0000      -0.499202       -13.5840
  50   2.0000      -0.495063       -13.4713
  51   2.0000      -0.478192       -13.0123
  52   2.0000      -0.472989       -12.8707
  53   2.0000      -0.465218       -12.6592
  54   2.0000      -0.459873       -12.5138
  55   2.0000      -0.446398       -12.1471
  56   2.0000      -0.440664       -11.9911
  57   2.0000      -0.436158       -11.8685
  58   2.0000      -0.435358       -11.8467
  59   2.0000      -0.428854       -11.6697
  60   2.0000      -0.418284       -11.3821
  61   2.0000      -0.409762       -11.1502
  62   2.0000      -0.409584       -11.1453
  63   2.0000      -0.335045        -9.1170
  64   2.0000      -0.326958        -8.8970
  65   2.0000      -0.321862        -8.7583
  66   2.0000      -0.312964        -8.5162
  67   0.0000       0.048062         1.3078
  68   0.0000       0.052570         1.4305
  69   0.0000       0.109692         2.9849
  70   0.0000       0.121773         3.3136
  71   0.0000       0.127877         3.4797

MULLIKEN ATOMIC CHARGES
-----------------------
   0 S :    0.132976
   1 C :   -0.099701
   2 C :   -0.071967
   3 C :    0.028859
   4 C :   -0.169643
   5 H :    0.028417
   6 C :    0.062172
   7 H :    0.038842
   8 H :    0.023826
   9 C :   -0.114193
  10 H :    0.025174
  11 H :    0.023204
  12 C :   -0.013172
  13 H :    0.049445
  14 H :    0.009045
  15 H :    0.033556
  16 S :    0.099421
  17 C :   -0.094884
  18 C :   -0.055115
  19 C :   -0.032834
  20 C :   -0.200994
  21 H :    0.032897
  22 C :    0.086732
  23 H :   -0.003539
  24 H :    0.049647
  25 C :   -0.082806
  26 H :    0.031903
  27 H :    0.023155
  28 C :    0.008348
  29 H :    0.014620
  30 H :    0.024292
  31 H :    0.023434
  32 H :    0.022163
  33 H :    0.066720
Sum of atomic charges:   -0.0000000

LOEWDIN ATOMIC CHARGES
----------------------
   0 S :    0.437621
   1 C :   -0.188380
   2 C :   -0.067239
   3 C :   -0.061098
   4 C :   -0.219714
   5 H :    0.041605
   6 C :   -0.040907
   7 H :    0.035466
   8 H :    0.031525
   9 C :   -0.040415
  10 H :    0.021705
  11 H :    0.022149
  12 C :   -0.061157
  13 H :    0.032625
  14 H :    0.016689
  15 H :    0.028026
  16 S :    0.390542
  17 C :   -0.190288
  18 C :   -0.076561
  19 C :   -0.049380
  20 C :   -0.199394
  21 H :    0.035263
  22 C :   -0.041780
  23 H :    0.020716
  24 H :    0.047047
  25 C :   -0.033324
  26 H :    0.027670
  27 H :    0.017975
  28 C :   -0.053448
  29 H :    0.021806
  30 H :    0.017783
  31 H :    0.025428
  32 H :    0.017825
  33 H :    0.033621

  Mayer bond orders larger than 0.100000
B(  0-S ,  1-C ) :   1.1393 B(  0-S ,  4-C ) :   1.1621 B(  1-C ,  2-C ) :   1.6224
B(  1-C , 32-H ) :   0.9780 B(  2-C ,  3-C ) :   1.2051 B(  2-C ,  6-C ) :   1.0286
B(  3-C ,  4-C ) :   1.6096 B(  3-C ,  5-H ) :   0.9922 B(  4-C , 20-C ) :   1.0108
B(  6-C ,  7-H ) :   0.9318 B(  6-C ,  8-H ) :   0.9444 B(  6-C ,  9-C ) :   1.0853
B(  9-C , 10-H ) :   0.9565 B(  9-C , 11-H ) :   0.9525 B(  9-C , 12-C ) :   1.0622
B( 12-C , 13-H ) :   0.9749 B( 12-C , 14-H ) :   0.9740 B( 12-C , 15-H ) :   0.9761
B( 16-S , 17-C ) :   1.1504 B( 16-S , 20-C ) :   1.1408 B( 17-C , 18-C ) :   1.6390
B( 17-C , 33-H ) :   0.9611 B( 18-C , 19-C ) :   1.2050 B( 18-C , 21-H ) :   0.9839
B( 19-C , 20-C ) :   1.5964 B( 19-C , 22-C ) :   1.0610 B( 22-C , 23-H ) :   0.9232
B( 22-C , 24-H ) :   0.9217 B( 22-C , 25-C ) :   1.0678 B( 25-C , 26-H ) :   0.9553
B( 25-C , 27-H ) :   0.9543 B( 25-C , 28-C ) :   1.0832 B( 28-C , 29-H ) :   0.9714
B( 28-C , 30-H ) :   0.9716 B( 28-C , 31-H ) :   0.9702

Dispersion correction           -0.015288405
FINAL SINGLE POINT ENERGY     -1339.870670248565

DIPOLE MOMENT
-------------
                                X             Y             Z
Electronic contribution:    -12.25829      -2.49957      16.56665
Nuclear contribution   :     12.79862       2.54824     -16.96531
                        -----------------------------------------
Total Dipole Moment    :      0.54033       0.04867      -0.39865
                        -----------------------------------------
Magnitude (a.u.)       :      0.67323
Magnitude (Debye)      :      1.71123

Rotational constants in cm-1:     0.021423     0.008134     0.007141
Rotational constants in MHz :   642.249418   243.854888   214.091285

                             ****ORCA TERMINATED NORMALLY****
TOTAL RUN TIME: 0 days 0 hours 0 minutes 22 seconds 940 msec
