                         Program Version 4.2.1 -  RELEASE  -
|  1> ! wB97X-D3 SP def2-SVP
|  2> %pal
|  3> nprocs 24
|  4> end
|  5>
|  6> * xyz 0 1
|  7> S 	 -128.966 	 73.8689 	 -44.0739
|  8> C 	 -130.3 	 74.9473 	 -43.6807
|  9> C 	 -129.821 	 76.2458 	 -43.4005
| 10> C 	 -128.395 	 76.2725 	 -43.4877
| 11> C 	 -127.806 	 75.1265 	 -44.0643
| 12> H 	 -127.79 	 77.1359 	 -43.173
| 13> C 	 -130.656 	 77.4847 	 -43.0998
| 14> H 	 -129.992 	 78.3136 	 -42.7932
| 15> H 	 -131.427 	 77.177 	 -42.3659
| 16> C 	 -131.248 	 78.1086 	 -44.3664
| 17> H 	 -132.039 	 77.4913 	 -44.7549
| 18> H 	 -131.761 	 79.0515 	 -44.1246
| 19> C 	 -130.205 	 78.2193 	 -45.5307
| 20> H 	 -129.664 	 77.2798 	 -45.84
| 21> H 	 -130.755 	 78.5568 	 -46.4431
| 22> H 	 -129.488 	 78.9996 	 -45.2779
| 23> S 	 -125.736 	 73.6057 	 -43.3314
| 24> C 	 -124.126 	 74.0825 	 -43.6959
| 25> C 	 -124.141 	 75.1018 	 -44.618
| 26> C 	 -125.426 	 75.6394 	 -44.8741
| 27> C 	 -126.416 	 74.9313 	 -44.197
| 28> H 	 -123.189 	 75.4046 	 -45.1262
| 29> C 	 -125.616 	 76.8604 	 -45.7438
| 30> H 	 -126.62 	 77.3733 	 -45.7701
| 31> H 	 -125.441 	 76.424 	 -46.7363
| 32> C 	 -124.653 	 77.9407 	 -45.546
| 33> H 	 -123.65 	 77.6513 	 -45.2138
| 34> H 	 -124.951 	 78.3735 	 -44.5857
| 35> C 	 -124.709 	 78.9575 	 -46.7415
| 36> H 	 -125.736 	 79.4006 	 -46.926
| 37> H 	 -124.3 	 78.4686 	 -47.664
| 38> H 	 -124.072 	 79.7577 	 -46.4708
| 39> H 	 -131.294 	 74.6244 	 -43.6587
| 40> H 	 -123.265 	 73.4716 	 -43.5439
| 41> *
| 42>
| 43>                          ****END OF INPUT****

CARTESIAN COORDINATES (ANGSTROEM)
---------------------------------
  S    -128.966000   73.868900  -44.073900
  C    -130.300000   74.947300  -43.680700
  C    -129.821000   76.245800  -43.400500
  C    -128.395000   76.272500  -43.487700
  C    -127.806000   75.126500  -44.064300
  H    -127.790000   77.135900  -43.173000
  C    -130.656000   77.484700  -43.099800
  H    -129.992000   78.313600  -42.793200
  H    -131.427000   77.177000  -42.365900
  C    -131.248000   78.108600  -44.366400
  H    -132.039000   77.491300  -44.754900
  H    -131.761000   79.051500  -44.124600
  C    -130.205000   78.219300  -45.530700
  H    -129.664000   77.279800  -45.840000
  H    -130.755000   78.556800  -46.443100
  H    -129.488000   78.999600  -45.277900
  S    -125.736000   73.605700  -43.331400
  C    -124.126000   74.082500  -43.695900
  C    -124.141000   75.101800  -44.618000
  C    -125.426000   75.639400  -44.874100
  C    -126.416000   74.931300  -44.197000
  H    -123.189000   75.404600  -45.126200
  C    -125.616000   76.860400  -45.743800
  H    -126.620000   77.373300  -45.770100
  H    -125.441000   76.424000  -46.736300
  C    -124.653000   77.940700  -45.546000
  H    -123.650000   77.651300  -45.213800
  H    -124.951000   78.373500  -44.585700
  C    -124.709000   78.957500  -46.741500
  H    -125.736000   79.400600  -46.926000
  H    -124.300000   78.468600  -47.664000
  H    -124.072000   79.757700  -46.470800
  H    -131.294000   74.624400  -43.658700
  H    -123.265000   73.471600  -43.543900

 Total Charge           Charge          ....    0
 Multiplicity           Mult            ....    1
 Number of Electrons    NEL             ....  134
 Basis Dimension        Dim             ....  322

ORBITAL ENERGIES
----------------

  NO   OCC          E(Eh)            E(eV)
   0   2.0000     -88.967709     -2420.9344
   1   2.0000     -88.961836     -2420.7746
   2   2.0000     -10.324181      -280.9353
   3   2.0000     -10.319499      -280.8078
   4   2.0000     -10.314239      -280.6647
   5   2.0000     -10.311121      -280.5799
   6   2.0000     -10.304514      -280.4001
   7   2.0000     -10.302122      -280.3350
   8   2.0000     -10.297443      -280.2077
   9   2.0000     -10.294911      -280.1388
  10   2.0000     -10.294887      -280.1381
  11   2.0000     -10.288709      -279.9700
  12   2.0000     -10.288320      -279.9594
  13   2.0000     -10.287211      -279.9292
  14   2.0000     -10.283293      -279.8226
  15   2.0000     -10.283175      -279.8194
  16   2.0000      -8.082718      -219.9420
  17   2.0000      -8.077883      -219.8104
  18   2.0000      -6.041188      -164.3891
  19   2.0000      -6.037060      -164.2768
  20   2.0000      -6.036311      -164.2564
  21   2.0000      -6.033647      -164.1839
  22   2.0000      -6.032150      -164.1432
  23   2.0000      -6.028694      -164.0491
  24   2.0000      -1.014544       -27.6071
  25   2.0000      -0.986811       -26.8525
  26   2.0000      -0.919420       -25.0187
  27   2.0000      -0.912885       -24.8409
  28   2.0000      -0.871950       -23.7270
  29   2.0000      -0.849695       -23.1214
  30   2.0000      -0.839667       -22.8485
  31   2.0000      -0.808816       -22.0090
  32   2.0000      -0.782131       -21.2829
  33   2.0000      -0.773897       -21.0588
  34   2.0000      -0.708063       -19.2674
  35   2.0000      -0.702060       -19.1040
  36   2.0000      -0.697566       -18.9817
  37   2.0000      -0.658024       -17.9057
  38   2.0000      -0.639443       -17.4001
  39   2.0000      -0.615687       -16.7537
  40   2.0000      -0.602608       -16.3978
  41   2.0000      -0.574564       -15.6347
  42   2.0000      -0.560150       -15.2424
  43   2.0000      -0.553834       -15.0706
  44   2.0000      -0.541057       -14.7229
  45   2.0000      -0.524020       -14.2593
  46   2.0000      -0.519508       -14.1365
  47   2.0000      -0.509943       -13.8762
  48   2.0000      -0.502713       -13.6795
  49   2.0000      -0.497874       -13.5478
  50   2.0000      -0.492239       -13.3945
  51   2.0000      -0.477051       -12.9812
  52   2.0000      -0.471712       -12.8359
  53   2.0000      -0.463988       -12.6257
  54   2.0000      -0.461156       -12.5487
  55   2.0000      -0.449862       -12.2414
  56   2.0000      -0.445082       -12.1113
  57   2.0000      -0.442143       -12.0313
  58   2.0000      -0.430878       -11.7248
  59   2.0000      -0.425952       -11.5907
  60   2.0000      -0.419101       -11.4043
  61   2.0000      -0.411103       -11.1867
  62   2.0000      -0.406752       -11.0683
  63   2.0000      -0.345677        -9.4064
  64   2.0000      -0.328279        -8.9329
  65   2.0000      -0.326223        -8.8770
  66   2.0000      -0.288586        -7.8528
  67   0.0000       0.028191         0.7671
  68   0.0000       0.068371         1.8605
  69   0.0000       0.112159         3.0520
  70   0.0000       0.120329         3.2743
  71   0.0000       0.127577         3.4715

MULLIKEN ATOMIC CHARGES
-----------------------
   0 S :    0.112152
   1 C :   -0.108396
   2 C :   -0.101243
   3 C :    0.005227
   4 C :   -0.154232
   5 H :    0.023542
   6 C :    0.081041
   7 H :    0.025383
   8 H :    0.045707
   9 C :   -0.072997
  10 H :    0.017422
  11 H :    0.035909
  12 C :   -0.096262
  13 H :    0.075824
  14 H :    0.036792
  15 H :    0.027620
  16 S :    0.110261
  17 C :   -0.074999
  18 C :   -0.081206
  19 C :   -0.009256
  20 C :   -0.162856
  21 H :    0.039745
  22 C :    0.074088
  23 H :    0.039228
  24 H :    0.027801
  25 C :   -0.107947
  26 H :    0.022750
  27 H :    0.013737
  28 C :   -0.044912
  29 H :    0.045179
  30 H :    0.045305
  31 H :    0.027451
  32 H :    0.029982
  33 H :    0.052157
Sum of atomic charges:   -0.0000000

LOEWDIN ATOMIC CHARGES
----------------------
   0 S :    0.425538
   1 C :   -0.190867
   2 C :   -0.059679
   3 C :   -0.061192
   4 C :   -0.217040
   5 H :    0.031488
   6 C :   -0.033382
   7 H :    0.033892
   8 H :    0.037138
   9 C :   -0.041841
  10 H :    0.016014
  11 H :    0.026590
  12 C :   -0.073502
  13 H :    0.038614
  14 H :    0.030195
  15 H :    0.018976
  16 S :    0.429439
  17 C :   -0.196829
  18 C :   -0.076850
  19 C :   -0.055492
  20 C :   -0.210476
  21 H :    0.038920
  22 C :   -0.040472
  23 H :    0.038823
  24 H :    0.033268
  25 C :   -0.052805
  26 H :    0.021933
  27 H :    0.024036
  28 C :   -0.062009
  29 H :    0.033914
  30 H :    0.031955
  31 H :    0.020338
  32 H :    0.015003
  33 H :    0.026361

  Mayer bond orders larger than 0.100000
B(  0-S ,  1-C ) :   1.1532 B(  0-S ,  4-C ) :   1.1664 B(  1-C ,  2-C ) :   1.5477
B(  1-C ,  4-C ) :   0.1102 B(  1-C , 32-H ) :   0.9834 B(  2-C ,  3-C ) :   1.2861
B(  2-C ,  6-C ) :   1.0236 B(  3-C ,  4-C ) :   1.5137 B(  3-C ,  5-H ) :   0.9871
B(  4-C , 20-C ) :   1.0744 B(  6-C ,  7-H ) :   0.9431 B(  6-C ,  8-H ) :   0.9400
B(  6-C ,  9-C ) :   1.0649 B(  9-C , 10-H ) :   0.9551 B(  9-C , 11-H ) :   0.9605
B(  9-C , 12-C ) :   1.0714 B( 12-C , 13-H ) :   0.9667 B( 12-C , 14-H ) :   0.9730
B( 12-C , 15-H ) :   0.9780 B( 16-S , 17-C ) :   1.1658 B( 16-S , 20-C ) :   1.1542
B( 17-C , 18-C ) :   1.5970 B( 17-C , 20-C ) :   0.1003 B( 17-C , 33-H ) :   0.9670
B( 18-C , 19-C ) :   1.2626 B( 18-C , 21-H ) :   0.9772 B( 19-C , 20-C ) :   1.5704
B( 19-C , 22-C ) :   1.0250 B( 22-C , 23-H ) :   0.9424 B( 22-C , 24-H ) :   0.9297
B( 22-C , 25-C ) :   1.0528 B( 25-C , 26-H ) :   0.9541 B( 25-C , 27-H ) :   0.9477
B( 25-C , 28-C ) :   1.0701 B( 28-C , 29-H ) :   0.9733 B( 28-C , 30-H ) :   0.9760
B( 28-C , 31-H ) :   0.9741

Dispersion correction           -0.014878788
FINAL SINGLE POINT ENERGY     -1339.870071772799

DIPOLE MOMENT
-------------
                                X             Y             Z
Electronic contribution:      2.23764     -27.95492      11.48871
Nuclear contribution   :     -2.22473      28.56677     -11.68598
                        -----------------------------------------
Total Dipole Moment    :      0.01291       0.61185      -0.19727
                        -----------------------------------------
Magnitude (a.u.)       :      0.64299
Magnitude (Debye)      :      1.63436

Rotational constants in cm-1:     0.016860     0.010404     0.006902
Rotational constants in MHz :   505.459230   311.903856   206.908413

                             ****ORCA TERMINATED NORMALLY****
TOTAL RUN TIME: 0 days 0 hours 0 minutes 22 seconds 340 msec
