                         Program Version 4.2.1 -  RELEASE  -
|  1> ! wB97X-D3 SP def2-SVP
|  2> %pal
|  3> nprocs 24
|  4> end
|  5>
|  6> * xyz 0 1
|  7> S 	 -48.6858 	 -46.2682 	 -79.8493
|  8> C 	 -50.0099 	 -45.1823 	 -80.3381
|  9> C 	 -50.0431 	 -44.1543 	 -79.4695
| 10> C 	 -48.9928 	 -44.2279 	 -78.4652
| 11> C 	 -48.1574 	 -45.2889 	 -78.5945
| 12> H 	 -48.9199 	 -43.6056 	 -77.5608
| 13> C 	 -51.0492 	 -43.0701 	 -79.443
| 14> H 	 -51.1259 	 -42.8633 	 -78.3907
| 15> H 	 -52.0521 	 -43.4154 	 -79.8042
| 16> C 	 -50.6835 	 -41.8223 	 -80.2757
| 17> H 	 -49.6573 	 -41.9014 	 -80.6017
| 18> H 	 -51.2876 	 -41.8342 	 -81.188
| 19> C 	 -50.9751 	 -40.4269 	 -79.7262
| 20> H 	 -50.5932 	 -40.288 	 -78.7548
| 21> H 	 -50.4535 	 -39.7198 	 -80.3931
| 22> H 	 -52.0352 	 -40.1316 	 -79.7772
| 23> S 	 -46.7867 	 -47.4005 	 -77.3339
| 24> C 	 -45.413 	 -47.0777 	 -76.3465
| 25> C 	 -45.142 	 -45.7524 	 -76.2881
| 26> C 	 -46.1264 	 -44.9019 	 -76.9226
| 27> C 	 -47.0638 	 -45.6538 	 -77.6707
| 28> H 	 -44.2487 	 -45.3756 	 -75.8035
| 29> C 	 -45.8311 	 -43.4058 	 -77.0213
| 30> H 	 -46.4854 	 -42.8918 	 -77.7614
| 31> H 	 -44.9266 	 -43.2946 	 -77.511
| 32> C 	 -45.8674 	 -42.6966 	 -75.6354
| 33> H 	 -45.061 	 -43.1336 	 -74.9854
| 34> H 	 -46.768 	 -43.0373 	 -75.0499
| 35> C 	 -45.7402 	 -41.1737 	 -75.7101
| 36> H 	 -46.6544 	 -40.6739 	 -76.1604
| 37> H 	 -44.866 	 -40.9227 	 -76.2537
| 38> H 	 -45.7892 	 -40.7378 	 -74.6735
| 39> H 	 -50.6216 	 -45.553 	 -81.1312
| 40> H 	 -44.7574 	 -47.8376 	 -75.9117
| 41> *
| 42>
| 43>                          ****END OF INPUT****

CARTESIAN COORDINATES (ANGSTROEM)
---------------------------------
  S    -48.685800  -46.268200  -79.849300
  C    -50.009900  -45.182300  -80.338100
  C    -50.043100  -44.154300  -79.469500
  C    -48.992800  -44.227900  -78.465200
  C    -48.157400  -45.288900  -78.594500
  H    -48.919900  -43.605600  -77.560800
  C    -51.049200  -43.070100  -79.443000
  H    -51.125900  -42.863300  -78.390700
  H    -52.052100  -43.415400  -79.804200
  C    -50.683500  -41.822300  -80.275700
  H    -49.657300  -41.901400  -80.601700
  H    -51.287600  -41.834200  -81.188000
  C    -50.975100  -40.426900  -79.726200
  H    -50.593200  -40.288000  -78.754800
  H    -50.453500  -39.719800  -80.393100
  H    -52.035200  -40.131600  -79.777200
  S    -46.786700  -47.400500  -77.333900
  C    -45.413000  -47.077700  -76.346500
  C    -45.142000  -45.752400  -76.288100
  C    -46.126400  -44.901900  -76.922600
  C    -47.063800  -45.653800  -77.670700
  H    -44.248700  -45.375600  -75.803500
  C    -45.831100  -43.405800  -77.021300
  H    -46.485400  -42.891800  -77.761400
  H    -44.926600  -43.294600  -77.511000
  C    -45.867400  -42.696600  -75.635400
  H    -45.061000  -43.133600  -74.985400
  H    -46.768000  -43.037300  -75.049900
  C    -45.740200  -41.173700  -75.710100
  H    -46.654400  -40.673900  -76.160400
  H    -44.866000  -40.922700  -76.253700
  H    -45.789200  -40.737800  -74.673500
  H    -50.621600  -45.553000  -81.131200
  H    -44.757400  -47.837600  -75.911700

 Total Charge           Charge          ....    0
 Multiplicity           Mult            ....    1
 Number of Electrons    NEL             ....  134
 Basis Dimension        Dim             ....  322

ORBITAL ENERGIES
----------------

  NO   OCC          E(Eh)            E(eV)
   0   2.0000     -88.964474     -2420.8464
   1   2.0000     -88.957838     -2420.6658
   2   2.0000     -10.337700      -281.3031
   3   2.0000     -10.325921      -280.9826
   4   2.0000     -10.315819      -280.7077
   5   2.0000     -10.312762      -280.6245
   6   2.0000     -10.310521      -280.5635
   7   2.0000     -10.301116      -280.3076
   8   2.0000     -10.296157      -280.1727
   9   2.0000     -10.292372      -280.0697
  10   2.0000     -10.291199      -280.0378
  11   2.0000     -10.290917      -280.0301
  12   2.0000     -10.289519      -279.9920
  13   2.0000     -10.286207      -279.9019
  14   2.0000     -10.283113      -279.8177
  15   2.0000     -10.276595      -279.6404
  16   2.0000      -8.079090      -219.8432
  17   2.0000      -8.074307      -219.7131
  18   2.0000      -6.037652      -164.2929
  19   2.0000      -6.033611      -164.1829
  20   2.0000      -6.032817      -164.1613
  21   2.0000      -6.029788      -164.0789
  22   2.0000      -6.028530      -164.0446
  23   2.0000      -6.024972      -163.9478
  24   2.0000      -1.011608       -27.5273
  25   2.0000      -0.986662       -26.8484
  26   2.0000      -0.914793       -24.8928
  27   2.0000      -0.906000       -24.6535
  28   2.0000      -0.872107       -23.7312
  29   2.0000      -0.851141       -23.1607
  30   2.0000      -0.843600       -22.9555
  31   2.0000      -0.817522       -22.2459
  32   2.0000      -0.784248       -21.3405
  33   2.0000      -0.775342       -21.0981
  34   2.0000      -0.702996       -19.1295
  35   2.0000      -0.702668       -19.1206
  36   2.0000      -0.696189       -18.9443
  37   2.0000      -0.660140       -17.9633
  38   2.0000      -0.644910       -17.5489
  39   2.0000      -0.619575       -16.8595
  40   2.0000      -0.599033       -16.3005
  41   2.0000      -0.568669       -15.4743
  42   2.0000      -0.559228       -15.2174
  43   2.0000      -0.556192       -15.1348
  44   2.0000      -0.531581       -14.4650
  45   2.0000      -0.528814       -14.3898
  46   2.0000      -0.520988       -14.1768
  47   2.0000      -0.517218       -14.0742
  48   2.0000      -0.506749       -13.7893
  49   2.0000      -0.500865       -13.6292
  50   2.0000      -0.493358       -13.4250
  51   2.0000      -0.486250       -13.2315
  52   2.0000      -0.469251       -12.7690
  53   2.0000      -0.465307       -12.6616
  54   2.0000      -0.463150       -12.6029
  55   2.0000      -0.451890       -12.2966
  56   2.0000      -0.443459       -12.0671
  57   2.0000      -0.439659       -11.9637
  58   2.0000      -0.432672       -11.7736
  59   2.0000      -0.422375       -11.4934
  60   2.0000      -0.415029       -11.2935
  61   2.0000      -0.409791       -11.1510
  62   2.0000      -0.405345       -11.0300
  63   2.0000      -0.358980        -9.7683
  64   2.0000      -0.330342        -8.9891
  65   2.0000      -0.325447        -8.8559
  66   2.0000      -0.293008        -7.9732
  67   0.0000       0.027248         0.7414
  68   0.0000       0.083099         2.2612
  69   0.0000       0.114841         3.1250
  70   0.0000       0.118748         3.2313
  71   0.0000       0.132312         3.6004

MULLIKEN ATOMIC CHARGES
-----------------------
   0 S :    0.073969
   1 C :   -0.134332
   2 C :   -0.070669
   3 C :   -0.018331
   4 C :   -0.098097
   5 H :    0.022780
   6 C :    0.082706
   7 H :    0.019120
   8 H :    0.031906
   9 C :   -0.073170
  10 H :    0.034621
  11 H :    0.025463
  12 C :   -0.046636
  13 H :    0.023247
  14 H :    0.031108
  15 H :    0.036608
  16 S :    0.093891
  17 C :   -0.080798
  18 C :   -0.037436
  19 C :   -0.031102
  20 C :   -0.141267
  21 H :    0.021600
  22 C :    0.064936
  23 H :    0.019715
  24 H :    0.017087
  25 C :   -0.125491
  26 H :    0.031799
  27 H :    0.037068
  28 C :   -0.038915
  29 H :    0.037338
  30 H :    0.034971
  31 H :    0.042081
  32 H :    0.049186
  33 H :    0.065043
Sum of atomic charges:    0.0000000

LOEWDIN ATOMIC CHARGES
----------------------
   0 S :    0.409347
   1 C :   -0.175901
   2 C :   -0.062667
   3 C :   -0.078857
   4 C :   -0.210674
   5 H :    0.034109
   6 C :   -0.033796
   7 H :    0.028423
   8 H :    0.036024
   9 C :   -0.042863
  10 H :    0.023656
  11 H :    0.027830
  12 C :   -0.062280
  13 H :    0.013867
  14 H :    0.032166
  15 H :    0.026952
  16 S :    0.391403
  17 C :   -0.191569
  18 C :   -0.074623
  19 C :   -0.050596
  20 C :   -0.175737
  21 H :    0.030900
  22 C :   -0.032768
  23 H :    0.031600
  24 H :    0.022758
  25 C :   -0.050314
  26 H :    0.025306
  27 H :    0.029091
  28 C :   -0.070158
  29 H :    0.031481
  30 H :    0.020512
  31 H :    0.034716
  32 H :    0.025691
  33 H :    0.036973

  Mayer bond orders larger than 0.100000
B(  0-S ,  1-C ) :   1.1151 B(  0-S ,  4-C ) :   1.1681 B(  1-C ,  2-C ) :   1.5963
B(  1-C , 32-H ) :   0.9913 B(  2-C ,  3-C ) :   1.2212 B(  2-C ,  6-C ) :   1.0331
B(  3-C ,  4-C ) :   1.5781 B(  3-C ,  5-H ) :   0.9912 B(  4-C , 20-C ) :   1.0412
B(  6-C ,  7-H ) :   0.9442 B(  6-C ,  8-H ) :   0.9447 B(  6-C ,  9-C ) :   1.0373
B(  9-C , 10-H ) :   0.9663 B(  9-C , 11-H ) :   0.9548 B(  9-C , 12-C ) :   1.0867
B( 12-C , 13-H ) :   0.9777 B( 12-C , 14-H ) :   0.9718 B( 12-C , 15-H ) :   0.9778
B( 16-S , 17-C ) :   1.1486 B( 16-S , 20-C ) :   1.1307 B( 17-C , 18-C ) :   1.6288
B( 17-C , 33-H ) :   0.9631 B( 18-C , 19-C ) :   1.2276 B( 18-C , 21-H ) :   0.9865
B( 19-C , 20-C ) :   1.5914 B( 19-C , 22-C ) :   1.0441 B( 22-C , 23-H ) :   0.9440
B( 22-C , 24-H ) :   0.9369 B( 22-C , 25-C ) :   1.0331 B( 25-C , 26-H ) :   0.9546
B( 25-C , 27-H ) :   0.9593 B( 25-C , 28-C ) :   1.0833 B( 28-C , 29-H ) :   0.9736
B( 28-C , 30-H ) :   0.9732 B( 28-C , 31-H ) :   0.9726

Dispersion correction           -0.013408095
FINAL SINGLE POINT ENERGY     -1339.878802541387

DIPOLE MOMENT
-------------
                                X             Y             Z
Electronic contribution:      3.92120     -32.36297      -4.35125
Nuclear contribution   :     -3.88702      33.00888       4.49979
                        -----------------------------------------
Total Dipole Moment    :      0.03418       0.64591       0.14853
                        -----------------------------------------
Magnitude (a.u.)       :      0.66365
Magnitude (Debye)      :      1.68686

Rotational constants in cm-1:     0.016252     0.009268     0.006104
Rotational constants in MHz :   487.231000   277.841450   183.005612

                             ****ORCA TERMINATED NORMALLY****
TOTAL RUN TIME: 0 days 0 hours 0 minutes 21 seconds 17 msec
