                         Program Version 4.2.1 -  RELEASE  -
|  1> ! wB97X-D3 SP def2-SVP
|  2> %pal
|  3> nprocs 24
|  4> end
|  5>
|  6> * xyz 0 1
|  7> S 	 -110.255 	 35.5171 	 -13.5693
|  8> C 	 -108.6 	 36.0414 	 -13.257
|  9> C 	 -107.724 	 35.7422 	 -14.2321
| 10> C 	 -108.402 	 35.1845 	 -15.3841
| 11> C 	 -109.748 	 35.1134 	 -15.2142
| 12> H 	 -107.965 	 34.8299 	 -16.3002
| 13> C 	 -106.236 	 35.953 	 -14.2129
| 14> H 	 -105.968 	 36.8577 	 -13.6943
| 15> H 	 -105.814 	 35.8572 	 -15.2317
| 16> C 	 -105.538 	 34.8623 	 -13.4068
| 17> H 	 -106.06 	 34.561 	 -12.4935
| 18> H 	 -105.355 	 33.9142 	 -13.9141
| 19> C 	 -104.146 	 35.3434 	 -12.9681
| 20> H 	 -103.456 	 34.6529 	 -12.509
| 21> H 	 -103.524 	 35.802 	 -13.7615
| 22> H 	 -104.248 	 36.1722 	 -12.2096
| 23> S 	 -111.218 	 35.6166 	 -17.5593
| 24> C 	 -111.894 	 34.214 	 -18.2911
| 25> C 	 -111.78 	 33.0351 	 -17.5276
| 26> C 	 -110.985 	 33.2154 	 -16.3856
| 27> C 	 -110.641 	 34.5427 	 -16.2555
| 28> H 	 -112.247 	 32.0683 	 -17.849
| 29> C 	 -110.595 	 32.018 	 -15.5063
| 30> H 	 -110.125 	 32.3621 	 -14.5488
| 31> H 	 -109.845 	 31.4841 	 -16.0729
| 32> C 	 -111.688 	 31.0298 	 -15.2554
| 33> H 	 -111.797 	 30.51 	 -16.1855
| 34> H 	 -112.602 	 31.3745 	 -14.9927
| 35> C 	 -111.288 	 30.0266 	 -14.1481
| 36> H 	 -110.359 	 29.5485 	 -14.4372
| 37> H 	 -111.957 	 29.1841 	 -14.1701
| 38> H 	 -111.276 	 30.4439 	 -13.1661
| 39> H 	 -108.187 	 36.2695 	 -12.3611
| 40> H 	 -112.371 	 34.1013 	 -19.2767
| 41> *
| 42>
| 43>                          ****END OF INPUT****

CARTESIAN COORDINATES (ANGSTROEM)
---------------------------------
  S    -110.255000   35.517100  -13.569300
  C    -108.600000   36.041400  -13.257000
  C    -107.724000   35.742200  -14.232100
  C    -108.402000   35.184500  -15.384100
  C    -109.748000   35.113400  -15.214200
  H    -107.965000   34.829900  -16.300200
  C    -106.236000   35.953000  -14.212900
  H    -105.968000   36.857700  -13.694300
  H    -105.814000   35.857200  -15.231700
  C    -105.538000   34.862300  -13.406800
  H    -106.060000   34.561000  -12.493500
  H    -105.355000   33.914200  -13.914100
  C    -104.146000   35.343400  -12.968100
  H    -103.456000   34.652900  -12.509000
  H    -103.524000   35.802000  -13.761500
  H    -104.248000   36.172200  -12.209600
  S    -111.218000   35.616600  -17.559300
  C    -111.894000   34.214000  -18.291100
  C    -111.780000   33.035100  -17.527600
  C    -110.985000   33.215400  -16.385600
  C    -110.641000   34.542700  -16.255500
  H    -112.247000   32.068300  -17.849000
  C    -110.595000   32.018000  -15.506300
  H    -110.125000   32.362100  -14.548800
  H    -109.845000   31.484100  -16.072900
  C    -111.688000   31.029800  -15.255400
  H    -111.797000   30.510000  -16.185500
  H    -112.602000   31.374500  -14.992700
  C    -111.288000   30.026600  -14.148100
  H    -110.359000   29.548500  -14.437200
  H    -111.957000   29.184100  -14.170100
  H    -111.276000   30.443900  -13.166100
  H    -108.187000   36.269500  -12.361100
  H    -112.371000   34.101300  -19.276700

 Total Charge           Charge          ....    0
 Multiplicity           Mult            ....    1
 Number of Electrons    NEL             ....  134
 Basis Dimension        Dim             ....  322

ORBITAL ENERGIES
----------------

  NO   OCC          E(Eh)            E(eV)
   0   2.0000     -88.971058     -2421.0256
   1   2.0000     -88.965295     -2420.8687
   2   2.0000     -10.322616      -280.8927
   3   2.0000     -10.322065      -280.8777
   4   2.0000     -10.316849      -280.7357
   5   2.0000     -10.299774      -280.2711
   6   2.0000     -10.298974      -280.2493
   7   2.0000     -10.294777      -280.1351
   8   2.0000     -10.294215      -280.1198
   9   2.0000     -10.292749      -280.0799
  10   2.0000     -10.291515      -280.0463
  11   2.0000     -10.287920      -279.9485
  12   2.0000     -10.287086      -279.9258
  13   2.0000     -10.280757      -279.7536
  14   2.0000     -10.274105      -279.5726
  15   2.0000     -10.273362      -279.5524
  16   2.0000      -8.085387      -220.0146
  17   2.0000      -8.079331      -219.8498
  18   2.0000      -6.043762      -164.4591
  19   2.0000      -6.040123      -164.3601
  20   2.0000      -6.037886      -164.2992
  21   2.0000      -6.036150      -164.2520
  22   2.0000      -6.034212      -164.1993
  23   2.0000      -6.029817      -164.0797
  24   2.0000      -1.003147       -27.2970
  25   2.0000      -0.983690       -26.7676
  26   2.0000      -0.916694       -24.9445
  27   2.0000      -0.915332       -24.9074
  28   2.0000      -0.864489       -23.5240
  29   2.0000      -0.854979       -23.2652
  30   2.0000      -0.846008       -23.0211
  31   2.0000      -0.807690       -21.9784
  32   2.0000      -0.784556       -21.3489
  33   2.0000      -0.773116       -21.0376
  34   2.0000      -0.707263       -19.2456
  35   2.0000      -0.702414       -19.1137
  36   2.0000      -0.695354       -18.9215
  37   2.0000      -0.653964       -17.7953
  38   2.0000      -0.640852       -17.4385
  39   2.0000      -0.615923       -16.7601
  40   2.0000      -0.598414       -16.2837
  41   2.0000      -0.577877       -15.7248
  42   2.0000      -0.574063       -15.6211
  43   2.0000      -0.557942       -15.1824
  44   2.0000      -0.522496       -14.2178
  45   2.0000      -0.520553       -14.1650
  46   2.0000      -0.513828       -13.9820
  47   2.0000      -0.509947       -13.8764
  48   2.0000      -0.504819       -13.7368
  49   2.0000      -0.493218       -13.4211
  50   2.0000      -0.484840       -13.1932
  51   2.0000      -0.480516       -13.0755
  52   2.0000      -0.468974       -12.7614
  53   2.0000      -0.463367       -12.6089
  54   2.0000      -0.456952       -12.4343
  55   2.0000      -0.451441       -12.2843
  56   2.0000      -0.446573       -12.1519
  57   2.0000      -0.439350       -11.9553
  58   2.0000      -0.436217       -11.8701
  59   2.0000      -0.428344       -11.6558
  60   2.0000      -0.423992       -11.5374
  61   2.0000      -0.420383       -11.4392
  62   2.0000      -0.417620       -11.3640
  63   2.0000      -0.338492        -9.2108
  64   2.0000      -0.328858        -8.9487
  65   2.0000      -0.317635        -8.6433
  66   2.0000      -0.307779        -8.3751
  67   0.0000       0.047741         1.2991
  68   0.0000       0.057348         1.5605
  69   0.0000       0.109529         2.9804
  70   0.0000       0.114198         3.1075
  71   0.0000       0.128926         3.5083

MULLIKEN ATOMIC CHARGES
-----------------------
   0 S :    0.107828
   1 C :   -0.054580
   2 C :   -0.089534
   3 C :    0.044359
   4 C :   -0.174755
   5 H :    0.007671
   6 C :    0.104158
   7 H :    0.025794
   8 H :    0.036427
   9 C :   -0.074998
  10 H :    0.031323
  11 H :    0.029000
  12 C :   -0.089077
  13 H :    0.030734
  14 H :    0.027387
  15 H :    0.027694
  16 S :    0.140340
  17 C :   -0.093493
  18 C :   -0.081281
  19 C :    0.014585
  20 C :   -0.229510
  21 H :    0.033897
  22 C :    0.091938
  23 H :    0.033800
  24 H :    0.030175
  25 C :   -0.059694
  26 H :    0.018122
  27 H :    0.010049
  28 C :   -0.025632
  29 H :    0.016230
  30 H :    0.018845
  31 H :    0.042654
  32 H :   -0.008619
  33 H :    0.058164
Sum of atomic charges:    0.0000000

LOEWDIN ATOMIC CHARGES
----------------------
   0 S :    0.384409
   1 C :   -0.178686
   2 C :   -0.056313
   3 C :   -0.054102
   4 C :   -0.189249
   5 H :    0.030375
   6 C :   -0.024766
   7 H :    0.032422
   8 H :    0.040042
   9 C :   -0.041828
  10 H :    0.024023
  11 H :    0.023942
  12 C :   -0.078151
  13 H :    0.022000
  14 H :    0.024488
  15 H :    0.024960
  16 S :    0.414631
  17 C :   -0.201677
  18 C :   -0.081427
  19 C :   -0.051152
  20 C :   -0.198828
  21 H :    0.036810
  22 C :   -0.025025
  23 H :    0.031420
  24 H :    0.035483
  25 C :   -0.030779
  26 H :    0.021280
  27 H :    0.009670
  28 C :   -0.053901
  29 H :    0.023208
  30 H :    0.023890
  31 H :    0.023989
  32 H :    0.005100
  33 H :    0.033743

  Mayer bond orders larger than 0.100000
B(  0-S ,  1-C ) :   1.1113 B(  0-S ,  4-C ) :   1.1252 B(  1-C ,  2-C ) :   1.6831
B(  1-C , 32-H ) :   0.9622 B(  2-C ,  3-C ) :   1.1902 B(  2-C ,  6-C ) :   1.0290
B(  3-C ,  4-C ) :   1.6413 B(  3-C ,  5-H ) :   0.9949 B(  4-C , 20-C ) :   1.0032
B(  6-C ,  7-H ) :   0.9453 B(  6-C ,  8-H ) :   0.9341 B(  6-C ,  9-C ) :   1.0474
B(  9-C , 10-H ) :   0.9626 B(  9-C , 11-H ) :   0.9544 B(  9-C , 12-C ) :   1.0722
B( 12-C , 13-H ) :   0.9757 B( 12-C , 14-H ) :   0.9728 B( 12-C , 15-H ) :   0.9758
B( 16-S , 17-C ) :   1.1643 B( 16-S , 20-C ) :   1.1376 B( 17-C , 18-C ) :   1.6141
B( 17-C , 33-H ) :   0.9585 B( 18-C , 19-C ) :   1.2478 B( 18-C , 21-H ) :   0.9773
B( 19-C , 20-C ) :   1.6234 B( 19-C , 22-C ) :   1.0285 B( 22-C , 23-H ) :   0.9398
B( 22-C , 24-H ) :   0.9251 B( 22-C , 25-C ) :   1.0637 B( 25-C , 26-H ) :   0.9420
B( 25-C , 27-H ) :   0.9657 B( 25-C , 28-C ) :   1.0991 B( 28-C , 29-H ) :   0.9697
B( 28-C , 30-H ) :   0.9715 B( 28-C , 31-H ) :   0.9772

Dispersion correction           -0.013812961
FINAL SINGLE POINT ENERGY     -1339.863626457723

DIPOLE MOMENT
-------------
                                X             Y             Z
Electronic contribution:    -17.47422      16.92889     -10.09442
Nuclear contribution   :     17.91703     -17.55325      10.05647
                        -----------------------------------------
Total Dipole Moment    :      0.44281      -0.62436      -0.03794
                        -----------------------------------------
Magnitude (a.u.)       :      0.76638
Magnitude (Debye)      :      1.94799

Rotational constants in cm-1:     0.018119     0.007801     0.006484
Rotational constants in MHz :   543.206090   233.882033   194.396983

                             ****ORCA TERMINATED NORMALLY****
TOTAL RUN TIME: 0 days 0 hours 0 minutes 21 seconds 21 msec
