                         Program Version 4.2.1 -  RELEASE  -
|  1> ! wB97X-D3 SP def2-SVP
|  2> %pal
|  3> nprocs 24
|  4> end
|  5>
|  6> * xyz 0 1
|  7> S 	 -33.763 	 5.16658 	 17.6924
|  8> C 	 -32.7986 	 6.42561 	 16.9164
|  9> C 	 -33.3568 	 6.83766 	 15.7054
| 10> C 	 -34.5153 	 6.03552 	 15.4145
| 11> C 	 -34.8616 	 5.06994 	 16.3259
| 12> H 	 -35.0349 	 6.21351 	 14.448
| 13> C 	 -32.7801 	 7.89026 	 14.8155
| 14> H 	 -32.6658 	 8.77098 	 15.5254
| 15> H 	 -33.3824 	 8.25079 	 13.9747
| 16> C 	 -31.5033 	 7.4716 	 14.1483
| 17> H 	 -31.0179 	 8.41562 	 13.7412
| 18> H 	 -30.7773 	 7.09886 	 14.8854
| 19> C 	 -31.7083 	 6.38629 	 13.103
| 20> H 	 -32.5524 	 6.66838 	 12.4466
| 21> H 	 -30.7582 	 6.22375 	 12.5371
| 22> H 	 -32.0423 	 5.41851 	 13.4864
| 23> S 	 -36.9946 	 3.78498 	 17.5166
| 24> C 	 -38.1173 	 2.85267 	 16.5497
| 25> C 	 -37.81 	 2.93018 	 15.2068
| 26> C 	 -36.5438 	 3.57862 	 14.9536
| 27> C 	 -35.9735 	 4.13984 	 16.1505
| 28> H 	 -38.4694 	 2.45412 	 14.5051
| 29> C 	 -35.985 	 3.68862 	 13.509
| 30> H 	 -35.4883 	 2.69403 	 13.3865
| 31> H 	 -35.2509 	 4.46023 	 13.451
| 32> C 	 -36.9507 	 4.0341 	 12.3376
| 33> H 	 -37.6965 	 4.75783 	 12.6825
| 34> H 	 -37.4878 	 3.10781 	 12.1443
| 35> C 	 -36.3282 	 4.66427 	 11.0634
| 36> H 	 -35.8799 	 5.60578 	 11.3784
| 37> H 	 -37.0936 	 4.93634 	 10.2931
| 38> H 	 -35.4777 	 4.04681 	 10.6034
| 39> H 	 -31.8416 	 6.78534 	 17.2649
| 40> H 	 -38.9978 	 2.30668 	 16.8805
| 41> *
| 42>
| 43>                          ****END OF INPUT****

CARTESIAN COORDINATES (ANGSTROEM)
---------------------------------
  S    -33.763000    5.166580   17.692400
  C    -32.798600    6.425610   16.916400
  C    -33.356800    6.837660   15.705400
  C    -34.515300    6.035520   15.414500
  C    -34.861600    5.069940   16.325900
  H    -35.034900    6.213510   14.448000
  C    -32.780100    7.890260   14.815500
  H    -32.665800    8.770980   15.525400
  H    -33.382400    8.250790   13.974700
  C    -31.503300    7.471600   14.148300
  H    -31.017900    8.415620   13.741200
  H    -30.777300    7.098860   14.885400
  C    -31.708300    6.386290   13.103000
  H    -32.552400    6.668380   12.446600
  H    -30.758200    6.223750   12.537100
  H    -32.042300    5.418510   13.486400
  S    -36.994600    3.784980   17.516600
  C    -38.117300    2.852670   16.549700
  C    -37.810000    2.930180   15.206800
  C    -36.543800    3.578620   14.953600
  C    -35.973500    4.139840   16.150500
  H    -38.469400    2.454120   14.505100
  C    -35.985000    3.688620   13.509000
  H    -35.488300    2.694030   13.386500
  H    -35.250900    4.460230   13.451000
  C    -36.950700    4.034100   12.337600
  H    -37.696500    4.757830   12.682500
  H    -37.487800    3.107810   12.144300
  C    -36.328200    4.664270   11.063400
  H    -35.879900    5.605780   11.378400
  H    -37.093600    4.936340   10.293100
  H    -35.477700    4.046810   10.603400
  H    -31.841600    6.785340   17.264900
  H    -38.997800    2.306680   16.880500

 Total Charge           Charge          ....    0
 Multiplicity           Mult            ....    1
 Number of Electrons    NEL             ....  134
 Basis Dimension        Dim             ....  322

ORBITAL ENERGIES
----------------

  NO   OCC          E(Eh)            E(eV)
   0   2.0000     -88.969980     -2420.9962
   1   2.0000     -88.967659     -2420.9331
   2   2.0000     -10.333720      -281.1948
   3   2.0000     -10.332090      -281.1505
   4   2.0000     -10.317814      -280.7620
   5   2.0000     -10.317258      -280.7469
   6   2.0000     -10.313865      -280.6545
   7   2.0000     -10.302600      -280.3480
   8   2.0000     -10.296609      -280.1850
   9   2.0000     -10.295588      -280.1572
  10   2.0000     -10.294959      -280.1401
  11   2.0000     -10.294926      -280.1392
  12   2.0000     -10.293516      -280.1008
  13   2.0000     -10.292354      -280.0692
  14   2.0000     -10.291329      -280.0413
  15   2.0000     -10.283224      -279.8207
  16   2.0000      -8.084053      -219.9783
  17   2.0000      -8.082308      -219.9308
  18   2.0000      -6.042729      -164.4310
  19   2.0000      -6.040856      -164.3800
  20   2.0000      -6.038589      -164.3184
  21   2.0000      -6.036717      -164.2674
  22   2.0000      -6.034739      -164.2136
  23   2.0000      -6.033156      -164.1705
  24   2.0000      -1.003633       -27.3103
  25   2.0000      -0.981585       -26.7103
  26   2.0000      -0.920570       -25.0500
  27   2.0000      -0.902972       -24.5711
  28   2.0000      -0.869218       -23.6526
  29   2.0000      -0.848835       -23.0980
  30   2.0000      -0.842719       -22.9315
  31   2.0000      -0.813987       -22.1497
  32   2.0000      -0.783553       -21.3215
  33   2.0000      -0.770509       -20.9666
  34   2.0000      -0.706351       -19.2208
  35   2.0000      -0.701697       -19.0941
  36   2.0000      -0.693852       -18.8807
  37   2.0000      -0.653969       -17.7954
  38   2.0000      -0.633659       -17.2427
  39   2.0000      -0.620283       -16.8788
  40   2.0000      -0.592812       -16.1312
  41   2.0000      -0.582362       -15.8469
  42   2.0000      -0.566228       -15.4078
  43   2.0000      -0.557039       -15.1578
  44   2.0000      -0.539295       -14.6750
  45   2.0000      -0.521451       -14.1894
  46   2.0000      -0.510811       -13.8999
  47   2.0000      -0.508918       -13.8484
  48   2.0000      -0.505393       -13.7524
  49   2.0000      -0.498849       -13.5744
  50   2.0000      -0.489579       -13.3221
  51   2.0000      -0.479003       -13.0343
  52   2.0000      -0.470788       -12.8108
  53   2.0000      -0.465758       -12.6739
  54   2.0000      -0.460665       -12.5353
  55   2.0000      -0.456878       -12.4323
  56   2.0000      -0.443103       -12.0574
  57   2.0000      -0.439256       -11.9528
  58   2.0000      -0.431020       -11.7286
  59   2.0000      -0.423488       -11.5237
  60   2.0000      -0.417650       -11.3648
  61   2.0000      -0.416266       -11.3272
  62   2.0000      -0.412268       -11.2184
  63   2.0000      -0.353996        -9.6327
  64   2.0000      -0.332834        -9.0569
  65   2.0000      -0.328079        -8.9275
  66   2.0000      -0.284492        -7.7414
  67   0.0000       0.022774         0.6197
  68   0.0000       0.074521         2.0278
  69   0.0000       0.103443         2.8148
  70   0.0000       0.120247         3.2721
  71   0.0000       0.122363         3.3297

MULLIKEN ATOMIC CHARGES
-----------------------
   0 S :    0.118439
   1 C :   -0.128038
   2 C :   -0.085714
   3 C :   -0.004876
   4 C :   -0.118377
   5 H :    0.020148
   6 C :    0.032963
   7 H :    0.049900
   8 H :    0.025870
   9 C :   -0.078760
  10 H :    0.038527
  11 H :    0.024301
  12 C :   -0.062020
  13 H :    0.020041
  14 H :    0.049235
  15 H :    0.045140
  16 S :    0.107936
  17 C :   -0.089960
  18 C :   -0.040818
  19 C :   -0.061982
  20 C :   -0.135421
  21 H :    0.017945
  22 C :    0.077463
  23 H :    0.052902
  24 H :   -0.007926
  25 C :   -0.092644
  26 H :    0.036661
  27 H :    0.032373
  28 C :   -0.076203
  29 H :    0.026518
  30 H :    0.052014
  31 H :    0.049493
  32 H :    0.045781
  33 H :    0.059086
Sum of atomic charges:    0.0000000

LOEWDIN ATOMIC CHARGES
----------------------
   0 S :    0.400939
   1 C :   -0.190794
   2 C :   -0.062644
   3 C :   -0.066860
   4 C :   -0.198185
   5 H :    0.032582
   6 C :   -0.042977
   7 H :    0.043958
   8 H :    0.030878
   9 C :   -0.047508
  10 H :    0.030673
  11 H :    0.021072
  12 C :   -0.069873
  13 H :    0.022551
  14 H :    0.034705
  15 H :    0.028385
  16 S :    0.412626
  17 C :   -0.189575
  18 C :   -0.072101
  19 C :   -0.050366
  20 C :   -0.202682
  21 H :    0.030582
  22 C :   -0.033383
  23 H :    0.042700
  24 H :    0.015906
  25 C :   -0.046038
  26 H :    0.028147
  27 H :    0.019514
  28 C :   -0.072708
  29 H :    0.021292
  30 H :    0.035555
  31 H :    0.033509
  32 H :    0.026229
  33 H :    0.033892

  Mayer bond orders larger than 0.100000
B(  0-S ,  1-C ) :   1.1413 B(  0-S ,  4-C ) :   1.1364 B(  1-C ,  2-C ) :   1.5950
B(  1-C , 32-H ) :   0.9662 B(  2-C ,  3-C ) :   1.2678 B(  2-C ,  6-C ) :   1.0159
B(  3-C ,  4-C ) :   1.5571 B(  3-C ,  5-H ) :   0.9803 B(  4-C , 20-C ) :   1.0603
B(  6-C ,  7-H ) :   0.9353 B(  6-C ,  8-H ) :   0.9467 B(  6-C ,  9-C ) :   1.0780
B(  9-C , 10-H ) :   0.9536 B(  9-C , 11-H ) :   0.9537 B(  9-C , 12-C ) :   1.0673
B( 12-C , 13-H ) :   0.9731 B( 12-C , 14-H ) :   0.9720 B( 12-C , 15-H ) :   0.9730
B( 16-S , 17-C ) :   1.1554 B( 16-S , 20-C ) :   1.1498 B( 17-C , 18-C ) :   1.6085
B( 17-C , 33-H ) :   0.9648 B( 18-C , 19-C ) :   1.2551 B( 18-C , 21-H ) :   0.9909
B( 19-C , 20-C ) :   1.5579 B( 19-C , 22-C ) :   1.0299 B( 22-C , 23-H ) :   0.9275
B( 22-C , 24-H ) :   0.9435 B( 22-C , 25-C ) :   1.0527 B( 25-C , 26-H ) :   0.9602
B( 25-C , 27-H ) :   0.9507 B( 25-C , 28-C ) :   1.0842 B( 28-C , 29-H ) :   0.9713
B( 28-C , 30-H ) :   0.9734 B( 28-C , 31-H ) :   0.9755

Dispersion correction           -0.014651194
FINAL SINGLE POINT ENERGY     -1339.882581657582

DIPOLE MOMENT
-------------
                                X             Y             Z
Electronic contribution:     -8.02094      -7.62622      30.49967
Nuclear contribution   :      8.07244       7.82167     -31.25579
                        -----------------------------------------
Total Dipole Moment    :      0.05151       0.19545      -0.75611
                        -----------------------------------------
Magnitude (a.u.)       :      0.78266
Magnitude (Debye)      :      1.98937

Rotational constants in cm-1:     0.016377     0.010245     0.006626
Rotational constants in MHz :   490.980057   307.151337   198.642494

                             ****ORCA TERMINATED NORMALLY****
TOTAL RUN TIME: 0 days 0 hours 0 minutes 22 seconds 35 msec
