                         Program Version 4.2.1 -  RELEASE  -
|  1> ! wB97X-D3 SP def2-SVP
|  2> %pal
|  3> nprocs 24
|  4> end
|  5>
|  6> * xyz 0 1
|  7> S 	 -46.1165 	 15.8481 	 25.7559
|  8> C 	 -45.3167 	 17.3823 	 25.8419
|  9> C 	 -45.5083 	 18.1102 	 24.6659
| 10> C 	 -46.2926 	 17.4264 	 23.7311
| 11> C 	 -46.6124 	 16.1028 	 24.0734
| 12> H 	 -46.576 	 17.7716 	 22.8083
| 13> C 	 -45.0209 	 19.5162 	 24.4225
| 14> H 	 -44.5412 	 19.8332 	 25.323
| 15> H 	 -45.8607 	 20.1634 	 24.3298
| 16> C 	 -44.1553 	 19.8576 	 23.1565
| 17> H 	 -44.6801 	 19.8533 	 22.2093
| 18> H 	 -43.8809 	 20.8958 	 23.1921
| 19> C 	 -42.8679 	 19.037 	 22.9829
| 20> H 	 -42.0712 	 19.7398 	 22.8134
| 21> H 	 -42.6419 	 18.5224 	 23.873
| 22> H 	 -42.8458 	 18.277 	 22.188
| 23> S 	 -48.0561 	 13.7936 	 24.3567
| 24> C 	 -48.4997 	 12.8489 	 22.8886
| 25> C 	 -48.1674 	 13.5527 	 21.7473
| 26> C 	 -47.3707 	 14.7355 	 21.9759
| 27> C 	 -47.2724 	 15.0529 	 23.3505
| 28> H 	 -48.4646 	 13.1458 	 20.7535
| 29> C 	 -46.9689 	 15.6964 	 20.8853
| 30> H 	 -47.309 	 16.7434 	 21.0969
| 31> H 	 -47.4338 	 15.2631 	 20.0128
| 32> C 	 -45.4534 	 15.7224 	 20.6905
| 33> H 	 -45.1778 	 14.663 	 20.4394
| 34> H 	 -44.7673 	 16.0126 	 21.5329
| 35> C 	 -45.036 	 16.6505 	 19.512
| 36> H 	 -44.1292 	 16.48 	 19.0095
| 37> H 	 -45.0332 	 17.6796 	 19.9327
| 38> H 	 -45.7057 	 16.594 	 18.6853
| 39> H 	 -44.6789 	 17.7393 	 26.653
| 40> H 	 -49.0793 	 11.9181 	 22.9201
| 41> *
| 42>
| 43>                          ****END OF INPUT****

CARTESIAN COORDINATES (ANGSTROEM)
---------------------------------
  S    -46.116500   15.848100   25.755900
  C    -45.316700   17.382300   25.841900
  C    -45.508300   18.110200   24.665900
  C    -46.292600   17.426400   23.731100
  C    -46.612400   16.102800   24.073400
  H    -46.576000   17.771600   22.808300
  C    -45.020900   19.516200   24.422500
  H    -44.541200   19.833200   25.323000
  H    -45.860700   20.163400   24.329800
  C    -44.155300   19.857600   23.156500
  H    -44.680100   19.853300   22.209300
  H    -43.880900   20.895800   23.192100
  C    -42.867900   19.037000   22.982900
  H    -42.071200   19.739800   22.813400
  H    -42.641900   18.522400   23.873000
  H    -42.845800   18.277000   22.188000
  S    -48.056100   13.793600   24.356700
  C    -48.499700   12.848900   22.888600
  C    -48.167400   13.552700   21.747300
  C    -47.370700   14.735500   21.975900
  C    -47.272400   15.052900   23.350500
  H    -48.464600   13.145800   20.753500
  C    -46.968900   15.696400   20.885300
  H    -47.309000   16.743400   21.096900
  H    -47.433800   15.263100   20.012800
  C    -45.453400   15.722400   20.690500
  H    -45.177800   14.663000   20.439400
  H    -44.767300   16.012600   21.532900
  C    -45.036000   16.650500   19.512000
  H    -44.129200   16.480000   19.009500
  H    -45.033200   17.679600   19.932700
  H    -45.705700   16.594000   18.685300
  H    -44.678900   17.739300   26.653000
  H    -49.079300   11.918100   22.920100

 Total Charge           Charge          ....    0
 Multiplicity           Mult            ....    1
 Number of Electrons    NEL             ....  134
 Basis Dimension        Dim             ....  322

ORBITAL ENERGIES
----------------

  NO   OCC          E(Eh)            E(eV)
   0   2.0000     -88.967533     -2420.9296
   1   2.0000     -88.966698     -2420.9069
   2   2.0000     -10.334320      -281.2111
   3   2.0000     -10.333856      -281.1985
   4   2.0000     -10.325082      -280.9598
   5   2.0000     -10.315967      -280.7117
   6   2.0000     -10.309183      -280.5271
   7   2.0000     -10.304112      -280.3891
   8   2.0000     -10.300327      -280.2861
   9   2.0000     -10.298642      -280.2403
  10   2.0000     -10.291849      -280.0554
  11   2.0000     -10.290679      -280.0236
  12   2.0000     -10.288678      -279.9692
  13   2.0000     -10.287474      -279.9364
  14   2.0000     -10.273203      -279.5481
  15   2.0000     -10.269524      -279.4480
  16   2.0000      -8.082094      -219.9249
  17   2.0000      -8.080086      -219.8703
  18   2.0000      -6.040638      -164.3741
  19   2.0000      -6.038781      -164.3236
  20   2.0000      -6.036550      -164.2629
  21   2.0000      -6.034836      -164.2162
  22   2.0000      -6.032882      -164.1631
  23   2.0000      -6.030688      -164.1034
  24   2.0000      -1.004732       -27.3401
  25   2.0000      -0.978392       -26.6234
  26   2.0000      -0.910610       -24.7790
  27   2.0000      -0.907343       -24.6901
  28   2.0000      -0.870937       -23.6994
  29   2.0000      -0.852594       -23.2003
  30   2.0000      -0.844378       -22.9767
  31   2.0000      -0.817153       -22.2359
  32   2.0000      -0.784757       -21.3543
  33   2.0000      -0.772025       -21.0079
  34   2.0000      -0.714952       -19.4548
  35   2.0000      -0.702451       -19.1147
  36   2.0000      -0.690489       -18.7892
  37   2.0000      -0.664507       -18.0821
  38   2.0000      -0.642024       -17.4703
  39   2.0000      -0.625736       -17.0271
  40   2.0000      -0.593599       -16.1527
  41   2.0000      -0.568327       -15.4650
  42   2.0000      -0.560484       -15.2516
  43   2.0000      -0.550492       -14.9796
  44   2.0000      -0.544089       -14.8054
  45   2.0000      -0.523496       -14.2451
  46   2.0000      -0.518741       -14.1157
  47   2.0000      -0.516621       -14.0580
  48   2.0000      -0.504452       -13.7268
  49   2.0000      -0.499667       -13.5966
  50   2.0000      -0.492651       -13.4057
  51   2.0000      -0.488339       -13.2884
  52   2.0000      -0.468188       -12.7400
  53   2.0000      -0.465968       -12.6796
  54   2.0000      -0.459122       -12.4934
  55   2.0000      -0.446532       -12.1507
  56   2.0000      -0.444760       -12.1025
  57   2.0000      -0.438724       -11.9383
  58   2.0000      -0.433258       -11.7895
  59   2.0000      -0.427741       -11.6394
  60   2.0000      -0.416691       -11.3387
  61   2.0000      -0.414397       -11.2763
  62   2.0000      -0.410997       -11.1838
  63   2.0000      -0.359013        -9.7692
  64   2.0000      -0.336235        -9.1494
  65   2.0000      -0.328376        -8.9356
  66   2.0000      -0.278648        -7.5824
  67   0.0000       0.011250         0.3061
  68   0.0000       0.077849         2.1184
  69   0.0000       0.090873         2.4728
  70   0.0000       0.115997         3.1564
  71   0.0000       0.123856         3.3703

MULLIKEN ATOMIC CHARGES
-----------------------
   0 S :    0.105805
   1 C :   -0.117746
   2 C :   -0.088474
   3 C :    0.058092
   4 C :   -0.120335
   5 H :   -0.049095
   6 C :    0.106476
   7 H :    0.004110
   8 H :    0.027069
   9 C :   -0.083767
  10 H :    0.021867
  11 H :    0.021984
  12 C :   -0.028879
  13 H :    0.022970
  14 H :    0.016164
  15 H :    0.037648
  16 S :    0.077849
  17 C :   -0.102493
  18 C :   -0.033742
  19 C :   -0.048283
  20 C :   -0.121070
  21 H :    0.036099
  22 C :    0.059423
  23 H :    0.050947
  24 H :    0.015306
  25 C :   -0.127437
  26 H :    0.028605
  27 H :    0.062665
  28 C :   -0.020539
  29 H :    0.024043
  30 H :    0.031056
  31 H :    0.009964
  32 H :    0.053474
  33 H :    0.070247
Sum of atomic charges:   -0.0000000

LOEWDIN ATOMIC CHARGES
----------------------
   0 S :    0.408029
   1 C :   -0.206042
   2 C :   -0.065220
   3 C :   -0.052939
   4 C :   -0.178749
   5 H :    0.011292
   6 C :   -0.026055
   7 H :    0.025415
   8 H :    0.033474
   9 C :   -0.042481
  10 H :    0.021515
  11 H :    0.025597
  12 C :   -0.065226
  13 H :    0.026085
  14 H :    0.018960
  15 H :    0.027480
  16 S :    0.363796
  17 C :   -0.172814
  18 C :   -0.073912
  19 C :   -0.056943
  20 C :   -0.175219
  21 H :    0.039011
  22 C :   -0.029284
  23 H :    0.032928
  24 H :    0.031951
  25 C :   -0.046983
  26 H :    0.026074
  27 H :    0.033337
  28 C :   -0.068023
  29 H :    0.020311
  30 H :    0.027716
  31 H :    0.017830
  32 H :    0.033354
  33 H :    0.035733

  Mayer bond orders larger than 0.100000
B(  0-S ,  1-C ) :   1.1481 B(  0-S ,  4-C ) :   1.1489 B(  1-C ,  2-C ) :   1.5750
B(  1-C ,  4-C ) :   0.1043 B(  1-C , 32-H ) :   0.9623 B(  2-C ,  3-C ) :   1.2689
B(  2-C ,  6-C ) :   1.0343 B(  3-C ,  4-C ) :   1.5169 B(  3-C ,  5-H ) :   1.0110
B(  4-C , 20-C ) :   1.1135 B(  6-C ,  7-H ) :   0.9364 B(  6-C ,  8-H ) :   0.9317
B(  6-C ,  9-C ) :   1.0782 B(  9-C , 10-H ) :   0.9558 B(  9-C , 11-H ) :   0.9592
B(  9-C , 12-C ) :   1.0605 B( 12-C , 13-H ) :   0.9774 B( 12-C , 14-H ) :   0.9806
B( 12-C , 15-H ) :   0.9771 B( 16-S , 17-C ) :   1.1323 B( 16-S , 20-C ) :   1.1235
B( 17-C , 18-C ) :   1.6275 B( 17-C , 20-C ) :   0.1004 B( 17-C , 33-H ) :   0.9649
B( 18-C , 19-C ) :   1.2372 B( 18-C , 21-H ) :   0.9753 B( 19-C , 20-C ) :   1.5681
B( 19-C , 22-C ) :   1.0408 B( 22-C , 23-H ) :   0.9464 B( 22-C , 24-H ) :   0.9247
B( 22-C , 25-C ) :   1.0482 B( 25-C , 26-H ) :   0.9529 B( 25-C , 27-H ) :   0.9627
B( 25-C , 28-C ) :   1.0716 B( 28-C , 29-H ) :   0.9754 B( 28-C , 30-H ) :   0.9751
B( 28-C , 31-H ) :   0.9710

Dispersion correction           -0.015307826
FINAL SINGLE POINT ENERGY     -1339.871760238952

DIPOLE MOMENT
-------------
                                X             Y             Z
Electronic contribution:    -16.45144     -18.81443      20.83851
Nuclear contribution   :     16.60498      19.21774     -21.42904
                        -----------------------------------------
Total Dipole Moment    :      0.15354       0.40332      -0.59053
                        -----------------------------------------
Magnitude (a.u.)       :      0.73141
Magnitude (Debye)      :      1.85910

Rotational constants in cm-1:     0.018540     0.010332     0.007052
Rotational constants in MHz :   555.807196   309.748263   211.421633

                             ****ORCA TERMINATED NORMALLY****
TOTAL RUN TIME: 0 days 0 hours 0 minutes 21 seconds 574 msec
