                         Program Version 4.2.1 -  RELEASE  -
|  1> ! wB97X-D3 SP def2-SVP
|  2> %pal
|  3> nprocs 24
|  4> end
|  5>
|  6> * xyz 0 1
|  7> S 	 -46.4473 	 13.1667 	 33.4019
|  8> C 	 -45.3953 	 12.9764 	 31.9912
|  9> C 	 -46.0617 	 13.2169 	 30.7881
| 10> C 	 -47.44 	 13.5117 	 31.0416
| 11> C 	 -47.7631 	 13.6188 	 32.3583
| 12> H 	 -48.2117 	 13.7888 	 30.3172
| 13> C 	 -45.3504 	 13.3571 	 29.5042
| 14> H 	 -46.0811 	 12.9136 	 28.7678
| 15> H 	 -44.3619 	 12.7858 	 29.5101
| 16> C 	 -44.9798 	 14.7956 	 28.9883
| 17> H 	 -44.3324 	 15.4142 	 29.6355
| 18> H 	 -44.4688 	 14.7152 	 28.0022
| 19> C 	 -46.1974 	 15.6056 	 28.7046
| 20> H 	 -45.9743 	 16.3846 	 27.9364
| 21> H 	 -47.0315 	 15.0604 	 28.2553
| 22> H 	 -46.4932 	 16.0257 	 29.6913
| 23> S 	 -49.6266 	 12.4963 	 33.9111
| 24> C 	 -51.1671 	 13.0869 	 34.0661
| 25> C 	 -51.4034 	 14.2499 	 33.3305
| 26> C 	 -50.1553 	 14.6226 	 32.6157
| 27> C 	 -49.1057 	 13.7709 	 32.8895
| 28> H 	 -52.441 	 14.6782 	 33.3156
| 29> C 	 -50.097 	 15.8448 	 31.7348
| 30> H 	 -49.1087 	 15.9086 	 31.2476
| 31> H 	 -50.0333 	 16.7578 	 32.3448
| 32> C 	 -51.322 	 16.0878 	 30.7357
| 33> H 	 -51.1498 	 16.9826 	 30.1922
| 34> H 	 -52.3442 	 16.1725 	 31.2892
| 35> C 	 -51.3743 	 15.0158 	 29.6219
| 36> H 	 -50.4903 	 14.9311 	 29.0635
| 37> H 	 -52.025 	 15.2348 	 28.819
| 38> H 	 -51.6266 	 13.958 	 30.0061
| 39> H 	 -44.2842 	 12.9249 	 32.0604
| 40> H 	 -51.9118 	 12.5033 	 34.577
| 41> *
| 42>
| 43>                          ****END OF INPUT****

CARTESIAN COORDINATES (ANGSTROEM)
---------------------------------
  S    -46.447300   13.166700   33.401900
  C    -45.395300   12.976400   31.991200
  C    -46.061700   13.216900   30.788100
  C    -47.440000   13.511700   31.041600
  C    -47.763100   13.618800   32.358300
  H    -48.211700   13.788800   30.317200
  C    -45.350400   13.357100   29.504200
  H    -46.081100   12.913600   28.767800
  H    -44.361900   12.785800   29.510100
  C    -44.979800   14.795600   28.988300
  H    -44.332400   15.414200   29.635500
  H    -44.468800   14.715200   28.002200
  C    -46.197400   15.605600   28.704600
  H    -45.974300   16.384600   27.936400
  H    -47.031500   15.060400   28.255300
  H    -46.493200   16.025700   29.691300
  S    -49.626600   12.496300   33.911100
  C    -51.167100   13.086900   34.066100
  C    -51.403400   14.249900   33.330500
  C    -50.155300   14.622600   32.615700
  C    -49.105700   13.770900   32.889500
  H    -52.441000   14.678200   33.315600
  C    -50.097000   15.844800   31.734800
  H    -49.108700   15.908600   31.247600
  H    -50.033300   16.757800   32.344800
  C    -51.322000   16.087800   30.735700
  H    -51.149800   16.982600   30.192200
  H    -52.344200   16.172500   31.289200
  C    -51.374300   15.015800   29.621900
  H    -50.490300   14.931100   29.063500
  H    -52.025000   15.234800   28.819000
  H    -51.626600   13.958000   30.006100
  H    -44.284200   12.924900   32.060400
  H    -51.911800   12.503300   34.577000

 Total Charge           Charge          ....    0
 Multiplicity           Mult            ....    1
 Number of Electrons    NEL             ....  134
 Basis Dimension        Dim             ....  322

ORBITAL ENERGIES
----------------

  NO   OCC          E(Eh)            E(eV)
   0   2.0000     -88.967354     -2420.9248
   1   2.0000     -88.960776     -2420.7458
   2   2.0000     -10.326170      -280.9894
   3   2.0000     -10.319964      -280.8205
   4   2.0000     -10.317681      -280.7584
   5   2.0000     -10.310111      -280.5524
   6   2.0000     -10.308959      -280.5210
   7   2.0000     -10.302773      -280.3527
   8   2.0000     -10.302586      -280.3476
   9   2.0000     -10.301914      -280.3293
  10   2.0000     -10.299833      -280.2727
  11   2.0000     -10.295902      -280.1657
  12   2.0000     -10.293061      -280.0884
  13   2.0000     -10.291347      -280.0418
  14   2.0000     -10.278698      -279.6976
  15   2.0000     -10.274206      -279.5754
  16   2.0000      -8.082005      -219.9225
  17   2.0000      -8.078362      -219.8234
  18   2.0000      -6.040529      -164.3712
  19   2.0000      -6.036629      -164.2650
  20   2.0000      -6.036565      -164.2633
  21   2.0000      -6.032708      -164.1583
  22   2.0000      -6.032343      -164.1484
  23   2.0000      -6.029298      -164.0655
  24   2.0000      -1.015112       -27.6226
  25   2.0000      -0.988154       -26.8890
  26   2.0000      -0.915088       -24.9008
  27   2.0000      -0.902014       -24.5451
  28   2.0000      -0.872214       -23.7341
  29   2.0000      -0.853115       -23.2144
  30   2.0000      -0.843866       -22.9628
  31   2.0000      -0.816484       -22.2177
  32   2.0000      -0.782870       -21.3030
  33   2.0000      -0.769221       -20.9316
  34   2.0000      -0.707257       -19.2454
  35   2.0000      -0.697865       -18.9899
  36   2.0000      -0.692315       -18.8389
  37   2.0000      -0.657384       -17.8883
  38   2.0000      -0.636719       -17.3260
  39   2.0000      -0.615430       -16.7467
  40   2.0000      -0.596927       -16.2432
  41   2.0000      -0.574679       -15.6378
  42   2.0000      -0.549126       -14.9425
  43   2.0000      -0.544157       -14.8073
  44   2.0000      -0.542510       -14.7624
  45   2.0000      -0.532517       -14.4905
  46   2.0000      -0.519110       -14.1257
  47   2.0000      -0.514231       -13.9929
  48   2.0000      -0.501586       -13.6488
  49   2.0000      -0.495029       -13.4704
  50   2.0000      -0.491848       -13.3839
  51   2.0000      -0.480537       -13.0761
  52   2.0000      -0.470563       -12.8047
  53   2.0000      -0.461297       -12.5525
  54   2.0000      -0.460011       -12.5175
  55   2.0000      -0.447299       -12.1716
  56   2.0000      -0.442282       -12.0351
  57   2.0000      -0.435086       -11.8393
  58   2.0000      -0.431831       -11.7507
  59   2.0000      -0.424386       -11.5481
  60   2.0000      -0.420105       -11.4316
  61   2.0000      -0.417635       -11.3644
  62   2.0000      -0.414358       -11.2753
  63   2.0000      -0.350558        -9.5392
  64   2.0000      -0.329753        -8.9730
  65   2.0000      -0.324474        -8.8294
  66   2.0000      -0.292695        -7.9646
  67   0.0000       0.037661         1.0248
  68   0.0000       0.070461         1.9174
  69   0.0000       0.111784         3.0418
  70   0.0000       0.114165         3.1066
  71   0.0000       0.128207         3.4887

MULLIKEN ATOMIC CHARGES
-----------------------
   0 S :    0.106874
   1 C :   -0.131279
   2 C :   -0.066485
   3 C :    0.034444
   4 C :   -0.164429
   5 H :    0.011870
   6 C :    0.014163
   7 H :    0.040125
   8 H :    0.042134
   9 C :   -0.059381
  10 H :    0.036257
  11 H :    0.032389
  12 C :   -0.090242
  13 H :    0.037592
  14 H :    0.023459
  15 H :    0.054474
  16 S :    0.121405
  17 C :   -0.094925
  18 C :   -0.056682
  19 C :   -0.043811
  20 C :   -0.135029
  21 H :    0.044241
  22 C :    0.040740
  23 H :    0.015036
  24 H :    0.040119
  25 C :   -0.074192
  26 H :    0.025477
  27 H :    0.051895
  28 C :   -0.053015
  29 H :    0.009613
  30 H :    0.018242
  31 H :    0.049305
  32 H :    0.063433
  33 H :    0.056183
Sum of atomic charges:   -0.0000000

LOEWDIN ATOMIC CHARGES
----------------------
   0 S :    0.398874
   1 C :   -0.194853
   2 C :   -0.068898
   3 C :   -0.063722
   4 C :   -0.196790
   5 H :    0.033856
   6 C :   -0.039787
   7 H :    0.039327
   8 H :    0.039925
   9 C :   -0.044703
  10 H :    0.027784
  11 H :    0.027455
  12 C :   -0.075998
  13 H :    0.030721
  14 H :    0.018629
  15 H :    0.029954
  16 S :    0.459115
  17 C :   -0.211530
  18 C :   -0.082342
  19 C :   -0.055355
  20 C :   -0.217377
  21 H :    0.042323
  22 C :   -0.040194
  23 H :    0.030462
  24 H :    0.037057
  25 C :   -0.036249
  26 H :    0.021498
  27 H :    0.034825
  28 C :   -0.075334
  29 H :    0.015685
  30 H :    0.020202
  31 H :    0.035054
  32 H :    0.034735
  33 H :    0.025650

  Mayer bond orders larger than 0.100000
B(  0-S ,  1-C ) :   1.1308 B(  0-S ,  4-C ) :   1.1489 B(  1-C ,  2-C ) :   1.6163
B(  1-C , 32-H ) :   0.9603 B(  2-C ,  3-C ) :   1.2174 B(  2-C ,  6-C ) :   1.0390
B(  3-C ,  4-C ) :   1.6000 B(  3-C ,  5-H ) :   0.9872 B(  4-C , 20-C ) :   1.0083
B(  6-C ,  7-H ) :   0.9364 B(  6-C ,  8-H ) :   0.9400 B(  6-C ,  9-C ) :   1.0653
B(  9-C , 10-H ) :   0.9563 B(  9-C , 11-H ) :   0.9568 B(  9-C , 12-C ) :   1.0801
B( 12-C , 13-H ) :   0.9710 B( 12-C , 14-H ) :   0.9731 B( 12-C , 15-H ) :   0.9735
B( 16-S , 17-C ) :   1.2001 B( 16-S , 20-C ) :   1.1548 B( 17-C , 18-C ) :   1.5884
B( 17-C , 33-H ) :   0.9674 B( 18-C , 19-C ) :   1.2169 B( 18-C , 21-H ) :   0.9878
B( 19-C , 20-C ) :   1.6114 B( 19-C , 22-C ) :   1.0492 B( 22-C , 23-H ) :   0.9369
B( 22-C , 24-H ) :   0.9332 B( 22-C , 25-C ) :   1.0670 B( 25-C , 26-H ) :   0.9543
B( 25-C , 27-H ) :   0.9548 B( 25-C , 28-C ) :   1.0714 B( 28-C , 29-H ) :   0.9702
B( 28-C , 30-H ) :   0.9721 B( 28-C , 31-H ) :   0.9755

Dispersion correction           -0.015369712
FINAL SINGLE POINT ENERGY     -1339.873215476100

DIPOLE MOMENT
-------------
                                X             Y             Z
Electronic contribution:      2.33562     -14.86149      25.79535
Nuclear contribution   :     -2.43217      15.24567     -26.41745
                        -----------------------------------------
Total Dipole Moment    :     -0.09655       0.38418      -0.62210
                        -----------------------------------------
Magnitude (a.u.)       :      0.73751
Magnitude (Debye)      :      1.87461

Rotational constants in cm-1:     0.017961     0.010434     0.007128
Rotational constants in MHz :   538.471810   312.812129   213.694037

                             ****ORCA TERMINATED NORMALLY****
TOTAL RUN TIME: 0 days 0 hours 0 minutes 22 seconds 555 msec
