                         Program Version 4.2.1 -  RELEASE  -
|  1> ! wB97X-D3 SP def2-SVP
|  2> %pal
|  3> nprocs 24
|  4> end
|  5>
|  6> * xyz 0 1
|  7> S 	 37.4422 	 -32.5075 	 -124.774
|  8> C 	 38.1127 	 -33.9565 	 -123.885
|  9> C 	 37.0783 	 -34.5443 	 -123.19
| 10> C 	 35.8106 	 -34.0104 	 -123.462
| 11> C 	 35.8098 	 -32.9782 	 -124.365
| 12> H 	 34.8391 	 -34.3041 	 -123.09
| 13> C 	 37.3597 	 -35.7562 	 -122.273
| 14> H 	 38.3442 	 -36.0938 	 -122.57
| 15> H 	 36.6084 	 -36.5004 	 -122.428
| 16> C 	 37.4862 	 -35.3769 	 -120.756
| 17> H 	 36.6063 	 -34.9208 	 -120.319
| 18> H 	 37.7158 	 -36.2113 	 -120.045
| 19> C 	 38.5726 	 -34.2942 	 -120.413
| 20> H 	 38.4316 	 -33.3505 	 -120.907
| 21> H 	 38.6349 	 -34.1111 	 -119.34
| 22> H 	 39.5038 	 -34.7608 	 -120.725
| 23> S 	 34.8288 	 -31.3562 	 -126.347
| 24> C 	 33.2519 	 -30.5831 	 -126.218
| 25> C 	 32.6811 	 -30.853 	 -125.004
| 26> C 	 33.4732 	 -31.6683 	 -124.152
| 27> C 	 34.6449 	 -32.1961 	 -124.799
| 28> H 	 31.6503 	 -30.4443 	 -124.785
| 29> C 	 32.9454 	 -32.0735 	 -122.832
| 30> H 	 33.6539 	 -31.6637 	 -122.131
| 31> H 	 33.0147 	 -33.1782 	 -122.815
| 32> C 	 31.4275 	 -31.7034 	 -122.553
| 33> H 	 30.8922 	 -32.0618 	 -123.397
| 34> H 	 31.3676 	 -30.6519 	 -122.657
| 35> C 	 30.817 	 -32.1403 	 -121.238
| 36> H 	 29.9269 	 -31.6416 	 -121.064
| 37> H 	 31.4069 	 -31.9313 	 -120.357
| 38> H 	 30.781 	 -33.254 	 -121.147
| 39> H 	 39.095 	 -34.2197 	 -123.875
| 40> H 	 32.843 	 -30.1024 	 -127.113
| 41> *
| 42>
| 43>                          ****END OF INPUT****

CARTESIAN COORDINATES (ANGSTROEM)
---------------------------------
  S     37.442200  -32.507500  -124.774000
  C     38.112700  -33.956500  -123.885000
  C     37.078300  -34.544300  -123.190000
  C     35.810600  -34.010400  -123.462000
  C     35.809800  -32.978200  -124.365000
  H     34.839100  -34.304100  -123.090000
  C     37.359700  -35.756200  -122.273000
  H     38.344200  -36.093800  -122.570000
  H     36.608400  -36.500400  -122.428000
  C     37.486200  -35.376900  -120.756000
  H     36.606300  -34.920800  -120.319000
  H     37.715800  -36.211300  -120.045000
  C     38.572600  -34.294200  -120.413000
  H     38.431600  -33.350500  -120.907000
  H     38.634900  -34.111100  -119.340000
  H     39.503800  -34.760800  -120.725000
  S     34.828800  -31.356200  -126.347000
  C     33.251900  -30.583100  -126.218000
  C     32.681100  -30.853000  -125.004000
  C     33.473200  -31.668300  -124.152000
  C     34.644900  -32.196100  -124.799000
  H     31.650300  -30.444300  -124.785000
  C     32.945400  -32.073500  -122.832000
  H     33.653900  -31.663700  -122.131000
  H     33.014700  -33.178200  -122.815000
  C     31.427500  -31.703400  -122.553000
  H     30.892200  -32.061800  -123.397000
  H     31.367600  -30.651900  -122.657000
  C     30.817000  -32.140300  -121.238000
  H     29.926900  -31.641600  -121.064000
  H     31.406900  -31.931300  -120.357000
  H     30.781000  -33.254000  -121.147000
  H     39.095000  -34.219700  -123.875000
  H     32.843000  -30.102400  -127.113000

 Total Charge           Charge          ....    0
 Multiplicity           Mult            ....    1
 Number of Electrons    NEL             ....  134
 Basis Dimension        Dim             ....  322

ORBITAL ENERGIES
----------------

  NO   OCC          E(Eh)            E(eV)
   0   2.0000     -88.964660     -2420.8515
   1   2.0000     -88.963074     -2420.8083
   2   2.0000     -10.333947      -281.2010
   3   2.0000     -10.332136      -281.1517
   4   2.0000     -10.320815      -280.8437
   5   2.0000     -10.312835      -280.6265
   6   2.0000     -10.310652      -280.5671
   7   2.0000     -10.303410      -280.3700
   8   2.0000     -10.299139      -280.2538
   9   2.0000     -10.297390      -280.2062
  10   2.0000     -10.294594      -280.1302
  11   2.0000     -10.290787      -280.0265
  12   2.0000     -10.290080      -280.0073
  13   2.0000     -10.287980      -279.9502
  14   2.0000     -10.278498      -279.6921
  15   2.0000     -10.273045      -279.5438
  16   2.0000      -8.078416      -219.8249
  17   2.0000      -8.077610      -219.8030
  18   2.0000      -6.037067      -164.2769
  19   2.0000      -6.036013      -164.2483
  20   2.0000      -6.033161      -164.1707
  21   2.0000      -6.032081      -164.1413
  22   2.0000      -6.028962      -164.0564
  23   2.0000      -6.028563      -164.0455
  24   2.0000      -1.004088       -27.3226
  25   2.0000      -0.981904       -26.7190
  26   2.0000      -0.913043       -24.8452
  27   2.0000      -0.904699       -24.6181
  28   2.0000      -0.866114       -23.5682
  29   2.0000      -0.856878       -23.3168
  30   2.0000      -0.840799       -22.8793
  31   2.0000      -0.818498       -22.2725
  32   2.0000      -0.783467       -21.3192
  33   2.0000      -0.773370       -21.0445
  34   2.0000      -0.721080       -19.6216
  35   2.0000      -0.704884       -19.1809
  36   2.0000      -0.693850       -18.8806
  37   2.0000      -0.649954       -17.6862
  38   2.0000      -0.643578       -17.5126
  39   2.0000      -0.619734       -16.8638
  40   2.0000      -0.598614       -16.2891
  41   2.0000      -0.574124       -15.6227
  42   2.0000      -0.562868       -15.3164
  43   2.0000      -0.554458       -15.0876
  44   2.0000      -0.541984       -14.7481
  45   2.0000      -0.535182       -14.5630
  46   2.0000      -0.522887       -14.2285
  47   2.0000      -0.514448       -13.9988
  48   2.0000      -0.506343       -13.7783
  49   2.0000      -0.494912       -13.4672
  50   2.0000      -0.488986       -13.3060
  51   2.0000      -0.485049       -13.1989
  52   2.0000      -0.472054       -12.8452
  53   2.0000      -0.468520       -12.7491
  54   2.0000      -0.459502       -12.5037
  55   2.0000      -0.454992       -12.3810
  56   2.0000      -0.444981       -12.1085
  57   2.0000      -0.439782       -11.9671
  58   2.0000      -0.427061       -11.6209
  59   2.0000      -0.422072       -11.4852
  60   2.0000      -0.417553       -11.3622
  61   2.0000      -0.414254       -11.2724
  62   2.0000      -0.409699       -11.1485
  63   2.0000      -0.353821        -9.6280
  64   2.0000      -0.333407        -9.0725
  65   2.0000      -0.330462        -8.9923
  66   2.0000      -0.284752        -7.7485
  67   0.0000       0.017279         0.4702
  68   0.0000       0.073853         2.0097
  69   0.0000       0.100682         2.7397
  70   0.0000       0.125444         3.4135
  71   0.0000       0.134294         3.6543

MULLIKEN ATOMIC CHARGES
-----------------------
   0 S :    0.089131
   1 C :   -0.098395
   2 C :   -0.071218
   3 C :   -0.001696
   4 C :   -0.094218
   5 H :   -0.003739
   6 C :    0.126523
   7 H :    0.013640
   8 H :    0.032017
   9 C :   -0.098879
  10 H :    0.022639
  11 H :    0.037760
  12 C :   -0.073005
  13 H :    0.048174
  14 H :    0.034056
  15 H :    0.017237
  16 S :    0.077732
  17 C :   -0.096155
  18 C :   -0.057922
  19 C :   -0.061721
  20 C :   -0.153897
  21 H :    0.047598
  22 C :    0.041947
  23 H :    0.041024
  24 H :    0.044833
  25 C :   -0.092682
  26 H :    0.027511
  27 H :    0.025472
  28 C :    0.021817
  29 H :    0.023557
  30 H :    0.016333
  31 H :    0.031618
  32 H :    0.012058
  33 H :    0.070856
Sum of atomic charges:   -0.0000000

LOEWDIN ATOMIC CHARGES
----------------------
   0 S :    0.370633
   1 C :   -0.158108
   2 C :   -0.053914
   3 C :   -0.075713
   4 C :   -0.182778
   5 H :    0.028962
   6 C :   -0.015880
   7 H :    0.028336
   8 H :    0.028510
   9 C :   -0.045616
  10 H :    0.017764
  11 H :    0.028791
  12 C :   -0.065161
  13 H :    0.022168
  14 H :    0.026489
  15 H :    0.018028
  16 S :    0.393834
  17 C :   -0.178118
  18 C :   -0.087064
  19 C :   -0.051755
  20 C :   -0.195609
  21 H :    0.045793
  22 C :   -0.033282
  23 H :    0.035795
  24 H :    0.033794
  25 C :   -0.036236
  26 H :    0.022156
  27 H :    0.017588
  28 C :   -0.059876
  29 H :    0.021009
  30 H :    0.026584
  31 H :    0.032165
  32 H :    0.007470
  33 H :    0.033242

  Mayer bond orders larger than 0.100000
B(  0-S ,  1-C ) :   1.1091 B(  0-S ,  4-C ) :   1.1447 B(  1-C ,  2-C ) :   1.6055
B(  1-C , 32-H ) :   0.9866 B(  2-C ,  3-C ) :   1.2250 B(  2-C ,  6-C ) :   1.0176
B(  3-C ,  4-C ) :   1.5810 B(  3-C ,  5-H ) :   1.0047 B(  4-C , 20-C ) :   1.0762
B(  6-C ,  7-H ) :   0.9430 B(  6-C ,  8-H ) :   0.9462 B(  6-C ,  9-C ) :   1.0514
B(  9-C , 10-H ) :   0.9625 B(  9-C , 11-H ) :   0.9624 B(  9-C , 12-C ) :   1.0688
B( 12-C , 13-H ) :   0.9762 B( 12-C , 14-H ) :   0.9753 B( 12-C , 15-H ) :   0.9794
B( 16-S , 17-C ) :   1.1716 B( 16-S , 20-C ) :   1.1416 B( 17-C , 18-C ) :   1.5646
B( 17-C , 20-C ) :   0.1098 B( 17-C , 33-H ) :   0.9641 B( 18-C , 19-C ) :   1.2834
B( 18-C , 21-H ) :   0.9721 B( 19-C , 20-C ) :   1.5271 B( 19-C , 22-C ) :   1.0278
B( 22-C , 23-H ) :   0.9131 B( 22-C , 24-H ) :   0.9394 B( 22-C , 25-C ) :   1.0911
B( 25-C , 26-H ) :   0.9491 B( 25-C , 27-H ) :   0.9447 B( 25-C , 28-C ) :   1.0847
B( 28-C , 29-H ) :   0.9693 B( 28-C , 30-H ) :   0.9698 B( 28-C , 31-H ) :   0.9710

Dispersion correction           -0.013732874
FINAL SINGLE POINT ENERGY     -1339.863943590875

DIPOLE MOMENT
-------------
                                X             Y             Z
Electronic contribution:      8.09296       9.10959     -26.38847
Nuclear contribution   :     -8.60918      -9.25802      26.97753
                        -----------------------------------------
Total Dipole Moment    :     -0.51622      -0.14843       0.58906
                        -----------------------------------------
Magnitude (a.u.)       :      0.79718
Magnitude (Debye)      :      2.02628

Rotational constants in cm-1:     0.017435     0.008739     0.006156
Rotational constants in MHz :   522.675866   262.002944   184.550537

                             ****ORCA TERMINATED NORMALLY****
TOTAL RUN TIME: 0 days 0 hours 0 minutes 21 seconds 251 msec
