                         Program Version 4.2.1 -  RELEASE  -
|  1> ! wB97X-D3 SP def2-SVP
|  2> %pal
|  3> nprocs 24
|  4> end
|  5>
|  6> * xyz 0 1
|  7> S 	 -127.646 	 58.9722 	 -54.5286
|  8> C 	 -126.126 	 59.7852 	 -54.8117
|  9> C 	 -125.941 	 60.8884 	 -53.9882
| 10> C 	 -127.144 	 61.2146 	 -53.3277
| 11> C 	 -128.155 	 60.2605 	 -53.4887
| 12> H 	 -127.402 	 62.0799 	 -52.7014
| 13> C 	 -124.794 	 61.9423 	 -54.0577
| 14> H 	 -124.095 	 61.6111 	 -54.829
| 15> H 	 -124.283 	 61.9417 	 -53.0745
| 16> C 	 -125.284 	 63.2944 	 -54.532
| 17> H 	 -125.861 	 63.8748 	 -53.7968
| 18> H 	 -124.385 	 63.9114 	 -54.5844
| 19> C 	 -126.098 	 63.271 	 -55.8342
| 20> H 	 -126.42 	 64.3235 	 -55.9633
| 21> H 	 -125.516 	 62.8022 	 -56.6688
| 22> H 	 -127.036 	 62.6725 	 -55.6951
| 23> S 	 -130.907 	 60.2243 	 -53.9204
| 24> C 	 -132.006 	 60.339 	 -52.5802
| 25> C 	 -131.331 	 60.4616 	 -51.3875
| 26> C 	 -129.888 	 60.5288 	 -51.5156
| 27> C 	 -129.494 	 60.3573 	 -52.8744
| 28> H 	 -131.918 	 60.4748 	 -50.4842
| 29> C 	 -129.031 	 60.697 	 -50.2892
| 30> H 	 -127.952 	 60.8394 	 -50.5316
| 31> H 	 -129.042 	 59.6949 	 -49.7959
| 32> C 	 -129.595 	 61.6583 	 -49.2528
| 33> H 	 -130.568 	 61.423 	 -48.7804
| 34> H 	 -129.802 	 62.6089 	 -49.7151
| 35> C 	 -128.531 	 61.9555 	 -48.1186
| 36> H 	 -127.714 	 62.5331 	 -48.5025
| 37> H 	 -128.049 	 61.0205 	 -47.6743
| 38> H 	 -129.031 	 62.3951 	 -47.2219
| 39> H 	 -125.373 	 59.458 	 -55.5924
| 40> H 	 -133.129 	 60.2088 	 -52.5349
| 41> *
| 42>
| 43>                          ****END OF INPUT****

CARTESIAN COORDINATES (ANGSTROEM)
---------------------------------
  S    -127.646000   58.972200  -54.528600
  C    -126.126000   59.785200  -54.811700
  C    -125.941000   60.888400  -53.988200
  C    -127.144000   61.214600  -53.327700
  C    -128.155000   60.260500  -53.488700
  H    -127.402000   62.079900  -52.701400
  C    -124.794000   61.942300  -54.057700
  H    -124.095000   61.611100  -54.829000
  H    -124.283000   61.941700  -53.074500
  C    -125.284000   63.294400  -54.532000
  H    -125.861000   63.874800  -53.796800
  H    -124.385000   63.911400  -54.584400
  C    -126.098000   63.271000  -55.834200
  H    -126.420000   64.323500  -55.963300
  H    -125.516000   62.802200  -56.668800
  H    -127.036000   62.672500  -55.695100
  S    -130.907000   60.224300  -53.920400
  C    -132.006000   60.339000  -52.580200
  C    -131.331000   60.461600  -51.387500
  C    -129.888000   60.528800  -51.515600
  C    -129.494000   60.357300  -52.874400
  H    -131.918000   60.474800  -50.484200
  C    -129.031000   60.697000  -50.289200
  H    -127.952000   60.839400  -50.531600
  H    -129.042000   59.694900  -49.795900
  C    -129.595000   61.658300  -49.252800
  H    -130.568000   61.423000  -48.780400
  H    -129.802000   62.608900  -49.715100
  C    -128.531000   61.955500  -48.118600
  H    -127.714000   62.533100  -48.502500
  H    -128.049000   61.020500  -47.674300
  H    -129.031000   62.395100  -47.221900
  H    -125.373000   59.458000  -55.592400
  H    -133.129000   60.208800  -52.534900

 Total Charge           Charge          ....    0
 Multiplicity           Mult            ....    1
 Number of Electrons    NEL             ....  134
 Basis Dimension        Dim             ....  322

ORBITAL ENERGIES
----------------

  NO   OCC          E(Eh)            E(eV)
   0   2.0000     -88.969744     -2420.9898
   1   2.0000     -88.966364     -2420.8978
   2   2.0000     -10.331063      -281.1225
   3   2.0000     -10.328322      -281.0479
   4   2.0000     -10.319554      -280.8093
   5   2.0000     -10.318913      -280.7919
   6   2.0000     -10.310393      -280.5600
   7   2.0000     -10.301215      -280.3103
   8   2.0000     -10.297597      -280.2119
   9   2.0000     -10.297054      -280.1971
  10   2.0000     -10.292900      -280.0840
  11   2.0000     -10.292338      -280.0688
  12   2.0000     -10.292158      -280.0639
  13   2.0000     -10.287173      -279.9282
  14   2.0000     -10.285895      -279.8934
  15   2.0000     -10.282396      -279.7982
  16   2.0000      -8.084548      -219.9917
  17   2.0000      -8.080825      -219.8904
  18   2.0000      -6.042951      -164.4371
  19   2.0000      -6.039438      -164.3415
  20   2.0000      -6.039047      -164.3308
  21   2.0000      -6.035419      -164.2321
  22   2.0000      -6.035272      -164.2281
  23   2.0000      -6.031599      -164.1282
  24   2.0000      -1.003928       -27.3183
  25   2.0000      -0.982485       -26.7348
  26   2.0000      -0.911995       -24.8166
  27   2.0000      -0.908075       -24.7100
  28   2.0000      -0.863956       -23.5094
  29   2.0000      -0.846956       -23.0468
  30   2.0000      -0.841731       -22.9047
  31   2.0000      -0.809136       -22.0177
  32   2.0000      -0.781867       -21.2757
  33   2.0000      -0.768173       -20.9030
  34   2.0000      -0.707092       -19.2410
  35   2.0000      -0.696694       -18.9580
  36   2.0000      -0.688039       -18.7225
  37   2.0000      -0.649923       -17.6853
  38   2.0000      -0.635308       -17.2876
  39   2.0000      -0.620257       -16.8780
  40   2.0000      -0.593328       -16.1453
  41   2.0000      -0.563149       -15.3241
  42   2.0000      -0.561229       -15.2718
  43   2.0000      -0.558206       -15.1896
  44   2.0000      -0.532538       -14.4911
  45   2.0000      -0.523935       -14.2570
  46   2.0000      -0.512281       -13.9399
  47   2.0000      -0.508355       -13.8330
  48   2.0000      -0.500309       -13.6141
  49   2.0000      -0.491394       -13.3715
  50   2.0000      -0.485314       -13.2061
  51   2.0000      -0.472927       -12.8690
  52   2.0000      -0.469334       -12.7712
  53   2.0000      -0.468122       -12.7383
  54   2.0000      -0.454939       -12.3795
  55   2.0000      -0.449094       -12.2205
  56   2.0000      -0.445911       -12.1339
  57   2.0000      -0.439339       -11.9550
  58   2.0000      -0.435199       -11.8424
  59   2.0000      -0.424644       -11.5552
  60   2.0000      -0.418902       -11.3989
  61   2.0000      -0.417785       -11.3685
  62   2.0000      -0.409085       -11.1318
  63   2.0000      -0.341248        -9.2858
  64   2.0000      -0.334575        -9.1043
  65   2.0000      -0.326851        -8.8941
  66   2.0000      -0.291656        -7.9364
  67   0.0000       0.029867         0.8127
  68   0.0000       0.074460         2.0262
  69   0.0000       0.118682         3.2295
  70   0.0000       0.120937         3.2909
  71   0.0000       0.126558         3.4438

MULLIKEN ATOMIC CHARGES
-----------------------
   0 S :    0.132772
   1 C :   -0.157721
   2 C :   -0.086408
   3 C :    0.007433
   4 C :   -0.165262
   5 H :    0.023629
   6 C :    0.080329
   7 H :    0.016973
   8 H :    0.046920
   9 C :   -0.100197
  10 H :    0.023729
  11 H :    0.026748
  12 C :   -0.062549
  13 H :    0.041855
  14 H :    0.040779
  15 H :    0.057693
  16 S :    0.111210
  17 C :   -0.101509
  18 C :   -0.056097
  19 C :   -0.010653
  20 C :   -0.180361
  21 H :    0.016590
  22 C :    0.063162
  23 H :    0.032502
  24 H :    0.043757
  25 C :   -0.094595
  26 H :    0.038212
  27 H :    0.028145
  28 C :   -0.073764
  29 H :    0.037972
  30 H :    0.031010
  31 H :    0.041526
  32 H :    0.070257
  33 H :    0.075915
Sum of atomic charges:   -0.0000000

LOEWDIN ATOMIC CHARGES
----------------------
   0 S :    0.419848
   1 C :   -0.211186
   2 C :   -0.070320
   3 C :   -0.066513
   4 C :   -0.206585
   5 H :    0.034998
   6 C :   -0.028763
   7 H :    0.027876
   8 H :    0.037273
   9 C :   -0.052189
  10 H :    0.021490
  11 H :    0.025264
  12 C :   -0.068620
  13 H :    0.032247
  14 H :    0.028241
  15 H :    0.035340
  16 S :    0.406566
  17 C :   -0.203153
  18 C :   -0.076590
  19 C :   -0.048760
  20 C :   -0.205431
  21 H :    0.029010
  22 C :   -0.041560
  23 H :    0.035466
  24 H :    0.043862
  25 C :   -0.043091
  26 H :    0.026758
  27 H :    0.022124
  28 C :   -0.071125
  29 H :    0.020951
  30 H :    0.028765
  31 H :    0.030369
  32 H :    0.039757
  33 H :    0.047681

  Mayer bond orders larger than 0.100000
B(  0-S ,  1-C ) :   1.1484 B(  0-S ,  4-C ) :   1.1626 B(  1-C ,  2-C ) :   1.5954
B(  1-C , 32-H ) :   0.9567 B(  2-C ,  3-C ) :   1.2400 B(  2-C ,  6-C ) :   1.0200
B(  3-C ,  4-C ) :   1.5635 B(  3-C ,  5-H ) :   0.9905 B(  4-C , 20-C ) :   1.0436
B(  6-C ,  7-H ) :   0.9456 B(  6-C ,  8-H ) :   0.9362 B(  6-C ,  9-C ) :   1.0737
B(  9-C , 10-H ) :   0.9491 B(  9-C , 11-H ) :   0.9530 B(  9-C , 12-C ) :   1.0736
B( 12-C , 13-H ) :   0.9715 B( 12-C , 14-H ) :   0.9759 B( 12-C , 15-H ) :   0.9680
B( 16-S , 17-C ) :   1.1497 B( 16-S , 20-C ) :   1.1411 B( 17-C , 18-C ) :   1.6356
B( 17-C , 33-H ) :   0.9546 B( 18-C , 19-C ) :   1.2309 B( 18-C , 21-H ) :   0.9861
B( 19-C , 20-C ) :   1.5728 B( 19-C , 22-C ) :   1.0499 B( 22-C , 23-H ) :   0.9419
B( 22-C , 24-H ) :   0.9196 B( 22-C , 25-C ) :   1.0510 B( 25-C , 26-H ) :   0.9506
B( 25-C , 27-H ) :   0.9615 B( 25-C , 28-C ) :   1.0758 B( 28-C , 29-H ) :   0.9781
B( 28-C , 30-H ) :   0.9750 B( 28-C , 31-H ) :   0.9763

Dispersion correction           -0.014475262
FINAL SINGLE POINT ENERGY     -1339.883774984354

DIPOLE MOMENT
-------------
                                X             Y             Z
Electronic contribution:    -12.13562     -17.42765     -13.88433
Nuclear contribution   :     12.31083      17.79624      14.35094
                        -----------------------------------------
Total Dipole Moment    :      0.17521       0.36859       0.46661
                        -----------------------------------------
Magnitude (a.u.)       :      0.61990
Magnitude (Debye)      :      1.57567

Rotational constants in cm-1:     0.016857     0.009059     0.007072
Rotational constants in MHz :   505.354063   271.577338   212.003806

                             ****ORCA TERMINATED NORMALLY****
TOTAL RUN TIME: 0 days 0 hours 0 minutes 21 seconds 552 msec
