                         Program Version 4.2.1 -  RELEASE  -
|  1> ! wB97X-D3 SP def2-SVP
|  2> %pal
|  3> nprocs 24
|  4> end
|  5>
|  6> * xyz 0 1
|  7> S 	 -108.517 	 54.3033 	 -93.3318
|  8> C 	 -109.185 	 55.5777 	 -94.2973
|  9> C 	 -110.12 	 56.2853 	 -93.5088
| 10> C 	 -110.124 	 55.8398 	 -92.1306
| 11> C 	 -109.321 	 54.7777 	 -91.8489
| 12> H 	 -110.677 	 56.3786 	 -91.3226
| 13> C 	 -110.863 	 57.487 	 -93.8329
| 14> H 	 -110.077 	 58.2934 	 -93.8664
| 15> H 	 -111.571 	 57.7248 	 -93.0585
| 16> C 	 -111.676 	 57.5525 	 -95.1721
| 17> H 	 -111.003 	 57.3085 	 -95.9723
| 18> H 	 -112.445 	 56.8206 	 -95.0826
| 19> C 	 -112.368 	 58.9243 	 -95.4504
| 20> H 	 -113.184 	 58.9886 	 -94.7469
| 21> H 	 -111.729 	 59.7901 	 -95.4065
| 22> H 	 -112.951 	 58.8413 	 -96.3755
| 23> S 	 -108.029 	 55.1518 	 -89.4645
| 24> C 	 -107.978 	 53.8731 	 -88.3006
| 25> C 	 -108.675 	 52.7773 	 -88.686
| 26> C 	 -109.319 	 52.9723 	 -89.9731
| 27> C 	 -109.055 	 54.2418 	 -90.5422
| 28> H 	 -108.623 	 51.8825 	 -88.2449
| 29> C 	 -109.994 	 51.8549 	 -90.7221
| 30> H 	 -110.534 	 52.2159 	 -91.5626
| 31> H 	 -110.845 	 51.4266 	 -90.1051
| 32> C 	 -109.17 	 50.5854 	 -91.0095
| 33> H 	 -109.773 	 49.83 	 -91.3992
| 34> H 	 -108.745 	 50.3068 	 -90.0018
| 35> C 	 -108.088 	 50.8737 	 -92.0068
| 36> H 	 -107.601 	 49.9311 	 -92.4142
| 37> H 	 -107.266 	 51.5223 	 -91.684
| 38> H 	 -108.532 	 51.3248 	 -92.8483
| 39> H 	 -108.836 	 55.8927 	 -95.2551
| 40> H 	 -107.297 	 53.8151 	 -87.4227
| 41> *
| 42>
| 43>                          ****END OF INPUT****

CARTESIAN COORDINATES (ANGSTROEM)
---------------------------------
  S    -108.517000   54.303300  -93.331800
  C    -109.185000   55.577700  -94.297300
  C    -110.120000   56.285300  -93.508800
  C    -110.124000   55.839800  -92.130600
  C    -109.321000   54.777700  -91.848900
  H    -110.677000   56.378600  -91.322600
  C    -110.863000   57.487000  -93.832900
  H    -110.077000   58.293400  -93.866400
  H    -111.571000   57.724800  -93.058500
  C    -111.676000   57.552500  -95.172100
  H    -111.003000   57.308500  -95.972300
  H    -112.445000   56.820600  -95.082600
  C    -112.368000   58.924300  -95.450400
  H    -113.184000   58.988600  -94.746900
  H    -111.729000   59.790100  -95.406500
  H    -112.951000   58.841300  -96.375500
  S    -108.029000   55.151800  -89.464500
  C    -107.978000   53.873100  -88.300600
  C    -108.675000   52.777300  -88.686000
  C    -109.319000   52.972300  -89.973100
  C    -109.055000   54.241800  -90.542200
  H    -108.623000   51.882500  -88.244900
  C    -109.994000   51.854900  -90.722100
  H    -110.534000   52.215900  -91.562600
  H    -110.845000   51.426600  -90.105100
  C    -109.170000   50.585400  -91.009500
  H    -109.773000   49.830000  -91.399200
  H    -108.745000   50.306800  -90.001800
  C    -108.088000   50.873700  -92.006800
  H    -107.601000   49.931100  -92.414200
  H    -107.266000   51.522300  -91.684000
  H    -108.532000   51.324800  -92.848300
  H    -108.836000   55.892700  -95.255100
  H    -107.297000   53.815100  -87.422700

 Total Charge           Charge          ....    0
 Multiplicity           Mult            ....    1
 Number of Electrons    NEL             ....  134
 Basis Dimension        Dim             ....  322

ORBITAL ENERGIES
----------------

  NO   OCC          E(Eh)            E(eV)
   0   2.0000     -88.965663     -2420.8788
   1   2.0000     -88.965462     -2420.8733
   2   2.0000     -10.326022      -280.9854
   3   2.0000     -10.325708      -280.9768
   4   2.0000     -10.317746      -280.7601
   5   2.0000     -10.315994      -280.7125
   6   2.0000     -10.306573      -280.4561
   7   2.0000     -10.301615      -280.3212
   8   2.0000     -10.294303      -280.1222
   9   2.0000     -10.289243      -279.9845
  10   2.0000     -10.286593      -279.9124
  11   2.0000     -10.286067      -279.8981
  12   2.0000     -10.285426      -279.8807
  13   2.0000     -10.282986      -279.8143
  14   2.0000     -10.279726      -279.7256
  15   2.0000     -10.266638      -279.3694
  16   2.0000      -8.080810      -219.8900
  17   2.0000      -8.079873      -219.8645
  18   2.0000      -6.039372      -164.3397
  19   2.0000      -6.038509      -164.3162
  20   2.0000      -6.035112      -164.2237
  21   2.0000      -6.034159      -164.1978
  22   2.0000      -6.031636      -164.1292
  23   2.0000      -6.030751      -164.1051
  24   2.0000      -1.007974       -27.4284
  25   2.0000      -0.986004       -26.8305
  26   2.0000      -0.911983       -24.8163
  27   2.0000      -0.910816       -24.7846
  28   2.0000      -0.874280       -23.7904
  29   2.0000      -0.851044       -23.1581
  30   2.0000      -0.846460       -23.0333
  31   2.0000      -0.818145       -22.2629
  32   2.0000      -0.780894       -21.2492
  33   2.0000      -0.766581       -20.8597
  34   2.0000      -0.712059       -19.3761
  35   2.0000      -0.702489       -19.1157
  36   2.0000      -0.692223       -18.8364
  37   2.0000      -0.661262       -17.9939
  38   2.0000      -0.641943       -17.4682
  39   2.0000      -0.614049       -16.7091
  40   2.0000      -0.600050       -16.3282
  41   2.0000      -0.576674       -15.6921
  42   2.0000      -0.567559       -15.4441
  43   2.0000      -0.553714       -15.0673
  44   2.0000      -0.540334       -14.7032
  45   2.0000      -0.522275       -14.2118
  46   2.0000      -0.520364       -14.1598
  47   2.0000      -0.516071       -14.0430
  48   2.0000      -0.506512       -13.7829
  49   2.0000      -0.500990       -13.6326
  50   2.0000      -0.495844       -13.4926
  51   2.0000      -0.477511       -12.9937
  52   2.0000      -0.470776       -12.8105
  53   2.0000      -0.466001       -12.6805
  54   2.0000      -0.458030       -12.4636
  55   2.0000      -0.448434       -12.2025
  56   2.0000      -0.445856       -12.1324
  57   2.0000      -0.434183       -11.8147
  58   2.0000      -0.425264       -11.5720
  59   2.0000      -0.420710       -11.4481
  60   2.0000      -0.419011       -11.4019
  61   2.0000      -0.418156       -11.3786
  62   2.0000      -0.410943       -11.1823
  63   2.0000      -0.339242        -9.2312
  64   2.0000      -0.332500        -9.0478
  65   2.0000      -0.318309        -8.6616
  66   2.0000      -0.301234        -8.1970
  67   0.0000       0.042332         1.1519
  68   0.0000       0.050817         1.3828
  69   0.0000       0.109836         2.9888
  70   0.0000       0.117091         3.1862
  71   0.0000       0.129756         3.5309

MULLIKEN ATOMIC CHARGES
-----------------------
   0 S :    0.120628
   1 C :   -0.113137
   2 C :   -0.072210
   3 C :    0.000606
   4 C :   -0.145318
   5 H :    0.032784
   6 C :    0.025003
   7 H :    0.046817
   8 H :    0.017398
   9 C :   -0.075226
  10 H :    0.024061
  11 H :    0.025891
  12 C :   -0.035557
  13 H :    0.018741
  14 H :    0.040902
  15 H :    0.033612
  16 S :    0.122020
  17 C :   -0.088999
  18 C :    0.014646
  19 C :   -0.023613
  20 C :   -0.177796
  21 H :   -0.028590
  22 C :    0.024850
  23 H :    0.018068
  24 H :    0.030093
  25 C :   -0.034839
  26 H :    0.021281
  27 H :    0.027583
  28 C :   -0.050845
  29 H :    0.030297
  30 H :    0.040824
  31 H :    0.012256
  32 H :    0.047319
  33 H :    0.070451
Sum of atomic charges:   -0.0000000

LOEWDIN ATOMIC CHARGES
----------------------
   0 S :    0.425792
   1 C :   -0.203517
   2 C :   -0.065130
   3 C :   -0.062904
   4 C :   -0.206538
   5 H :    0.039784
   6 C :   -0.041784
   7 H :    0.042050
   8 H :    0.026208
   9 C :   -0.030507
  10 H :    0.015617
  11 H :    0.021589
  12 C :   -0.063741
  13 H :    0.023368
  14 H :    0.023175
  15 H :    0.031698
  16 S :    0.421842
  17 C :   -0.189594
  18 C :   -0.059006
  19 C :   -0.043016
  20 C :   -0.209610
  21 H :    0.009464
  22 C :   -0.039902
  23 H :    0.021854
  24 H :    0.038860
  25 C :   -0.032823
  26 H :    0.019531
  27 H :    0.025771
  28 C :   -0.072130
  29 H :    0.029936
  30 H :    0.026075
  31 H :    0.010508
  32 H :    0.026391
  33 H :    0.040688

  Mayer bond orders larger than 0.100000
B(  0-S ,  1-C ) :   1.1492 B(  0-S ,  4-C ) :   1.1423 B(  1-C ,  2-C ) :   1.5614
B(  1-C , 32-H ) :   0.9776 B(  2-C ,  3-C ) :   1.2515 B(  2-C ,  6-C ) :   1.0473
B(  3-C ,  4-C ) :   1.5781 B(  3-C ,  5-H ) :   0.9883 B(  4-C , 20-C ) :   1.0417
B(  6-C ,  7-H ) :   0.9286 B(  6-C ,  8-H ) :   0.9451 B(  6-C ,  9-C ) :   1.0580
B(  9-C , 10-H ) :   0.9590 B(  9-C , 11-H ) :   0.9596 B(  9-C , 12-C ) :   1.0860
B( 12-C , 13-H ) :   0.9734 B( 12-C , 14-H ) :   0.9780 B( 12-C , 15-H ) :   0.9720
B( 16-S , 17-C ) :   1.1609 B( 16-S , 20-C ) :   1.1421 B( 17-C , 18-C ) :   1.6129
B( 17-C , 33-H ) :   0.9575 B( 18-C , 19-C ) :   1.2355 B( 18-C , 21-H ) :   1.0070
B( 19-C , 20-C ) :   1.5770 B( 19-C , 22-C ) :   1.0655 B( 22-C , 23-H ) :   0.9346
B( 22-C , 24-H ) :   0.9287 B( 22-C , 25-C ) :   1.0740 B( 25-C , 26-H ) :   0.9502
B( 25-C , 27-H ) :   0.9527 B( 25-C , 28-C ) :   1.0794 B( 28-C , 29-H ) :   0.9713
B( 28-C , 30-H ) :   0.9759 B( 28-C , 31-H ) :   0.9678

Dispersion correction           -0.014722761
FINAL SINGLE POINT ENERGY     -1339.871022731361

DIPOLE MOMENT
-------------
                                X             Y             Z
Electronic contribution:     12.07367       0.40396      12.31597
Nuclear contribution   :    -12.29253      -0.37037     -12.42089
                        -----------------------------------------
Total Dipole Moment    :     -0.21886       0.03359      -0.10492
                        -----------------------------------------
Magnitude (a.u.)       :      0.24502
Magnitude (Debye)      :      0.62279

Rotational constants in cm-1:     0.024791     0.007209     0.006287
Rotational constants in MHz :   743.226399   216.129076   188.467699

                             ****ORCA TERMINATED NORMALLY****
TOTAL RUN TIME: 0 days 0 hours 0 minutes 20 seconds 192 msec
