                         Program Version 4.2.1 -  RELEASE  -
|  1> ! wB97X-D3 SP def2-SVP
|  2> %pal
|  3> nprocs 24
|  4> end
|  5>
|  6> * xyz 0 1
|  7> S 	 -106.694 	 59.0567 	 -101.071
|  8> C 	 -107.803 	 58.8577 	 -102.344
|  9> C 	 -109.017 	 59.4765 	 -101.991
| 10> C 	 -109.102 	 59.9388 	 -100.636
| 11> C 	 -107.95 	 59.6137 	 -99.9367
| 12> H 	 -109.972 	 60.3952 	 -100.137
| 13> C 	 -110.266 	 59.5476 	 -102.883
| 14> H 	 -110.982 	 58.8954 	 -102.383
| 15> H 	 -110.137 	 59.1785 	 -103.875
| 16> C 	 -110.833 	 61.0226 	 -102.973
| 17> H 	 -111.859 	 60.971 	 -103.304
| 18> H 	 -110.936 	 61.4177 	 -101.982
| 19> C 	 -110.079 	 61.8696 	 -103.931
| 20> H 	 -110.172 	 61.4315 	 -104.945
| 21> H 	 -110.445 	 62.926 	 -104.048
| 22> H 	 -109.079 	 62.0011 	 -103.608
| 23> S 	 -107.622 	 58.5205 	 -97.4492
| 24> C 	 -107.557 	 59.5137 	 -96.0142
| 25> C 	 -107.909 	 60.8234 	 -96.3715
| 26> C 	 -107.984 	 61.0173 	 -97.7874
| 27> C 	 -107.649 	 59.9277 	 -98.5545
| 28> H 	 -107.948 	 61.582 	 -95.5948
| 29> C 	 -108.336 	 62.3787 	 -98.3654
| 30> H 	 -108.5 	 62.4386 	 -99.4904
| 31> H 	 -107.337 	 62.851 	 -98.2729
| 32> C 	 -109.382 	 63.0756 	 -97.5882
| 33> H 	 -109.634 	 64.0598 	 -98.1006
| 34> H 	 -109.068 	 63.3182 	 -96.5912
| 35> C 	 -110.743 	 62.3135 	 -97.512
| 36> H 	 -111.355 	 62.8814 	 -96.7924
| 37> H 	 -110.638 	 61.2959 	 -97.094
| 38> H 	 -111.211 	 62.0894 	 -98.5209
| 39> H 	 -107.549 	 58.4288 	 -103.273
| 40> H 	 -107.191 	 59.1762 	 -95.0245
| 41> *
| 42>
| 43>                          ****END OF INPUT****

CARTESIAN COORDINATES (ANGSTROEM)
---------------------------------
  S    -106.694000   59.056700  -101.071000
  C    -107.803000   58.857700  -102.344000
  C    -109.017000   59.476500  -101.991000
  C    -109.102000   59.938800  -100.636000
  C    -107.950000   59.613700  -99.936700
  H    -109.972000   60.395200  -100.137000
  C    -110.266000   59.547600  -102.883000
  H    -110.982000   58.895400  -102.383000
  H    -110.137000   59.178500  -103.875000
  C    -110.833000   61.022600  -102.973000
  H    -111.859000   60.971000  -103.304000
  H    -110.936000   61.417700  -101.982000
  C    -110.079000   61.869600  -103.931000
  H    -110.172000   61.431500  -104.945000
  H    -110.445000   62.926000  -104.048000
  H    -109.079000   62.001100  -103.608000
  S    -107.622000   58.520500  -97.449200
  C    -107.557000   59.513700  -96.014200
  C    -107.909000   60.823400  -96.371500
  C    -107.984000   61.017300  -97.787400
  C    -107.649000   59.927700  -98.554500
  H    -107.948000   61.582000  -95.594800
  C    -108.336000   62.378700  -98.365400
  H    -108.500000   62.438600  -99.490400
  H    -107.337000   62.851000  -98.272900
  C    -109.382000   63.075600  -97.588200
  H    -109.634000   64.059800  -98.100600
  H    -109.068000   63.318200  -96.591200
  C    -110.743000   62.313500  -97.512000
  H    -111.355000   62.881400  -96.792400
  H    -110.638000   61.295900  -97.094000
  H    -111.211000   62.089400  -98.520900
  H    -107.549000   58.428800  -103.273000
  H    -107.191000   59.176200  -95.024500

 Total Charge           Charge          ....    0
 Multiplicity           Mult            ....    1
 Number of Electrons    NEL             ....  134
 Basis Dimension        Dim             ....  322

ORBITAL ENERGIES
----------------

  NO   OCC          E(Eh)            E(eV)
   0   2.0000     -88.963046     -2420.8075
   1   2.0000     -88.957736     -2420.6631
   2   2.0000     -10.329539      -281.0810
   3   2.0000     -10.326352      -280.9943
   4   2.0000     -10.321875      -280.8725
   5   2.0000     -10.312221      -280.6098
   6   2.0000     -10.307341      -280.4770
   7   2.0000     -10.304579      -280.4018
   8   2.0000     -10.299646      -280.2676
   9   2.0000     -10.298912      -280.2476
  10   2.0000     -10.294213      -280.1198
  11   2.0000     -10.291324      -280.0412
  12   2.0000     -10.291214      -280.0382
  13   2.0000     -10.286326      -279.9052
  14   2.0000     -10.282786      -279.8088
  15   2.0000     -10.275517      -279.6110
  16   2.0000      -8.078300      -219.8217
  17   2.0000      -8.072411      -219.6615
  18   2.0000      -6.036715      -164.2674
  19   2.0000      -6.032678      -164.1575
  20   2.0000      -6.031046      -164.1131
  21   2.0000      -6.029179      -164.0623
  22   2.0000      -6.026940      -164.0014
  23   2.0000      -6.022991      -163.8939
  24   2.0000      -1.005455       -27.3598
  25   2.0000      -0.984121       -26.7793
  26   2.0000      -0.914268       -24.8785
  27   2.0000      -0.909015       -24.7356
  28   2.0000      -0.872716       -23.7478
  29   2.0000      -0.848810       -23.0973
  30   2.0000      -0.839981       -22.8570
  31   2.0000      -0.812713       -22.1150
  32   2.0000      -0.781417       -21.2634
  33   2.0000      -0.769699       -20.9446
  34   2.0000      -0.709228       -19.2991
  35   2.0000      -0.695649       -18.9296
  36   2.0000      -0.692422       -18.8418
  37   2.0000      -0.654780       -17.8175
  38   2.0000      -0.645337       -17.5605
  39   2.0000      -0.622554       -16.9406
  40   2.0000      -0.599561       -16.3149
  41   2.0000      -0.568844       -15.4790
  42   2.0000      -0.558978       -15.2106
  43   2.0000      -0.552517       -15.0347
  44   2.0000      -0.543003       -14.7759
  45   2.0000      -0.533404       -14.5147
  46   2.0000      -0.523824       -14.2540
  47   2.0000      -0.514489       -14.0000
  48   2.0000      -0.503016       -13.6878
  49   2.0000      -0.496761       -13.5176
  50   2.0000      -0.487240       -13.2585
  51   2.0000      -0.477266       -12.9871
  52   2.0000      -0.474190       -12.9034
  53   2.0000      -0.464832       -12.6487
  54   2.0000      -0.460515       -12.5313
  55   2.0000      -0.446545       -12.1511
  56   2.0000      -0.443800       -12.0764
  57   2.0000      -0.439964       -11.9720
  58   2.0000      -0.429343       -11.6830
  59   2.0000      -0.424254       -11.5445
  60   2.0000      -0.421317       -11.4646
  61   2.0000      -0.406986       -11.0747
  62   2.0000      -0.404805       -11.0153
  63   2.0000      -0.340842        -9.2748
  64   2.0000      -0.324879        -8.8404
  65   2.0000      -0.320825        -8.7301
  66   2.0000      -0.300016        -8.1639
  67   0.0000       0.024307         0.6614
  68   0.0000       0.065082         1.7710
  69   0.0000       0.107118         2.9148
  70   0.0000       0.112011         3.0480
  71   0.0000       0.124703         3.3933

MULLIKEN ATOMIC CHARGES
-----------------------
   0 S :    0.113859
   1 C :   -0.090437
   2 C :   -0.102311
   3 C :    0.021955
   4 C :   -0.165827
   5 H :    0.028722
   6 C :    0.064988
   7 H :    0.040467
   8 H :    0.006971
   9 C :   -0.063672
  10 H :    0.017626
  11 H :    0.012666
  12 C :   -0.039794
  13 H :    0.031937
  14 H :    0.033894
  15 H :    0.029916
  16 S :    0.083249
  17 C :   -0.100437
  18 C :   -0.039703
  19 C :   -0.065097
  20 C :   -0.126119
  21 H :    0.023036
  22 C :    0.048986
  23 H :    0.043615
  24 H :    0.048302
  25 C :   -0.077034
  26 H :    0.039770
  27 H :    0.024713
  28 C :   -0.088587
  29 H :    0.043559
  30 H :    0.044779
  31 H :    0.042642
  32 H :    0.035922
  33 H :    0.077445
Sum of atomic charges:   -0.0000000

LOEWDIN ATOMIC CHARGES
----------------------
   0 S :    0.417176
   1 C :   -0.206422
   2 C :   -0.063915
   3 C :   -0.058121
   4 C :   -0.192057
   5 H :    0.037314
   6 C :   -0.023802
   7 H :    0.033726
   8 H :    0.020349
   9 C :   -0.040340
  10 H :    0.021987
  11 H :    0.015315
  12 C :   -0.066575
  13 H :    0.029393
  14 H :    0.031408
  15 H :    0.020271
  16 S :    0.388383
  17 C :   -0.177336
  18 C :   -0.080525
  19 C :   -0.048912
  20 C :   -0.204468
  21 H :    0.030511
  22 C :   -0.046412
  23 H :    0.039563
  24 H :    0.044164
  25 C :   -0.046190
  26 H :    0.034831
  27 H :    0.018916
  28 C :   -0.074827
  29 H :    0.030373
  30 H :    0.026447
  31 H :    0.028477
  32 H :    0.021637
  33 H :    0.039663

  Mayer bond orders larger than 0.100000
B(  0-S ,  1-C ) :   1.1553 B(  0-S ,  4-C ) :   1.1584 B(  1-C ,  2-C ) :   1.5687
B(  1-C , 32-H ) :   0.9822 B(  2-C ,  3-C ) :   1.2454 B(  2-C ,  6-C ) :   1.0226
B(  3-C ,  4-C ) :   1.5656 B(  3-C ,  5-H ) :   0.9866 B(  4-C , 20-C ) :   1.0195
B(  6-C ,  7-H ) :   0.9435 B(  6-C ,  8-H ) :   0.9489 B(  6-C ,  9-C ) :   1.0655
B(  9-C , 10-H ) :   0.9520 B(  9-C , 11-H ) :   0.9565 B(  9-C , 12-C ) :   1.0801
B( 12-C , 13-H ) :   0.9718 B( 12-C , 14-H ) :   0.9706 B( 12-C , 15-H ) :   0.9766
B( 16-S , 17-C ) :   1.1825 B( 16-S , 20-C ) :   1.1178 B( 17-C , 18-C ) :   1.5751
B( 17-C , 20-C ) :   0.1038 B( 17-C , 33-H ) :   0.9641 B( 18-C , 19-C ) :   1.2380
B( 18-C , 21-H ) :   0.9926 B( 19-C , 20-C ) :   1.5999 B( 19-C , 22-C ) :   1.0082
B( 22-C , 23-H ) :   0.9443 B( 22-C , 24-H ) :   0.9313 B( 22-C , 25-C ) :   1.0845
B( 25-C , 26-H ) :   0.9522 B( 25-C , 27-H ) :   0.9465 B( 25-C , 28-C ) :   1.0757
B( 28-C , 29-H ) :   0.9740 B( 28-C , 30-H ) :   0.9703 B( 28-C , 31-H ) :   0.9706

Dispersion correction           -0.015475369
FINAL SINGLE POINT ENERGY     -1339.868241081952

DIPOLE MOMENT
-------------
                                X             Y             Z
Electronic contribution:     19.17168     -19.20986       8.38868
Nuclear contribution   :    -19.62266      19.77647      -8.38651
                        -----------------------------------------
Total Dipole Moment    :     -0.45098       0.56661       0.00217
                        -----------------------------------------
Magnitude (a.u.)       :      0.72417
Magnitude (Debye)      :      1.84071

Rotational constants in cm-1:     0.019006     0.009738     0.007237
Rotational constants in MHz :   569.792452   291.952401   216.958866

                             ****ORCA TERMINATED NORMALLY****
TOTAL RUN TIME: 0 days 0 hours 0 minutes 22 seconds 825 msec
