                         Program Version 4.2.1 -  RELEASE  -
|  1> ! wB97X-D3 SP def2-SVP
|  2> %pal
|  3> nprocs 24
|  4> end
|  5>
|  6> * xyz 0 1
|  7> S 	 -47.1393 	 2.21874 	 -16.9656
|  8> C 	 -48.0072 	 1.20596 	 -18.0653
|  9> C 	 -49.3908 	 1.12677 	 -17.8153
| 10> C 	 -49.7708 	 1.80454 	 -16.6409
| 11> C 	 -48.6457 	 2.43982 	 -16.0889
| 12> H 	 -50.6964 	 1.964 	 -16.2001
| 13> C 	 -50.3484 	 0.625996 	 -18.8617
| 14> H 	 -49.6897 	 0.0681557 	 -19.6173
| 15> H 	 -50.8333 	 1.44094 	 -19.3124
| 16> C 	 -51.5097 	 -0.258367 	 -18.3662
| 17> H 	 -51.1142 	 -1.01864 	 -17.7482
| 18> H 	 -52.2824 	 0.255871 	 -17.7407
| 19> C 	 -52.3124 	 -0.805918 	 -19.5991
| 20> H 	 -53.1646 	 -1.35069 	 -19.0674
| 21> H 	 -52.6448 	 -0.0359333 	 -20.2716
| 22> H 	 -51.5991 	 -1.45328 	 -20.1478
| 23> S 	 -48.3919 	 5.01578 	 -15.3395
| 24> C 	 -48.697 	 5.3871 	 -13.6581
| 25> C 	 -49.248 	 4.33525 	 -12.9366
| 26> C 	 -49.3753 	 3.15189 	 -13.7183
| 27> C 	 -48.7833 	 3.31036 	 -14.9625
| 28> H 	 -49.3853 	 4.52447 	 -11.9174
| 29> C 	 -49.9214 	 1.84687 	 -13.13
| 30> H 	 -49.1109 	 1.49797 	 -12.5241
| 31> H 	 -49.9116 	 1.15744 	 -13.9885
| 32> C 	 -51.2679 	 1.83543 	 -12.3819
| 33> H 	 -51.4633 	 2.73654 	 -11.7902
| 34> H 	 -51.2504 	 1.04765 	 -11.6438
| 35> C 	 -52.4374 	 1.68404 	 -13.3872
| 36> H 	 -52.4605 	 2.48346 	 -14.1782
| 37> H 	 -53.4109 	 1.69144 	 -12.934
| 38> H 	 -52.2373 	 0.751845 	 -13.8704
| 39> H 	 -47.6571 	 1.14193 	 -19.086
| 40> H 	 -48.3405 	 6.27935 	 -13.1642
| 41> *
| 42>
| 43>                          ****END OF INPUT****

CARTESIAN COORDINATES (ANGSTROEM)
---------------------------------
  S    -47.139300    2.218740  -16.965600
  C    -48.007200    1.205960  -18.065300
  C    -49.390800    1.126770  -17.815300
  C    -49.770800    1.804540  -16.640900
  C    -48.645700    2.439820  -16.088900
  H    -50.696400    1.964000  -16.200100
  C    -50.348400    0.625996  -18.861700
  H    -49.689700    0.068156  -19.617300
  H    -50.833300    1.440940  -19.312400
  C    -51.509700   -0.258367  -18.366200
  H    -51.114200   -1.018640  -17.748200
  H    -52.282400    0.255871  -17.740700
  C    -52.312400   -0.805918  -19.599100
  H    -53.164600   -1.350690  -19.067400
  H    -52.644800   -0.035933  -20.271600
  H    -51.599100   -1.453280  -20.147800
  S    -48.391900    5.015780  -15.339500
  C    -48.697000    5.387100  -13.658100
  C    -49.248000    4.335250  -12.936600
  C    -49.375300    3.151890  -13.718300
  C    -48.783300    3.310360  -14.962500
  H    -49.385300    4.524470  -11.917400
  C    -49.921400    1.846870  -13.130000
  H    -49.110900    1.497970  -12.524100
  H    -49.911600    1.157440  -13.988500
  C    -51.267900    1.835430  -12.381900
  H    -51.463300    2.736540  -11.790200
  H    -51.250400    1.047650  -11.643800
  C    -52.437400    1.684040  -13.387200
  H    -52.460500    2.483460  -14.178200
  H    -53.410900    1.691440  -12.934000
  H    -52.237300    0.751845  -13.870400
  H    -47.657100    1.141930  -19.086000
  H    -48.340500    6.279350  -13.164200

 Total Charge           Charge          ....    0
 Multiplicity           Mult            ....    1
 Number of Electrons    NEL             ....  134
 Basis Dimension        Dim             ....  322

ORBITAL ENERGIES
----------------

  NO   OCC          E(Eh)            E(eV)
   0   2.0000     -88.971176     -2421.0288
   1   2.0000     -88.962275     -2420.7866
   2   2.0000     -10.326079      -280.9869
   3   2.0000     -10.321150      -280.8528
   4   2.0000     -10.312525      -280.6181
   5   2.0000     -10.306632      -280.4577
   6   2.0000     -10.305241      -280.4199
   7   2.0000     -10.300987      -280.3041
   8   2.0000     -10.291737      -280.0524
   9   2.0000     -10.291677      -280.0508
  10   2.0000     -10.291412      -280.0435
  11   2.0000     -10.290520      -280.0193
  12   2.0000     -10.288015      -279.9511
  13   2.0000     -10.287261      -279.9306
  14   2.0000     -10.286748      -279.9166
  15   2.0000     -10.279840      -279.7287
  16   2.0000      -8.085904      -220.0286
  17   2.0000      -8.076800      -219.7809
  18   2.0000      -6.044178      -164.4705
  19   2.0000      -6.040479      -164.3698
  20   2.0000      -6.036854      -164.2712
  21   2.0000      -6.035262      -164.2278
  22   2.0000      -6.031567      -164.1273
  23   2.0000      -6.027396      -164.0138
  24   2.0000      -1.005848       -27.3705
  25   2.0000      -0.980112       -26.6702
  26   2.0000      -0.910848       -24.7854
  27   2.0000      -0.906934       -24.6789
  28   2.0000      -0.869079       -23.6488
  29   2.0000      -0.855665       -23.2838
  30   2.0000      -0.848591       -23.0913
  31   2.0000      -0.810709       -22.0605
  32   2.0000      -0.781738       -21.2722
  33   2.0000      -0.765206       -20.8223
  34   2.0000      -0.712522       -19.3887
  35   2.0000      -0.700843       -19.0709
  36   2.0000      -0.689608       -18.7652
  37   2.0000      -0.658781       -17.9263
  38   2.0000      -0.645057       -17.5529
  39   2.0000      -0.617446       -16.8016
  40   2.0000      -0.592704       -16.1283
  41   2.0000      -0.575716       -15.6660
  42   2.0000      -0.559651       -15.2289
  43   2.0000      -0.557334       -15.1658
  44   2.0000      -0.538483       -14.6529
  45   2.0000      -0.527466       -14.3531
  46   2.0000      -0.518147       -14.0995
  47   2.0000      -0.507309       -13.8046
  48   2.0000      -0.499888       -13.6026
  49   2.0000      -0.493678       -13.4337
  50   2.0000      -0.488976       -13.3057
  51   2.0000      -0.477441       -12.9918
  52   2.0000      -0.470114       -12.7925
  53   2.0000      -0.460593       -12.5334
  54   2.0000      -0.456525       -12.4227
  55   2.0000      -0.449814       -12.2401
  56   2.0000      -0.447220       -12.1695
  57   2.0000      -0.441566       -12.0156
  58   2.0000      -0.436070       -11.8661
  59   2.0000      -0.431528       -11.7425
  60   2.0000      -0.428750       -11.6669
  61   2.0000      -0.417032       -11.3480
  62   2.0000      -0.409028       -11.1302
  63   2.0000      -0.340886        -9.2760
  64   2.0000      -0.329758        -8.9732
  65   2.0000      -0.326345        -8.8803
  66   2.0000      -0.288782        -7.8582
  67   0.0000       0.023413         0.6371
  68   0.0000       0.067102         1.8259
  69   0.0000       0.106836         2.9072
  70   0.0000       0.117283         3.1914
  71   0.0000       0.127139         3.4596

MULLIKEN ATOMIC CHARGES
-----------------------
   0 S :    0.128742
   1 C :   -0.108818
   2 C :   -0.081547
   3 C :    0.068033
   4 C :   -0.183776
   5 H :   -0.019046
   6 C :    0.059857
   7 H :    0.031436
   8 H :    0.029281
   9 C :   -0.116778
  10 H :    0.026023
  11 H :    0.035844
  12 C :   -0.058763
  13 H :    0.052348
  14 H :    0.035684
  15 H :    0.037243
  16 S :    0.097292
  17 C :   -0.092438
  18 C :   -0.027655
  19 C :   -0.022943
  20 C :   -0.175280
  21 H :    0.001246
  22 C :    0.068139
  23 H :    0.035541
  24 H :    0.014981
  25 C :   -0.049330
  26 H :    0.031189
  27 H :    0.027403
  28 C :   -0.057841
  29 H :    0.047824
  30 H :    0.034585
  31 H :    0.023705
  32 H :    0.055259
  33 H :    0.052558
Sum of atomic charges:   -0.0000000

LOEWDIN ATOMIC CHARGES
----------------------
   0 S :    0.422174
   1 C :   -0.225043
   2 C :   -0.054800
   3 C :   -0.046403
   4 C :   -0.193033
   5 H :    0.021280
   6 C :   -0.033029
   7 H :    0.037931
   8 H :    0.026633
   9 C :   -0.042799
  10 H :    0.016552
  11 H :    0.025039
  12 C :   -0.064847
  13 H :    0.038032
  14 H :    0.021177
  15 H :    0.026428
  16 S :    0.382237
  17 C :   -0.180771
  18 C :   -0.066592
  19 C :   -0.050925
  20 C :   -0.189618
  21 H :    0.024070
  22 C :   -0.031072
  23 H :    0.034362
  24 H :    0.030642
  25 C :   -0.036079
  26 H :    0.024262
  27 H :    0.025121
  28 C :   -0.063156
  29 H :    0.030714
  30 H :    0.022784
  31 H :    0.019853
  32 H :    0.023733
  33 H :    0.025145

  Mayer bond orders larger than 0.100000
B(  0-S ,  1-C ) :   1.1356 B(  0-S ,  4-C ) :   1.1766 B(  1-C ,  2-C ) :   1.6023
B(  1-C , 32-H ) :   0.9557 B(  2-C ,  3-C ) :   1.2485 B(  2-C ,  6-C ) :   1.0314
B(  3-C ,  4-C ) :   1.5298 B(  3-C ,  5-H ) :   1.0065 B(  4-C , 20-C ) :   1.0496
B(  6-C ,  7-H ) :   0.9432 B(  6-C ,  8-H ) :   0.9334 B(  6-C ,  9-C ) :   1.0580
B(  9-C , 10-H ) :   0.9623 B(  9-C , 11-H ) :   0.9542 B(  9-C , 12-C ) :   1.0705
B( 12-C , 13-H ) :   0.9766 B( 12-C , 14-H ) :   0.9757 B( 12-C , 15-H ) :   0.9777
B( 16-S , 17-C ) :   1.1407 B( 16-S , 20-C ) :   1.1339 B( 17-C , 18-C ) :   1.6472
B( 17-C , 20-C ) :   0.1021 B( 17-C , 33-H ) :   0.9635 B( 18-C , 19-C ) :   1.1896
B( 18-C , 21-H ) :   1.0002 B( 19-C , 20-C ) :   1.6146 B( 19-C , 22-C ) :   1.0323
B( 22-C , 23-H ) :   0.9322 B( 22-C , 24-H ) :   0.9345 B( 22-C , 25-C ) :   1.0553
B( 25-C , 26-H ) :   0.9606 B( 25-C , 27-H ) :   0.9550 B( 25-C , 28-C ) :   1.0703
B( 28-C , 29-H ) :   0.9753 B( 28-C , 30-H ) :   0.9737 B( 28-C , 31-H ) :   0.9766

Dispersion correction           -0.014369962
FINAL SINGLE POINT ENERGY     -1339.858938169931

DIPOLE MOMENT
-------------
                                X             Y             Z
Electronic contribution:     24.47985      17.83100       0.62024
Nuclear contribution   :    -25.00457     -17.96901      -0.44057
                        -----------------------------------------
Total Dipole Moment    :     -0.52472      -0.13802       0.17967
                        -----------------------------------------
Magnitude (a.u.)       :      0.57154
Magnitude (Debye)      :      1.45275

Rotational constants in cm-1:     0.017295     0.009249     0.006724
Rotational constants in MHz :   518.484582   277.276792   201.570793

                             ****ORCA TERMINATED NORMALLY****
TOTAL RUN TIME: 0 days 0 hours 0 minutes 20 seconds 703 msec
