                         Program Version 4.2.1 -  RELEASE  -
|  1> ! wB97X-D3 SP def2-SVP
|  2> %pal
|  3> nprocs 24
|  4> end
|  5>
|  6> * xyz 0 1
|  7> S 	 -137.66 	 3.9079 	 3.26414
|  8> C 	 -137.927 	 3.74562 	 4.93395
|  9> C 	 -137.849 	 4.96139 	 5.62344
| 10> C 	 -137.671 	 6.03029 	 4.69168
| 11> C 	 -137.632 	 5.66782 	 3.37554
| 12> H 	 -137.646 	 7.07305 	 4.91399
| 13> C 	 -138.105 	 5.19694 	 7.07755
| 14> H 	 -137.392 	 5.94422 	 7.47121
| 15> H 	 -137.734 	 4.26992 	 7.55807
| 16> C 	 -139.617 	 5.52747 	 7.29533
| 17> H 	 -139.857 	 5.59062 	 8.35667
| 18> H 	 -139.761 	 6.47468 	 6.82276
| 19> C 	 -140.556 	 4.51154 	 6.68368
| 20> H 	 -140.488 	 3.50124 	 7.16497
| 21> H 	 -141.604 	 4.76228 	 6.90438
| 22> H 	 -140.593 	 4.27933 	 5.57206
| 23> S 	 -136.184 	 5.97093 	 0.963381
| 24> C 	 -136.318 	 7.42434 	 0.0325126
| 25> C 	 -137.373 	 8.22421 	 0.489102
| 26> C 	 -137.957 	 7.74764 	 1.73039
| 27> C 	 -137.414 	 6.51458 	 2.17738
| 28> H 	 -137.727 	 9.1181 	 0.0664331
| 29> C 	 -138.984 	 8.52193 	 2.45984
| 30> H 	 -138.733 	 9.53176 	 2.38803
| 31> H 	 -138.782 	 8.17014 	 3.42633
| 32> C 	 -140.533 	 8.26482 	 2.21089
| 33> H 	 -140.71 	 7.23423 	 2.38396
| 34> H 	 -140.746 	 8.41913 	 1.1949
| 35> C 	 -141.464 	 9.08492 	 3.15965
| 36> H 	 -140.994 	 10.0552 	 3.25692
| 37> H 	 -141.56 	 8.73632 	 4.19677
| 38> H 	 -142.443 	 9.39766 	 2.72129
| 39> H 	 -138.087 	 2.83941 	 5.48409
| 40> H 	 -135.696 	 7.60406 	 -0.823971
| 41> *
| 42>
| 43>                          ****END OF INPUT****

CARTESIAN COORDINATES (ANGSTROEM)
---------------------------------
  S    -137.660000    3.907900    3.264140
  C    -137.927000    3.745620    4.933950
  C    -137.849000    4.961390    5.623440
  C    -137.671000    6.030290    4.691680
  C    -137.632000    5.667820    3.375540
  H    -137.646000    7.073050    4.913990
  C    -138.105000    5.196940    7.077550
  H    -137.392000    5.944220    7.471210
  H    -137.734000    4.269920    7.558070
  C    -139.617000    5.527470    7.295330
  H    -139.857000    5.590620    8.356670
  H    -139.761000    6.474680    6.822760
  C    -140.556000    4.511540    6.683680
  H    -140.488000    3.501240    7.164970
  H    -141.604000    4.762280    6.904380
  H    -140.593000    4.279330    5.572060
  S    -136.184000    5.970930    0.963381
  C    -136.318000    7.424340    0.032513
  C    -137.373000    8.224210    0.489102
  C    -137.957000    7.747640    1.730390
  C    -137.414000    6.514580    2.177380
  H    -137.727000    9.118100    0.066433
  C    -138.984000    8.521930    2.459840
  H    -138.733000    9.531760    2.388030
  H    -138.782000    8.170140    3.426330
  C    -140.533000    8.264820    2.210890
  H    -140.710000    7.234230    2.383960
  H    -140.746000    8.419130    1.194900
  C    -141.464000    9.084920    3.159650
  H    -140.994000   10.055200    3.256920
  H    -141.560000    8.736320    4.196770
  H    -142.443000    9.397660    2.721290
  H    -138.087000    2.839410    5.484090
  H    -135.696000    7.604060   -0.823971

 Total Charge           Charge          ....    0
 Multiplicity           Mult            ....    1
 Number of Electrons    NEL             ....  134
 Basis Dimension        Dim             ....  322

ORBITAL ENERGIES
----------------

  NO   OCC          E(Eh)            E(eV)
   0   2.0000     -88.967405     -2420.9262
   1   2.0000     -88.964991     -2420.8605
   2   2.0000     -10.335632      -281.2469
   3   2.0000     -10.331198      -281.1262
   4   2.0000     -10.321318      -280.8574
   5   2.0000     -10.310845      -280.5723
   6   2.0000     -10.306494      -280.4540
   7   2.0000     -10.298491      -280.2362
   8   2.0000     -10.296414      -280.1797
   9   2.0000     -10.294849      -280.1371
  10   2.0000     -10.292628      -280.0766
  11   2.0000     -10.290085      -280.0075
  12   2.0000     -10.284804      -279.8638
  13   2.0000     -10.282641      -279.8049
  14   2.0000     -10.282543      -279.8022
  15   2.0000     -10.281877      -279.7841
  16   2.0000      -8.082662      -219.9404
  17   2.0000      -8.079160      -219.8451
  18   2.0000      -6.041111      -164.3870
  19   2.0000      -6.037683      -164.2937
  20   2.0000      -6.037116      -164.2783
  21   2.0000      -6.033708      -164.1855
  22   2.0000      -6.033442      -164.1783
  23   2.0000      -6.029977      -164.0840
  24   2.0000      -1.005106       -27.3503
  25   2.0000      -0.980763       -26.6879
  26   2.0000      -0.913632       -24.8612
  27   2.0000      -0.906999       -24.6807
  28   2.0000      -0.865387       -23.5484
  29   2.0000      -0.851793       -23.1785
  30   2.0000      -0.847126       -23.0515
  31   2.0000      -0.813370       -22.1329
  32   2.0000      -0.782659       -21.2972
  33   2.0000      -0.770429       -20.9644
  34   2.0000      -0.715001       -19.4562
  35   2.0000      -0.703725       -19.1493
  36   2.0000      -0.694086       -18.8870
  37   2.0000      -0.665470       -18.1084
  38   2.0000      -0.644702       -17.5432
  39   2.0000      -0.619778       -16.8650
  40   2.0000      -0.593671       -16.1546
  41   2.0000      -0.571552       -15.5527
  42   2.0000      -0.567515       -15.4429
  43   2.0000      -0.550110       -14.9692
  44   2.0000      -0.541903       -14.7459
  45   2.0000      -0.520794       -14.1715
  46   2.0000      -0.515448       -14.0260
  47   2.0000      -0.513729       -13.9793
  48   2.0000      -0.501959       -13.6590
  49   2.0000      -0.496936       -13.5223
  50   2.0000      -0.489858       -13.3297
  51   2.0000      -0.483366       -13.1531
  52   2.0000      -0.468703       -12.7541
  53   2.0000      -0.460739       -12.5373
  54   2.0000      -0.457402       -12.4465
  55   2.0000      -0.452438       -12.3115
  56   2.0000      -0.448177       -12.1955
  57   2.0000      -0.434292       -11.8177
  58   2.0000      -0.427047       -11.6205
  59   2.0000      -0.425563       -11.5802
  60   2.0000      -0.425001       -11.5649
  61   2.0000      -0.421231       -11.4623
  62   2.0000      -0.417434       -11.3590
  63   2.0000      -0.353423        -9.6171
  64   2.0000      -0.330078        -8.9819
  65   2.0000      -0.326343        -8.8802
  66   2.0000      -0.285577        -7.7709
  67   0.0000       0.028336         0.7711
  68   0.0000       0.065796         1.7904
  69   0.0000       0.113708         3.0941
  70   0.0000       0.116178         3.1614
  71   0.0000       0.127318         3.4645

MULLIKEN ATOMIC CHARGES
-----------------------
   0 S :    0.121282
   1 C :   -0.101394
   2 C :   -0.126696
   3 C :    0.031984
   4 C :   -0.157939
   5 H :    0.009045
   6 C :    0.058782
   7 H :    0.035554
   8 H :    0.021879
   9 C :   -0.006357
  10 H :    0.039729
  11 H :    0.025848
  12 C :   -0.108143
  13 H :    0.024486
  14 H :    0.027144
  15 H :    0.063264
  16 S :    0.091665
  17 C :   -0.085283
  18 C :    0.008250
  19 C :   -0.098306
  20 C :   -0.137829
  21 H :   -0.003259
  22 C :    0.114238
  23 H :    0.009201
  24 H :   -0.021499
  25 C :   -0.007801
  26 H :    0.024071
  27 H :    0.015044
  28 C :   -0.063886
  29 H :    0.012497
  30 H :    0.043372
  31 H :    0.040336
  32 H :    0.037968
  33 H :    0.062753
Sum of atomic charges:   -0.0000000

LOEWDIN ATOMIC CHARGES
----------------------
   0 S :    0.422035
   1 C :   -0.207860
   2 C :   -0.065066
   3 C :   -0.062962
   4 C :   -0.192531
   5 H :    0.025241
   6 C :   -0.038295
   7 H :    0.035034
   8 H :    0.030570
   9 C :   -0.031184
  10 H :    0.030131
  11 H :    0.023130
  12 C :   -0.083957
  13 H :    0.025857
  14 H :    0.026787
  15 H :    0.036046
  16 S :    0.389287
  17 C :   -0.182292
  18 C :   -0.066481
  19 C :   -0.049619
  20 C :   -0.184178
  21 H :    0.021670
  22 C :   -0.028608
  23 H :    0.021400
  24 H :    0.024260
  25 C :   -0.021816
  26 H :    0.022733
  27 H :    0.016456
  28 C :   -0.074200
  29 H :    0.021887
  30 H :    0.028683
  31 H :    0.033937
  32 H :    0.025790
  33 H :    0.028113

  Mayer bond orders larger than 0.100000
B(  0-S ,  1-C ) :   1.1565 B(  0-S ,  4-C ) :   1.1423 B(  1-C ,  2-C ) :   1.5923
B(  1-C , 32-H ) :   0.9665 B(  2-C ,  3-C ) :   1.2447 B(  2-C ,  6-C ) :   1.0322
B(  3-C ,  4-C ) :   1.5828 B(  3-C ,  5-H ) :   0.9899 B(  4-C , 20-C ) :   1.0372
B(  6-C ,  7-H ) :   0.9430 B(  6-C ,  8-H ) :   0.9388 B(  6-C ,  9-C ) :   1.0483
B(  9-C , 10-H ) :   0.9549 B(  9-C , 11-H ) :   0.9553 B(  9-C , 12-C ) :   1.0808
B( 12-C , 13-H ) :   0.9732 B( 12-C , 14-H ) :   0.9702 B( 12-C , 15-H ) :   0.9685
B( 16-S , 17-C ) :   1.1724 B( 16-S , 20-C ) :   1.1266 B( 17-C , 18-C ) :   1.5608
B( 17-C , 20-C ) :   0.1013 B( 17-C , 33-H ) :   0.9717 B( 18-C , 19-C ) :   1.2600
B( 18-C , 21-H ) :   0.9978 B( 19-C , 20-C ) :   1.5762 B( 19-C , 22-C ) :   1.0496
B( 22-C , 23-H ) :   0.9252 B( 22-C , 24-H ) :   0.9196 B( 22-C , 25-C ) :   1.0600
B( 25-C , 26-H ) :   0.9570 B( 25-C , 27-H ) :   0.9596 B( 25-C , 28-C ) :   1.0695
B( 28-C , 29-H ) :   0.9738 B( 28-C , 30-H ) :   0.9777 B( 28-C , 31-H ) :   0.9747

Dispersion correction           -0.014706254
FINAL SINGLE POINT ENERGY     -1339.872066127457

DIPOLE MOMENT
-------------
                                X             Y             Z
Electronic contribution:     21.47170     -11.23422     -17.24882
Nuclear contribution   :    -21.84708      11.69710      17.65807
                        -----------------------------------------
Total Dipole Moment    :     -0.37539       0.46288       0.40925
                        -----------------------------------------
Magnitude (a.u.)       :      0.72295
Magnitude (Debye)      :      1.83760

Rotational constants in cm-1:     0.017714     0.009791     0.006981
Rotational constants in MHz :   531.042958   293.522416   209.279969

                             ****ORCA TERMINATED NORMALLY****
TOTAL RUN TIME: 0 days 0 hours 0 minutes 22 seconds 116 msec
