                         Program Version 4.2.1 -  RELEASE  -
|  1> ! wB97X-D3 SP def2-SVP
|  2> %pal
|  3> nprocs 24
|  4> end
|  5>
|  6> * xyz 0 1
|  7> S 	 -101.022 	 1.60585 	 -105.233
|  8> C 	 -99.4888 	 1.31803 	 -105.859
|  9> C 	 -98.5809 	 0.924108 	 -104.96
| 10> C 	 -99.2265 	 0.694859 	 -103.691
| 11> C 	 -100.497 	 1.15104 	 -103.689
| 12> H 	 -98.9185 	 0.289536 	 -102.797
| 13> C 	 -97.1306 	 0.602499 	 -105.169
| 14> H 	 -96.5564 	 1.55528 	 -104.948
| 15> H 	 -97.0502 	 0.546781 	 -106.226
| 16> C 	 -96.7371 	 -0.663893 	 -104.405
| 17> H 	 -96.8247 	 -0.711451 	 -103.309
| 18> H 	 -97.4392 	 -1.41843 	 -104.705
| 19> C 	 -95.3008 	 -1.03894 	 -104.643
| 20> H 	 -94.9874 	 -2.07283 	 -104.397
| 21> H 	 -95.0714 	 -0.951201 	 -105.698
| 22> H 	 -94.6913 	 -0.381511 	 -103.978
| 23> S 	 -102.358 	 2.76066 	 -102.252
| 24> C 	 -103.077 	 2.13239 	 -100.804
| 25> C 	 -102.611 	 0.888822 	 -100.513
| 26> C 	 -101.689 	 0.37202 	 -101.478
| 27> C 	 -101.323 	 1.29399 	 -102.485
| 28> H 	 -102.993 	 0.423708 	 -99.6041
| 29> C 	 -101.251 	 -1.09453 	 -101.398
| 30> H 	 -100.613 	 -1.35233 	 -102.25
| 31> H 	 -102.258 	 -1.53183 	 -101.363
| 32> C 	 -100.465 	 -1.45471 	 -100.123
| 33> H 	 -100.892 	 -1.3292 	 -99.1443
| 34> H 	 -99.5005 	 -0.872061 	 -100.031
| 35> C 	 -100.157 	 -2.9446 	 -100.18
| 36> H 	 -99.5325 	 -3.18358 	 -101.106
| 37> H 	 -101.118 	 -3.44783 	 -100.275
| 38> H 	 -99.6516 	 -3.25518 	 -99.2945
| 39> H 	 -99.1931 	 1.51067 	 -106.904
| 40> H 	 -103.608 	 2.77976 	 -100.041
| 41> *
| 42>
| 43>                          ****END OF INPUT****

CARTESIAN COORDINATES (ANGSTROEM)
---------------------------------
  S    -101.022000    1.605850  -105.233000
  C    -99.488800    1.318030  -105.859000
  C    -98.580900    0.924108  -104.960000
  C    -99.226500    0.694859  -103.691000
  C    -100.497000    1.151040  -103.689000
  H    -98.918500    0.289536  -102.797000
  C    -97.130600    0.602499  -105.169000
  H    -96.556400    1.555280  -104.948000
  H    -97.050200    0.546781  -106.226000
  C    -96.737100   -0.663893  -104.405000
  H    -96.824700   -0.711451  -103.309000
  H    -97.439200   -1.418430  -104.705000
  C    -95.300800   -1.038940  -104.643000
  H    -94.987400   -2.072830  -104.397000
  H    -95.071400   -0.951201  -105.698000
  H    -94.691300   -0.381511  -103.978000
  S    -102.358000    2.760660  -102.252000
  C    -103.077000    2.132390  -100.804000
  C    -102.611000    0.888822  -100.513000
  C    -101.689000    0.372020  -101.478000
  C    -101.323000    1.293990  -102.485000
  H    -102.993000    0.423708  -99.604100
  C    -101.251000   -1.094530  -101.398000
  H    -100.613000   -1.352330  -102.250000
  H    -102.258000   -1.531830  -101.363000
  C    -100.465000   -1.454710  -100.123000
  H    -100.892000   -1.329200  -99.144300
  H    -99.500500   -0.872061  -100.031000
  C    -100.157000   -2.944600  -100.180000
  H    -99.532500   -3.183580  -101.106000
  H    -101.118000   -3.447830  -100.275000
  H    -99.651600   -3.255180  -99.294500
  H    -99.193100    1.510670  -106.904000
  H    -103.608000    2.779760  -100.041000

 Total Charge           Charge          ....    0
 Multiplicity           Mult            ....    1
 Number of Electrons    NEL             ....  134
 Basis Dimension        Dim             ....  322

ORBITAL ENERGIES
----------------

  NO   OCC          E(Eh)            E(eV)
   0   2.0000     -88.962939     -2420.8046
   1   2.0000     -88.960757     -2420.7453
   2   2.0000     -10.331414      -281.1321
   3   2.0000     -10.319484      -280.8074
   4   2.0000     -10.318299      -280.7752
   5   2.0000     -10.306262      -280.4476
   6   2.0000     -10.302909      -280.3564
   7   2.0000     -10.297113      -280.1987
   8   2.0000     -10.295337      -280.1504
   9   2.0000     -10.293837      -280.1095
  10   2.0000     -10.291665      -280.0504
  11   2.0000     -10.288455      -279.9631
  12   2.0000     -10.287727      -279.9433
  13   2.0000     -10.280953      -279.7590
  14   2.0000     -10.280030      -279.7338
  15   2.0000     -10.278729      -279.6984
  16   2.0000      -8.080273      -219.8754
  17   2.0000      -8.075068      -219.7338
  18   2.0000      -6.038646      -164.3199
  19   2.0000      -6.034498      -164.2070
  20   2.0000      -6.033696      -164.1852
  21   2.0000      -6.030939      -164.1102
  22   2.0000      -6.029558      -164.0726
  23   2.0000      -6.025798      -163.9703
  24   2.0000      -1.019191       -27.7336
  25   2.0000      -0.985595       -26.8194
  26   2.0000      -0.920141       -25.0383
  27   2.0000      -0.911118       -24.7928
  28   2.0000      -0.875028       -23.8107
  29   2.0000      -0.856902       -23.3175
  30   2.0000      -0.847293       -23.0560
  31   2.0000      -0.818964       -22.2851
  32   2.0000      -0.782212       -21.2851
  33   2.0000      -0.767796       -20.8928
  34   2.0000      -0.712836       -19.3972
  35   2.0000      -0.696420       -18.9505
  36   2.0000      -0.688896       -18.7458
  37   2.0000      -0.660490       -17.9728
  38   2.0000      -0.642860       -17.4931
  39   2.0000      -0.621293       -16.9062
  40   2.0000      -0.595880       -16.2147
  41   2.0000      -0.573393       -15.6028
  42   2.0000      -0.570136       -15.5142
  43   2.0000      -0.566067       -15.4035
  44   2.0000      -0.533838       -14.5265
  45   2.0000      -0.530631       -14.4392
  46   2.0000      -0.520552       -14.1649
  47   2.0000      -0.513140       -13.9632
  48   2.0000      -0.498948       -13.5771
  49   2.0000      -0.497503       -13.5377
  50   2.0000      -0.495233       -13.4760
  51   2.0000      -0.476638       -12.9700
  52   2.0000      -0.471677       -12.8350
  53   2.0000      -0.464301       -12.6343
  54   2.0000      -0.463202       -12.6044
  55   2.0000      -0.447816       -12.1857
  56   2.0000      -0.444233       -12.0882
  57   2.0000      -0.437975       -11.9179
  58   2.0000      -0.435411       -11.8481
  59   2.0000      -0.428162       -11.6509
  60   2.0000      -0.421295       -11.4640
  61   2.0000      -0.418921       -11.3994
  62   2.0000      -0.407149       -11.0791
  63   2.0000      -0.354043        -9.6340
  64   2.0000      -0.329143        -8.9564
  65   2.0000      -0.326845        -8.8939
  66   2.0000      -0.290777        -7.9124
  67   0.0000       0.036977         1.0062
  68   0.0000       0.075435         2.0527
  69   0.0000       0.120483         3.2785
  70   0.0000       0.124647         3.3918
  71   0.0000       0.128831         3.5057

MULLIKEN ATOMIC CHARGES
-----------------------
   0 S :    0.135199
   1 C :   -0.128417
   2 C :   -0.099142
   3 C :    0.031390
   4 C :   -0.144662
   5 H :   -0.035039
   6 C :    0.126268
   7 H :    0.048673
   8 H :   -0.000073
   9 C :   -0.100429
  10 H :    0.039902
  11 H :    0.027126
  12 C :   -0.036863
  13 H :    0.031628
  14 H :    0.024898
  15 H :    0.037883
  16 S :    0.081318
  17 C :   -0.110613
  18 C :   -0.041248
  19 C :   -0.039448
  20 C :   -0.149270
  21 H :    0.023407
  22 C :    0.063993
  23 H :    0.030456
  24 H :    0.046605
  25 C :   -0.101569
  26 H :    0.024587
  27 H :    0.033633
  28 C :   -0.039746
  29 H :    0.034202
  30 H :    0.026315
  31 H :    0.031021
  32 H :    0.043664
  33 H :    0.084352
Sum of atomic charges:   -0.0000000

LOEWDIN ATOMIC CHARGES
----------------------
   0 S :    0.449606
   1 C :   -0.224364
   2 C :   -0.063744
   3 C :   -0.056734
   4 C :   -0.206712
   5 H :    0.015142
   6 C :   -0.027584
   7 H :    0.042853
   8 H :    0.025761
   9 C :   -0.046534
  10 H :    0.029639
  11 H :    0.024386
  12 C :   -0.067060
  13 H :    0.027414
  14 H :    0.021078
  15 H :    0.030972
  16 S :    0.375971
  17 C :   -0.196165
  18 C :   -0.082146
  19 C :   -0.055268
  20 C :   -0.183339
  21 H :    0.034297
  22 C :   -0.027255
  23 H :    0.032431
  24 H :    0.041626
  25 C :   -0.048178
  26 H :    0.020240
  27 H :    0.026752
  28 C :   -0.063639
  29 H :    0.028499
  30 H :    0.023885
  31 H :    0.019582
  32 H :    0.032029
  33 H :    0.046558

  Mayer bond orders larger than 0.100000
B(  0-S ,  1-C ) :   1.1338 B(  0-S ,  4-C ) :   1.1601 B(  1-C ,  2-C ) :   1.6593
B(  1-C , 32-H ) :   0.9566 B(  2-C ,  3-C ) :   1.1931 B(  2-C ,  6-C ) :   1.0134
B(  3-C ,  4-C ) :   1.5911 B(  3-C ,  5-H ) :   1.0132 B(  4-C , 20-C ) :   1.0382
B(  6-C ,  7-H ) :   0.9241 B(  6-C ,  8-H ) :   0.9304 B(  6-C ,  9-C ) :   1.0607
B(  9-C , 10-H ) :   0.9505 B(  9-C , 11-H ) :   0.9562 B(  9-C , 12-C ) :   1.0852
B( 12-C , 13-H ) :   0.9731 B( 12-C , 14-H ) :   0.9737 B( 12-C , 15-H ) :   0.9761
B( 16-S , 17-C ) :   1.1565 B( 16-S , 20-C ) :   1.1170 B( 17-C , 18-C ) :   1.6309
B( 17-C , 33-H ) :   0.9518 B( 18-C , 19-C ) :   1.2293 B( 18-C , 21-H ) :   0.9891
B( 19-C , 20-C ) :   1.5904 B( 19-C , 22-C ) :   1.0300 B( 22-C , 23-H ) :   0.9361
B( 22-C , 24-H ) :   0.9320 B( 22-C , 25-C ) :   1.0650 B( 25-C , 26-H ) :   0.9544
B( 25-C , 27-H ) :   0.9542 B( 25-C , 28-C ) :   1.0866 B( 28-C , 29-H ) :   0.9738
B( 28-C , 30-H ) :   0.9727 B( 28-C , 31-H ) :   0.9740

Dispersion correction           -0.013793883
FINAL SINGLE POINT ENERGY     -1339.866429564194

DIPOLE MOMENT
-------------
                                X             Y             Z
Electronic contribution:    -21.60472      22.46774      -7.72412
Nuclear contribution   :     22.01670     -22.96028       8.04317
                        -----------------------------------------
Total Dipole Moment    :      0.41197      -0.49254       0.31906
                        -----------------------------------------
Magnitude (a.u.)       :      0.71702
Magnitude (Debye)      :      1.82252

Rotational constants in cm-1:     0.016367     0.009536     0.006489
Rotational constants in MHz :   490.677639   285.881046   194.530636

                             ****ORCA TERMINATED NORMALLY****
TOTAL RUN TIME: 0 days 0 hours 0 minutes 21 seconds 575 msec
