                         Program Version 4.2.1 -  RELEASE  -
|  1> ! wB97X-D3 SP def2-SVP
|  2> %pal
|  3> nprocs 24
|  4> end
|  5>
|  6> * xyz 0 1
|  7> S 	 -41.8267 	 -3.5475 	 19.1281
|  8> C 	 -42.969 	 -4.2186 	 17.996
|  9> C 	 -43.9598 	 -5.04268 	 18.5974
| 10> C 	 -43.8385 	 -4.94253 	 20.0142
| 11> C 	 -42.6796 	 -4.288 	 20.5223
| 12> H 	 -44.5317 	 -5.33567 	 20.6572
| 13> C 	 -45.0864 	 -5.71055 	 17.7753
| 14> H 	 -44.5703 	 -6.07595 	 16.8327
| 15> H 	 -45.6338 	 -4.84724 	 17.4087
| 16> C 	 -46.0593 	 -6.65298 	 18.564
| 17> H 	 -45.4123 	 -7.47457 	 18.9455
| 18> H 	 -46.461 	 -6.14534 	 19.3968
| 19> C 	 -47.3684 	 -7.13253 	 17.8103
| 20> H 	 -47.8119 	 -8.01586 	 18.3514
| 21> H 	 -48.0394 	 -6.34339 	 17.7846
| 22> H 	 -47.1894 	 -7.48602 	 16.7408
| 23> S 	 -42.4473 	 -5.58398 	 23.0003
| 24> C 	 -42.0866 	 -4.64628 	 24.42
| 25> C 	 -41.8573 	 -3.34204 	 24.1192
| 26> C 	 -41.8827 	 -3.0626 	 22.7216
| 27> C 	 -42.3219 	 -4.14906 	 21.9749
| 28> H 	 -41.5931 	 -2.65526 	 24.8452
| 29> C 	 -41.6547 	 -1.65701 	 22.2846
| 30> H 	 -42.1983 	 -0.964684 	 22.9255
| 31> H 	 -42.2583 	 -1.55292 	 21.3534
| 32> C 	 -40.2362 	 -0.996978 	 22.0898
| 33> H 	 -40.2567 	 0.0711311 	 21.8359
| 34> H 	 -39.6848 	 -1.4475 	 21.2238
| 35> C 	 -39.2589 	 -1.11158 	 23.3159
| 36> H 	 -39.1462 	 -2.1242 	 23.692
| 37> H 	 -39.7821 	 -0.65023 	 24.1893
| 38> H 	 -38.2741 	 -0.629913 	 23.0915
| 39> H 	 -43.0058 	 -3.99171 	 16.957
| 40> H 	 -41.906 	 -5.08314 	 25.4411
| 41> *
| 42>
| 43>                          ****END OF INPUT****

CARTESIAN COORDINATES (ANGSTROEM)
---------------------------------
  S    -41.826700   -3.547500   19.128100
  C    -42.969000   -4.218600   17.996000
  C    -43.959800   -5.042680   18.597400
  C    -43.838500   -4.942530   20.014200
  C    -42.679600   -4.288000   20.522300
  H    -44.531700   -5.335670   20.657200
  C    -45.086400   -5.710550   17.775300
  H    -44.570300   -6.075950   16.832700
  H    -45.633800   -4.847240   17.408700
  C    -46.059300   -6.652980   18.564000
  H    -45.412300   -7.474570   18.945500
  H    -46.461000   -6.145340   19.396800
  C    -47.368400   -7.132530   17.810300
  H    -47.811900   -8.015860   18.351400
  H    -48.039400   -6.343390   17.784600
  H    -47.189400   -7.486020   16.740800
  S    -42.447300   -5.583980   23.000300
  C    -42.086600   -4.646280   24.420000
  C    -41.857300   -3.342040   24.119200
  C    -41.882700   -3.062600   22.721600
  C    -42.321900   -4.149060   21.974900
  H    -41.593100   -2.655260   24.845200
  C    -41.654700   -1.657010   22.284600
  H    -42.198300   -0.964684   22.925500
  H    -42.258300   -1.552920   21.353400
  C    -40.236200   -0.996978   22.089800
  H    -40.256700    0.071131   21.835900
  H    -39.684800   -1.447500   21.223800
  C    -39.258900   -1.111580   23.315900
  H    -39.146200   -2.124200   23.692000
  H    -39.782100   -0.650230   24.189300
  H    -38.274100   -0.629913   23.091500
  H    -43.005800   -3.991710   16.957000
  H    -41.906000   -5.083140   25.441100

 Total Charge           Charge          ....    0
 Multiplicity           Mult            ....    1
 Number of Electrons    NEL             ....  134
 Basis Dimension        Dim             ....  322

ORBITAL ENERGIES
----------------

  NO   OCC          E(Eh)            E(eV)
   0   2.0000     -88.972516     -2421.0652
   1   2.0000     -88.967655     -2420.9330
   2   2.0000     -10.339508      -281.3523
   3   2.0000     -10.335051      -281.2310
   4   2.0000     -10.318920      -280.7921
   5   2.0000     -10.313796      -280.6527
   6   2.0000     -10.307285      -280.4755
   7   2.0000     -10.304098      -280.3888
   8   2.0000     -10.303273      -280.3663
   9   2.0000     -10.296702      -280.1875
  10   2.0000     -10.294467      -280.1267
  11   2.0000     -10.292850      -280.0827
  12   2.0000     -10.292643      -280.0770
  13   2.0000     -10.289040      -279.9790
  14   2.0000     -10.285440      -279.8811
  15   2.0000     -10.282141      -279.7913
  16   2.0000      -8.085577      -220.0197
  17   2.0000      -8.082172      -219.9271
  18   2.0000      -6.044146      -164.4696
  19   2.0000      -6.040755      -164.3773
  20   2.0000      -6.040175      -164.3615
  21   2.0000      -6.036716      -164.2674
  22   2.0000      -6.036540      -164.2626
  23   2.0000      -6.032852      -164.1622
  24   2.0000      -1.001736       -27.2586
  25   2.0000      -0.979202       -26.6454
  26   2.0000      -0.901943       -24.5431
  27   2.0000      -0.899406       -24.4741
  28   2.0000      -0.864654       -23.5284
  29   2.0000      -0.848459       -23.0878
  30   2.0000      -0.843872       -22.9629
  31   2.0000      -0.814800       -22.1718
  32   2.0000      -0.781660       -21.2700
  33   2.0000      -0.769164       -20.9300
  34   2.0000      -0.713802       -19.4235
  35   2.0000      -0.697563       -18.9817
  36   2.0000      -0.683909       -18.6101
  37   2.0000      -0.667360       -18.1598
  38   2.0000      -0.637251       -17.3405
  39   2.0000      -0.615754       -16.7555
  40   2.0000      -0.592267       -16.1164
  41   2.0000      -0.566507       -15.4154
  42   2.0000      -0.562641       -15.3102
  43   2.0000      -0.544851       -14.8261
  44   2.0000      -0.542826       -14.7710
  45   2.0000      -0.519824       -14.1451
  46   2.0000      -0.516848       -14.0641
  47   2.0000      -0.506395       -13.7797
  48   2.0000      -0.497285       -13.5318
  49   2.0000      -0.495944       -13.4953
  50   2.0000      -0.486505       -13.2385
  51   2.0000      -0.475317       -12.9340
  52   2.0000      -0.473856       -12.8943
  53   2.0000      -0.465527       -12.6676
  54   2.0000      -0.460386       -12.5277
  55   2.0000      -0.449440       -12.2299
  56   2.0000      -0.442548       -12.0423
  57   2.0000      -0.436122       -11.8675
  58   2.0000      -0.432706       -11.7745
  59   2.0000      -0.429012       -11.6740
  60   2.0000      -0.421046       -11.4572
  61   2.0000      -0.419054       -11.4030
  62   2.0000      -0.406068       -11.0497
  63   2.0000      -0.348369        -9.4796
  64   2.0000      -0.333947        -9.0872
  65   2.0000      -0.327263        -8.9053
  66   2.0000      -0.286015        -7.7829
  67   0.0000       0.023688         0.6446
  68   0.0000       0.072352         1.9688
  69   0.0000       0.109112         2.9691
  70   0.0000       0.113337         3.0841
  71   0.0000       0.133143         3.6230

MULLIKEN ATOMIC CHARGES
-----------------------
   0 S :    0.128342
   1 C :   -0.125278
   2 C :   -0.090490
   3 C :    0.024208
   4 C :   -0.137758
   5 H :   -0.023197
   6 C :    0.041174
   7 H :    0.046080
   8 H :    0.035311
   9 C :   -0.085242
  10 H :    0.048343
  11 H :    0.034567
  12 C :   -0.058421
  13 H :    0.048628
  14 H :    0.027722
  15 H :    0.041591
  16 S :    0.111440
  17 C :   -0.102689
  18 C :   -0.007328
  19 C :   -0.015055
  20 C :   -0.151706
  21 H :   -0.010386
  22 C :    0.021867
  23 H :    0.026772
  24 H :    0.025556
  25 C :   -0.059409
  26 H :    0.036113
  27 H :    0.031573
  28 C :   -0.092701
  29 H :    0.038997
  30 H :    0.022984
  31 H :    0.053525
  32 H :    0.038279
  33 H :    0.076591
Sum of atomic charges:   -0.0000000

LOEWDIN ATOMIC CHARGES
----------------------
   0 S :    0.409739
   1 C :   -0.203441
   2 C :   -0.057909
   3 C :   -0.058303
   4 C :   -0.187494
   5 H :    0.010464
   6 C :   -0.039794
   7 H :    0.041398
   8 H :    0.033088
   9 C :   -0.039727
  10 H :    0.030582
  11 H :    0.021679
  12 C :   -0.062932
  13 H :    0.036645
  14 H :    0.013774
  15 H :    0.031231
  16 S :    0.408144
  17 C :   -0.192460
  18 C :   -0.064524
  19 C :   -0.059557
  20 C :   -0.186773
  21 H :    0.019620
  22 C :   -0.045307
  23 H :    0.032920
  24 H :    0.033011
  25 C :   -0.040374
  26 H :    0.028017
  27 H :    0.023806
  28 C :   -0.077847
  29 H :    0.022154
  30 H :    0.022483
  31 H :    0.033845
  32 H :    0.020772
  33 H :    0.043068

  Mayer bond orders larger than 0.100000
B(  0-S ,  1-C ) :   1.1663 B(  0-S ,  4-C ) :   1.1415 B(  1-C ,  2-C ) :   1.5654
B(  1-C ,  4-C ) :   0.1109 B(  1-C , 32-H ) :   0.9699 B(  2-C ,  3-C ) :   1.2942
B(  2-C ,  6-C ) :   0.9979 B(  3-C ,  4-C ) :   1.5261 B(  3-C ,  5-H ) :   0.9962
B(  4-C , 20-C ) :   1.0435 B(  6-C ,  7-H ) :   0.9420 B(  6-C ,  8-H ) :   0.9411
B(  6-C ,  9-C ) :   1.0614 B(  9-C , 10-H ) :   0.9645 B(  9-C , 11-H ) :   0.9504
B(  9-C , 12-C ) :   1.0708 B( 12-C , 13-H ) :   0.9755 B( 12-C , 14-H ) :   0.9787
B( 12-C , 15-H ) :   0.9792 B( 16-S , 17-C ) :   1.1485 B( 16-S , 20-C ) :   1.1428
B( 17-C , 18-C ) :   1.6093 B( 17-C , 33-H ) :   0.9581 B( 18-C , 19-C ) :   1.2389
B( 18-C , 21-H ) :   1.0024 B( 19-C , 20-C ) :   1.5788 B( 19-C , 22-C ) :   1.0447
B( 22-C , 23-H ) :   0.9412 B( 22-C , 24-H ) :   0.9272 B( 22-C , 25-C ) :   1.0609
B( 25-C , 26-H ) :   0.9570 B( 25-C , 27-H ) :   0.9572 B( 25-C , 28-C ) :   1.0721
B( 28-C , 29-H ) :   0.9743 B( 28-C , 30-H ) :   0.9739 B( 28-C , 31-H ) :   0.9737

Dispersion correction           -0.013960562
FINAL SINGLE POINT ENERGY     -1339.864606386556

DIPOLE MOMENT
-------------
                                X             Y             Z
Electronic contribution:      7.25009      -4.15826       4.31182
Nuclear contribution   :     -7.63532       4.32612      -4.33961
                        -----------------------------------------
Total Dipole Moment    :     -0.38523       0.16786      -0.02779
                        -----------------------------------------
Magnitude (a.u.)       :      0.42113
Magnitude (Debye)      :      1.07042

Rotational constants in cm-1:     0.023997     0.007037     0.005752
Rotational constants in MHz :   719.408812   210.961825   172.445946

                             ****ORCA TERMINATED NORMALLY****
TOTAL RUN TIME: 0 days 0 hours 0 minutes 20 seconds 316 msec
