                         Program Version 4.2.1 -  RELEASE  -
|  1> ! wB97X-D3 SP def2-SVP
|  2> %pal
|  3> nprocs 24
|  4> end
|  5>
|  6> * xyz 0 1
|  7> S 	 -108.293 	 0.766205 	 -108.713
|  8> C 	 -108.288 	 2.50663 	 -108.752
|  9> C 	 -108.338 	 3.04481 	 -110.003
| 10> C 	 -108.251 	 2.00844 	 -110.963
| 11> C 	 -108.146 	 0.711936 	 -110.526
| 12> H 	 -108.189 	 2.23664 	 -111.998
| 13> C 	 -108.477 	 4.50374 	 -110.268
| 14> H 	 -107.45 	 4.85618 	 -110.428
| 15> H 	 -108.774 	 5.00794 	 -109.36
| 16> C 	 -109.4 	 4.87925 	 -111.452
| 17> H 	 -109.283 	 5.90028 	 -111.698
| 18> H 	 -109.215 	 4.26152 	 -112.371
| 19> C 	 -110.916 	 4.609 	 -111.198
| 20> H 	 -111.546 	 5.01685 	 -112.11
| 21> H 	 -111.103 	 3.54726 	 -111.011
| 22> H 	 -111.207 	 5.09277 	 -110.26
| 23> S 	 -106.69 	 -1.45503 	 -111.163
| 24> C 	 -106.88 	 -2.08617 	 -112.762
| 25> C 	 -108.089 	 -1.698 	 -113.383
| 26> C 	 -108.708 	 -0.685471 	 -112.582
| 27> C 	 -108.045 	 -0.407827 	 -111.401
| 28> H 	 -108.376 	 -2.09799 	 -114.37
| 29> C 	 -110.094 	 -0.108177 	 -112.844
| 30> H 	 -110.318 	 0.642135 	 -112.056
| 31> H 	 -110.767 	 -0.878452 	 -112.546
| 32> C 	 -110.26 	 0.312006 	 -114.242
| 33> H 	 -111.226 	 0.782552 	 -114.346
| 34> H 	 -110.329 	 -0.575115 	 -114.85
| 35> C 	 -109.164 	 1.26431 	 -114.77
| 36> H 	 -109.448 	 1.59806 	 -115.764
| 37> H 	 -108.247 	 0.756341 	 -114.845
| 38> H 	 -109.117 	 2.22857 	 -114.154
| 39> H 	 -108.158 	 3.05521 	 -107.913
| 40> H 	 -106.332 	 -2.8717 	 -113.24
| 41> *
| 42>
| 43>                          ****END OF INPUT****

CARTESIAN COORDINATES (ANGSTROEM)
---------------------------------
  S    -108.293000    0.766205  -108.713000
  C    -108.288000    2.506630  -108.752000
  C    -108.338000    3.044810  -110.003000
  C    -108.251000    2.008440  -110.963000
  C    -108.146000    0.711936  -110.526000
  H    -108.189000    2.236640  -111.998000
  C    -108.477000    4.503740  -110.268000
  H    -107.450000    4.856180  -110.428000
  H    -108.774000    5.007940  -109.360000
  C    -109.400000    4.879250  -111.452000
  H    -109.283000    5.900280  -111.698000
  H    -109.215000    4.261520  -112.371000
  C    -110.916000    4.609000  -111.198000
  H    -111.546000    5.016850  -112.110000
  H    -111.103000    3.547260  -111.011000
  H    -111.207000    5.092770  -110.260000
  S    -106.690000   -1.455030  -111.163000
  C    -106.880000   -2.086170  -112.762000
  C    -108.089000   -1.698000  -113.383000
  C    -108.708000   -0.685471  -112.582000
  C    -108.045000   -0.407827  -111.401000
  H    -108.376000   -2.097990  -114.370000
  C    -110.094000   -0.108177  -112.844000
  H    -110.318000    0.642135  -112.056000
  H    -110.767000   -0.878452  -112.546000
  C    -110.260000    0.312006  -114.242000
  H    -111.226000    0.782552  -114.346000
  H    -110.329000   -0.575115  -114.850000
  C    -109.164000    1.264310  -114.770000
  H    -109.448000    1.598060  -115.764000
  H    -108.247000    0.756341  -114.845000
  H    -109.117000    2.228570  -114.154000
  H    -108.158000    3.055210  -107.913000
  H    -106.332000   -2.871700  -113.240000

 Total Charge           Charge          ....    0
 Multiplicity           Mult            ....    1
 Number of Electrons    NEL             ....  134
 Basis Dimension        Dim             ....  322

ORBITAL ENERGIES
----------------

  NO   OCC          E(Eh)            E(eV)
   0   2.0000     -88.967334     -2420.9242
   1   2.0000     -88.962316     -2420.7877
   2   2.0000     -10.327364      -281.0219
   3   2.0000     -10.319235      -280.8007
   4   2.0000     -10.318338      -280.7763
   5   2.0000     -10.302830      -280.3542
   6   2.0000     -10.301393      -280.3152
   7   2.0000     -10.301388      -280.3150
   8   2.0000     -10.294309      -280.1224
   9   2.0000     -10.293082      -280.0890
  10   2.0000     -10.291923      -280.0575
  11   2.0000     -10.287490      -279.9368
  12   2.0000     -10.285280      -279.8767
  13   2.0000     -10.281878      -279.7841
  14   2.0000     -10.279960      -279.7319
  15   2.0000     -10.279136      -279.7095
  16   2.0000      -8.082812      -219.9445
  17   2.0000      -8.076302      -219.7673
  18   2.0000      -6.041146      -164.3879
  19   2.0000      -6.037252      -164.2820
  20   2.0000      -6.034947      -164.2192
  21   2.0000      -6.033660      -164.1842
  22   2.0000      -6.031052      -164.1133
  23   2.0000      -6.026858      -163.9992
  24   2.0000      -1.008655       -27.4469
  25   2.0000      -0.984568       -26.7915
  26   2.0000      -0.918001       -24.9801
  27   2.0000      -0.910085       -24.7647
  28   2.0000      -0.873756       -23.7761
  29   2.0000      -0.847913       -23.0729
  30   2.0000      -0.841705       -22.9040
  31   2.0000      -0.816992       -22.2315
  32   2.0000      -0.786022       -21.3888
  33   2.0000      -0.772152       -21.0113
  34   2.0000      -0.714533       -19.4434
  35   2.0000      -0.698567       -19.0090
  36   2.0000      -0.694386       -18.8952
  37   2.0000      -0.657783       -17.8992
  38   2.0000      -0.642713       -17.4891
  39   2.0000      -0.627204       -17.0671
  40   2.0000      -0.596131       -16.2215
  41   2.0000      -0.567671       -15.4471
  42   2.0000      -0.558174       -15.1887
  43   2.0000      -0.551968       -15.0198
  44   2.0000      -0.547320       -14.8933
  45   2.0000      -0.536004       -14.5854
  46   2.0000      -0.522557       -14.2195
  47   2.0000      -0.510531       -13.8923
  48   2.0000      -0.506621       -13.7859
  49   2.0000      -0.492498       -13.4016
  50   2.0000      -0.485702       -13.2166
  51   2.0000      -0.479521       -13.0484
  52   2.0000      -0.472961       -12.8699
  53   2.0000      -0.464938       -12.6516
  54   2.0000      -0.460940       -12.5428
  55   2.0000      -0.448632       -12.2079
  56   2.0000      -0.443855       -12.0779
  57   2.0000      -0.441339       -12.0094
  58   2.0000      -0.435766       -11.8578
  59   2.0000      -0.422263       -11.4904
  60   2.0000      -0.419803       -11.4234
  61   2.0000      -0.416077       -11.3220
  62   2.0000      -0.412749       -11.2315
  63   2.0000      -0.345284        -9.3957
  64   2.0000      -0.331640        -9.0244
  65   2.0000      -0.326075        -8.8729
  66   2.0000      -0.288358        -7.8466
  67   0.0000       0.029498         0.8027
  68   0.0000       0.066438         1.8079
  69   0.0000       0.113991         3.1018
  70   0.0000       0.115299         3.1375
  71   0.0000       0.126885         3.4527

MULLIKEN ATOMIC CHARGES
-----------------------
   0 S :    0.092968
   1 C :   -0.093310
   2 C :   -0.083604
   3 C :    0.022765
   4 C :   -0.119229
   5 H :   -0.021935
   6 C :    0.102314
   7 H :    0.042761
   8 H :    0.014011
   9 C :   -0.076823
  10 H :    0.025977
  11 H :    0.038780
  12 C :   -0.097687
  13 H :    0.057670
  14 H :    0.046041
  15 H :    0.027431
  16 S :    0.131005
  17 C :   -0.081493
  18 C :   -0.063192
  19 C :   -0.065484
  20 C :   -0.172424
  21 H :    0.036335
  22 C :    0.083484
  23 H :    0.029340
  24 H :    0.030372
  25 C :   -0.059605
  26 H :    0.020242
  27 H :    0.020432
  28 C :   -0.043711
  29 H :    0.025105
  30 H :    0.038007
  31 H :    0.043685
  32 H :    0.001906
  33 H :    0.047866
Sum of atomic charges:    0.0000000

LOEWDIN ATOMIC CHARGES
----------------------
   0 S :    0.367736
   1 C :   -0.176003
   2 C :   -0.066622
   3 C :   -0.054720
   4 C :   -0.178943
   5 H :    0.020388
   6 C :   -0.029110
   7 H :    0.039382
   8 H :    0.029144
   9 C :   -0.039970
  10 H :    0.019364
  11 H :    0.027675
  12 C :   -0.073963
  13 H :    0.040557
  14 H :    0.024760
  15 H :    0.020362
  16 S :    0.434146
  17 C :   -0.184829
  18 C :   -0.075767
  19 C :   -0.045938
  20 C :   -0.215107
  21 H :    0.037618
  22 C :   -0.034819
  23 H :    0.034043
  24 H :    0.033901
  25 C :   -0.043930
  26 H :    0.024465
  27 H :    0.021322
  28 C :   -0.060098
  29 H :    0.025449
  30 H :    0.019114
  31 H :    0.031765
  32 H :    0.003750
  33 H :    0.024879

  Mayer bond orders larger than 0.100000
B(  0-S ,  1-C ) :   1.1385 B(  0-S ,  4-C ) :   1.1077 B(  1-C ,  2-C ) :   1.6113
B(  1-C , 32-H ) :   0.9751 B(  2-C ,  3-C ) :   1.2438 B(  2-C ,  6-C ) :   1.0183
B(  3-C ,  4-C ) :   1.5811 B(  3-C ,  5-H ) :   0.9989 B(  4-C , 20-C ) :   1.0609
B(  6-C ,  7-H ) :   0.9270 B(  6-C ,  8-H ) :   0.9412 B(  6-C ,  9-C ) :   1.0703
B(  9-C , 10-H ) :   0.9547 B(  9-C , 11-H ) :   0.9564 B(  9-C , 12-C ) :   1.0634
B( 12-C , 13-H ) :   0.9742 B( 12-C , 14-H ) :   0.9764 B( 12-C , 15-H ) :   0.9749
B( 16-S , 17-C ) :   1.1845 B( 16-S , 20-C ) :   1.1326 B( 17-C , 18-C ) :   1.5887
B( 17-C , 33-H ) :   0.9655 B( 18-C , 19-C ) :   1.2395 B( 18-C , 21-H ) :   0.9867
B( 19-C , 20-C ) :   1.5862 B( 19-C , 22-C ) :   1.0207 B( 22-C , 23-H ) :   0.9340
B( 22-C , 24-H ) :   0.9311 B( 22-C , 25-C ) :   1.0776 B( 25-C , 26-H ) :   0.9502
B( 25-C , 27-H ) :   0.9465 B( 25-C , 28-C ) :   1.0887 B( 28-C , 29-H ) :   0.9688
B( 28-C , 30-H ) :   0.9669 B( 28-C , 31-H ) :   0.9687

Dispersion correction           -0.016187530
FINAL SINGLE POINT ENERGY     -1339.871219645865

DIPOLE MOMENT
-------------
                                X             Y             Z
Electronic contribution:     14.86547     -19.49552      17.11126
Nuclear contribution   :    -15.13113      19.84792     -17.68021
                        -----------------------------------------
Total Dipole Moment    :     -0.26566       0.35240      -0.56895
                        -----------------------------------------
Magnitude (a.u.)       :      0.72005
Magnitude (Debye)      :      1.83021

Rotational constants in cm-1:     0.018195     0.010833     0.007579
Rotational constants in MHz :   545.482532   324.773691   227.223553

                             ****ORCA TERMINATED NORMALLY****
TOTAL RUN TIME: 0 days 0 hours 0 minutes 23 seconds 703 msec
