                         Program Version 4.2.1 -  RELEASE  -
|  1> ! wB97X-D3 SP def2-SVP
|  2> %pal
|  3> nprocs 24
|  4> end
|  5>
|  6> * xyz 0 1
|  7> S 	 -5.31065 	 -29.346 	 -113.196
|  8> C 	 -6.42496 	 -27.9833 	 -113.031
|  9> C 	 -7.68465 	 -28.4366 	 -112.702
| 10> C 	 -7.81298 	 -29.8418 	 -112.567
| 11> C 	 -6.63935 	 -30.4874 	 -112.847
| 12> H 	 -8.71766 	 -30.4147 	 -112.399
| 13> C 	 -8.87251 	 -27.4683 	 -112.492
| 14> H 	 -9.67848 	 -27.8084 	 -113.106
| 15> H 	 -8.73301 	 -26.4997 	 -112.967
| 16> C 	 -9.32757 	 -27.4803 	 -111.017
| 17> H 	 -10.3125 	 -26.9942 	 -110.789
| 18> H 	 -9.40963 	 -28.5637 	 -110.687
| 19> C 	 -8.28475 	 -26.8822 	 -110.055
| 20> H 	 -8.64762 	 -26.3901 	 -109.09
| 21> H 	 -7.54436 	 -27.6936 	 -109.712
| 22> H 	 -7.77798 	 -26.0924 	 -110.532
| 23> S 	 -5.90854 	 -32.4727 	 -114.601
| 24> C 	 -5.97507 	 -34.1382 	 -114.123
| 25> C 	 -6.42246 	 -34.2446 	 -112.815
| 26> C 	 -6.86375 	 -33.0003 	 -112.244
| 27> C 	 -6.53066 	 -31.9321 	 -113.063
| 28> H 	 -6.40946 	 -35.1539 	 -112.271
| 29> C 	 -6.99921 	 -32.9555 	 -110.694
| 30> H 	 -6.20431 	 -32.3377 	 -110.331
| 31> H 	 -6.9015 	 -33.9926 	 -110.314
| 32> C 	 -8.33528 	 -32.4949 	 -110.157
| 33> H 	 -8.7427 	 -31.827 	 -110.785
| 34> H 	 -8.26818 	 -31.9969 	 -109.184
| 35> C 	 -9.34062 	 -33.6498 	 -110.153
| 36> H 	 -9.00787 	 -34.463 	 -109.448
| 37> H 	 -9.48252 	 -33.9748 	 -111.227
| 38> H 	 -10.2724 	 -33.2517 	 -109.633
| 39> H 	 -6.14299 	 -26.944 	 -113.15
| 40> H 	 -5.69463 	 -35.0332 	 -114.637
| 41> *
| 42>
| 43>                          ****END OF INPUT****

CARTESIAN COORDINATES (ANGSTROEM)
---------------------------------
  S     -5.310650  -29.346000  -113.196000
  C     -6.424960  -27.983300  -113.031000
  C     -7.684650  -28.436600  -112.702000
  C     -7.812980  -29.841800  -112.567000
  C     -6.639350  -30.487400  -112.847000
  H     -8.717660  -30.414700  -112.399000
  C     -8.872510  -27.468300  -112.492000
  H     -9.678480  -27.808400  -113.106000
  H     -8.733010  -26.499700  -112.967000
  C     -9.327570  -27.480300  -111.017000
  H    -10.312500  -26.994200  -110.789000
  H     -9.409630  -28.563700  -110.687000
  C     -8.284750  -26.882200  -110.055000
  H     -8.647620  -26.390100  -109.090000
  H     -7.544360  -27.693600  -109.712000
  H     -7.777980  -26.092400  -110.532000
  S     -5.908540  -32.472700  -114.601000
  C     -5.975070  -34.138200  -114.123000
  C     -6.422460  -34.244600  -112.815000
  C     -6.863750  -33.000300  -112.244000
  C     -6.530660  -31.932100  -113.063000
  H     -6.409460  -35.153900  -112.271000
  C     -6.999210  -32.955500  -110.694000
  H     -6.204310  -32.337700  -110.331000
  H     -6.901500  -33.992600  -110.314000
  C     -8.335280  -32.494900  -110.157000
  H     -8.742700  -31.827000  -110.785000
  H     -8.268180  -31.996900  -109.184000
  C     -9.340620  -33.649800  -110.153000
  H     -9.007870  -34.463000  -109.448000
  H     -9.482520  -33.974800  -111.227000
  H    -10.272400  -33.251700  -109.633000
  H     -6.142990  -26.944000  -113.150000
  H     -5.694630  -35.033200  -114.637000

 Total Charge           Charge          ....    0
 Multiplicity           Mult            ....    1
 Number of Electrons    NEL             ....  134
 Basis Dimension        Dim             ....  322

ORBITAL ENERGIES
----------------

  NO   OCC          E(Eh)            E(eV)
   0   2.0000     -88.969577     -2420.9853
   1   2.0000     -88.969318     -2420.9782
   2   2.0000     -10.334080      -281.2046
   3   2.0000     -10.329199      -281.0718
   4   2.0000     -10.317715      -280.7593
   5   2.0000     -10.313870      -280.6547
   6   2.0000     -10.304783      -280.4074
   7   2.0000     -10.302419      -280.3431
   8   2.0000     -10.296894      -280.1927
   9   2.0000     -10.296394      -280.1791
  10   2.0000     -10.294427      -280.1256
  11   2.0000     -10.290369      -280.0152
  12   2.0000     -10.289895      -280.0023
  13   2.0000     -10.287207      -279.9291
  14   2.0000     -10.279779      -279.7270
  15   2.0000     -10.271193      -279.4934
  16   2.0000      -8.084057      -219.9784
  17   2.0000      -8.083437      -219.9615
  18   2.0000      -6.042601      -164.4275
  19   2.0000      -6.042065      -164.4129
  20   2.0000      -6.038434      -164.3141
  21   2.0000      -6.038110      -164.3053
  22   2.0000      -6.034896      -164.2179
  23   2.0000      -6.034069      -164.1954
  24   2.0000      -1.007892       -27.4261
  25   2.0000      -0.984955       -26.8020
  26   2.0000      -0.912963       -24.8430
  27   2.0000      -0.907357       -24.6904
  28   2.0000      -0.868862       -23.6429
  29   2.0000      -0.850290       -23.1376
  30   2.0000      -0.843913       -22.9641
  31   2.0000      -0.814709       -22.1694
  32   2.0000      -0.779483       -21.2108
  33   2.0000      -0.769826       -20.9480
  34   2.0000      -0.709561       -19.3081
  35   2.0000      -0.694429       -18.8964
  36   2.0000      -0.686618       -18.6838
  37   2.0000      -0.663874       -18.0649
  38   2.0000      -0.646271       -17.5859
  39   2.0000      -0.622733       -16.9454
  40   2.0000      -0.596605       -16.2345
  41   2.0000      -0.569060       -15.4849
  42   2.0000      -0.560806       -15.2603
  43   2.0000      -0.545079       -14.8324
  44   2.0000      -0.543722       -14.7954
  45   2.0000      -0.536475       -14.5982
  46   2.0000      -0.519913       -14.1475
  47   2.0000      -0.509010       -13.8509
  48   2.0000      -0.503384       -13.6978
  49   2.0000      -0.495490       -13.4830
  50   2.0000      -0.481596       -13.1049
  51   2.0000      -0.479028       -13.0350
  52   2.0000      -0.472184       -12.8488
  53   2.0000      -0.467339       -12.7169
  54   2.0000      -0.458054       -12.4643
  55   2.0000      -0.445412       -12.1203
  56   2.0000      -0.438208       -11.9242
  57   2.0000      -0.436787       -11.8856
  58   2.0000      -0.426086       -11.5944
  59   2.0000      -0.423440       -11.5224
  60   2.0000      -0.421157       -11.4603
  61   2.0000      -0.415926       -11.3179
  62   2.0000      -0.410083       -11.1589
  63   2.0000      -0.351102        -9.5540
  64   2.0000      -0.334787        -9.1100
  65   2.0000      -0.330956        -9.0058
  66   2.0000      -0.294615        -8.0169
  67   0.0000       0.026550         0.7225
  68   0.0000       0.068320         1.8591
  69   0.0000       0.114305         3.1104
  70   0.0000       0.116706         3.1757
  71   0.0000       0.125549         3.4164

MULLIKEN ATOMIC CHARGES
-----------------------
   0 S :    0.103597
   1 C :   -0.122615
   2 C :   -0.087319
   3 C :    0.032258
   4 C :   -0.144557
   5 H :    0.034046
   6 C :    0.097193
   7 H :    0.020817
   8 H :    0.020145
   9 C :   -0.105153
  10 H :    0.044046
  11 H :    0.040810
  12 C :   -0.082209
  13 H :    0.039581
  14 H :    0.051858
  15 H :    0.016924
  16 S :    0.126837
  17 C :   -0.078578
  18 C :   -0.041610
  19 C :   -0.031028
  20 C :   -0.170203
  21 H :    0.010385
  22 C :    0.048852
  23 H :    0.039865
  24 H :    0.017980
  25 C :    0.001402
  26 H :   -0.029448
  27 H :    0.025033
  28 C :   -0.115103
  29 H :    0.038075
  30 H :    0.057289
  31 H :    0.040238
  32 H :    0.051995
  33 H :    0.048595
Sum of atomic charges:   -0.0000000

LOEWDIN ATOMIC CHARGES
----------------------
   0 S :    0.381179
   1 C :   -0.188580
   2 C :   -0.059124
   3 C :   -0.057627
   4 C :   -0.178834
   5 H :    0.035561
   6 C :   -0.031052
   7 H :    0.029707
   8 H :    0.028637
   9 C :   -0.050193
  10 H :    0.028668
  11 H :    0.030903
  12 C :   -0.079583
  13 H :    0.032075
  14 H :    0.036106
  15 H :    0.012315
  16 S :    0.424205
  17 C :   -0.197500
  18 C :   -0.064232
  19 C :   -0.067099
  20 C :   -0.195858
  21 H :    0.023771
  22 C :   -0.018186
  23 H :    0.031668
  24 H :    0.029855
  25 C :   -0.042373
  26 H :    0.000493
  27 H :    0.026069
  28 C :   -0.072743
  29 H :    0.024436
  30 H :    0.035028
  31 H :    0.031460
  32 H :    0.030701
  33 H :    0.030146

  Mayer bond orders larger than 0.100000
B(  0-S ,  1-C ) :   1.1185 B(  0-S ,  4-C ) :   1.1434 B(  1-C ,  2-C ) :   1.6283
B(  1-C , 32-H ) :   0.9716 B(  2-C ,  3-C ) :   1.2261 B(  2-C ,  6-C ) :   1.0155
B(  3-C ,  4-C ) :   1.5912 B(  3-C ,  5-H ) :   0.9819 B(  4-C , 20-C ) :   1.0282
B(  6-C ,  7-H ) :   0.9367 B(  6-C ,  8-H ) :   0.9482 B(  6-C ,  9-C ) :   1.0588
B(  9-C , 10-H ) :   0.9608 B(  9-C , 11-H ) :   0.9640 B(  9-C , 12-C ) :   1.0513
B( 12-C , 13-H ) :   0.9775 B( 12-C , 14-H ) :   0.9768 B( 12-C , 15-H ) :   0.9799
B( 16-S , 17-C ) :   1.1479 B( 16-S , 20-C ) :   1.1560 B( 17-C , 18-C ) :   1.6112
B( 17-C , 33-H ) :   0.9697 B( 18-C , 19-C ) :   1.2495 B( 18-C , 21-H ) :   0.9888
B( 19-C , 20-C ) :   1.5847 B( 19-C , 22-C ) :   1.0319 B( 22-C , 23-H ) :   0.9422
B( 22-C , 24-H ) :   0.9530 B( 22-C , 25-C ) :   1.0567 B( 25-C , 26-H ) :   0.9506
B( 25-C , 27-H ) :   0.9489 B( 25-C , 28-C ) :   1.0793 B( 28-C , 29-H ) :   0.9748
B( 28-C , 30-H ) :   0.9740 B( 28-C , 31-H ) :   0.9735

Dispersion correction           -0.015089849
FINAL SINGLE POINT ENERGY     -1339.866016807268

DIPOLE MOMENT
-------------
                                X             Y             Z
Electronic contribution:     18.76678      -4.54725     -21.62516
Nuclear contribution   :    -19.11098       4.63697      21.95748
                        -----------------------------------------
Total Dipole Moment    :     -0.34419       0.08972       0.33232
                        -----------------------------------------
Magnitude (a.u.)       :      0.48678
Magnitude (Debye)      :      1.23729

Rotational constants in cm-1:     0.018610     0.009782     0.007078
Rotational constants in MHz :   557.915344   293.244652   212.184908

                             ****ORCA TERMINATED NORMALLY****
TOTAL RUN TIME: 0 days 0 hours 0 minutes 21 seconds 351 msec
