                         Program Version 4.2.1 -  RELEASE  -
|  1> ! wB97X-D3 SP def2-SVP
|  2> %pal
|  3> nprocs 24
|  4> end
|  5>
|  6> * xyz 0 1
|  7> S 	 47.5349 	 -16.851 	 -110.037
|  8> C 	 46.2131 	 -15.8867 	 -110.738
|  9> C 	 46.1579 	 -14.6439 	 -110.188
| 10> C 	 47.0878 	 -14.4879 	 -109.115
| 11> C 	 47.834 	 -15.6043 	 -108.822
| 12> H 	 47.2175 	 -13.5235 	 -108.592
| 13> C 	 45.3905 	 -13.4451 	 -110.79
| 14> H 	 45.5291 	 -12.5637 	 -110.123
| 15> H 	 44.3123 	 -13.751 	 -110.772
| 16> C 	 45.843 	 -12.9262 	 -112.156
| 17> H 	 46.8923 	 -12.746 	 -112.319
| 18> H 	 45.6736 	 -13.671 	 -112.97
| 19> C 	 45.0776 	 -11.6774 	 -112.543
| 20> H 	 45.03 	 -11.5163 	 -113.616
| 21> H 	 43.9959 	 -11.696 	 -112.401
| 22> H 	 45.494 	 -10.6976 	 -112.087
| 23> S 	 48.4131 	 -17.4904 	 -106.98
| 24> C 	 49.4655 	 -17.0432 	 -105.668
| 25> C 	 50.0076 	 -15.8184 	 -105.766
| 26> C 	 49.4735 	 -15.143 	 -106.881
| 27> C 	 48.6543 	 -15.9108 	 -107.647
| 28> H 	 50.7379 	 -15.365 	 -105.081
| 29> C 	 50.0039 	 -13.7557 	 -107.238
| 30> H 	 49.9239 	 -13.2113 	 -106.269
| 31> H 	 49.2463 	 -13.3598 	 -107.918
| 32> C 	 51.4579 	 -13.6733 	 -107.815
| 33> H 	 52.2503 	 -14.2078 	 -107.28
| 34> H 	 51.901 	 -12.6877 	 -107.576
| 35> C 	 51.7026 	 -13.9269 	 -109.285
| 36> H 	 51.2464 	 -13.1039 	 -109.941
| 37> H 	 51.1308 	 -14.8611 	 -109.586
| 38> H 	 52.7657 	 -13.9755 	 -109.58
| 39> H 	 45.5644 	 -16.1603 	 -111.535
| 40> H 	 49.496 	 -17.6508 	 -104.757
| 41> *
| 42>
| 43>                          ****END OF INPUT****

CARTESIAN COORDINATES (ANGSTROEM)
---------------------------------
  S     47.534900  -16.851000  -110.037000
  C     46.213100  -15.886700  -110.738000
  C     46.157900  -14.643900  -110.188000
  C     47.087800  -14.487900  -109.115000
  C     47.834000  -15.604300  -108.822000
  H     47.217500  -13.523500  -108.592000
  C     45.390500  -13.445100  -110.790000
  H     45.529100  -12.563700  -110.123000
  H     44.312300  -13.751000  -110.772000
  C     45.843000  -12.926200  -112.156000
  H     46.892300  -12.746000  -112.319000
  H     45.673600  -13.671000  -112.970000
  C     45.077600  -11.677400  -112.543000
  H     45.030000  -11.516300  -113.616000
  H     43.995900  -11.696000  -112.401000
  H     45.494000  -10.697600  -112.087000
  S     48.413100  -17.490400  -106.980000
  C     49.465500  -17.043200  -105.668000
  C     50.007600  -15.818400  -105.766000
  C     49.473500  -15.143000  -106.881000
  C     48.654300  -15.910800  -107.647000
  H     50.737900  -15.365000  -105.081000
  C     50.003900  -13.755700  -107.238000
  H     49.923900  -13.211300  -106.269000
  H     49.246300  -13.359800  -107.918000
  C     51.457900  -13.673300  -107.815000
  H     52.250300  -14.207800  -107.280000
  H     51.901000  -12.687700  -107.576000
  C     51.702600  -13.926900  -109.285000
  H     51.246400  -13.103900  -109.941000
  H     51.130800  -14.861100  -109.586000
  H     52.765700  -13.975500  -109.580000
  H     45.564400  -16.160300  -111.535000
  H     49.496000  -17.650800  -104.757000

 Total Charge           Charge          ....    0
 Multiplicity           Mult            ....    1
 Number of Electrons    NEL             ....  134
 Basis Dimension        Dim             ....  322

ORBITAL ENERGIES
----------------

  NO   OCC          E(Eh)            E(eV)
   0   2.0000     -88.966392     -2420.8986
   1   2.0000     -88.964962     -2420.8597
   2   2.0000     -10.331595      -281.1370
   3   2.0000     -10.322555      -280.8910
   4   2.0000     -10.313018      -280.6315
   5   2.0000     -10.310426      -280.5609
   6   2.0000     -10.302000      -280.3317
   7   2.0000     -10.299828      -280.2726
   8   2.0000     -10.298014      -280.2232
   9   2.0000     -10.295396      -280.1520
  10   2.0000     -10.293372      -280.0969
  11   2.0000     -10.290203      -280.0107
  12   2.0000     -10.289962      -280.0041
  13   2.0000     -10.289908      -280.0026
  14   2.0000     -10.284277      -279.8494
  15   2.0000     -10.283267      -279.8219
  16   2.0000      -8.080592      -219.8841
  17   2.0000      -8.080383      -219.8784
  18   2.0000      -6.039047      -164.3308
  19   2.0000      -6.038984      -164.3291
  20   2.0000      -6.035125      -164.2241
  21   2.0000      -6.035104      -164.2235
  22   2.0000      -6.031238      -164.1183
  23   2.0000      -6.030923      -164.1098
  24   2.0000      -1.013472       -27.5780
  25   2.0000      -0.986435       -26.8423
  26   2.0000      -0.910568       -24.7778
  27   2.0000      -0.903519       -24.5860
  28   2.0000      -0.873028       -23.7563
  29   2.0000      -0.853551       -23.2263
  30   2.0000      -0.843953       -22.9651
  31   2.0000      -0.815541       -22.1920
  32   2.0000      -0.780503       -21.2386
  33   2.0000      -0.771074       -20.9820
  34   2.0000      -0.704802       -19.1786
  35   2.0000      -0.703501       -19.1432
  36   2.0000      -0.694291       -18.8926
  37   2.0000      -0.666562       -18.1381
  38   2.0000      -0.636446       -17.3186
  39   2.0000      -0.618255       -16.8236
  40   2.0000      -0.593324       -16.1452
  41   2.0000      -0.570825       -15.5329
  42   2.0000      -0.556850       -15.1527
  43   2.0000      -0.554462       -15.0877
  44   2.0000      -0.530400       -14.4329
  45   2.0000      -0.520449       -14.1621
  46   2.0000      -0.516906       -14.0657
  47   2.0000      -0.508801       -13.8452
  48   2.0000      -0.503573       -13.7029
  49   2.0000      -0.498193       -13.5565
  50   2.0000      -0.493980       -13.4419
  51   2.0000      -0.475675       -12.9438
  52   2.0000      -0.470631       -12.8065
  53   2.0000      -0.461558       -12.5596
  54   2.0000      -0.459140       -12.4938
  55   2.0000      -0.450575       -12.2608
  56   2.0000      -0.444786       -12.1032
  57   2.0000      -0.438296       -11.9266
  58   2.0000      -0.435834       -11.8597
  59   2.0000      -0.428595       -11.6627
  60   2.0000      -0.419486       -11.4148
  61   2.0000      -0.410773       -11.1777
  62   2.0000      -0.395317       -10.7571
  63   2.0000      -0.355706        -9.6792
  64   2.0000      -0.334680        -9.1071
  65   2.0000      -0.330758        -9.0004
  66   2.0000      -0.287919        -7.8347
  67   0.0000       0.029317         0.7978
  68   0.0000       0.072832         1.9819
  69   0.0000       0.102478         2.7886
  70   0.0000       0.121293         3.3005
  71   0.0000       0.137166         3.7325

MULLIKEN ATOMIC CHARGES
-----------------------
   0 S :    0.093094
   1 C :   -0.113524
   2 C :   -0.074940
   3 C :    0.011530
   4 C :   -0.145091
   5 H :    0.025835
   6 C :    0.037526
   7 H :    0.027553
   8 H :    0.048325
   9 C :   -0.043410
  10 H :    0.032486
  11 H :    0.021163
  12 C :   -0.083451
  13 H :    0.022954
  14 H :    0.023768
  15 H :    0.047422
  16 S :    0.111070
  17 C :   -0.094308
  18 C :   -0.017266
  19 C :   -0.090898
  20 C :   -0.119085
  21 H :    0.025245
  22 C :    0.095743
  23 H :    0.032597
  24 H :    0.010789
  25 C :   -0.055393
  26 H :    0.017485
  27 H :    0.015620
  28 C :   -0.084970
  29 H :    0.034881
  30 H :    0.049236
  31 H :    0.043877
  32 H :    0.033000
  33 H :    0.061138
Sum of atomic charges:   -0.0000000

LOEWDIN ATOMIC CHARGES
----------------------
   0 S :    0.379206
   1 C :   -0.182118
   2 C :   -0.067052
   3 C :   -0.073936
   4 C :   -0.181515
   5 H :    0.032551
   6 C :   -0.032015
   7 H :    0.032417
   8 H :    0.040227
   9 C :   -0.048078
  10 H :    0.028360
  11 H :    0.025968
  12 C :   -0.079694
  13 H :    0.026461
  14 H :    0.024770
  15 H :    0.033398
  16 S :    0.415657
  17 C :   -0.181522
  18 C :   -0.069907
  19 C :   -0.064982
  20 C :   -0.203846
  21 H :    0.038771
  22 C :   -0.025988
  23 H :    0.038697
  24 H :    0.028785
  25 C :   -0.055486
  26 H :    0.026466
  27 H :    0.026319
  28 C :   -0.076781
  29 H :    0.027959
  30 H :    0.033689
  31 H :    0.029868
  32 H :    0.023367
  33 H :    0.029982

  Mayer bond orders larger than 0.100000
B(  0-S ,  1-C ) :   1.1132 B(  0-S ,  4-C ) :   1.1362 B(  1-C ,  2-C ) :   1.6412
B(  1-C , 32-H ) :   0.9722 B(  2-C ,  3-C ) :   1.2509 B(  2-C ,  6-C ) :   1.0095
B(  3-C ,  4-C ) :   1.5881 B(  3-C ,  5-H ) :   0.9771 B(  4-C , 20-C ) :   1.0243
B(  6-C ,  7-H ) :   0.9507 B(  6-C ,  8-H ) :   0.9368 B(  6-C ,  9-C ) :   1.0601
B(  9-C , 10-H ) :   0.9553 B(  9-C , 11-H ) :   0.9510 B(  9-C , 12-C ) :   1.0825
B( 12-C , 13-H ) :   0.9712 B( 12-C , 14-H ) :   0.9718 B( 12-C , 15-H ) :   0.9741
B( 16-S , 17-C ) :   1.1542 B( 16-S , 20-C ) :   1.1336 B( 17-C , 18-C ) :   1.6115
B( 17-C , 33-H ) :   0.9620 B( 18-C , 19-C ) :   1.2396 B( 18-C , 21-H ) :   0.9910
B( 19-C , 20-C ) :   1.6271 B( 19-C , 22-C ) :   1.0393 B( 22-C , 23-H ) :   0.9297
B( 22-C , 24-H ) :   0.9362 B( 22-C , 25-C ) :   1.0535 B( 25-C , 26-H ) :   0.9549
B( 25-C , 27-H ) :   0.9484 B( 25-C , 28-C ) :   1.0821 B( 28-C , 29-H ) :   0.9736
B( 28-C , 30-H ) :   0.9753 B( 28-C , 31-H ) :   0.9718

Dispersion correction           -0.014075319
FINAL SINGLE POINT ENERGY     -1339.872338500166

DIPOLE MOMENT
-------------
                                X             Y             Z
Electronic contribution:     -1.98288     -25.91576      12.30655
Nuclear contribution   :      2.03749      26.57018     -12.28964
                        -----------------------------------------
Total Dipole Moment    :      0.05460       0.65443       0.01691
                        -----------------------------------------
Magnitude (a.u.)       :      0.65692
Magnitude (Debye)      :      1.66975

Rotational constants in cm-1:     0.020440     0.008075     0.006574
Rotational constants in MHz :   612.789484   242.068021   197.076244

                             ****ORCA TERMINATED NORMALLY****
TOTAL RUN TIME: 0 days 0 hours 0 minutes 21 seconds 372 msec
