                         Program Version 4.2.1 -  RELEASE  -
|  1> ! wB97X-D3 SP def2-SVP
|  2> %pal
|  3> nprocs 24
|  4> end
|  5>
|  6> * xyz 0 1
|  7> S 	 -56.1952 	 -2.72801 	 -30.8585
|  8> C 	 -56.0109 	 -3.36393 	 -29.248
|  9> C 	 -55.4425 	 -2.48513 	 -28.3778
| 10> C 	 -55.0691 	 -1.3035 	 -29.1418
| 11> C 	 -55.5192 	 -1.22871 	 -30.3952
| 12> H 	 -54.5075 	 -0.470753 	 -28.7705
| 13> C 	 -54.8869 	 -2.75253 	 -27.0085
| 14> H 	 -55.6852 	 -2.70627 	 -26.3028
| 15> H 	 -54.2934 	 -1.88793 	 -26.67
| 16> C 	 -54.1524 	 -4.08103 	 -26.8501
| 17> H 	 -54.8378 	 -4.94057 	 -27.0234
| 18> H 	 -53.3359 	 -4.09618 	 -27.5614
| 19> C 	 -53.6007 	 -4.10871 	 -25.4031
| 20> H 	 -53.1003 	 -5.01163 	 -25.1586
| 21> H 	 -52.8603 	 -3.38488 	 -25.1605
| 22> H 	 -54.435 	 -3.77708 	 -24.7713
| 23> S 	 -54.264 	 -0.663132 	 -32.7748
| 24> C 	 -53.989 	 0.936382 	 -33.2684
| 25> C 	 -54.6818 	 1.77274 	 -32.45
| 26> C 	 -55.501 	 1.21353 	 -31.4588
| 27> C 	 -55.2962 	 -0.19217 	 -31.4287
| 28> H 	 -54.7064 	 2.83266 	 -32.627
| 29> C 	 -56.3242 	 2.05449 	 -30.5298
| 30> H 	 -55.7757 	 2.90774 	 -30.1702
| 31> H 	 -56.5506 	 1.38025 	 -29.6059
| 32> C 	 -57.6583 	 2.57088 	 -31.0918
| 33> H 	 -58.3304 	 3.15715 	 -30.3816
| 34> H 	 -58.154 	 1.61892 	 -31.4508
| 35> C 	 -57.4643 	 3.51713 	 -32.3708
| 36> H 	 -56.728 	 4.28889 	 -32.2233
| 37> H 	 -58.4151 	 3.98753 	 -32.6882
| 38> H 	 -57.0706 	 2.92666 	 -33.2151
| 39> H 	 -56.1135 	 -4.42965 	 -29.1104
| 40> H 	 -53.353 	 1.16537 	 -34.1417
| 41> *
| 42>
| 43>                          ****END OF INPUT****

CARTESIAN COORDINATES (ANGSTROEM)
---------------------------------
  S    -56.195200   -2.728010  -30.858500
  C    -56.010900   -3.363930  -29.248000
  C    -55.442500   -2.485130  -28.377800
  C    -55.069100   -1.303500  -29.141800
  C    -55.519200   -1.228710  -30.395200
  H    -54.507500   -0.470753  -28.770500
  C    -54.886900   -2.752530  -27.008500
  H    -55.685200   -2.706270  -26.302800
  H    -54.293400   -1.887930  -26.670000
  C    -54.152400   -4.081030  -26.850100
  H    -54.837800   -4.940570  -27.023400
  H    -53.335900   -4.096180  -27.561400
  C    -53.600700   -4.108710  -25.403100
  H    -53.100300   -5.011630  -25.158600
  H    -52.860300   -3.384880  -25.160500
  H    -54.435000   -3.777080  -24.771300
  S    -54.264000   -0.663132  -32.774800
  C    -53.989000    0.936382  -33.268400
  C    -54.681800    1.772740  -32.450000
  C    -55.501000    1.213530  -31.458800
  C    -55.296200   -0.192170  -31.428700
  H    -54.706400    2.832660  -32.627000
  C    -56.324200    2.054490  -30.529800
  H    -55.775700    2.907740  -30.170200
  H    -56.550600    1.380250  -29.605900
  C    -57.658300    2.570880  -31.091800
  H    -58.330400    3.157150  -30.381600
  H    -58.154000    1.618920  -31.450800
  C    -57.464300    3.517130  -32.370800
  H    -56.728000    4.288890  -32.223300
  H    -58.415100    3.987530  -32.688200
  H    -57.070600    2.926660  -33.215100
  H    -56.113500   -4.429650  -29.110400
  H    -53.353000    1.165370  -34.141700

 Total Charge           Charge          ....    0
 Multiplicity           Mult            ....    1
 Number of Electrons    NEL             ....  134
 Basis Dimension        Dim             ....  322

ORBITAL ENERGIES
----------------

  NO   OCC          E(Eh)            E(eV)
   0   2.0000     -88.963866     -2420.8299
   1   2.0000     -88.958177     -2420.6751
   2   2.0000     -10.331243      -281.1274
   3   2.0000     -10.320831      -280.8441
   4   2.0000     -10.316158      -280.7169
   5   2.0000     -10.309518      -280.5363
   6   2.0000     -10.305731      -280.4332
   7   2.0000     -10.300099      -280.2799
   8   2.0000     -10.299422      -280.2615
   9   2.0000     -10.297381      -280.2060
  10   2.0000     -10.291841      -280.0552
  11   2.0000     -10.290815      -280.0273
  12   2.0000     -10.286970      -279.9227
  13   2.0000     -10.286947      -279.9220
  14   2.0000     -10.279962      -279.7320
  15   2.0000     -10.274961      -279.5959
  16   2.0000      -8.079677      -219.8592
  17   2.0000      -8.074530      -219.7191
  18   2.0000      -6.037936      -164.3006
  19   2.0000      -6.033853      -164.1895
  20   2.0000      -6.033014      -164.1667
  21   2.0000      -6.030790      -164.1061
  22   2.0000      -6.028845      -164.0532
  23   2.0000      -6.025198      -163.9540
  24   2.0000      -1.014068       -27.5942
  25   2.0000      -0.993528       -27.0353
  26   2.0000      -0.918133       -24.9837
  27   2.0000      -0.906678       -24.6720
  28   2.0000      -0.870268       -23.6812
  29   2.0000      -0.848312       -23.0837
  30   2.0000      -0.841818       -22.9070
  31   2.0000      -0.815504       -22.1910
  32   2.0000      -0.784395       -21.3445
  33   2.0000      -0.773825       -21.0568
  34   2.0000      -0.712653       -19.3923
  35   2.0000      -0.700392       -19.0586
  36   2.0000      -0.684769       -18.6335
  37   2.0000      -0.662239       -18.0204
  38   2.0000      -0.647500       -17.6194
  39   2.0000      -0.618458       -16.8291
  40   2.0000      -0.599440       -16.3116
  41   2.0000      -0.571092       -15.5402
  42   2.0000      -0.566163       -15.4061
  43   2.0000      -0.554806       -15.0970
  44   2.0000      -0.536482       -14.5984
  45   2.0000      -0.530467       -14.4348
  46   2.0000      -0.515349       -14.0234
  47   2.0000      -0.512377       -13.9425
  48   2.0000      -0.507422       -13.8077
  49   2.0000      -0.493396       -13.4260
  50   2.0000      -0.485697       -13.2165
  51   2.0000      -0.482951       -13.1418
  52   2.0000      -0.470742       -12.8095
  53   2.0000      -0.465704       -12.6724
  54   2.0000      -0.455789       -12.4027
  55   2.0000      -0.447971       -12.1899
  56   2.0000      -0.445144       -12.1130
  57   2.0000      -0.439891       -11.9700
  58   2.0000      -0.431837       -11.7509
  59   2.0000      -0.425280       -11.5725
  60   2.0000      -0.419511       -11.4155
  61   2.0000      -0.418167       -11.3789
  62   2.0000      -0.411479       -11.1969
  63   2.0000      -0.342467        -9.3190
  64   2.0000      -0.331813        -9.0291
  65   2.0000      -0.326936        -8.8964
  66   2.0000      -0.300514        -8.1774
  67   0.0000       0.036379         0.9899
  68   0.0000       0.070329         1.9137
  69   0.0000       0.117596         3.2000
  70   0.0000       0.124081         3.3764
  71   0.0000       0.131975         3.5912

MULLIKEN ATOMIC CHARGES
-----------------------
   0 S :    0.092218
   1 C :   -0.136510
   2 C :   -0.050371
   3 C :    0.020532
   4 C :   -0.148913
   5 H :    0.000079
   6 C :    0.059147
   7 H :    0.020454
   8 H :    0.019329
   9 C :   -0.078579
  10 H :    0.044678
  11 H :    0.037571
  12 C :   -0.019773
  13 H :    0.029362
  14 H :    0.016154
  15 H :    0.022022
  16 S :    0.110848
  17 C :   -0.093607
  18 C :   -0.035684
  19 C :   -0.029755
  20 C :   -0.162207
  21 H :    0.007321
  22 C :    0.050864
  23 H :    0.027033
  24 H :    0.046894
  25 C :   -0.096596
  26 H :    0.054226
  27 H :    0.045811
  28 C :   -0.088447
  29 H :    0.024855
  30 H :    0.042601
  31 H :    0.045252
  32 H :    0.049787
  33 H :    0.073403
Sum of atomic charges:   -0.0000000

LOEWDIN ATOMIC CHARGES
----------------------
   0 S :    0.412044
   1 C :   -0.190719
   2 C :   -0.061752
   3 C :   -0.061403
   4 C :   -0.211579
   5 H :    0.026693
   6 C :   -0.035466
   7 H :    0.028557
   8 H :    0.033834
   9 C :   -0.032202
  10 H :    0.028961
  11 H :    0.024326
  12 C :   -0.063956
  13 H :    0.021832
  14 H :    0.021732
  15 H :    0.028219
  16 S :    0.430825
  17 C :   -0.203775
  18 C :   -0.077443
  19 C :   -0.056662
  20 C :   -0.198288
  21 H :    0.025714
  22 C :   -0.040421
  23 H :    0.025917
  24 H :    0.044415
  25 C :   -0.043531
  26 H :    0.032778
  27 H :    0.033122
  28 C :   -0.076394
  29 H :    0.015633
  30 H :    0.028986
  31 H :    0.027649
  32 H :    0.022789
  33 H :    0.039563

  Mayer bond orders larger than 0.100000
B(  0-S ,  1-C ) :   1.1467 B(  0-S ,  4-C ) :   1.1446 B(  1-C ,  2-C ) :   1.6243
B(  1-C , 32-H ) :   0.9681 B(  2-C ,  3-C ) :   1.2146 B(  2-C ,  6-C ) :   1.0224
B(  3-C ,  4-C ) :   1.6382 B(  3-C ,  5-H ) :   0.9952 B(  4-C , 20-C ) :   0.9806
B(  6-C ,  7-H ) :   0.9160 B(  6-C ,  8-H ) :   0.9474 B(  6-C ,  9-C ) :   1.0696
B(  9-C , 10-H ) :   0.9496 B(  9-C , 11-H ) :   0.9601 B(  9-C , 12-C ) :   1.0797
B( 12-C , 13-H ) :   0.9727 B( 12-C , 14-H ) :   0.9736 B( 12-C , 15-H ) :   0.9714
B( 16-S , 17-C ) :   1.1745 B( 16-S , 20-C ) :   1.1803 B( 17-C , 18-C ) :   1.5518
B( 17-C , 20-C ) :   0.1053 B( 17-C , 33-H ) :   0.9688 B( 18-C , 19-C ) :   1.2929
B( 18-C , 21-H ) :   0.9875 B( 19-C , 20-C ) :   1.5490 B( 19-C , 22-C ) :   1.0391
B( 22-C , 23-H ) :   0.9401 B( 22-C , 24-H ) :   0.9323 B( 22-C , 25-C ) :   1.0626
B( 25-C , 26-H ) :   0.9607 B( 25-C , 27-H ) :   0.9544 B( 25-C , 28-C ) :   1.0661
B( 28-C , 29-H ) :   0.9761 B( 28-C , 30-H ) :   0.9752 B( 28-C , 31-H ) :   0.9710

Dispersion correction           -0.013780199
FINAL SINGLE POINT ENERGY     -1339.875199441722

DIPOLE MOMENT
-------------
                                X             Y             Z
Electronic contribution:      1.96052      -7.51612     -18.00421
Nuclear contribution   :     -1.66328       7.81334      18.43182
                        -----------------------------------------
Total Dipole Moment    :      0.29724       0.29721       0.42761
                        -----------------------------------------
Magnitude (a.u.)       :      0.59961
Magnitude (Debye)      :      1.52409

Rotational constants in cm-1:     0.024566     0.006694     0.006125
Rotational constants in MHz :   736.477361   200.693955   183.628526

                             ****ORCA TERMINATED NORMALLY****
TOTAL RUN TIME: 0 days 0 hours 0 minutes 21 seconds 229 msec
