                         Program Version 4.2.1 -  RELEASE  -
|  1> ! wB97X-D3 SP def2-SVP
|  2> %pal
|  3> nprocs 24
|  4> end
|  5>
|  6> * xyz 0 1
|  7> S 	 -47.3559 	 12.0674 	 27.625
|  8> C 	 -46.6461 	 12.3358 	 26.0489
|  9> C 	 -47.5953 	 12.2466 	 25.0713
| 10> C 	 -48.8871 	 11.9482 	 25.5758
| 11> C 	 -48.9367 	 11.7655 	 26.9525
| 12> H 	 -49.7606 	 11.9538 	 24.9967
| 13> C 	 -47.2973 	 12.418 	 23.5874
| 14> H 	 -47.1632 	 13.4784 	 23.3157
| 15> H 	 -48.151 	 12.1763 	 22.9293
| 16> C 	 -46.073 	 11.6941 	 23.1225
| 17> H 	 -45.2225 	 12.0933 	 23.7213
| 18> H 	 -46.2176 	 10.6277 	 23.3348
| 19> C 	 -45.8077 	 11.9926 	 21.6178
| 20> H 	 -45.0282 	 12.7727 	 21.5556
| 21> H 	 -45.2769 	 11.2132 	 21.0639
| 22> H 	 -46.6228 	 12.2636 	 20.9863
| 23> S 	 -50.2475 	 11.9954 	 29.3563
| 24> C 	 -51.6325 	 11.0616 	 29.7263
| 25> C 	 -52.063 	 10.3874 	 28.6114
| 26> C 	 -51.1385 	 10.4827 	 27.4853
| 27> C 	 -50.0816 	 11.358 	 27.71
| 28> H 	 -52.875 	 9.65231 	 28.6026
| 29> C 	 -51.2966 	 9.64355 	 26.2485
| 30> H 	 -51.4465 	 8.67353 	 26.6098
| 31> H 	 -50.3451 	 9.71543 	 25.714
| 32> C 	 -52.3791 	 10.1538 	 25.3672
| 33> H 	 -52.17 	 11.2185 	 25.2046
| 34> H 	 -53.4069 	 10.0056 	 25.7383
| 35> C 	 -52.2761 	 9.51893 	 23.9499
| 36> H 	 -52.6025 	 8.45366 	 24.0214
| 37> H 	 -51.2071 	 9.41268 	 23.7603
| 38> H 	 -52.7134 	 9.91145 	 23.0442
| 39> H 	 -45.6676 	 12.5197 	 25.8166
| 40> H 	 -52.1192 	 10.9364 	 30.7389
| 41> *
| 42>
| 43>                          ****END OF INPUT****

CARTESIAN COORDINATES (ANGSTROEM)
---------------------------------
  S    -47.355900   12.067400   27.625000
  C    -46.646100   12.335800   26.048900
  C    -47.595300   12.246600   25.071300
  C    -48.887100   11.948200   25.575800
  C    -48.936700   11.765500   26.952500
  H    -49.760600   11.953800   24.996700
  C    -47.297300   12.418000   23.587400
  H    -47.163200   13.478400   23.315700
  H    -48.151000   12.176300   22.929300
  C    -46.073000   11.694100   23.122500
  H    -45.222500   12.093300   23.721300
  H    -46.217600   10.627700   23.334800
  C    -45.807700   11.992600   21.617800
  H    -45.028200   12.772700   21.555600
  H    -45.276900   11.213200   21.063900
  H    -46.622800   12.263600   20.986300
  S    -50.247500   11.995400   29.356300
  C    -51.632500   11.061600   29.726300
  C    -52.063000   10.387400   28.611400
  C    -51.138500   10.482700   27.485300
  C    -50.081600   11.358000   27.710000
  H    -52.875000    9.652310   28.602600
  C    -51.296600    9.643550   26.248500
  H    -51.446500    8.673530   26.609800
  H    -50.345100    9.715430   25.714000
  C    -52.379100   10.153800   25.367200
  H    -52.170000   11.218500   25.204600
  H    -53.406900   10.005600   25.738300
  C    -52.276100    9.518930   23.949900
  H    -52.602500    8.453660   24.021400
  H    -51.207100    9.412680   23.760300
  H    -52.713400    9.911450   23.044200
  H    -45.667600   12.519700   25.816600
  H    -52.119200   10.936400   30.738900

 Total Charge           Charge          ....    0
 Multiplicity           Mult            ....    1
 Number of Electrons    NEL             ....  134
 Basis Dimension        Dim             ....  322

ORBITAL ENERGIES
----------------

  NO   OCC          E(Eh)            E(eV)
   0   2.0000     -88.969723     -2420.9892
   1   2.0000     -88.961796     -2420.7735
   2   2.0000     -10.331606      -281.1373
   3   2.0000     -10.327487      -281.0252
   4   2.0000     -10.322096      -280.8785
   5   2.0000     -10.308020      -280.4955
   6   2.0000     -10.304571      -280.4016
   7   2.0000     -10.298929      -280.2481
   8   2.0000     -10.296320      -280.1771
   9   2.0000     -10.292670      -280.0778
  10   2.0000     -10.292216      -280.0654
  11   2.0000     -10.291086      -280.0347
  12   2.0000     -10.289314      -279.9865
  13   2.0000     -10.284007      -279.8421
  14   2.0000     -10.280809      -279.7550
  15   2.0000     -10.278267      -279.6859
  16   2.0000      -8.084262      -219.9840
  17   2.0000      -8.077221      -219.7924
  18   2.0000      -6.042867      -164.4348
  19   2.0000      -6.038731      -164.3222
  20   2.0000      -6.035814      -164.2428
  21   2.0000      -6.034988      -164.2204
  22   2.0000      -6.031546      -164.1267
  23   2.0000      -6.027922      -164.0281
  24   2.0000      -1.010807       -27.5055
  25   2.0000      -0.988185       -26.8899
  26   2.0000      -0.920252       -25.0413
  27   2.0000      -0.917799       -24.9746
  28   2.0000      -0.874577       -23.7984
  29   2.0000      -0.852425       -23.1957
  30   2.0000      -0.844254       -22.9733
  31   2.0000      -0.816312       -22.2130
  32   2.0000      -0.783433       -21.3183
  33   2.0000      -0.773992       -21.0614
  34   2.0000      -0.714490       -19.4423
  35   2.0000      -0.704368       -19.1668
  36   2.0000      -0.695926       -18.9371
  37   2.0000      -0.665869       -18.1192
  38   2.0000      -0.644351       -17.5337
  39   2.0000      -0.621316       -16.9069
  40   2.0000      -0.596337       -16.2272
  41   2.0000      -0.576768       -15.6947
  42   2.0000      -0.576227       -15.6799
  43   2.0000      -0.565451       -15.3867
  44   2.0000      -0.527740       -14.3605
  45   2.0000      -0.523879       -14.2555
  46   2.0000      -0.520794       -14.1715
  47   2.0000      -0.517830       -14.0909
  48   2.0000      -0.510134       -13.8815
  49   2.0000      -0.502618       -13.6769
  50   2.0000      -0.495368       -13.4797
  51   2.0000      -0.480870       -13.0852
  52   2.0000      -0.472185       -12.8488
  53   2.0000      -0.465236       -12.6597
  54   2.0000      -0.456460       -12.4209
  55   2.0000      -0.452952       -12.3255
  56   2.0000      -0.448556       -12.2058
  57   2.0000      -0.436845       -11.8872
  58   2.0000      -0.430868       -11.7245
  59   2.0000      -0.428247       -11.6532
  60   2.0000      -0.423184       -11.5154
  61   2.0000      -0.417427       -11.3588
  62   2.0000      -0.408285       -11.1100
  63   2.0000      -0.358246        -9.7484
  64   2.0000      -0.333695        -9.0803
  65   2.0000      -0.327690        -8.9169
  66   2.0000      -0.289228        -7.8703
  67   0.0000       0.022414         0.6099
  68   0.0000       0.081243         2.2107
  69   0.0000       0.111299         3.0286
  70   0.0000       0.124383         3.3846
  71   0.0000       0.132401         3.6028

MULLIKEN ATOMIC CHARGES
-----------------------
   0 S :    0.123842
   1 C :   -0.089719
   2 C :   -0.052177
   3 C :    0.016791
   4 C :   -0.114993
   5 H :   -0.017304
   6 C :    0.050653
   7 H :    0.034468
   8 H :    0.017840
   9 C :   -0.098852
  10 H :    0.037578
  11 H :    0.044711
  12 C :   -0.046407
  13 H :    0.027123
  14 H :    0.027497
  15 H :    0.032337
  16 S :    0.091964
  17 C :   -0.101048
  18 C :   -0.020869
  19 C :   -0.100391
  20 C :   -0.136996
  21 H :    0.021027
  22 C :    0.099298
  23 H :    0.015666
  24 H :    0.022095
  25 C :   -0.077215
  26 H :    0.035474
  27 H :    0.041400
  28 C :   -0.048448
  29 H :    0.022521
  30 H :    0.010832
  31 H :    0.041032
  32 H :    0.004812
  33 H :    0.085459
Sum of atomic charges:   -0.0000000

LOEWDIN ATOMIC CHARGES
----------------------
   0 S :    0.416447
   1 C :   -0.182821
   2 C :   -0.059179
   3 C :   -0.059798
   4 C :   -0.192579
   5 H :    0.020553
   6 C :   -0.039191
   7 H :    0.033564
   8 H :    0.028001
   9 C :   -0.039541
  10 H :    0.027051
  11 H :    0.026619
  12 C :   -0.072910
  13 H :    0.030929
  14 H :    0.028997
  15 H :    0.021142
  16 S :    0.402732
  17 C :   -0.200559
  18 C :   -0.080229
  19 C :   -0.047195
  20 C :   -0.194340
  21 H :    0.031057
  22 C :   -0.027057
  23 H :    0.024195
  24 H :    0.033057
  25 C :   -0.037661
  26 H :    0.025932
  27 H :    0.026895
  28 C :   -0.074847
  29 H :    0.027025
  30 H :    0.021206
  31 H :    0.023521
  32 H :    0.009928
  33 H :    0.049057

  Mayer bond orders larger than 0.100000
B(  0-S ,  1-C ) :   1.1318 B(  0-S ,  4-C ) :   1.1531 B(  1-C ,  2-C ) :   1.6008
B(  1-C , 32-H ) :   0.9815 B(  2-C ,  3-C ) :   1.2669 B(  2-C ,  6-C ) :   1.0090
B(  3-C ,  4-C ) :   1.5259 B(  3-C ,  5-H ) :   1.0077 B(  4-C , 20-C ) :   1.0834
B(  6-C ,  7-H ) :   0.9346 B(  6-C ,  8-H ) :   0.9465 B(  6-C ,  9-C ) :   1.0625
B(  9-C , 10-H ) :   0.9558 B(  9-C , 11-H ) :   0.9649 B(  9-C , 12-C ) :   1.0645
B( 12-C , 13-H ) :   0.9743 B( 12-C , 14-H ) :   0.9741 B( 12-C , 15-H ) :   0.9791
B( 16-S , 17-C ) :   1.1648 B( 16-S , 20-C ) :   1.1131 B( 17-C , 18-C ) :   1.6026
B( 17-C , 33-H ) :   0.9589 B( 18-C , 19-C ) :   1.2420 B( 18-C , 21-H ) :   0.9832
B( 19-C , 20-C ) :   1.5955 B( 19-C , 22-C ) :   1.0510 B( 22-C , 23-H ) :   0.9202
B( 22-C , 24-H ) :   0.9289 B( 22-C , 25-C ) :   1.0691 B( 25-C , 26-H ) :   0.9534
B( 25-C , 27-H ) :   0.9555 B( 25-C , 28-C ) :   1.0727 B( 28-C , 29-H ) :   0.9716
B( 28-C , 30-H ) :   0.9733 B( 28-C , 31-H ) :   0.9793

Dispersion correction           -0.013879999
FINAL SINGLE POINT ENERGY     -1339.879388420014

DIPOLE MOMENT
-------------
                                X             Y             Z
Electronic contribution:      1.03575       7.43229      31.26807
Nuclear contribution   :     -1.15275      -7.73357     -31.88304
                        -----------------------------------------
Total Dipole Moment    :     -0.11699      -0.30128      -0.61496
                        -----------------------------------------
Magnitude (a.u.)       :      0.69472
Magnitude (Debye)      :      1.76583

Rotational constants in cm-1:     0.019431     0.008488     0.006101
Rotational constants in MHz :   582.520739   254.460822   182.893535

                             ****ORCA TERMINATED NORMALLY****
TOTAL RUN TIME: 0 days 0 hours 0 minutes 21 seconds 584 msec
