                         Program Version 4.2.1 -  RELEASE  -
|  1> ! wB97X-D3 SP def2-SVP
|  2> %pal
|  3> nprocs 24
|  4> end
|  5>
|  6> * xyz 0 1
|  7> S 	 -134.824 	 6.0725 	 9.255
|  8> C 	 -134.181 	 5.10013 	 7.96323
|  9> C 	 -134.382 	 3.76037 	 8.25764
| 10> C 	 -135.066 	 3.53433 	 9.46081
| 11> C 	 -135.527 	 4.72529 	 10.065
| 12> H 	 -135.308 	 2.58495 	 9.9293
| 13> C 	 -134.014 	 2.71853 	 7.31337
| 14> H 	 -133.301 	 2.08359 	 7.86319
| 15> H 	 -133.357 	 3.10597 	 6.52388
| 16> C 	 -135.182 	 2.06097 	 6.52237
| 17> H 	 -135.949 	 1.85021 	 7.23052
| 18> H 	 -135.42 	 2.72961 	 5.75029
| 19> C 	 -134.723 	 0.826232 	 5.74164
| 20> H 	 -135.524 	 0.352195 	 5.13622
| 21> H 	 -134.063 	 1.14936 	 5.00812
| 22> H 	 -134.388 	 -0.00213419 	 6.33834
| 23> S 	 -135.998 	 3.55764 	 12.4509
| 24> C 	 -137.224 	 4.2097 	 13.4846
| 25> C 	 -137.677 	 5.41782 	 13.0203
| 26> C 	 -137.203 	 5.73319 	 11.7231
| 27> C 	 -136.3 	 4.807 	 11.2919
| 28> H 	 -138.482 	 5.9628 	 13.54
| 29> C 	 -137.627 	 6.94544 	 10.9468
| 30> H 	 -137.582 	 6.64945 	 9.88238
| 31> H 	 -136.967 	 7.76812 	 11.1708
| 32> C 	 -139.079 	 7.27021 	 11.1272
| 33> H 	 -139.342 	 8.03594 	 10.3294
| 34> H 	 -139.224 	 7.77738 	 12.0867
| 35> C 	 -140.087 	 6.14196 	 10.9773
| 36> H 	 -141.009 	 6.32145 	 11.6435
| 37> H 	 -139.696 	 5.16964 	 11.2347
| 38> H 	 -140.473 	 6.06238 	 9.97963
| 39> H 	 -133.653 	 5.46923 	 7.09172
| 40> H 	 -137.387 	 3.80201 	 14.4506
| 41> *
| 42>
| 43>                          ****END OF INPUT****

CARTESIAN COORDINATES (ANGSTROEM)
---------------------------------
  S    -134.824000    6.072500    9.255000
  C    -134.181000    5.100130    7.963230
  C    -134.382000    3.760370    8.257640
  C    -135.066000    3.534330    9.460810
  C    -135.527000    4.725290   10.065000
  H    -135.308000    2.584950    9.929300
  C    -134.014000    2.718530    7.313370
  H    -133.301000    2.083590    7.863190
  H    -133.357000    3.105970    6.523880
  C    -135.182000    2.060970    6.522370
  H    -135.949000    1.850210    7.230520
  H    -135.420000    2.729610    5.750290
  C    -134.723000    0.826232    5.741640
  H    -135.524000    0.352195    5.136220
  H    -134.063000    1.149360    5.008120
  H    -134.388000   -0.002134    6.338340
  S    -135.998000    3.557640   12.450900
  C    -137.224000    4.209700   13.484600
  C    -137.677000    5.417820   13.020300
  C    -137.203000    5.733190   11.723100
  C    -136.300000    4.807000   11.291900
  H    -138.482000    5.962800   13.540000
  C    -137.627000    6.945440   10.946800
  H    -137.582000    6.649450    9.882380
  H    -136.967000    7.768120   11.170800
  C    -139.079000    7.270210   11.127200
  H    -139.342000    8.035940   10.329400
  H    -139.224000    7.777380   12.086700
  C    -140.087000    6.141960   10.977300
  H    -141.009000    6.321450   11.643500
  H    -139.696000    5.169640   11.234700
  H    -140.473000    6.062380    9.979630
  H    -133.653000    5.469230    7.091720
  H    -137.387000    3.802010   14.450600

 Total Charge           Charge          ....    0
 Multiplicity           Mult            ....    1
 Number of Electrons    NEL             ....  134
 Basis Dimension        Dim             ....  322

ORBITAL ENERGIES
----------------

  NO   OCC          E(Eh)            E(eV)
   0   2.0000     -88.966175     -2420.8927
   1   2.0000     -88.964349     -2420.8430
   2   2.0000     -10.328254      -281.0461
   3   2.0000     -10.320824      -280.8439
   4   2.0000     -10.313047      -280.6323
   5   2.0000     -10.309373      -280.5323
   6   2.0000     -10.295856      -280.1645
   7   2.0000     -10.293483      -280.0999
   8   2.0000     -10.293224      -280.0929
   9   2.0000     -10.290934      -280.0306
  10   2.0000     -10.287159      -279.9278
  11   2.0000     -10.285930      -279.8944
  12   2.0000     -10.284663      -279.8599
  13   2.0000     -10.280890      -279.7572
  14   2.0000     -10.275750      -279.6174
  15   2.0000     -10.271224      -279.4942
  16   2.0000      -8.080915      -219.8929
  17   2.0000      -8.079982      -219.8675
  18   2.0000      -6.039332      -164.3386
  19   2.0000      -6.038374      -164.3125
  20   2.0000      -6.035243      -164.2273
  21   2.0000      -6.034449      -164.2057
  22   2.0000      -6.031958      -164.1379
  23   2.0000      -6.030740      -164.1048
  24   2.0000      -1.014441       -27.6044
  25   2.0000      -0.991052       -26.9679
  26   2.0000      -0.917547       -24.9677
  27   2.0000      -0.915531       -24.9129
  28   2.0000      -0.872560       -23.7436
  29   2.0000      -0.854400       -23.2494
  30   2.0000      -0.846042       -23.0220
  31   2.0000      -0.814000       -22.1501
  32   2.0000      -0.787174       -21.4201
  33   2.0000      -0.771882       -21.0040
  34   2.0000      -0.709536       -19.3074
  35   2.0000      -0.701423       -19.0867
  36   2.0000      -0.691878       -18.8269
  37   2.0000      -0.666045       -18.1240
  38   2.0000      -0.635031       -17.2801
  39   2.0000      -0.616908       -16.7869
  40   2.0000      -0.602314       -16.3898
  41   2.0000      -0.573234       -15.5985
  42   2.0000      -0.567302       -15.4371
  43   2.0000      -0.565547       -15.3893
  44   2.0000      -0.538699       -14.6587
  45   2.0000      -0.524039       -14.2598
  46   2.0000      -0.520663       -14.1680
  47   2.0000      -0.513174       -13.9642
  48   2.0000      -0.504708       -13.7338
  49   2.0000      -0.499621       -13.5954
  50   2.0000      -0.494987       -13.4693
  51   2.0000      -0.476900       -12.9771
  52   2.0000      -0.472022       -12.8444
  53   2.0000      -0.465172       -12.6580
  54   2.0000      -0.461038       -12.5455
  55   2.0000      -0.451498       -12.2859
  56   2.0000      -0.445574       -12.1247
  57   2.0000      -0.443696       -12.0736
  58   2.0000      -0.435713       -11.8563
  59   2.0000      -0.424138       -11.5414
  60   2.0000      -0.416728       -11.3397
  61   2.0000      -0.408352       -11.1118
  62   2.0000      -0.402526       -10.9533
  63   2.0000      -0.353957        -9.6317
  64   2.0000      -0.333671        -9.0797
  65   2.0000      -0.328565        -8.9407
  66   2.0000      -0.284892        -7.7523
  67   0.0000       0.024799         0.6748
  68   0.0000       0.085672         2.3312
  69   0.0000       0.112778         3.0688
  70   0.0000       0.129517         3.5243
  71   0.0000       0.130807         3.5594

MULLIKEN ATOMIC CHARGES
-----------------------
   0 S :    0.114328
   1 C :   -0.122620
   2 C :   -0.067631
   3 C :   -0.002487
   4 C :   -0.151366
   5 H :    0.015568
   6 C :    0.034287
   7 H :    0.031017
   8 H :   -0.001186
   9 C :   -0.017514
  10 H :    0.030276
  11 H :    0.020548
  12 C :   -0.036280
  13 H :    0.026128
  14 H :    0.014605
  15 H :    0.030706
  16 S :    0.101806
  17 C :   -0.079191
  18 C :   -0.033930
  19 C :   -0.107695
  20 C :   -0.123840
  21 H :    0.029271
  22 C :    0.121418
  23 H :    0.032378
  24 H :    0.050538
  25 C :   -0.124970
  26 H :    0.039898
  27 H :    0.029329
  28 C :   -0.060362
  29 H :    0.038124
  30 H :    0.045513
  31 H :    0.029229
  32 H :    0.047234
  33 H :    0.046872
Sum of atomic charges:   -0.0000000

LOEWDIN ATOMIC CHARGES
----------------------
   0 S :    0.433910
   1 C :   -0.208301
   2 C :   -0.067858
   3 C :   -0.074944
   4 C :   -0.197475
   5 H :    0.025442
   6 C :   -0.040721
   7 H :    0.033866
   8 H :    0.026382
   9 C :   -0.021108
  10 H :    0.019142
  11 H :    0.023667
  12 C :   -0.061610
  13 H :    0.030177
  14 H :    0.015961
  15 H :    0.021943
  16 S :    0.423812
  17 C :   -0.182346
  18 C :   -0.069164
  19 C :   -0.066465
  20 C :   -0.199033
  21 H :    0.036253
  22 C :   -0.036146
  23 H :    0.033335
  24 H :    0.035825
  25 C :   -0.053334
  26 H :    0.034948
  27 H :    0.018401
  28 C :   -0.070881
  29 H :    0.037796
  30 H :    0.024296
  31 H :    0.022920
  32 H :    0.029897
  33 H :    0.021415

  Mayer bond orders larger than 0.100000
B(  0-S ,  1-C ) :   1.1395 B(  0-S ,  4-C ) :   1.1814 B(  1-C ,  2-C ) :   1.5642
B(  1-C ,  4-C ) :   0.1037 B(  1-C , 32-H ) :   0.9709 B(  2-C ,  3-C ) :   1.2781
B(  2-C ,  6-C ) :   1.0518 B(  3-C ,  4-C ) :   1.4991 B(  3-C ,  5-H ) :   0.9932
B(  4-C , 20-C ) :   1.0582 B(  6-C ,  7-H ) :   0.9346 B(  6-C ,  8-H ) :   0.9346
B(  6-C ,  9-C ) :   1.0472 B(  9-C , 10-H ) :   0.9648 B(  9-C , 11-H ) :   0.9543
B(  9-C , 12-C ) :   1.0867 B( 12-C , 13-H ) :   0.9717 B( 12-C , 14-H ) :   0.9737
B( 12-C , 15-H ) :   0.9777 B( 16-S , 17-C ) :   1.1572 B( 16-S , 20-C ) :   1.1474
B( 17-C , 18-C ) :   1.5999 B( 17-C , 33-H ) :   0.9717 B( 18-C , 19-C ) :   1.2396
B( 18-C , 21-H ) :   0.9854 B( 19-C , 20-C ) :   1.5995 B( 19-C , 22-C ) :   1.0288
B( 22-C , 23-H ) :   0.9273 B( 22-C , 24-H ) :   0.9295 B( 22-C , 25-C ) :   1.0795
B( 25-C , 26-H ) :   0.9585 B( 25-C , 27-H ) :   0.9542 B( 25-C , 28-C ) :   1.0674
B( 28-C , 29-H ) :   0.9747 B( 28-C , 30-H ) :   0.9743 B( 28-C , 31-H ) :   0.9764

Dispersion correction           -0.014113746
FINAL SINGLE POINT ENERGY     -1339.880905275290

DIPOLE MOMENT
-------------
                                X             Y             Z
Electronic contribution:     10.34600       5.12178      14.71791
Nuclear contribution   :    -10.54831      -5.17170     -14.91770
                        -----------------------------------------
Total Dipole Moment    :     -0.20230      -0.04992      -0.19978
                        -----------------------------------------
Magnitude (a.u.)       :      0.28867
Magnitude (Debye)      :      0.73375

Rotational constants in cm-1:     0.021900     0.007443     0.006901
Rotational constants in MHz :   656.555755   223.146122   206.878204

                             ****ORCA TERMINATED NORMALLY****
TOTAL RUN TIME: 0 days 0 hours 0 minutes 21 seconds 509 msec
