                         Program Version 4.2.1 -  RELEASE  -
|  1> ! wB97X-D3 SP def2-SVP
|  2> %pal
|  3> nprocs 24
|  4> end
|  5>
|  6> * xyz 0 1
|  7> S 	 -143.418 	 14.2199 	 -7.11238
|  8> C 	 -142.646 	 12.7085 	 -6.79106
|  9> C 	 -143.54 	 11.779 	 -6.24124
| 10> C 	 -144.841 	 12.32 	 -6.02984
| 11> C 	 -144.896 	 13.6303 	 -6.42541
| 12> H 	 -145.657 	 11.8145 	 -5.56569
| 13> C 	 -143.271 	 10.2996 	 -6.11228
| 14> H 	 -143.661 	 10.045 	 -5.15082
| 15> H 	 -142.201 	 10.1238 	 -5.97545
| 16> C 	 -143.749 	 9.53028 	 -7.3296
| 17> H 	 -143.637 	 8.46429 	 -7.0638
| 18> H 	 -144.841 	 9.54212 	 -7.5248
| 19> C 	 -142.953 	 9.83034 	 -8.63854
| 20> H 	 -143.123 	 8.92111 	 -9.25818
| 21> H 	 -143.344 	 10.6448 	 -9.18413
| 22> H 	 -141.847 	 10.003 	 -8.50006
| 23> S 	 -146.239 	 15.8972 	 -5.64726
| 24> C 	 -147.911 	 16.1189 	 -6.0609
| 25> C 	 -148.3 	 15.1414 	 -6.96714
| 26> C 	 -147.335 	 14.1128 	 -7.14857
| 27> C 	 -146.143 	 14.4365 	 -6.45519
| 28> H 	 -149.228 	 15.2748 	 -7.37394
| 29> C 	 -147.51 	 12.8078 	 -7.95407
| 30> H 	 -146.598 	 12.2206 	 -8.0945
| 31> H 	 -147.731 	 12.9169 	 -9.02814
| 32> C 	 -148.531 	 11.8453 	 -7.36353
| 33> H 	 -149.365 	 12.492 	 -7.26935
| 34> H 	 -148.307 	 11.6018 	 -6.32888
| 35> C 	 -148.889 	 10.6498 	 -8.32784
| 36> H 	 -149.119 	 11.0126 	 -9.34285
| 37> H 	 -149.806 	 10.183 	 -7.9796
| 38> H 	 -148.074 	 9.87393 	 -8.3446
| 39> H 	 -141.659 	 12.39 	 -7.10927
| 40> H 	 -148.459 	 17.0048 	 -5.73464
| 41> *
| 42>
| 43>                          ****END OF INPUT****

CARTESIAN COORDINATES (ANGSTROEM)
---------------------------------
  S    -143.418000   14.219900   -7.112380
  C    -142.646000   12.708500   -6.791060
  C    -143.540000   11.779000   -6.241240
  C    -144.841000   12.320000   -6.029840
  C    -144.896000   13.630300   -6.425410
  H    -145.657000   11.814500   -5.565690
  C    -143.271000   10.299600   -6.112280
  H    -143.661000   10.045000   -5.150820
  H    -142.201000   10.123800   -5.975450
  C    -143.749000    9.530280   -7.329600
  H    -143.637000    8.464290   -7.063800
  H    -144.841000    9.542120   -7.524800
  C    -142.953000    9.830340   -8.638540
  H    -143.123000    8.921110   -9.258180
  H    -143.344000   10.644800   -9.184130
  H    -141.847000   10.003000   -8.500060
  S    -146.239000   15.897200   -5.647260
  C    -147.911000   16.118900   -6.060900
  C    -148.300000   15.141400   -6.967140
  C    -147.335000   14.112800   -7.148570
  C    -146.143000   14.436500   -6.455190
  H    -149.228000   15.274800   -7.373940
  C    -147.510000   12.807800   -7.954070
  H    -146.598000   12.220600   -8.094500
  H    -147.731000   12.916900   -9.028140
  C    -148.531000   11.845300   -7.363530
  H    -149.365000   12.492000   -7.269350
  H    -148.307000   11.601800   -6.328880
  C    -148.889000   10.649800   -8.327840
  H    -149.119000   11.012600   -9.342850
  H    -149.806000   10.183000   -7.979600
  H    -148.074000    9.873930   -8.344600
  H    -141.659000   12.390000   -7.109270
  H    -148.459000   17.004800   -5.734640

 Total Charge           Charge          ....    0
 Multiplicity           Mult            ....    1
 Number of Electrons    NEL             ....  134
 Basis Dimension        Dim             ....  322

ORBITAL ENERGIES
----------------

  NO   OCC          E(Eh)            E(eV)
   0   2.0000     -88.967589     -2420.9312
   1   2.0000     -88.965194     -2420.8660
   2   2.0000     -10.325209      -280.9632
   3   2.0000     -10.322535      -280.8905
   4   2.0000     -10.315823      -280.7078
   5   2.0000     -10.309458      -280.5346
   6   2.0000     -10.307335      -280.4768
   7   2.0000     -10.295810      -280.1632
   8   2.0000     -10.293099      -280.0895
   9   2.0000     -10.291109      -280.0353
  10   2.0000     -10.288475      -279.9636
  11   2.0000     -10.288137      -279.9544
  12   2.0000     -10.288132      -279.9543
  13   2.0000     -10.287768      -279.9444
  14   2.0000     -10.283051      -279.8160
  15   2.0000     -10.281867      -279.7838
  16   2.0000      -8.082735      -219.9424
  17   2.0000      -8.081671      -219.9134
  18   2.0000      -6.041181      -164.3889
  19   2.0000      -6.039826      -164.3520
  20   2.0000      -6.037179      -164.2800
  21   2.0000      -6.035804      -164.2426
  22   2.0000      -6.033564      -164.1816
  23   2.0000      -6.032832      -164.1617
  24   2.0000      -1.011828       -27.5332
  25   2.0000      -0.988901       -26.9094
  26   2.0000      -0.911980       -24.8162
  27   2.0000      -0.906177       -24.6583
  28   2.0000      -0.865939       -23.5634
  29   2.0000      -0.850436       -23.1415
  30   2.0000      -0.845166       -22.9981
  31   2.0000      -0.813053       -22.1243
  32   2.0000      -0.783357       -21.3162
  33   2.0000      -0.771332       -20.9890
  34   2.0000      -0.705563       -19.1993
  35   2.0000      -0.699790       -19.0422
  36   2.0000      -0.692386       -18.8408
  37   2.0000      -0.662532       -18.0284
  38   2.0000      -0.639947       -17.4138
  39   2.0000      -0.624073       -16.9819
  40   2.0000      -0.602311       -16.3897
  41   2.0000      -0.568220       -15.4621
  42   2.0000      -0.559503       -15.2248
  43   2.0000      -0.551259       -15.0005
  44   2.0000      -0.539854       -14.6902
  45   2.0000      -0.519765       -14.1435
  46   2.0000      -0.515631       -14.0310
  47   2.0000      -0.511279       -13.9126
  48   2.0000      -0.504219       -13.7205
  49   2.0000      -0.490639       -13.3510
  50   2.0000      -0.490292       -13.3415
  51   2.0000      -0.478435       -13.0189
  52   2.0000      -0.470496       -12.8029
  53   2.0000      -0.464769       -12.6470
  54   2.0000      -0.460037       -12.5182
  55   2.0000      -0.451604       -12.2888
  56   2.0000      -0.448154       -12.1949
  57   2.0000      -0.444267       -12.0891
  58   2.0000      -0.440427       -11.9846
  59   2.0000      -0.426624       -11.6090
  60   2.0000      -0.422179       -11.4881
  61   2.0000      -0.409797       -11.1511
  62   2.0000      -0.404611       -11.0100
  63   2.0000      -0.343814        -9.3557
  64   2.0000      -0.331584        -9.0229
  65   2.0000      -0.327631        -8.9153
  66   2.0000      -0.294646        -8.0177
  67   0.0000       0.040732         1.1084
  68   0.0000       0.069116         1.8807
  69   0.0000       0.117488         3.1970
  70   0.0000       0.119642         3.2556
  71   0.0000       0.129589         3.5263

MULLIKEN ATOMIC CHARGES
-----------------------
   0 S :    0.127082
   1 C :   -0.108469
   2 C :   -0.122730
   3 C :    0.031068
   4 C :   -0.134833
   5 H :    0.005177
   6 C :    0.096319
   7 H :    0.015727
   8 H :    0.014785
   9 C :   -0.078135
  10 H :    0.027723
  11 H :    0.032802
  12 C :   -0.063124
  13 H :    0.039151
  14 H :    0.041756
  15 H :    0.038966
  16 S :    0.126958
  17 C :   -0.123674
  18 C :   -0.003098
  19 C :    0.015526
  20 C :   -0.182030
  21 H :   -0.012715
  22 C :    0.047050
  23 H :    0.019597
  24 H :    0.018650
  25 C :   -0.067378
  26 H :    0.008160
  27 H :    0.022935
  28 C :   -0.052650
  29 H :    0.034733
  30 H :    0.035183
  31 H :    0.045429
  32 H :    0.038320
  33 H :    0.065737
Sum of atomic charges:    0.0000000

LOEWDIN ATOMIC CHARGES
----------------------
   0 S :    0.424543
   1 C :   -0.214611
   2 C :   -0.060322
   3 C :   -0.057508
   4 C :   -0.193900
   5 H :    0.030232
   6 C :   -0.034583
   7 H :    0.027076
   8 H :    0.030024
   9 C :   -0.043295
  10 H :    0.025132
  11 H :    0.026927
  12 C :   -0.065955
  13 H :    0.033880
  14 H :    0.020312
  15 H :    0.029505
  16 S :    0.451661
  17 C :   -0.196701
  18 C :   -0.058398
  19 C :   -0.053453
  20 C :   -0.226828
  21 H :    0.017640
  22 C :   -0.040317
  23 H :    0.027131
  24 H :    0.030295
  25 C :   -0.040741
  26 H :    0.015766
  27 H :    0.020734
  28 C :   -0.065077
  29 H :    0.027762
  30 H :    0.026683
  31 H :    0.029138
  32 H :    0.025999
  33 H :    0.031246

  Mayer bond orders larger than 0.100000
B(  0-S ,  1-C ) :   1.1373 B(  0-S ,  4-C ) :   1.1748 B(  1-C ,  2-C ) :   1.6082
B(  1-C , 32-H ) :   0.9654 B(  2-C ,  3-C ) :   1.2403 B(  2-C ,  6-C ) :   1.0321
B(  3-C ,  4-C ) :   1.5629 B(  3-C ,  5-H ) :   1.0071 B(  4-C , 20-C ) :   0.9969
B(  6-C ,  7-H ) :   0.9338 B(  6-C ,  8-H ) :   0.9378 B(  6-C ,  9-C ) :   1.0705
B(  9-C , 10-H ) :   0.9587 B(  9-C , 11-H ) :   0.9544 B(  9-C , 12-C ) :   1.0595
B( 12-C , 13-H ) :   0.9739 B( 12-C , 14-H ) :   0.9769 B( 12-C , 15-H ) :   0.9759
B( 16-S , 17-C ) :   1.1741 B( 16-S , 20-C ) :   1.1993 B( 17-C , 18-C ) :   1.5631
B( 17-C , 20-C ) :   0.1037 B( 17-C , 33-H ) :   0.9703 B( 18-C , 19-C ) :   1.2595
B( 18-C , 21-H ) :   1.0105 B( 19-C , 20-C ) :   1.5403 B( 19-C , 22-C ) :   1.0365
B( 22-C , 23-H ) :   0.9328 B( 22-C , 24-H ) :   0.9374 B( 22-C , 25-C ) :   1.0514
B( 25-C , 26-H ) :   0.9591 B( 25-C , 27-H ) :   0.9535 B( 25-C , 28-C ) :   1.0698
B( 28-C , 29-H ) :   0.9726 B( 28-C , 30-H ) :   0.9754 B( 28-C , 31-H ) :   0.9777

Dispersion correction           -0.015472900
FINAL SINGLE POINT ENERGY     -1339.881220346479

DIPOLE MOMENT
-------------
                                X             Y             Z
Electronic contribution:      6.43794      28.60085      10.29421
Nuclear contribution   :     -6.76010     -29.16190     -10.51811
                        -----------------------------------------
Total Dipole Moment    :     -0.32217      -0.56105      -0.22390
                        -----------------------------------------
Magnitude (a.u.)       :      0.68462
Magnitude (Debye)      :      1.74016

Rotational constants in cm-1:     0.017773     0.010352     0.007178
Rotational constants in MHz :   532.829501   310.339446   215.203848

                             ****ORCA TERMINATED NORMALLY****
TOTAL RUN TIME: 0 days 0 hours 0 minutes 22 seconds 729 msec
