                         Program Version 4.2.1 -  RELEASE  -
|  1> ! wB97X-D3 SP def2-SVP
|  2> %pal
|  3> nprocs 24
|  4> end
|  5>
|  6> * xyz 0 1
|  7> S 	 -43.6677 	 -2.63922 	 -20.1974
|  8> C 	 -45.1735 	 -3.52409 	 -20.0789
|  9> C 	 -45.0253 	 -4.79463 	 -19.5472
| 10> C 	 -43.6509 	 -5.04106 	 -19.2278
| 11> C 	 -42.859 	 -3.93367 	 -19.5097
| 12> H 	 -43.293 	 -5.98305 	 -18.7839
| 13> C 	 -46.045 	 -5.85874 	 -19.3497
| 14> H 	 -46.6179 	 -5.66306 	 -18.5085
| 15> H 	 -45.5789 	 -6.74662 	 -18.9342
| 16> C 	 -46.9768 	 -6.08198 	 -20.5393
| 17> H 	 -47.7043 	 -6.87757 	 -20.3254
| 18> H 	 -47.5633 	 -5.12073 	 -20.5463
| 19> C 	 -46.226 	 -6.4452 	 -21.814
| 20> H 	 -45.8157 	 -7.44033 	 -21.5967
| 21> H 	 -46.8717 	 -6.44338 	 -22.6008
| 22> H 	 -45.4327 	 -5.76001 	 -22.1677
| 23> S 	 -40.3869 	 -3.31243 	 -20.6138
| 24> C 	 -39.0105 	 -3.5133 	 -19.5928
| 25> C 	 -39.3517 	 -3.85847 	 -18.3285
| 26> C 	 -40.7547 	 -4.04389 	 -18.0632
| 27> C 	 -41.4245 	 -3.84511 	 -19.2606
| 28> H 	 -38.572 	 -4.07358 	 -17.5965
| 29> C 	 -41.3141 	 -4.1189 	 -16.6593
| 30> H 	 -40.7502 	 -4.93589 	 -16.1781
| 31> H 	 -42.3367 	 -4.48434 	 -16.7511
| 32> C 	 -41.2158 	 -2.84762 	 -15.7576
| 33> H 	 -41.7852 	 -1.95136 	 -15.9906
| 34> H 	 -40.1547 	 -2.57952 	 -15.6603
| 35> C 	 -41.6248 	 -3.24495 	 -14.3539
| 36> H 	 -42.5976 	 -3.61828 	 -14.2316
| 37> H 	 -41.5334 	 -2.33797 	 -13.7536
| 38> H 	 -40.9617 	 -3.95195 	 -13.7747
| 39> H 	 -46.0831 	 -3.28012 	 -20.5239
| 40> H 	 -38.0463 	 -3.3445 	 -19.9756
| 41> *
| 42>
| 43>                          ****END OF INPUT****

CARTESIAN COORDINATES (ANGSTROEM)
---------------------------------
  S    -43.667700   -2.639220  -20.197400
  C    -45.173500   -3.524090  -20.078900
  C    -45.025300   -4.794630  -19.547200
  C    -43.650900   -5.041060  -19.227800
  C    -42.859000   -3.933670  -19.509700
  H    -43.293000   -5.983050  -18.783900
  C    -46.045000   -5.858740  -19.349700
  H    -46.617900   -5.663060  -18.508500
  H    -45.578900   -6.746620  -18.934200
  C    -46.976800   -6.081980  -20.539300
  H    -47.704300   -6.877570  -20.325400
  H    -47.563300   -5.120730  -20.546300
  C    -46.226000   -6.445200  -21.814000
  H    -45.815700   -7.440330  -21.596700
  H    -46.871700   -6.443380  -22.600800
  H    -45.432700   -5.760010  -22.167700
  S    -40.386900   -3.312430  -20.613800
  C    -39.010500   -3.513300  -19.592800
  C    -39.351700   -3.858470  -18.328500
  C    -40.754700   -4.043890  -18.063200
  C    -41.424500   -3.845110  -19.260600
  H    -38.572000   -4.073580  -17.596500
  C    -41.314100   -4.118900  -16.659300
  H    -40.750200   -4.935890  -16.178100
  H    -42.336700   -4.484340  -16.751100
  C    -41.215800   -2.847620  -15.757600
  H    -41.785200   -1.951360  -15.990600
  H    -40.154700   -2.579520  -15.660300
  C    -41.624800   -3.244950  -14.353900
  H    -42.597600   -3.618280  -14.231600
  H    -41.533400   -2.337970  -13.753600
  H    -40.961700   -3.951950  -13.774700
  H    -46.083100   -3.280120  -20.523900
  H    -38.046300   -3.344500  -19.975600

 Total Charge           Charge          ....    0
 Multiplicity           Mult            ....    1
 Number of Electrons    NEL             ....  134
 Basis Dimension        Dim             ....  322

ORBITAL ENERGIES
----------------

  NO   OCC          E(Eh)            E(eV)
   0   2.0000     -88.968120     -2420.9456
   1   2.0000     -88.961943     -2420.7775
   2   2.0000     -10.323559      -280.9183
   3   2.0000     -10.319061      -280.7959
   4   2.0000     -10.308318      -280.5036
   5   2.0000     -10.302731      -280.3516
   6   2.0000     -10.300251      -280.2841
   7   2.0000     -10.295682      -280.1597
   8   2.0000     -10.295490      -280.1545
   9   2.0000     -10.290940      -280.0307
  10   2.0000     -10.290649      -280.0228
  11   2.0000     -10.289845      -280.0009
  12   2.0000     -10.288645      -279.9683
  13   2.0000     -10.280764      -279.7538
  14   2.0000     -10.273944      -279.5682
  15   2.0000     -10.268865      -279.4300
  16   2.0000      -8.084002      -219.9769
  17   2.0000      -8.077073      -219.7883
  18   2.0000      -6.042394      -164.4219
  19   2.0000      -6.038371      -164.3124
  20   2.0000      -6.035526      -164.2350
  21   2.0000      -6.034806      -164.2154
  22   2.0000      -6.031713      -164.1313
  23   2.0000      -6.027700      -164.0221
  24   2.0000      -1.010093       -27.4860
  25   2.0000      -0.984898       -26.8004
  26   2.0000      -0.918825       -25.0025
  27   2.0000      -0.908518       -24.7220
  28   2.0000      -0.865245       -23.5445
  29   2.0000      -0.856738       -23.3130
  30   2.0000      -0.846279       -23.0284
  31   2.0000      -0.808637       -22.0041
  32   2.0000      -0.789738       -21.4899
  33   2.0000      -0.774363       -21.0715
  34   2.0000      -0.708011       -19.2660
  35   2.0000      -0.703859       -19.1530
  36   2.0000      -0.692612       -18.8469
  37   2.0000      -0.658796       -17.9268
  38   2.0000      -0.635611       -17.2959
  39   2.0000      -0.612092       -16.6559
  40   2.0000      -0.599072       -16.3016
  41   2.0000      -0.574561       -15.6346
  42   2.0000      -0.564806       -15.3692
  43   2.0000      -0.558386       -15.1945
  44   2.0000      -0.540865       -14.7177
  45   2.0000      -0.529174       -14.3996
  46   2.0000      -0.516172       -14.0457
  47   2.0000      -0.512168       -13.9368
  48   2.0000      -0.501962       -13.6591
  49   2.0000      -0.494514       -13.4564
  50   2.0000      -0.483889       -13.1673
  51   2.0000      -0.476099       -12.9553
  52   2.0000      -0.468191       -12.7401
  53   2.0000      -0.462484       -12.5848
  54   2.0000      -0.456891       -12.4326
  55   2.0000      -0.447827       -12.1860
  56   2.0000      -0.445541       -12.1238
  57   2.0000      -0.437575       -11.9070
  58   2.0000      -0.436535       -11.8787
  59   2.0000      -0.427149       -11.6233
  60   2.0000      -0.422562       -11.4985
  61   2.0000      -0.420165       -11.4333
  62   2.0000      -0.412625       -11.2281
  63   2.0000      -0.339197        -9.2300
  64   2.0000      -0.332520        -9.0483
  65   2.0000      -0.328505        -8.9391
  66   2.0000      -0.290196        -7.8966
  67   0.0000       0.036137         0.9833
  68   0.0000       0.075134         2.0445
  69   0.0000       0.108779         2.9600
  70   0.0000       0.127795         3.4775
  71   0.0000       0.133441         3.6311

MULLIKEN ATOMIC CHARGES
-----------------------
   0 S :    0.131760
   1 C :   -0.097290
   2 C :   -0.113318
   3 C :    0.013605
   4 C :   -0.155832
   5 H :    0.019786
   6 C :    0.127716
   7 H :    0.012000
   8 H :   -0.004631
   9 C :   -0.113101
  10 H :    0.032918
  11 H :    0.032255
  12 C :   -0.005945
  13 H :    0.032014
  14 H :    0.010170
  15 H :    0.047167
  16 S :    0.096046
  17 C :   -0.067947
  18 C :   -0.037020
  19 C :   -0.017207
  20 C :   -0.174764
  21 H :    0.016117
  22 C :    0.070902
  23 H :    0.025052
  24 H :    0.020743
  25 C :   -0.036020
  26 H :    0.045856
  27 H :    0.028237
  28 C :   -0.065864
  29 H :    0.023563
  30 H :    0.024958
  31 H :    0.029157
  32 H :    0.011038
  33 H :    0.037881
Sum of atomic charges:    0.0000000

LOEWDIN ATOMIC CHARGES
----------------------
   0 S :    0.445286
   1 C :   -0.203665
   2 C :   -0.050283
   3 C :   -0.069369
   4 C :   -0.217839
   5 H :    0.033836
   6 C :   -0.037563
   7 H :    0.027889
   8 H :    0.026702
   9 C :   -0.039201
  10 H :    0.027673
  11 H :    0.024699
  12 C :   -0.059562
  13 H :    0.031339
  14 H :    0.011657
  15 H :    0.033304
  16 S :    0.386856
  17 C :   -0.181181
  18 C :   -0.071478
  19 C :   -0.058343
  20 C :   -0.183971
  21 H :    0.029642
  22 C :   -0.030666
  23 H :    0.035953
  24 H :    0.029681
  25 C :   -0.030850
  26 H :    0.031365
  27 H :    0.028921
  28 C :   -0.069190
  29 H :    0.014739
  30 H :    0.027068
  31 H :    0.027586
  32 H :    0.010234
  33 H :    0.018732

  Mayer bond orders larger than 0.100000
B(  0-S ,  1-C ) :   1.1277 B(  0-S ,  4-C ) :   1.1912 B(  1-C ,  2-C ) :   1.6110
B(  1-C , 32-H ) :   0.9700 B(  2-C ,  3-C ) :   1.2571 B(  2-C ,  6-C ) :   1.0196
B(  3-C ,  4-C ) :   1.5471 B(  3-C ,  5-H ) :   0.9919 B(  4-C , 20-C ) :   1.0123
B(  6-C ,  7-H ) :   0.9178 B(  6-C ,  8-H ) :   0.9310 B(  6-C ,  9-C ) :   1.0726
B(  9-C , 10-H ) :   0.9542 B(  9-C , 11-H ) :   0.9533 B(  9-C , 12-C ) :   1.0733
B( 12-C , 13-H ) :   0.9735 B( 12-C , 14-H ) :   0.9726 B( 12-C , 15-H ) :   0.9723
B( 16-S , 17-C ) :   1.1339 B( 16-S , 20-C ) :   1.1396 B( 17-C , 18-C ) :   1.6356
B( 17-C , 33-H ) :   0.9764 B( 18-C , 19-C ) :   1.2040 B( 18-C , 21-H ) :   0.9865
B( 19-C , 20-C ) :   1.6204 B( 19-C , 22-C ) :   1.0531 B( 22-C , 23-H ) :   0.9303
B( 22-C , 24-H ) :   0.9258 B( 22-C , 25-C ) :   1.0636 B( 25-C , 26-H ) :   0.9586
B( 25-C , 27-H ) :   0.9498 B( 25-C , 28-C ) :   1.0819 B( 28-C , 29-H ) :   0.9766
B( 28-C , 30-H ) :   0.9720 B( 28-C , 31-H ) :   0.9741

Dispersion correction           -0.014188894
FINAL SINGLE POINT ENERGY     -1339.873225242722

DIPOLE MOMENT
-------------
                                X             Y             Z
Electronic contribution:     11.88062      10.96960     -14.77879
Nuclear contribution   :    -12.03641     -11.27501      15.24971
                        -----------------------------------------
Total Dipole Moment    :     -0.15579      -0.30542       0.47093
                        -----------------------------------------
Magnitude (a.u.)       :      0.58251
Magnitude (Debye)      :      1.48063

Rotational constants in cm-1:     0.019687     0.008287     0.006732
Rotational constants in MHz :   590.192199   248.423725   201.817908

                             ****ORCA TERMINATED NORMALLY****
TOTAL RUN TIME: 0 days 0 hours 0 minutes 21 seconds 490 msec
