                         Program Version 4.2.1 -  RELEASE  -
|  1> ! wB97X-D3 SP def2-SVP
|  2> %pal
|  3> nprocs 24
|  4> end
|  5>
|  6> * xyz 0 1
|  7> S 	 -70.2797 	 16.2113 	 -75.6038
|  8> C 	 -69.2221 	 16.6939 	 -74.3044
|  9> C 	 -68.3537 	 17.72 	 -74.6904
| 10> C 	 -68.5268 	 18.0957 	 -76.0468
| 11> C 	 -69.5956 	 17.4261 	 -76.6327
| 12> H 	 -67.9005 	 18.8245 	 -76.5879
| 13> C 	 -67.3195 	 18.4111 	 -73.7516
| 14> H 	 -66.3965 	 18.6858 	 -74.2786
| 15> H 	 -66.9945 	 17.696 	 -72.9806
| 16> C 	 -67.7825 	 19.7603 	 -73.0971
| 17> H 	 -67.1657 	 19.9963 	 -72.2906
| 18> H 	 -67.7173 	 20.5338 	 -73.8664
| 19> C 	 -69.1979 	 19.734 	 -72.5999
| 20> H 	 -69.2344 	 18.9366 	 -71.8471
| 21> H 	 -69.436 	 20.7627 	 -72.2353
| 22> H 	 -70.0052 	 19.4546 	 -73.3179
| 23> S 	 -70.1305 	 16.1566 	 -79.0759
| 24> C 	 -70.5459 	 17.1746 	 -80.4729
| 25> C 	 -70.4608 	 18.5073 	 -80.1374
| 26> C 	 -70.1826 	 18.7796 	 -78.7773
| 27> C 	 -70.0198 	 17.6169 	 -78.0099
| 28> H 	 -70.511 	 19.1897 	 -80.9569
| 29> C 	 -69.867 	 20.1482 	 -78.2606
| 30> H 	 -68.8325 	 20.3867 	 -78.4648
| 31> H 	 -69.9962 	 20.0841 	 -77.1665
| 32> C 	 -70.8416 	 21.2612 	 -78.6761
| 33> H 	 -71.8379 	 21.019 	 -78.2705
| 34> H 	 -70.9732 	 21.2977 	 -79.8046
| 35> C 	 -70.5048 	 22.7413 	 -78.1061
| 36> H 	 -69.427 	 22.925 	 -78.128
| 37> H 	 -70.8871 	 22.945 	 -77.1349
| 38> H 	 -71.0479 	 23.3838 	 -78.7263
| 39> H 	 -69.5363 	 16.3139 	 -73.3148
| 40> H 	 -70.7789 	 16.896 	 -81.5229
| 41> *
| 42>
| 43>                          ****END OF INPUT****

CARTESIAN COORDINATES (ANGSTROEM)
---------------------------------
  S    -70.279700   16.211300  -75.603800
  C    -69.222100   16.693900  -74.304400
  C    -68.353700   17.720000  -74.690400
  C    -68.526800   18.095700  -76.046800
  C    -69.595600   17.426100  -76.632700
  H    -67.900500   18.824500  -76.587900
  C    -67.319500   18.411100  -73.751600
  H    -66.396500   18.685800  -74.278600
  H    -66.994500   17.696000  -72.980600
  C    -67.782500   19.760300  -73.097100
  H    -67.165700   19.996300  -72.290600
  H    -67.717300   20.533800  -73.866400
  C    -69.197900   19.734000  -72.599900
  H    -69.234400   18.936600  -71.847100
  H    -69.436000   20.762700  -72.235300
  H    -70.005200   19.454600  -73.317900
  S    -70.130500   16.156600  -79.075900
  C    -70.545900   17.174600  -80.472900
  C    -70.460800   18.507300  -80.137400
  C    -70.182600   18.779600  -78.777300
  C    -70.019800   17.616900  -78.009900
  H    -70.511000   19.189700  -80.956900
  C    -69.867000   20.148200  -78.260600
  H    -68.832500   20.386700  -78.464800
  H    -69.996200   20.084100  -77.166500
  C    -70.841600   21.261200  -78.676100
  H    -71.837900   21.019000  -78.270500
  H    -70.973200   21.297700  -79.804600
  C    -70.504800   22.741300  -78.106100
  H    -69.427000   22.925000  -78.128000
  H    -70.887100   22.945000  -77.134900
  H    -71.047900   23.383800  -78.726300
  H    -69.536300   16.313900  -73.314800
  H    -70.778900   16.896000  -81.522900

 Total Charge           Charge          ....    0
 Multiplicity           Mult            ....    1
 Number of Electrons    NEL             ....  134
 Basis Dimension        Dim             ....  322

ORBITAL ENERGIES
----------------

  NO   OCC          E(Eh)            E(eV)
   0   2.0000     -88.969602     -2420.9860
   1   2.0000     -88.965131     -2420.8643
   2   2.0000     -10.330344      -281.1030
   3   2.0000     -10.330125      -281.0970
   4   2.0000     -10.320332      -280.8305
   5   2.0000     -10.319708      -280.8135
   6   2.0000     -10.309414      -280.5334
   7   2.0000     -10.302707      -280.3509
   8   2.0000     -10.298909      -280.2476
   9   2.0000     -10.297662      -280.2136
  10   2.0000     -10.296487      -280.1817
  11   2.0000     -10.290395      -280.0159
  12   2.0000     -10.289172      -279.9826
  13   2.0000     -10.282401      -279.7983
  14   2.0000     -10.277361      -279.6612
  15   2.0000     -10.277339      -279.6606
  16   2.0000      -8.084867      -220.0004
  17   2.0000      -8.078416      -219.8249
  18   2.0000      -6.043198      -164.4438
  19   2.0000      -6.039254      -164.3364
  20   2.0000      -6.037137      -164.2789
  21   2.0000      -6.035832      -164.2433
  22   2.0000      -6.033177      -164.1711
  23   2.0000      -6.028982      -164.0569
  24   2.0000      -1.005815       -27.3696
  25   2.0000      -0.979738       -26.6600
  26   2.0000      -0.909096       -24.7378
  27   2.0000      -0.901879       -24.5414
  28   2.0000      -0.868172       -23.6242
  29   2.0000      -0.853340       -23.2206
  30   2.0000      -0.841823       -22.9072
  31   2.0000      -0.810753       -22.0617
  32   2.0000      -0.783563       -21.3218
  33   2.0000      -0.772243       -21.0138
  34   2.0000      -0.705953       -19.2100
  35   2.0000      -0.696752       -18.9596
  36   2.0000      -0.691766       -18.8239
  37   2.0000      -0.652945       -17.7675
  38   2.0000      -0.641450       -17.4547
  39   2.0000      -0.620126       -16.8745
  40   2.0000      -0.590911       -16.0795
  41   2.0000      -0.565445       -15.3865
  42   2.0000      -0.561993       -15.2926
  43   2.0000      -0.556857       -15.1529
  44   2.0000      -0.542611       -14.7652
  45   2.0000      -0.527931       -14.3657
  46   2.0000      -0.517226       -14.0744
  47   2.0000      -0.512485       -13.9454
  48   2.0000      -0.497825       -13.5465
  49   2.0000      -0.493545       -13.4300
  50   2.0000      -0.491693       -13.3796
  51   2.0000      -0.479416       -13.0456
  52   2.0000      -0.472317       -12.8524
  53   2.0000      -0.462701       -12.5907
  54   2.0000      -0.456478       -12.4214
  55   2.0000      -0.453565       -12.3421
  56   2.0000      -0.446696       -12.1552
  57   2.0000      -0.432119       -11.7585
  58   2.0000      -0.429795       -11.6953
  59   2.0000      -0.425298       -11.5729
  60   2.0000      -0.419101       -11.4043
  61   2.0000      -0.413327       -11.2472
  62   2.0000      -0.410851       -11.1798
  63   2.0000      -0.348216        -9.4755
  64   2.0000      -0.335496        -9.1293
  65   2.0000      -0.329772        -8.9736
  66   2.0000      -0.288556        -7.8520
  67   0.0000       0.023984         0.6526
  68   0.0000       0.067673         1.8415
  69   0.0000       0.106068         2.8863
  70   0.0000       0.120009         3.2656
  71   0.0000       0.126041         3.4298

MULLIKEN ATOMIC CHARGES
-----------------------
   0 S :    0.119186
   1 C :   -0.152186
   2 C :   -0.071179
   3 C :    0.013030
   4 C :   -0.166220
   5 H :    0.028760
   6 C :    0.045188
   7 H :    0.029843
   8 H :    0.030615
   9 C :   -0.041579
  10 H :    0.024733
  11 H :    0.022313
  12 C :   -0.079539
  13 H :    0.021542
  14 H :    0.040232
  15 H :    0.051215
  16 S :    0.090147
  17 C :   -0.101538
  18 C :   -0.041673
  19 C :   -0.018816
  20 C :   -0.139015
  21 H :    0.011108
  22 C :    0.060756
  23 H :    0.042661
  24 H :    0.038126
  25 C :   -0.140568
  26 H :    0.036078
  27 H :    0.038788
  28 C :   -0.010830
  29 H :    0.033293
  30 H :    0.028443
  31 H :    0.020175
  32 H :    0.070255
  33 H :    0.066656
Sum of atomic charges:   -0.0000000

LOEWDIN ATOMIC CHARGES
----------------------
   0 S :    0.423870
   1 C :   -0.204156
   2 C :   -0.059638
   3 C :   -0.060325
   4 C :   -0.202445
   5 H :    0.038991
   6 C :   -0.032310
   7 H :    0.032103
   8 H :    0.029888
   9 C :   -0.035940
  10 H :    0.019567
  11 H :    0.020681
  12 C :   -0.072603
  13 H :    0.021408
  14 H :    0.030284
  15 H :    0.029665
  16 S :    0.366716
  17 C :   -0.182592
  18 C :   -0.073156
  19 C :   -0.057884
  20 C :   -0.177488
  21 H :    0.027609
  22 C :   -0.039726
  23 H :    0.028624
  24 H :    0.037308
  25 C :   -0.041063
  26 H :    0.027785
  27 H :    0.022841
  28 C :   -0.057215
  29 H :    0.025087
  30 H :    0.021541
  31 H :    0.020657
  32 H :    0.031024
  33 H :    0.040890

  Mayer bond orders larger than 0.100000
B(  0-S ,  1-C ) :   1.1511 B(  0-S ,  4-C ) :   1.1759 B(  1-C ,  2-C ) :   1.5708
B(  1-C ,  4-C ) :   0.1006 B(  1-C , 32-H ) :   0.9673 B(  2-C ,  3-C ) :   1.2630
B(  2-C ,  6-C ) :   1.0227 B(  3-C ,  4-C ) :   1.5279 B(  3-C ,  5-H ) :   0.9925
B(  4-C , 20-C ) :   1.0513 B(  6-C ,  7-H ) :   0.9475 B(  6-C ,  8-H ) :   0.9454
B(  6-C ,  9-C ) :   1.0639 B(  9-C , 10-H ) :   0.9553 B(  9-C , 11-H ) :   0.9561
B(  9-C , 12-C ) :   1.0908 B( 12-C , 13-H ) :   0.9763 B( 12-C , 14-H ) :   0.9723
B( 12-C , 15-H ) :   0.9674 B( 16-S , 17-C ) :   1.1349 B( 16-S , 20-C ) :   1.1246
B( 17-C , 18-C ) :   1.6394 B( 17-C , 20-C ) :   0.1020 B( 17-C , 33-H ) :   0.9594
B( 18-C , 19-C ) :   1.2248 B( 18-C , 21-H ) :   0.9904 B( 19-C , 20-C ) :   1.5941
B( 19-C , 22-C ) :   1.0500 B( 22-C , 23-H ) :   0.9316 B( 22-C , 24-H ) :   0.9298
B( 22-C , 25-C ) :   1.0557 B( 25-C , 26-H ) :   0.9583 B( 25-C , 27-H ) :   0.9622
B( 25-C , 28-C ) :   1.0670 B( 28-C , 29-H ) :   0.9794 B( 28-C , 30-H ) :   0.9785
B( 28-C , 31-H ) :   0.9756

Dispersion correction           -0.014395598
FINAL SINGLE POINT ENERGY     -1339.878224665094

DIPOLE MOMENT
-------------
                                X             Y             Z
Electronic contribution:     -4.36685     -28.22859     -10.91824
Nuclear contribution   :      4.63259      28.94127      11.05103
                        -----------------------------------------
Total Dipole Moment    :      0.26574       0.71268       0.13279
                        -----------------------------------------
Magnitude (a.u.)       :      0.77212
Magnitude (Debye)      :      1.96257

Rotational constants in cm-1:     0.016565     0.009771     0.006692
Rotational constants in MHz :   496.617679   292.927919   200.629319

                             ****ORCA TERMINATED NORMALLY****
TOTAL RUN TIME: 0 days 0 hours 0 minutes 21 seconds 894 msec
