                         Program Version 4.2.1 -  RELEASE  -
|  1> ! wB97X-D3 SP def2-SVP
|  2> %pal
|  3> nprocs 24
|  4> end
|  5>
|  6> * xyz 0 1
|  7> S 	 -55.483 	 15.5889 	 29.0908
|  8> C 	 -56.3784 	 14.2541 	 28.5154
|  9> C 	 -55.5483 	 13.2297 	 28.1217
| 10> C 	 -54.1247 	 13.5899 	 28.2661
| 11> C 	 -53.9118 	 14.8792 	 28.7772
| 12> H 	 -53.2617 	 12.9631 	 28.0535
| 13> C 	 -56.0986 	 11.8627 	 27.7423
| 14> H 	 -55.3202 	 11.1561 	 27.8795
| 15> H 	 -56.3729 	 11.8968 	 26.7309
| 16> C 	 -57.33 	 11.3696 	 28.5514
| 17> H 	 -57.1905 	 11.6848 	 29.6244
| 18> H 	 -58.1894 	 11.8925 	 28.1682
| 19> C 	 -57.4581 	 9.86361 	 28.3023
| 20> H 	 -58.3117 	 9.32606 	 28.8016
| 21> H 	 -57.6166 	 9.67105 	 27.2158
| 22> H 	 -56.5996 	 9.36216 	 28.5845
| 23> S 	 -51.3622 	 14.9447 	 29.5902
| 24> C 	 -50.4008 	 16.3353 	 29.1991
| 25> C 	 -50.9704 	 17.045 	 28.172
| 26> C 	 -52.3065 	 16.6094 	 27.8986
| 27> C 	 -52.72 	 15.6064 	 28.701
| 28> H 	 -50.4158 	 17.7645 	 27.6548
| 29> C 	 -53.2372 	 17.2251 	 26.817
| 30> H 	 -53.9503 	 16.4272 	 26.493
| 31> H 	 -52.6148 	 17.4581 	 25.9441
| 32> C 	 -54.0678 	 18.4948 	 27.1145
| 33> H 	 -54.5537 	 18.2688 	 28.0466
| 34> H 	 -54.8489 	 18.6499 	 26.39
| 35> C 	 -53.1257 	 19.7044 	 27.1506
| 36> H 	 -53.6437 	 20.6815 	 27.2063
| 37> H 	 -52.5554 	 19.7073 	 26.2355
| 38> H 	 -52.3854 	 19.7439 	 28.0185
| 39> H 	 -57.4835 	 14.2432 	 28.6447
| 40> H 	 -49.3264 	 16.3793 	 29.195
| 41> *
| 42>
| 43>                          ****END OF INPUT****

CARTESIAN COORDINATES (ANGSTROEM)
---------------------------------
  S    -55.483000   15.588900   29.090800
  C    -56.378400   14.254100   28.515400
  C    -55.548300   13.229700   28.121700
  C    -54.124700   13.589900   28.266100
  C    -53.911800   14.879200   28.777200
  H    -53.261700   12.963100   28.053500
  C    -56.098600   11.862700   27.742300
  H    -55.320200   11.156100   27.879500
  H    -56.372900   11.896800   26.730900
  C    -57.330000   11.369600   28.551400
  H    -57.190500   11.684800   29.624400
  H    -58.189400   11.892500   28.168200
  C    -57.458100    9.863610   28.302300
  H    -58.311700    9.326060   28.801600
  H    -57.616600    9.671050   27.215800
  H    -56.599600    9.362160   28.584500
  S    -51.362200   14.944700   29.590200
  C    -50.400800   16.335300   29.199100
  C    -50.970400   17.045000   28.172000
  C    -52.306500   16.609400   27.898600
  C    -52.720000   15.606400   28.701000
  H    -50.415800   17.764500   27.654800
  C    -53.237200   17.225100   26.817000
  H    -53.950300   16.427200   26.493000
  H    -52.614800   17.458100   25.944100
  C    -54.067800   18.494800   27.114500
  H    -54.553700   18.268800   28.046600
  H    -54.848900   18.649900   26.390000
  C    -53.125700   19.704400   27.150600
  H    -53.643700   20.681500   27.206300
  H    -52.555400   19.707300   26.235500
  H    -52.385400   19.743900   28.018500
  H    -57.483500   14.243200   28.644700
  H    -49.326400   16.379300   29.195000

 Total Charge           Charge          ....    0
 Multiplicity           Mult            ....    1
 Number of Electrons    NEL             ....  134
 Basis Dimension        Dim             ....  322

ORBITAL ENERGIES
----------------

  NO   OCC          E(Eh)            E(eV)
   0   2.0000     -88.965464     -2420.8734
   1   2.0000     -88.962378     -2420.7894
   2   2.0000     -10.327399      -281.0228
   3   2.0000     -10.319442      -280.8063
   4   2.0000     -10.316151      -280.7167
   5   2.0000     -10.309764      -280.5429
   6   2.0000     -10.307194      -280.4730
   7   2.0000     -10.304268      -280.3934
   8   2.0000     -10.301280      -280.3121
   9   2.0000     -10.292727      -280.0793
  10   2.0000     -10.290749      -280.0255
  11   2.0000     -10.290377      -280.0154
  12   2.0000     -10.286398      -279.9071
  13   2.0000     -10.281376      -279.7705
  14   2.0000     -10.280114      -279.7361
  15   2.0000     -10.278321      -279.6873
  16   2.0000      -8.080583      -219.8839
  17   2.0000      -8.077626      -219.8034
  18   2.0000      -6.039085      -164.3319
  19   2.0000      -6.036181      -164.2528
  20   2.0000      -6.034770      -164.2144
  21   2.0000      -6.032275      -164.1466
  22   2.0000      -6.031588      -164.1279
  23   2.0000      -6.028086      -164.0325
  24   2.0000      -1.014063       -27.5941
  25   2.0000      -0.988116       -26.8880
  26   2.0000      -0.916116       -24.9288
  27   2.0000      -0.902205       -24.5503
  28   2.0000      -0.880876       -23.9699
  29   2.0000      -0.848477       -23.0882
  30   2.0000      -0.843401       -22.9501
  31   2.0000      -0.816337       -22.2137
  32   2.0000      -0.779231       -21.2040
  33   2.0000      -0.768503       -20.9120
  34   2.0000      -0.712731       -19.3944
  35   2.0000      -0.706725       -19.2310
  36   2.0000      -0.691284       -18.8108
  37   2.0000      -0.667401       -18.1609
  38   2.0000      -0.647173       -17.6105
  39   2.0000      -0.607166       -16.5218
  40   2.0000      -0.589132       -16.0311
  41   2.0000      -0.577152       -15.7051
  42   2.0000      -0.573824       -15.6145
  43   2.0000      -0.545401       -14.8411
  44   2.0000      -0.544889       -14.8272
  45   2.0000      -0.523180       -14.2365
  46   2.0000      -0.517189       -14.0734
  47   2.0000      -0.514314       -13.9952
  48   2.0000      -0.510801       -13.8996
  49   2.0000      -0.492617       -13.4048
  50   2.0000      -0.486477       -13.2377
  51   2.0000      -0.477872       -13.0036
  52   2.0000      -0.475716       -12.9449
  53   2.0000      -0.468108       -12.7379
  54   2.0000      -0.455821       -12.4035
  55   2.0000      -0.452703       -12.3187
  56   2.0000      -0.438749       -11.9390
  57   2.0000      -0.432833       -11.7780
  58   2.0000      -0.431563       -11.7434
  59   2.0000      -0.427916       -11.6442
  60   2.0000      -0.422547       -11.4981
  61   2.0000      -0.417916       -11.3721
  62   2.0000      -0.409987       -11.1563
  63   2.0000      -0.347812        -9.4644
  64   2.0000      -0.330393        -8.9905
  65   2.0000      -0.323932        -8.8146
  66   2.0000      -0.300916        -8.1884
  67   0.0000       0.030827         0.8389
  68   0.0000       0.063247         1.7211
  69   0.0000       0.101630         2.7655
  70   0.0000       0.121419         3.3040
  71   0.0000       0.136144         3.7047

MULLIKEN ATOMIC CHARGES
-----------------------
   0 S :    0.115139
   1 C :   -0.148232
   2 C :   -0.102230
   3 C :    0.039021
   4 C :   -0.175921
   5 H :    0.019315
   6 C :    0.095328
   7 H :    0.009998
   8 H :    0.030534
   9 C :   -0.097573
  10 H :    0.049620
  11 H :    0.028792
  12 C :   -0.040917
  13 H :    0.040901
  14 H :    0.029983
  15 H :    0.019421
  16 S :    0.093938
  17 C :   -0.049597
  18 C :   -0.051094
  19 C :   -0.008813
  20 C :   -0.163521
  21 H :    0.001253
  22 C :    0.014163
  23 H :    0.040933
  24 H :    0.016659
  25 C :   -0.000605
  26 H :    0.017382
  27 H :    0.029438
  28 C :   -0.082728
  29 H :    0.034180
  30 H :    0.018277
  31 H :    0.046878
  32 H :    0.074152
  33 H :    0.055928
Sum of atomic charges:    0.0000000

LOEWDIN ATOMIC CHARGES
----------------------
   0 S :    0.433020
   1 C :   -0.214016
   2 C :   -0.065573
   3 C :   -0.054505
   4 C :   -0.206784
   5 H :    0.030401
   6 C :   -0.024219
   7 H :    0.023446
   8 H :    0.028422
   9 C :   -0.039132
  10 H :    0.030462
  11 H :    0.018783
  12 C :   -0.064429
  13 H :    0.032020
  14 H :    0.031154
  15 H :    0.013533
  16 S :    0.407712
  17 C :   -0.196386
  18 C :   -0.057148
  19 C :   -0.053757
  20 C :   -0.194736
  21 H :    0.022247
  22 C :   -0.033867
  23 H :    0.033905
  24 H :    0.025187
  25 C :   -0.036228
  26 H :    0.014073
  27 H :    0.025576
  28 C :   -0.075070
  29 H :    0.026227
  30 H :    0.018530
  31 H :    0.033062
  32 H :    0.038161
  33 H :    0.029929

  Mayer bond orders larger than 0.100000
B(  0-S ,  1-C ) :   1.1609 B(  0-S ,  4-C ) :   1.1531 B(  1-C ,  2-C ) :   1.5860
B(  1-C , 32-H ) :   0.9637 B(  2-C ,  3-C ) :   1.2576 B(  2-C ,  6-C ) :   1.0141
B(  3-C ,  4-C ) :   1.5577 B(  3-C ,  5-H ) :   0.9893 B(  4-C , 20-C ) :   1.0346
B(  6-C ,  7-H ) :   0.9514 B(  6-C ,  8-H ) :   0.9258 B(  6-C ,  9-C ) :   1.0634
B(  9-C , 10-H ) :   0.9641 B(  9-C , 11-H ) :   0.9481 B(  9-C , 12-C ) :   1.0807
B( 12-C , 13-H ) :   0.9736 B( 12-C , 14-H ) :   0.9711 B( 12-C , 15-H ) :   0.9779
B( 16-S , 17-C ) :   1.1466 B( 16-S , 20-C ) :   1.1293 B( 17-C , 18-C ) :   1.6282
B( 17-C , 33-H ) :   0.9552 B( 18-C , 19-C ) :   1.2279 B( 18-C , 21-H ) :   0.9981
B( 19-C , 20-C ) :   1.6170 B( 19-C , 22-C ) :   1.0382 B( 22-C , 23-H ) :   0.9314
B( 22-C , 24-H ) :   0.9396 B( 22-C , 25-C ) :   1.0715 B( 25-C , 26-H ) :   0.9481
B( 25-C , 27-H ) :   0.9531 B( 25-C , 28-C ) :   1.0716 B( 28-C , 29-H ) :   0.9737
B( 28-C , 30-H ) :   0.9752 B( 28-C , 31-H ) :   0.9746

Dispersion correction           -0.014527215
FINAL SINGLE POINT ENERGY     -1339.870173414396

DIPOLE MOMENT
-------------
                                X             Y             Z
Electronic contribution:     11.95486       3.29646      10.79693
Nuclear contribution   :    -12.16955      -3.59183     -11.37759
                        -----------------------------------------
Total Dipole Moment    :     -0.21469      -0.29537      -0.58066
                        -----------------------------------------
Magnitude (a.u.)       :      0.68593
Magnitude (Debye)      :      1.74350

Rotational constants in cm-1:     0.024799     0.007295     0.006094
Rotational constants in MHz :   743.465488   218.697155   182.694899

                             ****ORCA TERMINATED NORMALLY****
TOTAL RUN TIME: 0 days 0 hours 0 minutes 20 seconds 411 msec
