                         Program Version 4.2.1 -  RELEASE  -
|  1> ! wB97X-D3 SP def2-SVP
|  2> %pal
|  3> nprocs 24
|  4> end
|  5>
|  6> * xyz 0 1
|  7> S 	 -144.254 	 5.69686 	 1.18718
|  8> C 	 -143.007 	 5.69507 	 -0.0734996
|  9> C 	 -141.728 	 5.60499 	 0.498378
| 10> C 	 -141.793 	 5.58779 	 1.95191
| 11> C 	 -143.122 	 5.65141 	 2.47974
| 12> H 	 -140.997 	 5.57703 	 2.68259
| 13> C 	 -140.416 	 5.70268 	 -0.23555
| 14> H 	 -140.646 	 6.42442 	 -1.01001
| 15> H 	 -140.053 	 4.76526 	 -0.764718
| 16> C 	 -139.184 	 6.28498 	 0.530544
| 17> H 	 -139.326 	 7.0384 	 1.37629
| 18> H 	 -138.709 	 5.4189 	 0.962223
| 19> C 	 -138.096 	 6.87116 	 -0.459056
| 20> H 	 -138.357 	 7.92535 	 -0.725902
| 21> H 	 -137.099 	 6.59333 	 -0.077534
| 22> H 	 -138.016 	 6.35187 	 -1.34432
| 23> S 	 -144.674 	 7.09598 	 4.3284
| 24> C 	 -144.628 	 6.60913 	 6.04396
| 25> C 	 -143.748 	 5.60884 	 6.27531
| 26> C 	 -142.976 	 5.29281 	 5.08781
| 27> C 	 -143.518 	 5.80628 	 3.89555
| 28> H 	 -143.696 	 5.24371 	 7.30673
| 29> C 	 -141.97 	 4.12842 	 5.16529
| 30> H 	 -141.653 	 3.86195 	 4.0671
| 31> H 	 -142.352 	 3.23145 	 5.63553
| 32> C 	 -140.626 	 4.54189 	 5.86145
| 33> H 	 -140.72 	 4.45115 	 6.9475
| 34> H 	 -140.489 	 5.63265 	 5.83488
| 35> C 	 -139.487 	 3.69212 	 5.45974
| 36> H 	 -138.678 	 3.79394 	 6.21029
| 37> H 	 -138.988 	 4.00506 	 4.57763
| 38> H 	 -139.683 	 2.65701 	 5.53763
| 39> H 	 -143.206 	 5.83728 	 -1.15412
| 40> H 	 -145.272 	 7.01669 	 6.77072
| 41> *
| 42>
| 43>                          ****END OF INPUT****

CARTESIAN COORDINATES (ANGSTROEM)
---------------------------------
  S    -144.254000    5.696860    1.187180
  C    -143.007000    5.695070   -0.073500
  C    -141.728000    5.604990    0.498378
  C    -141.793000    5.587790    1.951910
  C    -143.122000    5.651410    2.479740
  H    -140.997000    5.577030    2.682590
  C    -140.416000    5.702680   -0.235550
  H    -140.646000    6.424420   -1.010010
  H    -140.053000    4.765260   -0.764718
  C    -139.184000    6.284980    0.530544
  H    -139.326000    7.038400    1.376290
  H    -138.709000    5.418900    0.962223
  C    -138.096000    6.871160   -0.459056
  H    -138.357000    7.925350   -0.725902
  H    -137.099000    6.593330   -0.077534
  H    -138.016000    6.351870   -1.344320
  S    -144.674000    7.095980    4.328400
  C    -144.628000    6.609130    6.043960
  C    -143.748000    5.608840    6.275310
  C    -142.976000    5.292810    5.087810
  C    -143.518000    5.806280    3.895550
  H    -143.696000    5.243710    7.306730
  C    -141.970000    4.128420    5.165290
  H    -141.653000    3.861950    4.067100
  H    -142.352000    3.231450    5.635530
  C    -140.626000    4.541890    5.861450
  H    -140.720000    4.451150    6.947500
  H    -140.489000    5.632650    5.834880
  C    -139.487000    3.692120    5.459740
  H    -138.678000    3.793940    6.210290
  H    -138.988000    4.005060    4.577630
  H    -139.683000    2.657010    5.537630
  H    -143.206000    5.837280   -1.154120
  H    -145.272000    7.016690    6.770720

 Total Charge           Charge          ....    0
 Multiplicity           Mult            ....    1
 Number of Electrons    NEL             ....  134
 Basis Dimension        Dim             ....  322

ORBITAL ENERGIES
----------------

  NO   OCC          E(Eh)            E(eV)
   0   2.0000     -88.969777     -2420.9907
   1   2.0000     -88.962988     -2420.8060
   2   2.0000     -10.336812      -281.2790
   3   2.0000     -10.335140      -281.2335
   4   2.0000     -10.321753      -280.8692
   5   2.0000     -10.314738      -280.6783
   6   2.0000     -10.310721      -280.5690
   7   2.0000     -10.310686      -280.5680
   8   2.0000     -10.300045      -280.2785
   9   2.0000     -10.300010      -280.2775
  10   2.0000     -10.297312      -280.2041
  11   2.0000     -10.296370      -280.1785
  12   2.0000     -10.295895      -280.1656
  13   2.0000     -10.283272      -279.8221
  14   2.0000     -10.280336      -279.7422
  15   2.0000     -10.271142      -279.4920
  16   2.0000      -8.084162      -219.9812
  17   2.0000      -8.076983      -219.7859
  18   2.0000      -6.042721      -164.4308
  19   2.0000      -6.038460      -164.3148
  20   2.0000      -6.035680      -164.2392
  21   2.0000      -6.035165      -164.2252
  22   2.0000      -6.031677      -164.1303
  23   2.0000      -6.027492      -164.0164
  24   2.0000      -0.999531       -27.1986
  25   2.0000      -0.978046       -26.6140
  26   2.0000      -0.907625       -24.6977
  27   2.0000      -0.905617       -24.6431
  28   2.0000      -0.868001       -23.6195
  29   2.0000      -0.849668       -23.1206
  30   2.0000      -0.842686       -22.9306
  31   2.0000      -0.813503       -22.1365
  32   2.0000      -0.780329       -21.2338
  33   2.0000      -0.769457       -20.9380
  34   2.0000      -0.712050       -19.3759
  35   2.0000      -0.696699       -18.9581
  36   2.0000      -0.691049       -18.8044
  37   2.0000      -0.655787       -17.8449
  38   2.0000      -0.638548       -17.3758
  39   2.0000      -0.615317       -16.7436
  40   2.0000      -0.594314       -16.1721
  41   2.0000      -0.574091       -15.6218
  42   2.0000      -0.565424       -15.3860
  43   2.0000      -0.563228       -15.3262
  44   2.0000      -0.526250       -14.3200
  45   2.0000      -0.519593       -14.1389
  46   2.0000      -0.513749       -13.9798
  47   2.0000      -0.509999       -13.8778
  48   2.0000      -0.505147       -13.7457
  49   2.0000      -0.500226       -13.6118
  50   2.0000      -0.496094       -13.4994
  51   2.0000      -0.478840       -13.0299
  52   2.0000      -0.474520       -12.9124
  53   2.0000      -0.464343       -12.6354
  54   2.0000      -0.457155       -12.4398
  55   2.0000      -0.446244       -12.1429
  56   2.0000      -0.439821       -11.9681
  57   2.0000      -0.432606       -11.7718
  58   2.0000      -0.430881       -11.7249
  59   2.0000      -0.419778       -11.4227
  60   2.0000      -0.417370       -11.3572
  61   2.0000      -0.413818       -11.2606
  62   2.0000      -0.404379       -11.0037
  63   2.0000      -0.350011        -9.5243
  64   2.0000      -0.330327        -8.9886
  65   2.0000      -0.327644        -8.9156
  66   2.0000      -0.289206        -7.8697
  67   0.0000       0.021851         0.5946
  68   0.0000       0.074184         2.0186
  69   0.0000       0.115302         3.1375
  70   0.0000       0.117439         3.1957
  71   0.0000       0.121531         3.3070

MULLIKEN ATOMIC CHARGES
-----------------------
   0 S :    0.117452
   1 C :   -0.141108
   2 C :   -0.067303
   3 C :    0.027340
   4 C :   -0.158884
   5 H :    0.011169
   6 C :    0.040554
   7 H :    0.026526
   8 H :    0.058224
   9 C :   -0.123672
  10 H :    0.058585
  11 H :    0.026185
  12 C :   -0.036141
  13 H :    0.056011
  14 H :    0.030260
  15 H :    0.000795
  16 S :    0.082490
  17 C :   -0.076610
  18 C :   -0.021227
  19 C :   -0.030674
  20 C :   -0.115749
  21 H :    0.033731
  22 C :   -0.006708
  23 H :    0.041742
  24 H :    0.040176
  25 C :   -0.088525
  26 H :    0.015677
  27 H :    0.030529
  28 C :   -0.009140
  29 H :    0.015739
  30 H :    0.029604
  31 H :    0.025874
  32 H :    0.065144
  33 H :    0.041937
Sum of atomic charges:   -0.0000000

LOEWDIN ATOMIC CHARGES
----------------------
   0 S :    0.421878
   1 C :   -0.202962
   2 C :   -0.060503
   3 C :   -0.063809
   4 C :   -0.206871
   5 H :    0.026925
   6 C :   -0.040829
   7 H :    0.030283
   8 H :    0.043823
   9 C :   -0.047076
  10 H :    0.034964
  11 H :    0.019512
  12 C :   -0.068480
  13 H :    0.034555
  14 H :    0.034017
  15 H :    0.011610
  16 S :    0.367781
  17 C :   -0.160386
  18 C :   -0.071329
  19 C :   -0.055814
  20 C :   -0.183539
  21 H :    0.040687
  22 C :   -0.035544
  23 H :    0.037333
  24 H :    0.028234
  25 C :   -0.053159
  26 H :    0.021934
  27 H :    0.026428
  28 C :   -0.064613
  29 H :    0.031701
  30 H :    0.021006
  31 H :    0.024316
  32 H :    0.037539
  33 H :    0.020388

  Mayer bond orders larger than 0.100000
B(  0-S ,  1-C ) :   1.1437 B(  0-S ,  4-C ) :   1.1753 B(  1-C ,  2-C ) :   1.5859
B(  1-C , 32-H ) :   0.9682 B(  2-C ,  3-C ) :   1.2639 B(  2-C ,  6-C ) :   1.0070
B(  3-C ,  4-C ) :   1.5241 B(  3-C ,  5-H ) :   0.9871 B(  4-C , 20-C ) :   1.0504
B(  6-C ,  7-H ) :   0.9535 B(  6-C ,  8-H ) :   0.9306 B(  6-C ,  9-C ) :   1.0631
B(  9-C , 10-H ) :   0.9616 B(  9-C , 11-H ) :   0.9543 B(  9-C , 12-C ) :   1.0797
B( 12-C , 13-H ) :   0.9768 B( 12-C , 14-H ) :   0.9724 B( 12-C , 15-H ) :   0.9702
B( 16-S , 17-C ) :   1.1309 B( 16-S , 20-C ) :   1.1206 B( 17-C , 18-C ) :   1.6617
B( 17-C , 33-H ) :   0.9696 B( 18-C , 19-C ) :   1.1840 B( 18-C , 21-H ) :   0.9887
B( 19-C , 20-C ) :   1.6076 B( 19-C , 22-C ) :   1.0476 B( 22-C , 23-H ) :   0.9520
B( 22-C , 24-H ) :   0.9452 B( 22-C , 25-C ) :   1.0267 B( 25-C , 26-H ) :   0.9503
B( 25-C , 27-H ) :   0.9596 B( 25-C , 28-C ) :   1.1005 B( 28-C , 29-H ) :   0.9657
B( 28-C , 30-H ) :   0.9738 B( 28-C , 31-H ) :   0.9664

Dispersion correction           -0.013766769
FINAL SINGLE POINT ENERGY     -1339.850639171310

DIPOLE MOMENT
-------------
                                X             Y             Z
Electronic contribution:    -31.52130       6.55074       0.49122
Nuclear contribution   :     32.19740      -6.74058      -0.34720
                        -----------------------------------------
Total Dipole Moment    :      0.67610      -0.18984       0.14402
                        -----------------------------------------
Magnitude (a.u.)       :      0.71686
Magnitude (Debye)      :      1.82212

Rotational constants in cm-1:     0.016157     0.009160     0.006546
Rotational constants in MHz :   484.368952   274.605666   196.235191

                             ****ORCA TERMINATED NORMALLY****
TOTAL RUN TIME: 0 days 0 hours 0 minutes 21 seconds 219 msec
