                         Program Version 4.2.1 -  RELEASE  -
|  1> ! wB97X-D3 SP def2-SVP
|  2> %pal
|  3> nprocs 24
|  4> end
|  5>
|  6> * xyz 0 1
|  7> S 	 -15.4106 	 -24.2791 	 -93.6906
|  8> C 	 -14.3211 	 -25.6615 	 -93.659
|  9> C 	 -14.9197 	 -26.6901 	 -94.3113
| 10> C 	 -16.2307 	 -26.422 	 -94.8149
| 11> C 	 -16.6609 	 -25.1425 	 -94.6032
| 12> H 	 -16.8759 	 -27.1352 	 -95.3866
| 13> C 	 -14.2431 	 -28.0231 	 -94.4704
| 14> H 	 -14.4327 	 -28.6876 	 -93.5646
| 15> H 	 -13.1547 	 -27.9327 	 -94.4719
| 16> C 	 -14.5644 	 -28.8237 	 -95.7835
| 17> H 	 -14.0754 	 -29.7731 	 -95.565
| 18> H 	 -15.636 	 -29.062 	 -95.8094
| 19> C 	 -13.9974 	 -28.0717 	 -96.9368
| 20> H 	 -12.8972 	 -27.895 	 -96.8358
| 21> H 	 -14.1981 	 -28.6105 	 -97.9053
| 22> H 	 -14.3924 	 -27.0775 	 -97.1311
| 23> S 	 -19.2389 	 -24.5493 	 -94.2247
| 24> C 	 -20.1237 	 -23.9161 	 -95.6095
| 25> C 	 -19.314 	 -23.585 	 -96.6892
| 26> C 	 -17.9499 	 -23.9717 	 -96.4564
| 27> C 	 -17.794 	 -24.4349 	 -95.1764
| 28> H 	 -19.7306 	 -23.1411 	 -97.5308
| 29> C 	 -16.8731 	 -23.903 	 -97.503
| 30> H 	 -17.0734 	 -24.7774 	 -98.1657
| 31> H 	 -15.9015 	 -23.9242 	 -97.0779
| 32> C 	 -16.9465 	 -22.5619 	 -98.3592
| 33> H 	 -17.9254 	 -22.6114 	 -98.7956
| 34> H 	 -16.1652 	 -22.4627 	 -99.1385
| 35> C 	 -16.883 	 -21.3445 	 -97.4531
| 36> H 	 -17.0247 	 -20.3842 	 -97.8931
| 37> H 	 -16.0004 	 -21.2898 	 -96.879
| 38> H 	 -17.7216 	 -21.3452 	 -96.7038
| 39> H 	 -13.4116 	 -25.7461 	 -93.1065
| 40> H 	 -21.1538 	 -23.6632 	 -95.5172
| 41> *
| 42>
| 43>                          ****END OF INPUT****

CARTESIAN COORDINATES (ANGSTROEM)
---------------------------------
  S    -15.410600  -24.279100  -93.690600
  C    -14.321100  -25.661500  -93.659000
  C    -14.919700  -26.690100  -94.311300
  C    -16.230700  -26.422000  -94.814900
  C    -16.660900  -25.142500  -94.603200
  H    -16.875900  -27.135200  -95.386600
  C    -14.243100  -28.023100  -94.470400
  H    -14.432700  -28.687600  -93.564600
  H    -13.154700  -27.932700  -94.471900
  C    -14.564400  -28.823700  -95.783500
  H    -14.075400  -29.773100  -95.565000
  H    -15.636000  -29.062000  -95.809400
  C    -13.997400  -28.071700  -96.936800
  H    -12.897200  -27.895000  -96.835800
  H    -14.198100  -28.610500  -97.905300
  H    -14.392400  -27.077500  -97.131100
  S    -19.238900  -24.549300  -94.224700
  C    -20.123700  -23.916100  -95.609500
  C    -19.314000  -23.585000  -96.689200
  C    -17.949900  -23.971700  -96.456400
  C    -17.794000  -24.434900  -95.176400
  H    -19.730600  -23.141100  -97.530800
  C    -16.873100  -23.903000  -97.503000
  H    -17.073400  -24.777400  -98.165700
  H    -15.901500  -23.924200  -97.077900
  C    -16.946500  -22.561900  -98.359200
  H    -17.925400  -22.611400  -98.795600
  H    -16.165200  -22.462700  -99.138500
  C    -16.883000  -21.344500  -97.453100
  H    -17.024700  -20.384200  -97.893100
  H    -16.000400  -21.289800  -96.879000
  H    -17.721600  -21.345200  -96.703800
  H    -13.411600  -25.746100  -93.106500
  H    -21.153800  -23.663200  -95.517200

 Total Charge           Charge          ....    0
 Multiplicity           Mult            ....    1
 Number of Electrons    NEL             ....  134
 Basis Dimension        Dim             ....  322

ORBITAL ENERGIES
----------------

  NO   OCC          E(Eh)            E(eV)
   0   2.0000     -88.966218     -2420.8939
   1   2.0000     -88.958325     -2420.6791
   2   2.0000     -10.325241      -280.9641
   3   2.0000     -10.319680      -280.8128
   4   2.0000     -10.318421      -280.7785
   5   2.0000     -10.308821      -280.5173
   6   2.0000     -10.305013      -280.4137
   7   2.0000     -10.295212      -280.1470
   8   2.0000     -10.294716      -280.1335
   9   2.0000     -10.294451      -280.1263
  10   2.0000     -10.294250      -280.1208
  11   2.0000     -10.292382      -280.0699
  12   2.0000     -10.290320      -280.0138
  13   2.0000     -10.288110      -279.9537
  14   2.0000     -10.280682      -279.7516
  15   2.0000     -10.267866      -279.4028
  16   2.0000      -8.081359      -219.9050
  17   2.0000      -8.072739      -219.6704
  18   2.0000      -6.039759      -164.3502
  19   2.0000      -6.035940      -164.2463
  20   2.0000      -6.032075      -164.1411
  21   2.0000      -6.031329      -164.1208
  22   2.0000      -6.027140      -164.0068
  23   2.0000      -6.023579      -163.9099
  24   2.0000      -1.007930       -27.4272
  25   2.0000      -0.984347       -26.7854
  26   2.0000      -0.910839       -24.7852
  27   2.0000      -0.908946       -24.7337
  28   2.0000      -0.872077       -23.7304
  29   2.0000      -0.848952       -23.1012
  30   2.0000      -0.838221       -22.8092
  31   2.0000      -0.817882       -22.2557
  32   2.0000      -0.782285       -21.2871
  33   2.0000      -0.768585       -20.9143
  34   2.0000      -0.710498       -19.3336
  35   2.0000      -0.700572       -19.0635
  36   2.0000      -0.689818       -18.7709
  37   2.0000      -0.665481       -18.1087
  38   2.0000      -0.638857       -17.3842
  39   2.0000      -0.620557       -16.8862
  40   2.0000      -0.601968       -16.3804
  41   2.0000      -0.567180       -15.4338
  42   2.0000      -0.557664       -15.1748
  43   2.0000      -0.549488       -14.9523
  44   2.0000      -0.541638       -14.7387
  45   2.0000      -0.528747       -14.3879
  46   2.0000      -0.520952       -14.1758
  47   2.0000      -0.515776       -14.0350
  48   2.0000      -0.501527       -13.6473
  49   2.0000      -0.493970       -13.4416
  50   2.0000      -0.488754       -13.2997
  51   2.0000      -0.477920       -13.0049
  52   2.0000      -0.473464       -12.8836
  53   2.0000      -0.467904       -12.7323
  54   2.0000      -0.458667       -12.4810
  55   2.0000      -0.447815       -12.1857
  56   2.0000      -0.443507       -12.0685
  57   2.0000      -0.436363       -11.8740
  58   2.0000      -0.430221       -11.7069
  59   2.0000      -0.423265       -11.5176
  60   2.0000      -0.419632       -11.4188
  61   2.0000      -0.415727       -11.3125
  62   2.0000      -0.402483       -10.9521
  63   2.0000      -0.337937        -9.1957
  64   2.0000      -0.328219        -8.9313
  65   2.0000      -0.315412        -8.5828
  66   2.0000      -0.315113        -8.5747
  67   0.0000       0.049572         1.3489
  68   0.0000       0.053899         1.4667
  69   0.0000       0.114355         3.1118
  70   0.0000       0.120474         3.2783
  71   0.0000       0.131636         3.5820

MULLIKEN ATOMIC CHARGES
-----------------------
   0 S :    0.088835
   1 C :   -0.108557
   2 C :   -0.077748
   3 C :    0.049868
   4 C :   -0.177272
   5 H :    0.027408
   6 C :   -0.005352
   7 H :    0.047447
   8 H :    0.016229
   9 C :   -0.054450
  10 H :    0.028905
  11 H :    0.034545
  12 C :   -0.060987
  13 H :    0.033970
  14 H :    0.038060
  15 H :    0.037612
  16 S :    0.118457
  17 C :   -0.086499
  18 C :   -0.018258
  19 C :   -0.037005
  20 C :   -0.189537
  21 H :   -0.001003
  22 C :    0.104731
  23 H :    0.051839
  24 H :    0.030588
  25 C :   -0.080636
  26 H :    0.022759
  27 H :    0.043645
  28 C :   -0.047616
  29 H :    0.023729
  30 H :    0.022648
  31 H :    0.034372
  32 H :    0.041107
  33 H :    0.048165
Sum of atomic charges:   -0.0000000

LOEWDIN ATOMIC CHARGES
----------------------
   0 S :    0.382839
   1 C :   -0.187827
   2 C :   -0.073930
   3 C :   -0.065911
   4 C :   -0.192515
   5 H :    0.040030
   6 C :   -0.038617
   7 H :    0.036330
   8 H :    0.025104
   9 C :   -0.044621
  10 H :    0.028531
  11 H :    0.022824
  12 C :   -0.074060
  13 H :    0.031732
  14 H :    0.030614
  15 H :    0.026459
  16 S :    0.413959
  17 C :   -0.167542
  18 C :   -0.061647
  19 C :   -0.046003
  20 C :   -0.214632
  21 H :    0.021254
  22 C :   -0.021060
  23 H :    0.041979
  24 H :    0.024908
  25 C :   -0.035887
  26 H :    0.016715
  27 H :    0.029226
  28 C :   -0.069858
  29 H :    0.021581
  30 H :    0.019385
  31 H :    0.032662
  32 H :    0.028342
  33 H :    0.019635

  Mayer bond orders larger than 0.100000
B(  0-S ,  1-C ) :   1.1240 B(  0-S ,  4-C ) :   1.1481 B(  1-C ,  2-C ) :   1.6286
B(  1-C , 32-H ) :   0.9758 B(  2-C ,  3-C ) :   1.2217 B(  2-C ,  6-C ) :   1.0179
B(  3-C ,  4-C ) :   1.6089 B(  3-C ,  5-H ) :   0.9889 B(  4-C , 20-C ) :   0.9739
B(  6-C ,  7-H ) :   0.9357 B(  6-C ,  8-H ) :   0.9491 B(  6-C ,  9-C ) :   1.0777
B(  9-C , 10-H ) :   0.9514 B(  9-C , 11-H ) :   0.9501 B(  9-C , 12-C ) :   1.0753
B( 12-C , 13-H ) :   0.9707 B( 12-C , 14-H ) :   0.9720 B( 12-C , 15-H ) :   0.9731
B( 16-S , 17-C ) :   1.1595 B( 16-S , 20-C ) :   1.1523 B( 17-C , 18-C ) :   1.6240
B( 17-C , 33-H ) :   0.9683 B( 18-C , 19-C ) :   1.1978 B( 18-C , 21-H ) :   1.0015
B( 19-C , 20-C ) :   1.6396 B( 19-C , 22-C ) :   1.0327 B( 22-C , 23-H ) :   0.9333
B( 22-C , 24-H ) :   0.9358 B( 22-C , 25-C ) :   1.0575 B( 25-C , 26-H ) :   0.9539
B( 25-C , 27-H ) :   0.9607 B( 25-C , 28-C ) :   1.0798 B( 28-C , 29-H ) :   0.9731
B( 28-C , 30-H ) :   0.9760 B( 28-C , 31-H ) :   0.9655

Dispersion correction           -0.015437445
FINAL SINGLE POINT ENERGY     -1339.883834701019

DIPOLE MOMENT
-------------
                                X             Y             Z
Electronic contribution:    -11.41948       5.04105      18.39868
Nuclear contribution   :     11.49124      -5.30234     -18.92380
                        -----------------------------------------
Total Dipole Moment    :      0.07176      -0.26130      -0.52512
                        -----------------------------------------
Magnitude (a.u.)       :      0.59091
Magnitude (Debye)      :      1.50198

Rotational constants in cm-1:     0.019208     0.008872     0.008006
Rotational constants in MHz :   575.846168   265.988705   240.021601

                             ****ORCA TERMINATED NORMALLY****
TOTAL RUN TIME: 0 days 0 hours 0 minutes 22 seconds 488 msec
