                         Program Version 4.2.1 -  RELEASE  -
|  1> ! wB97X-D3 SP def2-SVP
|  2> %pal
|  3> nprocs 24
|  4> end
|  5>
|  6> * xyz 0 1
|  7> S 	 39.6011 	 -26.8283 	 -123.365
|  8> C 	 39.4754 	 -25.1232 	 -123.117
|  9> C 	 39.9459 	 -24.3839 	 -124.182
| 10> C 	 40.5636 	 -25.2408 	 -125.129
| 11> C 	 40.4569 	 -26.6073 	 -124.838
| 12> H 	 41.0631 	 -24.9376 	 -126.054
| 13> C 	 39.8054 	 -22.9433 	 -124.48
| 14> H 	 39.197 	 -22.4151 	 -123.752
| 15> H 	 39.2404 	 -22.9674 	 -125.404
| 16> C 	 41.0943 	 -22.0493 	 -124.577
| 17> H 	 41.7036 	 -22.5922 	 -125.369
| 18> H 	 40.7972 	 -20.9937 	 -124.86
| 19> C 	 41.9949 	 -21.8616 	 -123.375
| 20> H 	 42.8396 	 -21.162 	 -123.664
| 21> H 	 41.5716 	 -21.3408 	 -122.508
| 22> H 	 42.3638 	 -22.8637 	 -123.036
| 23> S 	 39.5636 	 -28.19 	 -126.917
| 24> C 	 40.7256 	 -29.2394 	 -127.661
| 25> C 	 41.8966 	 -29.3131 	 -126.995
| 26> C 	 41.9167 	 -28.4784 	 -125.801
| 27> C 	 40.7395 	 -27.724 	 -125.66
| 28> H 	 42.7193 	 -29.85 	 -127.285
| 29> C 	 43.2064 	 -28.3149 	 -125.015
| 30> H 	 43.7858 	 -29.234 	 -125.068
| 31> H 	 42.7305 	 -28.3267 	 -124.092
| 32> C 	 44.1517 	 -27.1112 	 -125.228
| 33> H 	 43.6905 	 -26.1664 	 -125.228
| 34> H 	 44.6198 	 -27.2578 	 -126.225
| 35> C 	 45.2203 	 -27.061 	 -124.131
| 36> H 	 45.8072 	 -27.9401 	 -124.017
| 37> H 	 44.7578 	 -26.9665 	 -123.2
| 38> H 	 45.9419 	 -26.2411 	 -124.349
| 39> H 	 39.011 	 -24.7262 	 -122.248
| 40> H 	 40.5263 	 -29.9108 	 -128.478
| 41> *
| 42>
| 43>                          ****END OF INPUT****

CARTESIAN COORDINATES (ANGSTROEM)
---------------------------------
  S     39.601100  -26.828300  -123.365000
  C     39.475400  -25.123200  -123.117000
  C     39.945900  -24.383900  -124.182000
  C     40.563600  -25.240800  -125.129000
  C     40.456900  -26.607300  -124.838000
  H     41.063100  -24.937600  -126.054000
  C     39.805400  -22.943300  -124.480000
  H     39.197000  -22.415100  -123.752000
  H     39.240400  -22.967400  -125.404000
  C     41.094300  -22.049300  -124.577000
  H     41.703600  -22.592200  -125.369000
  H     40.797200  -20.993700  -124.860000
  C     41.994900  -21.861600  -123.375000
  H     42.839600  -21.162000  -123.664000
  H     41.571600  -21.340800  -122.508000
  H     42.363800  -22.863700  -123.036000
  S     39.563600  -28.190000  -126.917000
  C     40.725600  -29.239400  -127.661000
  C     41.896600  -29.313100  -126.995000
  C     41.916700  -28.478400  -125.801000
  C     40.739500  -27.724000  -125.660000
  H     42.719300  -29.850000  -127.285000
  C     43.206400  -28.314900  -125.015000
  H     43.785800  -29.234000  -125.068000
  H     42.730500  -28.326700  -124.092000
  C     44.151700  -27.111200  -125.228000
  H     43.690500  -26.166400  -125.228000
  H     44.619800  -27.257800  -126.225000
  C     45.220300  -27.061000  -124.131000
  H     45.807200  -27.940100  -124.017000
  H     44.757800  -26.966500  -123.200000
  H     45.941900  -26.241100  -124.349000
  H     39.011000  -24.726200  -122.248000
  H     40.526300  -29.910800  -128.478000

 Total Charge           Charge          ....    0
 Multiplicity           Mult            ....    1
 Number of Electrons    NEL             ....  134
 Basis Dimension        Dim             ....  322

ORBITAL ENERGIES
----------------

  NO   OCC          E(Eh)            E(eV)
   0   2.0000     -88.965206     -2420.8663
   1   2.0000     -88.963098     -2420.8090
   2   2.0000     -10.322872      -280.8996
   3   2.0000     -10.322467      -280.8886
   4   2.0000     -10.312023      -280.6044
   5   2.0000     -10.310491      -280.5627
   6   2.0000     -10.304390      -280.3967
   7   2.0000     -10.299784      -280.2714
   8   2.0000     -10.299176      -280.2548
   9   2.0000     -10.294849      -280.1371
  10   2.0000     -10.291942      -280.0580
  11   2.0000     -10.285293      -279.8770
  12   2.0000     -10.284542      -279.8566
  13   2.0000     -10.283207      -279.8203
  14   2.0000     -10.282968      -279.8138
  15   2.0000     -10.270054      -279.4624
  16   2.0000      -8.080979      -219.8946
  17   2.0000      -8.077787      -219.8078
  18   2.0000      -6.039220      -164.3355
  19   2.0000      -6.036356      -164.2576
  20   2.0000      -6.035277      -164.2282
  21   2.0000      -6.032319      -164.1477
  22   2.0000      -6.032023      -164.1397
  23   2.0000      -6.028465      -164.0429
  24   2.0000      -1.009683       -27.4749
  25   2.0000      -0.984100       -26.7787
  26   2.0000      -0.913031       -24.8448
  27   2.0000      -0.907419       -24.6921
  28   2.0000      -0.872846       -23.7513
  29   2.0000      -0.851280       -23.1645
  30   2.0000      -0.850960       -23.1558
  31   2.0000      -0.813997       -22.1500
  32   2.0000      -0.787716       -21.4348
  33   2.0000      -0.770574       -20.9684
  34   2.0000      -0.712349       -19.3840
  35   2.0000      -0.698938       -19.0191
  36   2.0000      -0.689625       -18.7656
  37   2.0000      -0.663890       -18.0654
  38   2.0000      -0.644047       -17.5254
  39   2.0000      -0.621841       -16.9212
  40   2.0000      -0.593306       -16.1447
  41   2.0000      -0.571694       -15.5566
  42   2.0000      -0.565386       -15.3849
  43   2.0000      -0.549186       -14.9441
  44   2.0000      -0.544223       -14.8091
  45   2.0000      -0.528313       -14.3761
  46   2.0000      -0.515970       -14.0403
  47   2.0000      -0.511518       -13.9191
  48   2.0000      -0.509863       -13.8741
  49   2.0000      -0.496991       -13.5238
  50   2.0000      -0.490249       -13.3403
  51   2.0000      -0.478997       -13.0342
  52   2.0000      -0.472761       -12.8645
  53   2.0000      -0.466429       -12.6922
  54   2.0000      -0.457902       -12.4602
  55   2.0000      -0.449366       -12.2279
  56   2.0000      -0.445461       -12.1216
  57   2.0000      -0.442349       -12.0369
  58   2.0000      -0.438458       -11.9311
  59   2.0000      -0.425269       -11.5722
  60   2.0000      -0.418719       -11.3939
  61   2.0000      -0.410095       -11.1592
  62   2.0000      -0.404829       -11.0160
  63   2.0000      -0.335636        -9.1331
  64   2.0000      -0.326564        -8.8862
  65   2.0000      -0.316233        -8.6051
  66   2.0000      -0.312408        -8.5011
  67   0.0000       0.046940         1.2773
  68   0.0000       0.050529         1.3750
  69   0.0000       0.111366         3.0304
  70   0.0000       0.124367         3.3842
  71   0.0000       0.129609         3.5268

MULLIKEN ATOMIC CHARGES
-----------------------
   0 S :    0.125841
   1 C :   -0.116257
   2 C :   -0.073013
   3 C :    0.029995
   4 C :   -0.202076
   5 H :    0.019977
   6 C :    0.086660
   7 H :    0.009323
   8 H :    0.044331
   9 C :   -0.111835
  10 H :    0.037054
  11 H :    0.042115
  12 C :   -0.074375
  13 H :    0.045866
  14 H :    0.029607
  15 H :    0.046522
  16 S :    0.115996
  17 C :   -0.064709
  18 C :    0.000313
  19 C :   -0.042160
  20 C :   -0.186030
  21 H :   -0.019547
  22 C :    0.082944
  23 H :    0.013980
  24 H :    0.007115
  25 C :   -0.018936
  26 H :    0.020537
  27 H :    0.026475
  28 C :   -0.031508
  29 H :    0.012669
  30 H :    0.018830
  31 H :    0.039412
  32 H :    0.033328
  33 H :    0.051557
Sum of atomic charges:    0.0000000

LOEWDIN ATOMIC CHARGES
----------------------
   0 S :    0.436633
   1 C :   -0.196745
   2 C :   -0.069537
   3 C :   -0.056327
   4 C :   -0.218226
   5 H :    0.032551
   6 C :   -0.035552
   7 H :    0.026004
   8 H :    0.041042
   9 C :   -0.047523
  10 H :    0.027638
  11 H :    0.031642
  12 C :   -0.077517
  13 H :    0.037168
  14 H :    0.022066
  15 H :    0.029776
  16 S :    0.398018
  17 C :   -0.180151
  18 C :   -0.066916
  19 C :   -0.036993
  20 C :   -0.209894
  21 H :    0.015942
  22 C :   -0.034059
  23 H :    0.030688
  24 H :    0.024199
  25 C :   -0.027749
  26 H :    0.018744
  27 H :    0.026192
  28 C :   -0.058775
  29 H :    0.017870
  30 H :    0.018663
  31 H :    0.032509
  32 H :    0.019609
  33 H :    0.029010

  Mayer bond orders larger than 0.100000
B(  0-S ,  1-C ) :   1.1601 B(  0-S ,  4-C ) :   1.1755 B(  1-C ,  2-C ) :   1.5778
B(  1-C ,  4-C ) :   0.1018 B(  1-C , 32-H ) :   0.9737 B(  2-C ,  3-C ) :   1.2481
B(  2-C ,  6-C ) :   1.0233 B(  3-C ,  4-C ) :   1.5633 B(  3-C ,  5-H ) :   0.9931
B(  4-C , 20-C ) :   1.0450 B(  6-C ,  7-H ) :   0.9386 B(  6-C ,  8-H ) :   0.9371
B(  6-C ,  9-C ) :   1.0601 B(  9-C , 10-H ) :   0.9565 B(  9-C , 11-H ) :   0.9560
B(  9-C , 12-C ) :   1.0820 B( 12-C , 13-H ) :   0.9706 B( 12-C , 14-H ) :   0.9727
B( 12-C , 15-H ) :   0.9727 B( 16-S , 17-C ) :   1.1504 B( 16-S , 20-C ) :   1.1229
B( 17-C , 18-C ) :   1.6231 B( 17-C , 33-H ) :   0.9618 B( 18-C , 19-C ) :   1.2330
B( 18-C , 21-H ) :   1.0029 B( 19-C , 20-C ) :   1.6061 B( 19-C , 22-C ) :   1.0257
B( 22-C , 23-H ) :   0.9344 B( 22-C , 24-H ) :   0.9206 B( 22-C , 25-C ) :   1.0640
B( 25-C , 26-H ) :   0.9552 B( 25-C , 27-H ) :   0.9543 B( 25-C , 28-C ) :   1.0795
B( 28-C , 29-H ) :   0.9748 B( 28-C , 30-H ) :   0.9759 B( 28-C , 31-H ) :   0.9736

Dispersion correction           -0.014506901
FINAL SINGLE POINT ENERGY     -1339.870350493627

DIPOLE MOMENT
-------------
                                X             Y             Z
Electronic contribution:    -21.20513     -17.95220      -5.31601
Nuclear contribution   :     21.59399      18.30125       5.26237
                        -----------------------------------------
Total Dipole Moment    :      0.38886       0.34905      -0.05364
                        -----------------------------------------
Magnitude (a.u.)       :      0.52529
Magnitude (Debye)      :      1.33518

Rotational constants in cm-1:     0.017312     0.009251     0.007343
Rotational constants in MHz :   519.003091   277.327665   220.132855

                             ****ORCA TERMINATED NORMALLY****
TOTAL RUN TIME: 0 days 0 hours 0 minutes 21 seconds 920 msec
