                         Program Version 4.2.1 -  RELEASE  -
|  1> ! wB97X-D3 SP def2-SVP
|  2> %pal
|  3> nprocs 24
|  4> end
|  5>
|  6> * xyz 0 1
|  7> S 	 40.1195 	 -27.7759 	 -127.089
|  8> C 	 39.6748 	 -26.1245 	 -126.812
|  9> C 	 40.7275 	 -25.2923 	 -127.093
| 10> C 	 41.9141 	 -25.9667 	 -127.33
| 11> C 	 41.787 	 -27.3362 	 -127.497
| 12> H 	 42.8643 	 -25.6058 	 -127.593
| 13> C 	 40.5093 	 -23.806 	 -127.239
| 14> H 	 41.4888 	 -23.2646 	 -127.343
| 15> H 	 39.9242 	 -23.5597 	 -126.375
| 16> C 	 39.6212 	 -23.4084 	 -128.441
| 17> H 	 39.8768 	 -23.9918 	 -129.361
| 18> H 	 38.563 	 -23.5996 	 -128.139
| 19> C 	 39.6468 	 -21.9219 	 -128.728
| 20> H 	 39.0536 	 -21.7798 	 -129.635
| 21> H 	 39.098 	 -21.4294 	 -127.927
| 22> H 	 40.5772 	 -21.5084 	 -128.974
| 23> S 	 42.5491 	 -29.467 	 -129.223
| 24> C 	 44.0977 	 -30.1298 	 -129.05
| 25> C 	 44.8696 	 -29.3711 	 -128.228
| 26> C 	 44.1424 	 -28.2944 	 -127.555
| 27> C 	 42.8238 	 -28.2831 	 -127.951
| 28> H 	 45.8815 	 -29.7317 	 -127.996
| 29> C 	 44.8687 	 -27.3706 	 -126.603
| 30> H 	 45.5348 	 -27.9055 	 -125.877
| 31> H 	 44.2268 	 -26.7852 	 -125.991
| 32> C 	 45.8553 	 -26.4404 	 -127.365
| 33> H 	 45.3231 	 -26.0146 	 -128.18
| 34> H 	 46.7168 	 -26.9869 	 -127.818
| 35> C 	 46.2919 	 -25.1464 	 -126.557
| 36> H 	 46.9071 	 -25.4414 	 -125.66
| 37> H 	 45.4673 	 -24.5051 	 -126.231
| 38> H 	 46.9378 	 -24.4593 	 -127.167
| 39> H 	 38.7892 	 -25.6769 	 -126.467
| 40> H 	 44.5132 	 -30.9833 	 -129.614
| 41> *
| 42>
| 43>                          ****END OF INPUT****

CARTESIAN COORDINATES (ANGSTROEM)
---------------------------------
  S     40.119500  -27.775900  -127.089000
  C     39.674800  -26.124500  -126.812000
  C     40.727500  -25.292300  -127.093000
  C     41.914100  -25.966700  -127.330000
  C     41.787000  -27.336200  -127.497000
  H     42.864300  -25.605800  -127.593000
  C     40.509300  -23.806000  -127.239000
  H     41.488800  -23.264600  -127.343000
  H     39.924200  -23.559700  -126.375000
  C     39.621200  -23.408400  -128.441000
  H     39.876800  -23.991800  -129.361000
  H     38.563000  -23.599600  -128.139000
  C     39.646800  -21.921900  -128.728000
  H     39.053600  -21.779800  -129.635000
  H     39.098000  -21.429400  -127.927000
  H     40.577200  -21.508400  -128.974000
  S     42.549100  -29.467000  -129.223000
  C     44.097700  -30.129800  -129.050000
  C     44.869600  -29.371100  -128.228000
  C     44.142400  -28.294400  -127.555000
  C     42.823800  -28.283100  -127.951000
  H     45.881500  -29.731700  -127.996000
  C     44.868700  -27.370600  -126.603000
  H     45.534800  -27.905500  -125.877000
  H     44.226800  -26.785200  -125.991000
  C     45.855300  -26.440400  -127.365000
  H     45.323100  -26.014600  -128.180000
  H     46.716800  -26.986900  -127.818000
  C     46.291900  -25.146400  -126.557000
  H     46.907100  -25.441400  -125.660000
  H     45.467300  -24.505100  -126.231000
  H     46.937800  -24.459300  -127.167000
  H     38.789200  -25.676900  -126.467000
  H     44.513200  -30.983300  -129.614000

 Total Charge           Charge          ....    0
 Multiplicity           Mult            ....    1
 Number of Electrons    NEL             ....  134
 Basis Dimension        Dim             ....  322

ORBITAL ENERGIES
----------------

  NO   OCC          E(Eh)            E(eV)
   0   2.0000     -88.967417     -2420.9265
   1   2.0000     -88.965532     -2420.8752
   2   2.0000     -10.331529      -281.1352
   3   2.0000     -10.330176      -281.0984
   4   2.0000     -10.314340      -280.6675
   5   2.0000     -10.307055      -280.4692
   6   2.0000     -10.305982      -280.4400
   7   2.0000     -10.295026      -280.1419
   8   2.0000     -10.293370      -280.0968
   9   2.0000     -10.293008      -280.0870
  10   2.0000     -10.292296      -280.0676
  11   2.0000     -10.291939      -280.0579
  12   2.0000     -10.290406      -280.0162
  13   2.0000     -10.290051      -280.0065
  14   2.0000     -10.286932      -279.9216
  15   2.0000     -10.273069      -279.5444
  16   2.0000      -8.081637      -219.9125
  17   2.0000      -8.081299      -219.9033
  18   2.0000      -6.040132      -164.3603
  19   2.0000      -6.039848      -164.3526
  20   2.0000      -6.036099      -164.2506
  21   2.0000      -6.035704      -164.2398
  22   2.0000      -6.032551      -164.1541
  23   2.0000      -6.031897      -164.1363
  24   2.0000      -1.010440       -27.4955
  25   2.0000      -0.991963       -26.9927
  26   2.0000      -0.913477       -24.8570
  27   2.0000      -0.907022       -24.6813
  28   2.0000      -0.871965       -23.7274
  29   2.0000      -0.853448       -23.2235
  30   2.0000      -0.843299       -22.9473
  31   2.0000      -0.820089       -22.3158
  32   2.0000      -0.783191       -21.3117
  33   2.0000      -0.771533       -20.9945
  34   2.0000      -0.705935       -19.2095
  35   2.0000      -0.698997       -19.0207
  36   2.0000      -0.692584       -18.8462
  37   2.0000      -0.658545       -17.9199
  38   2.0000      -0.641883       -17.4665
  39   2.0000      -0.620962       -16.8972
  40   2.0000      -0.599294       -16.3076
  41   2.0000      -0.576000       -15.6738
  42   2.0000      -0.570187       -15.5156
  43   2.0000      -0.561085       -15.2679
  44   2.0000      -0.527662       -14.3584
  45   2.0000      -0.523723       -14.2512
  46   2.0000      -0.513267       -13.9667
  47   2.0000      -0.511009       -13.9053
  48   2.0000      -0.505914       -13.7666
  49   2.0000      -0.501631       -13.6501
  50   2.0000      -0.496104       -13.4997
  51   2.0000      -0.480838       -13.0843
  52   2.0000      -0.473629       -12.8881
  53   2.0000      -0.472699       -12.8628
  54   2.0000      -0.458073       -12.4648
  55   2.0000      -0.447154       -12.1677
  56   2.0000      -0.442375       -12.0376
  57   2.0000      -0.435362       -11.8468
  58   2.0000      -0.427916       -11.6442
  59   2.0000      -0.425678       -11.5833
  60   2.0000      -0.423599       -11.5267
  61   2.0000      -0.418470       -11.3872
  62   2.0000      -0.415895       -11.3171
  63   2.0000      -0.353791        -9.6271
  64   2.0000      -0.331890        -9.0312
  65   2.0000      -0.328340        -8.9346
  66   2.0000      -0.289982        -7.8908
  67   0.0000       0.029499         0.8027
  68   0.0000       0.077404         2.1063
  69   0.0000       0.117039         3.1848
  70   0.0000       0.123378         3.3573
  71   0.0000       0.128639         3.5004

MULLIKEN ATOMIC CHARGES
-----------------------
   0 S :    0.121541
   1 C :   -0.088846
   2 C :   -0.078160
   3 C :    0.052215
   4 C :   -0.178129
   5 H :   -0.026889
   6 C :    0.076225
   7 H :    0.029629
   8 H :    0.020864
   9 C :   -0.117230
  10 H :    0.045299
  11 H :    0.026756
  12 C :   -0.013721
  13 H :    0.026965
  14 H :    0.030024
  15 H :    0.023250
  16 S :    0.118329
  17 C :   -0.094961
  18 C :   -0.044220
  19 C :   -0.041145
  20 C :   -0.140319
  21 H :    0.025751
  22 C :    0.083478
  23 H :    0.033947
  24 H :    0.014232
  25 C :   -0.090729
  26 H :    0.024069
  27 H :    0.043552
  28 C :   -0.091267
  29 H :    0.039879
  30 H :    0.038775
  31 H :    0.041364
  32 H :    0.020283
  33 H :    0.069188
Sum of atomic charges:   -0.0000000

LOEWDIN ATOMIC CHARGES
----------------------
   0 S :    0.411314
   1 C :   -0.197712
   2 C :   -0.067529
   3 C :   -0.061640
   4 C :   -0.180813
   5 H :    0.021726
   6 C :   -0.032068
   7 H :    0.032704
   8 H :    0.029717
   9 C :   -0.042932
  10 H :    0.027491
  11 H :    0.025682
  12 C :   -0.061774
  13 H :    0.030840
  14 H :    0.027089
  15 H :    0.014788
  16 S :    0.418596
  17 C :   -0.204554
  18 C :   -0.077418
  19 C :   -0.050179
  20 C :   -0.199298
  21 H :    0.033109
  22 C :   -0.031046
  23 H :    0.036940
  24 H :    0.023062
  25 C :   -0.039705
  26 H :    0.015451
  27 H :    0.029473
  28 C :   -0.075400
  29 H :    0.026954
  30 H :    0.024351
  31 H :    0.030688
  32 H :    0.021362
  33 H :    0.040729

  Mayer bond orders larger than 0.100000
B(  0-S ,  1-C ) :   1.1423 B(  0-S ,  4-C ) :   1.1559 B(  1-C ,  2-C ) :   1.5797
B(  1-C ,  4-C ) :   0.1071 B(  1-C , 32-H ) :   0.9733 B(  2-C ,  3-C ) :   1.2709
B(  2-C ,  6-C ) :   1.0278 B(  3-C ,  4-C ) :   1.5472 B(  3-C ,  5-H ) :   1.0031
B(  4-C , 20-C ) :   1.0461 B(  6-C ,  7-H ) :   0.9500 B(  6-C ,  8-H ) :   0.9283
B(  6-C ,  9-C ) :   1.0626 B(  9-C , 10-H ) :   0.9616 B(  9-C , 11-H ) :   0.9513
B(  9-C , 12-C ) :   1.0941 B( 12-C , 13-H ) :   0.9707 B( 12-C , 14-H ) :   0.9734
B( 12-C , 15-H ) :   0.9748 B( 16-S , 17-C ) :   1.1519 B( 16-S , 20-C ) :   1.1312
B( 17-C , 18-C ) :   1.6388 B( 17-C , 33-H ) :   0.9611 B( 18-C , 19-C ) :   1.2123
B( 18-C , 21-H ) :   0.9851 B( 19-C , 20-C ) :   1.6107 B( 19-C , 22-C ) :   1.0640
B( 22-C , 23-H ) :   0.9321 B( 22-C , 24-H ) :   0.9348 B( 22-C , 25-C ) :   1.0446
B( 25-C , 26-H ) :   0.9577 B( 25-C , 27-H ) :   0.9558 B( 25-C , 28-C ) :   1.0750
B( 28-C , 29-H ) :   0.9767 B( 28-C , 30-H ) :   0.9755 B( 28-C , 31-H ) :   0.9764

Dispersion correction           -0.014030947
FINAL SINGLE POINT ENERGY     -1339.875827729829

DIPOLE MOMENT
-------------
                                X             Y             Z
Electronic contribution:     -9.11508     -27.72330      -2.88432
Nuclear contribution   :      9.48321      28.25387       2.86108
                        -----------------------------------------
Total Dipole Moment    :      0.36813       0.53056      -0.02324
                        -----------------------------------------
Magnitude (a.u.)       :      0.64619
Magnitude (Debye)      :      1.64248

Rotational constants in cm-1:     0.017600     0.008508     0.006535
Rotational constants in MHz :   527.631008   255.074951   195.903001

                             ****ORCA TERMINATED NORMALLY****
TOTAL RUN TIME: 0 days 0 hours 0 minutes 21 seconds 438 msec
