                         Program Version 4.2.1 -  RELEASE  -
|  1> ! wB97X-D3 SP def2-SVP
|  2> %pal
|  3> nprocs 24
|  4> end
|  5>
|  6> * xyz 0 1
|  7> S 	 -85.3281 	 -41.2098 	 -76.2388
|  8> C 	 -85.3738 	 -42.9212 	 -76.744
|  9> C 	 -86.1714 	 -43.639 	 -75.9112
| 10> C 	 -87.0062 	 -42.8239 	 -75.1216
| 11> C 	 -86.6508 	 -41.4493 	 -75.0203
| 12> H 	 -87.8149 	 -43.1311 	 -74.4649
| 13> C 	 -86.3428 	 -45.1169 	 -76.0023
| 14> H 	 -85.8784 	 -45.7054 	 -75.2538
| 15> H 	 -85.8092 	 -45.3464 	 -76.8589
| 16> C 	 -87.7708 	 -45.5728 	 -76.3366
| 17> H 	 -87.7543 	 -46.6424 	 -76.352
| 18> H 	 -88.4391 	 -45.2747 	 -75.5736
| 19> C 	 -88.328 	 -45.0655 	 -77.631
| 20> H 	 -88.3426 	 -43.9358 	 -77.6188
| 21> H 	 -87.7117 	 -45.3782 	 -78.4759
| 22> H 	 -89.3739 	 -45.3867 	 -77.7655
| 23> S 	 -87.2663 	 -38.7581 	 -75.0134
| 24> C 	 -87.9141 	 -38.0178 	 -73.5029
| 25> C 	 -88.1432 	 -38.9961 	 -72.5292
| 26> C 	 -87.7465 	 -40.3247 	 -72.8967
| 27> C 	 -87.1948 	 -40.3307 	 -74.2532
| 28> H 	 -88.5985 	 -38.8135 	 -71.581
| 29> C 	 -87.7836 	 -41.5517 	 -72.0139
| 30> H 	 -86.7227 	 -41.8154 	 -71.9521
| 31> H 	 -88.398 	 -42.3183 	 -72.5007
| 32> C 	 -88.348 	 -41.3976 	 -70.6129
| 33> H 	 -89.3743 	 -41.0143 	 -70.5452
| 34> H 	 -87.7052 	 -40.6525 	 -70.1053
| 35> C 	 -88.2288 	 -42.6831 	 -69.7381
| 36> H 	 -88.8295 	 -43.5564 	 -70.0937
| 37> H 	 -88.3774 	 -42.3798 	 -68.6738
| 38> H 	 -87.2015 	 -43.0681 	 -69.7923
| 39> H 	 -84.7192 	 -43.3331 	 -77.5093
| 40> H 	 -88.1519 	 -37.0377 	 -73.3284
| 41> *
| 42>
| 43>                          ****END OF INPUT****

CARTESIAN COORDINATES (ANGSTROEM)
---------------------------------
  S    -85.328100  -41.209800  -76.238800
  C    -85.373800  -42.921200  -76.744000
  C    -86.171400  -43.639000  -75.911200
  C    -87.006200  -42.823900  -75.121600
  C    -86.650800  -41.449300  -75.020300
  H    -87.814900  -43.131100  -74.464900
  C    -86.342800  -45.116900  -76.002300
  H    -85.878400  -45.705400  -75.253800
  H    -85.809200  -45.346400  -76.858900
  C    -87.770800  -45.572800  -76.336600
  H    -87.754300  -46.642400  -76.352000
  H    -88.439100  -45.274700  -75.573600
  C    -88.328000  -45.065500  -77.631000
  H    -88.342600  -43.935800  -77.618800
  H    -87.711700  -45.378200  -78.475900
  H    -89.373900  -45.386700  -77.765500
  S    -87.266300  -38.758100  -75.013400
  C    -87.914100  -38.017800  -73.502900
  C    -88.143200  -38.996100  -72.529200
  C    -87.746500  -40.324700  -72.896700
  C    -87.194800  -40.330700  -74.253200
  H    -88.598500  -38.813500  -71.581000
  C    -87.783600  -41.551700  -72.013900
  H    -86.722700  -41.815400  -71.952100
  H    -88.398000  -42.318300  -72.500700
  C    -88.348000  -41.397600  -70.612900
  H    -89.374300  -41.014300  -70.545200
  H    -87.705200  -40.652500  -70.105300
  C    -88.228800  -42.683100  -69.738100
  H    -88.829500  -43.556400  -70.093700
  H    -88.377400  -42.379800  -68.673800
  H    -87.201500  -43.068100  -69.792300
  H    -84.719200  -43.333100  -77.509300
  H    -88.151900  -37.037700  -73.328400

 Total Charge           Charge          ....    0
 Multiplicity           Mult            ....    1
 Number of Electrons    NEL             ....  134
 Basis Dimension        Dim             ....  322

ORBITAL ENERGIES
----------------

  NO   OCC          E(Eh)            E(eV)
   0   2.0000     -88.973859     -2421.1018
   1   2.0000     -88.962139     -2420.7829
   2   2.0000     -10.339384      -281.3489
   3   2.0000     -10.335928      -281.2549
   4   2.0000     -10.319899      -280.8187
   5   2.0000     -10.316007      -280.7128
   6   2.0000     -10.313425      -280.6426
   7   2.0000     -10.298481      -280.2359
   8   2.0000     -10.297163      -280.2001
   9   2.0000     -10.297117      -280.1988
  10   2.0000     -10.296268      -280.1757
  11   2.0000     -10.294267      -280.1213
  12   2.0000     -10.289542      -279.9927
  13   2.0000     -10.280321      -279.7418
  14   2.0000     -10.277720      -279.6710
  15   2.0000     -10.276580      -279.6400
  16   2.0000      -8.087114      -220.0615
  17   2.0000      -8.075544      -219.7467
  18   2.0000      -6.045749      -164.5132
  19   2.0000      -6.041749      -164.4044
  20   2.0000      -6.037891      -164.2994
  21   2.0000      -6.034181      -164.1984
  22   2.0000      -6.030245      -164.0913
  23   2.0000      -6.026224      -163.9819
  24   2.0000      -0.996491       -27.1159
  25   2.0000      -0.976918       -26.5833
  26   2.0000      -0.917599       -24.9691
  27   2.0000      -0.911981       -24.8163
  28   2.0000      -0.869199       -23.6521
  29   2.0000      -0.849549       -23.1174
  30   2.0000      -0.839564       -22.8457
  31   2.0000      -0.816157       -22.2088
  32   2.0000      -0.784986       -21.3606
  33   2.0000      -0.770252       -20.9596
  34   2.0000      -0.712058       -19.3761
  35   2.0000      -0.706077       -19.2133
  36   2.0000      -0.692208       -18.8359
  37   2.0000      -0.650707       -17.7066
  38   2.0000      -0.643586       -17.5129
  39   2.0000      -0.620867       -16.8946
  40   2.0000      -0.598550       -16.2874
  41   2.0000      -0.578039       -15.7293
  42   2.0000      -0.569849       -15.5064
  43   2.0000      -0.558732       -15.2039
  44   2.0000      -0.535993       -14.5851
  45   2.0000      -0.531388       -14.4598
  46   2.0000      -0.519421       -14.1342
  47   2.0000      -0.509988       -13.8775
  48   2.0000      -0.504697       -13.7335
  49   2.0000      -0.497905       -13.5487
  50   2.0000      -0.486353       -13.2343
  51   2.0000      -0.478066       -13.0088
  52   2.0000      -0.473402       -12.8819
  53   2.0000      -0.468344       -12.7443
  54   2.0000      -0.457019       -12.4361
  55   2.0000      -0.451480       -12.2854
  56   2.0000      -0.442758       -12.0481
  57   2.0000      -0.436887       -11.8883
  58   2.0000      -0.430908       -11.7256
  59   2.0000      -0.424899       -11.5621
  60   2.0000      -0.422961       -11.5094
  61   2.0000      -0.419019       -11.4021
  62   2.0000      -0.409557       -11.1446
  63   2.0000      -0.352078        -9.5805
  64   2.0000      -0.332786        -9.0556
  65   2.0000      -0.328907        -8.9500
  66   2.0000      -0.280188        -7.6243
  67   0.0000       0.011303         0.3076
  68   0.0000       0.077241         2.1018
  69   0.0000       0.099795         2.7156
  70   0.0000       0.119784         3.2595
  71   0.0000       0.135438         3.6854

MULLIKEN ATOMIC CHARGES
-----------------------
   0 S :    0.077826
   1 C :   -0.125516
   2 C :   -0.098762
   3 C :    0.017881
   4 C :   -0.154893
   5 H :    0.004709
   6 C :    0.150609
   7 H :    0.031718
   8 H :   -0.025093
   9 C :   -0.068128
  10 H :    0.020502
  11 H :    0.018429
  12 C :   -0.070717
  13 H :    0.048890
  14 H :    0.028223
  15 H :    0.039059
  16 S :    0.120944
  17 C :   -0.043045
  18 C :   -0.031273
  19 C :   -0.061793
  20 C :   -0.148185
  21 H :    0.011633
  22 C :    0.066070
  23 H :    0.053185
  24 H :    0.046735
  25 C :   -0.124412
  26 H :    0.042085
  27 H :    0.031487
  28 C :   -0.054077
  29 H :    0.043110
  30 H :    0.048053
  31 H :    0.023616
  32 H :    0.058060
  33 H :    0.023068
Sum of atomic charges:   -0.0000000

LOEWDIN ATOMIC CHARGES
----------------------
   0 S :    0.356441
   1 C :   -0.179637
   2 C :   -0.068372
   3 C :   -0.066975
   4 C :   -0.170329
   5 H :    0.026635
   6 C :   -0.022990
   7 H :    0.030397
   8 H :    0.020515
   9 C :   -0.036566
  10 H :    0.022044
  11 H :    0.015295
  12 C :   -0.066755
  13 H :    0.033673
  14 H :    0.021847
  15 H :    0.029830
  16 S :    0.406411
  17 C :   -0.162464
  18 C :   -0.064138
  19 C :   -0.046616
  20 C :   -0.208793
  21 H :    0.027777
  22 C :   -0.038317
  23 H :    0.045527
  24 H :    0.032737
  25 C :   -0.049226
  26 H :    0.024494
  27 H :    0.026355
  28 C :   -0.070218
  29 H :    0.028466
  30 H :    0.034378
  31 H :    0.024575
  32 H :    0.031500
  33 H :    0.012498

  Mayer bond orders larger than 0.100000
B(  0-S ,  1-C ) :   1.1299 B(  0-S ,  4-C ) :   1.1306 B(  1-C ,  2-C ) :   1.6125
B(  1-C ,  4-C ) :   0.1023 B(  1-C , 32-H ) :   0.9620 B(  2-C ,  3-C ) :   1.2293
B(  2-C ,  6-C ) :   1.0270 B(  3-C ,  4-C ) :   1.5657 B(  3-C ,  5-H ) :   0.9868
B(  4-C , 20-C ) :   1.1022 B(  6-C ,  7-H ) :   0.9300 B(  6-C ,  8-H ) :   0.9244
B(  6-C ,  9-C ) :   1.0746 B(  9-C , 10-H ) :   0.9514 B(  9-C , 11-H ) :   0.9526
B(  9-C , 12-C ) :   1.0875 B( 12-C , 13-H ) :   0.9708 B( 12-C , 14-H ) :   0.9745
B( 12-C , 15-H ) :   0.9713 B( 16-S , 17-C ) :   1.1444 B( 16-S , 20-C ) :   1.1572
B( 17-C , 18-C ) :   1.5679 B( 17-C , 20-C ) :   0.1101 B( 17-C , 33-H ) :   0.9760
B( 18-C , 19-C ) :   1.3047 B( 18-C , 21-H ) :   0.9810 B( 19-C , 20-C ) :   1.5100
B( 19-C , 22-C ) :   1.0267 B( 22-C , 23-H ) :   0.9251 B( 22-C , 24-H ) :   0.9264
B( 22-C , 25-C ) :   1.0949 B( 25-C , 26-H ) :   0.9519 B( 25-C , 27-H ) :   0.9469
B( 25-C , 28-C ) :   1.0823 B( 28-C , 29-H ) :   0.9747 B( 28-C , 30-H ) :   0.9742
B( 28-C , 31-H ) :   0.9724

Dispersion correction           -0.013876130
FINAL SINGLE POINT ENERGY     -1339.869217404814

DIPOLE MOMENT
-------------
                                X             Y             Z
Electronic contribution:     10.24971      23.09971     -11.55146
Nuclear contribution   :    -10.52266     -23.63366      12.06328
                        -----------------------------------------
Total Dipole Moment    :     -0.27296      -0.53395       0.51182
                        -----------------------------------------
Magnitude (a.u.)       :      0.78839
Magnitude (Debye)      :      2.00393

Rotational constants in cm-1:     0.016503     0.008950     0.006540
Rotational constants in MHz :   494.743130   268.303010   196.059073

                             ****ORCA TERMINATED NORMALLY****
TOTAL RUN TIME: 0 days 0 hours 0 minutes 21 seconds 347 msec
