                         Program Version 4.2.1 -  RELEASE  -
|  1> ! wB97X-D3 SP def2-SVP
|  2> %pal
|  3> nprocs 24
|  4> end
|  5>
|  6> * xyz 0 1
|  7> S 	 -119.856 	 23.3294 	 -19.7988
|  8> C 	 -118.28 	 23.2006 	 -20.6029
|  9> C 	 -117.341 	 24.1745 	 -20.1323
| 10> C 	 -118.029 	 25.1384 	 -19.3064
| 11> C 	 -119.359 	 24.8153 	 -19.0034
| 12> H 	 -117.451 	 25.9173 	 -18.8528
| 13> C 	 -115.955 	 24.2683 	 -20.6416
| 14> H 	 -115.668 	 25.1784 	 -20.2436
| 15> H 	 -115.941 	 24.229 	 -21.6876
| 16> C 	 -114.89 	 23.2676 	 -20.0698
| 17> H 	 -115.032 	 23.1878 	 -18.9903
| 18> H 	 -115.126 	 22.3114 	 -20.5972
| 19> C 	 -113.384 	 23.5561 	 -20.3108
| 20> H 	 -112.788 	 22.6661 	 -20.2893
| 21> H 	 -113.259 	 24.0653 	 -21.3154
| 22> H 	 -112.968 	 24.2461 	 -19.6057
| 23> S 	 -121.324 	 24.8896 	 -16.9659
| 24> C 	 -121.795 	 26.4363 	 -16.2519
| 25> C 	 -121.168 	 27.4587 	 -16.95
| 26> C 	 -120.302 	 26.983 	 -17.9668
| 27> C 	 -120.225 	 25.6114 	 -18.1126
| 28> H 	 -121.376 	 28.5019 	 -16.7503
| 29> C 	 -119.582 	 28.0561 	 -18.8029
| 30> H 	 -119.216 	 27.5059 	 -19.6387
| 31> H 	 -118.853 	 28.555 	 -18.1498
| 32> C 	 -120.337 	 29.1606 	 -19.4853
| 33> H 	 -120.91 	 29.7679 	 -18.6914
| 34> H 	 -121.109 	 28.706 	 -20.0886
| 35> C 	 -119.425 	 30.1039 	 -20.285
| 36> H 	 -118.776 	 29.4837 	 -20.9186
| 37> H 	 -118.837 	 30.513 	 -19.412
| 38> H 	 -120.03 	 30.8703 	 -20.8011
| 39> H 	 -118.121 	 22.4012 	 -21.2684
| 40> H 	 -122.389 	 26.6591 	 -15.4363
| 41> *
| 42>
| 43>                          ****END OF INPUT****

CARTESIAN COORDINATES (ANGSTROEM)
---------------------------------
  S    -119.856000   23.329400  -19.798800
  C    -118.280000   23.200600  -20.602900
  C    -117.341000   24.174500  -20.132300
  C    -118.029000   25.138400  -19.306400
  C    -119.359000   24.815300  -19.003400
  H    -117.451000   25.917300  -18.852800
  C    -115.955000   24.268300  -20.641600
  H    -115.668000   25.178400  -20.243600
  H    -115.941000   24.229000  -21.687600
  C    -114.890000   23.267600  -20.069800
  H    -115.032000   23.187800  -18.990300
  H    -115.126000   22.311400  -20.597200
  C    -113.384000   23.556100  -20.310800
  H    -112.788000   22.666100  -20.289300
  H    -113.259000   24.065300  -21.315400
  H    -112.968000   24.246100  -19.605700
  S    -121.324000   24.889600  -16.965900
  C    -121.795000   26.436300  -16.251900
  C    -121.168000   27.458700  -16.950000
  C    -120.302000   26.983000  -17.966800
  C    -120.225000   25.611400  -18.112600
  H    -121.376000   28.501900  -16.750300
  C    -119.582000   28.056100  -18.802900
  H    -119.216000   27.505900  -19.638700
  H    -118.853000   28.555000  -18.149800
  C    -120.337000   29.160600  -19.485300
  H    -120.910000   29.767900  -18.691400
  H    -121.109000   28.706000  -20.088600
  C    -119.425000   30.103900  -20.285000
  H    -118.776000   29.483700  -20.918600
  H    -118.837000   30.513000  -19.412000
  H    -120.030000   30.870300  -20.801100
  H    -118.121000   22.401200  -21.268400
  H    -122.389000   26.659100  -15.436300

 Total Charge           Charge          ....    0
 Multiplicity           Mult            ....    1
 Number of Electrons    NEL             ....  134
 Basis Dimension        Dim             ....  322

ORBITAL ENERGIES
----------------

  NO   OCC          E(Eh)            E(eV)
   0   2.0000     -88.971945     -2421.0497
   1   2.0000     -88.967183     -2420.9201
   2   2.0000     -10.338537      -281.3259
   3   2.0000     -10.330712      -281.1130
   4   2.0000     -10.318320      -280.7758
   5   2.0000     -10.315728      -280.7052
   6   2.0000     -10.308167      -280.4995
   7   2.0000     -10.299613      -280.2667
   8   2.0000     -10.299468      -280.2628
   9   2.0000     -10.293039      -280.0878
  10   2.0000     -10.291131      -280.0359
  11   2.0000     -10.287133      -279.9271
  12   2.0000     -10.285283      -279.8768
  13   2.0000     -10.285066      -279.8709
  14   2.0000     -10.284460      -279.8544
  15   2.0000     -10.282207      -279.7931
  16   2.0000      -8.085937      -220.0295
  17   2.0000      -8.081497      -219.9087
  18   2.0000      -6.044436      -164.4775
  19   2.0000      -6.040491      -164.3701
  20   2.0000      -6.040188      -164.3619
  21   2.0000      -6.036830      -164.2705
  22   2.0000      -6.035946      -164.2464
  23   2.0000      -6.032208      -164.1447
  24   2.0000      -1.003775       -27.3141
  25   2.0000      -0.980707       -26.6864
  26   2.0000      -0.913588       -24.8600
  27   2.0000      -0.912147       -24.8208
  28   2.0000      -0.866833       -23.5877
  29   2.0000      -0.853681       -23.2298
  30   2.0000      -0.846275       -23.0283
  31   2.0000      -0.816042       -22.2056
  32   2.0000      -0.783255       -21.3135
  33   2.0000      -0.770478       -20.9658
  34   2.0000      -0.705985       -19.2108
  35   2.0000      -0.701437       -19.0871
  36   2.0000      -0.689670       -18.7669
  37   2.0000      -0.659909       -17.9570
  38   2.0000      -0.642946       -17.4954
  39   2.0000      -0.624923       -17.0050
  40   2.0000      -0.595262       -16.1979
  41   2.0000      -0.579038       -15.7564
  42   2.0000      -0.573263       -15.5993
  43   2.0000      -0.567888       -15.4530
  44   2.0000      -0.526467       -14.3259
  45   2.0000      -0.524915       -14.2837
  46   2.0000      -0.519021       -14.1233
  47   2.0000      -0.515338       -14.0231
  48   2.0000      -0.508997       -13.8505
  49   2.0000      -0.503231       -13.6936
  50   2.0000      -0.488178       -13.2840
  51   2.0000      -0.479852       -13.0574
  52   2.0000      -0.469961       -12.7883
  53   2.0000      -0.464767       -12.6470
  54   2.0000      -0.462378       -12.5819
  55   2.0000      -0.455158       -12.3855
  56   2.0000      -0.450376       -12.2554
  57   2.0000      -0.435884       -11.8610
  58   2.0000      -0.430270       -11.7082
  59   2.0000      -0.424040       -11.5387
  60   2.0000      -0.415344       -11.3021
  61   2.0000      -0.412238       -11.2176
  62   2.0000      -0.404160       -10.9978
  63   2.0000      -0.353343        -9.6150
  64   2.0000      -0.333301        -9.0696
  65   2.0000      -0.329326        -8.9614
  66   2.0000      -0.285554        -7.7703
  67   0.0000       0.023336         0.6350
  68   0.0000       0.069656         1.8954
  69   0.0000       0.106154         2.8886
  70   0.0000       0.115160         3.1337
  71   0.0000       0.133656         3.6370

MULLIKEN ATOMIC CHARGES
-----------------------
   0 S :    0.113991
   1 C :   -0.119263
   2 C :   -0.110488
   3 C :    0.016133
   4 C :   -0.133101
   5 H :    0.015898
   6 C :    0.134743
   7 H :   -0.013656
   8 H :    0.030488
   9 C :   -0.102938
  10 H :    0.037179
  11 H :    0.031220
  12 C :   -0.048740
  13 H :    0.039988
  14 H :    0.030238
  15 H :    0.030363
  16 S :    0.099987
  17 C :   -0.056088
  18 C :   -0.036153
  19 C :   -0.056748
  20 C :   -0.120318
  21 H :    0.019894
  22 C :    0.055334
  23 H :    0.021181
  24 H :    0.031253
  25 C :   -0.112414
  26 H :    0.022116
  27 H :    0.025843
  28 C :   -0.038632
  29 H :    0.037642
  30 H :    0.032980
  31 H :    0.054730
  32 H :    0.038275
  33 H :    0.029061
Sum of atomic charges:   -0.0000000

LOEWDIN ATOMIC CHARGES
----------------------
   0 S :    0.402099
   1 C :   -0.180656
   2 C :   -0.052041
   3 C :   -0.059825
   4 C :   -0.189032
   5 H :    0.029491
   6 C :   -0.025892
   7 H :    0.019847
   8 H :    0.028708
   9 C :   -0.036896
  10 H :    0.025648
  11 H :    0.024586
  12 C :   -0.068220
  13 H :    0.027028
  14 H :    0.030573
  15 H :    0.020992
  16 S :    0.402080
  17 C :   -0.169318
  18 C :   -0.066456
  19 C :   -0.062039
  20 C :   -0.201989
  21 H :    0.030856
  22 C :   -0.036925
  23 H :    0.027022
  24 H :    0.030371
  25 C :   -0.048555
  26 H :    0.019023
  27 H :    0.017179
  28 C :   -0.062889
  29 H :    0.026033
  30 H :    0.033221
  31 H :    0.033229
  32 H :    0.013867
  33 H :    0.018879

  Mayer bond orders larger than 0.100000
B(  0-S ,  1-C ) :   1.1513 B(  0-S ,  4-C ) :   1.1549 B(  1-C ,  2-C ) :   1.5511
B(  1-C ,  4-C ) :   0.1049 B(  1-C , 32-H ) :   0.9797 B(  2-C ,  3-C ) :   1.2823
B(  2-C ,  6-C ) :   1.0321 B(  3-C ,  4-C ) :   1.5331 B(  3-C ,  5-H ) :   0.9882
B(  4-C , 20-C ) :   1.0488 B(  6-C ,  7-H ) :   0.9263 B(  6-C ,  8-H ) :   0.9379
B(  6-C ,  9-C ) :   1.0606 B(  9-C , 10-H ) :   0.9604 B(  9-C , 11-H ) :   0.9605
B(  9-C , 12-C ) :   1.0775 B( 12-C , 13-H ) :   0.9756 B( 12-C , 14-H ) :   0.9746
B( 12-C , 15-H ) :   0.9770 B( 16-S , 17-C ) :   1.1517 B( 16-S , 20-C ) :   1.1226
B( 17-C , 18-C ) :   1.5943 B( 17-C , 33-H ) :   0.9760 B( 18-C , 19-C ) :   1.2624
B( 18-C , 21-H ) :   0.9897 B( 19-C , 20-C ) :   1.5957 B( 19-C , 22-C ) :   1.0315
B( 22-C , 23-H ) :   0.9308 B( 22-C , 24-H ) :   0.9325 B( 22-C , 25-C ) :   1.0758
B( 25-C , 26-H ) :   0.9490 B( 25-C , 27-H ) :   0.9534 B( 25-C , 28-C ) :   1.0648
B( 28-C , 29-H ) :   0.9755 B( 28-C , 30-H ) :   0.9761 B( 28-C , 31-H ) :   0.9721

Dispersion correction           -0.013190886
FINAL SINGLE POINT ENERGY     -1339.861055023745

DIPOLE MOMENT
-------------
                                X             Y             Z
Electronic contribution:    -22.65772     -15.15650      10.33768
Nuclear contribution   :     23.17956      15.57287     -10.49207
                        -----------------------------------------
Total Dipole Moment    :      0.52184       0.41637      -0.15439
                        -----------------------------------------
Magnitude (a.u.)       :      0.68521
Magnitude (Debye)      :      1.74166

Rotational constants in cm-1:     0.017456     0.007673     0.006067
Rotational constants in MHz :   523.327182   230.026005   181.888256

                             ****ORCA TERMINATED NORMALLY****
TOTAL RUN TIME: 0 days 0 hours 0 minutes 20 seconds 709 msec
