                         Program Version 4.2.1 -  RELEASE  -
|  1> ! wB97X-D3 SP def2-SVP
|  2> %pal
|  3> nprocs 24
|  4> end
|  5>
|  6> * xyz 0 1
|  7> S 	 -130.367 	 30.4695 	 -20.0242
|  8> C 	 -131.57 	 29.6126 	 -19.1358
|  9> C 	 -132.137 	 28.5962 	 -19.9731
| 10> C 	 -131.432 	 28.4754 	 -21.2452
| 11> C 	 -130.302 	 29.2671 	 -21.3178
| 12> H 	 -131.719 	 27.802 	 -22.0164
| 13> C 	 -133.355 	 27.6996 	 -19.6934
| 14> H 	 -133.91 	 27.8696 	 -20.6175
| 15> H 	 -134.016 	 28.0837 	 -19.0364
| 16> C 	 -133.145 	 26.2549 	 -19.2763
| 17> H 	 -134.149 	 25.7307 	 -19.2078
| 18> H 	 -132.539 	 25.6641 	 -20.0268
| 19> C 	 -132.353 	 26.1097 	 -17.9545
| 20> H 	 -132.607 	 25.043 	 -17.7134
| 21> H 	 -131.274 	 26.1973 	 -18.2192
| 22> H 	 -132.704 	 26.8819 	 -17.2768
| 23> S 	 -128.758 	 30.9317 	 -22.6462
| 24> C 	 -127.964 	 30.4133 	 -24.1055
| 25> C 	 -128.019 	 29.0054 	 -24.2805
| 26> C 	 -128.689 	 28.3976 	 -23.2197
| 27> C 	 -129.345 	 29.3153 	 -22.3458
| 28> H 	 -127.576 	 28.6035 	 -25.1558
| 29> C 	 -128.847 	 26.8888 	 -23.2194
| 30> H 	 -129.235 	 26.6022 	 -22.1747
| 31> H 	 -127.738 	 26.6108 	 -23.1763
| 32> C 	 -129.62 	 26.187 	 -24.3343
| 33> H 	 -129.511 	 25.0812 	 -24.0746
| 34> H 	 -128.949 	 26.204 	 -25.225
| 35> C 	 -131.075 	 26.5515 	 -24.4726
| 36> H 	 -131.386 	 26.3345 	 -25.4496
| 37> H 	 -131.156 	 27.6941 	 -24.2615
| 38> H 	 -131.692 	 25.8925 	 -23.7808
| 39> H 	 -131.942 	 29.8725 	 -18.1733
| 40> H 	 -127.411 	 31.0532 	 -24.7679
| 41> *
| 42>
| 43>                          ****END OF INPUT****

CARTESIAN COORDINATES (ANGSTROEM)
---------------------------------
  S    -130.367000   30.469500  -20.024200
  C    -131.570000   29.612600  -19.135800
  C    -132.137000   28.596200  -19.973100
  C    -131.432000   28.475400  -21.245200
  C    -130.302000   29.267100  -21.317800
  H    -131.719000   27.802000  -22.016400
  C    -133.355000   27.699600  -19.693400
  H    -133.910000   27.869600  -20.617500
  H    -134.016000   28.083700  -19.036400
  C    -133.145000   26.254900  -19.276300
  H    -134.149000   25.730700  -19.207800
  H    -132.539000   25.664100  -20.026800
  C    -132.353000   26.109700  -17.954500
  H    -132.607000   25.043000  -17.713400
  H    -131.274000   26.197300  -18.219200
  H    -132.704000   26.881900  -17.276800
  S    -128.758000   30.931700  -22.646200
  C    -127.964000   30.413300  -24.105500
  C    -128.019000   29.005400  -24.280500
  C    -128.689000   28.397600  -23.219700
  C    -129.345000   29.315300  -22.345800
  H    -127.576000   28.603500  -25.155800
  C    -128.847000   26.888800  -23.219400
  H    -129.235000   26.602200  -22.174700
  H    -127.738000   26.610800  -23.176300
  C    -129.620000   26.187000  -24.334300
  H    -129.511000   25.081200  -24.074600
  H    -128.949000   26.204000  -25.225000
  C    -131.075000   26.551500  -24.472600
  H    -131.386000   26.334500  -25.449600
  H    -131.156000   27.694100  -24.261500
  H    -131.692000   25.892500  -23.780800
  H    -131.942000   29.872500  -18.173300
  H    -127.411000   31.053200  -24.767900

 Total Charge           Charge          ....    0
 Multiplicity           Mult            ....    1
 Number of Electrons    NEL             ....  134
 Basis Dimension        Dim             ....  322

ORBITAL ENERGIES
----------------

  NO   OCC          E(Eh)            E(eV)
   0   2.0000     -88.967201     -2420.9206
   1   2.0000     -88.964543     -2420.8483
   2   2.0000     -10.328751      -281.0596
   3   2.0000     -10.327117      -281.0151
   4   2.0000     -10.319072      -280.7962
   5   2.0000     -10.316064      -280.7144
   6   2.0000     -10.308868      -280.5186
   7   2.0000     -10.307131      -280.4713
   8   2.0000     -10.299583      -280.2659
   9   2.0000     -10.295406      -280.1522
  10   2.0000     -10.293757      -280.1074
  11   2.0000     -10.292468      -280.0723
  12   2.0000     -10.292383      -280.0700
  13   2.0000     -10.289232      -279.9842
  14   2.0000     -10.282980      -279.8141
  15   2.0000     -10.281905      -279.7849
  16   2.0000      -8.082329      -219.9313
  17   2.0000      -8.079496      -219.8543
  18   2.0000      -6.040666      -164.3749
  19   2.0000      -6.038154      -164.3065
  20   2.0000      -6.036741      -164.2681
  21   2.0000      -6.034020      -164.1940
  22   2.0000      -6.033293      -164.1742
  23   2.0000      -6.030056      -164.0862
  24   2.0000      -1.009436       -27.4682
  25   2.0000      -0.980435       -26.6790
  26   2.0000      -0.912752       -24.8372
  27   2.0000      -0.908311       -24.7164
  28   2.0000      -0.873643       -23.7730
  29   2.0000      -0.855180       -23.2706
  30   2.0000      -0.843421       -22.9506
  31   2.0000      -0.812047       -22.0969
  32   2.0000      -0.782586       -21.2952
  33   2.0000      -0.771506       -20.9937
  34   2.0000      -0.710837       -19.3429
  35   2.0000      -0.692478       -18.8433
  36   2.0000      -0.687686       -18.7129
  37   2.0000      -0.662002       -18.0140
  38   2.0000      -0.640934       -17.4407
  39   2.0000      -0.625263       -17.0143
  40   2.0000      -0.586730       -15.9657
  41   2.0000      -0.566906       -15.4263
  42   2.0000      -0.559445       -15.2233
  43   2.0000      -0.553799       -15.0696
  44   2.0000      -0.544476       -14.8159
  45   2.0000      -0.537058       -14.6141
  46   2.0000      -0.516994       -14.0681
  47   2.0000      -0.514313       -13.9952
  48   2.0000      -0.509554       -13.8657
  49   2.0000      -0.500169       -13.6103
  50   2.0000      -0.489116       -13.3095
  51   2.0000      -0.477737       -12.9999
  52   2.0000      -0.470055       -12.7908
  53   2.0000      -0.461853       -12.5676
  54   2.0000      -0.454769       -12.3749
  55   2.0000      -0.453446       -12.3389
  56   2.0000      -0.445080       -12.1112
  57   2.0000      -0.441078       -12.0023
  58   2.0000      -0.436728       -11.8840
  59   2.0000      -0.415647       -11.3103
  60   2.0000      -0.412212       -11.2169
  61   2.0000      -0.405330       -11.0296
  62   2.0000      -0.401697       -10.9307
  63   2.0000      -0.356876        -9.7111
  64   2.0000      -0.336696        -9.1620
  65   2.0000      -0.322220        -8.7680
  66   2.0000      -0.274862        -7.4794
  67   0.0000       0.015702         0.4273
  68   0.0000       0.070384         1.9153
  69   0.0000       0.095324         2.5939
  70   0.0000       0.113986         3.1017
  71   0.0000       0.126419         3.4400

MULLIKEN ATOMIC CHARGES
-----------------------
   0 S :    0.098289
   1 C :   -0.092383
   2 C :   -0.123467
   3 C :    0.024198
   4 C :   -0.108475
   5 H :   -0.017429
   6 C :    0.109100
   7 H :    0.026058
   8 H :   -0.014419
   9 C :   -0.113579
  10 H :    0.040099
  11 H :    0.028191
  12 C :   -0.064100
  13 H :    0.046283
  14 H :    0.059367
  15 H :    0.036163
  16 S :    0.098766
  17 C :   -0.083902
  18 C :   -0.044892
  19 C :   -0.026315
  20 C :   -0.141545
  21 H :    0.011898
  22 C :   -0.012779
  23 H :    0.033496
  24 H :    0.045000
  25 C :   -0.079525
  26 H :    0.035228
  27 H :    0.028458
  28 C :   -0.040541
  29 H :    0.027777
  30 H :    0.073148
  31 H :    0.051729
  32 H :    0.039092
  33 H :    0.051012
Sum of atomic charges:   -0.0000000

LOEWDIN ATOMIC CHARGES
----------------------
   0 S :    0.398842
   1 C :   -0.205539
   2 C :   -0.053164
   3 C :   -0.060942
   4 C :   -0.188328
   5 H :    0.023922
   6 C :   -0.039273
   7 H :    0.039126
   8 H :    0.012825
   9 C :   -0.048249
  10 H :    0.027658
  11 H :    0.023040
  12 C :   -0.068011
  13 H :    0.035982
  14 H :    0.034754
  15 H :    0.021336
  16 S :    0.418317
  17 C :   -0.181846
  18 C :   -0.067424
  19 C :   -0.063160
  20 C :   -0.198261
  21 H :    0.029183
  22 C :   -0.049220
  23 H :    0.032917
  24 H :    0.044228
  25 C :   -0.057384
  26 H :    0.034564
  27 H :    0.025052
  28 C :   -0.070847
  29 H :    0.021514
  30 H :    0.044167
  31 H :    0.037207
  32 H :    0.023390
  33 H :    0.023624

  Mayer bond orders larger than 0.100000
B(  0-S ,  1-C ) :   1.1415 B(  0-S ,  4-C ) :   1.1288 B(  1-C ,  2-C ) :   1.5789
B(  1-C , 32-H ) :   0.9774 B(  2-C ,  3-C ) :   1.2379 B(  2-C ,  6-C ) :   1.0164
B(  3-C ,  4-C ) :   1.5411 B(  3-C ,  5-H ) :   0.9992 B(  4-C , 20-C ) :   1.1290
B(  6-C ,  7-H ) :   0.9334 B(  6-C ,  8-H ) :   0.9359 B(  6-C ,  9-C ) :   1.0689
B(  9-C , 10-H ) :   0.9588 B(  9-C , 11-H ) :   0.9585 B(  9-C , 12-C ) :   1.0539
B( 12-C , 13-H ) :   0.9751 B( 12-C , 14-H ) :   0.9757 B( 12-C , 15-H ) :   0.9792
B( 16-S , 17-C ) :   1.1795 B( 16-S , 20-C ) :   1.1420 B( 17-C , 18-C ) :   1.5676
B( 17-C , 20-C ) :   0.1151 B( 17-C , 33-H ) :   0.9703 B( 18-C , 19-C ) :   1.2586
B( 18-C , 21-H ) :   1.0039 B( 19-C , 20-C ) :   1.5052 B( 19-C , 22-C ) :   1.0404
B( 22-C , 23-H ) :   0.9387 B( 22-C , 24-H ) :   0.9314 B( 22-C , 25-C ) :   1.0721
B( 25-C , 26-H ) :   0.9483 B( 25-C , 27-H ) :   0.9536 B( 25-C , 28-C ) :   1.0618
B( 28-C , 29-H ) :   0.9676 B( 28-C , 30-H ) :   0.9667 B( 28-C , 31-H ) :   0.9653

Dispersion correction           -0.015148191
FINAL SINGLE POINT ENERGY     -1339.843883622049

DIPOLE MOMENT
-------------
                                X             Y             Z
Electronic contribution:     12.31351      26.41947       0.38873
Nuclear contribution   :    -12.55733     -27.02398      -0.75412
                        -----------------------------------------
Total Dipole Moment    :     -0.24382      -0.60451      -0.36539
                        -----------------------------------------
Magnitude (a.u.)       :      0.74725
Magnitude (Debye)      :      1.89936

Rotational constants in cm-1:     0.019133     0.009711     0.006997
Rotational constants in MHz :   573.593036   291.116120   209.760065

                             ****ORCA TERMINATED NORMALLY****
TOTAL RUN TIME: 0 days 0 hours 0 minutes 21 seconds 46 msec
