                         Program Version 4.2.1 -  RELEASE  -
|  1> ! wB97X-D3 SP def2-SVP
|  2> %pal
|  3> nprocs 24
|  4> end
|  5>
|  6> * xyz 0 1
|  7> S 	 -62.2289 	 5.16499 	 -76.5999
|  8> C 	 -62.0284 	 5.95438 	 -75.1181
|  9> C 	 -63.2534 	 6.27651 	 -74.6389
| 10> C 	 -64.3331 	 5.96855 	 -75.5502
| 11> C 	 -63.937 	 5.33936 	 -76.6746
| 12> H 	 -65.4077 	 6.06631 	 -75.3872
| 13> C 	 -63.5194 	 6.94583 	 -73.2714
| 14> H 	 -62.9036 	 6.50119 	 -72.4659
| 15> H 	 -64.4926 	 6.59099 	 -72.9526
| 16> C 	 -63.3659 	 8.48125 	 -73.3356
| 17> H 	 -63.5174 	 8.89302 	 -72.3668
| 18> H 	 -62.3098 	 8.70057 	 -73.514
| 19> C 	 -64.296 	 9.23874 	 -74.3354
| 20> H 	 -64.5501 	 10.284 	 -74.0942
| 21> H 	 -63.8967 	 9.36637 	 -75.407
| 22> H 	 -65.2754 	 8.77271 	 -74.5283
| 23> S 	 -64.1447 	 5.7632 	 -79.3482
| 24> C 	 -65.5944 	 5.34187 	 -80.1598
| 25> C 	 -66.5041 	 4.73156 	 -79.3274
| 26> C 	 -66.0466 	 4.59893 	 -77.9904
| 27> C 	 -64.7168 	 5.02859 	 -77.8897
| 28> H 	 -67.5303 	 4.44535 	 -79.7189
| 29> C 	 -66.8654 	 4.13711 	 -76.8647
| 30> H 	 -67.8265 	 3.79531 	 -77.2614
| 31> H 	 -67.0576 	 4.9978 	 -76.1223
| 32> C 	 -66.4448 	 2.8594 	 -76.2151
| 33> H 	 -65.4022 	 3.06149 	 -75.9868
| 34> H 	 -66.4818 	 2.06769 	 -76.924
| 35> C 	 -67.3306 	 2.58095 	 -75.026
| 36> H 	 -67.5674 	 3.44642 	 -74.3962
| 37> H 	 -66.857 	 1.87957 	 -74.2905
| 38> H 	 -68.3404 	 2.13491 	 -75.2501
| 39> H 	 -61.0922 	 6.18437 	 -74.57
| 40> H 	 -65.8141 	 5.55612 	 -81.2019
| 41> *
| 42>
| 43>                          ****END OF INPUT****

CARTESIAN COORDINATES (ANGSTROEM)
---------------------------------
  S    -62.228900    5.164990  -76.599900
  C    -62.028400    5.954380  -75.118100
  C    -63.253400    6.276510  -74.638900
  C    -64.333100    5.968550  -75.550200
  C    -63.937000    5.339360  -76.674600
  H    -65.407700    6.066310  -75.387200
  C    -63.519400    6.945830  -73.271400
  H    -62.903600    6.501190  -72.465900
  H    -64.492600    6.590990  -72.952600
  C    -63.365900    8.481250  -73.335600
  H    -63.517400    8.893020  -72.366800
  H    -62.309800    8.700570  -73.514000
  C    -64.296000    9.238740  -74.335400
  H    -64.550100   10.284000  -74.094200
  H    -63.896700    9.366370  -75.407000
  H    -65.275400    8.772710  -74.528300
  S    -64.144700    5.763200  -79.348200
  C    -65.594400    5.341870  -80.159800
  C    -66.504100    4.731560  -79.327400
  C    -66.046600    4.598930  -77.990400
  C    -64.716800    5.028590  -77.889700
  H    -67.530300    4.445350  -79.718900
  C    -66.865400    4.137110  -76.864700
  H    -67.826500    3.795310  -77.261400
  H    -67.057600    4.997800  -76.122300
  C    -66.444800    2.859400  -76.215100
  H    -65.402200    3.061490  -75.986800
  H    -66.481800    2.067690  -76.924000
  C    -67.330600    2.580950  -75.026000
  H    -67.567400    3.446420  -74.396200
  H    -66.857000    1.879570  -74.290500
  H    -68.340400    2.134910  -75.250100
  H    -61.092200    6.184370  -74.570000
  H    -65.814100    5.556120  -81.201900

 Total Charge           Charge          ....    0
 Multiplicity           Mult            ....    1
 Number of Electrons    NEL             ....  134
 Basis Dimension        Dim             ....  322

ORBITAL ENERGIES
----------------

  NO   OCC          E(Eh)            E(eV)
   0   2.0000     -88.968858     -2420.9657
   1   2.0000     -88.959587     -2420.7134
   2   2.0000     -10.326154      -280.9889
   3   2.0000     -10.323423      -280.9146
   4   2.0000     -10.314460      -280.6707
   5   2.0000     -10.309154      -280.5263
   6   2.0000     -10.301443      -280.3165
   7   2.0000     -10.297684      -280.2142
   8   2.0000     -10.297206      -280.2012
   9   2.0000     -10.294457      -280.1264
  10   2.0000     -10.290636      -280.0224
  11   2.0000     -10.289669      -279.9961
  12   2.0000     -10.289340      -279.9872
  13   2.0000     -10.284168      -279.8464
  14   2.0000     -10.283025      -279.8153
  15   2.0000     -10.278334      -279.6877
  16   2.0000      -8.084417      -219.9882
  17   2.0000      -8.076195      -219.7644
  18   2.0000      -6.042794      -164.4328
  19   2.0000      -6.038724      -164.3220
  20   2.0000      -6.035336      -164.2298
  21   2.0000      -6.034638      -164.2109
  22   2.0000      -6.030297      -164.0927
  23   2.0000      -6.027024      -164.0037
  24   2.0000      -1.018048       -27.7025
  25   2.0000      -0.995617       -27.0921
  26   2.0000      -0.923950       -25.1420
  27   2.0000      -0.904369       -24.6091
  28   2.0000      -0.871071       -23.7031
  29   2.0000      -0.856357       -23.3027
  30   2.0000      -0.838676       -22.8215
  31   2.0000      -0.816464       -22.2171
  32   2.0000      -0.781273       -21.2595
  33   2.0000      -0.771744       -21.0002
  34   2.0000      -0.708259       -19.2727
  35   2.0000      -0.705660       -19.2020
  36   2.0000      -0.688727       -18.7412
  37   2.0000      -0.664754       -18.0889
  38   2.0000      -0.641106       -17.4454
  39   2.0000      -0.615732       -16.7549
  40   2.0000      -0.597552       -16.2602
  41   2.0000      -0.573825       -15.6146
  42   2.0000      -0.570455       -15.5229
  43   2.0000      -0.541148       -14.7254
  44   2.0000      -0.536804       -14.6072
  45   2.0000      -0.523053       -14.2330
  46   2.0000      -0.517160       -14.0726
  47   2.0000      -0.509837       -13.8734
  48   2.0000      -0.503774       -13.7084
  49   2.0000      -0.498932       -13.5766
  50   2.0000      -0.490563       -13.3489
  51   2.0000      -0.479294       -13.0423
  52   2.0000      -0.472795       -12.8654
  53   2.0000      -0.469458       -12.7746
  54   2.0000      -0.455264       -12.3884
  55   2.0000      -0.452838       -12.3223
  56   2.0000      -0.440848       -11.9961
  57   2.0000      -0.438440       -11.9306
  58   2.0000      -0.434097       -11.8124
  59   2.0000      -0.427902       -11.6438
  60   2.0000      -0.425323       -11.5736
  61   2.0000      -0.405832       -11.0432
  62   2.0000      -0.400160       -10.8889
  63   2.0000      -0.353050        -9.6070
  64   2.0000      -0.333589        -9.0774
  65   2.0000      -0.325699        -8.8627
  66   2.0000      -0.295984        -8.0541
  67   0.0000       0.033687         0.9167
  68   0.0000       0.077448         2.1075
  69   0.0000       0.115739         3.1494
  70   0.0000       0.121870         3.3163
  71   0.0000       0.140021         3.8102

MULLIKEN ATOMIC CHARGES
-----------------------
   0 S :    0.101872
   1 C :   -0.113726
   2 C :   -0.111226
   3 C :    0.030127
   4 C :   -0.161831
   5 H :   -0.002114
   6 C :    0.060036
   7 H :    0.027254
   8 H :    0.013234
   9 C :   -0.015318
  10 H :    0.021333
  11 H :    0.025877
  12 C :   -0.096017
  13 H :    0.034187
  14 H :    0.045164
  15 H :    0.027894
  16 S :    0.130497
  17 C :   -0.093951
  18 C :   -0.053312
  19 C :   -0.032242
  20 C :   -0.122845
  21 H :    0.037152
  22 C :    0.002211
  23 H :    0.003856
  24 H :    0.055244
  25 C :   -0.020220
  26 H :    0.033864
  27 H :    0.024777
  28 C :   -0.067475
  29 H :    0.022302
  30 H :    0.038202
  31 H :    0.038182
  32 H :    0.061021
  33 H :    0.055992
Sum of atomic charges:   -0.0000000

LOEWDIN ATOMIC CHARGES
----------------------
   0 S :    0.431715
   1 C :   -0.218679
   2 C :   -0.068703
   3 C :   -0.072562
   4 C :   -0.209179
   5 H :    0.028588
   6 C :   -0.031551
   7 H :    0.033272
   8 H :    0.024932
   9 C :   -0.037021
  10 H :    0.020235
  11 H :    0.026701
  12 C :   -0.083619
  13 H :    0.027439
  14 H :    0.036445
  15 H :    0.024217
  16 S :    0.443160
  17 C :   -0.200225
  18 C :   -0.077412
  19 C :   -0.058493
  20 C :   -0.206585
  21 H :    0.042155
  22 C :   -0.042667
  23 H :    0.029588
  24 H :    0.038005
  25 C :   -0.035871
  26 H :    0.024780
  27 H :    0.024950
  28 C :   -0.074009
  29 H :    0.023707
  30 H :    0.032004
  31 H :    0.030460
  32 H :    0.043177
  33 H :    0.031047

  Mayer bond orders larger than 0.100000
B(  0-S ,  1-C ) :   1.1443 B(  0-S ,  4-C ) :   1.1618 B(  1-C ,  2-C ) :   1.6157
B(  1-C , 32-H ) :   0.9668 B(  2-C ,  3-C ) :   1.2437 B(  2-C ,  6-C ) :   1.0114
B(  3-C ,  4-C ) :   1.5833 B(  3-C ,  5-H ) :   0.9904 B(  4-C , 20-C ) :   1.0031
B(  6-C ,  7-H ) :   0.9464 B(  6-C ,  8-H ) :   0.9436 B(  6-C ,  9-C ) :   1.0742
B(  9-C , 10-H ) :   0.9591 B(  9-C , 11-H ) :   0.9571 B(  9-C , 12-C ) :   1.0530
B( 12-C , 13-H ) :   0.9781 B( 12-C , 14-H ) :   0.9750 B( 12-C , 15-H ) :   0.9787
B( 16-S , 17-C ) :   1.1753 B( 16-S , 20-C ) :   1.1699 B( 17-C , 18-C ) :   1.5874
B( 17-C , 33-H ) :   0.9649 B( 18-C , 19-C ) :   1.2788 B( 18-C , 21-H ) :   0.9807
B( 19-C , 20-C ) :   1.5504 B( 19-C , 22-C ) :   1.0561 B( 22-C , 23-H ) :   0.9271
B( 22-C , 24-H ) :   0.9263 B( 22-C , 25-C ) :   1.0596 B( 25-C , 26-H ) :   0.9572
B( 25-C , 27-H ) :   0.9502 B( 25-C , 28-C ) :   1.0802 B( 28-C , 29-H ) :   0.9728
B( 28-C , 30-H ) :   0.9727 B( 28-C , 31-H ) :   0.9728

Dispersion correction           -0.014889537
FINAL SINGLE POINT ENERGY     -1339.878413140912

DIPOLE MOMENT
-------------
                                X             Y             Z
Electronic contribution:     14.35308      -2.86271     -20.25229
Nuclear contribution   :    -14.84592       3.02597      20.61977
                        -----------------------------------------
Total Dipole Moment    :     -0.49284       0.16326       0.36748
                        -----------------------------------------
Magnitude (a.u.)       :      0.63608
Magnitude (Debye)      :      1.61678

Rotational constants in cm-1:     0.017326     0.009548     0.007884
Rotational constants in MHz :   519.426795   286.249874   236.354180

                             ****ORCA TERMINATED NORMALLY****
TOTAL RUN TIME: 0 days 0 hours 0 minutes 22 seconds 279 msec
