                         Program Version 4.2.1 -  RELEASE  -
|  1> ! wB97X-D3 SP def2-SVP
|  2> %pal
|  3> nprocs 24
|  4> end
|  5>
|  6> * xyz 0 1
|  7> S 	 -60.6711 	 -57.4799 	 -76.9446
|  8> C 	 -62.0722 	 -57.3289 	 -75.8441
|  9> C 	 -62.8922 	 -56.2524 	 -76.2183
| 10> C 	 -62.3089 	 -55.5245 	 -77.3363
| 11> C 	 -61.0051 	 -55.9519 	 -77.6997
| 12> H 	 -62.8404 	 -54.6855 	 -77.7775
| 13> C 	 -64.2283 	 -56.0783 	 -75.5436
| 14> H 	 -64.5733 	 -57.0492 	 -75.179
| 15> H 	 -64.9698 	 -55.9448 	 -76.3989
| 16> C 	 -64.4848 	 -54.892 	 -74.5686
| 17> H 	 -64.4977 	 -53.9495 	 -75.0486
| 18> H 	 -65.5137 	 -55.0702 	 -74.2599
| 19> C 	 -63.4889 	 -54.9556 	 -73.4592
| 20> H 	 -63.7894 	 -54.2651 	 -72.7016
| 21> H 	 -63.4661 	 -55.9812 	 -73.0554
| 22> H 	 -62.4681 	 -54.6509 	 -73.7921
| 23> S 	 -60.2234 	 -56.1198 	 -80.3472
| 24> C 	 -59.2768 	 -54.7719 	 -80.9419
| 25> C 	 -59.0428 	 -53.7801 	 -80.0295
| 26> C 	 -59.6284 	 -54.0978 	 -78.7808
| 27> C 	 -60.1224 	 -55.3965 	 -78.7005
| 28> H 	 -58.4977 	 -52.8556 	 -80.34
| 29> C 	 -59.6009 	 -53.0695 	 -77.5944
| 30> H 	 -60.4122 	 -53.2998 	 -76.8729
| 31> H 	 -59.9059 	 -52.1645 	 -78.0682
| 32> C 	 -58.2659 	 -52.6795 	 -76.9652
| 33> H 	 -58.4857 	 -51.9464 	 -76.2259
| 34> H 	 -57.7063 	 -52.1719 	 -77.6888
| 35> C 	 -57.4523 	 -53.8615 	 -76.3409
| 36> H 	 -56.6276 	 -53.4655 	 -75.7809
| 37> H 	 -57.2324 	 -54.6766 	 -77.0425
| 38> H 	 -58.0637 	 -54.4399 	 -75.5737
| 39> H 	 -62.334 	 -58.1569 	 -75.1776
| 40> H 	 -58.9697 	 -54.6268 	 -82.0051
| 41> *
| 42>
| 43>                          ****END OF INPUT****

CARTESIAN COORDINATES (ANGSTROEM)
---------------------------------
  S    -60.671100  -57.479900  -76.944600
  C    -62.072200  -57.328900  -75.844100
  C    -62.892200  -56.252400  -76.218300
  C    -62.308900  -55.524500  -77.336300
  C    -61.005100  -55.951900  -77.699700
  H    -62.840400  -54.685500  -77.777500
  C    -64.228300  -56.078300  -75.543600
  H    -64.573300  -57.049200  -75.179000
  H    -64.969800  -55.944800  -76.398900
  C    -64.484800  -54.892000  -74.568600
  H    -64.497700  -53.949500  -75.048600
  H    -65.513700  -55.070200  -74.259900
  C    -63.488900  -54.955600  -73.459200
  H    -63.789400  -54.265100  -72.701600
  H    -63.466100  -55.981200  -73.055400
  H    -62.468100  -54.650900  -73.792100
  S    -60.223400  -56.119800  -80.347200
  C    -59.276800  -54.771900  -80.941900
  C    -59.042800  -53.780100  -80.029500
  C    -59.628400  -54.097800  -78.780800
  C    -60.122400  -55.396500  -78.700500
  H    -58.497700  -52.855600  -80.340000
  C    -59.600900  -53.069500  -77.594400
  H    -60.412200  -53.299800  -76.872900
  H    -59.905900  -52.164500  -78.068200
  C    -58.265900  -52.679500  -76.965200
  H    -58.485700  -51.946400  -76.225900
  H    -57.706300  -52.171900  -77.688800
  C    -57.452300  -53.861500  -76.340900
  H    -56.627600  -53.465500  -75.780900
  H    -57.232400  -54.676600  -77.042500
  H    -58.063700  -54.439900  -75.573700
  H    -62.334000  -58.156900  -75.177600
  H    -58.969700  -54.626800  -82.005100

 Total Charge           Charge          ....    0
 Multiplicity           Mult            ....    1
 Number of Electrons    NEL             ....  134
 Basis Dimension        Dim             ....  322

ORBITAL ENERGIES
----------------

  NO   OCC          E(Eh)            E(eV)
   0   2.0000     -88.966877     -2420.9118
   1   2.0000     -88.962641     -2420.7965
   2   2.0000     -10.330828      -281.1161
   3   2.0000     -10.325765      -280.9784
   4   2.0000     -10.321459      -280.8612
   5   2.0000     -10.316909      -280.7374
   6   2.0000     -10.309058      -280.5237
   7   2.0000     -10.305912      -280.4381
   8   2.0000     -10.301241      -280.3110
   9   2.0000     -10.296855      -280.1917
  10   2.0000     -10.296104      -280.1712
  11   2.0000     -10.290666      -280.0233
  12   2.0000     -10.283530      -279.8291
  13   2.0000     -10.281249      -279.7670
  14   2.0000     -10.275425      -279.6085
  15   2.0000     -10.273805      -279.5644
  16   2.0000      -8.080972      -219.8944
  17   2.0000      -8.077107      -219.7893
  18   2.0000      -6.039506      -164.3433
  19   2.0000      -6.035773      -164.2417
  20   2.0000      -6.035505      -164.2344
  21   2.0000      -6.031621      -164.1288
  22   2.0000      -6.031520      -164.1260
  23   2.0000      -6.028048      -164.0315
  24   2.0000      -1.000727       -27.2312
  25   2.0000      -0.976841       -26.5812
  26   2.0000      -0.913201       -24.8495
  27   2.0000      -0.902756       -24.5652
  28   2.0000      -0.868686       -23.6381
  29   2.0000      -0.844161       -22.9708
  30   2.0000      -0.842052       -22.9134
  31   2.0000      -0.807271       -21.9669
  32   2.0000      -0.783193       -21.3118
  33   2.0000      -0.771196       -20.9853
  34   2.0000      -0.711383       -19.3577
  35   2.0000      -0.696837       -18.9619
  36   2.0000      -0.688728       -18.7412
  37   2.0000      -0.652740       -17.7620
  38   2.0000      -0.635777       -17.3004
  39   2.0000      -0.616145       -16.7662
  40   2.0000      -0.590111       -16.0577
  41   2.0000      -0.565437       -15.3863
  42   2.0000      -0.552857       -15.0440
  43   2.0000      -0.547918       -14.9096
  44   2.0000      -0.544749       -14.8234
  45   2.0000      -0.538268       -14.6470
  46   2.0000      -0.513040       -13.9605
  47   2.0000      -0.505131       -13.7453
  48   2.0000      -0.496460       -13.5094
  49   2.0000      -0.494440       -13.4544
  50   2.0000      -0.489583       -13.3222
  51   2.0000      -0.474087       -12.9006
  52   2.0000      -0.465238       -12.6598
  53   2.0000      -0.461150       -12.5485
  54   2.0000      -0.455819       -12.4035
  55   2.0000      -0.451873       -12.2961
  56   2.0000      -0.444565       -12.0972
  57   2.0000      -0.437253       -11.8983
  58   2.0000      -0.433126       -11.7860
  59   2.0000      -0.420181       -11.4337
  60   2.0000      -0.416837       -11.3427
  61   2.0000      -0.414454       -11.2779
  62   2.0000      -0.408868       -11.1259
  63   2.0000      -0.338185        -9.2025
  64   2.0000      -0.327111        -8.9012
  65   2.0000      -0.324186        -8.8216
  66   2.0000      -0.300069        -8.1653
  67   0.0000       0.033079         0.9001
  68   0.0000       0.053999         1.4694
  69   0.0000       0.104440         2.8420
  70   0.0000       0.109723         2.9857
  71   0.0000       0.132263         3.5990

MULLIKEN ATOMIC CHARGES
-----------------------
   0 S :    0.099488
   1 C :   -0.136357
   2 C :   -0.096018
   3 C :    0.060515
   4 C :   -0.185960
   5 H :    0.014154
   6 C :   -0.005646
   7 H :    0.024985
   8 H :    0.030523
   9 C :   -0.021587
  10 H :    0.019639
  11 H :    0.025502
  12 C :   -0.041689
  13 H :    0.026305
  14 H :    0.029080
  15 H :    0.049356
  16 S :    0.105467
  17 C :   -0.098005
  18 C :   -0.050906
  19 C :   -0.046683
  20 C :   -0.135700
  21 H :    0.038941
  22 C :    0.065687
  23 H :    0.034635
  24 H :    0.009981
  25 C :   -0.019943
  26 H :    0.021713
  27 H :    0.009776
  28 C :   -0.069434
  29 H :    0.034886
  30 H :    0.049585
  31 H :    0.029407
  32 H :    0.060908
  33 H :    0.067392
Sum of atomic charges:   -0.0000000

LOEWDIN ATOMIC CHARGES
----------------------
   0 S :    0.397281
   1 C :   -0.191640
   2 C :   -0.064911
   3 C :   -0.058591
   4 C :   -0.205313
   5 H :    0.029972
   6 C :   -0.041192
   7 H :    0.030098
   8 H :    0.038236
   9 C :   -0.036279
  10 H :    0.018314
  11 H :    0.026856
  12 C :   -0.064403
  13 H :    0.020948
  14 H :    0.027142
  15 H :    0.033225
  16 S :    0.387233
  17 C :   -0.178702
  18 C :   -0.085053
  19 C :   -0.039846
  20 C :   -0.203317
  21 H :    0.043004
  22 C :   -0.028060
  23 H :    0.031550
  24 H :    0.027942
  25 C :   -0.031877
  26 H :    0.025203
  27 H :    0.014443
  28 C :   -0.072241
  29 H :    0.022232
  30 H :    0.030169
  31 H :    0.032181
  32 H :    0.028232
  33 H :    0.037162

  Mayer bond orders larger than 0.100000
B(  0-S ,  1-C ) :   1.1427 B(  0-S ,  4-C ) :   1.1633 B(  1-C ,  2-C ) :   1.5789
B(  1-C ,  4-C ) :   0.1025 B(  1-C , 32-H ) :   0.9688 B(  2-C ,  3-C ) :   1.2573
B(  2-C ,  6-C ) :   1.0223 B(  3-C ,  4-C ) :   1.5354 B(  3-C ,  5-H ) :   0.9956
B(  4-C , 20-C ) :   1.0292 B(  6-C ,  7-H ) :   0.9490 B(  6-C ,  8-H ) :   0.9363
B(  6-C ,  9-C ) :   1.0651 B(  9-C , 10-H ) :   0.9545 B(  9-C , 11-H ) :   0.9508
B(  9-C , 12-C ) :   1.0841 B( 12-C , 13-H ) :   0.9719 B( 12-C , 14-H ) :   0.9751
B( 12-C , 15-H ) :   0.9697 B( 16-S , 17-C ) :   1.1630 B( 16-S , 20-C ) :   1.1168
B( 17-C , 18-C ) :   1.6334 B( 17-C , 33-H ) :   0.9555 B( 18-C , 19-C ) :   1.2221
B( 18-C , 21-H ) :   0.9853 B( 19-C , 20-C ) :   1.6166 B( 19-C , 22-C ) :   1.0294
B( 22-C , 23-H ) :   0.9387 B( 22-C , 24-H ) :   0.9277 B( 22-C , 25-C ) :   1.0864
B( 25-C , 26-H ) :   0.9490 B( 25-C , 27-H ) :   0.9514 B( 25-C , 28-C ) :   1.0717
B( 28-C , 29-H ) :   0.9759 B( 28-C , 30-H ) :   0.9754 B( 28-C , 31-H ) :   0.9751

Dispersion correction           -0.014858735
FINAL SINGLE POINT ENERGY     -1339.869824539230

DIPOLE MOMENT
-------------
                                X             Y             Z
Electronic contribution:      4.17870     -15.32398     -20.02149
Nuclear contribution   :     -4.56765      15.98894      20.14628
                        -----------------------------------------
Total Dipole Moment    :     -0.38896       0.66496       0.12478
                        -----------------------------------------
Magnitude (a.u.)       :      0.78040
Magnitude (Debye)      :      1.98362

Rotational constants in cm-1:     0.019082     0.008679     0.007291
Rotational constants in MHz :   572.077350   260.190213   218.579179

                             ****ORCA TERMINATED NORMALLY****
TOTAL RUN TIME: 0 days 0 hours 0 minutes 21 seconds 857 msec
