                         Program Version 4.2.1 -  RELEASE  -
|  1> ! wB97X-D3 SP def2-SVP
|  2> %pal
|  3> nprocs 24
|  4> end
|  5>
|  6> * xyz 0 1
|  7> S 	 -4.9094 	 -29.3957 	 -113.803
|  8> C 	 -5.93497 	 -29.5453 	 -115.245
|  9> C 	 -6.90495 	 -30.5351 	 -115.031
| 10> C 	 -6.89051 	 -31.016 	 -113.703
| 11> C 	 -5.88635 	 -30.5406 	 -112.902
| 12> H 	 -7.57453 	 -31.7541 	 -113.256
| 13> C 	 -7.94145 	 -31.1403 	 -115.986
| 14> H 	 -8.23131 	 -32.1292 	 -115.668
| 15> H 	 -7.42108 	 -31.1589 	 -116.985
| 16> C 	 -9.20639 	 -30.2716 	 -116.129
| 17> H 	 -8.73412 	 -29.2186 	 -116.286
| 18> H 	 -9.67989 	 -30.5251 	 -117.046
| 19> C 	 -10.0975 	 -30.2684 	 -114.915
| 20> H 	 -9.55108 	 -29.9536 	 -113.977
| 21> H 	 -10.9414 	 -29.5649 	 -115.095
| 22> H 	 -10.5459 	 -31.2476 	 -114.697
| 23> S 	 -4.10718 	 -31.9125 	 -111.209
| 24> C 	 -4.54462 	 -32.0634 	 -109.508
| 25> C 	 -5.71513 	 -31.4726 	 -109.181
| 26> C 	 -6.33877 	 -30.8478 	 -110.346
| 27> C 	 -5.59277 	 -31.005 	 -111.542
| 28> H 	 -6.15613 	 -31.4044 	 -108.181
| 29> C 	 -7.64892 	 -30.1379 	 -110.162
| 30> H 	 -7.59142 	 -29.4809 	 -111.019
| 31> H 	 -7.57722 	 -29.6169 	 -109.218
| 32> C 	 -8.97717 	 -30.918 	 -110.313
| 33> H 	 -9.17481 	 -31.2307 	 -111.287
| 34> H 	 -9.81668 	 -30.2305 	 -110.23
| 35> C 	 -9.15736 	 -31.8861 	 -109.188
| 36> H 	 -8.36743 	 -32.6251 	 -109.257
| 37> H 	 -10.1873 	 -32.3062 	 -109.028
| 38> H 	 -8.9807 	 -31.35 	 -108.278
| 39> H 	 -5.79629 	 -28.8845 	 -116.101
| 40> H 	 -4.02236 	 -32.71 	 -108.807
| 41> *
| 42>
| 43>                          ****END OF INPUT****

CARTESIAN COORDINATES (ANGSTROEM)
---------------------------------
  S     -4.909400  -29.395700  -113.803000
  C     -5.934970  -29.545300  -115.245000
  C     -6.904950  -30.535100  -115.031000
  C     -6.890510  -31.016000  -113.703000
  C     -5.886350  -30.540600  -112.902000
  H     -7.574530  -31.754100  -113.256000
  C     -7.941450  -31.140300  -115.986000
  H     -8.231310  -32.129200  -115.668000
  H     -7.421080  -31.158900  -116.985000
  C     -9.206390  -30.271600  -116.129000
  H     -8.734120  -29.218600  -116.286000
  H     -9.679890  -30.525100  -117.046000
  C    -10.097500  -30.268400  -114.915000
  H     -9.551080  -29.953600  -113.977000
  H    -10.941400  -29.564900  -115.095000
  H    -10.545900  -31.247600  -114.697000
  S     -4.107180  -31.912500  -111.209000
  C     -4.544620  -32.063400  -109.508000
  C     -5.715130  -31.472600  -109.181000
  C     -6.338770  -30.847800  -110.346000
  C     -5.592770  -31.005000  -111.542000
  H     -6.156130  -31.404400  -108.181000
  C     -7.648920  -30.137900  -110.162000
  H     -7.591420  -29.480900  -111.019000
  H     -7.577220  -29.616900  -109.218000
  C     -8.977170  -30.918000  -110.313000
  H     -9.174810  -31.230700  -111.287000
  H     -9.816680  -30.230500  -110.230000
  C     -9.157360  -31.886100  -109.188000
  H     -8.367430  -32.625100  -109.257000
  H    -10.187300  -32.306200  -109.028000
  H     -8.980700  -31.350000  -108.278000
  H     -5.796290  -28.884500  -116.101000
  H     -4.022360  -32.710000  -108.807000

 Total Charge           Charge          ....    0
 Multiplicity           Mult            ....    1
 Number of Electrons    NEL             ....  134
 Basis Dimension        Dim             ....  322

ORBITAL ENERGIES
----------------

  NO   OCC          E(Eh)            E(eV)
   0   2.0000     -88.967477     -2420.9281
   1   2.0000     -88.966134     -2420.8916
   2   2.0000     -10.331246      -281.1275
   3   2.0000     -10.329056      -281.0679
   4   2.0000     -10.323779      -280.9243
   5   2.0000     -10.317401      -280.7508
   6   2.0000     -10.305961      -280.4395
   7   2.0000     -10.305291      -280.4212
   8   2.0000     -10.295975      -280.1677
   9   2.0000     -10.294151      -280.1181
  10   2.0000     -10.292617      -280.0763
  11   2.0000     -10.290693      -280.0240
  12   2.0000     -10.287346      -279.9329
  13   2.0000     -10.285290      -279.8770
  14   2.0000     -10.280175      -279.7378
  15   2.0000     -10.274914      -279.5946
  16   2.0000      -8.081706      -219.9144
  17   2.0000      -8.080337      -219.8771
  18   2.0000      -6.040224      -164.3628
  19   2.0000      -6.038968      -164.3287
  20   2.0000      -6.036178      -164.2528
  21   2.0000      -6.034974      -164.2200
  22   2.0000      -6.032576      -164.1548
  23   2.0000      -6.030945      -164.1104
  24   2.0000      -1.002416       -27.2771
  25   2.0000      -0.980764       -26.6879
  26   2.0000      -0.913927       -24.8692
  27   2.0000      -0.912273       -24.8242
  28   2.0000      -0.868491       -23.6329
  29   2.0000      -0.850542       -23.1444
  30   2.0000      -0.845650       -23.0113
  31   2.0000      -0.815832       -22.1999
  32   2.0000      -0.783210       -21.3122
  33   2.0000      -0.769242       -20.9321
  34   2.0000      -0.714140       -19.4327
  35   2.0000      -0.699718       -19.0403
  36   2.0000      -0.688903       -18.7460
  37   2.0000      -0.659670       -17.9505
  38   2.0000      -0.644827       -17.5466
  39   2.0000      -0.610625       -16.6159
  40   2.0000      -0.587897       -15.9975
  41   2.0000      -0.574626       -15.6364
  42   2.0000      -0.557037       -15.1577
  43   2.0000      -0.554148       -15.0791
  44   2.0000      -0.549689       -14.9578
  45   2.0000      -0.540633       -14.7114
  46   2.0000      -0.513914       -13.9843
  47   2.0000      -0.513729       -13.9793
  48   2.0000      -0.504304       -13.7228
  49   2.0000      -0.496180       -13.5018
  50   2.0000      -0.484764       -13.1911
  51   2.0000      -0.480766       -13.0823
  52   2.0000      -0.478315       -13.0156
  53   2.0000      -0.468665       -12.7530
  54   2.0000      -0.457710       -12.4549
  55   2.0000      -0.443670       -12.0729
  56   2.0000      -0.438809       -11.9406
  57   2.0000      -0.437052       -11.8928
  58   2.0000      -0.433075       -11.7846
  59   2.0000      -0.429272       -11.6811
  60   2.0000      -0.423747       -11.5307
  61   2.0000      -0.413008       -11.2385
  62   2.0000      -0.403677       -10.9846
  63   2.0000      -0.344084        -9.3630
  64   2.0000      -0.331677        -9.0254
  65   2.0000      -0.325838        -8.8665
  66   2.0000      -0.298247        -8.1157
  67   0.0000       0.034642         0.9426
  68   0.0000       0.057908         1.5758
  69   0.0000       0.113538         3.0895
  70   0.0000       0.118547         3.2258
  71   0.0000       0.123806         3.3689

MULLIKEN ATOMIC CHARGES
-----------------------
   0 S :    0.111801
   1 C :   -0.147899
   2 C :   -0.070680
   3 C :    0.017336
   4 C :   -0.175892
   5 H :    0.023819
   6 C :    0.058891
   7 H :    0.022263
   8 H :    0.038065
   9 C :   -0.067489
  10 H :    0.029603
  11 H :    0.027722
  12 C :   -0.069080
  13 H :    0.051193
  14 H :    0.043583
  15 H :    0.029347
  16 S :    0.107105
  17 C :   -0.082252
  18 C :   -0.026723
  19 C :   -0.070876
  20 C :   -0.161089
  21 H :    0.027317
  22 C :    0.058912
  23 H :    0.026947
  24 H :    0.028027
  25 C :   -0.004708
  26 H :   -0.001229
  27 H :    0.012771
  28 C :   -0.042837
  29 H :    0.037546
  30 H :    0.041672
  31 H :    0.007218
  32 H :    0.060902
  33 H :    0.058716
Sum of atomic charges:    0.0000000

LOEWDIN ATOMIC CHARGES
----------------------
   0 S :    0.399715
   1 C :   -0.190634
   2 C :   -0.063365
   3 C :   -0.066471
   4 C :   -0.202186
   5 H :    0.035398
   6 C :   -0.028681
   7 H :    0.024111
   8 H :    0.038480
   9 C :   -0.044501
  10 H :    0.032761
  11 H :    0.017894
  12 C :   -0.074945
  13 H :    0.033907
  14 H :    0.032650
  15 H :    0.023118
  16 S :    0.390745
  17 C :   -0.176745
  18 C :   -0.076679
  19 C :   -0.049375
  20 C :   -0.201242
  21 H :    0.036039
  22 C :   -0.029546
  23 H :    0.034691
  24 H :    0.031207
  25 C :   -0.035565
  26 H :    0.012068
  27 H :    0.026975
  28 C :   -0.067036
  29 H :    0.023732
  30 H :    0.032233
  31 H :    0.019438
  32 H :    0.030832
  33 H :    0.030973

  Mayer bond orders larger than 0.100000
B(  0-S ,  1-C ) :   1.1465 B(  0-S ,  4-C ) :   1.1493 B(  1-C ,  2-C ) :   1.5804
B(  1-C ,  4-C ) :   0.1039 B(  1-C , 32-H ) :   0.9730 B(  2-C ,  3-C ) :   1.2515
B(  2-C ,  6-C ) :   1.0170 B(  3-C ,  4-C ) :   1.5803 B(  3-C ,  5-H ) :   0.9864
B(  4-C , 20-C ) :   1.0312 B(  6-C ,  7-H ) :   0.9456 B(  6-C ,  8-H ) :   0.9392
B(  6-C ,  9-C ) :   1.0690 B(  9-C , 10-H ) :   0.9536 B(  9-C , 11-H ) :   0.9574
B(  9-C , 12-C ) :   1.0799 B( 12-C , 13-H ) :   0.9687 B( 12-C , 14-H ) :   0.9708
B( 12-C , 15-H ) :   0.9730 B( 16-S , 17-C ) :   1.1451 B( 16-S , 20-C ) :   1.1264
B( 17-C , 18-C ) :   1.6339 B( 17-C , 33-H ) :   0.9601 B( 18-C , 19-C ) :   1.2207
B( 18-C , 21-H ) :   0.9848 B( 19-C , 20-C ) :   1.6123 B( 19-C , 22-C ) :   1.0405
B( 22-C , 23-H ) :   0.9191 B( 22-C , 24-H ) :   0.9394 B( 22-C , 25-C ) :   1.0871
B( 25-C , 26-H ) :   0.9522 B( 25-C , 27-H ) :   0.9444 B( 25-C , 28-C ) :   1.0718
B( 28-C , 29-H ) :   0.9759 B( 28-C , 30-H ) :   0.9707 B( 28-C , 31-H ) :   0.9684

Dispersion correction           -0.015465249
FINAL SINGLE POINT ENERGY     -1339.878802193533

DIPOLE MOMENT
-------------
                                X             Y             Z
Electronic contribution:     29.07231       1.06877       0.15451
Nuclear contribution   :    -29.78633      -1.13822      -0.15077
                        -----------------------------------------
Total Dipole Moment    :     -0.71402      -0.06945       0.00374
                        -----------------------------------------
Magnitude (a.u.)       :      0.71740
Magnitude (Debye)      :      1.82348

Rotational constants in cm-1:     0.018060     0.009854     0.007061
Rotational constants in MHz :   541.413735   295.402013   211.678438

                             ****ORCA TERMINATED NORMALLY****
TOTAL RUN TIME: 0 days 0 hours 0 minutes 22 seconds 394 msec
