                         Program Version 4.2.1 -  RELEASE  -
|  1> ! wB97X-D3 SP def2-SVP
|  2> %pal
|  3> nprocs 24
|  4> end
|  5>
|  6> * xyz 0 1
|  7> S 	 -132.855 	 16.1127 	 -15.9349
|  8> C 	 -132.432 	 14.4929 	 -15.4397
|  9> C 	 -132.805 	 13.6144 	 -16.3768
| 10> C 	 -133.68 	 14.2134 	 -17.3767
| 11> C 	 -133.807 	 15.5423 	 -17.2976
| 12> H 	 -134.192 	 13.6723 	 -18.2081
| 13> C 	 -132.328 	 12.2149 	 -16.4855
| 14> H 	 -131.314 	 12.2268 	 -16.088
| 15> H 	 -132.136 	 11.8226 	 -17.4846
| 16> C 	 -133.081 	 11.2265 	 -15.5351
| 17> H 	 -132.524 	 10.2875 	 -15.5859
| 18> H 	 -132.979 	 11.5646 	 -14.5677
| 19> C 	 -134.547 	 11.1423 	 -15.8725
| 20> H 	 -135.01 	 10.4582 	 -15.1723
| 21> H 	 -135.035 	 12.0858 	 -15.8428
| 22> H 	 -134.687 	 10.7128 	 -16.9099
| 23> S 	 -135.7 	 17.5231 	 -17.7711
| 24> C 	 -135.937 	 18.1888 	 -19.3276
| 25> C 	 -135.009 	 17.5883 	 -20.1949
| 26> C 	 -134.236 	 16.5587 	 -19.6073
| 27> C 	 -134.407 	 16.4714 	 -18.2088
| 28> H 	 -135.222 	 17.7639 	 -21.2046
| 29> C 	 -133.328 	 15.6728 	 -20.4923
| 30> H 	 -133.896 	 15.1599 	 -21.2897
| 31> H 	 -132.982 	 14.935 	 -19.8065
| 32> C 	 -132.097 	 16.3916 	 -21.1121
| 33> H 	 -131.351 	 16.662 	 -20.3158
| 34> H 	 -132.374 	 17.2761 	 -21.6345
| 35> C 	 -131.346 	 15.3729 	 -22.0082
| 36> H 	 -131.028 	 14.493 	 -21.3396
| 37> H 	 -130.417 	 15.7218 	 -22.4932
| 38> H 	 -132.158 	 15.0988 	 -22.678
| 39> H 	 -131.781 	 14.1925 	 -14.6482
| 40> H 	 -136.613 	 18.972 	 -19.6304
| 41> *
| 42>
| 43>                          ****END OF INPUT****

CARTESIAN COORDINATES (ANGSTROEM)
---------------------------------
  S    -132.855000   16.112700  -15.934900
  C    -132.432000   14.492900  -15.439700
  C    -132.805000   13.614400  -16.376800
  C    -133.680000   14.213400  -17.376700
  C    -133.807000   15.542300  -17.297600
  H    -134.192000   13.672300  -18.208100
  C    -132.328000   12.214900  -16.485500
  H    -131.314000   12.226800  -16.088000
  H    -132.136000   11.822600  -17.484600
  C    -133.081000   11.226500  -15.535100
  H    -132.524000   10.287500  -15.585900
  H    -132.979000   11.564600  -14.567700
  C    -134.547000   11.142300  -15.872500
  H    -135.010000   10.458200  -15.172300
  H    -135.035000   12.085800  -15.842800
  H    -134.687000   10.712800  -16.909900
  S    -135.700000   17.523100  -17.771100
  C    -135.937000   18.188800  -19.327600
  C    -135.009000   17.588300  -20.194900
  C    -134.236000   16.558700  -19.607300
  C    -134.407000   16.471400  -18.208800
  H    -135.222000   17.763900  -21.204600
  C    -133.328000   15.672800  -20.492300
  H    -133.896000   15.159900  -21.289700
  H    -132.982000   14.935000  -19.806500
  C    -132.097000   16.391600  -21.112100
  H    -131.351000   16.662000  -20.315800
  H    -132.374000   17.276100  -21.634500
  C    -131.346000   15.372900  -22.008200
  H    -131.028000   14.493000  -21.339600
  H    -130.417000   15.721800  -22.493200
  H    -132.158000   15.098800  -22.678000
  H    -131.781000   14.192500  -14.648200
  H    -136.613000   18.972000  -19.630400

 Total Charge           Charge          ....    0
 Multiplicity           Mult            ....    1
 Number of Electrons    NEL             ....  134
 Basis Dimension        Dim             ....  322

ORBITAL ENERGIES
----------------

  NO   OCC          E(Eh)            E(eV)
   0   2.0000     -88.967855     -2420.9384
   1   2.0000     -88.960455     -2420.7371
   2   2.0000     -10.326264      -280.9919
   3   2.0000     -10.325366      -280.9675
   4   2.0000     -10.318461      -280.7796
   5   2.0000     -10.309098      -280.5248
   6   2.0000     -10.306977      -280.4671
   7   2.0000     -10.296625      -280.1854
   8   2.0000     -10.294347      -280.1234
   9   2.0000     -10.292236      -280.0660
  10   2.0000     -10.288608      -279.9673
  11   2.0000     -10.288082      -279.9530
  12   2.0000     -10.286015      -279.8967
  13   2.0000     -10.284329      -279.8508
  14   2.0000     -10.280247      -279.7397
  15   2.0000     -10.273077      -279.5446
  16   2.0000      -8.083352      -219.9592
  17   2.0000      -8.075631      -219.7491
  18   2.0000      -6.041648      -164.4016
  19   2.0000      -6.037457      -164.2876
  20   2.0000      -6.034555      -164.2086
  21   2.0000      -6.034297      -164.2016
  22   2.0000      -6.030157      -164.0889
  23   2.0000      -6.026084      -163.9781
  24   2.0000      -1.013866       -27.5887
  25   2.0000      -0.992021       -26.9943
  26   2.0000      -0.916850       -24.9488
  27   2.0000      -0.906092       -24.6560
  28   2.0000      -0.877126       -23.8678
  29   2.0000      -0.849537       -23.1171
  30   2.0000      -0.842271       -22.9194
  31   2.0000      -0.821124       -22.3439
  32   2.0000      -0.782590       -21.2954
  33   2.0000      -0.768997       -20.9255
  34   2.0000      -0.708266       -19.2729
  35   2.0000      -0.704803       -19.1787
  36   2.0000      -0.694065       -18.8865
  37   2.0000      -0.659559       -17.9475
  38   2.0000      -0.643224       -17.5030
  39   2.0000      -0.618424       -16.8282
  40   2.0000      -0.595176       -16.1956
  41   2.0000      -0.582570       -15.8525
  42   2.0000      -0.570329       -15.5194
  43   2.0000      -0.547724       -14.9043
  44   2.0000      -0.546782       -14.8787
  45   2.0000      -0.525288       -14.2938
  46   2.0000      -0.520212       -14.1557
  47   2.0000      -0.513187       -13.9645
  48   2.0000      -0.509632       -13.8678
  49   2.0000      -0.506151       -13.7731
  50   2.0000      -0.487292       -13.2599
  51   2.0000      -0.482570       -13.1314
  52   2.0000      -0.475604       -12.9418
  53   2.0000      -0.465265       -12.6605
  54   2.0000      -0.461274       -12.5519
  55   2.0000      -0.439639       -11.9632
  56   2.0000      -0.438628       -11.9357
  57   2.0000      -0.431188       -11.7332
  58   2.0000      -0.429961       -11.6998
  59   2.0000      -0.424625       -11.5546
  60   2.0000      -0.420944       -11.4545
  61   2.0000      -0.417687       -11.3658
  62   2.0000      -0.411589       -11.1999
  63   2.0000      -0.346001        -9.4152
  64   2.0000      -0.331149        -9.0110
  65   2.0000      -0.324240        -8.8230
  66   2.0000      -0.302670        -8.2361
  67   0.0000       0.034333         0.9343
  68   0.0000       0.068168         1.8549
  69   0.0000       0.108656         2.9567
  70   0.0000       0.118679         3.2294
  71   0.0000       0.143128         3.8947

MULLIKEN ATOMIC CHARGES
-----------------------
   0 S :    0.098880
   1 C :   -0.082566
   2 C :   -0.117899
   3 C :    0.024611
   4 C :   -0.156464
   5 H :    0.031047
   6 C :    0.041686
   7 H :    0.012566
   8 H :    0.031172
   9 C :   -0.031506
  10 H :    0.026762
  11 H :    0.003174
  12 C :   -0.048008
  13 H :    0.032521
  14 H :    0.042762
  15 H :    0.028573
  16 S :    0.130340
  17 C :   -0.106559
  18 C :   -0.022001
  19 C :   -0.039197
  20 C :   -0.149103
  21 H :    0.006865
  22 C :    0.072221
  23 H :    0.033628
  24 H :    0.001137
  25 C :   -0.081510
  26 H :    0.039245
  27 H :    0.031022
  28 C :   -0.068890
  29 H :    0.039629
  30 H :    0.048012
  31 H :    0.029362
  32 H :    0.035124
  33 H :    0.063364
Sum of atomic charges:   -0.0000000

LOEWDIN ATOMIC CHARGES
----------------------
   0 S :    0.394747
   1 C :   -0.186388
   2 C :   -0.068269
   3 C :   -0.066297
   4 C :   -0.191165
   5 H :    0.038715
   6 C :   -0.036082
   7 H :    0.031325
   8 H :    0.030696
   9 C :   -0.028886
  10 H :    0.024635
  11 H :    0.011175
  12 C :   -0.063969
  13 H :    0.025319
  14 H :    0.023262
  15 H :    0.028932
  16 S :    0.450433
  17 C :   -0.196590
  18 C :   -0.076116
  19 C :   -0.046363
  20 C :   -0.226191
  21 H :    0.022099
  22 C :   -0.028874
  23 H :    0.031861
  24 H :    0.022744
  25 C :   -0.037879
  26 H :    0.030357
  27 H :    0.015248
  28 C :   -0.072157
  29 H :    0.033042
  30 H :    0.027107
  31 H :    0.021831
  32 H :    0.027821
  33 H :    0.033879

  Mayer bond orders larger than 0.100000
B(  0-S ,  1-C ) :   1.1179 B(  0-S ,  4-C ) :   1.1340 B(  1-C ,  2-C ) :   1.6715
B(  1-C , 32-H ) :   0.9635 B(  2-C ,  3-C ) :   1.1823 B(  2-C ,  6-C ) :   1.0198
B(  3-C ,  4-C ) :   1.6335 B(  3-C ,  5-H ) :   0.9903 B(  4-C , 20-C ) :   1.0279
B(  6-C ,  7-H ) :   0.9330 B(  6-C ,  8-H ) :   0.9512 B(  6-C ,  9-C ) :   1.0759
B(  9-C , 10-H ) :   0.9547 B(  9-C , 11-H ) :   0.9532 B(  9-C , 12-C ) :   1.0848
B( 12-C , 13-H ) :   0.9728 B( 12-C , 14-H ) :   0.9712 B( 12-C , 15-H ) :   0.9744
B( 16-S , 17-C ) :   1.1973 B( 16-S , 20-C ) :   1.1676 B( 17-C , 18-C ) :   1.5536
B( 17-C , 20-C ) :   0.1110 B( 17-C , 33-H ) :   0.9698 B( 18-C , 19-C ) :   1.2951
B( 18-C , 21-H ) :   0.9923 B( 19-C , 20-C ) :   1.5316 B( 19-C , 22-C ) :   1.0366
B( 22-C , 23-H ) :   0.9401 B( 22-C , 24-H ) :   0.9242 B( 22-C , 25-C ) :   1.0617
B( 25-C , 26-H ) :   0.9548 B( 25-C , 27-H ) :   0.9632 B( 25-C , 28-C ) :   1.0655
B( 28-C , 29-H ) :   0.9753 B( 28-C , 30-H ) :   0.9745 B( 28-C , 31-H ) :   0.9771

Dispersion correction           -0.014222261
FINAL SINGLE POINT ENERGY     -1339.869757416399

DIPOLE MOMENT
-------------
                                X             Y             Z
Electronic contribution:     -9.61621      21.09653      11.37875
Nuclear contribution   :      9.78272     -21.58789     -11.80450
                        -----------------------------------------
Total Dipole Moment    :      0.16651      -0.49136      -0.42575
                        -----------------------------------------
Magnitude (a.u.)       :      0.67114
Magnitude (Debye)      :      1.70590

Rotational constants in cm-1:     0.017652     0.008720     0.007077
Rotational constants in MHz :   529.203602   261.420314   212.159152

                             ****ORCA TERMINATED NORMALLY****
TOTAL RUN TIME: 0 days 0 hours 0 minutes 21 seconds 898 msec
