                         Program Version 4.2.1 -  RELEASE  -
|  1> ! wB97X-D3 SP def2-SVP
|  2> %pal
|  3> nprocs 24
|  4> end
|  5>
|  6> * xyz 0 1
|  7> S 	 -127.76 	 59.9706 	 -55.4146
|  8> C 	 -129.086 	 60.7656 	 -56.21
|  9> C 	 -129.293 	 62.0789 	 -55.6751
| 10> C 	 -128.208 	 62.3948 	 -54.7895
| 11> C 	 -127.352 	 61.4037 	 -54.4468
| 12> H 	 -128.203 	 63.3191 	 -54.2739
| 13> C 	 -130.422 	 63.0912 	 -56.0926
| 14> H 	 -131.046 	 63.0269 	 -55.239
| 15> H 	 -130.928 	 62.8481 	 -57.0467
| 16> C 	 -129.814 	 64.6022 	 -56.1386
| 17> H 	 -129.459 	 64.9349 	 -55.1858
| 18> H 	 -128.858 	 64.5849 	 -56.7312
| 19> C 	 -130.749 	 65.676 	 -56.7087
| 20> H 	 -131.836 	 65.6496 	 -56.3277
| 21> H 	 -130.277 	 66.6654 	 -56.5025
| 22> H 	 -130.841 	 65.461 	 -57.7523
| 23> S 	 -126.314 	 62.3869 	 -52.0584
| 24> C 	 -124.911 	 61.5596 	 -51.4125
| 25> C 	 -124.293 	 60.6859 	 -52.2514
| 26> C 	 -124.996 	 60.5234 	 -53.4875
| 27> C 	 -126.203 	 61.3063 	 -53.5074
| 28> H 	 -123.495 	 60.0131 	 -51.9331
| 29> C 	 -124.531 	 59.6194 	 -54.612
| 30> H 	 -125.105 	 59.7515 	 -55.5348
| 31> H 	 -124.818 	 58.6197 	 -54.2987
| 32> C 	 -122.991 	 59.5899 	 -54.9799
| 33> H 	 -122.437 	 59.3896 	 -54.0804
| 34> H 	 -122.699 	 60.5715 	 -55.4589
| 35> C 	 -122.702 	 58.3065 	 -55.8255
| 36> H 	 -123.007 	 58.4721 	 -56.9343
| 37> H 	 -123.264 	 57.3983 	 -55.4
| 38> H 	 -121.667 	 58.1207 	 -55.8859
| 39> H 	 -129.618 	 60.42 	 -57.0013
| 40> H 	 -124.558 	 61.7375 	 -50.4026
| 41> *
| 42>
| 43>                          ****END OF INPUT****

CARTESIAN COORDINATES (ANGSTROEM)
---------------------------------
  S    -127.760000   59.970600  -55.414600
  C    -129.086000   60.765600  -56.210000
  C    -129.293000   62.078900  -55.675100
  C    -128.208000   62.394800  -54.789500
  C    -127.352000   61.403700  -54.446800
  H    -128.203000   63.319100  -54.273900
  C    -130.422000   63.091200  -56.092600
  H    -131.046000   63.026900  -55.239000
  H    -130.928000   62.848100  -57.046700
  C    -129.814000   64.602200  -56.138600
  H    -129.459000   64.934900  -55.185800
  H    -128.858000   64.584900  -56.731200
  C    -130.749000   65.676000  -56.708700
  H    -131.836000   65.649600  -56.327700
  H    -130.277000   66.665400  -56.502500
  H    -130.841000   65.461000  -57.752300
  S    -126.314000   62.386900  -52.058400
  C    -124.911000   61.559600  -51.412500
  C    -124.293000   60.685900  -52.251400
  C    -124.996000   60.523400  -53.487500
  C    -126.203000   61.306300  -53.507400
  H    -123.495000   60.013100  -51.933100
  C    -124.531000   59.619400  -54.612000
  H    -125.105000   59.751500  -55.534800
  H    -124.818000   58.619700  -54.298700
  C    -122.991000   59.589900  -54.979900
  H    -122.437000   59.389600  -54.080400
  H    -122.699000   60.571500  -55.458900
  C    -122.702000   58.306500  -55.825500
  H    -123.007000   58.472100  -56.934300
  H    -123.264000   57.398300  -55.400000
  H    -121.667000   58.120700  -55.885900
  H    -129.618000   60.420000  -57.001300
  H    -124.558000   61.737500  -50.402600

 Total Charge           Charge          ....    0
 Multiplicity           Mult            ....    1
 Number of Electrons    NEL             ....  134
 Basis Dimension        Dim             ....  322

ORBITAL ENERGIES
----------------

  NO   OCC          E(Eh)            E(eV)
   0   2.0000     -88.968226     -2420.9485
   1   2.0000     -88.963534     -2420.8208
   2   2.0000     -10.338724      -281.3310
   3   2.0000     -10.332162      -281.1524
   4   2.0000     -10.318664      -280.7851
   5   2.0000     -10.313601      -280.6473
   6   2.0000     -10.308669      -280.5131
   7   2.0000     -10.308295      -280.5030
   8   2.0000     -10.305035      -280.4143
   9   2.0000     -10.296901      -280.1929
  10   2.0000     -10.295581      -280.1570
  11   2.0000     -10.293608      -280.1033
  12   2.0000     -10.293156      -280.0910
  13   2.0000     -10.290025      -280.0058
  14   2.0000     -10.287818      -279.9458
  15   2.0000     -10.286138      -279.9001
  16   2.0000      -8.082062      -219.9241
  17   2.0000      -8.077579      -219.8021
  18   2.0000      -6.040529      -164.3712
  19   2.0000      -6.036953      -164.2738
  20   2.0000      -6.036134      -164.2516
  21   2.0000      -6.032681      -164.1576
  22   2.0000      -6.032059      -164.1407
  23   2.0000      -6.028457      -164.0426
  24   2.0000      -0.998019       -27.1575
  25   2.0000      -0.977557       -26.6007
  26   2.0000      -0.902149       -24.5487
  27   2.0000      -0.897565       -24.4240
  28   2.0000      -0.864623       -23.5276
  29   2.0000      -0.850226       -23.1358
  30   2.0000      -0.841614       -22.9015
  31   2.0000      -0.814909       -22.1748
  32   2.0000      -0.779207       -21.2033
  33   2.0000      -0.764701       -20.8086
  34   2.0000      -0.705973       -19.2105
  35   2.0000      -0.698965       -19.0198
  36   2.0000      -0.687940       -18.7198
  37   2.0000      -0.663007       -18.0413
  38   2.0000      -0.633634       -17.2421
  39   2.0000      -0.620735       -16.8911
  40   2.0000      -0.599684       -16.3182
  41   2.0000      -0.564310       -15.3557
  42   2.0000      -0.562365       -15.3027
  43   2.0000      -0.559020       -15.2117
  44   2.0000      -0.523573       -14.2471
  45   2.0000      -0.521454       -14.1895
  46   2.0000      -0.515969       -14.0402
  47   2.0000      -0.508267       -13.8306
  48   2.0000      -0.504988       -13.7414
  49   2.0000      -0.492000       -13.3880
  50   2.0000      -0.480787       -13.0829
  51   2.0000      -0.479185       -13.0393
  52   2.0000      -0.468587       -12.7509
  53   2.0000      -0.465007       -12.6535
  54   2.0000      -0.455976       -12.4077
  55   2.0000      -0.453938       -12.3523
  56   2.0000      -0.450002       -12.2452
  57   2.0000      -0.438057       -11.9201
  58   2.0000      -0.431646       -11.7457
  59   2.0000      -0.422126       -11.4866
  60   2.0000      -0.420362       -11.4386
  61   2.0000      -0.416620       -11.3368
  62   2.0000      -0.407122       -11.0784
  63   2.0000      -0.354408        -9.6439
  64   2.0000      -0.333122        -9.0647
  65   2.0000      -0.326334        -8.8800
  66   2.0000      -0.279905        -7.6166
  67   0.0000       0.021371         0.5815
  68   0.0000       0.077434         2.1071
  69   0.0000       0.100132         2.7247
  70   0.0000       0.120541         3.2801
  71   0.0000       0.130214         3.5433

MULLIKEN ATOMIC CHARGES
-----------------------
   0 S :    0.090712
   1 C :   -0.079800
   2 C :   -0.125959
   3 C :    0.005644
   4 C :   -0.099129
   5 H :   -0.010018
   6 C :    0.093979
   7 H :    0.041134
   8 H :    0.041383
   9 C :   -0.135104
  10 H :    0.026448
  11 H :    0.043880
  12 C :   -0.053530
  13 H :    0.042515
  14 H :    0.048578
  15 H :    0.030416
  16 S :    0.092418
  17 C :   -0.078891
  18 C :   -0.032063
  19 C :   -0.025512
  20 C :   -0.140709
  21 H :    0.031206
  22 C :    0.022087
  23 H :    0.033924
  24 H :    0.027582
  25 C :   -0.073342
  26 H :    0.026028
  27 H :    0.059590
  28 C :   -0.091316
  29 H :    0.045737
  30 H :    0.049343
  31 H :    0.031005
  32 H :    0.006418
  33 H :    0.055344
Sum of atomic charges:   -0.0000000

LOEWDIN ATOMIC CHARGES
----------------------
   0 S :    0.410536
   1 C :   -0.193748
   2 C :   -0.051809
   3 C :   -0.079455
   4 C :   -0.178026
   5 H :    0.020085
   6 C :   -0.020389
   7 H :    0.031523
   8 H :    0.033800
   9 C :   -0.046250
  10 H :    0.014612
  11 H :    0.031350
  12 C :   -0.073360
  13 H :    0.033374
  14 H :    0.034489
  15 H :    0.020202
  16 S :    0.378848
  17 C :   -0.171977
  18 C :   -0.075561
  19 C :   -0.046561
  20 C :   -0.180123
  21 H :    0.037131
  22 C :   -0.044564
  23 H :    0.021394
  24 H :    0.031039
  25 C :   -0.036772
  26 H :    0.018105
  27 H :    0.036026
  28 C :   -0.072818
  29 H :    0.033805
  30 H :    0.035883
  31 H :    0.016306
  32 H :    0.005085
  33 H :    0.027820

  Mayer bond orders larger than 0.100000
B(  0-S ,  1-C ) :   1.1534 B(  0-S ,  4-C ) :   1.1300 B(  1-C ,  2-C ) :   1.5855
B(  1-C , 32-H ) :   0.9824 B(  2-C ,  3-C ) :   1.2659 B(  2-C ,  6-C ) :   1.0061
B(  3-C ,  4-C ) :   1.5816 B(  3-C ,  5-H ) :   0.9877 B(  4-C , 20-C ) :   1.0492
B(  6-C ,  7-H ) :   0.9303 B(  6-C ,  8-H ) :   0.9570 B(  6-C ,  9-C ) :   1.0552
B(  9-C , 10-H ) :   0.9532 B(  9-C , 11-H ) :   0.9621 B(  9-C , 12-C ) :   1.0797
B( 12-C , 13-H ) :   0.9742 B( 12-C , 14-H ) :   0.9733 B( 12-C , 15-H ) :   0.9760
B( 16-S , 17-C ) :   1.1499 B( 16-S , 20-C ) :   1.1225 B( 17-C , 18-C ) :   1.6377
B( 17-C , 33-H ) :   0.9619 B( 18-C , 19-C ) :   1.2299 B( 18-C , 21-H ) :   0.9826
B( 19-C , 20-C ) :   1.5769 B( 19-C , 22-C ) :   1.0338 B( 22-C , 23-H ) :   0.9342
B( 22-C , 24-H ) :   0.9303 B( 22-C , 25-C ) :   1.0610 B( 25-C , 26-H ) :   0.9538
B( 25-C , 27-H ) :   0.9580 B( 25-C , 28-C ) :   1.0723 B( 28-C , 29-H ) :   0.9759
B( 28-C , 30-H ) :   0.9729 B( 28-C , 31-H ) :   0.9769

Dispersion correction           -0.013274784
FINAL SINGLE POINT ENERGY     -1339.858044473400

DIPOLE MOMENT
-------------
                                X             Y             Z
Electronic contribution:     -1.42860      -4.33208      13.73252
Nuclear contribution   :      1.56552       4.38358     -13.84870
                        -----------------------------------------
Total Dipole Moment    :      0.13692       0.05150      -0.11618
                        -----------------------------------------
Magnitude (a.u.)       :      0.18681
Magnitude (Debye)      :      0.47484

Rotational constants in cm-1:     0.020550     0.007159     0.005901
Rotational constants in MHz :   616.084676   214.618192   176.910219

                             ****ORCA TERMINATED NORMALLY****
TOTAL RUN TIME: 0 days 0 hours 0 minutes 20 seconds 286 msec
