                         Program Version 4.2.1 -  RELEASE  -
|  1> ! wB97X-D3 SP def2-SVP
|  2> %pal
|  3> nprocs 24
|  4> end
|  5>
|  6> * xyz 0 1
|  7> S 	 -104.303 	 64.1948 	 -7.12028
|  8> C 	 -104.423 	 65.6158 	 -8.09776
|  9> C 	 -103.405 	 65.6889 	 -9.02892
| 10> C 	 -102.554 	 64.54 	 -9.03096
| 11> C 	 -102.927 	 63.6254 	 -8.03968
| 12> H 	 -101.723 	 64.2873 	 -9.72334
| 13> C 	 -103.299 	 66.6484 	 -10.1792
| 14> H 	 -104.252 	 67.0581 	 -10.4246
| 15> H 	 -102.925 	 66.1419 	 -11.0333
| 16> C 	 -102.337 	 67.7343 	 -9.93839
| 17> H 	 -102.774 	 68.3528 	 -9.14726
| 18> H 	 -101.434 	 67.2238 	 -9.64058
| 19> C 	 -102.08 	 68.5872 	 -11.1376
| 20> H 	 -102.776 	 69.4864 	 -11.2254
| 21> H 	 -101.045 	 69.0016 	 -11.1236
| 22> H 	 -102.213 	 68.0501 	 -12.0984
| 23> S 	 -103.091 	 60.8533 	 -7.96743
| 24> C 	 -101.689 	 59.8905 	 -7.43737
| 25> C 	 -100.605 	 60.6907 	 -7.20061
| 26> C 	 -100.85 	 62.0577 	 -7.46364
| 27> C 	 -102.245 	 62.3248 	 -7.80495
| 28> H 	 -99.7158 	 60.2338 	 -6.81648
| 29> C 	 -99.7956 	 63.1511 	 -7.2979
| 30> H 	 -100.258 	 63.9306 	 -6.68707
| 31> H 	 -99.7273 	 63.6208 	 -8.30118
| 32> C 	 -98.4309 	 62.7693 	 -6.74024
| 33> H 	 -97.7455 	 63.5683 	 -7.09343
| 34> H 	 -98.0543 	 61.8266 	 -7.14395
| 35> C 	 -98.4611 	 62.5407 	 -5.2018
| 36> H 	 -99.3411 	 61.9708 	 -4.91935
| 37> H 	 -98.582 	 63.5145 	 -4.75726
| 38> H 	 -97.6123 	 62.0543 	 -4.76397
| 39> H 	 -105.33 	 66.2452 	 -8.24158
| 40> H 	 -101.728 	 58.8428 	 -7.19883
| 41> *
| 42>
| 43>                          ****END OF INPUT****

CARTESIAN COORDINATES (ANGSTROEM)
---------------------------------
  S    -104.303000   64.194800   -7.120280
  C    -104.423000   65.615800   -8.097760
  C    -103.405000   65.688900   -9.028920
  C    -102.554000   64.540000   -9.030960
  C    -102.927000   63.625400   -8.039680
  H    -101.723000   64.287300   -9.723340
  C    -103.299000   66.648400  -10.179200
  H    -104.252000   67.058100  -10.424600
  H    -102.925000   66.141900  -11.033300
  C    -102.337000   67.734300   -9.938390
  H    -102.774000   68.352800   -9.147260
  H    -101.434000   67.223800   -9.640580
  C    -102.080000   68.587200  -11.137600
  H    -102.776000   69.486400  -11.225400
  H    -101.045000   69.001600  -11.123600
  H    -102.213000   68.050100  -12.098400
  S    -103.091000   60.853300   -7.967430
  C    -101.689000   59.890500   -7.437370
  C    -100.605000   60.690700   -7.200610
  C    -100.850000   62.057700   -7.463640
  C    -102.245000   62.324800   -7.804950
  H    -99.715800   60.233800   -6.816480
  C    -99.795600   63.151100   -7.297900
  H    -100.258000   63.930600   -6.687070
  H    -99.727300   63.620800   -8.301180
  C    -98.430900   62.769300   -6.740240
  H    -97.745500   63.568300   -7.093430
  H    -98.054300   61.826600   -7.143950
  C    -98.461100   62.540700   -5.201800
  H    -99.341100   61.970800   -4.919350
  H    -98.582000   63.514500   -4.757260
  H    -97.612300   62.054300   -4.763970
  H    -105.330000   66.245200   -8.241580
  H    -101.728000   58.842800   -7.198830

 Total Charge           Charge          ....    0
 Multiplicity           Mult            ....    1
 Number of Electrons    NEL             ....  134
 Basis Dimension        Dim             ....  322

ORBITAL ENERGIES
----------------

  NO   OCC          E(Eh)            E(eV)
   0   2.0000     -88.970547     -2421.0117
   1   2.0000     -88.967234     -2420.9215
   2   2.0000     -10.333090      -281.1777
   3   2.0000     -10.328707      -281.0584
   4   2.0000     -10.315811      -280.7075
   5   2.0000     -10.315352      -280.6950
   6   2.0000     -10.308516      -280.5090
   7   2.0000     -10.299674      -280.2684
   8   2.0000     -10.298889      -280.2470
   9   2.0000     -10.292178      -280.0644
  10   2.0000     -10.291836      -280.0551
  11   2.0000     -10.291188      -280.0375
  12   2.0000     -10.283728      -279.8345
  13   2.0000     -10.278508      -279.6924
  14   2.0000     -10.276771      -279.6451
  15   2.0000     -10.274514      -279.5837
  16   2.0000      -8.085276      -220.0115
  17   2.0000      -8.081911      -219.9200
  18   2.0000      -6.043781      -164.4597
  19   2.0000      -6.040308      -164.3651
  20   2.0000      -6.039709      -164.3488
  21   2.0000      -6.036250      -164.2547
  22   2.0000      -6.036109      -164.2509
  23   2.0000      -6.032982      -164.1658
  24   2.0000      -1.004800       -27.3420
  25   2.0000      -0.984986       -26.8028
  26   2.0000      -0.927010       -25.2252
  27   2.0000      -0.907916       -24.7057
  28   2.0000      -0.869509       -23.6605
  29   2.0000      -0.851902       -23.1814
  30   2.0000      -0.843822       -22.9616
  31   2.0000      -0.815514       -22.1913
  32   2.0000      -0.782169       -21.2839
  33   2.0000      -0.769658       -20.9435
  34   2.0000      -0.705696       -19.2030
  35   2.0000      -0.696959       -18.9652
  36   2.0000      -0.693445       -18.8696
  37   2.0000      -0.650842       -17.7103
  38   2.0000      -0.640541       -17.4300
  39   2.0000      -0.622868       -16.9491
  40   2.0000      -0.598728       -16.2922
  41   2.0000      -0.581262       -15.8170
  42   2.0000      -0.568960       -15.4822
  43   2.0000      -0.552875       -15.0445
  44   2.0000      -0.531087       -14.4516
  45   2.0000      -0.524667       -14.2769
  46   2.0000      -0.518980       -14.1222
  47   2.0000      -0.514125       -13.9901
  48   2.0000      -0.504058       -13.7161
  49   2.0000      -0.497167       -13.5286
  50   2.0000      -0.489499       -13.3199
  51   2.0000      -0.484842       -13.1932
  52   2.0000      -0.468737       -12.7550
  53   2.0000      -0.466388       -12.6911
  54   2.0000      -0.461116       -12.5476
  55   2.0000      -0.447064       -12.1652
  56   2.0000      -0.443933       -12.0800
  57   2.0000      -0.438052       -11.9200
  58   2.0000      -0.429224       -11.6798
  59   2.0000      -0.425500       -11.5784
  60   2.0000      -0.424944       -11.5633
  61   2.0000      -0.419142       -11.4054
  62   2.0000      -0.413514       -11.2523
  63   2.0000      -0.345415        -9.3992
  64   2.0000      -0.333169        -9.0660
  65   2.0000      -0.324288        -8.8243
  66   2.0000      -0.292348        -7.9552
  67   0.0000       0.025670         0.6985
  68   0.0000       0.069999         1.9048
  69   0.0000       0.117179         3.1886
  70   0.0000       0.126066         3.4304
  71   0.0000       0.129824         3.5327

MULLIKEN ATOMIC CHARGES
-----------------------
   0 S :    0.129187
   1 C :   -0.129702
   2 C :   -0.089966
   3 C :    0.011544
   4 C :   -0.166723
   5 H :    0.037990
   6 C :    0.090181
   7 H :    0.004317
   8 H :    0.004844
   9 C :   -0.056085
  10 H :    0.029818
  11 H :    0.018879
  12 C :   -0.064869
  13 H :    0.038470
  14 H :    0.041497
  15 H :    0.027180
  16 S :    0.118922
  17 C :   -0.096407
  18 C :   -0.039073
  19 C :   -0.048343
  20 C :   -0.175574
  21 H :    0.016327
  22 C :    0.058973
  23 H :    0.038049
  24 H :    0.032856
  25 C :   -0.065522
  26 H :    0.038945
  27 H :    0.025536
  28 C :   -0.046717
  29 H :    0.034785
  30 H :    0.026245
  31 H :    0.035087
  32 H :    0.066308
  33 H :    0.053042
Sum of atomic charges:    0.0000000

LOEWDIN ATOMIC CHARGES
----------------------
   0 S :    0.421269
   1 C :   -0.218344
   2 C :   -0.060210
   3 C :   -0.062507
   4 C :   -0.199171
   5 H :    0.040047
   6 C :   -0.026563
   7 H :    0.021277
   8 H :    0.023347
   9 C :   -0.044677
  10 H :    0.028328
  11 H :    0.022685
  12 C :   -0.075414
  13 H :    0.031902
  14 H :    0.031696
  15 H :    0.024085
  16 S :    0.424325
  17 C :   -0.179818
  18 C :   -0.075700
  19 C :   -0.049729
  20 C :   -0.229692
  21 H :    0.032044
  22 C :   -0.039593
  23 H :    0.036600
  24 H :    0.035556
  25 C :   -0.042956
  26 H :    0.031933
  27 H :    0.020275
  28 C :   -0.063682
  29 H :    0.027038
  30 H :    0.024317
  31 H :    0.023020
  32 H :    0.040647
  33 H :    0.027664

  Mayer bond orders larger than 0.100000
B(  0-S ,  1-C ) :   1.1393 B(  0-S ,  4-C ) :   1.1636 B(  1-C ,  2-C ) :   1.6160
B(  1-C , 32-H ) :   0.9563 B(  2-C ,  3-C ) :   1.2456 B(  2-C ,  6-C ) :   1.0331
B(  3-C ,  4-C ) :   1.5664 B(  3-C ,  5-H ) :   0.9841 B(  4-C , 20-C ) :   1.0314
B(  6-C ,  7-H ) :   0.9389 B(  6-C ,  8-H ) :   0.9358 B(  6-C ,  9-C ) :   1.0739
B(  9-C , 10-H ) :   0.9515 B(  9-C , 11-H ) :   0.9558 B(  9-C , 12-C ) :   1.0831
B( 12-C , 13-H ) :   0.9727 B( 12-C , 14-H ) :   0.9745 B( 12-C , 15-H ) :   0.9722
B( 16-S , 17-C ) :   1.1662 B( 16-S , 20-C ) :   1.1799 B( 17-C , 18-C ) :   1.5769
B( 17-C , 20-C ) :   0.1112 B( 17-C , 33-H ) :   0.9647 B( 18-C , 19-C ) :   1.2925
B( 18-C , 21-H ) :   0.9879 B( 19-C , 20-C ) :   1.5154 B( 19-C , 22-C ) :   1.0246
B( 22-C , 23-H ) :   0.9297 B( 22-C , 24-H ) :   0.9263 B( 22-C , 25-C ) :   1.0794
B( 25-C , 26-H ) :   0.9553 B( 25-C , 27-H ) :   0.9541 B( 25-C , 28-C ) :   1.0615
B( 28-C , 29-H ) :   0.9773 B( 28-C , 30-H ) :   0.9745 B( 28-C , 31-H ) :   0.9777

Dispersion correction           -0.013889730
FINAL SINGLE POINT ENERGY     -1339.879267583770

DIPOLE MOMENT
-------------
                                X             Y             Z
Electronic contribution:    -19.36259     -18.00509       5.20139
Nuclear contribution   :     19.78951      18.22696      -5.41228
                        -----------------------------------------
Total Dipole Moment    :      0.42692       0.22188      -0.21089
                        -----------------------------------------
Magnitude (a.u.)       :      0.52532
Magnitude (Debye)      :      1.33526

Rotational constants in cm-1:     0.018821     0.007847     0.006341
Rotational constants in MHz :   564.229522   235.260394   190.089423

                             ****ORCA TERMINATED NORMALLY****
TOTAL RUN TIME: 0 days 0 hours 0 minutes 21 seconds 237 msec
