                         Program Version 4.2.1 -  RELEASE  -
|  1> ! wB97X-D3 SP def2-SVP
|  2> %pal
|  3> nprocs 24
|  4> end
|  5>
|  6> * xyz 0 1
|  7> S 	 -63.1695 	 10.654 	 -17.4237
|  8> C 	 -64.4263 	 9.51238 	 -17.0765
|  9> C 	 -64.2042 	 8.24045 	 -17.5612
| 10> C 	 -62.8566 	 8.10609 	 -18.0802
| 11> C 	 -62.1483 	 9.31499 	 -17.9225
| 12> H 	 -62.429 	 7.21833 	 -18.5122
| 13> C 	 -65.1093 	 7.05689 	 -17.6192
| 14> H 	 -65.0473 	 6.58143 	 -16.6804
| 15> H 	 -64.7764 	 6.2515 	 -18.2628
| 16> C 	 -66.6016 	 7.27216 	 -17.9066
| 17> H 	 -66.9664 	 7.63634 	 -16.9543
| 18> H 	 -66.6458 	 7.95624 	 -18.6606
| 19> C 	 -67.457 	 6.09562 	 -18.3231
| 20> H 	 -66.9205 	 5.46384 	 -19.0272
| 21> H 	 -67.564 	 5.40249 	 -17.486
| 22> H 	 -68.4616 	 6.39618 	 -18.6727
| 23> S 	 -60.5697 	 9.83369 	 -20.0272
| 24> C 	 -58.8577 	 10.0821 	 -19.7247
| 25> C 	 -58.6098 	 9.98119 	 -18.3602
| 26> C 	 -59.7099 	 9.56802 	 -17.5747
| 27> C 	 -60.8222 	 9.4602 	 -18.3549
| 28> H 	 -57.6338 	 10.2373 	 -18.0048
| 29> C 	 -59.6047 	 9.49046 	 -16.0415
| 30> H 	 -60.5851 	 9.72801 	 -15.6032
| 31> H 	 -58.9353 	 10.2284 	 -15.7533
| 32> C 	 -59.1806 	 8.09643 	 -15.5124
| 33> H 	 -58.7054 	 8.2299 	 -14.4875
| 34> H 	 -58.3916 	 7.68992 	 -16.087
| 35> C 	 -60.3726 	 7.01083 	 -15.5097
| 36> H 	 -59.9826 	 6.05151 	 -15.1763
| 37> H 	 -60.9083 	 6.92245 	 -16.4885
| 38> H 	 -61.1769 	 7.18602 	 -14.8151
| 39> H 	 -65.3509 	 9.72596 	 -16.5014
| 40> H 	 -58.0539 	 10.2333 	 -20.4112
| 41> *
| 42>
| 43>                          ****END OF INPUT****

CARTESIAN COORDINATES (ANGSTROEM)
---------------------------------
  S    -63.169500   10.654000  -17.423700
  C    -64.426300    9.512380  -17.076500
  C    -64.204200    8.240450  -17.561200
  C    -62.856600    8.106090  -18.080200
  C    -62.148300    9.314990  -17.922500
  H    -62.429000    7.218330  -18.512200
  C    -65.109300    7.056890  -17.619200
  H    -65.047300    6.581430  -16.680400
  H    -64.776400    6.251500  -18.262800
  C    -66.601600    7.272160  -17.906600
  H    -66.966400    7.636340  -16.954300
  H    -66.645800    7.956240  -18.660600
  C    -67.457000    6.095620  -18.323100
  H    -66.920500    5.463840  -19.027200
  H    -67.564000    5.402490  -17.486000
  H    -68.461600    6.396180  -18.672700
  S    -60.569700    9.833690  -20.027200
  C    -58.857700   10.082100  -19.724700
  C    -58.609800    9.981190  -18.360200
  C    -59.709900    9.568020  -17.574700
  C    -60.822200    9.460200  -18.354900
  H    -57.633800   10.237300  -18.004800
  C    -59.604700    9.490460  -16.041500
  H    -60.585100    9.728010  -15.603200
  H    -58.935300   10.228400  -15.753300
  C    -59.180600    8.096430  -15.512400
  H    -58.705400    8.229900  -14.487500
  H    -58.391600    7.689920  -16.087000
  C    -60.372600    7.010830  -15.509700
  H    -59.982600    6.051510  -15.176300
  H    -60.908300    6.922450  -16.488500
  H    -61.176900    7.186020  -14.815100
  H    -65.350900    9.725960  -16.501400
  H    -58.053900   10.233300  -20.411200

 Total Charge           Charge          ....    0
 Multiplicity           Mult            ....    1
 Number of Electrons    NEL             ....  134
 Basis Dimension        Dim             ....  322

ORBITAL ENERGIES
----------------

  NO   OCC          E(Eh)            E(eV)
   0   2.0000     -88.970729     -2421.0166
   1   2.0000     -88.964425     -2420.8451
   2   2.0000     -10.322140      -280.8797
   3   2.0000     -10.313625      -280.6480
   4   2.0000     -10.313448      -280.6432
   5   2.0000     -10.312030      -280.6046
   6   2.0000     -10.301504      -280.3182
   7   2.0000     -10.296164      -280.1729
   8   2.0000     -10.295825      -280.1636
   9   2.0000     -10.291636      -280.0497
  10   2.0000     -10.287803      -279.9453
  11   2.0000     -10.287586      -279.9394
  12   2.0000     -10.284457      -279.8543
  13   2.0000     -10.280168      -279.7376
  14   2.0000     -10.277222      -279.6574
  15   2.0000     -10.275078      -279.5991
  16   2.0000      -8.085278      -220.0116
  17   2.0000      -8.079381      -219.8511
  18   2.0000      -6.043770      -164.4593
  19   2.0000      -6.040004      -164.3569
  20   2.0000      -6.037848      -164.2982
  21   2.0000      -6.035874      -164.2445
  22   2.0000      -6.033895      -164.1906
  23   2.0000      -6.030123      -164.0880
  24   2.0000      -1.010110       -27.4865
  25   2.0000      -0.982935       -26.7470
  26   2.0000      -0.917072       -24.9548
  27   2.0000      -0.898608       -24.4524
  28   2.0000      -0.872695       -23.7472
  29   2.0000      -0.855190       -23.2709
  30   2.0000      -0.840346       -22.8670
  31   2.0000      -0.808382       -21.9972
  32   2.0000      -0.784129       -21.3372
  33   2.0000      -0.772932       -21.0326
  34   2.0000      -0.711741       -19.3674
  35   2.0000      -0.702240       -19.1089
  36   2.0000      -0.694542       -18.8994
  37   2.0000      -0.661494       -18.0002
  38   2.0000      -0.642300       -17.4779
  39   2.0000      -0.613804       -16.7025
  40   2.0000      -0.592859       -16.1325
  41   2.0000      -0.576282       -15.6814
  42   2.0000      -0.564538       -15.3619
  43   2.0000      -0.548670       -14.9301
  44   2.0000      -0.530814       -14.4442
  45   2.0000      -0.527829       -14.3630
  46   2.0000      -0.519249       -14.1295
  47   2.0000      -0.506157       -13.7732
  48   2.0000      -0.500209       -13.6114
  49   2.0000      -0.495177       -13.4744
  50   2.0000      -0.490596       -13.3498
  51   2.0000      -0.481865       -13.1122
  52   2.0000      -0.473908       -12.8957
  53   2.0000      -0.465051       -12.6547
  54   2.0000      -0.456863       -12.4319
  55   2.0000      -0.448022       -12.1913
  56   2.0000      -0.440870       -11.9967
  57   2.0000      -0.440094       -11.9756
  58   2.0000      -0.433300       -11.7907
  59   2.0000      -0.426403       -11.6030
  60   2.0000      -0.424828       -11.5602
  61   2.0000      -0.414927       -11.2907
  62   2.0000      -0.411142       -11.1877
  63   2.0000      -0.336102        -9.1458
  64   2.0000      -0.327661        -8.9161
  65   2.0000      -0.312312        -8.4984
  66   2.0000      -0.309862        -8.4318
  67   0.0000       0.041231         1.1220
  68   0.0000       0.053990         1.4691
  69   0.0000       0.107068         2.9135
  70   0.0000       0.121308         3.3009
  71   0.0000       0.126542         3.4434

MULLIKEN ATOMIC CHARGES
-----------------------
   0 S :    0.141858
   1 C :   -0.139943
   2 C :   -0.065149
   3 C :    0.016482
   4 C :   -0.175044
   5 H :    0.024858
   6 C :    0.081713
   7 H :    0.019589
   8 H :    0.005214
   9 C :   -0.052956
  10 H :    0.023602
  11 H :    0.015675
  12 C :   -0.044118
  13 H :    0.021380
  14 H :    0.018582
  15 H :    0.049946
  16 S :    0.128974
  17 C :   -0.085350
  18 C :   -0.046851
  19 C :   -0.011582
  20 C :   -0.210879
  21 H :    0.004605
  22 C :    0.128592
  23 H :    0.026433
  24 H :    0.006196
  25 C :   -0.066742
  26 H :    0.035574
  27 H :    0.020115
  28 C :   -0.061100
  29 H :    0.027665
  30 H :    0.037403
  31 H :    0.024357
  32 H :    0.055188
  33 H :    0.045712
Sum of atomic charges:   -0.0000000

LOEWDIN ATOMIC CHARGES
----------------------
   0 S :    0.417082
   1 C :   -0.213122
   2 C :   -0.057642
   3 C :   -0.045651
   4 C :   -0.199023
   5 H :    0.030815
   6 C :   -0.034381
   7 H :    0.030125
   8 H :    0.026621
   9 C :   -0.034252
  10 H :    0.023030
  11 H :    0.011317
  12 C :   -0.063415
  13 H :    0.022573
  14 H :    0.023389
  15 H :    0.034197
  16 S :    0.415876
  17 C :   -0.186666
  18 C :   -0.066180
  19 C :   -0.052343
  20 C :   -0.217021
  21 H :    0.024328
  22 C :   -0.019175
  23 H :    0.031500
  24 H :    0.021445
  25 C :   -0.034051
  26 H :    0.030352
  27 H :    0.016008
  28 C :   -0.071022
  29 H :    0.023502
  30 H :    0.030132
  31 H :    0.020925
  32 H :    0.034051
  33 H :    0.026676

  Mayer bond orders larger than 0.100000
B(  0-S ,  1-C ) :   1.1307 B(  0-S ,  4-C ) :   1.1453 B(  1-C ,  2-C ) :   1.6295
B(  1-C , 32-H ) :   0.9587 B(  2-C ,  3-C ) :   1.2284 B(  2-C ,  6-C ) :   1.0282
B(  3-C ,  4-C ) :   1.5650 B(  3-C ,  5-H ) :   0.9916 B(  4-C , 20-C ) :   1.0572
B(  6-C ,  7-H ) :   0.9205 B(  6-C ,  8-H ) :   0.9421 B(  6-C ,  9-C ) :   1.0563
B(  9-C , 10-H ) :   0.9500 B(  9-C , 11-H ) :   0.9664 B(  9-C , 12-C ) :   1.0972
B( 12-C , 13-H ) :   0.9718 B( 12-C , 14-H ) :   0.9728 B( 12-C , 15-H ) :   0.9735
B( 16-S , 17-C ) :   1.1419 B( 16-S , 20-C ) :   1.1551 B( 17-C , 18-C ) :   1.6205
B( 17-C , 20-C ) :   0.1020 B( 17-C , 33-H ) :   0.9697 B( 18-C , 19-C ) :   1.2432
B( 18-C , 21-H ) :   0.9882 B( 19-C , 20-C ) :   1.5905 B( 19-C , 22-C ) :   1.0330
B( 22-C , 23-H ) :   0.9321 B( 22-C , 24-H ) :   0.9325 B( 22-C , 25-C ) :   1.0684
B( 25-C , 26-H ) :   0.9573 B( 25-C , 27-H ) :   0.9604 B( 25-C , 28-C ) :   1.0609
B( 28-C , 29-H ) :   0.9755 B( 28-C , 30-H ) :   0.9737 B( 28-C , 31-H ) :   0.9781

Dispersion correction           -0.015052579
FINAL SINGLE POINT ENERGY     -1339.862561147929

DIPOLE MOMENT
-------------
                                X             Y             Z
Electronic contribution:      9.87443      19.56600     -11.97846
Nuclear contribution   :     -9.89743     -19.91279      12.26433
                        -----------------------------------------
Total Dipole Moment    :     -0.02300      -0.34679       0.28587
                        -----------------------------------------
Magnitude (a.u.)       :      0.45002
Magnitude (Debye)      :      1.14385

Rotational constants in cm-1:     0.021909     0.007822     0.006918
Rotational constants in MHz :   656.807187   234.492861   207.397755

                             ****ORCA TERMINATED NORMALLY****
TOTAL RUN TIME: 0 days 0 hours 0 minutes 22 seconds 206 msec
