                         Program Version 4.2.1 -  RELEASE  -
|  1> ! wB97X-D3 SP def2-SVP
|  2> %pal
|  3> nprocs 24
|  4> end
|  5>
|  6> * xyz 0 1
|  7> S 	 -77.3366 	 -3.32104 	 2.95793
|  8> C 	 -76.9162 	 -3.87428 	 1.32548
|  9> C 	 -77.4202 	 -5.12546 	 0.98751
| 10> C 	 -78.012 	 -5.77029 	 2.12679
| 11> C 	 -77.9563 	 -4.97336 	 3.25931
| 12> H 	 -78.4858 	 -6.77648 	 2.18742
| 13> C 	 -77.2526 	 -5.72608 	 -0.360713
| 14> H 	 -77.2384 	 -5.00643 	 -1.14825
| 15> H 	 -78.032 	 -6.44666 	 -0.549676
| 16> C 	 -75.8867 	 -6.40783 	 -0.559557
| 17> H 	 -75.7897 	 -6.88369 	 -1.56525
| 18> H 	 -75.0151 	 -5.74027 	 -0.630208
| 19> C 	 -75.5388 	 -7.56207 	 0.365093
| 20> H 	 -75.29 	 -6.97933 	 1.24307
| 21> H 	 -76.3512 	 -8.20357 	 0.588644
| 22> H 	 -74.6122 	 -8.0424 	 -0.0038715
| 23> S 	 -79.3323 	 -4.10835 	 5.4758
| 24> C 	 -79.5239 	 -5.03286 	 6.98211
| 25> C 	 -78.8923 	 -6.24497 	 6.73842
| 26> C 	 -78.2174 	 -6.39439 	 5.46714
| 27> C 	 -78.4752 	 -5.33943 	 4.59671
| 28> H 	 -79.151 	 -7.02768 	 7.48649
| 29> C 	 -77.6261 	 -7.77397 	 5.17594
| 30> H 	 -76.9397 	 -8.02401 	 5.97866
| 31> H 	 -76.9361 	 -7.59301 	 4.30667
| 32> C 	 -78.602 	 -8.99596 	 4.85539
| 33> H 	 -79.0054 	 -8.82293 	 3.83425
| 34> H 	 -79.4962 	 -9.07144 	 5.50271
| 35> C 	 -77.9326 	 -10.372 	 5.00393
| 36> H 	 -78.6046 	 -11.1166 	 4.65062
| 37> H 	 -77.8787 	 -10.6708 	 6.14867
| 38> H 	 -76.9765 	 -10.3892 	 4.41123
| 39> H 	 -76.4867 	 -3.29157 	 0.607908
| 40> H 	 -80.1837 	 -4.84562 	 7.77723
| 41> *
| 42>
| 43>                          ****END OF INPUT****

CARTESIAN COORDINATES (ANGSTROEM)
---------------------------------
  S    -77.336600   -3.321040    2.957930
  C    -76.916200   -3.874280    1.325480
  C    -77.420200   -5.125460    0.987510
  C    -78.012000   -5.770290    2.126790
  C    -77.956300   -4.973360    3.259310
  H    -78.485800   -6.776480    2.187420
  C    -77.252600   -5.726080   -0.360713
  H    -77.238400   -5.006430   -1.148250
  H    -78.032000   -6.446660   -0.549676
  C    -75.886700   -6.407830   -0.559557
  H    -75.789700   -6.883690   -1.565250
  H    -75.015100   -5.740270   -0.630208
  C    -75.538800   -7.562070    0.365093
  H    -75.290000   -6.979330    1.243070
  H    -76.351200   -8.203570    0.588644
  H    -74.612200   -8.042400   -0.003871
  S    -79.332300   -4.108350    5.475800
  C    -79.523900   -5.032860    6.982110
  C    -78.892300   -6.244970    6.738420
  C    -78.217400   -6.394390    5.467140
  C    -78.475200   -5.339430    4.596710
  H    -79.151000   -7.027680    7.486490
  C    -77.626100   -7.773970    5.175940
  H    -76.939700   -8.024010    5.978660
  H    -76.936100   -7.593010    4.306670
  C    -78.602000   -8.995960    4.855390
  H    -79.005400   -8.822930    3.834250
  H    -79.496200   -9.071440    5.502710
  C    -77.932600  -10.372000    5.003930
  H    -78.604600  -11.116600    4.650620
  H    -77.878700  -10.670800    6.148670
  H    -76.976500  -10.389200    4.411230
  H    -76.486700   -3.291570    0.607908
  H    -80.183700   -4.845620    7.777230

 Total Charge           Charge          ....    0
 Multiplicity           Mult            ....    1
 Number of Electrons    NEL             ....  134
 Basis Dimension        Dim             ....  322

ORBITAL ENERGIES
----------------

  NO   OCC          E(Eh)            E(eV)
   0   2.0000     -88.973626     -2421.0954
   1   2.0000     -88.961020     -2420.7524
   2   2.0000     -10.338147      -281.3153
   3   2.0000     -10.332575      -281.1637
   4   2.0000     -10.317513      -280.7538
   5   2.0000     -10.311330      -280.5856
   6   2.0000     -10.306773      -280.4615
   7   2.0000     -10.305361      -280.4231
   8   2.0000     -10.304485      -280.3993
   9   2.0000     -10.297574      -280.2112
  10   2.0000     -10.297353      -280.2052
  11   2.0000     -10.297051      -280.1970
  12   2.0000     -10.292490      -280.0729
  13   2.0000     -10.291218      -280.0383
  14   2.0000     -10.286651      -279.9140
  15   2.0000     -10.271005      -279.4883
  16   2.0000      -8.086998      -220.0584
  17   2.0000      -8.075744      -219.7522
  18   2.0000      -6.045516      -164.5069
  19   2.0000      -6.041962      -164.4102
  20   2.0000      -6.037543      -164.2899
  21   2.0000      -6.034402      -164.2044
  22   2.0000      -6.030050      -164.0860
  23   2.0000      -6.026514      -163.9898
  24   2.0000      -1.003511       -27.3069
  25   2.0000      -0.981182       -26.6993
  26   2.0000      -0.916754       -24.9461
  27   2.0000      -0.897498       -24.4222
  28   2.0000      -0.868794       -23.6411
  29   2.0000      -0.852377       -23.1944
  30   2.0000      -0.843960       -22.9653
  31   2.0000      -0.821168       -22.3451
  32   2.0000      -0.783548       -21.3214
  33   2.0000      -0.768608       -20.9149
  34   2.0000      -0.707796       -19.2601
  35   2.0000      -0.697653       -18.9841
  36   2.0000      -0.692418       -18.8416
  37   2.0000      -0.659893       -17.9566
  38   2.0000      -0.643430       -17.5086
  39   2.0000      -0.615964       -16.7612
  40   2.0000      -0.590952       -16.0806
  41   2.0000      -0.574642       -15.6368
  42   2.0000      -0.555638       -15.1197
  43   2.0000      -0.553238       -15.0544
  44   2.0000      -0.544799       -14.8247
  45   2.0000      -0.533021       -14.5042
  46   2.0000      -0.522936       -14.2298
  47   2.0000      -0.512407       -13.9433
  48   2.0000      -0.505986       -13.7686
  49   2.0000      -0.498255       -13.5582
  50   2.0000      -0.489507       -13.3202
  51   2.0000      -0.478717       -13.0266
  52   2.0000      -0.474287       -12.9060
  53   2.0000      -0.458632       -12.4800
  54   2.0000      -0.455639       -12.3986
  55   2.0000      -0.450450       -12.2574
  56   2.0000      -0.447762       -12.1842
  57   2.0000      -0.439403       -11.9568
  58   2.0000      -0.430734       -11.7209
  59   2.0000      -0.430539       -11.7155
  60   2.0000      -0.414727       -11.2853
  61   2.0000      -0.406859       -11.0712
  62   2.0000      -0.398630       -10.8473
  63   2.0000      -0.351546        -9.5660
  64   2.0000      -0.335260        -9.1229
  65   2.0000      -0.324757        -8.8371
  66   2.0000      -0.292516        -7.9598
  67   0.0000       0.024792         0.6746
  68   0.0000       0.063233         1.7207
  69   0.0000       0.098108         2.6697
  70   0.0000       0.121917         3.3175
  71   0.0000       0.123429         3.3587

MULLIKEN ATOMIC CHARGES
-----------------------
   0 S :    0.123696
   1 C :   -0.073454
   2 C :   -0.089683
   3 C :   -0.000439
   4 C :   -0.125755
   5 H :    0.032235
   6 C :    0.134344
   7 H :    0.019547
   8 H :    0.023858
   9 C :   -0.131066
  10 H :    0.019187
  11 H :    0.023735
  12 C :   -0.039784
  13 H :    0.036859
  14 H :    0.026235
  15 H :    0.040727
  16 S :    0.069420
  17 C :   -0.079306
  18 C :   -0.059629
  19 C :   -0.037132
  20 C :   -0.142168
  21 H :    0.038812
  22 C :    0.037807
  23 H :    0.027405
  24 H :    0.032194
  25 C :   -0.076225
  26 H :    0.030929
  27 H :    0.031431
  28 C :   -0.079796
  29 H :    0.029538
  30 H :    0.049635
  31 H :    0.052622
  32 H :    0.004462
  33 H :    0.049760
Sum of atomic charges:    0.0000000

LOEWDIN ATOMIC CHARGES
----------------------
   0 S :    0.387973
   1 C :   -0.171164
   2 C :   -0.056663
   3 C :   -0.061994
   4 C :   -0.174653
   5 H :    0.041086
   6 C :   -0.026468
   7 H :    0.032817
   8 H :    0.032149
   9 C :   -0.046405
  10 H :    0.020652
  11 H :    0.022611
  12 C :   -0.066613
  13 H :    0.027016
  14 H :    0.016069
  15 H :    0.032446
  16 S :    0.391142
  17 C :   -0.176314
  18 C :   -0.072466
  19 C :   -0.069194
  20 C :   -0.195225
  21 H :    0.036954
  22 C :   -0.039898
  23 H :    0.029480
  24 H :    0.034186
  25 C :   -0.044325
  26 H :    0.022509
  27 H :    0.025469
  28 C :   -0.075363
  29 H :    0.020894
  30 H :    0.040286
  31 H :    0.032008
  32 H :    0.005902
  33 H :    0.025097

  Mayer bond orders larger than 0.100000
B(  0-S ,  1-C ) :   1.1256 B(  0-S ,  4-C ) :   1.1369 B(  1-C ,  2-C ) :   1.6271
B(  1-C , 32-H ) :   0.9734 B(  2-C ,  3-C ) :   1.2026 B(  2-C ,  6-C ) :   1.0445
B(  3-C ,  4-C ) :   1.5968 B(  3-C ,  5-H ) :   0.9886 B(  4-C , 20-C ) :   1.0365
B(  6-C ,  7-H ) :   0.9292 B(  6-C ,  8-H ) :   0.9365 B(  6-C ,  9-C ) :   1.0690
B(  9-C , 10-H ) :   0.9581 B(  9-C , 11-H ) :   0.9583 B(  9-C , 12-C ) :   1.0715
B( 12-C , 13-H ) :   0.9756 B( 12-C , 14-H ) :   0.9762 B( 12-C , 15-H ) :   0.9722
B( 16-S , 17-C ) :   1.1372 B( 16-S , 20-C ) :   1.1420 B( 17-C , 18-C ) :   1.6246
B( 17-C , 33-H ) :   0.9749 B( 18-C , 19-C ) :   1.2247 B( 18-C , 21-H ) :   0.9784
B( 19-C , 20-C ) :   1.5821 B( 19-C , 22-C ) :   1.0578 B( 22-C , 23-H ) :   0.9395
B( 22-C , 24-H ) :   0.9333 B( 22-C , 25-C ) :   1.0373 B( 25-C , 26-H ) :   0.9556
B( 25-C , 27-H ) :   0.9598 B( 25-C , 28-C ) :   1.0813 B( 28-C , 29-H ) :   0.9713
B( 28-C , 30-H ) :   0.9727 B( 28-C , 31-H ) :   0.9744

Dispersion correction           -0.014470813
FINAL SINGLE POINT ENERGY     -1339.855897470731

DIPOLE MOMENT
-------------
                                X             Y             Z
Electronic contribution:     -8.51322      28.23079      10.97455
Nuclear contribution   :      8.46893     -28.90773     -11.27598
                        -----------------------------------------
Total Dipole Moment    :     -0.04429      -0.67694      -0.30143
                        -----------------------------------------
Magnitude (a.u.)       :      0.74234
Magnitude (Debye)      :      1.88687

Rotational constants in cm-1:     0.016435     0.010005     0.006556
Rotational constants in MHz :   492.705035   299.933659   196.538650

                             ****ORCA TERMINATED NORMALLY****
TOTAL RUN TIME: 0 days 0 hours 0 minutes 21 seconds 890 msec
