                         Program Version 4.2.1 -  RELEASE  -
|  1> ! wB97X-D3 SP def2-SVP
|  2> %pal
|  3> nprocs 24
|  4> end
|  5>
|  6> * xyz 0 1
|  7> S 	 -126.394 	 19.5417 	 -22.6476
|  8> C 	 -124.969 	 19.6039 	 -21.6006
|  9> C 	 -123.99 	 20.4765 	 -22.1246
| 10> C 	 -124.461 	 21.0596 	 -23.3464
| 11> C 	 -125.732 	 20.711 	 -23.7437
| 12> H 	 -124.018 	 21.8539 	 -23.8495
| 13> C 	 -122.605 	 20.749 	 -21.4499
| 14> H 	 -122.133 	 19.7352 	 -21.4613
| 15> H 	 -122.656 	 20.9896 	 -20.3877
| 16> C 	 -121.619 	 21.6135 	 -22.2349
| 17> H 	 -121.554 	 21.354 	 -23.3101
| 18> H 	 -122.05 	 22.6077 	 -22.2056
| 19> C 	 -120.237 	 21.6966 	 -21.4839
| 20> H 	 -120.498 	 21.7282 	 -20.5135
| 21> H 	 -119.611 	 20.8306 	 -21.6726
| 22> H 	 -119.885 	 22.6485 	 -21.6526
| 23> S 	 -127.997 	 21.6281 	 -24.9625
| 24> C 	 -128.014 	 22.0378 	 -26.5673
| 25> C 	 -126.754 	 22.0168 	 -27.0925
| 26> C 	 -125.733 	 21.5492 	 -26.1962
| 27> C 	 -126.356 	 21.2148 	 -24.9883
| 28> H 	 -126.556 	 22.4239 	 -28.1149
| 29> C 	 -124.252 	 21.4347 	 -26.6066
| 30> H 	 -123.556 	 21.3448 	 -25.741
| 31> H 	 -124.153 	 22.3657 	 -26.9916
| 32> C 	 -123.954 	 20.4854 	 -27.7958
| 33> H 	 -123.144 	 20.8968 	 -28.3943
| 34> H 	 -124.767 	 20.381 	 -28.474
| 35> C 	 -123.48 	 19.1126 	 -27.3915
| 36> H 	 -122.68 	 18.8331 	 -28.0282
| 37> H 	 -124.303 	 18.4082 	 -27.4943
| 38> H 	 -123.031 	 19.1526 	 -26.4127
| 39> H 	 -124.848 	 19.0852 	 -20.6228
| 40> H 	 -128.88 	 22.5489 	 -27.0769
| 41> *
| 42>
| 43>                          ****END OF INPUT****

CARTESIAN COORDINATES (ANGSTROEM)
---------------------------------
  S    -126.394000   19.541700  -22.647600
  C    -124.969000   19.603900  -21.600600
  C    -123.990000   20.476500  -22.124600
  C    -124.461000   21.059600  -23.346400
  C    -125.732000   20.711000  -23.743700
  H    -124.018000   21.853900  -23.849500
  C    -122.605000   20.749000  -21.449900
  H    -122.133000   19.735200  -21.461300
  H    -122.656000   20.989600  -20.387700
  C    -121.619000   21.613500  -22.234900
  H    -121.554000   21.354000  -23.310100
  H    -122.050000   22.607700  -22.205600
  C    -120.237000   21.696600  -21.483900
  H    -120.498000   21.728200  -20.513500
  H    -119.611000   20.830600  -21.672600
  H    -119.885000   22.648500  -21.652600
  S    -127.997000   21.628100  -24.962500
  C    -128.014000   22.037800  -26.567300
  C    -126.754000   22.016800  -27.092500
  C    -125.733000   21.549200  -26.196200
  C    -126.356000   21.214800  -24.988300
  H    -126.556000   22.423900  -28.114900
  C    -124.252000   21.434700  -26.606600
  H    -123.556000   21.344800  -25.741000
  H    -124.153000   22.365700  -26.991600
  C    -123.954000   20.485400  -27.795800
  H    -123.144000   20.896800  -28.394300
  H    -124.767000   20.381000  -28.474000
  C    -123.480000   19.112600  -27.391500
  H    -122.680000   18.833100  -28.028200
  H    -124.303000   18.408200  -27.494300
  H    -123.031000   19.152600  -26.412700
  H    -124.848000   19.085200  -20.622800
  H    -128.880000   22.548900  -27.076900

 Total Charge           Charge          ....    0
 Multiplicity           Mult            ....    1
 Number of Electrons    NEL             ....  134
 Basis Dimension        Dim             ....  322

ORBITAL ENERGIES
----------------

  NO   OCC          E(Eh)            E(eV)
   0   2.0000     -88.967628     -2420.9322
   1   2.0000     -88.964271     -2420.8409
   2   2.0000     -10.325885      -280.9816
   3   2.0000     -10.322706      -280.8951
   4   2.0000     -10.316832      -280.7353
   5   2.0000     -10.310468      -280.5621
   6   2.0000     -10.307393      -280.4784
   7   2.0000     -10.305508      -280.4271
   8   2.0000     -10.298855      -280.2461
   9   2.0000     -10.293289      -280.0946
  10   2.0000     -10.290458      -280.0176
  11   2.0000     -10.289717      -279.9974
  12   2.0000     -10.284054      -279.8433
  13   2.0000     -10.278962      -279.7048
  14   2.0000     -10.268982      -279.4332
  15   2.0000     -10.263634      -279.2877
  16   2.0000      -8.081926      -219.9204
  17   2.0000      -8.081751      -219.9156
  18   2.0000      -6.040312      -164.3652
  19   2.0000      -6.040123      -164.3601
  20   2.0000      -6.036233      -164.2543
  21   2.0000      -6.035993      -164.2477
  22   2.0000      -6.032863      -164.1626
  23   2.0000      -6.032626      -164.1561
  24   2.0000      -1.016952       -27.6727
  25   2.0000      -0.985593       -26.8194
  26   2.0000      -0.912691       -24.8356
  27   2.0000      -0.910080       -24.7645
  28   2.0000      -0.867983       -23.6190
  29   2.0000      -0.857153       -23.3243
  30   2.0000      -0.844656       -22.9843
  31   2.0000      -0.812465       -22.1083
  32   2.0000      -0.788923       -21.4677
  33   2.0000      -0.776337       -21.1252
  34   2.0000      -0.710135       -19.3237
  35   2.0000      -0.698339       -19.0028
  36   2.0000      -0.684890       -18.6368
  37   2.0000      -0.656071       -17.8526
  38   2.0000      -0.634859       -17.2754
  39   2.0000      -0.622630       -16.9426
  40   2.0000      -0.599405       -16.3106
  41   2.0000      -0.572990       -15.5919
  42   2.0000      -0.563299       -15.3281
  43   2.0000      -0.557064       -15.1585
  44   2.0000      -0.543492       -14.7892
  45   2.0000      -0.526948       -14.3390
  46   2.0000      -0.514115       -13.9898
  47   2.0000      -0.511946       -13.9308
  48   2.0000      -0.500430       -13.6174
  49   2.0000      -0.496723       -13.5165
  50   2.0000      -0.493463       -13.4278
  51   2.0000      -0.481708       -13.1079
  52   2.0000      -0.470771       -12.8103
  53   2.0000      -0.467930       -12.7330
  54   2.0000      -0.461440       -12.5564
  55   2.0000      -0.449769       -12.2388
  56   2.0000      -0.445379       -12.1194
  57   2.0000      -0.439259       -11.9528
  58   2.0000      -0.436154       -11.8684
  59   2.0000      -0.434321       -11.8185
  60   2.0000      -0.418381       -11.3847
  61   2.0000      -0.415547       -11.3076
  62   2.0000      -0.408606       -11.1187
  63   2.0000      -0.351258        -9.5582
  64   2.0000      -0.329568        -8.9680
  65   2.0000      -0.329051        -8.9539
  66   2.0000      -0.286268        -7.7897
  67   0.0000       0.032737         0.8908
  68   0.0000       0.083628         2.2756
  69   0.0000       0.115014         3.1297
  70   0.0000       0.122112         3.3228
  71   0.0000       0.140248         3.8164

MULLIKEN ATOMIC CHARGES
-----------------------
   0 S :    0.117502
   1 C :   -0.154044
   2 C :   -0.059241
   3 C :   -0.020010
   4 C :   -0.100821
   5 H :    0.000027
   6 C :    0.027729
   7 H :    0.037214
   8 H :    0.040550
   9 C :   -0.137948
  10 H :    0.040571
  11 H :    0.028546
  12 C :    0.065314
  13 H :   -0.012629
  14 H :    0.048004
  15 H :    0.010962
  16 S :    0.133447
  17 C :   -0.102108
  18 C :   -0.074403
  19 C :   -0.061770
  20 C :   -0.182596
  21 H :    0.028644
  22 C :    0.139046
  23 H :    0.026086
  24 H :   -0.002766
  25 C :   -0.084250
  26 H :    0.017766
  27 H :    0.021796
  28 C :   -0.006782
  29 H :    0.014722
  30 H :    0.041065
  31 H :    0.021417
  32 H :    0.060983
  33 H :    0.077978
Sum of atomic charges:   -0.0000000

LOEWDIN ATOMIC CHARGES
----------------------
   0 S :    0.408459
   1 C :   -0.209387
   2 C :   -0.056107
   3 C :   -0.074117
   4 C :   -0.196218
   5 H :    0.016688
   6 C :   -0.039634
   7 H :    0.038277
   8 H :    0.031180
   9 C :   -0.042148
  10 H :    0.025210
  11 H :    0.020563
  12 C :   -0.042355
  13 H :    0.011660
  14 H :    0.031013
  15 H :    0.021083
  16 S :    0.469350
  17 C :   -0.232558
  18 C :   -0.082685
  19 C :   -0.051543
  20 C :   -0.220394
  21 H :    0.034858
  22 C :   -0.021792
  23 H :    0.033721
  24 H :    0.022180
  25 C :   -0.036463
  26 H :    0.023241
  27 H :    0.021449
  28 C :   -0.058551
  29 H :    0.020675
  30 H :    0.029125
  31 H :    0.023877
  32 H :    0.036750
  33 H :    0.044592

  Mayer bond orders larger than 0.100000
B(  0-S ,  1-C ) :   1.1412 B(  0-S ,  4-C ) :   1.1564 B(  1-C ,  2-C ) :   1.5979
B(  1-C ,  4-C ) :   0.1028 B(  1-C , 32-H ) :   0.9675 B(  2-C ,  3-C ) :   1.2673
B(  2-C ,  6-C ) :   0.9890 B(  3-C ,  4-C ) :   1.5627 B(  3-C ,  5-H ) :   0.9919
B(  4-C , 20-C ) :   1.0242 B(  6-C ,  7-H ) :   0.9435 B(  6-C ,  8-H ) :   0.9436
B(  6-C ,  9-C ) :   1.0828 B(  9-C , 10-H ) :   0.9540 B(  9-C , 11-H ) :   0.9530
B(  9-C , 12-C ) :   1.0722 B( 12-C , 13-H ) :   0.9651 B( 12-C , 14-H ) :   0.9774
B( 12-C , 15-H ) :   0.9677 B( 16-S , 17-C ) :   1.1796 B( 16-S , 20-C ) :   1.1826
B( 17-C , 18-C ) :   1.5827 B( 17-C , 33-H ) :   0.9590 B( 18-C , 19-C ) :   1.2811
B( 18-C , 21-H ) :   0.9791 B( 19-C , 20-C ) :   1.5546 B( 19-C , 22-C ) :   1.0177
B( 22-C , 23-H ) :   0.9388 B( 22-C , 24-H ) :   0.9104 B( 22-C , 25-C ) :   1.0737
B( 25-C , 26-H ) :   0.9598 B( 25-C , 27-H ) :   0.9588 B( 25-C , 28-C ) :   1.0783
B( 28-C , 29-H ) :   0.9757 B( 28-C , 30-H ) :   0.9792 B( 28-C , 31-H ) :   0.9762

Dispersion correction           -0.013918911
FINAL SINGLE POINT ENERGY     -1339.852262041283

DIPOLE MOMENT
-------------
                                X             Y             Z
Electronic contribution:    -30.15057      -0.92879       4.40443
Nuclear contribution   :     30.82899       1.29849      -4.56159
                        -----------------------------------------
Total Dipole Moment    :      0.67841       0.36970      -0.15716
                        -----------------------------------------
Magnitude (a.u.)       :      0.78843
Magnitude (Debye)      :      2.00403

Rotational constants in cm-1:     0.017321     0.008925     0.006936
Rotational constants in MHz :   519.282868   267.559014   207.924495

                             ****ORCA TERMINATED NORMALLY****
TOTAL RUN TIME: 0 days 0 hours 0 minutes 20 seconds 523 msec
