                         Program Version 4.2.1 -  RELEASE  -
|  1> ! wB97X-D3 SP def2-SVP
|  2> %pal
|  3> nprocs 24
|  4> end
|  5>
|  6> * xyz 0 1
|  7> S 	 -91.2688 	 -36.3577 	 -63.885
|  8> C 	 -93.0293 	 -36.1264 	 -63.8962
|  9> C 	 -93.4625 	 -35.0333 	 -64.5491
| 10> C 	 -92.349 	 -34.3631 	 -65.1421
| 11> C 	 -91.0799 	 -34.8121 	 -64.7524
| 12> H 	 -92.4931 	 -33.5938 	 -65.8484
| 13> C 	 -94.866 	 -34.6214 	 -64.8068
| 14> H 	 -94.879 	 -33.6448 	 -65.3054
| 15> H 	 -95.4044 	 -34.5441 	 -63.8586
| 16> C 	 -95.6592 	 -35.5553 	 -65.7269
| 17> H 	 -95.8549 	 -36.5117 	 -65.2875
| 18> H 	 -96.7164 	 -35.1746 	 -65.7231
| 19> C 	 -95.1529 	 -35.8229 	 -67.1494
| 20> H 	 -95.9257 	 -36.3141 	 -67.8006
| 21> H 	 -94.9049 	 -34.9041 	 -67.6869
| 22> H 	 -94.3211 	 -36.5349 	 -67.1374
| 23> S 	 -89.0597 	 -33.0984 	 -64.0952
| 24> C 	 -87.9725 	 -32.6456 	 -65.4079
| 25> C 	 -87.9691 	 -33.5411 	 -66.5045
| 26> C 	 -89.0187 	 -34.5057 	 -66.3264
| 27> C 	 -89.8156 	 -34.2505 	 -65.1953
| 28> H 	 -87.3013 	 -33.5305 	 -67.351
| 29> C 	 -89.2978 	 -35.5597 	 -67.3778
| 30> H 	 -89.5557 	 -36.4533 	 -66.7764
| 31> H 	 -88.3848 	 -35.8478 	 -67.8751
| 32> C 	 -90.4254 	 -35.1866 	 -68.3259
| 33> H 	 -89.9439 	 -34.5418 	 -69.099
| 34> H 	 -91.1297 	 -34.5156 	 -67.7772
| 35> C 	 -91.1594 	 -36.3407 	 -69.0561
| 36> H 	 -91.228 	 -37.2386 	 -68.4013
| 37> H 	 -90.5642 	 -36.6605 	 -69.9381
| 38> H 	 -92.1439 	 -35.9906 	 -69.3015
| 39> H 	 -93.7726 	 -36.5423 	 -63.1948
| 40> H 	 -87.147 	 -31.8705 	 -65.2773
| 41> *
| 42>
| 43>                          ****END OF INPUT****

CARTESIAN COORDINATES (ANGSTROEM)
---------------------------------
  S    -91.268800  -36.357700  -63.885000
  C    -93.029300  -36.126400  -63.896200
  C    -93.462500  -35.033300  -64.549100
  C    -92.349000  -34.363100  -65.142100
  C    -91.079900  -34.812100  -64.752400
  H    -92.493100  -33.593800  -65.848400
  C    -94.866000  -34.621400  -64.806800
  H    -94.879000  -33.644800  -65.305400
  H    -95.404400  -34.544100  -63.858600
  C    -95.659200  -35.555300  -65.726900
  H    -95.854900  -36.511700  -65.287500
  H    -96.716400  -35.174600  -65.723100
  C    -95.152900  -35.822900  -67.149400
  H    -95.925700  -36.314100  -67.800600
  H    -94.904900  -34.904100  -67.686900
  H    -94.321100  -36.534900  -67.137400
  S    -89.059700  -33.098400  -64.095200
  C    -87.972500  -32.645600  -65.407900
  C    -87.969100  -33.541100  -66.504500
  C    -89.018700  -34.505700  -66.326400
  C    -89.815600  -34.250500  -65.195300
  H    -87.301300  -33.530500  -67.351000
  C    -89.297800  -35.559700  -67.377800
  H    -89.555700  -36.453300  -66.776400
  H    -88.384800  -35.847800  -67.875100
  C    -90.425400  -35.186600  -68.325900
  H    -89.943900  -34.541800  -69.099000
  H    -91.129700  -34.515600  -67.777200
  C    -91.159400  -36.340700  -69.056100
  H    -91.228000  -37.238600  -68.401300
  H    -90.564200  -36.660500  -69.938100
  H    -92.143900  -35.990600  -69.301500
  H    -93.772600  -36.542300  -63.194800
  H    -87.147000  -31.870500  -65.277300

 Total Charge           Charge          ....    0
 Multiplicity           Mult            ....    1
 Number of Electrons    NEL             ....  134
 Basis Dimension        Dim             ....  322

ORBITAL ENERGIES
----------------

  NO   OCC          E(Eh)            E(eV)
   0   2.0000     -88.968764     -2420.9632
   1   2.0000     -88.968529     -2420.9567
   2   2.0000     -10.331124      -281.1242
   3   2.0000     -10.326701      -281.0038
   4   2.0000     -10.324267      -280.9376
   5   2.0000     -10.310645      -280.5669
   6   2.0000     -10.305522      -280.4275
   7   2.0000     -10.299039      -280.2511
   8   2.0000     -10.295518      -280.1553
   9   2.0000     -10.292570      -280.0751
  10   2.0000     -10.291697      -280.0513
  11   2.0000     -10.288626      -279.9677
  12   2.0000     -10.287260      -279.9306
  13   2.0000     -10.287151      -279.9276
  14   2.0000     -10.282894      -279.8118
  15   2.0000     -10.279759      -279.7265
  16   2.0000      -8.082964      -219.9486
  17   2.0000      -8.081974      -219.9217
  18   2.0000      -6.041315      -164.3925
  19   2.0000      -6.040672      -164.3750
  20   2.0000      -6.037773      -164.2962
  21   2.0000      -6.036746      -164.2682
  22   2.0000      -6.033690      -164.1850
  23   2.0000      -6.032522      -164.1533
  24   2.0000      -1.000527       -27.2257
  25   2.0000      -0.979748       -26.6603
  26   2.0000      -0.913391       -24.8546
  27   2.0000      -0.905383       -24.6367
  28   2.0000      -0.864959       -23.5367
  29   2.0000      -0.847599       -23.0643
  30   2.0000      -0.843752       -22.9597
  31   2.0000      -0.809185       -22.0190
  32   2.0000      -0.786572       -21.4037
  33   2.0000      -0.769980       -20.9522
  34   2.0000      -0.706179       -19.2161
  35   2.0000      -0.699776       -19.0419
  36   2.0000      -0.686757       -18.6876
  37   2.0000      -0.662736       -18.0340
  38   2.0000      -0.632028       -17.1983
  39   2.0000      -0.613312       -16.6891
  40   2.0000      -0.591583       -16.0978
  41   2.0000      -0.574053       -15.6208
  42   2.0000      -0.557578       -15.1725
  43   2.0000      -0.550771       -14.9872
  44   2.0000      -0.535759       -14.5787
  45   2.0000      -0.525298       -14.2941
  46   2.0000      -0.517323       -14.0771
  47   2.0000      -0.510603       -13.8942
  48   2.0000      -0.494116       -13.4456
  49   2.0000      -0.493009       -13.4154
  50   2.0000      -0.490786       -13.3550
  51   2.0000      -0.476814       -12.9748
  52   2.0000      -0.466795       -12.7021
  53   2.0000      -0.466108       -12.6834
  54   2.0000      -0.457939       -12.4611
  55   2.0000      -0.447816       -12.1857
  56   2.0000      -0.440898       -11.9974
  57   2.0000      -0.437825       -11.9138
  58   2.0000      -0.433267       -11.7898
  59   2.0000      -0.426016       -11.5925
  60   2.0000      -0.419893       -11.4259
  61   2.0000      -0.413954       -11.2643
  62   2.0000      -0.410799       -11.1784
  63   2.0000      -0.334473        -9.1015
  64   2.0000      -0.329868        -8.9762
  65   2.0000      -0.315650        -8.5893
  66   2.0000      -0.306379        -8.3370
  67   0.0000       0.038805         1.0560
  68   0.0000       0.041871         1.1394
  69   0.0000       0.099183         2.6989
  70   0.0000       0.113240         3.0814
  71   0.0000       0.123040         3.3481

MULLIKEN ATOMIC CHARGES
-----------------------
   0 S :    0.113525
   1 C :   -0.120328
   2 C :   -0.098700
   3 C :    0.056534
   4 C :   -0.163659
   5 H :   -0.001679
   6 C :    0.092398
   7 H :    0.022987
   8 H :    0.034381
   9 C :   -0.081512
  10 H :    0.014558
  11 H :    0.025791
  12 C :   -0.065258
  13 H :    0.037775
  14 H :    0.028842
  15 H :    0.049097
  16 S :    0.127694
  17 C :   -0.113203
  18 C :   -0.028284
  19 C :   -0.046291
  20 C :   -0.206258
  21 H :    0.020235
  22 C :    0.097069
  23 H :    0.018421
  24 H :    0.015527
  25 C :   -0.093726
  26 H :    0.026929
  27 H :    0.032694
  28 C :   -0.035174
  29 H :    0.036304
  30 H :    0.037705
  31 H :    0.037329
  32 H :    0.050393
  33 H :    0.077886
Sum of atomic charges:    0.0000000

LOEWDIN ATOMIC CHARGES
----------------------
   0 S :    0.382567
   1 C :   -0.195139
   2 C :   -0.071694
   3 C :   -0.043494
   4 C :   -0.194881
   5 H :    0.019567
   6 C :   -0.029466
   7 H :    0.032876
   8 H :    0.038214
   9 C :   -0.046134
  10 H :    0.018396
  11 H :    0.028210
  12 C :   -0.071277
  13 H :    0.034749
  14 H :    0.021532
  15 H :    0.029505
  16 S :    0.409223
  17 C :   -0.190033
  18 C :   -0.070162
  19 C :   -0.042664
  20 C :   -0.209629
  21 H :    0.032034
  22 C :   -0.036435
  23 H :    0.029908
  24 H :    0.025844
  25 C :   -0.045908
  26 H :    0.026833
  27 H :    0.026685
  28 C :   -0.064575
  29 H :    0.027797
  30 H :    0.029160
  31 H :    0.025560
  32 H :    0.034807
  33 H :    0.038023

  Mayer bond orders larger than 0.100000
B(  0-S ,  1-C ) :   1.1268 B(  0-S ,  4-C ) :   1.1234 B(  1-C ,  2-C ) :   1.6536
B(  1-C , 32-H ) :   0.9465 B(  2-C ,  3-C ) :   1.2349 B(  2-C ,  6-C ) :   1.0290
B(  3-C ,  4-C ) :   1.5903 B(  3-C ,  5-H ) :   0.9908 B(  4-C , 20-C ) :   1.0434
B(  6-C ,  7-H ) :   0.9388 B(  6-C ,  8-H ) :   0.9273 B(  6-C ,  9-C ) :   1.0846
B(  9-C , 10-H ) :   0.9518 B(  9-C , 11-H ) :   0.9536 B(  9-C , 12-C ) :   1.0726
B( 12-C , 13-H ) :   0.9715 B( 12-C , 14-H ) :   0.9770 B( 12-C , 15-H ) :   0.9733
B( 16-S , 17-C ) :   1.1690 B( 16-S , 20-C ) :   1.1447 B( 17-C , 18-C ) :   1.5849
B( 17-C , 20-C ) :   0.1071 B( 17-C , 33-H ) :   0.9569 B( 18-C , 19-C ) :   1.2533
B( 18-C , 21-H ) :   0.9910 B( 19-C , 20-C ) :   1.5824 B( 19-C , 22-C ) :   1.0512
B( 22-C , 23-H ) :   0.9241 B( 22-C , 24-H ) :   0.9325 B( 22-C , 25-C ) :   1.0547
B( 25-C , 26-H ) :   0.9518 B( 25-C , 27-H ) :   0.9618 B( 25-C , 28-C ) :   1.0709
B( 28-C , 29-H ) :   0.9789 B( 28-C , 30-H ) :   0.9751 B( 28-C , 31-H ) :   0.9747

Dispersion correction           -0.015942502
FINAL SINGLE POINT ENERGY     -1339.870451304240

DIPOLE MOMENT
-------------
                                X             Y             Z
Electronic contribution:     18.06626       6.38038      21.73737
Nuclear contribution   :    -18.39541      -6.34962     -22.21561
                        -----------------------------------------
Total Dipole Moment    :     -0.32915       0.03076      -0.47824
                        -----------------------------------------
Magnitude (a.u.)       :      0.58138
Magnitude (Debye)      :      1.47774

Rotational constants in cm-1:     0.019152     0.009575     0.007614
Rotational constants in MHz :   574.173246   287.058180   228.269217

                             ****ORCA TERMINATED NORMALLY****
TOTAL RUN TIME: 0 days 0 hours 0 minutes 22 seconds 757 msec
