                         Program Version 4.2.1 -  RELEASE  -
|  1> ! wB97X-D3 SP def2-SVP
|  2> %pal
|  3> nprocs 24
|  4> end
|  5>
|  6> * xyz 0 1
|  7> S 	 -103.956 	 39.0099 	 -91.5991
|  8> C 	 -102.891 	 39.4525 	 -90.3233
|  9> C 	 -102.469 	 40.7202 	 -90.3669
| 10> C 	 -102.991 	 41.3518 	 -91.4794
| 11> C 	 -103.67 	 40.547 	 -92.3669
| 12> H 	 -102.877 	 42.4121 	 -91.7469
| 13> C 	 -101.574 	 41.4772 	 -89.4441
| 14> H 	 -101.75 	 41.166 	 -88.4008
| 15> H 	 -101.95 	 42.5099 	 -89.474
| 16> C 	 -100.111 	 41.4089 	 -89.814
| 17> H 	 -99.7786 	 40.426 	 -90.0647
| 18> H 	 -99.9362 	 42.034 	 -90.6905
| 19> C 	 -99.1892 	 41.9522 	 -88.7306
| 20> H 	 -98.1546 	 42.0051 	 -89.0842
| 21> H 	 -99.3932 	 42.9922 	 -88.3651
| 22> H 	 -99.2104 	 41.249 	 -87.9447
| 23> S 	 -105.15 	 42.4267 	 -93.7707
| 24> C 	 -105.123 	 42.4109 	 -95.4736
| 25> C 	 -104.34 	 41.3834 	 -95.9537
| 26> C 	 -103.876 	 40.521 	 -94.9311
| 27> C 	 -104.159 	 40.9837 	 -93.6725
| 28> H 	 -104.22 	 41.2885 	 -97.0052
| 29> C 	 -103.051 	 39.2561 	 -95.1671
| 30> H 	 -103.587 	 38.6061 	 -95.8655
| 31> H 	 -102.848 	 38.6978 	 -94.2238
| 32> C 	 -101.715 	 39.63 	 -95.9032
| 33> H 	 -101.831 	 39.8884 	 -96.9655
| 34> H 	 -101.1 	 38.7319 	 -95.9261
| 35> C 	 -100.846 	 40.7048 	 -95.1261
| 36> H 	 -100.915 	 41.7157 	 -95.4902
| 37> H 	 -99.871 	 40.3707 	 -94.967
| 38> H 	 -101.248 	 40.8357 	 -94.0975
| 39> H 	 -102.476 	 38.8377 	 -89.5147
| 40> H 	 -105.688 	 43.0658 	 -96.0887
| 41> *
| 42>
| 43>                          ****END OF INPUT****

CARTESIAN COORDINATES (ANGSTROEM)
---------------------------------
  S    -103.956000   39.009900  -91.599100
  C    -102.891000   39.452500  -90.323300
  C    -102.469000   40.720200  -90.366900
  C    -102.991000   41.351800  -91.479400
  C    -103.670000   40.547000  -92.366900
  H    -102.877000   42.412100  -91.746900
  C    -101.574000   41.477200  -89.444100
  H    -101.750000   41.166000  -88.400800
  H    -101.950000   42.509900  -89.474000
  C    -100.111000   41.408900  -89.814000
  H    -99.778600   40.426000  -90.064700
  H    -99.936200   42.034000  -90.690500
  C    -99.189200   41.952200  -88.730600
  H    -98.154600   42.005100  -89.084200
  H    -99.393200   42.992200  -88.365100
  H    -99.210400   41.249000  -87.944700
  S    -105.150000   42.426700  -93.770700
  C    -105.123000   42.410900  -95.473600
  C    -104.340000   41.383400  -95.953700
  C    -103.876000   40.521000  -94.931100
  C    -104.159000   40.983700  -93.672500
  H    -104.220000   41.288500  -97.005200
  C    -103.051000   39.256100  -95.167100
  H    -103.587000   38.606100  -95.865500
  H    -102.848000   38.697800  -94.223800
  C    -101.715000   39.630000  -95.903200
  H    -101.831000   39.888400  -96.965500
  H    -101.100000   38.731900  -95.926100
  C    -100.846000   40.704800  -95.126100
  H    -100.915000   41.715700  -95.490200
  H    -99.871000   40.370700  -94.967000
  H    -101.248000   40.835700  -94.097500
  H    -102.476000   38.837700  -89.514700
  H    -105.688000   43.065800  -96.088700

 Total Charge           Charge          ....    0
 Multiplicity           Mult            ....    1
 Number of Electrons    NEL             ....  134
 Basis Dimension        Dim             ....  322

ORBITAL ENERGIES
----------------

  NO   OCC          E(Eh)            E(eV)
   0   2.0000     -88.969868     -2420.9932
   1   2.0000     -88.963212     -2420.8121
   2   2.0000     -10.324867      -280.9539
   3   2.0000     -10.321575      -280.8643
   4   2.0000     -10.312469      -280.6165
   5   2.0000     -10.306030      -280.4413
   6   2.0000     -10.299775      -280.2711
   7   2.0000     -10.294495      -280.1274
   8   2.0000     -10.291581      -280.0482
   9   2.0000     -10.289701      -279.9970
  10   2.0000     -10.287936      -279.9490
  11   2.0000     -10.286718      -279.9158
  12   2.0000     -10.285483      -279.8822
  13   2.0000     -10.282897      -279.8118
  14   2.0000     -10.276838      -279.6470
  15   2.0000     -10.266416      -279.3634
  16   2.0000      -8.084658      -219.9947
  17   2.0000      -8.078783      -219.8349
  18   2.0000      -6.043129      -164.4419
  19   2.0000      -6.039236      -164.3360
  20   2.0000      -6.037144      -164.2791
  21   2.0000      -6.035370      -164.2308
  22   2.0000      -6.033106      -164.1692
  23   2.0000      -6.029725      -164.0772
  24   2.0000      -1.015964       -27.6458
  25   2.0000      -0.995892       -27.0996
  26   2.0000      -0.918992       -25.0070
  27   2.0000      -0.900260       -24.4973
  28   2.0000      -0.873059       -23.7571
  29   2.0000      -0.856260       -23.3000
  30   2.0000      -0.840728       -22.8774
  31   2.0000      -0.813079       -22.1250
  32   2.0000      -0.783980       -21.3332
  33   2.0000      -0.775713       -21.1082
  34   2.0000      -0.706552       -19.2262
  35   2.0000      -0.702637       -19.1197
  36   2.0000      -0.696602       -18.9555
  37   2.0000      -0.662403       -18.0249
  38   2.0000      -0.635398       -17.2901
  39   2.0000      -0.620826       -16.8935
  40   2.0000      -0.595851       -16.2139
  41   2.0000      -0.577681       -15.7195
  42   2.0000      -0.565258       -15.3814
  43   2.0000      -0.547576       -14.9003
  44   2.0000      -0.539931       -14.6923
  45   2.0000      -0.527424       -14.3519
  46   2.0000      -0.515706       -14.0331
  47   2.0000      -0.512400       -13.9431
  48   2.0000      -0.507402       -13.8071
  49   2.0000      -0.498124       -13.5547
  50   2.0000      -0.486274       -13.2322
  51   2.0000      -0.473906       -12.8956
  52   2.0000      -0.470930       -12.8146
  53   2.0000      -0.466750       -12.7009
  54   2.0000      -0.463635       -12.6162
  55   2.0000      -0.448128       -12.1942
  56   2.0000      -0.441250       -12.0070
  57   2.0000      -0.438395       -11.9293
  58   2.0000      -0.430057       -11.7025
  59   2.0000      -0.426535       -11.6066
  60   2.0000      -0.421587       -11.4720
  61   2.0000      -0.418025       -11.3750
  62   2.0000      -0.412819       -11.2334
  63   2.0000      -0.342717        -9.3258
  64   2.0000      -0.335704        -9.1350
  65   2.0000      -0.330153        -8.9839
  66   2.0000      -0.295251        -8.0342
  67   0.0000       0.037346         1.0162
  68   0.0000       0.070823         1.9272
  69   0.0000       0.112838         3.0705
  70   0.0000       0.128791         3.5046
  71   0.0000       0.131836         3.5874

MULLIKEN ATOMIC CHARGES
-----------------------
   0 S :    0.134547
   1 C :   -0.126169
   2 C :   -0.072610
   3 C :   -0.003184
   4 C :   -0.160214
   5 H :    0.014277
   6 C :    0.074076
   7 H :    0.017947
   8 H :    0.026087
   9 C :   -0.043528
  10 H :    0.021899
  11 H :    0.024450
  12 C :   -0.044721
  13 H :    0.030531
  14 H :    0.035932
  15 H :    0.021201
  16 S :    0.116713
  17 C :   -0.079528
  18 C :   -0.035094
  19 C :   -0.012811
  20 C :   -0.177933
  21 H :    0.006085
  22 C :    0.080755
  23 H :    0.032279
  24 H :    0.036578
  25 C :   -0.112224
  26 H :    0.037002
  27 H :    0.027189
  28 C :   -0.029293
  29 H :    0.033682
  30 H :    0.022710
  31 H :    0.022080
  32 H :    0.035673
  33 H :    0.045615
Sum of atomic charges:   -0.0000000

LOEWDIN ATOMIC CHARGES
----------------------
   0 S :    0.428853
   1 C :   -0.207714
   2 C :   -0.075852
   3 C :   -0.064015
   4 C :   -0.199445
   5 H :    0.029607
   6 C :   -0.029053
   7 H :    0.028651
   8 H :    0.036213
   9 C :   -0.036149
  10 H :    0.022073
  11 H :    0.025540
  12 C :   -0.064129
  13 H :    0.027582
  14 H :    0.029184
  15 H :    0.016157
  16 S :    0.424209
  17 C :   -0.187974
  18 C :   -0.070624
  19 C :   -0.053486
  20 C :   -0.203886
  21 H :    0.026887
  22 C :   -0.028975
  23 H :    0.032574
  24 H :    0.027489
  25 C :   -0.041894
  26 H :    0.022443
  27 H :    0.023508
  28 C :   -0.069779
  29 H :    0.025508
  30 H :    0.016773
  31 H :    0.032663
  32 H :    0.033045
  33 H :    0.024016

  Mayer bond orders larger than 0.100000
B(  0-S ,  1-C ) :   1.1394 B(  0-S ,  4-C ) :   1.1480 B(  1-C ,  2-C ) :   1.6318
B(  1-C , 32-H ) :   0.9548 B(  2-C ,  3-C ) :   1.2656 B(  2-C ,  6-C ) :   1.0140
B(  3-C ,  4-C ) :   1.5670 B(  3-C ,  5-H ) :   0.9904 B(  4-C , 20-C ) :   1.0248
B(  6-C ,  7-H ) :   0.9400 B(  6-C ,  8-H ) :   0.9325 B(  6-C ,  9-C ) :   1.0671
B(  9-C , 10-H ) :   0.9568 B(  9-C , 11-H ) :   0.9503 B(  9-C , 12-C ) :   1.0896
B( 12-C , 13-H ) :   0.9733 B( 12-C , 14-H ) :   0.9732 B( 12-C , 15-H ) :   0.9764
B( 16-S , 17-C ) :   1.1740 B( 16-S , 20-C ) :   1.1443 B( 17-C , 18-C ) :   1.5907
B( 17-C , 33-H ) :   0.9721 B( 18-C , 19-C ) :   1.2407 B( 18-C , 21-H ) :   1.0006
B( 19-C , 20-C ) :   1.5856 B( 19-C , 22-C ) :   1.0473 B( 22-C , 23-H ) :   0.9327
B( 22-C , 24-H ) :   0.9329 B( 22-C , 25-C ) :   1.0764 B( 25-C , 26-H ) :   0.9598
B( 25-C , 27-H ) :   0.9640 B( 25-C , 28-C ) :   1.0524 B( 28-C , 29-H ) :   0.9757
B( 28-C , 30-H ) :   0.9789 B( 28-C , 31-H ) :   0.9769

Dispersion correction           -0.015290823
FINAL SINGLE POINT ENERGY     -1339.885423783158

DIPOLE MOMENT
-------------
                                X             Y             Z
Electronic contribution:    -25.11819      -1.89849      -3.10145
Nuclear contribution   :     25.58929       1.99013       3.03994
                        -----------------------------------------
Total Dipole Moment    :      0.47110       0.09165      -0.06151
                        -----------------------------------------
Magnitude (a.u.)       :      0.48385
Magnitude (Debye)      :      1.22986

Rotational constants in cm-1:     0.019982     0.008293     0.007771
Rotational constants in MHz :   599.039555   248.606282   232.957974

                             ****ORCA TERMINATED NORMALLY****
TOTAL RUN TIME: 0 days 0 hours 0 minutes 22 seconds 591 msec
