                         Program Version 4.2.1 -  RELEASE  -
|  1> ! wB97X-D3 SP def2-SVP
|  2> %pal
|  3> nprocs 24
|  4> end
|  5>
|  6> * xyz 0 1
|  7> S 	 -122.584 	 35.365 	 -108.053
|  8> C 	 -121.447 	 35.978 	 -109.148
|  9> C 	 -121.406 	 35.1983 	 -110.272
| 10> C 	 -122.41 	 34.1818 	 -110.354
| 11> C 	 -123.131 	 34.0992 	 -109.192
| 12> H 	 -122.517 	 33.5042 	 -111.191
| 13> C 	 -120.408 	 35.4092 	 -111.343
| 14> H 	 -120.053 	 34.3923 	 -111.607
| 15> H 	 -119.501 	 35.8185 	 -110.821
| 16> C 	 -120.763 	 36.307 	 -112.525
| 17> H 	 -121.338 	 37.197 	 -112.198
| 18> H 	 -119.806 	 36.7463 	 -112.82
| 19> C 	 -121.367 	 35.6686 	 -113.77
| 20> H 	 -120.62 	 35.1496 	 -114.309
| 21> H 	 -122.204 	 34.9736 	 -113.512
| 22> H 	 -121.796 	 36.4213 	 -114.452
| 23> S 	 -124.311 	 32.7489 	 -107.305
| 24> C 	 -125.997 	 32.1057 	 -107.542
| 25> C 	 -126.257 	 31.9898 	 -108.859
| 26> C 	 -125.306 	 32.7263 	 -109.667
| 27> C 	 -124.303 	 33.2369 	 -108.913
| 28> H 	 -127.143 	 31.4853 	 -109.188
| 29> C 	 -125.453 	 32.8063 	 -111.192
| 30> H 	 -125.125 	 31.8899 	 -111.67
| 31> H 	 -124.801 	 33.5672 	 -111.493
| 32> C 	 -126.913 	 32.994 	 -111.634
| 33> H 	 -127.465 	 33.6895 	 -110.968
| 34> H 	 -127.519 	 32.0716 	 -111.561
| 35> C 	 -126.992 	 33.5292 	 -113.087
| 36> H 	 -126.406 	 32.8283 	 -113.697
| 37> H 	 -126.651 	 34.6162 	 -113.19
| 38> H 	 -128.006 	 33.4568 	 -113.528
| 39> H 	 -120.917 	 36.9519 	 -108.891
| 40> H 	 -126.606 	 31.5758 	 -106.799
| 41> *
| 42>
| 43>                          ****END OF INPUT****

CARTESIAN COORDINATES (ANGSTROEM)
---------------------------------
  S    -122.584000   35.365000  -108.053000
  C    -121.447000   35.978000  -109.148000
  C    -121.406000   35.198300  -110.272000
  C    -122.410000   34.181800  -110.354000
  C    -123.131000   34.099200  -109.192000
  H    -122.517000   33.504200  -111.191000
  C    -120.408000   35.409200  -111.343000
  H    -120.053000   34.392300  -111.607000
  H    -119.501000   35.818500  -110.821000
  C    -120.763000   36.307000  -112.525000
  H    -121.338000   37.197000  -112.198000
  H    -119.806000   36.746300  -112.820000
  C    -121.367000   35.668600  -113.770000
  H    -120.620000   35.149600  -114.309000
  H    -122.204000   34.973600  -113.512000
  H    -121.796000   36.421300  -114.452000
  S    -124.311000   32.748900  -107.305000
  C    -125.997000   32.105700  -107.542000
  C    -126.257000   31.989800  -108.859000
  C    -125.306000   32.726300  -109.667000
  C    -124.303000   33.236900  -108.913000
  H    -127.143000   31.485300  -109.188000
  C    -125.453000   32.806300  -111.192000
  H    -125.125000   31.889900  -111.670000
  H    -124.801000   33.567200  -111.493000
  C    -126.913000   32.994000  -111.634000
  H    -127.465000   33.689500  -110.968000
  H    -127.519000   32.071600  -111.561000
  C    -126.992000   33.529200  -113.087000
  H    -126.406000   32.828300  -113.697000
  H    -126.651000   34.616200  -113.190000
  H    -128.006000   33.456800  -113.528000
  H    -120.917000   36.951900  -108.891000
  H    -126.606000   31.575800  -106.799000

 Total Charge           Charge          ....    0
 Multiplicity           Mult            ....    1
 Number of Electrons    NEL             ....  134
 Basis Dimension        Dim             ....  322

ORBITAL ENERGIES
----------------

  NO   OCC          E(Eh)            E(eV)
   0   2.0000     -88.963260     -2420.8134
   1   2.0000     -88.959791     -2420.7190
   2   2.0000     -10.331466      -281.1335
   3   2.0000     -10.320017      -280.8219
   4   2.0000     -10.314981      -280.6849
   5   2.0000     -10.313788      -280.6524
   6   2.0000     -10.299479      -280.2631
   7   2.0000     -10.294627      -280.1310
   8   2.0000     -10.294113      -280.1171
   9   2.0000     -10.291363      -280.0422
  10   2.0000     -10.290503      -280.0188
  11   2.0000     -10.290085      -280.0075
  12   2.0000     -10.289325      -279.9868
  13   2.0000     -10.287249      -279.9303
  14   2.0000     -10.286707      -279.9155
  15   2.0000     -10.279527      -279.7201
  16   2.0000      -8.078626      -219.8306
  17   2.0000      -8.075376      -219.7421
  18   2.0000      -6.037132      -164.2787
  19   2.0000      -6.034030      -164.1943
  20   2.0000      -6.032933      -164.1645
  21   2.0000      -6.030042      -164.0858
  22   2.0000      -6.029424      -164.0690
  23   2.0000      -6.025626      -163.9656
  24   2.0000      -1.012782       -27.5592
  25   2.0000      -0.989791       -26.9336
  26   2.0000      -0.911608       -24.8061
  27   2.0000      -0.906312       -24.6620
  28   2.0000      -0.874378       -23.7930
  29   2.0000      -0.853697       -23.2303
  30   2.0000      -0.842473       -22.9248
  31   2.0000      -0.822825       -22.3902
  32   2.0000      -0.777037       -21.1443
  33   2.0000      -0.768065       -20.9001
  34   2.0000      -0.704817       -19.1790
  35   2.0000      -0.698576       -19.0092
  36   2.0000      -0.695525       -18.9262
  37   2.0000      -0.660791       -17.9811
  38   2.0000      -0.641261       -17.4496
  39   2.0000      -0.618511       -16.8305
  40   2.0000      -0.593700       -16.1554
  41   2.0000      -0.569957       -15.5093
  42   2.0000      -0.566372       -15.4118
  43   2.0000      -0.546730       -14.8773
  44   2.0000      -0.537960       -14.6386
  45   2.0000      -0.524256       -14.2657
  46   2.0000      -0.518471       -14.1083
  47   2.0000      -0.512796       -13.9539
  48   2.0000      -0.503456       -13.6997
  49   2.0000      -0.501947       -13.6587
  50   2.0000      -0.490979       -13.3602
  51   2.0000      -0.484205       -13.1759
  52   2.0000      -0.471240       -12.8231
  53   2.0000      -0.463508       -12.6127
  54   2.0000      -0.460155       -12.5215
  55   2.0000      -0.446074       -12.1383
  56   2.0000      -0.441935       -12.0257
  57   2.0000      -0.435507       -11.8508
  58   2.0000      -0.432591       -11.7714
  59   2.0000      -0.423934       -11.5358
  60   2.0000      -0.420633       -11.4460
  61   2.0000      -0.414528       -11.2799
  62   2.0000      -0.407919       -11.1000
  63   2.0000      -0.358916        -9.7666
  64   2.0000      -0.331909        -9.0317
  65   2.0000      -0.324676        -8.8349
  66   2.0000      -0.289017        -7.8646
  67   0.0000       0.030949         0.8422
  68   0.0000       0.077480         2.1083
  69   0.0000       0.094664         2.5760
  70   0.0000       0.126550         3.4436
  71   0.0000       0.131023         3.5653

MULLIKEN ATOMIC CHARGES
-----------------------
   0 S :    0.113306
   1 C :   -0.153587
   2 C :   -0.090053
   3 C :    0.012442
   4 C :   -0.115369
   5 H :    0.019323
   6 C :    0.025050
   7 H :    0.025696
   8 H :    0.024124
   9 C :   -0.043616
  10 H :    0.028366
  11 H :    0.020867
  12 C :   -0.040650
  13 H :    0.026569
  14 H :    0.031852
  15 H :    0.036242
  16 S :    0.083224
  17 C :   -0.088523
  18 C :   -0.026760
  19 C :   -0.078144
  20 C :   -0.133225
  21 H :    0.017883
  22 C :    0.132177
  23 H :    0.035445
  24 H :    0.002787
  25 C :   -0.125450
  26 H :    0.038396
  27 H :    0.034633
  28 C :   -0.069598
  29 H :    0.025887
  30 H :    0.056238
  31 H :    0.034755
  32 H :    0.083317
  33 H :    0.056399
Sum of atomic charges:   -0.0000000

LOEWDIN ATOMIC CHARGES
----------------------
   0 S :    0.411713
   1 C :   -0.221398
   2 C :   -0.075263
   3 C :   -0.064866
   4 C :   -0.182702
   5 H :    0.032717
   6 C :   -0.043092
   7 H :    0.033266
   8 H :    0.037092
   9 C :   -0.045716
  10 H :    0.028003
  11 H :    0.025953
  12 C :   -0.065405
  13 H :    0.019214
  14 H :    0.026066
  15 H :    0.031277
  16 S :    0.395942
  17 C :   -0.167032
  18 C :   -0.059932
  19 C :   -0.062477
  20 C :   -0.206422
  21 H :    0.030875
  22 C :   -0.024172
  23 H :    0.034231
  24 H :    0.020785
  25 C :   -0.048285
  26 H :    0.025344
  27 H :    0.024592
  28 C :   -0.073826
  29 H :    0.022650
  30 H :    0.035347
  31 H :    0.026745
  32 H :    0.047061
  33 H :    0.031715

  Mayer bond orders larger than 0.100000
B(  0-S ,  1-C ) :   1.1474 B(  0-S ,  4-C ) :   1.1521 B(  1-C ,  2-C ) :   1.5937
B(  1-C , 32-H ) :   0.9615 B(  2-C ,  3-C ) :   1.2441 B(  2-C ,  6-C ) :   1.0322
B(  3-C ,  4-C ) :   1.5662 B(  3-C ,  5-H ) :   0.9968 B(  4-C , 20-C ) :   1.0088
B(  6-C ,  7-H ) :   0.9404 B(  6-C ,  8-H ) :   0.9424 B(  6-C ,  9-C ) :   1.0533
B(  9-C , 10-H ) :   0.9565 B(  9-C , 11-H ) :   0.9551 B(  9-C , 12-C ) :   1.0815
B( 12-C , 13-H ) :   0.9758 B( 12-C , 14-H ) :   0.9764 B( 12-C , 15-H ) :   0.9718
B( 16-S , 17-C ) :   1.1043 B( 16-S , 20-C ) :   1.1453 B( 17-C , 18-C ) :   1.6783
B( 17-C , 33-H ) :   0.9633 B( 18-C , 19-C ) :   1.1847 B( 18-C , 21-H ) :   0.9870
B( 19-C , 20-C ) :   1.6575 B( 19-C , 22-C ) :   1.0433 B( 22-C , 23-H ) :   0.9246
B( 22-C , 24-H ) :   0.9318 B( 22-C , 25-C ) :   1.0534 B( 25-C , 26-H ) :   0.9647
B( 25-C , 27-H ) :   0.9481 B( 25-C , 28-C ) :   1.0851 B( 28-C , 29-H ) :   0.9714
B( 28-C , 30-H ) :   0.9750 B( 28-C , 31-H ) :   0.9746

Dispersion correction           -0.013832324
FINAL SINGLE POINT ENERGY     -1339.874439921673

DIPOLE MOMENT
-------------
                                X             Y             Z
Electronic contribution:      2.42893      -3.38945      31.13056
Nuclear contribution   :     -2.44894       3.33899     -31.84610
                        -----------------------------------------
Total Dipole Moment    :     -0.02001      -0.05045      -0.71554
                        -----------------------------------------
Magnitude (a.u.)       :      0.71759
Magnitude (Debye)      :      1.82398

Rotational constants in cm-1:     0.016425     0.009791     0.006499
Rotational constants in MHz :   492.407698   293.513461   194.820273

                             ****ORCA TERMINATED NORMALLY****
TOTAL RUN TIME: 0 days 0 hours 0 minutes 21 seconds 467 msec
