                         Program Version 4.2.1 -  RELEASE  -
|  1> ! wB97X-D3 SP def2-SVP
|  2> %pal
|  3> nprocs 24
|  4> end
|  5>
|  6> * xyz 0 1
|  7> S 	 -97.844 	 46.8872 	 -93.7699
|  8> C 	 -98.3555 	 45.4175 	 -92.937
|  9> C 	 -97.9788 	 44.3291 	 -93.6645
| 10> C 	 -97.5184 	 44.6426 	 -94.9777
| 11> C 	 -97.6256 	 46.0259 	 -95.267
| 12> H 	 -97.1617 	 43.9031 	 -95.6358
| 13> C 	 -98.1838 	 42.9118 	 -93.1835
| 14> H 	 -98.4018 	 42.9983 	 -92.1185
| 15> H 	 -97.2545 	 42.3037 	 -93.2251
| 16> C 	 -99.3767 	 42.2281 	 -93.8671
| 17> H 	 -100.245 	 42.847 	 -93.7222
| 18> H 	 -99.2956 	 42.008 	 -94.9319
| 19> C 	 -99.7443 	 40.8963 	 -93.3153
| 20> H 	 -98.8775 	 40.2351 	 -93.4594
| 21> H 	 -100.004 	 40.9974 	 -92.2422
| 22> H 	 -100.607 	 40.4543 	 -93.7727
| 23> S 	 -95.8409 	 47.8301 	 -96.4913
| 24> C 	 -95.6175 	 47.8268 	 -98.1782
| 25> C 	 -96.5835 	 47.0813 	 -98.7645
| 26> C 	 -97.4342 	 46.399 	 -97.8493
| 27> C 	 -97.1103 	 46.6111 	 -96.5222
| 28> H 	 -96.7162 	 47.0522 	 -99.8367
| 29> C 	 -98.4297 	 45.3773 	 -98.3642
| 30> H 	 -99.0191 	 45.9135 	 -99.0949
| 31> H 	 -99.1245 	 45.0141 	 -97.5776
| 32> C 	 -97.8256 	 44.0558 	 -98.8104
| 33> H 	 -97.5746 	 43.4216 	 -97.9326
| 34> H 	 -96.9402 	 44.1522 	 -99.4353
| 35> C 	 -98.7806 	 43.3034 	 -99.7623
| 36> H 	 -98.2797 	 42.3882 	 -100.212
| 37> H 	 -99.1374 	 43.9498 	 -100.541
| 38> H 	 -99.563 	 42.9149 	 -99.0947
| 39> H 	 -98.6575 	 45.2944 	 -91.8759
| 40> H 	 -94.8543 	 48.5297 	 -98.6867
| 41> *
| 42>
| 43>                          ****END OF INPUT****

CARTESIAN COORDINATES (ANGSTROEM)
---------------------------------
  S    -97.844000   46.887200  -93.769900
  C    -98.355500   45.417500  -92.937000
  C    -97.978800   44.329100  -93.664500
  C    -97.518400   44.642600  -94.977700
  C    -97.625600   46.025900  -95.267000
  H    -97.161700   43.903100  -95.635800
  C    -98.183800   42.911800  -93.183500
  H    -98.401800   42.998300  -92.118500
  H    -97.254500   42.303700  -93.225100
  C    -99.376700   42.228100  -93.867100
  H    -100.245000   42.847000  -93.722200
  H    -99.295600   42.008000  -94.931900
  C    -99.744300   40.896300  -93.315300
  H    -98.877500   40.235100  -93.459400
  H    -100.004000   40.997400  -92.242200
  H    -100.607000   40.454300  -93.772700
  S    -95.840900   47.830100  -96.491300
  C    -95.617500   47.826800  -98.178200
  C    -96.583500   47.081300  -98.764500
  C    -97.434200   46.399000  -97.849300
  C    -97.110300   46.611100  -96.522200
  H    -96.716200   47.052200  -99.836700
  C    -98.429700   45.377300  -98.364200
  H    -99.019100   45.913500  -99.094900
  H    -99.124500   45.014100  -97.577600
  C    -97.825600   44.055800  -98.810400
  H    -97.574600   43.421600  -97.932600
  H    -96.940200   44.152200  -99.435300
  C    -98.780600   43.303400  -99.762300
  H    -98.279700   42.388200  -100.212000
  H    -99.137400   43.949800  -100.541000
  H    -99.563000   42.914900  -99.094700
  H    -98.657500   45.294400  -91.875900
  H    -94.854300   48.529700  -98.686700

 Total Charge           Charge          ....    0
 Multiplicity           Mult            ....    1
 Number of Electrons    NEL             ....  134
 Basis Dimension        Dim             ....  322

ORBITAL ENERGIES
----------------

  NO   OCC          E(Eh)            E(eV)
   0   2.0000     -88.969472     -2420.9824
   1   2.0000     -88.959489     -2420.7108
   2   2.0000     -10.337146      -281.2880
   3   2.0000     -10.327815      -281.0341
   4   2.0000     -10.319412      -280.8055
   5   2.0000     -10.316290      -280.7205
   6   2.0000     -10.300055      -280.2787
   7   2.0000     -10.298058      -280.2244
   8   2.0000     -10.297078      -280.1977
   9   2.0000     -10.295521      -280.1554
  10   2.0000     -10.289549      -279.9929
  11   2.0000     -10.289339      -279.9872
  12   2.0000     -10.286532      -279.9108
  13   2.0000     -10.282044      -279.7886
  14   2.0000     -10.281209      -279.7659
  15   2.0000     -10.275605      -279.6134
  16   2.0000      -8.083903      -219.9742
  17   2.0000      -8.075445      -219.7440
  18   2.0000      -6.042564      -164.4265
  19   2.0000      -6.038616      -164.3191
  20   2.0000      -6.034344      -164.2029
  21   2.0000      -6.033919      -164.1913
  22   2.0000      -6.029695      -164.0763
  23   2.0000      -6.026251      -163.9826
  24   2.0000      -1.009960       -27.4824
  25   2.0000      -0.990698       -26.9583
  26   2.0000      -0.918128       -24.9835
  27   2.0000      -0.911624       -24.8065
  28   2.0000      -0.873266       -23.7628
  29   2.0000      -0.853208       -23.2170
  30   2.0000      -0.846882       -23.0448
  31   2.0000      -0.815492       -22.1907
  32   2.0000      -0.781223       -21.2582
  33   2.0000      -0.770837       -20.9756
  34   2.0000      -0.705588       -19.2000
  35   2.0000      -0.694226       -18.8909
  36   2.0000      -0.690465       -18.7885
  37   2.0000      -0.659608       -17.9488
  38   2.0000      -0.636338       -17.3156
  39   2.0000      -0.623693       -16.9716
  40   2.0000      -0.600275       -16.3343
  41   2.0000      -0.578331       -15.7372
  42   2.0000      -0.568071       -15.4580
  43   2.0000      -0.563886       -15.3441
  44   2.0000      -0.530110       -14.4250
  45   2.0000      -0.522537       -14.2190
  46   2.0000      -0.518565       -14.1109
  47   2.0000      -0.516898       -14.0655
  48   2.0000      -0.509326       -13.8595
  49   2.0000      -0.502188       -13.6652
  50   2.0000      -0.498092       -13.5538
  51   2.0000      -0.479296       -13.0423
  52   2.0000      -0.469373       -12.7723
  53   2.0000      -0.464885       -12.6502
  54   2.0000      -0.460340       -12.5265
  55   2.0000      -0.446103       -12.1391
  56   2.0000      -0.444786       -12.1032
  57   2.0000      -0.441699       -12.0193
  58   2.0000      -0.432985       -11.7821
  59   2.0000      -0.423154       -11.5146
  60   2.0000      -0.421311       -11.4645
  61   2.0000      -0.411387       -11.1944
  62   2.0000      -0.407414       -11.0863
  63   2.0000      -0.349977        -9.5234
  64   2.0000      -0.329602        -8.9689
  65   2.0000      -0.327451        -8.9104
  66   2.0000      -0.295118        -8.0306
  67   0.0000       0.027336         0.7439
  68   0.0000       0.070016         1.9052
  69   0.0000       0.104996         2.8571
  70   0.0000       0.122733         3.3397
  71   0.0000       0.129135         3.5139

MULLIKEN ATOMIC CHARGES
-----------------------
   0 S :    0.110984
   1 C :   -0.121740
   2 C :   -0.093881
   3 C :    0.041041
   4 C :   -0.118895
   5 H :   -0.006134
   6 C :    0.067925
   7 H :    0.005881
   8 H :    0.037937
   9 C :   -0.067399
  10 H :    0.023004
  11 H :    0.027285
  12 C :   -0.045572
  13 H :    0.028448
  14 H :    0.025092
  15 H :    0.031642
  16 S :    0.093895
  17 C :   -0.115397
  18 C :   -0.027767
  19 C :   -0.036421
  20 C :   -0.153484
  21 H :    0.014562
  22 C :    0.052587
  23 H :    0.025591
  24 H :    0.029338
  25 C :   -0.087485
  26 H :    0.035504
  27 H :    0.025555
  28 C :   -0.062352
  29 H :    0.041406
  30 H :    0.037407
  31 H :    0.028911
  32 H :    0.059936
  33 H :    0.092598
Sum of atomic charges:    0.0000000

LOEWDIN ATOMIC CHARGES
----------------------
   0 S :    0.407067
   1 C :   -0.200414
   2 C :   -0.066050
   3 C :   -0.047708
   4 C :   -0.189777
   5 H :    0.020991
   6 C :   -0.030186
   7 H :    0.028306
   8 H :    0.034456
   9 C :   -0.044927
  10 H :    0.024043
  11 H :    0.024163
  12 C :   -0.064143
  13 H :    0.024270
  14 H :    0.023490
  15 H :    0.023755
  16 S :    0.409985
  17 C :   -0.206602
  18 C :   -0.080165
  19 C :   -0.058875
  20 C :   -0.195328
  21 H :    0.030451
  22 C :   -0.034776
  23 H :    0.029087
  24 H :    0.035956
  25 C :   -0.042764
  26 H :    0.024950
  27 H :    0.018188
  28 C :   -0.064980
  29 H :    0.031593
  30 H :    0.021014
  31 H :    0.023849
  32 H :    0.039123
  33 H :    0.051960

  Mayer bond orders larger than 0.100000
B(  0-S ,  1-C ) :   1.1259 B(  0-S ,  4-C ) :   1.1596 B(  1-C ,  2-C ) :   1.6174
B(  1-C , 32-H ) :   0.9580 B(  2-C ,  3-C ) :   1.2559 B(  2-C ,  6-C ) :   1.0410
B(  3-C ,  4-C ) :   1.5184 B(  3-C ,  5-H ) :   1.0034 B(  4-C , 20-C ) :   1.0494
B(  6-C ,  7-H ) :   0.9344 B(  6-C ,  8-H ) :   0.9366 B(  6-C ,  9-C ) :   1.0600
B(  9-C , 10-H ) :   0.9526 B(  9-C , 11-H ) :   0.9551 B(  9-C , 12-C ) :   1.0988
B( 12-C , 13-H ) :   0.9728 B( 12-C , 14-H ) :   0.9726 B( 12-C , 15-H ) :   0.9729
B( 16-S , 17-C ) :   1.1740 B( 16-S , 20-C ) :   1.1321 B( 17-C , 18-C ) :   1.5855
B( 17-C , 33-H ) :   0.9555 B( 18-C , 19-C ) :   1.2534 B( 18-C , 21-H ) :   0.9952
B( 19-C , 20-C ) :   1.6016 B( 19-C , 22-C ) :   1.0555 B( 22-C , 23-H ) :   0.9385
B( 22-C , 24-H ) :   0.9312 B( 22-C , 25-C ) :   1.0544 B( 25-C , 26-H ) :   0.9533
B( 25-C , 27-H ) :   0.9618 B( 25-C , 28-C ) :   1.0733 B( 28-C , 29-H ) :   0.9750
B( 28-C , 30-H ) :   0.9782 B( 28-C , 31-H ) :   0.9769

Dispersion correction           -0.014007397
FINAL SINGLE POINT ENERGY     -1339.875376038332

DIPOLE MOMENT
-------------
                                X             Y             Z
Electronic contribution:     12.81532      29.63163       7.07715
Nuclear contribution   :    -12.92801     -30.26705      -7.31180
                        -----------------------------------------
Total Dipole Moment    :     -0.11269      -0.63542      -0.23465
                        -----------------------------------------
Magnitude (a.u.)       :      0.68667
Magnitude (Debye)      :      1.74538

Rotational constants in cm-1:     0.017138     0.009358     0.006392
Rotational constants in MHz :   513.789430   280.547890   191.620527

                             ****ORCA TERMINATED NORMALLY****
TOTAL RUN TIME: 0 days 0 hours 0 minutes 21 seconds 655 msec
