                         Program Version 4.2.1 -  RELEASE  -
|  1> ! wB97X-D3 SP def2-SVP
|  2> %pal
|  3> nprocs 24
|  4> end
|  5>
|  6> * xyz 0 1
|  7> S 	 -106.591 	 2.21381 	 -111.718
|  8> C 	 -108.262 	 2.42396 	 -111.202
|  9> C 	 -109.079 	 1.38987 	 -111.656
| 10> C 	 -108.367 	 0.30706 	 -112.207
| 11> C 	 -107.052 	 0.661798 	 -112.391
| 12> H 	 -108.738 	 -0.56639 	 -112.593
| 13> C 	 -110.585 	 1.36658 	 -111.501
| 14> H 	 -110.812 	 2.0209 	 -110.645
| 15> H 	 -110.888 	 0.393262 	 -111.344
| 16> C 	 -111.394 	 1.94149 	 -112.68
| 17> H 	 -112.409 	 1.98197 	 -112.401
| 18> H 	 -111.139 	 2.98284 	 -112.933
| 19> C 	 -111.264 	 1.06483 	 -113.975
| 20> H 	 -110.265 	 1.12597 	 -114.317
| 21> H 	 -111.568 	 -0.00167674 	 -113.934
| 22> H 	 -111.83 	 1.45066 	 -114.811
| 23> S 	 -105.666 	 0.473657 	 -114.843
| 24> C 	 -105.267 	 -1.13068 	 -115.313
| 25> C 	 -105.108 	 -1.93139 	 -114.237
| 26> C 	 -105.766 	 -1.46484 	 -113.076
| 27> C 	 -106.144 	 -0.121913 	 -113.223
| 28> H 	 -104.758 	 -2.95906 	 -114.425
| 29> C 	 -106.094 	 -2.31759 	 -111.82
| 30> H 	 -106.5 	 -1.57176 	 -111.1
| 31> H 	 -105.217 	 -2.83521 	 -111.46
| 32> C 	 -107.142 	 -3.42257 	 -112.008
| 33> H 	 -108.047 	 -3.12518 	 -112.509
| 34> H 	 -107.355 	 -3.70756 	 -110.972
| 35> C 	 -106.701 	 -4.66455 	 -112.724
| 36> H 	 -105.634 	 -4.81706 	 -112.653
| 37> H 	 -106.926 	 -4.73849 	 -113.807
| 38> H 	 -107.191 	 -5.50594 	 -112.141
| 39> H 	 -108.626 	 3.33669 	 -110.71
| 40> H 	 -104.885 	 -1.49072 	 -116.293
| 41> *
| 42>
| 43>                          ****END OF INPUT****

CARTESIAN COORDINATES (ANGSTROEM)
---------------------------------
  S    -106.591000    2.213810  -111.718000
  C    -108.262000    2.423960  -111.202000
  C    -109.079000    1.389870  -111.656000
  C    -108.367000    0.307060  -112.207000
  C    -107.052000    0.661798  -112.391000
  H    -108.738000   -0.566390  -112.593000
  C    -110.585000    1.366580  -111.501000
  H    -110.812000    2.020900  -110.645000
  H    -110.888000    0.393262  -111.344000
  C    -111.394000    1.941490  -112.680000
  H    -112.409000    1.981970  -112.401000
  H    -111.139000    2.982840  -112.933000
  C    -111.264000    1.064830  -113.975000
  H    -110.265000    1.125970  -114.317000
  H    -111.568000   -0.001677  -113.934000
  H    -111.830000    1.450660  -114.811000
  S    -105.666000    0.473657  -114.843000
  C    -105.267000   -1.130680  -115.313000
  C    -105.108000   -1.931390  -114.237000
  C    -105.766000   -1.464840  -113.076000
  C    -106.144000   -0.121913  -113.223000
  H    -104.758000   -2.959060  -114.425000
  C    -106.094000   -2.317590  -111.820000
  H    -106.500000   -1.571760  -111.100000
  H    -105.217000   -2.835210  -111.460000
  C    -107.142000   -3.422570  -112.008000
  H    -108.047000   -3.125180  -112.509000
  H    -107.355000   -3.707560  -110.972000
  C    -106.701000   -4.664550  -112.724000
  H    -105.634000   -4.817060  -112.653000
  H    -106.926000   -4.738490  -113.807000
  H    -107.191000   -5.505940  -112.141000
  H    -108.626000    3.336690  -110.710000
  H    -104.885000   -1.490720  -116.293000

 Total Charge           Charge          ....    0
 Multiplicity           Mult            ....    1
 Number of Electrons    NEL             ....  134
 Basis Dimension        Dim             ....  322

ORBITAL ENERGIES
----------------

  NO   OCC          E(Eh)            E(eV)
   0   2.0000     -88.968919     -2420.9674
   1   2.0000     -88.963238     -2420.8128
   2   2.0000     -10.326834      -281.0074
   3   2.0000     -10.323951      -280.9290
   4   2.0000     -10.314280      -280.6658
   5   2.0000     -10.313616      -280.6477
   6   2.0000     -10.302893      -280.3560
   7   2.0000     -10.299021      -280.2506
   8   2.0000     -10.293618      -280.1036
   9   2.0000     -10.287876      -279.9473
  10   2.0000     -10.286378      -279.9066
  11   2.0000     -10.286258      -279.9033
  12   2.0000     -10.286215      -279.9021
  13   2.0000     -10.283149      -279.8187
  14   2.0000     -10.280075      -279.7351
  15   2.0000     -10.272574      -279.5310
  16   2.0000      -8.083306      -219.9579
  17   2.0000      -8.078091      -219.8160
  18   2.0000      -6.041669      -164.4022
  19   2.0000      -6.037982      -164.3018
  20   2.0000      -6.036605      -164.2644
  21   2.0000      -6.034145      -164.1974
  22   2.0000      -6.032766      -164.1599
  23   2.0000      -6.028640      -164.0476
  24   2.0000      -1.006658       -27.3926
  25   2.0000      -0.985612       -26.8199
  26   2.0000      -0.910931       -24.7877
  27   2.0000      -0.909449       -24.7474
  28   2.0000      -0.867054       -23.5937
  29   2.0000      -0.851027       -23.1576
  30   2.0000      -0.846659       -23.0388
  31   2.0000      -0.813865       -22.1464
  32   2.0000      -0.785612       -21.3776
  33   2.0000      -0.770777       -20.9739
  34   2.0000      -0.706251       -19.2181
  35   2.0000      -0.703010       -19.1299
  36   2.0000      -0.688293       -18.7294
  37   2.0000      -0.655461       -17.8360
  38   2.0000      -0.641712       -17.4619
  39   2.0000      -0.615191       -16.7402
  40   2.0000      -0.595260       -16.1978
  41   2.0000      -0.573927       -15.6173
  42   2.0000      -0.554038       -15.0761
  43   2.0000      -0.547206       -14.8902
  44   2.0000      -0.543653       -14.7935
  45   2.0000      -0.538181       -14.6447
  46   2.0000      -0.514147       -13.9907
  47   2.0000      -0.512452       -13.9445
  48   2.0000      -0.500757       -13.6263
  49   2.0000      -0.495467       -13.4823
  50   2.0000      -0.488214       -13.2850
  51   2.0000      -0.480750       -13.0819
  52   2.0000      -0.474218       -12.9041
  53   2.0000      -0.467490       -12.7211
  54   2.0000      -0.455677       -12.3996
  55   2.0000      -0.449804       -12.2398
  56   2.0000      -0.437511       -11.9053
  57   2.0000      -0.435979       -11.8636
  58   2.0000      -0.430554       -11.7160
  59   2.0000      -0.427419       -11.6307
  60   2.0000      -0.427234       -11.6256
  61   2.0000      -0.419261       -11.4087
  62   2.0000      -0.409439       -11.1414
  63   2.0000      -0.343310        -9.3419
  64   2.0000      -0.330965        -9.0060
  65   2.0000      -0.327151        -8.9022
  66   2.0000      -0.290802        -7.9131
  67   0.0000       0.037018         1.0073
  68   0.0000       0.056354         1.5335
  69   0.0000       0.115176         3.1341
  70   0.0000       0.119896         3.2625
  71   0.0000       0.125915         3.4263

MULLIKEN ATOMIC CHARGES
-----------------------
   0 S :    0.118171
   1 C :   -0.130792
   2 C :   -0.099639
   3 C :    0.084275
   4 C :   -0.180733
   5 H :   -0.025866
   6 C :    0.111285
   7 H :    0.022753
   8 H :    0.002692
   9 C :   -0.044075
  10 H :    0.021542
  11 H :    0.028518
  12 C :   -0.074119
  13 H :    0.035571
  14 H :    0.031751
  15 H :    0.024357
  16 S :    0.111349
  17 C :   -0.106837
  18 C :   -0.037110
  19 C :   -0.041901
  20 C :   -0.156276
  21 H :    0.024401
  22 C :    0.064474
  23 H :    0.044271
  24 H :    0.028198
  25 C :   -0.064331
  26 H :    0.027216
  27 H :    0.032799
  28 C :   -0.072548
  29 H :    0.016198
  30 H :    0.046623
  31 H :    0.040620
  32 H :    0.052739
  33 H :    0.064422
Sum of atomic charges:    0.0000000

LOEWDIN ATOMIC CHARGES
----------------------
   0 S :    0.402285
   1 C :   -0.203206
   2 C :   -0.056241
   3 C :   -0.045586
   4 C :   -0.186736
   5 H :    0.018544
   6 C :   -0.021193
   7 H :    0.034621
   8 H :    0.018526
   9 C :   -0.029370
  10 H :    0.016726
  11 H :    0.027382
  12 C :   -0.072771
  13 H :    0.021477
  14 H :    0.026022
  15 H :    0.024898
  16 S :    0.393860
  17 C :   -0.194683
  18 C :   -0.083717
  19 C :   -0.051497
  20 C :   -0.195648
  21 H :    0.033439
  22 C :   -0.027437
  23 H :    0.037767
  24 H :    0.029892
  25 C :   -0.044116
  26 H :    0.021834
  27 H :    0.029524
  28 C :   -0.074431
  29 H :    0.016128
  30 H :    0.028021
  31 H :    0.037965
  32 H :    0.029280
  33 H :    0.038442

  Mayer bond orders larger than 0.100000
B(  0-S ,  1-C ) :   1.1255 B(  0-S ,  4-C ) :   1.1610 B(  1-C ,  2-C ) :   1.6181
B(  1-C , 32-H ) :   0.9644 B(  2-C ,  3-C ) :   1.2339 B(  2-C ,  6-C ) :   1.0280
B(  3-C ,  4-C ) :   1.5621 B(  3-C ,  5-H ) :   1.0057 B(  4-C , 20-C ) :   1.0281
B(  6-C ,  7-H ) :   0.9365 B(  6-C ,  8-H ) :   0.9379 B(  6-C ,  9-C ) :   1.0765
B(  9-C , 10-H ) :   0.9581 B(  9-C , 11-H ) :   0.9546 B(  9-C , 12-C ) :   1.0720
B( 12-C , 13-H ) :   0.9752 B( 12-C , 14-H ) :   0.9768 B( 12-C , 15-H ) :   0.9725
B( 16-S , 17-C ) :   1.1570 B( 16-S , 20-C ) :   1.1243 B( 17-C , 18-C ) :   1.6435
B( 17-C , 33-H ) :   0.9560 B( 18-C , 19-C ) :   1.2284 B( 18-C , 21-H ) :   0.9773
B( 19-C , 20-C ) :   1.6140 B( 19-C , 22-C ) :   1.0386 B( 22-C , 23-H ) :   0.9302
B( 22-C , 24-H ) :   0.9354 B( 22-C , 25-C ) :   1.0806 B( 25-C , 26-H ) :   0.9513
B( 25-C , 27-H ) :   0.9601 B( 25-C , 28-C ) :   1.0700 B( 28-C , 29-H ) :   0.9740
B( 28-C , 30-H ) :   0.9757 B( 28-C , 31-H ) :   0.9736

Dispersion correction           -0.015181687
FINAL SINGLE POINT ENERGY     -1339.865465817771

DIPOLE MOMENT
-------------
                                X             Y             Z
Electronic contribution:     18.38772      16.31923      -2.29295
Nuclear contribution   :    -18.86950     -16.79848       2.31706
                        -----------------------------------------
Total Dipole Moment    :     -0.48179      -0.47924       0.02411
                        -----------------------------------------
Magnitude (a.u.)       :      0.67998
Magnitude (Debye)      :      1.72838

Rotational constants in cm-1:     0.017720     0.009037     0.007897
Rotational constants in MHz :   531.219331   270.917953   236.750591

                             ****ORCA TERMINATED NORMALLY****
TOTAL RUN TIME: 0 days 0 hours 0 minutes 22 seconds 292 msec
