                         Program Version 4.2.1 -  RELEASE  -
|  1> ! wB97X-D3 SP def2-SVP
|  2> %pal
|  3> nprocs 24
|  4> end
|  5>
|  6> * xyz 0 1
|  7> S 	 -87.7482 	 -2.20848 	 4.67175
|  8> C 	 -86.5 	 -0.941439 	 4.64542
|  9> C 	 -85.4378 	 -1.27687 	 5.43815
| 10> C 	 -85.7016 	 -2.42593 	 6.27461
| 11> C 	 -86.9063 	 -3.01552 	 6.0291
| 12> H 	 -85.0435 	 -2.74844 	 7.06531
| 13> C 	 -84.0804 	 -0.582638 	 5.65078
| 14> H 	 -83.7387 	 -0.552314 	 6.69332
| 15> H 	 -84.0729 	 0.471368 	 5.37767
| 16> C 	 -82.8778 	 -1.09836 	 4.83338
| 17> H 	 -81.9126 	 -0.551334 	 5.01594
| 18> H 	 -82.6796 	 -2.07875 	 5.21334
| 19> C 	 -83.0856 	 -1.31097 	 3.36532
| 20> H 	 -83.8932 	 -2.12844 	 3.21905
| 21> H 	 -83.6178 	 -0.444766 	 2.92152
| 22> H 	 -82.2482 	 -1.53275 	 2.72619
| 23> S 	 -88.2967 	 -5.41526 	 6.0538
| 24> C 	 -88.738 	 -6.09857 	 7.61665
| 25> C 	 -88.5472 	 -5.25262 	 8.66139
| 26> C 	 -87.756 	 -4.0926 	 8.28246
| 27> C 	 -87.4992 	 -4.06495 	 6.89518
| 28> H 	 -89.0805 	 -5.35145 	 9.53679
| 29> C 	 -87.6289 	 -2.94831 	 9.22418
| 30> H 	 -88.4921 	 -2.91294 	 9.85932
| 31> H 	 -87.6186 	 -1.96036 	 8.65451
| 32> C 	 -86.3387 	 -2.91499 	 10.0597
| 33> H 	 -85.4409 	 -2.82974 	 9.3426
| 34> H 	 -86.2401 	 -3.87061 	 10.5209
| 35> C 	 -86.2838 	 -1.83161 	 11.0881
| 36> H 	 -87.2622 	 -1.62574 	 11.7126
| 37> H 	 -86.0607 	 -0.925724 	 10.6137
| 38> H 	 -85.4561 	 -2.00289 	 11.7752
| 39> H 	 -86.432 	 -0.143411 	 3.96229
| 40> H 	 -89.5062 	 -6.82252 	 7.72346
| 41> *
| 42>
| 43>                          ****END OF INPUT****

CARTESIAN COORDINATES (ANGSTROEM)
---------------------------------
  S    -87.748200   -2.208480    4.671750
  C    -86.500000   -0.941439    4.645420
  C    -85.437800   -1.276870    5.438150
  C    -85.701600   -2.425930    6.274610
  C    -86.906300   -3.015520    6.029100
  H    -85.043500   -2.748440    7.065310
  C    -84.080400   -0.582638    5.650780
  H    -83.738700   -0.552314    6.693320
  H    -84.072900    0.471368    5.377670
  C    -82.877800   -1.098360    4.833380
  H    -81.912600   -0.551334    5.015940
  H    -82.679600   -2.078750    5.213340
  C    -83.085600   -1.310970    3.365320
  H    -83.893200   -2.128440    3.219050
  H    -83.617800   -0.444766    2.921520
  H    -82.248200   -1.532750    2.726190
  S    -88.296700   -5.415260    6.053800
  C    -88.738000   -6.098570    7.616650
  C    -88.547200   -5.252620    8.661390
  C    -87.756000   -4.092600    8.282460
  C    -87.499200   -4.064950    6.895180
  H    -89.080500   -5.351450    9.536790
  C    -87.628900   -2.948310    9.224180
  H    -88.492100   -2.912940    9.859320
  H    -87.618600   -1.960360    8.654510
  C    -86.338700   -2.914990   10.059700
  H    -85.440900   -2.829740    9.342600
  H    -86.240100   -3.870610   10.520900
  C    -86.283800   -1.831610   11.088100
  H    -87.262200   -1.625740   11.712600
  H    -86.060700   -0.925724   10.613700
  H    -85.456100   -2.002890   11.775200
  H    -86.432000   -0.143411    3.962290
  H    -89.506200   -6.822520    7.723460

 Total Charge           Charge          ....    0
 Multiplicity           Mult            ....    1
 Number of Electrons    NEL             ....  134
 Basis Dimension        Dim             ....  322

ORBITAL ENERGIES
----------------

  NO   OCC          E(Eh)            E(eV)
   0   2.0000     -88.971175     -2421.0288
   1   2.0000     -88.966817     -2420.9102
   2   2.0000     -10.335236      -281.2361
   3   2.0000     -10.334792      -281.2240
   4   2.0000     -10.318537      -280.7817
   5   2.0000     -10.312881      -280.6278
   6   2.0000     -10.308535      -280.5095
   7   2.0000     -10.307420      -280.4792
   8   2.0000     -10.298140      -280.2266
   9   2.0000     -10.294671      -280.1322
  10   2.0000     -10.291655      -280.0502
  11   2.0000     -10.291415      -280.0436
  12   2.0000     -10.287573      -279.9391
  13   2.0000     -10.285723      -279.8888
  14   2.0000     -10.280302      -279.7412
  15   2.0000     -10.278729      -279.6984
  16   2.0000      -8.084766      -219.9977
  17   2.0000      -8.081092      -219.8977
  18   2.0000      -6.043583      -164.4543
  19   2.0000      -6.039645      -164.3471
  20   2.0000      -6.039551      -164.3445
  21   2.0000      -6.035908      -164.2454
  22   2.0000      -6.035133      -164.2243
  23   2.0000      -6.031603      -164.1283
  24   2.0000      -1.002341       -27.2751
  25   2.0000      -0.982026       -26.7223
  26   2.0000      -0.912406       -24.8278
  27   2.0000      -0.910625       -24.7794
  28   2.0000      -0.870723       -23.6936
  29   2.0000      -0.854550       -23.2535
  30   2.0000      -0.846116       -23.0240
  31   2.0000      -0.818798       -22.2806
  32   2.0000      -0.784368       -21.3437
  33   2.0000      -0.773654       -21.0522
  34   2.0000      -0.706935       -19.2367
  35   2.0000      -0.693933       -18.8829
  36   2.0000      -0.690784       -18.7972
  37   2.0000      -0.666328       -18.1317
  38   2.0000      -0.642940       -17.4953
  39   2.0000      -0.624598       -16.9962
  40   2.0000      -0.597900       -16.2697
  41   2.0000      -0.574025       -15.6200
  42   2.0000      -0.563149       -15.3241
  43   2.0000      -0.549596       -14.9553
  44   2.0000      -0.544038       -14.8040
  45   2.0000      -0.521375       -14.1873
  46   2.0000      -0.519434       -14.1345
  47   2.0000      -0.511529       -13.9194
  48   2.0000      -0.506482       -13.7821
  49   2.0000      -0.496220       -13.5028
  50   2.0000      -0.491041       -13.3619
  51   2.0000      -0.482365       -13.1258
  52   2.0000      -0.466213       -12.6863
  53   2.0000      -0.464984       -12.6528
  54   2.0000      -0.455398       -12.3920
  55   2.0000      -0.449873       -12.2417
  56   2.0000      -0.446408       -12.1474
  57   2.0000      -0.441572       -12.0158
  58   2.0000      -0.431988       -11.7550
  59   2.0000      -0.429099       -11.6764
  60   2.0000      -0.422580       -11.4990
  61   2.0000      -0.411996       -11.2110
  62   2.0000      -0.400224       -10.8907
  63   2.0000      -0.350572        -9.5395
  64   2.0000      -0.334603        -9.1050
  65   2.0000      -0.329492        -8.9659
  66   2.0000      -0.296951        -8.0804
  67   0.0000       0.024841         0.6760
  68   0.0000       0.061398         1.6707
  69   0.0000       0.095495         2.5986
  70   0.0000       0.111930         3.0458
  71   0.0000       0.119852         3.2613

MULLIKEN ATOMIC CHARGES
-----------------------
   0 S :    0.104921
   1 C :   -0.092335
   2 C :   -0.069010
   3 C :    0.012784
   4 C :   -0.099455
   5 H :    0.013811
   6 C :    0.050997
   7 H :    0.033403
   8 H :    0.019316
   9 C :   -0.070697
  10 H :    0.037676
  11 H :    0.012511
  12 C :   -0.077095
  13 H :    0.046575
  14 H :    0.013059
  15 H :    0.043019
  16 S :    0.088868
  17 C :   -0.049493
  18 C :   -0.024874
  19 C :   -0.012671
  20 C :   -0.171789
  21 H :    0.001975
  22 C :    0.025132
  23 H :    0.017855
  24 H :    0.041584
  25 C :   -0.082269
  26 H :    0.030213
  27 H :    0.016917
  28 C :   -0.031787
  29 H :    0.043056
  30 H :    0.016327
  31 H :    0.034672
  32 H :    0.030035
  33 H :    0.046768
Sum of atomic charges:   -0.0000000

LOEWDIN ATOMIC CHARGES
----------------------
   0 S :    0.374500
   1 C :   -0.172544
   2 C :   -0.059119
   3 C :   -0.056182
   4 C :   -0.180454
   5 H :    0.029923
   6 C :   -0.032556
   7 H :    0.035104
   8 H :    0.027620
   9 C :   -0.049729
  10 H :    0.030498
  11 H :    0.016566
  12 C :   -0.076960
  13 H :    0.037079
  14 H :    0.019029
  15 H :    0.025415
  16 S :    0.384537
  17 C :   -0.176235
  18 C :   -0.053378
  19 C :   -0.049985
  20 C :   -0.181071
  21 H :    0.021813
  22 C :   -0.035591
  23 H :    0.026360
  24 H :    0.038906
  25 C :   -0.044162
  26 H :    0.029887
  27 H :    0.015187
  28 C :   -0.070336
  29 H :    0.037200
  30 H :    0.016652
  31 H :    0.028749
  32 H :    0.021113
  33 H :    0.022162

  Mayer bond orders larger than 0.100000
B(  0-S ,  1-C ) :   1.1143 B(  0-S ,  4-C ) :   1.1170 B(  1-C ,  2-C ) :   1.6593
B(  1-C , 32-H ) :   0.9676 B(  2-C ,  3-C ) :   1.1906 B(  2-C ,  6-C ) :   1.0208
B(  3-C ,  4-C ) :   1.6056 B(  3-C ,  5-H ) :   1.0002 B(  4-C , 20-C ) :   1.0379
B(  6-C ,  7-H ) :   0.9481 B(  6-C ,  8-H ) :   0.9431 B(  6-C ,  9-C ) :   1.0648
B(  9-C , 10-H ) :   0.9565 B(  9-C , 11-H ) :   0.9525 B(  9-C , 12-C ) :   1.0800
B( 12-C , 13-H ) :   0.9668 B( 12-C , 14-H ) :   0.9746 B( 12-C , 15-H ) :   0.9747
B( 16-S , 17-C ) :   1.1394 B( 16-S , 20-C ) :   1.1310 B( 17-C , 18-C ) :   1.6545
B( 17-C , 33-H ) :   0.9594 B( 18-C , 19-C ) :   1.2191 B( 18-C , 21-H ) :   0.9941
B( 19-C , 20-C ) :   1.5992 B( 19-C , 22-C ) :   1.0487 B( 22-C , 23-H ) :   0.9412
B( 22-C , 24-H ) :   0.9363 B( 22-C , 25-C ) :   1.0563 B( 25-C , 26-H ) :   0.9473
B( 25-C , 27-H ) :   0.9572 B( 25-C , 28-C ) :   1.0860 B( 28-C , 29-H ) :   0.9712
B( 28-C , 30-H ) :   0.9712 B( 28-C , 31-H ) :   0.9711

Dispersion correction           -0.014640767
FINAL SINGLE POINT ENERGY     -1339.860941679047

DIPOLE MOMENT
-------------
                                X             Y             Z
Electronic contribution:    -19.37871     -13.71805     -11.76725
Nuclear contribution   :     19.57311      14.11750      12.26277
                        -----------------------------------------
Total Dipole Moment    :      0.19440       0.39945       0.49552
                        -----------------------------------------
Magnitude (a.u.)       :      0.66550
Magnitude (Debye)      :      1.69157

Rotational constants in cm-1:     0.017656     0.008993     0.006811
Rotational constants in MHz :   529.303146   269.597147   204.189589

                             ****ORCA TERMINATED NORMALLY****
TOTAL RUN TIME: 0 days 0 hours 0 minutes 21 seconds 870 msec
