                         Program Version 4.2.1 -  RELEASE  -
|  1> ! wB97X-D3 SP def2-SVP
|  2> %pal
|  3> nprocs 24
|  4> end
|  5>
|  6> * xyz 0 1
|  7> S 	 -141.631 	 12.1226 	 -3.26821
|  8> C 	 -142.212 	 13.067 	 -4.61189
|  9> C 	 -142.825 	 12.3145 	 -5.61964
| 10> C 	 -142.762 	 10.9239 	 -5.2982
| 11> C 	 -142.164 	 10.6522 	 -4.0579
| 12> H 	 -143.076 	 10.131 	 -5.91366
| 13> C 	 -143.504 	 12.8943 	 -6.85219
| 14> H 	 -143.601 	 13.9036 	 -6.62956
| 15> H 	 -144.488 	 12.4297 	 -7.02614
| 16> C 	 -142.631 	 12.7067 	 -8.07377
| 17> H 	 -141.686 	 13.2672 	 -7.89659
| 18> H 	 -142.291 	 11.6685 	 -8.27951
| 19> C 	 -143.296 	 13.2666 	 -9.31596
| 20> H 	 -143.768 	 14.2041 	 -9.29495
| 21> H 	 -142.731 	 13.2779 	 -10.2611
| 22> H 	 -144.109 	 12.572 	 -9.53803
| 23> S 	 -140.599 	 8.67144 	 -2.72109
| 24> C 	 -141.32 	 7.12582 	 -2.25373
| 25> C 	 -142.594 	 7.08133 	 -2.82047
| 26> C 	 -143.08 	 8.2804 	 -3.44461
| 27> C 	 -142.124 	 9.27309 	 -3.469
| 28> H 	 -143.096 	 6.1772 	 -2.58312
| 29> C 	 -144.435 	 8.38233 	 -4.06818
| 30> H 	 -144.471 	 8.18891 	 -5.1105
| 31> H 	 -144.63 	 9.44329 	 -4.02826
| 32> C 	 -145.505 	 7.57164 	 -3.441
| 33> H 	 -145.466 	 7.70631 	 -2.35309
| 34> H 	 -145.419 	 6.55057 	 -3.5367
| 35> C 	 -146.927 	 8.05679 	 -3.89816
| 36> H 	 -146.987 	 8.31198 	 -4.96297
| 37> H 	 -147.042 	 8.99919 	 -3.25001
| 38> H 	 -147.766 	 7.43223 	 -3.58471
| 39> H 	 -142.199 	 14.1152 	 -4.73635
| 40> H 	 -140.821 	 6.35168 	 -1.76239
| 41> *
| 42>
| 43>                          ****END OF INPUT****

CARTESIAN COORDINATES (ANGSTROEM)
---------------------------------
  S    -141.631000   12.122600   -3.268210
  C    -142.212000   13.067000   -4.611890
  C    -142.825000   12.314500   -5.619640
  C    -142.762000   10.923900   -5.298200
  C    -142.164000   10.652200   -4.057900
  H    -143.076000   10.131000   -5.913660
  C    -143.504000   12.894300   -6.852190
  H    -143.601000   13.903600   -6.629560
  H    -144.488000   12.429700   -7.026140
  C    -142.631000   12.706700   -8.073770
  H    -141.686000   13.267200   -7.896590
  H    -142.291000   11.668500   -8.279510
  C    -143.296000   13.266600   -9.315960
  H    -143.768000   14.204100   -9.294950
  H    -142.731000   13.277900  -10.261100
  H    -144.109000   12.572000   -9.538030
  S    -140.599000    8.671440   -2.721090
  C    -141.320000    7.125820   -2.253730
  C    -142.594000    7.081330   -2.820470
  C    -143.080000    8.280400   -3.444610
  C    -142.124000    9.273090   -3.469000
  H    -143.096000    6.177200   -2.583120
  C    -144.435000    8.382330   -4.068180
  H    -144.471000    8.188910   -5.110500
  H    -144.630000    9.443290   -4.028260
  C    -145.505000    7.571640   -3.441000
  H    -145.466000    7.706310   -2.353090
  H    -145.419000    6.550570   -3.536700
  C    -146.927000    8.056790   -3.898160
  H    -146.987000    8.311980   -4.962970
  H    -147.042000    8.999190   -3.250010
  H    -147.766000    7.432230   -3.584710
  H    -142.199000   14.115200   -4.736350
  H    -140.821000    6.351680   -1.762390

 Total Charge           Charge          ....    0
 Multiplicity           Mult            ....    1
 Number of Electrons    NEL             ....  134
 Basis Dimension        Dim             ....  322

ORBITAL ENERGIES
----------------

  NO   OCC          E(Eh)            E(eV)
   0   2.0000     -88.974471     -2421.1184
   1   2.0000     -88.960907     -2420.7493
   2   2.0000     -10.335532      -281.2441
   3   2.0000     -10.333180      -281.1801
   4   2.0000     -10.317409      -280.7510
   5   2.0000     -10.313919      -280.6560
   6   2.0000     -10.304521      -280.4003
   7   2.0000     -10.303099      -280.3616
   8   2.0000     -10.294394      -280.1247
   9   2.0000     -10.292827      -280.0821
  10   2.0000     -10.292688      -280.0783
  11   2.0000     -10.291028      -280.0331
  12   2.0000     -10.285985      -279.8959
  13   2.0000     -10.282922      -279.8125
  14   2.0000     -10.278796      -279.7003
  15   2.0000     -10.273787      -279.5639
  16   2.0000      -8.088643      -220.1032
  17   2.0000      -8.074738      -219.7248
  18   2.0000      -6.047192      -164.5525
  19   2.0000      -6.043228      -164.4446
  20   2.0000      -6.039393      -164.3402
  21   2.0000      -6.033310      -164.1747
  22   2.0000      -6.029341      -164.0667
  23   2.0000      -6.025514      -163.9626
  24   2.0000      -1.001330       -27.2476
  25   2.0000      -0.980890       -26.6914
  26   2.0000      -0.919273       -25.0147
  27   2.0000      -0.915997       -24.9255
  28   2.0000      -0.867259       -23.5993
  29   2.0000      -0.854338       -23.2477
  30   2.0000      -0.841259       -22.8918
  31   2.0000      -0.815370       -22.1873
  32   2.0000      -0.783632       -21.3237
  33   2.0000      -0.773877       -21.0583
  34   2.0000      -0.710980       -19.3467
  35   2.0000      -0.707066       -19.2403
  36   2.0000      -0.699455       -19.0331
  37   2.0000      -0.654868       -17.8199
  38   2.0000      -0.643828       -17.5195
  39   2.0000      -0.623998       -16.9798
  40   2.0000      -0.601608       -16.3706
  41   2.0000      -0.577970       -15.7274
  42   2.0000      -0.572560       -15.5802
  43   2.0000      -0.563871       -15.3437
  44   2.0000      -0.537175       -14.6173
  45   2.0000      -0.524963       -14.2850
  46   2.0000      -0.515678       -14.0323
  47   2.0000      -0.512252       -13.9391
  48   2.0000      -0.505889       -13.7659
  49   2.0000      -0.500859       -13.6291
  50   2.0000      -0.493147       -13.4192
  51   2.0000      -0.476533       -12.9671
  52   2.0000      -0.472926       -12.8690
  53   2.0000      -0.463115       -12.6020
  54   2.0000      -0.458602       -12.4792
  55   2.0000      -0.451535       -12.2869
  56   2.0000      -0.443624       -12.0716
  57   2.0000      -0.440792       -11.9946
  58   2.0000      -0.437699       -11.9104
  59   2.0000      -0.430985       -11.7277
  60   2.0000      -0.416392       -11.3306
  61   2.0000      -0.415532       -11.3072
  62   2.0000      -0.411768       -11.2048
  63   2.0000      -0.345961        -9.4141
  64   2.0000      -0.334675        -9.1070
  65   2.0000      -0.326885        -8.8950
  66   2.0000      -0.293036        -7.9739
  67   0.0000       0.026243         0.7141
  68   0.0000       0.072560         1.9745
  69   0.0000       0.112809         3.0697
  70   0.0000       0.118448         3.2231
  71   0.0000       0.135139         3.6773

MULLIKEN ATOMIC CHARGES
-----------------------
   0 S :    0.139344
   1 C :   -0.095193
   2 C :   -0.113168
   3 C :    0.023266
   4 C :   -0.142109
   5 H :   -0.003996
   6 C :    0.124655
   7 H :   -0.000088
   8 H :    0.033638
   9 C :   -0.093780
  10 H :    0.029035
  11 H :    0.040164
  12 C :   -0.025962
  13 H :    0.017165
  14 H :    0.033545
  15 H :    0.013619
  16 S :    0.078361
  17 C :   -0.080916
  18 C :   -0.036663
  19 C :   -0.019332
  20 C :   -0.153682
  21 H :    0.010616
  22 C :    0.081313
  23 H :    0.029250
  24 H :    0.023717
  25 C :   -0.064490
  26 H :    0.025262
  27 H :    0.015820
  28 C :   -0.077726
  29 H :    0.040021
  30 H :    0.041105
  31 H :    0.038565
  32 H :    0.024723
  33 H :    0.043921
Sum of atomic charges:   -0.0000000

LOEWDIN ATOMIC CHARGES
----------------------
   0 S :    0.421712
   1 C :   -0.198523
   2 C :   -0.055106
   3 C :   -0.053396
   4 C :   -0.195979
   5 H :    0.023037
   6 C :   -0.020202
   7 H :    0.022564
   8 H :    0.034251
   9 C :   -0.042382
  10 H :    0.026514
  11 H :    0.029817
  12 C :   -0.072314
  13 H :    0.017209
  14 H :    0.029595
  15 H :    0.024777
  16 S :    0.367951
  17 C :   -0.166442
  18 C :   -0.069427
  19 C :   -0.054626
  20 C :   -0.177831
  21 H :    0.025167
  22 C :   -0.034055
  23 H :    0.027595
  24 H :    0.034889
  25 C :   -0.038182
  26 H :    0.027170
  27 H :    0.009033
  28 C :   -0.068353
  29 H :    0.023271
  30 H :    0.036805
  31 H :    0.025153
  32 H :    0.019554
  33 H :    0.020753

  Mayer bond orders larger than 0.100000
B(  0-S ,  1-C ) :   1.1431 B(  0-S ,  4-C ) :   1.1555 B(  1-C ,  2-C ) :   1.6130
B(  1-C , 32-H ) :   0.9629 B(  2-C ,  3-C ) :   1.2470 B(  2-C ,  6-C ) :   1.0258
B(  3-C ,  4-C ) :   1.5464 B(  3-C ,  5-H ) :   1.0023 B(  4-C , 20-C ) :   1.0383
B(  6-C ,  7-H ) :   0.9273 B(  6-C ,  8-H ) :   0.9418 B(  6-C ,  9-C ) :   1.0618
B(  9-C , 10-H ) :   0.9521 B(  9-C , 11-H ) :   0.9606 B(  9-C , 12-C ) :   1.0776
B( 12-C , 13-H ) :   0.9741 B( 12-C , 14-H ) :   0.9735 B( 12-C , 15-H ) :   0.9707
B( 16-S , 17-C ) :   1.1453 B( 16-S , 20-C ) :   1.1302 B( 17-C , 18-C ) :   1.6142
B( 17-C , 33-H ) :   0.9757 B( 18-C , 19-C ) :   1.2148 B( 18-C , 21-H ) :   0.9927
B( 19-C , 20-C ) :   1.6063 B( 19-C , 22-C ) :   1.0409 B( 22-C , 23-H ) :   0.9204
B( 22-C , 24-H ) :   0.9260 B( 22-C , 25-C ) :   1.0695 B( 25-C , 26-H ) :   0.9614
B( 25-C , 27-H ) :   0.9468 B( 25-C , 28-C ) :   1.0693 B( 28-C , 29-H ) :   0.9763
B( 28-C , 30-H ) :   0.9803 B( 28-C , 31-H ) :   0.9750

Dispersion correction           -0.013547425
FINAL SINGLE POINT ENERGY     -1339.870409000997

DIPOLE MOMENT
-------------
                                X             Y             Z
Electronic contribution:     22.01799      -1.17596      19.88287
Nuclear contribution   :    -22.60582       1.09506     -20.35282
                        -----------------------------------------
Total Dipole Moment    :     -0.58783      -0.08090      -0.46995
                        -----------------------------------------
Magnitude (a.u.)       :      0.75693
Magnitude (Debye)      :      1.92395

Rotational constants in cm-1:     0.016996     0.008158     0.006334
Rotational constants in MHz :   509.527184   244.585333   189.901566

                             ****ORCA TERMINATED NORMALLY****
TOTAL RUN TIME: 0 days 0 hours 0 minutes 21 seconds 210 msec
