                         Program Version 4.2.1 -  RELEASE  -
|  1> ! wB97X-D3 SP def2-SVP
|  2> %pal
|  3> nprocs 24
|  4> end
|  5>
|  6> * xyz 0 1
|  7> S 	 -62.2488 	 14.8119 	 -106.312
|  8> C 	 -63.351 	 15.9121 	 -105.607
|  9> C 	 -62.8705 	 16.5356 	 -104.433
| 10> C 	 -61.551 	 16.1917 	 -104.188
| 11> C 	 -61.079 	 15.2074 	 -105.036
| 12> H 	 -61.0621 	 16.5967 	 -103.323
| 13> C 	 -63.6342 	 17.5197 	 -103.611
| 14> H 	 -63.4151 	 17.4606 	 -102.569
| 15> H 	 -64.6561 	 17.2858 	 -103.749
| 16> C 	 -63.47 	 18.9053 	 -104.129
| 17> H 	 -62.3557 	 19.0022 	 -104.127
| 18> H 	 -63.8929 	 19.0423 	 -105.129
| 19> C 	 -64.1508 	 19.9414 	 -103.181
| 20> H 	 -64.7607 	 19.6458 	 -102.308
| 21> H 	 -63.2781 	 20.5494 	 -102.787
| 22> H 	 -64.7426 	 20.6042 	 -103.789
| 23> S 	 -59.4289 	 12.9499 	 -105.412
| 24> C 	 -57.8534 	 13.0047 	 -104.638
| 25> C 	 -57.5284 	 14.2524 	 -104.227
| 26> C 	 -58.5737 	 15.2241 	 -104.368
| 27> C 	 -59.7359 	 14.5795 	 -104.83
| 28> H 	 -56.4996 	 14.5177 	 -103.905
| 29> C 	 -58.3479 	 16.6265 	 -103.776
| 30> H 	 -59.1824 	 17.1938 	 -104.262
| 31> H 	 -57.3999 	 16.9562 	 -104.252
| 32> C 	 -58.352 	 16.5969 	 -102.187
| 33> H 	 -57.4981 	 16.0042 	 -101.877
| 34> H 	 -59.2187 	 16.0655 	 -101.829
| 35> C 	 -58.3933 	 18.0053 	 -101.568
| 36> H 	 -57.4034 	 18.4814 	 -101.834
| 37> H 	 -58.5325 	 17.9533 	 -100.49
| 38> H 	 -59.0991 	 18.7727 	 -102.058
| 39> H 	 -64.4155 	 16.0141 	 -105.949
| 40> H 	 -57.1917 	 12.1617 	 -104.608
| 41> *
| 42>
| 43>                          ****END OF INPUT****

CARTESIAN COORDINATES (ANGSTROEM)
---------------------------------
  S    -62.248800   14.811900  -106.312000
  C    -63.351000   15.912100  -105.607000
  C    -62.870500   16.535600  -104.433000
  C    -61.551000   16.191700  -104.188000
  C    -61.079000   15.207400  -105.036000
  H    -61.062100   16.596700  -103.323000
  C    -63.634200   17.519700  -103.611000
  H    -63.415100   17.460600  -102.569000
  H    -64.656100   17.285800  -103.749000
  C    -63.470000   18.905300  -104.129000
  H    -62.355700   19.002200  -104.127000
  H    -63.892900   19.042300  -105.129000
  C    -64.150800   19.941400  -103.181000
  H    -64.760700   19.645800  -102.308000
  H    -63.278100   20.549400  -102.787000
  H    -64.742600   20.604200  -103.789000
  S    -59.428900   12.949900  -105.412000
  C    -57.853400   13.004700  -104.638000
  C    -57.528400   14.252400  -104.227000
  C    -58.573700   15.224100  -104.368000
  C    -59.735900   14.579500  -104.830000
  H    -56.499600   14.517700  -103.905000
  C    -58.347900   16.626500  -103.776000
  H    -59.182400   17.193800  -104.262000
  H    -57.399900   16.956200  -104.252000
  C    -58.352000   16.596900  -102.187000
  H    -57.498100   16.004200  -101.877000
  H    -59.218700   16.065500  -101.829000
  C    -58.393300   18.005300  -101.568000
  H    -57.403400   18.481400  -101.834000
  H    -58.532500   17.953300  -100.490000
  H    -59.099100   18.772700  -102.058000
  H    -64.415500   16.014100  -105.949000
  H    -57.191700   12.161700  -104.608000

 Total Charge           Charge          ....    0
 Multiplicity           Mult            ....    1
 Number of Electrons    NEL             ....  134
 Basis Dimension        Dim             ....  322

ORBITAL ENERGIES
----------------

  NO   OCC          E(Eh)            E(eV)
   0   2.0000     -88.973062     -2421.0801
   1   2.0000     -88.965044     -2420.8619
   2   2.0000     -10.331736      -281.1408
   3   2.0000     -10.330743      -281.1138
   4   2.0000     -10.313305      -280.6393
   5   2.0000     -10.311825      -280.5990
   6   2.0000     -10.303167      -280.3634
   7   2.0000     -10.301819      -280.3267
   8   2.0000     -10.295725      -280.1609
   9   2.0000     -10.293239      -280.0933
  10   2.0000     -10.292147      -280.0636
  11   2.0000     -10.291084      -280.0346
  12   2.0000     -10.287623      -279.9404
  13   2.0000     -10.286710      -279.9156
  14   2.0000     -10.282140      -279.7913
  15   2.0000     -10.279481      -279.7189
  16   2.0000      -8.087538      -220.0731
  17   2.0000      -8.079767      -219.8616
  18   2.0000      -6.045985      -164.5196
  19   2.0000      -6.042122      -164.4145
  20   2.0000      -6.038377      -164.3126
  21   2.0000      -6.038279      -164.3099
  22   2.0000      -6.034571      -164.2090
  23   2.0000      -6.030260      -164.0917
  24   2.0000      -1.004982       -27.3470
  25   2.0000      -0.985287       -26.8110
  26   2.0000      -0.920114       -25.0376
  27   2.0000      -0.903270       -24.5792
  28   2.0000      -0.862736       -23.4762
  29   2.0000      -0.855640       -23.2831
  30   2.0000      -0.847677       -23.0665
  31   2.0000      -0.811093       -22.0710
  32   2.0000      -0.780010       -21.2252
  33   2.0000      -0.765119       -20.8199
  34   2.0000      -0.705327       -19.1929
  35   2.0000      -0.695600       -18.9282
  36   2.0000      -0.693907       -18.8822
  37   2.0000      -0.660897       -17.9839
  38   2.0000      -0.633001       -17.2248
  39   2.0000      -0.627381       -17.0719
  40   2.0000      -0.590378       -16.0650
  41   2.0000      -0.578305       -15.7365
  42   2.0000      -0.559586       -15.2271
  43   2.0000      -0.554949       -15.1009
  44   2.0000      -0.532276       -14.4840
  45   2.0000      -0.525521       -14.3002
  46   2.0000      -0.515070       -14.0158
  47   2.0000      -0.506652       -13.7867
  48   2.0000      -0.501060       -13.6345
  49   2.0000      -0.494617       -13.4592
  50   2.0000      -0.483755       -13.1636
  51   2.0000      -0.481178       -13.0935
  52   2.0000      -0.471059       -12.8182
  53   2.0000      -0.464780       -12.6473
  54   2.0000      -0.459724       -12.5097
  55   2.0000      -0.451721       -12.2920
  56   2.0000      -0.446423       -12.1478
  57   2.0000      -0.443652       -12.0724
  58   2.0000      -0.434996       -11.8368
  59   2.0000      -0.425887       -11.5890
  60   2.0000      -0.422720       -11.5028
  61   2.0000      -0.415493       -11.3061
  62   2.0000      -0.409374       -11.1396
  63   2.0000      -0.355111        -9.6631
  64   2.0000      -0.336288        -9.1509
  65   2.0000      -0.328061        -8.9270
  66   2.0000      -0.277850        -7.5607
  67   0.0000       0.024905         0.6777
  68   0.0000       0.077427         2.1069
  69   0.0000       0.104504         2.8437
  70   0.0000       0.118060         3.2126
  71   0.0000       0.126591         3.4447

MULLIKEN ATOMIC CHARGES
-----------------------
   0 S :    0.131678
   1 C :   -0.149722
   2 C :   -0.105889
   3 C :   -0.001085
   4 C :   -0.102457
   5 H :   -0.006497
   6 C :    0.107211
   7 H :    0.021325
   8 H :    0.002345
   9 C :   -0.091235
  10 H :    0.031159
  11 H :    0.035927
  12 C :   -0.056953
  13 H :    0.045409
  14 H :    0.038136
  15 H :    0.029026
  16 S :    0.097336
  17 C :   -0.079012
  18 C :   -0.032494
  19 C :   -0.075918
  20 C :   -0.150189
  21 H :    0.026497
  22 C :    0.025186
  23 H :    0.040191
  24 H :    0.040416
  25 C :   -0.049306
  26 H :    0.033255
  27 H :    0.035457
  28 C :   -0.075769
  29 H :    0.031991
  30 H :    0.050101
  31 H :    0.044310
  32 H :    0.062246
  33 H :    0.047323
Sum of atomic charges:    0.0000000

LOEWDIN ATOMIC CHARGES
----------------------
   0 S :    0.419429
   1 C :   -0.225627
   2 C :   -0.059671
   3 C :   -0.067041
   4 C :   -0.181486
   5 H :    0.030139
   6 C :   -0.031278
   7 H :    0.026637
   8 H :    0.024255
   9 C :   -0.035948
  10 H :    0.025749
  11 H :    0.026273
  12 C :   -0.077720
  13 H :    0.028165
  14 H :    0.036382
  15 H :    0.022834
  16 S :    0.387929
  17 C :   -0.179591
  18 C :   -0.074728
  19 C :   -0.060870
  20 C :   -0.188729
  21 H :    0.035233
  22 C :   -0.035288
  23 H :    0.033657
  24 H :    0.035319
  25 C :   -0.035943
  26 H :    0.027372
  27 H :    0.022439
  28 C :   -0.078834
  29 H :    0.030039
  30 H :    0.026975
  31 H :    0.034131
  32 H :    0.034958
  33 H :    0.024838

  Mayer bond orders larger than 0.100000
B(  0-S ,  1-C ) :   1.1551 B(  0-S ,  4-C ) :   1.1556 B(  1-C ,  2-C ) :   1.5665
B(  1-C , 32-H ) :   0.9560 B(  2-C ,  3-C ) :   1.3077 B(  2-C ,  6-C ) :   1.0405
B(  3-C ,  4-C ) :   1.5154 B(  3-C ,  5-H ) :   0.9916 B(  4-C , 20-C ) :   1.0624
B(  6-C ,  7-H ) :   0.9407 B(  6-C ,  8-H ) :   0.9212 B(  6-C ,  9-C ) :   1.0669
B(  9-C , 10-H ) :   0.9669 B(  9-C , 11-H ) :   0.9603 B(  9-C , 12-C ) :   1.0460
B( 12-C , 13-H ) :   0.9787 B( 12-C , 14-H ) :   0.9792 B( 12-C , 15-H ) :   0.9807
B( 16-S , 17-C ) :   1.1313 B( 16-S , 20-C ) :   1.1366 B( 17-C , 18-C ) :   1.6361
B( 17-C , 33-H ) :   0.9709 B( 18-C , 19-C ) :   1.2254 B( 18-C , 21-H ) :   0.9816
B( 19-C , 20-C ) :   1.5864 B( 19-C , 22-C ) :   1.0379 B( 22-C , 23-H ) :   0.9365
B( 22-C , 24-H ) :   0.9337 B( 22-C , 25-C ) :   1.0429 B( 25-C , 26-H ) :   0.9523
B( 25-C , 27-H ) :   0.9598 B( 25-C , 28-C ) :   1.0729 B( 28-C , 29-H ) :   0.9729
B( 28-C , 30-H ) :   0.9749 B( 28-C , 31-H ) :   0.9754

Dispersion correction           -0.014321014
FINAL SINGLE POINT ENERGY     -1339.867650882170

DIPOLE MOMENT
-------------
                                X             Y             Z
Electronic contribution:      1.97249     -28.01045     -18.92520
Nuclear contribution   :     -1.87182      28.51880      19.40365
                        -----------------------------------------
Total Dipole Moment    :      0.10067       0.50835       0.47845
                        -----------------------------------------
Magnitude (a.u.)       :      0.70532
Magnitude (Debye)      :      1.79278

Rotational constants in cm-1:     0.017601     0.009469     0.006385
Rotational constants in MHz :   527.660013   283.886745   191.413606

                             ****ORCA TERMINATED NORMALLY****
TOTAL RUN TIME: 0 days 0 hours 0 minutes 20 seconds 987 msec
