                         Program Version 4.2.1 -  RELEASE  -
|  1> ! wB97X-D3 SP def2-SVP
|  2> %pal
|  3> nprocs 24
|  4> end
|  5>
|  6> * xyz 0 1
|  7> S 	 -37.6251 	 -29.9239 	 -98.5897
|  8> C 	 -36.3121 	 -29.3033 	 -99.5158
|  9> C 	 -35.4501 	 -30.2834 	 -99.9124
| 10> C 	 -35.8336 	 -31.5551 	 -99.3879
| 11> C 	 -36.9003 	 -31.5165 	 -98.5728
| 12> H 	 -35.4231 	 -32.5349 	 -99.6376
| 13> C 	 -34.5141 	 -29.9771 	 -101.087
| 14> H 	 -33.966 	 -30.921 	 -101.208
| 15> H 	 -33.8658 	 -29.2215 	 -100.551
| 16> C 	 -35.1377 	 -29.4632 	 -102.388
| 17> H 	 -35.6028 	 -28.5146 	 -102.303
| 18> H 	 -34.2972 	 -29.3737 	 -103.114
| 19> C 	 -36.0937 	 -30.4609 	 -103.074
| 20> H 	 -35.5222 	 -31.3675 	 -103.225
| 21> H 	 -37.0009 	 -30.6406 	 -102.444
| 22> H 	 -36.3676 	 -30.0456 	 -104.029
| 23> S 	 -39.1678 	 -33.1125 	 -98.3604
| 24> C 	 -39.1346 	 -34.4341 	 -97.2701
| 25> C 	 -37.8666 	 -34.5986 	 -96.7501
| 26> C 	 -36.9543 	 -33.5459 	 -97.0829
| 27> C 	 -37.516 	 -32.6508 	 -97.9212
| 28> H 	 -37.6907 	 -35.5141 	 -96.113
| 29> C 	 -35.5896 	 -33.503 	 -96.4917
| 30> H 	 -34.9735 	 -33.3504 	 -97.4116
| 31> H 	 -35.3445 	 -34.3742 	 -95.9602
| 32> C 	 -35.5684 	 -32.2756 	 -95.657
| 33> H 	 -36.2159 	 -32.3396 	 -94.8604
| 34> H 	 -35.9364 	 -31.4378 	 -96.2798
| 35> C 	 -34.1471 	 -31.92 	 -95.148
| 36> H 	 -33.2987 	 -31.8052 	 -95.8172
| 37> H 	 -33.8461 	 -32.737 	 -94.429
| 38> H 	 -34.2113 	 -31.0109 	 -94.5497
| 39> H 	 -36.2997 	 -28.2818 	 -99.8946
| 40> H 	 -39.8168 	 -35.2549 	 -97.3071
| 41> *
| 42>
| 43>                          ****END OF INPUT****

CARTESIAN COORDINATES (ANGSTROEM)
---------------------------------
  S    -37.625100  -29.923900  -98.589700
  C    -36.312100  -29.303300  -99.515800
  C    -35.450100  -30.283400  -99.912400
  C    -35.833600  -31.555100  -99.387900
  C    -36.900300  -31.516500  -98.572800
  H    -35.423100  -32.534900  -99.637600
  C    -34.514100  -29.977100  -101.087000
  H    -33.966000  -30.921000  -101.208000
  H    -33.865800  -29.221500  -100.551000
  C    -35.137700  -29.463200  -102.388000
  H    -35.602800  -28.514600  -102.303000
  H    -34.297200  -29.373700  -103.114000
  C    -36.093700  -30.460900  -103.074000
  H    -35.522200  -31.367500  -103.225000
  H    -37.000900  -30.640600  -102.444000
  H    -36.367600  -30.045600  -104.029000
  S    -39.167800  -33.112500  -98.360400
  C    -39.134600  -34.434100  -97.270100
  C    -37.866600  -34.598600  -96.750100
  C    -36.954300  -33.545900  -97.082900
  C    -37.516000  -32.650800  -97.921200
  H    -37.690700  -35.514100  -96.113000
  C    -35.589600  -33.503000  -96.491700
  H    -34.973500  -33.350400  -97.411600
  H    -35.344500  -34.374200  -95.960200
  C    -35.568400  -32.275600  -95.657000
  H    -36.215900  -32.339600  -94.860400
  H    -35.936400  -31.437800  -96.279800
  C    -34.147100  -31.920000  -95.148000
  H    -33.298700  -31.805200  -95.817200
  H    -33.846100  -32.737000  -94.429000
  H    -34.211300  -31.010900  -94.549700
  H    -36.299700  -28.281800  -99.894600
  H    -39.816800  -35.254900  -97.307100

 Total Charge           Charge          ....    0
 Multiplicity           Mult            ....    1
 Number of Electrons    NEL             ....  134
 Basis Dimension        Dim             ....  322

ORBITAL ENERGIES
----------------

  NO   OCC          E(Eh)            E(eV)
   0   2.0000     -88.964578     -2420.8493
   1   2.0000     -88.962658     -2420.7970
   2   2.0000     -10.323199      -280.9085
   3   2.0000     -10.319351      -280.8038
   4   2.0000     -10.310027      -280.5501
   5   2.0000     -10.308457      -280.5074
   6   2.0000     -10.298062      -280.2245
   7   2.0000     -10.296639      -280.1858
   8   2.0000     -10.295949      -280.1670
   9   2.0000     -10.293998      -280.1139
  10   2.0000     -10.292320      -280.0683
  11   2.0000     -10.289067      -279.9798
  12   2.0000     -10.282525      -279.8017
  13   2.0000     -10.277721      -279.6710
  14   2.0000     -10.274372      -279.5799
  15   2.0000     -10.273474      -279.5554
  16   2.0000      -8.079877      -219.8646
  17   2.0000      -8.077861      -219.8098
  18   2.0000      -6.038308      -164.3107
  19   2.0000      -6.036332      -164.2569
  20   2.0000      -6.034340      -164.2027
  21   2.0000      -6.032305      -164.1474
  22   2.0000      -6.030648      -164.1023
  23   2.0000      -6.028644      -164.0477
  24   2.0000      -1.015002       -27.6196
  25   2.0000      -0.991670       -26.9847
  26   2.0000      -0.920783       -25.0558
  27   2.0000      -0.911780       -24.8108
  28   2.0000      -0.871765       -23.7219
  29   2.0000      -0.851295       -23.1649
  30   2.0000      -0.844697       -22.9854
  31   2.0000      -0.816677       -22.2229
  32   2.0000      -0.782183       -21.2843
  33   2.0000      -0.770745       -20.9730
  34   2.0000      -0.708197       -19.2710
  35   2.0000      -0.702794       -19.1240
  36   2.0000      -0.692330       -18.8392
  37   2.0000      -0.662888       -18.0381
  38   2.0000      -0.643089       -17.4993
  39   2.0000      -0.611193       -16.6314
  40   2.0000      -0.591128       -16.0854
  41   2.0000      -0.576343       -15.6831
  42   2.0000      -0.572283       -15.5726
  43   2.0000      -0.551154       -14.9977
  44   2.0000      -0.541938       -14.7469
  45   2.0000      -0.524641       -14.2762
  46   2.0000      -0.515074       -14.0159
  47   2.0000      -0.509939       -13.8761
  48   2.0000      -0.504131       -13.7181
  49   2.0000      -0.498334       -13.5603
  50   2.0000      -0.496272       -13.5043
  51   2.0000      -0.479733       -13.0542
  52   2.0000      -0.472656       -12.8616
  53   2.0000      -0.468462       -12.7475
  54   2.0000      -0.458539       -12.4775
  55   2.0000      -0.445945       -12.1348
  56   2.0000      -0.444829       -12.1044
  57   2.0000      -0.440166       -11.9775
  58   2.0000      -0.433465       -11.7952
  59   2.0000      -0.426426       -11.6036
  60   2.0000      -0.417301       -11.3553
  61   2.0000      -0.412389       -11.2217
  62   2.0000      -0.406913       -11.0727
  63   2.0000      -0.346924        -9.4403
  64   2.0000      -0.329541        -8.9673
  65   2.0000      -0.327746        -8.9184
  66   2.0000      -0.296514        -8.0686
  67   0.0000       0.034566         0.9406
  68   0.0000       0.066789         1.8174
  69   0.0000       0.114724         3.1218
  70   0.0000       0.128329         3.4920
  71   0.0000       0.129637         3.5276

MULLIKEN ATOMIC CHARGES
-----------------------
   0 S :    0.117449
   1 C :   -0.135588
   2 C :   -0.093866
   3 C :    0.030970
   4 C :   -0.203444
   5 H :    0.022455
   6 C :    0.041220
   7 H :    0.021243
   8 H :    0.051217
   9 C :   -0.056766
  10 H :    0.021792
  11 H :    0.034041
  12 C :   -0.048752
  13 H :    0.025473
  14 H :    0.054297
  15 H :    0.032613
  16 S :    0.109560
  17 C :   -0.074763
  18 C :   -0.087365
  19 C :   -0.050845
  20 C :   -0.172364
  21 H :    0.036213
  22 C :    0.175327
  23 H :    0.018527
  24 H :    0.003066
  25 C :   -0.075184
  26 H :    0.009841
  27 H :    0.045383
  28 C :   -0.044418
  29 H :    0.034665
  30 H :    0.021055
  31 H :    0.030343
  32 H :    0.053056
  33 H :    0.053546
Sum of atomic charges:    0.0000000

LOEWDIN ATOMIC CHARGES
----------------------
   0 S :    0.413156
   1 C :   -0.200981
   2 C :   -0.075301
   3 C :   -0.065984
   4 C :   -0.197280
   5 H :    0.034669
   6 C :   -0.037381
   7 H :    0.028313
   8 H :    0.044621
   9 C :   -0.039722
  10 H :    0.015647
  11 H :    0.031517
  12 C :   -0.059552
  13 H :    0.022627
  14 H :    0.032283
  15 H :    0.024277
  16 S :    0.407950
  17 C :   -0.198138
  18 C :   -0.079654
  19 C :   -0.051639
  20 C :   -0.201023
  21 H :    0.039073
  22 C :   -0.021767
  23 H :    0.038215
  24 H :    0.021196
  25 C :   -0.030766
  26 H :    0.016271
  27 H :    0.031177
  28 C :   -0.070773
  29 H :    0.022876
  30 H :    0.025634
  31 H :    0.025336
  32 H :    0.028365
  33 H :    0.026759

  Mayer bond orders larger than 0.100000
B(  0-S ,  1-C ) :   1.1478 B(  0-S ,  4-C ) :   1.1398 B(  1-C ,  2-C ) :   1.6072
B(  1-C , 32-H ) :   0.9708 B(  2-C ,  3-C ) :   1.2339 B(  2-C ,  6-C ) :   0.9947
B(  3-C ,  4-C ) :   1.6073 B(  3-C ,  5-H ) :   0.9876 B(  4-C , 20-C ) :   1.0235
B(  6-C ,  7-H ) :   0.9462 B(  6-C ,  8-H ) :   0.9370 B(  6-C ,  9-C ) :   1.0758
B(  9-C , 10-H ) :   0.9537 B(  9-C , 11-H ) :   0.9530 B(  9-C , 12-C ) :   1.0761
B( 12-C , 13-H ) :   0.9764 B( 12-C , 14-H ) :   0.9756 B( 12-C , 15-H ) :   0.9737
B( 16-S , 17-C ) :   1.1593 B( 16-S , 20-C ) :   1.1387 B( 17-C , 18-C ) :   1.6241
B( 17-C , 33-H ) :   0.9623 B( 18-C , 19-C ) :   1.2369 B( 18-C , 21-H ) :   0.9806
B( 19-C , 20-C ) :   1.6117 B( 19-C , 22-C ) :   1.0342 B( 22-C , 23-H ) :   0.9128
B( 22-C , 24-H ) :   0.9273 B( 22-C , 25-C ) :   1.0791 B( 25-C , 26-H ) :   0.9465
B( 25-C , 27-H ) :   0.9545 B( 25-C , 28-C ) :   1.0819 B( 28-C , 29-H ) :   0.9782
B( 28-C , 30-H ) :   0.9716 B( 28-C , 31-H ) :   0.9742

Dispersion correction           -0.015217527
FINAL SINGLE POINT ENERGY     -1339.873620937600

DIPOLE MOMENT
-------------
                                X             Y             Z
Electronic contribution:    -19.68635      -2.39227       4.15140
Nuclear contribution   :     20.14444       2.20001      -4.43220
                        -----------------------------------------
Total Dipole Moment    :      0.45809      -0.19226      -0.28079
                        -----------------------------------------
Magnitude (a.u.)       :      0.57066
Magnitude (Debye)      :      1.45051

Rotational constants in cm-1:     0.019789     0.009170     0.007498
Rotational constants in MHz :   593.256927   274.909136   224.769913

                             ****ORCA TERMINATED NORMALLY****
TOTAL RUN TIME: 0 days 0 hours 0 minutes 21 seconds 330 msec
