                         Program Version 4.2.1 -  RELEASE  -
|  1> ! wB97X-D3 SP def2-SVP
|  2> %pal
|  3> nprocs 24
|  4> end
|  5>
|  6> * xyz 0 1
|  7> S 	 -63.5338 	 18.9991 	 -72.9368
|  8> C 	 -62.6134 	 17.6271 	 -72.6323
|  9> C 	 -62.6754 	 17.1546 	 -71.3424
| 10> C 	 -63.4924 	 18.0042 	 -70.5726
| 11> C 	 -64.1651 	 18.9432 	 -71.3057
| 12> H 	 -63.8672 	 17.9083 	 -69.5579
| 13> C 	 -62.0221 	 15.9349 	 -70.8006
| 14> H 	 -62.0526 	 16.0487 	 -69.6514
| 15> H 	 -60.9749 	 16.0719 	 -71.0503
| 16> C 	 -62.632 	 14.5236 	 -71.2401
| 17> H 	 -63.6759 	 14.5678 	 -71.2816
| 18> H 	 -62.3021 	 14.3823 	 -72.2814
| 19> C 	 -62.2285 	 13.3205 	 -70.3401
| 20> H 	 -62.8692 	 12.485 	 -70.4706
| 21> H 	 -61.233 	 13.0862 	 -70.6316
| 22> H 	 -62.322 	 13.4663 	 -69.2772
| 23> S 	 -64.9235 	 20.8265 	 -69.3867
| 24> C 	 -66.0341 	 22.0505 	 -69.9138
| 25> C 	 -66.7302 	 21.6931 	 -71.0257
| 26> C 	 -66.124 	 20.5668 	 -71.66
| 27> C 	 -65.0595 	 19.9719 	 -70.9123
| 28> H 	 -67.4234 	 22.3468 	 -71.5489
| 29> C 	 -66.6889 	 20.088 	 -72.9982
| 30> H 	 -66.293 	 19.0719 	 -73.1383
| 31> H 	 -66.42 	 20.6807 	 -73.8023
| 32> C 	 -68.2563 	 20.0183 	 -73.1716
| 33> H 	 -68.5036 	 19.7749 	 -74.1503
| 34> H 	 -68.7409 	 20.9842 	 -73.0914
| 35> C 	 -68.962 	 18.9167 	 -72.4141
| 36> H 	 -70.0298 	 18.819 	 -72.444
| 37> H 	 -68.9563 	 19.0009 	 -71.3566
| 38> H 	 -68.4491 	 17.9622 	 -72.7737
| 39> H 	 -62.0702 	 17.0843 	 -73.3547
| 40> H 	 -66.2374 	 22.9477 	 -69.4083
| 41> *
| 42>
| 43>                          ****END OF INPUT****

CARTESIAN COORDINATES (ANGSTROEM)
---------------------------------
  S    -63.533800   18.999100  -72.936800
  C    -62.613400   17.627100  -72.632300
  C    -62.675400   17.154600  -71.342400
  C    -63.492400   18.004200  -70.572600
  C    -64.165100   18.943200  -71.305700
  H    -63.867200   17.908300  -69.557900
  C    -62.022100   15.934900  -70.800600
  H    -62.052600   16.048700  -69.651400
  H    -60.974900   16.071900  -71.050300
  C    -62.632000   14.523600  -71.240100
  H    -63.675900   14.567800  -71.281600
  H    -62.302100   14.382300  -72.281400
  C    -62.228500   13.320500  -70.340100
  H    -62.869200   12.485000  -70.470600
  H    -61.233000   13.086200  -70.631600
  H    -62.322000   13.466300  -69.277200
  S    -64.923500   20.826500  -69.386700
  C    -66.034100   22.050500  -69.913800
  C    -66.730200   21.693100  -71.025700
  C    -66.124000   20.566800  -71.660000
  C    -65.059500   19.971900  -70.912300
  H    -67.423400   22.346800  -71.548900
  C    -66.688900   20.088000  -72.998200
  H    -66.293000   19.071900  -73.138300
  H    -66.420000   20.680700  -73.802300
  C    -68.256300   20.018300  -73.171600
  H    -68.503600   19.774900  -74.150300
  H    -68.740900   20.984200  -73.091400
  C    -68.962000   18.916700  -72.414100
  H    -70.029800   18.819000  -72.444000
  H    -68.956300   19.000900  -71.356600
  H    -68.449100   17.962200  -72.773700
  H    -62.070200   17.084300  -73.354700
  H    -66.237400   22.947700  -69.408300

 Total Charge           Charge          ....    0
 Multiplicity           Mult            ....    1
 Number of Electrons    NEL             ....  134
 Basis Dimension        Dim             ....  322

ORBITAL ENERGIES
----------------

  NO   OCC          E(Eh)            E(eV)
   0   2.0000     -88.966595     -2420.9041
   1   2.0000     -88.965230     -2420.8670
   2   2.0000     -10.326368      -280.9948
   3   2.0000     -10.320876      -280.8453
   4   2.0000     -10.312665      -280.6219
   5   2.0000     -10.305152      -280.4174
   6   2.0000     -10.300109      -280.2802
   7   2.0000     -10.297198      -280.2010
   8   2.0000     -10.294050      -280.1153
   9   2.0000     -10.290435      -280.0170
  10   2.0000     -10.290010      -280.0054
  11   2.0000     -10.287833      -279.9462
  12   2.0000     -10.286442      -279.9083
  13   2.0000     -10.280733      -279.7530
  14   2.0000     -10.273696      -279.5615
  15   2.0000     -10.270706      -279.4801
  16   2.0000      -8.081488      -219.9085
  17   2.0000      -8.080958      -219.8940
  18   2.0000      -6.039996      -164.3566
  19   2.0000      -6.039227      -164.3357
  20   2.0000      -6.036088      -164.2503
  21   2.0000      -6.035379      -164.2310
  22   2.0000      -6.032134      -164.1427
  23   2.0000      -6.031848      -164.1349
  24   2.0000      -1.013708       -27.5844
  25   2.0000      -0.989023       -26.9127
  26   2.0000      -0.906596       -24.6697
  27   2.0000      -0.904520       -24.6132
  28   2.0000      -0.874369       -23.7928
  29   2.0000      -0.857252       -23.3270
  30   2.0000      -0.847119       -23.0513
  31   2.0000      -0.818146       -22.2629
  32   2.0000      -0.785698       -21.3799
  33   2.0000      -0.769158       -20.9299
  34   2.0000      -0.711245       -19.3540
  35   2.0000      -0.710435       -19.3319
  36   2.0000      -0.698043       -18.9947
  37   2.0000      -0.664077       -18.0704
  38   2.0000      -0.638872       -17.3846
  39   2.0000      -0.611764       -16.6469
  40   2.0000      -0.597798       -16.2669
  41   2.0000      -0.569178       -15.4881
  42   2.0000      -0.562762       -15.3135
  43   2.0000      -0.559155       -15.2154
  44   2.0000      -0.536603       -14.6017
  45   2.0000      -0.529303       -14.4031
  46   2.0000      -0.522422       -14.2158
  47   2.0000      -0.511369       -13.9151
  48   2.0000      -0.502053       -13.6615
  49   2.0000      -0.498406       -13.5623
  50   2.0000      -0.487528       -13.2663
  51   2.0000      -0.478569       -13.0225
  52   2.0000      -0.471392       -12.8272
  53   2.0000      -0.463203       -12.6044
  54   2.0000      -0.458240       -12.4693
  55   2.0000      -0.452966       -12.3258
  56   2.0000      -0.440453       -11.9853
  57   2.0000      -0.439390       -11.9564
  58   2.0000      -0.434110       -11.8127
  59   2.0000      -0.427412       -11.6305
  60   2.0000      -0.419249       -11.4084
  61   2.0000      -0.413020       -11.2388
  62   2.0000      -0.409327       -11.1383
  63   2.0000      -0.357558        -9.7296
  64   2.0000      -0.332991        -9.0612
  65   2.0000      -0.328434        -8.9371
  66   2.0000      -0.278969        -7.5911
  67   0.0000       0.025343         0.6896
  68   0.0000       0.077416         2.1066
  69   0.0000       0.107389         2.9222
  70   0.0000       0.113849         3.0980
  71   0.0000       0.138179         3.7600

MULLIKEN ATOMIC CHARGES
-----------------------
   0 S :    0.125850
   1 C :   -0.094497
   2 C :   -0.082340
   3 C :   -0.005243
   4 C :   -0.171488
   5 H :    0.011824
   6 C :    0.031492
   7 H :    0.031831
   8 H :    0.035449
   9 C :   -0.049209
  10 H :    0.022033
  11 H :    0.029143
  12 C :   -0.023985
  13 H :    0.023342
  14 H :    0.030481
  15 H :    0.028883
  16 S :    0.114032
  17 C :   -0.070977
  18 C :   -0.011389
  19 C :   -0.084767
  20 C :   -0.109542
  21 H :    0.026263
  22 C :    0.087067
  23 H :    0.025156
  24 H :    0.023969
  25 C :   -0.046509
  26 H :    0.008692
  27 H :    0.013193
  28 C :   -0.052200
  29 H :    0.019444
  30 H :    0.018746
  31 H :    0.038068
  32 H :    0.018826
  33 H :    0.038358
Sum of atomic charges:    0.0000000

LOEWDIN ATOMIC CHARGES
----------------------
   0 S :    0.451937
   1 C :   -0.214744
   2 C :   -0.068541
   3 C :   -0.070345
   4 C :   -0.188996
   5 H :    0.031404
   6 C :   -0.037991
   7 H :    0.037564
   8 H :    0.031818
   9 C :   -0.028444
  10 H :    0.015972
  11 H :    0.026139
  12 C :   -0.059701
  13 H :    0.024076
  14 H :    0.023410
  15 H :    0.025338
  16 S :    0.410619
  17 C :   -0.172033
  18 C :   -0.071875
  19 C :   -0.052900
  20 C :   -0.208671
  21 H :    0.034244
  22 C :   -0.028553
  23 H :    0.024197
  24 H :    0.023372
  25 C :   -0.038308
  26 H :    0.020045
  27 H :    0.018023
  28 C :   -0.073717
  29 H :    0.024797
  30 H :    0.019335
  31 H :    0.035207
  32 H :    0.016758
  33 H :    0.020565

  Mayer bond orders larger than 0.100000
B(  0-S ,  1-C ) :   1.1607 B(  0-S ,  4-C ) :   1.1497 B(  1-C ,  2-C ) :   1.5952
B(  1-C , 32-H ) :   0.9685 B(  2-C ,  3-C ) :   1.2542 B(  2-C ,  6-C ) :   1.0206
B(  3-C ,  4-C ) :   1.5704 B(  3-C ,  5-H ) :   0.9925 B(  4-C , 20-C ) :   1.0989
B(  6-C ,  7-H ) :   0.9481 B(  6-C ,  8-H ) :   0.9363 B(  6-C ,  9-C ) :   1.0379
B(  9-C , 10-H ) :   0.9651 B(  9-C , 11-H ) :   0.9571 B(  9-C , 12-C ) :   1.0808
B( 12-C , 13-H ) :   0.9750 B( 12-C , 14-H ) :   0.9795 B( 12-C , 15-H ) :   0.9758
B( 16-S , 17-C ) :   1.1655 B( 16-S , 20-C ) :   1.1193 B( 17-C , 18-C ) :   1.6029
B( 17-C , 33-H ) :   0.9691 B( 18-C , 19-C ) :   1.2621 B( 18-C , 21-H ) :   0.9844
B( 19-C , 20-C ) :   1.5405 B( 19-C , 22-C ) :   1.0396 B( 22-C , 23-H ) :   0.9316
B( 22-C , 24-H ) :   0.9296 B( 22-C , 25-C ) :   1.0830 B( 25-C , 26-H ) :   0.9506
B( 25-C , 27-H ) :   0.9478 B( 25-C , 28-C ) :   1.0706 B( 28-C , 29-H ) :   0.9707
B( 28-C , 30-H ) :   0.9742 B( 28-C , 31-H ) :   0.9741

Dispersion correction           -0.013793415
FINAL SINGLE POINT ENERGY     -1339.853206605766

DIPOLE MOMENT
-------------
                                X             Y             Z
Electronic contribution:      7.12498      20.01153       3.82856
Nuclear contribution   :     -7.34506     -20.21673      -3.99471
                        -----------------------------------------
Total Dipole Moment    :     -0.22008      -0.20520      -0.16615
                        -----------------------------------------
Magnitude (a.u.)       :      0.34373
Magnitude (Debye)      :      0.87369

Rotational constants in cm-1:     0.021034     0.007259     0.006541
Rotational constants in MHz :   630.588416   217.626591   196.092755

                             ****ORCA TERMINATED NORMALLY****
TOTAL RUN TIME: 0 days 0 hours 0 minutes 21 seconds 36 msec
