                         Program Version 4.2.1 -  RELEASE  -
|  1> ! wB97X-D3 SP def2-SVP
|  2> %pal
|  3> nprocs 24
|  4> end
|  5>
|  6> * xyz 0 1
|  7> S 	 -88.8567 	 52.153 	 -96.772
|  8> C 	 -89.2327 	 51.3138 	 -95.2212
|  9> C 	 -90.4717 	 50.7656 	 -95.2909
| 10> C 	 -91.1615 	 51.0169 	 -96.5566
| 11> C 	 -90.4841 	 51.8358 	 -97.4182
| 12> H 	 -92.1224 	 50.7319 	 -96.9652
| 13> C 	 -91.0189 	 49.703 	 -94.3271
| 14> H 	 -90.2687 	 49.6493 	 -93.5294
| 15> H 	 -90.946 	 48.7227 	 -94.8394
| 16> C 	 -92.4082 	 49.9408 	 -93.8244
| 17> H 	 -92.4238 	 51.0559 	 -93.7175
| 18> H 	 -93.1537 	 49.7066 	 -94.6546
| 19> C 	 -92.7952 	 49.2863 	 -92.5759
| 20> H 	 -92.634 	 48.2688 	 -92.6108
| 21> H 	 -92.4902 	 49.7596 	 -91.6577
| 22> H 	 -93.8898 	 49.291 	 -92.5502
| 23> S 	 -89.7584 	 52.3353 	 -100.047
| 24> C 	 -91.0681 	 52.9413 	 -101.13
| 25> C 	 -92.3231 	 52.8223 	 -100.538
| 26> C 	 -92.2487 	 52.6496 	 -99.1517
| 27> C 	 -90.9889 	 52.2722 	 -98.7325
| 28> H 	 -93.2038 	 53.0973 	 -101.043
| 29> C 	 -93.4859 	 52.9211 	 -98.2551
| 30> H 	 -93.6334 	 52.1305 	 -97.5849
| 31> H 	 -94.3404 	 52.8562 	 -98.8398
| 32> C 	 -93.3215 	 54.3287 	 -97.5711
| 33> H 	 -93.3682 	 55.1063 	 -98.3783
| 34> H 	 -92.3302 	 54.4282 	 -97.0543
| 35> C 	 -94.5291 	 54.7272 	 -96.6301
| 36> H 	 -95.503 	 54.3255 	 -96.9207
| 37> H 	 -94.566 	 55.8254 	 -96.5853
| 38> H 	 -94.3231 	 54.4117 	 -95.65
| 39> H 	 -88.5665 	 51.1108 	 -94.3639
| 40> H 	 -90.9538 	 53.147 	 -102.189
| 41> *
| 42>
| 43>                          ****END OF INPUT****

CARTESIAN COORDINATES (ANGSTROEM)
---------------------------------
  S    -88.856700   52.153000  -96.772000
  C    -89.232700   51.313800  -95.221200
  C    -90.471700   50.765600  -95.290900
  C    -91.161500   51.016900  -96.556600
  C    -90.484100   51.835800  -97.418200
  H    -92.122400   50.731900  -96.965200
  C    -91.018900   49.703000  -94.327100
  H    -90.268700   49.649300  -93.529400
  H    -90.946000   48.722700  -94.839400
  C    -92.408200   49.940800  -93.824400
  H    -92.423800   51.055900  -93.717500
  H    -93.153700   49.706600  -94.654600
  C    -92.795200   49.286300  -92.575900
  H    -92.634000   48.268800  -92.610800
  H    -92.490200   49.759600  -91.657700
  H    -93.889800   49.291000  -92.550200
  S    -89.758400   52.335300  -100.047000
  C    -91.068100   52.941300  -101.130000
  C    -92.323100   52.822300  -100.538000
  C    -92.248700   52.649600  -99.151700
  C    -90.988900   52.272200  -98.732500
  H    -93.203800   53.097300  -101.043000
  C    -93.485900   52.921100  -98.255100
  H    -93.633400   52.130500  -97.584900
  H    -94.340400   52.856200  -98.839800
  C    -93.321500   54.328700  -97.571100
  H    -93.368200   55.106300  -98.378300
  H    -92.330200   54.428200  -97.054300
  C    -94.529100   54.727200  -96.630100
  H    -95.503000   54.325500  -96.920700
  H    -94.566000   55.825400  -96.585300
  H    -94.323100   54.411700  -95.650000
  H    -88.566500   51.110800  -94.363900
  H    -90.953800   53.147000  -102.189000

 Total Charge           Charge          ....    0
 Multiplicity           Mult            ....    1
 Number of Electrons    NEL             ....  134
 Basis Dimension        Dim             ....  322

ORBITAL ENERGIES
----------------

  NO   OCC          E(Eh)            E(eV)
   0   2.0000     -88.969209     -2420.9753
   1   2.0000     -88.963725     -2420.8260
   2   2.0000     -10.332108      -281.1510
   3   2.0000     -10.330917      -281.1186
   4   2.0000     -10.323601      -280.9195
   5   2.0000     -10.318856      -280.7903
   6   2.0000     -10.304717      -280.4056
   7   2.0000     -10.303364      -280.3688
   8   2.0000     -10.297312      -280.2041
   9   2.0000     -10.292341      -280.0688
  10   2.0000     -10.292278      -280.0671
  11   2.0000     -10.290917      -280.0301
  12   2.0000     -10.290633      -280.0224
  13   2.0000     -10.286737      -279.9163
  14   2.0000     -10.276720      -279.6438
  15   2.0000     -10.269009      -279.4339
  16   2.0000      -8.082292      -219.9304
  17   2.0000      -8.077171      -219.7910
  18   2.0000      -6.040865      -164.3803
  19   2.0000      -6.037232      -164.2814
  20   2.0000      -6.036080      -164.2501
  21   2.0000      -6.032890      -164.1633
  22   2.0000      -6.031947      -164.1376
  23   2.0000      -6.027488      -164.0163
  24   2.0000      -0.999717       -27.2037
  25   2.0000      -0.977577       -26.6012
  26   2.0000      -0.917934       -24.9783
  27   2.0000      -0.899559       -24.4782
  28   2.0000      -0.872787       -23.7498
  29   2.0000      -0.848133       -23.0789
  30   2.0000      -0.843168       -22.9438
  31   2.0000      -0.814636       -22.1674
  32   2.0000      -0.785469       -21.3737
  33   2.0000      -0.777134       -21.1469
  34   2.0000      -0.707068       -19.2403
  35   2.0000      -0.697097       -18.9690
  36   2.0000      -0.689763       -18.7694
  37   2.0000      -0.666876       -18.1466
  38   2.0000      -0.640822       -17.4377
  39   2.0000      -0.610895       -16.6233
  40   2.0000      -0.593332       -16.1454
  41   2.0000      -0.577806       -15.7229
  42   2.0000      -0.562759       -15.3134
  43   2.0000      -0.554462       -15.0877
  44   2.0000      -0.527246       -14.3471
  45   2.0000      -0.523677       -14.2500
  46   2.0000      -0.517900       -14.0928
  47   2.0000      -0.512058       -13.9338
  48   2.0000      -0.507333       -13.8052
  49   2.0000      -0.500870       -13.6294
  50   2.0000      -0.491439       -13.3727
  51   2.0000      -0.485263       -13.2047
  52   2.0000      -0.477392       -12.9905
  53   2.0000      -0.468836       -12.7577
  54   2.0000      -0.456566       -12.4238
  55   2.0000      -0.450062       -12.2468
  56   2.0000      -0.441518       -12.0143
  57   2.0000      -0.434770       -11.8307
  58   2.0000      -0.423234       -11.5168
  59   2.0000      -0.420521       -11.4430
  60   2.0000      -0.419750       -11.4220
  61   2.0000      -0.414957       -11.2916
  62   2.0000      -0.409189       -11.1346
  63   2.0000      -0.352499        -9.5920
  64   2.0000      -0.336807        -9.1650
  65   2.0000      -0.326355        -8.8806
  66   2.0000      -0.289141        -7.8679
  67   0.0000       0.020638         0.5616
  68   0.0000       0.075719         2.0604
  69   0.0000       0.090079         2.4512
  70   0.0000       0.122361         3.3296
  71   0.0000       0.131534         3.5792

MULLIKEN ATOMIC CHARGES
-----------------------
   0 S :    0.083785
   1 C :   -0.128164
   2 C :   -0.078556
   3 C :    0.012349
   4 C :   -0.124311
   5 H :    0.010025
   6 C :    0.074816
   7 H :    0.003683
   8 H :    0.043834
   9 C :   -0.135169
  10 H :    0.034350
  11 H :    0.038744
  12 C :    0.032404
  13 H :    0.007021
  14 H :    0.037164
  15 H :    0.015451
  16 S :    0.096094
  17 C :   -0.094210
  18 C :   -0.001985
  19 C :   -0.092575
  20 C :   -0.150026
  21 H :    0.005700
  22 C :    0.160188
  23 H :   -0.000052
  24 H :   -0.009614
  25 C :   -0.120748
  26 H :    0.035606
  27 H :    0.060626
  28 C :   -0.027031
  29 H :    0.030942
  30 H :    0.034050
  31 H :    0.024655
  32 H :    0.060288
  33 H :    0.060670
Sum of atomic charges:    0.0000000

LOEWDIN ATOMIC CHARGES
----------------------
   0 S :    0.356566
   1 C :   -0.185988
   2 C :   -0.062760
   3 C :   -0.067398
   4 C :   -0.179649
   5 H :    0.030130
   6 C :   -0.034433
   7 H :    0.024586
   8 H :    0.035401
   9 C :   -0.056914
  10 H :    0.030508
  11 H :    0.030702
  12 C :   -0.060626
  13 H :    0.016775
  14 H :    0.028050
  15 H :    0.033730
  16 S :    0.364599
  17 C :   -0.162276
  18 C :   -0.061438
  19 C :   -0.052024
  20 C :   -0.175853
  21 H :    0.025034
  22 C :   -0.016030
  23 H :    0.016959
  24 H :    0.019304
  25 C :   -0.034805
  26 H :    0.027682
  27 H :    0.035726
  28 C :   -0.065373
  29 H :    0.024496
  30 H :    0.029434
  31 H :    0.017366
  32 H :    0.040164
  33 H :    0.028357

  Mayer bond orders larger than 0.100000
B(  0-S ,  1-C ) :   1.0958 B(  0-S ,  4-C ) :   1.1116 B(  1-C ,  2-C ) :   1.6775
B(  1-C , 32-H ) :   0.9595 B(  2-C ,  3-C ) :   1.1601 B(  2-C ,  6-C ) :   1.0343
B(  3-C ,  4-C ) :   1.6362 B(  3-C ,  5-H ) :   0.9913 B(  4-C , 20-C ) :   1.0566
B(  6-C ,  7-H ) :   0.9399 B(  6-C ,  8-H ) :   0.9345 B(  6-C ,  9-C ) :   1.0522
B(  9-C , 10-H ) :   0.9593 B(  9-C , 11-H ) :   0.9476 B(  9-C , 12-C ) :   1.1084
B( 12-C , 13-H ) :   0.9633 B( 12-C , 14-H ) :   0.9705 B( 12-C , 15-H ) :   0.9635
B( 16-S , 17-C ) :   1.1383 B( 16-S , 20-C ) :   1.1206 B( 17-C , 18-C ) :   1.6264
B( 17-C , 20-C ) :   0.1063 B( 17-C , 33-H ) :   0.9651 B( 18-C , 19-C ) :   1.2529
B( 18-C , 21-H ) :   0.9810 B( 19-C , 20-C ) :   1.6135 B( 19-C , 22-C ) :   1.0355
B( 22-C , 23-H ) :   0.9324 B( 22-C , 24-H ) :   0.9228 B( 22-C , 25-C ) :   1.0486
B( 25-C , 26-H ) :   0.9628 B( 25-C , 27-H ) :   0.9627 B( 25-C , 28-C ) :   1.0655
B( 28-C , 29-H ) :   0.9762 B( 28-C , 30-H ) :   0.9789 B( 28-C , 31-H ) :   0.9775

Dispersion correction           -0.014045046
FINAL SINGLE POINT ENERGY     -1339.856986382103

DIPOLE MOMENT
-------------
                                X             Y             Z
Electronic contribution:     24.02342       1.76188     -19.96234
Nuclear contribution   :    -24.81506      -1.94282      20.20877
                        -----------------------------------------
Total Dipole Moment    :     -0.79164      -0.18095       0.24643
                        -----------------------------------------
Magnitude (a.u.)       :      0.84862
Magnitude (Debye)      :      2.15702

Rotational constants in cm-1:     0.017391     0.008910     0.006734
Rotational constants in MHz :   521.354662   267.127232   201.878171

                             ****ORCA TERMINATED NORMALLY****
TOTAL RUN TIME: 0 days 0 hours 0 minutes 20 seconds 510 msec
