                         Program Version 4.2.1 -  RELEASE  -
|  1> ! wB97X-D3 SP def2-SVP
|  2> %pal
|  3> nprocs 24
|  4> end
|  5>
|  6> * xyz 0 1
|  7> S 	 -135.178 	 31.1995 	 -19.3625
|  8> C 	 -135.085 	 29.7509 	 -20.3028
|  9> C 	 -135.495 	 28.6119 	 -19.5841
| 10> C 	 -135.759 	 28.9531 	 -18.2096
| 11> C 	 -135.558 	 30.2906 	 -17.8954
| 12> H 	 -135.986 	 28.2554 	 -17.429
| 13> C 	 -135.615 	 27.1595 	 -20.1053
| 14> H 	 -136.342 	 27.12 	 -20.9158
| 15> H 	 -136.067 	 26.6366 	 -19.3226
| 16> C 	 -134.294 	 26.5139 	 -20.5469
| 17> H 	 -133.814 	 27.0671 	 -21.419
| 18> H 	 -133.573 	 26.6328 	 -19.7658
| 19> C 	 -134.494 	 25.0075 	 -20.8204
| 20> H 	 -134.622 	 24.5469 	 -19.8272
| 21> H 	 -135.374 	 24.9242 	 -21.4695
| 22> H 	 -133.583 	 24.5747 	 -21.3165
| 23> S 	 -137.447 	 31.0399 	 -16.0662
| 24> C 	 -136.933 	 31.755 	 -14.554
| 25> C 	 -135.524 	 32.0177 	 -14.5898
| 26> C 	 -134.873 	 31.5692 	 -15.7386
| 27> C 	 -135.744 	 30.8958 	 -16.5796
| 28> H 	 -135.062 	 32.502 	 -13.7054
| 29> C 	 -133.446 	 31.9268 	 -16.0048
| 30> H 	 -133.152 	 32.7359 	 -15.4211
| 31> H 	 -133.411 	 32.3137 	 -17.0553
| 32> C 	 -132.382 	 30.8443 	 -16.2258
| 33> H 	 -132.826 	 30.1851 	 -17.0091
| 34> H 	 -132.295 	 30.1893 	 -15.3405
| 35> C 	 -131.026 	 31.2893 	 -16.686
| 36> H 	 -130.546 	 31.9412 	 -16.0018
| 37> H 	 -131.127 	 31.8722 	 -17.5041
| 38> H 	 -130.448 	 30.3716 	 -16.9925
| 39> H 	 -134.744 	 29.6192 	 -21.3419
| 40> H 	 -137.598 	 32.0895 	 -13.7709
| 41> *
| 42>
| 43>                          ****END OF INPUT****

CARTESIAN COORDINATES (ANGSTROEM)
---------------------------------
  S    -135.178000   31.199500  -19.362500
  C    -135.085000   29.750900  -20.302800
  C    -135.495000   28.611900  -19.584100
  C    -135.759000   28.953100  -18.209600
  C    -135.558000   30.290600  -17.895400
  H    -135.986000   28.255400  -17.429000
  C    -135.615000   27.159500  -20.105300
  H    -136.342000   27.120000  -20.915800
  H    -136.067000   26.636600  -19.322600
  C    -134.294000   26.513900  -20.546900
  H    -133.814000   27.067100  -21.419000
  H    -133.573000   26.632800  -19.765800
  C    -134.494000   25.007500  -20.820400
  H    -134.622000   24.546900  -19.827200
  H    -135.374000   24.924200  -21.469500
  H    -133.583000   24.574700  -21.316500
  S    -137.447000   31.039900  -16.066200
  C    -136.933000   31.755000  -14.554000
  C    -135.524000   32.017700  -14.589800
  C    -134.873000   31.569200  -15.738600
  C    -135.744000   30.895800  -16.579600
  H    -135.062000   32.502000  -13.705400
  C    -133.446000   31.926800  -16.004800
  H    -133.152000   32.735900  -15.421100
  H    -133.411000   32.313700  -17.055300
  C    -132.382000   30.844300  -16.225800
  H    -132.826000   30.185100  -17.009100
  H    -132.295000   30.189300  -15.340500
  C    -131.026000   31.289300  -16.686000
  H    -130.546000   31.941200  -16.001800
  H    -131.127000   31.872200  -17.504100
  H    -130.448000   30.371600  -16.992500
  H    -134.744000   29.619200  -21.341900
  H    -137.598000   32.089500  -13.770900

 Total Charge           Charge          ....    0
 Multiplicity           Mult            ....    1
 Number of Electrons    NEL             ....  134
 Basis Dimension        Dim             ....  322

ORBITAL ENERGIES
----------------

  NO   OCC          E(Eh)            E(eV)
   0   2.0000     -88.970037     -2420.9978
   1   2.0000     -88.969097     -2420.9722
   2   2.0000     -10.328090      -281.0416
   3   2.0000     -10.325917      -280.9825
   4   2.0000     -10.321762      -280.8694
   5   2.0000     -10.316408      -280.7237
   6   2.0000     -10.304026      -280.3868
   7   2.0000     -10.302952      -280.3576
   8   2.0000     -10.297312      -280.2041
   9   2.0000     -10.293660      -280.1047
  10   2.0000     -10.291172      -280.0370
  11   2.0000     -10.289564      -279.9933
  12   2.0000     -10.286130      -279.8998
  13   2.0000     -10.286125      -279.8997
  14   2.0000     -10.282201      -279.7929
  15   2.0000     -10.267025      -279.3800
  16   2.0000      -8.084112      -219.9799
  17   2.0000      -8.082940      -219.9480
  18   2.0000      -6.042654      -164.4290
  19   2.0000      -6.041315      -164.3925
  20   2.0000      -6.038634      -164.3196
  21   2.0000      -6.037529      -164.2895
  22   2.0000      -6.034966      -164.2198
  23   2.0000      -6.033938      -164.1918
  24   2.0000      -1.002386       -27.2763
  25   2.0000      -0.980074       -26.6692
  26   2.0000      -0.912092       -24.8193
  27   2.0000      -0.909810       -24.7572
  28   2.0000      -0.863496       -23.4969
  29   2.0000      -0.859101       -23.3773
  30   2.0000      -0.847913       -23.0729
  31   2.0000      -0.805997       -21.9323
  32   2.0000      -0.786017       -21.3886
  33   2.0000      -0.769549       -20.9405
  34   2.0000      -0.706067       -19.2131
  35   2.0000      -0.700388       -19.0585
  36   2.0000      -0.687638       -18.7116
  37   2.0000      -0.664037       -18.0694
  38   2.0000      -0.639289       -17.3959
  39   2.0000      -0.614236       -16.7142
  40   2.0000      -0.596686       -16.2366
  41   2.0000      -0.566897       -15.4261
  42   2.0000      -0.566390       -15.4123
  43   2.0000      -0.559995       -15.2382
  44   2.0000      -0.529666       -14.4129
  45   2.0000      -0.524641       -14.2762
  46   2.0000      -0.513177       -13.9642
  47   2.0000      -0.509729       -13.8704
  48   2.0000      -0.503603       -13.7037
  49   2.0000      -0.500896       -13.6301
  50   2.0000      -0.492288       -13.3958
  51   2.0000      -0.480322       -13.0702
  52   2.0000      -0.468411       -12.7461
  53   2.0000      -0.467058       -12.7093
  54   2.0000      -0.459666       -12.5081
  55   2.0000      -0.444404       -12.0928
  56   2.0000      -0.443264       -12.0618
  57   2.0000      -0.439588       -11.9618
  58   2.0000      -0.435387       -11.8475
  59   2.0000      -0.424951       -11.5635
  60   2.0000      -0.422548       -11.4981
  61   2.0000      -0.421301       -11.4642
  62   2.0000      -0.407873       -11.0988
  63   2.0000      -0.335743        -9.1360
  64   2.0000      -0.332261        -9.0413
  65   2.0000      -0.322346        -8.7715
  66   2.0000      -0.298041        -8.1101
  67   0.0000       0.029339         0.7984
  68   0.0000       0.057858         1.5744
  69   0.0000       0.103391         2.8134
  70   0.0000       0.119491         3.2515
  71   0.0000       0.129569         3.5258

MULLIKEN ATOMIC CHARGES
-----------------------
   0 S :    0.130101
   1 C :   -0.129628
   2 C :   -0.109622
   3 C :    0.037152
   4 C :   -0.176292
   5 H :    0.009414
   6 C :    0.106384
   7 H :    0.031801
   8 H :   -0.002919
   9 C :   -0.097986
  10 H :    0.034296
  11 H :    0.023581
  12 C :   -0.057558
  13 H :    0.043011
  14 H :    0.037536
  15 H :    0.047559
  16 S :    0.125908
  17 C :   -0.102517
  18 C :   -0.084651
  19 C :    0.042230
  20 C :   -0.195959
  21 H :    0.032133
  22 C :    0.089037
  23 H :   -0.000076
  24 H :    0.015681
  25 C :   -0.108500
  26 H :    0.039627
  27 H :    0.024442
  28 C :    0.021861
  29 H :    0.019266
  30 H :   -0.007916
  31 H :    0.047637
  32 H :    0.054460
  33 H :    0.060508
Sum of atomic charges:    0.0000000

LOEWDIN ATOMIC CHARGES
----------------------
   0 S :    0.413632
   1 C :   -0.212036
   2 C :   -0.060863
   3 C :   -0.058698
   4 C :   -0.204741
   5 H :    0.029180
   6 C :   -0.026015
   7 H :    0.031658
   8 H :    0.021021
   9 C :   -0.044282
  10 H :    0.026126
  11 H :    0.018669
  12 C :   -0.066941
  13 H :    0.029697
  14 H :    0.025314
  15 H :    0.032810
  16 S :    0.411565
  17 C :   -0.190070
  18 C :   -0.073604
  19 C :   -0.051873
  20 C :   -0.194109
  21 H :    0.036570
  22 C :   -0.033296
  23 H :    0.018032
  24 H :    0.037646
  25 C :   -0.042807
  26 H :    0.030398
  27 H :    0.017596
  28 C :   -0.055451
  29 H :    0.021281
  30 H :    0.009102
  31 H :    0.042096
  32 H :    0.034388
  33 H :    0.028007

  Mayer bond orders larger than 0.100000
B(  0-S ,  1-C ) :   1.1520 B(  0-S ,  4-C ) :   1.1391 B(  1-C ,  2-C ) :   1.5987
B(  1-C , 32-H ) :   0.9637 B(  2-C ,  3-C ) :   1.2565 B(  2-C ,  6-C ) :   1.0163
B(  3-C ,  4-C ) :   1.5705 B(  3-C ,  5-H ) :   0.9944 B(  4-C , 20-C ) :   1.0368
B(  6-C ,  7-H ) :   0.9335 B(  6-C ,  8-H ) :   0.9394 B(  6-C ,  9-C ) :   1.0596
B(  9-C , 10-H ) :   0.9560 B(  9-C , 11-H ) :   0.9590 B(  9-C , 12-C ) :   1.0733
B( 12-C , 13-H ) :   0.9765 B( 12-C , 14-H ) :   0.9758 B( 12-C , 15-H ) :   0.9744
B( 16-S , 17-C ) :   1.1738 B( 16-S , 20-C ) :   1.1573 B( 17-C , 18-C ) :   1.5613
B( 17-C , 20-C ) :   0.1180 B( 17-C , 33-H ) :   0.9702 B( 18-C , 19-C ) :   1.2675
B( 18-C , 21-H ) :   0.9858 B( 19-C , 20-C ) :   1.5503 B( 19-C , 22-C ) :   1.0539
B( 22-C , 23-H ) :   0.9372 B( 22-C , 24-H ) :   0.9211 B( 22-C , 25-C ) :   1.0443
B( 25-C , 26-H ) :   0.9538 B( 25-C , 27-H ) :   0.9537 B( 25-C , 28-C ) :   1.0930
B( 28-C , 29-H ) :   0.9707 B( 28-C , 30-H ) :   0.9653 B( 28-C , 31-H ) :   0.9695

Dispersion correction           -0.014209270
FINAL SINGLE POINT ENERGY     -1339.871833973026

DIPOLE MOMENT
-------------
                                X             Y             Z
Electronic contribution:    -19.29322      16.18098       6.00209
Nuclear contribution   :     19.59956     -16.42842      -6.00254
                        -----------------------------------------
Total Dipole Moment    :      0.30635      -0.24744      -0.00045
                        -----------------------------------------
Magnitude (a.u.)       :      0.39380
Magnitude (Debye)      :      1.00096

Rotational constants in cm-1:     0.018588     0.008032     0.006693
Rotational constants in MHz :   557.251248   240.779203   200.656799

                             ****ORCA TERMINATED NORMALLY****
TOTAL RUN TIME: 0 days 0 hours 0 minutes 20 seconds 149 msec
