                         Program Version 4.2.1 -  RELEASE  -
|  1> ! wB97X-D3 SP def2-SVP
|  2> %pal
|  3> nprocs 24
|  4> end
|  5>
|  6> * xyz 0 1
|  7> S 	 -97.7258 	 -3.91297 	 -120.074
|  8> C 	 -99.0594 	 -4.9773 	 -119.829
|  9> C 	 -100.222 	 -4.50268 	 -120.439
| 10> C 	 -100.102 	 -3.1072 	 -120.887
| 11> C 	 -98.7345 	 -2.68151 	 -120.775
| 12> H 	 -100.797 	 -2.37201 	 -121.29
| 13> C 	 -101.548 	 -5.19954 	 -120.434
| 14> H 	 -101.406 	 -6.20059 	 -120.044
| 15> H 	 -101.759 	 -5.40631 	 -121.494
| 16> C 	 -102.732 	 -4.52858 	 -119.801
| 17> H 	 -103.012 	 -3.5678 	 -120.185
| 18> H 	 -103.655 	 -5.03087 	 -120.112
| 19> C 	 -102.648 	 -4.47186 	 -118.272
| 20> H 	 -101.746 	 -3.85548 	 -117.997
| 21> H 	 -103.557 	 -4.04373 	 -117.785
| 22> H 	 -102.37 	 -5.49088 	 -117.819
| 23> S 	 -97.2999 	 -0.607096 	 -119.78
| 24> C 	 -96.9895 	 0.819168 	 -120.651
| 25> C 	 -97.8164 	 0.826537 	 -121.81
| 26> C 	 -98.466 	 -0.47426 	 -122.065
| 27> C 	 -98.2204 	 -1.3801 	 -121.051
| 28> H 	 -97.7926 	 1.73361 	 -122.366
| 29> C 	 -99.4025 	 -0.783848 	 -123.331
| 30> H 	 -100.405 	 -0.930579 	 -122.94
| 31> H 	 -98.973 	 -1.66106 	 -123.682
| 32> C 	 -99.551 	 0.145672 	 -124.474
| 33> H 	 -98.5594 	 0.351992 	 -124.906
| 34> H 	 -99.9123 	 1.0631 	 -123.971
| 35> C 	 -100.513 	 -0.299195 	 -125.66
| 36> H 	 -100.345 	 0.353984 	 -126.558
| 37> H 	 -101.578 	 -0.0675985 	 -125.355
| 38> H 	 -100.378 	 -1.35135 	 -126.025
| 39> H 	 -98.9074 	 -5.95213 	 -119.361
| 40> H 	 -96.2889 	 1.69419 	 -120.405
| 41> *
| 42>
| 43>                          ****END OF INPUT****

CARTESIAN COORDINATES (ANGSTROEM)
---------------------------------
  S    -97.725800   -3.912970  -120.074000
  C    -99.059400   -4.977300  -119.829000
  C    -100.222000   -4.502680  -120.439000
  C    -100.102000   -3.107200  -120.887000
  C    -98.734500   -2.681510  -120.775000
  H    -100.797000   -2.372010  -121.290000
  C    -101.548000   -5.199540  -120.434000
  H    -101.406000   -6.200590  -120.044000
  H    -101.759000   -5.406310  -121.494000
  C    -102.732000   -4.528580  -119.801000
  H    -103.012000   -3.567800  -120.185000
  H    -103.655000   -5.030870  -120.112000
  C    -102.648000   -4.471860  -118.272000
  H    -101.746000   -3.855480  -117.997000
  H    -103.557000   -4.043730  -117.785000
  H    -102.370000   -5.490880  -117.819000
  S    -97.299900   -0.607096  -119.780000
  C    -96.989500    0.819168  -120.651000
  C    -97.816400    0.826537  -121.810000
  C    -98.466000   -0.474260  -122.065000
  C    -98.220400   -1.380100  -121.051000
  H    -97.792600    1.733610  -122.366000
  C    -99.402500   -0.783848  -123.331000
  H    -100.405000   -0.930579  -122.940000
  H    -98.973000   -1.661060  -123.682000
  C    -99.551000    0.145672  -124.474000
  H    -98.559400    0.351992  -124.906000
  H    -99.912300    1.063100  -123.971000
  C    -100.513000   -0.299195  -125.660000
  H    -100.345000    0.353984  -126.558000
  H    -101.578000   -0.067599  -125.355000
  H    -100.378000   -1.351350  -126.025000
  H    -98.907400   -5.952130  -119.361000
  H    -96.288900    1.694190  -120.405000

 Total Charge           Charge          ....    0
 Multiplicity           Mult            ....    1
 Number of Electrons    NEL             ....  134
 Basis Dimension        Dim             ....  322

ORBITAL ENERGIES
----------------

  NO   OCC          E(Eh)            E(eV)
   0   2.0000     -88.966834     -2420.9106
   1   2.0000     -88.963440     -2420.8183
   2   2.0000     -10.330083      -281.0958
   3   2.0000     -10.322930      -280.9012
   4   2.0000     -10.322887      -280.9000
   5   2.0000     -10.316291      -280.7205
   6   2.0000     -10.314639      -280.6756
   7   2.0000     -10.309182      -280.5271
   8   2.0000     -10.304432      -280.3978
   9   2.0000     -10.298151      -280.2269
  10   2.0000     -10.297094      -280.1982
  11   2.0000     -10.291101      -280.0351
  12   2.0000     -10.289845      -280.0009
  13   2.0000     -10.289186      -279.9830
  14   2.0000     -10.285781      -279.8903
  15   2.0000     -10.284679      -279.8603
  16   2.0000      -8.082141      -219.9263
  17   2.0000      -8.078960      -219.8397
  18   2.0000      -6.040511      -164.3707
  19   2.0000      -6.037435      -164.2870
  20   2.0000      -6.036459      -164.2604
  21   2.0000      -6.033204      -164.1718
  22   2.0000      -6.033123      -164.1696
  23   2.0000      -6.029821      -164.0798
  24   2.0000      -1.006848       -27.3977
  25   2.0000      -0.981301       -26.7026
  26   2.0000      -0.915438       -24.9103
  27   2.0000      -0.908074       -24.7100
  28   2.0000      -0.870948       -23.6997
  29   2.0000      -0.847213       -23.0538
  30   2.0000      -0.836954       -22.7747
  31   2.0000      -0.808172       -21.9915
  32   2.0000      -0.782906       -21.3040
  33   2.0000      -0.772616       -21.0240
  34   2.0000      -0.711122       -19.3506
  35   2.0000      -0.695857       -18.9352
  36   2.0000      -0.690986       -18.8027
  37   2.0000      -0.652723       -17.7615
  38   2.0000      -0.640036       -17.4163
  39   2.0000      -0.615433       -16.7468
  40   2.0000      -0.586571       -15.9614
  41   2.0000      -0.580067       -15.7844
  42   2.0000      -0.562385       -15.3033
  43   2.0000      -0.558445       -15.1961
  44   2.0000      -0.532809       -14.4985
  45   2.0000      -0.520617       -14.1667
  46   2.0000      -0.514367       -13.9966
  47   2.0000      -0.508339       -13.8326
  48   2.0000      -0.504661       -13.7325
  49   2.0000      -0.496615       -13.5136
  50   2.0000      -0.491132       -13.3644
  51   2.0000      -0.483505       -13.1568
  52   2.0000      -0.470717       -12.8089
  53   2.0000      -0.466924       -12.7057
  54   2.0000      -0.453899       -12.3512
  55   2.0000      -0.449990       -12.2449
  56   2.0000      -0.444935       -12.1073
  57   2.0000      -0.440721       -11.9926
  58   2.0000      -0.427323       -11.6280
  59   2.0000      -0.425605       -11.5813
  60   2.0000      -0.420743       -11.4490
  61   2.0000      -0.406860       -11.0712
  62   2.0000      -0.404763       -11.0142
  63   2.0000      -0.346077        -9.4172
  64   2.0000      -0.329503        -8.9662
  65   2.0000      -0.323865        -8.8128
  66   2.0000      -0.289993        -7.8911
  67   0.0000       0.023800         0.6476
  68   0.0000       0.077776         2.1164
  69   0.0000       0.111981         3.0472
  70   0.0000       0.117932         3.2091
  71   0.0000       0.133046         3.6204

MULLIKEN ATOMIC CHARGES
-----------------------
   0 S :    0.125220
   1 C :   -0.133433
   2 C :   -0.082506
   3 C :    0.026597
   4 C :   -0.187089
   5 H :    0.021025
   6 C :    0.077738
   7 H :    0.007492
   8 H :    0.034290
   9 C :   -0.031721
  10 H :    0.013055
  11 H :    0.016499
  12 C :   -0.093166
  13 H :    0.047463
  14 H :    0.049360
  15 H :    0.031955
  16 S :    0.119268
  17 C :   -0.125979
  18 C :   -0.068465
  19 C :   -0.033820
  20 C :   -0.146993
  21 H :    0.013319
  22 C :    0.097102
  23 H :    0.030150
  24 H :    0.020564
  25 C :   -0.098496
  26 H :    0.032063
  27 H :    0.031118
  28 C :   -0.084759
  29 H :    0.044123
  30 H :    0.044864
  31 H :    0.052212
  32 H :    0.060053
  33 H :    0.090900
Sum of atomic charges:   -0.0000000

LOEWDIN ATOMIC CHARGES
----------------------
   0 S :    0.426192
   1 C :   -0.211813
   2 C :   -0.058637
   3 C :   -0.054901
   4 C :   -0.202582
   5 H :    0.033167
   6 C :   -0.036978
   7 H :    0.028624
   8 H :    0.039267
   9 C :   -0.048341
  10 H :    0.021060
  11 H :    0.026901
  12 C :   -0.076366
  13 H :    0.032238
  14 H :    0.029923
  15 H :    0.028792
  16 S :    0.430963
  17 C :   -0.220728
  18 C :   -0.081678
  19 C :   -0.047337
  20 C :   -0.213775
  21 H :    0.023668
  22 C :   -0.027138
  23 H :    0.027679
  24 H :    0.023334
  25 C :   -0.048574
  26 H :    0.023432
  27 H :    0.026569
  28 C :   -0.073859
  29 H :    0.033548
  30 H :    0.031334
  31 H :    0.031897
  32 H :    0.031176
  33 H :    0.052942

  Mayer bond orders larger than 0.100000
B(  0-S ,  1-C ) :   1.1457 B(  0-S ,  4-C ) :   1.1715 B(  1-C ,  2-C ) :   1.5844
B(  1-C , 32-H ) :   0.9676 B(  2-C ,  3-C ) :   1.2166 B(  2-C ,  6-C ) :   1.0429
B(  3-C ,  4-C ) :   1.5445 B(  3-C ,  5-H ) :   0.9876 B(  4-C , 20-C ) :   1.0763
B(  6-C ,  7-H ) :   0.9383 B(  6-C ,  8-H ) :   0.9223 B(  6-C ,  9-C ) :   1.0832
B(  9-C , 10-H ) :   0.9466 B(  9-C , 11-H ) :   0.9458 B(  9-C , 12-C ) :   1.0680
B( 12-C , 13-H ) :   0.9751 B( 12-C , 14-H ) :   0.9738 B( 12-C , 15-H ) :   0.9739
B( 16-S , 17-C ) :   1.1772 B( 16-S , 20-C ) :   1.1464 B( 17-C , 18-C ) :   1.5810
B( 17-C , 20-C ) :   0.1008 B( 17-C , 33-H ) :   0.9570 B( 18-C , 19-C ) :   1.2352
B( 18-C , 21-H ) :   0.9961 B( 19-C , 20-C ) :   1.5908 B( 19-C , 22-C ) :   1.0035
B( 22-C , 23-H ) :   0.9380 B( 22-C , 24-H ) :   0.9307 B( 22-C , 25-C ) :   1.0874
B( 25-C , 26-H ) :   0.9565 B( 25-C , 27-H ) :   0.9513 B( 25-C , 28-C ) :   1.0692
B( 28-C , 29-H ) :   0.9757 B( 28-C , 30-H ) :   0.9755 B( 28-C , 31-H ) :   0.9761

Dispersion correction           -0.013827860
FINAL SINGLE POINT ENERGY     -1339.861773593026

DIPOLE MOMENT
-------------
                                X             Y             Z
Electronic contribution:     23.52812       0.95376      12.31026
Nuclear contribution   :    -24.04570      -0.87406     -12.70609
                        -----------------------------------------
Total Dipole Moment    :     -0.51758       0.07970      -0.39583
                        -----------------------------------------
Magnitude (a.u.)       :      0.65644
Magnitude (Debye)      :      1.66855

Rotational constants in cm-1:     0.016324     0.008718     0.006639
Rotational constants in MHz :   489.380109   261.369695   199.046488

                             ****ORCA TERMINATED NORMALLY****
TOTAL RUN TIME: 0 days 0 hours 0 minutes 20 seconds 968 msec
