                         Program Version 4.2.1 -  RELEASE  -
|  1> ! wB97X-D3 SP def2-SVP
|  2> %pal
|  3> nprocs 24
|  4> end
|  5>
|  6> * xyz 0 1
|  7> S 	 -50.3375 	 18.3133 	 28.4291
|  8> C 	 -51.1444 	 18.6297 	 26.8725
|  9> C 	 -51.2449 	 17.5229 	 26.0839
| 10> C 	 -50.5016 	 16.4136 	 26.6346
| 11> C 	 -49.8515 	 16.767 	 27.8349
| 12> H 	 -50.5296 	 15.4301 	 26.263
| 13> C 	 -52.1512 	 17.4775 	 24.8399
| 14> H 	 -52.6772 	 18.4308 	 24.8409
| 15> H 	 -52.8108 	 16.6302 	 25.1127
| 16> C 	 -51.244 	 17.2823 	 23.5799
| 17> H 	 -50.4556 	 18.1158 	 23.4811
| 18> H 	 -50.5297 	 16.4722 	 23.7311
| 19> C 	 -51.9844 	 17.3222 	 22.311
| 20> H 	 -52.5541 	 18.2369 	 22.2262
| 21> H 	 -51.3269 	 17.2474 	 21.4493
| 22> H 	 -52.7536 	 16.5964 	 22.1177
| 23> S 	 -49.5786 	 15.2472 	 30.1483
| 24> C 	 -48.2402 	 14.2056 	 30.3102
| 25> C 	 -47.5511 	 14.0025 	 29.1173
| 26> C 	 -47.9062 	 15.016 	 28.1895
| 27> C 	 -48.9669 	 15.8598 	 28.5681
| 28> H 	 -46.8127 	 13.2519 	 29.0598
| 29> C 	 -47.4064 	 14.9803 	 26.7207
| 30> H 	 -48.1882 	 15.13 	 25.9878
| 31> H 	 -47.1067 	 13.8986 	 26.6093
| 32> C 	 -46.3179 	 15.9719 	 26.3868
| 33> H 	 -46.631 	 16.9486 	 26.6401
| 34> H 	 -46.12 	 15.8153 	 25.3154
| 35> C 	 -45.0935 	 15.7532 	 27.0741
| 36> H 	 -44.2443 	 16.3701 	 26.7045
| 37> H 	 -44.6925 	 14.7459 	 27.0795
| 38> H 	 -45.1792 	 16.0741 	 28.1179
| 39> H 	 -51.5289 	 19.6489 	 26.6768
| 40> H 	 -48.1273 	 13.6171 	 31.1759
| 41> *
| 42>
| 43>                          ****END OF INPUT****

CARTESIAN COORDINATES (ANGSTROEM)
---------------------------------
  S    -50.337500   18.313300   28.429100
  C    -51.144400   18.629700   26.872500
  C    -51.244900   17.522900   26.083900
  C    -50.501600   16.413600   26.634600
  C    -49.851500   16.767000   27.834900
  H    -50.529600   15.430100   26.263000
  C    -52.151200   17.477500   24.839900
  H    -52.677200   18.430800   24.840900
  H    -52.810800   16.630200   25.112700
  C    -51.244000   17.282300   23.579900
  H    -50.455600   18.115800   23.481100
  H    -50.529700   16.472200   23.731100
  C    -51.984400   17.322200   22.311000
  H    -52.554100   18.236900   22.226200
  H    -51.326900   17.247400   21.449300
  H    -52.753600   16.596400   22.117700
  S    -49.578600   15.247200   30.148300
  C    -48.240200   14.205600   30.310200
  C    -47.551100   14.002500   29.117300
  C    -47.906200   15.016000   28.189500
  C    -48.966900   15.859800   28.568100
  H    -46.812700   13.251900   29.059800
  C    -47.406400   14.980300   26.720700
  H    -48.188200   15.130000   25.987800
  H    -47.106700   13.898600   26.609300
  C    -46.317900   15.971900   26.386800
  H    -46.631000   16.948600   26.640100
  H    -46.120000   15.815300   25.315400
  C    -45.093500   15.753200   27.074100
  H    -44.244300   16.370100   26.704500
  H    -44.692500   14.745900   27.079500
  H    -45.179200   16.074100   28.117900
  H    -51.528900   19.648900   26.676800
  H    -48.127300   13.617100   31.175900

 Total Charge           Charge          ....    0
 Multiplicity           Mult            ....    1
 Number of Electrons    NEL             ....  134
 Basis Dimension        Dim             ....  322

ORBITAL ENERGIES
----------------

  NO   OCC          E(Eh)            E(eV)
   0   2.0000     -88.966259     -2420.8950
   1   2.0000     -88.961720     -2420.7715
   2   2.0000     -10.332034      -281.1489
   3   2.0000     -10.327346      -281.0214
   4   2.0000     -10.314710      -280.6775
   5   2.0000     -10.312449      -280.6160
   6   2.0000     -10.305895      -280.4377
   7   2.0000     -10.301919      -280.3295
   8   2.0000     -10.301759      -280.3251
   9   2.0000     -10.295929      -280.1665
  10   2.0000     -10.294408      -280.1251
  11   2.0000     -10.292667      -280.0777
  12   2.0000     -10.288386      -279.9612
  13   2.0000     -10.272547      -279.5302
  14   2.0000     -10.269707      -279.4529
  15   2.0000     -10.263240      -279.2770
  16   2.0000      -8.081152      -219.8993
  17   2.0000      -8.076873      -219.7829
  18   2.0000      -6.039509      -164.3434
  19   2.0000      -6.035830      -164.2433
  20   2.0000      -6.035133      -164.2243
  21   2.0000      -6.031873      -164.1356
  22   2.0000      -6.031397      -164.1227
  23   2.0000      -6.027791      -164.0245
  24   2.0000      -1.003345       -27.3024
  25   2.0000      -0.982837       -26.7444
  26   2.0000      -0.918445       -24.9921
  27   2.0000      -0.913659       -24.8619
  28   2.0000      -0.870288       -23.6817
  29   2.0000      -0.854064       -23.2403
  30   2.0000      -0.847408       -23.0591
  31   2.0000      -0.811234       -22.0748
  32   2.0000      -0.784803       -21.3556
  33   2.0000      -0.771365       -20.9899
  34   2.0000      -0.709510       -19.3067
  35   2.0000      -0.698372       -19.0037
  36   2.0000      -0.683082       -18.5876
  37   2.0000      -0.662695       -18.0328
  38   2.0000      -0.642266       -17.4770
  39   2.0000      -0.619244       -16.8505
  40   2.0000      -0.596886       -16.2421
  41   2.0000      -0.567213       -15.4346
  42   2.0000      -0.560836       -15.2611
  43   2.0000      -0.556742       -15.1497
  44   2.0000      -0.545165       -14.8347
  45   2.0000      -0.533951       -14.5295
  46   2.0000      -0.523826       -14.2540
  47   2.0000      -0.509545       -13.8654
  48   2.0000      -0.508345       -13.8328
  49   2.0000      -0.497741       -13.5442
  50   2.0000      -0.488579       -13.2949
  51   2.0000      -0.481324       -13.0975
  52   2.0000      -0.471695       -12.8355
  53   2.0000      -0.466963       -12.7067
  54   2.0000      -0.460247       -12.5240
  55   2.0000      -0.453384       -12.3372
  56   2.0000      -0.444885       -12.1059
  57   2.0000      -0.437058       -11.8930
  58   2.0000      -0.429240       -11.6802
  59   2.0000      -0.422260       -11.4903
  60   2.0000      -0.418455       -11.3867
  61   2.0000      -0.406899       -11.0723
  62   2.0000      -0.400378       -10.8948
  63   2.0000      -0.336189        -9.1482
  64   2.0000      -0.331607        -9.0235
  65   2.0000      -0.328672        -8.9436
  66   2.0000      -0.292010        -7.9460
  67   0.0000       0.025731         0.7002
  68   0.0000       0.064215         1.7474
  69   0.0000       0.100731         2.7410
  70   0.0000       0.110766         3.0141
  71   0.0000       0.133799         3.6409

MULLIKEN ATOMIC CHARGES
-----------------------
   0 S :    0.114870
   1 C :   -0.155396
   2 C :   -0.100279
   3 C :    0.041636
   4 C :   -0.155770
   5 H :    0.009651
   6 C :    0.098798
   7 H :    0.023134
   8 H :    0.053100
   9 C :   -0.108429
  10 H :    0.034644
  11 H :    0.025314
  12 C :    0.004732
  13 H :    0.018187
  14 H :    0.028575
  15 H :    0.016695
  16 S :    0.093426
  17 C :   -0.076714
  18 C :   -0.020651
  19 C :   -0.048941
  20 C :   -0.140710
  21 H :    0.008788
  22 C :    0.034487
  23 H :    0.017284
  24 H :    0.021634
  25 C :    0.004992
  26 H :    0.025022
  27 H :    0.024357
  28 C :   -0.064896
  29 H :    0.026752
  30 H :    0.014022
  31 H :    0.029503
  32 H :    0.058713
  33 H :    0.043469
Sum of atomic charges:   -0.0000000

LOEWDIN ATOMIC CHARGES
----------------------
   0 S :    0.401699
   1 C :   -0.194058
   2 C :   -0.061644
   3 C :   -0.054688
   4 C :   -0.203460
   5 H :    0.023765
   6 C :   -0.020265
   7 H :    0.030406
   8 H :    0.041463
   9 C :   -0.050695
  10 H :    0.038213
  11 H :    0.022348
  12 C :   -0.070505
  13 H :    0.025937
  14 H :    0.027900
  15 H :    0.020232
  16 S :    0.404310
  17 C :   -0.181577
  18 C :   -0.069529
  19 C :   -0.052771
  20 C :   -0.193289
  21 H :    0.026526
  22 C :   -0.027522
  23 H :    0.023769
  24 H :    0.031800
  25 C :   -0.042673
  26 H :    0.026934
  27 H :    0.027960
  28 C :   -0.071458
  29 H :    0.028830
  30 H :    0.018088
  31 H :    0.026456
  32 H :    0.030115
  33 H :    0.017382

  Mayer bond orders larger than 0.100000
B(  0-S ,  1-C ) :   1.1233 B(  0-S ,  4-C ) :   1.1688 B(  1-C ,  2-C ) :   1.6339
B(  1-C , 32-H ) :   0.9654 B(  2-C ,  3-C ) :   1.2270 B(  2-C ,  6-C ) :   1.0049
B(  3-C ,  4-C ) :   1.5525 B(  3-C ,  5-H ) :   0.9970 B(  4-C , 20-C ) :   1.0295
B(  6-C ,  7-H ) :   0.9422 B(  6-C ,  8-H ) :   0.9399 B(  6-C ,  9-C ) :   1.0472
B(  9-C , 10-H ) :   0.9517 B(  9-C , 11-H ) :   0.9600 B(  9-C , 12-C ) :   1.0901
B( 12-C , 13-H ) :   0.9665 B( 12-C , 14-H ) :   0.9706 B( 12-C , 15-H ) :   0.9706
B( 16-S , 17-C ) :   1.1942 B( 16-S , 20-C ) :   1.1392 B( 17-C , 18-C ) :   1.5661
B( 17-C , 20-C ) :   0.1064 B( 17-C , 33-H ) :   0.9720 B( 18-C , 19-C ) :   1.2604
B( 18-C , 21-H ) :   1.0023 B( 19-C , 20-C ) :   1.5847 B( 19-C , 22-C ) :   1.0140
B( 22-C , 23-H ) :   0.9423 B( 22-C , 24-H ) :   0.9434 B( 22-C , 25-C ) :   1.0775
B( 25-C , 26-H ) :   0.9479 B( 25-C , 27-H ) :   0.9475 B( 25-C , 28-C ) :   1.1070
B( 28-C , 29-H ) :   0.9663 B( 28-C , 30-H ) :   0.9711 B( 28-C , 31-H ) :   0.9656

Dispersion correction           -0.014374734
FINAL SINGLE POINT ENERGY     -1339.856841682127

DIPOLE MOMENT
-------------
                                X             Y             Z
Electronic contribution:     -6.94802       1.66926      26.94062
Nuclear contribution   :      6.85963      -1.93758     -27.56634
                        -----------------------------------------
Total Dipole Moment    :     -0.08839      -0.26832      -0.62572
                        -----------------------------------------
Magnitude (a.u.)       :      0.68654
Magnitude (Debye)      :      1.74504

Rotational constants in cm-1:     0.018787     0.008432     0.006828
Rotational constants in MHz :   563.228468   252.773415   204.706545

                             ****ORCA TERMINATED NORMALLY****
TOTAL RUN TIME: 0 days 0 hours 0 minutes 21 seconds 912 msec
