                         Program Version 4.2.1 -  RELEASE  -
|  1> ! wB97X-D3 SP def2-SVP
|  2> %pal
|  3> nprocs 24
|  4> end
|  5>
|  6> * xyz 0 1
|  7> S 	 -138.707 	 6.7153 	 7.9479
|  8> C 	 -137.299 	 5.87665 	 7.14522
|  9> C 	 -136.156 	 6.01589 	 7.88085
| 10> C 	 -136.388 	 6.76348 	 9.12357
| 11> C 	 -137.608 	 7.31531 	 9.18902
| 12> H 	 -135.705 	 6.91639 	 9.95264
| 13> C 	 -134.937 	 5.15255 	 7.70355
| 14> H 	 -135.318 	 4.15319 	 7.61295
| 15> H 	 -134.283 	 5.1015 	 8.61766
| 16> C 	 -134.109 	 5.27705 	 6.41809
| 17> H 	 -134.665 	 5.07971 	 5.48728
| 18> H 	 -134.005 	 6.3508 	 6.44412
| 19> C 	 -132.759 	 4.65573 	 6.50404
| 20> H 	 -132.781 	 3.55568 	 6.36804
| 21> H 	 -132.131 	 5.14381 	 5.82551
| 22> H 	 -132.287 	 4.85574 	 7.39783
| 23> S 	 -139.009 	 7.93806 	 11.4551
| 24> C 	 -138.97 	 9.62316 	 11.9805
| 25> C 	 -138.104 	 10.3859 	 11.2774
| 26> C 	 -137.479 	 9.66469 	 10.205
| 27> C 	 -137.996 	 8.37774 	 10.0869
| 28> H 	 -137.893 	 11.3564 	 11.5975
| 29> C 	 -136.542 	 10.2919 	 9.20504
| 30> H 	 -136.685 	 9.83409 	 8.17893
| 31> H 	 -135.56 	 10.0175 	 9.45895
| 32> C 	 -136.624 	 11.8323 	 8.95383
| 33> H 	 -135.863 	 12.2496 	 8.231
| 34> H 	 -136.594 	 12.4101 	 9.85646
| 35> C 	 -137.988 	 12.0999 	 8.24223
| 36> H 	 -137.812 	 12.0314 	 7.08702
| 37> H 	 -138.536 	 13.0351 	 8.3958
| 38> H 	 -138.671 	 11.2819 	 8.52284
| 39> H 	 -137.323 	 5.07747 	 6.44694
| 40> H 	 -139.365 	 10.054 	 12.917
| 41> *
| 42>
| 43>                          ****END OF INPUT****

CARTESIAN COORDINATES (ANGSTROEM)
---------------------------------
  S    -138.707000    6.715300    7.947900
  C    -137.299000    5.876650    7.145220
  C    -136.156000    6.015890    7.880850
  C    -136.388000    6.763480    9.123570
  C    -137.608000    7.315310    9.189020
  H    -135.705000    6.916390    9.952640
  C    -134.937000    5.152550    7.703550
  H    -135.318000    4.153190    7.612950
  H    -134.283000    5.101500    8.617660
  C    -134.109000    5.277050    6.418090
  H    -134.665000    5.079710    5.487280
  H    -134.005000    6.350800    6.444120
  C    -132.759000    4.655730    6.504040
  H    -132.781000    3.555680    6.368040
  H    -132.131000    5.143810    5.825510
  H    -132.287000    4.855740    7.397830
  S    -139.009000    7.938060   11.455100
  C    -138.970000    9.623160   11.980500
  C    -138.104000   10.385900   11.277400
  C    -137.479000    9.664690   10.205000
  C    -137.996000    8.377740   10.086900
  H    -137.893000   11.356400   11.597500
  C    -136.542000   10.291900    9.205040
  H    -136.685000    9.834090    8.178930
  H    -135.560000   10.017500    9.458950
  C    -136.624000   11.832300    8.953830
  H    -135.863000   12.249600    8.231000
  H    -136.594000   12.410100    9.856460
  C    -137.988000   12.099900    8.242230
  H    -137.812000   12.031400    7.087020
  H    -138.536000   13.035100    8.395800
  H    -138.671000   11.281900    8.522840
  H    -137.323000    5.077470    6.446940
  H    -139.365000   10.054000   12.917000

 Total Charge           Charge          ....    0
 Multiplicity           Mult            ....    1
 Number of Electrons    NEL             ....  134
 Basis Dimension        Dim             ....  322

ORBITAL ENERGIES
----------------

  NO   OCC          E(Eh)            E(eV)
   0   2.0000     -88.967355     -2420.9248
   1   2.0000     -88.964746     -2420.8538
   2   2.0000     -10.324169      -280.9349
   3   2.0000     -10.323782      -280.9244
   4   2.0000     -10.317160      -280.7442
   5   2.0000     -10.314769      -280.6791
   6   2.0000     -10.307820      -280.4900
   7   2.0000     -10.303949      -280.3847
   8   2.0000     -10.293953      -280.1127
   9   2.0000     -10.292749      -280.0799
  10   2.0000     -10.292595      -280.0757
  11   2.0000     -10.291064      -280.0341
  12   2.0000     -10.288975      -279.9772
  13   2.0000     -10.282984      -279.8142
  14   2.0000     -10.280051      -279.7344
  15   2.0000     -10.269652      -279.4515
  16   2.0000      -8.081783      -219.9165
  17   2.0000      -8.078332      -219.8226
  18   2.0000      -6.040305      -164.3651
  19   2.0000      -6.037141      -164.2790
  20   2.0000      -6.036500      -164.2615
  21   2.0000      -6.033166      -164.1708
  22   2.0000      -6.032380      -164.1494
  23   2.0000      -6.028658      -164.0481
  24   2.0000      -1.006362       -27.3845
  25   2.0000      -0.980974       -26.6937
  26   2.0000      -0.918757       -25.0006
  27   2.0000      -0.904891       -24.6233
  28   2.0000      -0.876756       -23.8577
  29   2.0000      -0.847353       -23.0577
  30   2.0000      -0.843419       -22.9506
  31   2.0000      -0.820008       -22.3136
  32   2.0000      -0.784584       -21.3496
  33   2.0000      -0.767896       -20.8955
  34   2.0000      -0.707984       -19.2652
  35   2.0000      -0.704210       -19.1625
  36   2.0000      -0.693531       -18.8719
  37   2.0000      -0.656752       -17.8711
  38   2.0000      -0.642433       -17.4815
  39   2.0000      -0.615253       -16.7419
  40   2.0000      -0.596480       -16.2310
  41   2.0000      -0.573969       -15.6185
  42   2.0000      -0.567958       -15.4549
  43   2.0000      -0.556838       -15.1523
  44   2.0000      -0.539427       -14.6786
  45   2.0000      -0.525017       -14.2865
  46   2.0000      -0.520622       -14.1668
  47   2.0000      -0.513552       -13.9745
  48   2.0000      -0.501738       -13.6530
  49   2.0000      -0.498650       -13.5690
  50   2.0000      -0.483256       -13.1501
  51   2.0000      -0.478753       -13.0275
  52   2.0000      -0.467278       -12.7153
  53   2.0000      -0.458483       -12.4760
  54   2.0000      -0.456738       -12.4285
  55   2.0000      -0.455620       -12.3981
  56   2.0000      -0.445465       -12.1217
  57   2.0000      -0.434699       -11.8288
  58   2.0000      -0.431713       -11.7475
  59   2.0000      -0.424159       -11.5419
  60   2.0000      -0.421908       -11.4807
  61   2.0000      -0.417176       -11.3519
  62   2.0000      -0.405182       -11.0256
  63   2.0000      -0.338976        -9.2240
  64   2.0000      -0.328656        -8.9432
  65   2.0000      -0.324363        -8.8264
  66   2.0000      -0.308061        -8.3828
  67   0.0000       0.033535         0.9125
  68   0.0000       0.059343         1.6148
  69   0.0000       0.099669         2.7121
  70   0.0000       0.113373         3.0850
  71   0.0000       0.131426         3.5763

MULLIKEN ATOMIC CHARGES
-----------------------
   0 S :    0.097625
   1 C :   -0.085155
   2 C :   -0.070728
   3 C :    0.038710
   4 C :   -0.166448
   5 H :    0.018545
   6 C :    0.010761
   7 H :    0.024152
   8 H :    0.031737
   9 C :   -0.091892
  10 H :    0.035589
  11 H :    0.017128
  12 C :    0.025893
  13 H :    0.038228
  14 H :    0.017965
  15 H :   -0.000828
  16 S :    0.110775
  17 C :   -0.070614
  18 C :   -0.027978
  19 C :   -0.013783
  20 C :   -0.181658
  21 H :   -0.005160
  22 C :    0.061970
  23 H :    0.049805
  24 H :    0.020374
  25 C :   -0.064171
  26 H :    0.046970
  27 H :    0.028409
  28 C :   -0.120231
  29 H :    0.041650
  30 H :    0.038903
  31 H :    0.048977
  32 H :    0.037083
  33 H :    0.057398
Sum of atomic charges:    0.0000000

LOEWDIN ATOMIC CHARGES
----------------------
   0 S :    0.365467
   1 C :   -0.170448
   2 C :   -0.057428
   3 C :   -0.056315
   4 C :   -0.192718
   5 H :    0.034372
   6 C :   -0.040840
   7 H :    0.028408
   8 H :    0.035333
   9 C :   -0.044889
  10 H :    0.026579
  11 H :    0.022165
  12 C :   -0.054512
  13 H :    0.030670
  14 H :    0.025018
  15 H :    0.016468
  16 S :    0.397034
  17 C :   -0.178301
  18 C :   -0.066759
  19 C :   -0.045408
  20 C :   -0.201050
  21 H :    0.023253
  22 C :   -0.033770
  23 H :    0.045263
  24 H :    0.024281
  25 C :   -0.043090
  26 H :    0.035805
  27 H :    0.014983
  28 C :   -0.082004
  29 H :    0.033989
  30 H :    0.022369
  31 H :    0.027071
  32 H :    0.022635
  33 H :    0.036367

  Mayer bond orders larger than 0.100000
B(  0-S ,  1-C ) :   1.0993 B(  0-S ,  4-C ) :   1.1190 B(  1-C ,  2-C ) :   1.6744
B(  1-C , 32-H ) :   0.9664 B(  2-C ,  3-C ) :   1.1762 B(  2-C ,  6-C ) :   1.0193
B(  3-C ,  4-C ) :   1.6468 B(  3-C ,  5-H ) :   0.9961 B(  4-C , 20-C ) :   1.0073
B(  6-C ,  7-H ) :   0.9374 B(  6-C ,  8-H ) :   0.9529 B(  6-C ,  9-C ) :   1.0429
B(  9-C , 10-H ) :   0.9536 B(  9-C , 11-H ) :   0.9587 B(  9-C , 12-C ) :   1.0986
B( 12-C , 13-H ) :   0.9729 B( 12-C , 14-H ) :   0.9672 B( 12-C , 15-H ) :   0.9641
B( 16-S , 17-C ) :   1.1368 B( 16-S , 20-C ) :   1.1443 B( 17-C , 18-C ) :   1.6536
B( 17-C , 33-H ) :   0.9553 B( 18-C , 19-C ) :   1.2162 B( 18-C , 21-H ) :   0.9973
B( 19-C , 20-C ) :   1.6116 B( 19-C , 22-C ) :   1.0319 B( 22-C , 23-H ) :   0.9433
B( 22-C , 24-H ) :   0.9190 B( 22-C , 25-C ) :   1.0724 B( 25-C , 26-H ) :   0.9623
B( 25-C , 27-H ) :   0.9565 B( 25-C , 28-C ) :   1.0481 B( 28-C , 29-H ) :   0.9774
B( 28-C , 30-H ) :   0.9778 B( 28-C , 31-H ) :   0.9806

Dispersion correction           -0.014279390
FINAL SINGLE POINT ENERGY     -1339.846819099034

DIPOLE MOMENT
-------------
                                X             Y             Z
Electronic contribution:    -21.15011      -5.69289      13.30594
Nuclear contribution   :     21.90885       5.78581     -13.21992
                        -----------------------------------------
Total Dipole Moment    :      0.75874       0.09293       0.08602
                        -----------------------------------------
Magnitude (a.u.)       :      0.76923
Magnitude (Debye)      :      1.95523

Rotational constants in cm-1:     0.020202     0.007568     0.006551
Rotational constants in MHz :   605.652310   226.890019   196.395382

                             ****ORCA TERMINATED NORMALLY****
TOTAL RUN TIME: 0 days 0 hours 0 minutes 21 seconds 480 msec
