                         Program Version 4.2.1 -  RELEASE  -
|  1> ! wB97X-D3 SP def2-SVP
|  2> %pal
|  3> nprocs 24
|  4> end
|  5>
|  6> * xyz 0 1
|  7> S 	 -116.379 	 43.4433 	 -111.72
|  8> C 	 -117.908 	 42.923 	 -112.395
|  9> C 	 -117.694 	 42.0707 	 -113.516
| 10> C 	 -116.319 	 41.8982 	 -113.824
| 11> C 	 -115.482 	 42.6482 	 -112.985
| 12> H 	 -115.833 	 41.2999 	 -114.613
| 13> C 	 -118.757 	 41.2427 	 -114.314
| 14> H 	 -118.552 	 41.379 	 -115.305
| 15> H 	 -119.698 	 41.7468 	 -114.177
| 16> C 	 -118.792 	 39.7306 	 -113.884
| 17> H 	 -117.775 	 39.4074 	 -113.957
| 18> H 	 -119.053 	 39.6712 	 -112.834
| 19> C 	 -119.868 	 38.9526 	 -114.671
| 20> H 	 -119.983 	 37.9641 	 -114.285
| 21> H 	 -120.869 	 39.4069 	 -114.587
| 22> H 	 -119.547 	 38.826 	 -115.754
| 23> S 	 -113.389 	 43.9833 	 -114.145
| 24> C 	 -111.816 	 43.2516 	 -113.931
| 25> C 	 -111.781 	 42.2483 	 -112.983
| 26> C 	 -113.083 	 41.9012 	 -112.523
| 27> C 	 -114.024 	 42.657 	 -113.116
| 28> H 	 -110.884 	 41.7684 	 -112.762
| 29> C 	 -113.414 	 40.6587 	 -111.752
| 30> H 	 -114.408 	 40.6377 	 -111.265
| 31> H 	 -112.805 	 40.729 	 -110.869
| 32> C 	 -113.13 	 39.3252 	 -112.514
| 33> H 	 -113.428 	 38.5148 	 -111.777
| 34> H 	 -112.089 	 39.2387 	 -112.857
| 35> C 	 -113.982 	 39.104 	 -113.819
| 36> H 	 -113.816 	 38.0915 	 -114.252
| 37> H 	 -113.678 	 39.803 	 -114.549
| 38> H 	 -115.05 	 39.2286 	 -113.551
| 39> H 	 -118.827 	 43.0506 	 -111.899
| 40> H 	 -110.904 	 43.4706 	 -114.493
| 41> *
| 42>
| 43>                          ****END OF INPUT****

CARTESIAN COORDINATES (ANGSTROEM)
---------------------------------
  S    -116.379000   43.443300  -111.720000
  C    -117.908000   42.923000  -112.395000
  C    -117.694000   42.070700  -113.516000
  C    -116.319000   41.898200  -113.824000
  C    -115.482000   42.648200  -112.985000
  H    -115.833000   41.299900  -114.613000
  C    -118.757000   41.242700  -114.314000
  H    -118.552000   41.379000  -115.305000
  H    -119.698000   41.746800  -114.177000
  C    -118.792000   39.730600  -113.884000
  H    -117.775000   39.407400  -113.957000
  H    -119.053000   39.671200  -112.834000
  C    -119.868000   38.952600  -114.671000
  H    -119.983000   37.964100  -114.285000
  H    -120.869000   39.406900  -114.587000
  H    -119.547000   38.826000  -115.754000
  S    -113.389000   43.983300  -114.145000
  C    -111.816000   43.251600  -113.931000
  C    -111.781000   42.248300  -112.983000
  C    -113.083000   41.901200  -112.523000
  C    -114.024000   42.657000  -113.116000
  H    -110.884000   41.768400  -112.762000
  C    -113.414000   40.658700  -111.752000
  H    -114.408000   40.637700  -111.265000
  H    -112.805000   40.729000  -110.869000
  C    -113.130000   39.325200  -112.514000
  H    -113.428000   38.514800  -111.777000
  H    -112.089000   39.238700  -112.857000
  C    -113.982000   39.104000  -113.819000
  H    -113.816000   38.091500  -114.252000
  H    -113.678000   39.803000  -114.549000
  H    -115.050000   39.228600  -113.551000
  H    -118.827000   43.050600  -111.899000
  H    -110.904000   43.470600  -114.493000

 Total Charge           Charge          ....    0
 Multiplicity           Mult            ....    1
 Number of Electrons    NEL             ....  134
 Basis Dimension        Dim             ....  322

ORBITAL ENERGIES
----------------

  NO   OCC          E(Eh)            E(eV)
   0   2.0000     -88.968283     -2420.9501
   1   2.0000     -88.964229     -2420.8398
   2   2.0000     -10.324162      -280.9347
   3   2.0000     -10.319544      -280.8091
   4   2.0000     -10.317315      -280.7484
   5   2.0000     -10.314406      -280.6693
   6   2.0000     -10.305235      -280.4197
   7   2.0000     -10.298190      -280.2280
   8   2.0000     -10.297309      -280.2040
   9   2.0000     -10.293032      -280.0876
  10   2.0000     -10.292336      -280.0687
  11   2.0000     -10.288967      -279.9770
  12   2.0000     -10.288237      -279.9572
  13   2.0000     -10.285761      -279.8898
  14   2.0000     -10.283997      -279.8418
  15   2.0000     -10.278882      -279.7026
  16   2.0000      -8.082577      -219.9381
  17   2.0000      -8.078625      -219.8306
  18   2.0000      -6.040962      -164.3829
  19   2.0000      -6.037094      -164.2777
  20   2.0000      -6.037023      -164.2757
  21   2.0000      -6.033633      -164.1835
  22   2.0000      -6.033426      -164.1779
  23   2.0000      -6.029201      -164.0629
  24   2.0000      -1.003803       -27.3149
  25   2.0000      -0.980130       -26.6707
  26   2.0000      -0.903999       -24.5991
  27   2.0000      -0.903607       -24.5884
  28   2.0000      -0.864013       -23.5110
  29   2.0000      -0.847603       -23.0644
  30   2.0000      -0.845798       -23.0153
  31   2.0000      -0.809974       -22.0405
  32   2.0000      -0.784168       -21.3383
  33   2.0000      -0.771234       -20.9864
  34   2.0000      -0.706394       -19.2220
  35   2.0000      -0.699511       -19.0347
  36   2.0000      -0.689984       -18.7754
  37   2.0000      -0.662588       -18.0299
  38   2.0000      -0.643490       -17.5102
  39   2.0000      -0.612580       -16.6692
  40   2.0000      -0.597608       -16.2617
  41   2.0000      -0.565255       -15.3814
  42   2.0000      -0.558541       -15.1987
  43   2.0000      -0.548633       -14.9291
  44   2.0000      -0.541694       -14.7403
  45   2.0000      -0.521588       -14.1931
  46   2.0000      -0.517212       -14.0741
  47   2.0000      -0.509297       -13.8587
  48   2.0000      -0.500632       -13.6229
  49   2.0000      -0.490989       -13.3605
  50   2.0000      -0.484325       -13.1792
  51   2.0000      -0.477145       -12.9838
  52   2.0000      -0.471923       -12.8417
  53   2.0000      -0.466527       -12.6948
  54   2.0000      -0.459023       -12.4907
  55   2.0000      -0.449844       -12.2409
  56   2.0000      -0.444427       -12.0935
  57   2.0000      -0.436996       -11.8913
  58   2.0000      -0.435838       -11.8597
  59   2.0000      -0.428383       -11.6569
  60   2.0000      -0.426423       -11.6036
  61   2.0000      -0.416015       -11.3204
  62   2.0000      -0.407400       -11.0859
  63   2.0000      -0.337650        -9.1879
  64   2.0000      -0.328986        -8.9522
  65   2.0000      -0.315769        -8.5925
  66   2.0000      -0.309176        -8.4131
  67   0.0000       0.043539         1.1848
  68   0.0000       0.054793         1.4910
  69   0.0000       0.110315         3.0018
  70   0.0000       0.117822         3.2061
  71   0.0000       0.131412         3.5759

MULLIKEN ATOMIC CHARGES
-----------------------
   0 S :    0.127714
   1 C :   -0.112897
   2 C :   -0.101084
   3 C :    0.025230
   4 C :   -0.180831
   5 H :    0.026408
   6 C :    0.109500
   7 H :    0.005110
   8 H :    0.005510
   9 C :   -0.061808
  10 H :    0.027414
  11 H :    0.025883
  12 C :   -0.048626
  13 H :    0.028169
  14 H :    0.038990
  15 H :    0.041267
  16 S :    0.113985
  17 C :   -0.084306
  18 C :   -0.029888
  19 C :    0.008675
  20 C :   -0.219044
  21 H :   -0.007712
  22 C :    0.087001
  23 H :    0.032418
  24 H :    0.018070
  25 C :   -0.097723
  26 H :    0.044660
  27 H :    0.036521
  28 C :   -0.077333
  29 H :    0.041237
  30 H :    0.040921
  31 H :    0.044888
  32 H :    0.035242
  33 H :    0.056439
Sum of atomic charges:   -0.0000000

LOEWDIN ATOMIC CHARGES
----------------------
   0 S :    0.417829
   1 C :   -0.201238
   2 C :   -0.055405
   3 C :   -0.065785
   4 C :   -0.208003
   5 H :    0.037548
   6 C :   -0.018736
   7 H :    0.015829
   8 H :    0.023729
   9 C :   -0.032586
  10 H :    0.020089
  11 H :    0.024832
  12 C :   -0.068490
  13 H :    0.021406
  14 H :    0.029680
  15 H :    0.032416
  16 S :    0.383846
  17 C :   -0.178007
  18 C :   -0.063987
  19 C :   -0.056081
  20 C :   -0.185136
  21 H :    0.020633
  22 C :   -0.035121
  23 H :    0.036150
  24 H :    0.031430
  25 C :   -0.036367
  26 H :    0.032076
  27 H :    0.022990
  28 C :   -0.068606
  29 H :    0.030787
  30 H :    0.017708
  31 H :    0.025258
  32 H :    0.017923
  33 H :    0.031387

  Mayer bond orders larger than 0.100000
B(  0-S ,  1-C ) :   1.1514 B(  0-S ,  4-C ) :   1.1694 B(  1-C ,  2-C ) :   1.5749
B(  1-C ,  4-C ) :   0.1077 B(  1-C , 32-H ) :   0.9769 B(  2-C ,  3-C ) :   1.2610
B(  2-C ,  6-C ) :   1.0203 B(  3-C ,  4-C ) :   1.5598 B(  3-C ,  5-H ) :   0.9830
B(  4-C , 20-C ) :   1.0128 B(  6-C ,  7-H ) :   0.9401 B(  6-C ,  8-H ) :   0.9400
B(  6-C ,  9-C ) :   1.0525 B(  9-C , 10-H ) :   0.9600 B(  9-C , 11-H ) :   0.9563
B(  9-C , 12-C ) :   1.0799 B( 12-C , 13-H ) :   0.9748 B( 12-C , 14-H ) :   0.9739
B( 12-C , 15-H ) :   0.9752 B( 16-S , 17-C ) :   1.1418 B( 16-S , 20-C ) :   1.1214
B( 17-C , 18-C ) :   1.6530 B( 17-C , 33-H ) :   0.9623 B( 18-C , 19-C ) :   1.1826
B( 18-C , 21-H ) :   1.0009 B( 19-C , 20-C ) :   1.6618 B( 19-C , 22-C ) :   1.0538
B( 22-C , 23-H ) :   0.9300 B( 22-C , 24-H ) :   0.9191 B( 22-C , 25-C ) :   1.0665
B( 25-C , 26-H ) :   0.9566 B( 25-C , 27-H ) :   0.9593 B( 25-C , 28-C ) :   1.0688
B( 28-C , 29-H ) :   0.9722 B( 28-C , 30-H ) :   0.9731 B( 28-C , 31-H ) :   0.9729

Dispersion correction           -0.015983208
FINAL SINGLE POINT ENERGY     -1339.876294324170

DIPOLE MOMENT
-------------
                                X             Y             Z
Electronic contribution:     10.57607      26.82738       5.36022
Nuclear contribution   :    -10.59364     -27.55417      -5.40083
                        -----------------------------------------
Total Dipole Moment    :     -0.01757      -0.72679      -0.04061
                        -----------------------------------------
Magnitude (a.u.)       :      0.72814
Magnitude (Debye)      :      1.85078

Rotational constants in cm-1:     0.019709     0.008948     0.007371
Rotational constants in MHz :   590.870502   268.266855   220.984856

                             ****ORCA TERMINATED NORMALLY****
TOTAL RUN TIME: 0 days 0 hours 0 minutes 22 seconds 472 msec
