                         Program Version 4.2.1 -  RELEASE  -
|  1> ! wB97X-D3 SP def2-SVP
|  2> %pal
|  3> nprocs 24
|  4> end
|  5>
|  6> * xyz 0 1
|  7> S 	 -112.189 	 57.184 	 -80.6389
|  8> C 	 -112.224 	 57.0947 	 -82.3758
|  9> C 	 -111.754 	 58.241 	 -82.9349
| 10> C 	 -111.146 	 59.158 	 -81.9645
| 11> C 	 -111.358 	 58.7245 	 -80.6886
| 12> H 	 -110.61 	 60.1033 	 -82.2346
| 13> C 	 -111.71 	 58.4368 	 -84.4173
| 14> H 	 -111.592 	 57.4413 	 -84.9158
| 15> H 	 -110.801 	 58.9388 	 -84.7554
| 16> C 	 -112.959 	 59.0183 	 -85.049
| 17> H 	 -112.772 	 58.9435 	 -86.1031
| 18> H 	 -113.798 	 58.4583 	 -84.6918
| 19> C 	 -113.132 	 60.5686 	 -84.7906
| 20> H 	 -114.051 	 60.8782 	 -85.2033
| 21> H 	 -113.124 	 60.9683 	 -83.7839
| 22> H 	 -112.311 	 61.098 	 -85.254
| 23> S 	 -110.492 	 58.3514 	 -78.0902
| 24> C 	 -109.82 	 59.749 	 -77.1609
| 25> C 	 -109.791 	 60.8373 	 -77.9505
| 26> C 	 -110.347 	 60.6175 	 -79.2685
| 27> C 	 -110.772 	 59.3153 	 -79.5049
| 28> H 	 -109.469 	 61.797 	 -77.5873
| 29> C 	 -110.572 	 61.8428 	 -80.1342
| 30> H 	 -109.82 	 61.6883 	 -80.9875
| 31> H 	 -110.089 	 62.6334 	 -79.5183
| 32> C 	 -111.958 	 62.2942 	 -80.4665
| 33> H 	 -112.451 	 62.6433 	 -79.5524
| 34> H 	 -112.626 	 61.4789 	 -80.8304
| 35> C 	 -111.942 	 63.4169 	 -81.4425
| 36> H 	 -111.492 	 64.3173 	 -80.9714
| 37> H 	 -112.873 	 63.6493 	 -82.0365
| 38> H 	 -111.273 	 63.155 	 -82.3432
| 39> H 	 -112.465 	 56.1271 	 -82.7473
| 40> H 	 -109.459 	 59.7639 	 -76.1606
| 41> *
| 42>
| 43>                          ****END OF INPUT****

CARTESIAN COORDINATES (ANGSTROEM)
---------------------------------
  S    -112.189000   57.184000  -80.638900
  C    -112.224000   57.094700  -82.375800
  C    -111.754000   58.241000  -82.934900
  C    -111.146000   59.158000  -81.964500
  C    -111.358000   58.724500  -80.688600
  H    -110.610000   60.103300  -82.234600
  C    -111.710000   58.436800  -84.417300
  H    -111.592000   57.441300  -84.915800
  H    -110.801000   58.938800  -84.755400
  C    -112.959000   59.018300  -85.049000
  H    -112.772000   58.943500  -86.103100
  H    -113.798000   58.458300  -84.691800
  C    -113.132000   60.568600  -84.790600
  H    -114.051000   60.878200  -85.203300
  H    -113.124000   60.968300  -83.783900
  H    -112.311000   61.098000  -85.254000
  S    -110.492000   58.351400  -78.090200
  C    -109.820000   59.749000  -77.160900
  C    -109.791000   60.837300  -77.950500
  C    -110.347000   60.617500  -79.268500
  C    -110.772000   59.315300  -79.504900
  H    -109.469000   61.797000  -77.587300
  C    -110.572000   61.842800  -80.134200
  H    -109.820000   61.688300  -80.987500
  H    -110.089000   62.633400  -79.518300
  C    -111.958000   62.294200  -80.466500
  H    -112.451000   62.643300  -79.552400
  H    -112.626000   61.478900  -80.830400
  C    -111.942000   63.416900  -81.442500
  H    -111.492000   64.317300  -80.971400
  H    -112.873000   63.649300  -82.036500
  H    -111.273000   63.155000  -82.343200
  H    -112.465000   56.127100  -82.747300
  H    -109.459000   59.763900  -76.160600

 Total Charge           Charge          ....    0
 Multiplicity           Mult            ....    1
 Number of Electrons    NEL             ....  134
 Basis Dimension        Dim             ....  322

ORBITAL ENERGIES
----------------

  NO   OCC          E(Eh)            E(eV)
   0   2.0000     -88.963873     -2420.8301
   1   2.0000     -88.962264     -2420.7863
   2   2.0000     -10.330109      -281.0965
   3   2.0000     -10.326482      -280.9979
   4   2.0000     -10.316743      -280.7328
   5   2.0000     -10.311977      -280.6031
   6   2.0000     -10.303483      -280.3720
   7   2.0000     -10.300689      -280.2960
   8   2.0000     -10.300595      -280.2934
   9   2.0000     -10.297829      -280.2182
  10   2.0000     -10.291930      -280.0577
  11   2.0000     -10.289651      -279.9956
  12   2.0000     -10.287047      -279.9248
  13   2.0000     -10.286440      -279.9083
  14   2.0000     -10.285994      -279.8961
  15   2.0000     -10.272460      -279.5278
  16   2.0000      -8.078099      -219.8163
  17   2.0000      -8.077918      -219.8113
  18   2.0000      -6.036907      -164.2726
  19   2.0000      -6.036478      -164.2609
  20   2.0000      -6.032647      -164.1567
  21   2.0000      -6.032367      -164.1491
  22   2.0000      -6.028590      -164.0463
  23   2.0000      -6.028508      -164.0440
  24   2.0000      -1.009430       -27.4680
  25   2.0000      -0.984715       -26.7955
  26   2.0000      -0.915614       -24.9151
  27   2.0000      -0.913010       -24.8443
  28   2.0000      -0.875639       -23.8274
  29   2.0000      -0.852861       -23.2075
  30   2.0000      -0.842095       -22.9146
  31   2.0000      -0.821914       -22.3654
  32   2.0000      -0.782636       -21.2966
  33   2.0000      -0.766759       -20.8646
  34   2.0000      -0.709075       -19.2949
  35   2.0000      -0.704504       -19.1705
  36   2.0000      -0.690101       -18.7786
  37   2.0000      -0.669057       -18.2060
  38   2.0000      -0.645308       -17.5597
  39   2.0000      -0.616731       -16.7821
  40   2.0000      -0.591812       -16.1040
  41   2.0000      -0.579773       -15.7764
  42   2.0000      -0.568320       -15.4648
  43   2.0000      -0.544861       -14.8264
  44   2.0000      -0.540570       -14.7096
  45   2.0000      -0.523441       -14.2435
  46   2.0000      -0.522283       -14.2120
  47   2.0000      -0.515988       -14.0408
  48   2.0000      -0.509963       -13.8768
  49   2.0000      -0.497456       -13.5365
  50   2.0000      -0.491803       -13.3826
  51   2.0000      -0.484802       -13.1921
  52   2.0000      -0.476482       -12.9657
  53   2.0000      -0.466537       -12.6951
  54   2.0000      -0.458404       -12.4738
  55   2.0000      -0.449009       -12.2182
  56   2.0000      -0.442407       -12.0385
  57   2.0000      -0.438505       -11.9323
  58   2.0000      -0.424359       -11.5474
  59   2.0000      -0.418605       -11.3908
  60   2.0000      -0.418110       -11.3773
  61   2.0000      -0.412140       -11.2149
  62   2.0000      -0.407700       -11.0941
  63   2.0000      -0.363924        -9.9029
  64   2.0000      -0.333792        -9.0829
  65   2.0000      -0.325639        -8.8611
  66   2.0000      -0.286682        -7.8010
  67   0.0000       0.020503         0.5579
  68   0.0000       0.087282         2.3751
  69   0.0000       0.098410         2.6779
  70   0.0000       0.118598         3.2272
  71   0.0000       0.123156         3.3512

MULLIKEN ATOMIC CHARGES
-----------------------
   0 S :    0.087273
   1 C :   -0.133494
   2 C :   -0.042986
   3 C :   -0.016223
   4 C :   -0.103554
   5 H :    0.027014
   6 C :    0.024124
   7 H :    0.023047
   8 H :    0.017917
   9 C :   -0.029190
  10 H :    0.030937
  11 H :    0.029478
  12 C :   -0.047762
  13 H :    0.024855
  14 H :    0.026806
  15 H :    0.017653
  16 S :    0.086139
  17 C :   -0.073288
  18 C :   -0.010327
  19 C :   -0.089262
  20 C :   -0.102316
  21 H :    0.014352
  22 C :    0.005518
  23 H :    0.046895
  24 H :    0.010560
  25 C :   -0.021158
  26 H :    0.031640
  27 H :    0.047666
  28 C :   -0.082508
  29 H :    0.037434
  30 H :    0.046097
  31 H :    0.021169
  32 H :    0.050114
  33 H :    0.045378
Sum of atomic charges:   -0.0000000

LOEWDIN ATOMIC CHARGES
----------------------
   0 S :    0.394374
   1 C :   -0.185660
   2 C :   -0.059945
   3 C :   -0.063482
   4 C :   -0.184835
   5 H :    0.041038
   6 C :   -0.040658
   7 H :    0.035464
   8 H :    0.026377
   9 C :   -0.025437
  10 H :    0.026390
  11 H :    0.021937
  12 C :   -0.066537
  13 H :    0.019806
  14 H :    0.022263
  15 H :    0.022208
  16 S :    0.382144
  17 C :   -0.162102
  18 C :   -0.067703
  19 C :   -0.065326
  20 C :   -0.196721
  21 H :    0.030019
  22 C :   -0.042806
  23 H :    0.036154
  24 H :    0.032321
  25 C :   -0.052122
  26 H :    0.031299
  27 H :    0.030877
  28 C :   -0.077962
  29 H :    0.027643
  30 H :    0.032825
  31 H :    0.026763
  32 H :    0.022945
  33 H :    0.028450

  Mayer bond orders larger than 0.100000
B(  0-S ,  1-C ) :   1.1253 B(  0-S ,  4-C ) :   1.1368 B(  1-C ,  2-C ) :   1.6134
B(  1-C , 32-H ) :   0.9805 B(  2-C ,  3-C ) :   1.2145 B(  2-C ,  6-C ) :   1.0305
B(  3-C ,  4-C ) :   1.5792 B(  3-C ,  5-H ) :   0.9836 B(  4-C , 20-C ) :   1.0875
B(  6-C ,  7-H ) :   0.9403 B(  6-C ,  8-H ) :   0.9417 B(  6-C ,  9-C ) :   1.0783
B(  9-C , 10-H ) :   0.9537 B(  9-C , 11-H ) :   0.9562 B(  9-C , 12-C ) :   1.0711
B( 12-C , 13-H ) :   0.9756 B( 12-C , 14-H ) :   0.9789 B( 12-C , 15-H ) :   0.9750
B( 16-S , 17-C ) :   1.1232 B( 16-S , 20-C ) :   1.1200 B( 17-C , 18-C ) :   1.6432
B( 17-C , 33-H ) :   0.9680 B( 18-C , 19-C ) :   1.2488 B( 18-C , 21-H ) :   0.9830
B( 19-C , 20-C ) :   1.5950 B( 19-C , 22-C ) :   1.0368 B( 22-C , 23-H ) :   0.9246
B( 22-C , 24-H ) :   0.9297 B( 22-C , 25-C ) :   1.0580 B( 25-C , 26-H ) :   0.9455
B( 25-C , 27-H ) :   0.9525 B( 25-C , 28-C ) :   1.0806 B( 28-C , 29-H ) :   0.9723
B( 28-C , 30-H ) :   0.9712 B( 28-C , 31-H ) :   0.9716

Dispersion correction           -0.015240132
FINAL SINGLE POINT ENERGY     -1339.876844615109

DIPOLE MOMENT
-------------
                                X             Y             Z
Electronic contribution:      5.56544     -22.07021      22.24622
Nuclear contribution   :     -5.46734      22.56011     -22.66153
                        -----------------------------------------
Total Dipole Moment    :      0.09810       0.48990      -0.41531
                        -----------------------------------------
Magnitude (a.u.)       :      0.64970
Magnitude (Debye)      :      1.65139

Rotational constants in cm-1:     0.018772     0.010199     0.007005
Rotational constants in MHz :   562.767527   305.757636   210.011131

                             ****ORCA TERMINATED NORMALLY****
TOTAL RUN TIME: 0 days 0 hours 0 minutes 22 seconds 703 msec
