                         Program Version 4.2.1 -  RELEASE  -
|  1> ! wB97X-D3 SP def2-SVP
|  2> %pal
|  3> nprocs 24
|  4> end
|  5>
|  6> * xyz 0 1
|  7> S 	 -57.3557 	 9.30433 	 -101.576
|  8> C 	 -56.2228 	 10.6033 	 -101.632
|  9> C 	 -54.9695 	 10.1943 	 -102.047
| 10> C 	 -54.9022 	 8.78216 	 -102.244
| 11> C 	 -56.0746 	 8.11694 	 -101.937
| 12> H 	 -53.9911 	 8.20303 	 -102.471
| 13> C 	 -53.7948 	 11.122 	 -102.274
| 14> H 	 -52.9631 	 10.5263 	 -102.482
| 15> H 	 -53.6172 	 11.6223 	 -101.342
| 16> C 	 -54.0014 	 12.2493 	 -103.406
| 17> H 	 -54.1595 	 11.8653 	 -104.409
| 18> H 	 -54.9001 	 12.9008 	 -103.194
| 19> C 	 -52.7588 	 13.1561 	 -103.505
| 20> H 	 -52.3859 	 13.4684 	 -102.563
| 21> H 	 -52.0232 	 12.4746 	 -104.087
| 22> H 	 -52.8954 	 14.0306 	 -104.131
| 23> S 	 -57.556 	 5.87249 	 -102.537
| 24> C 	 -57.1264 	 4.31301 	 -101.837
| 25> C 	 -55.866 	 4.36562 	 -101.265
| 26> C 	 -55.3088 	 5.70131 	 -101.246
| 27> C 	 -56.2068 	 6.66067 	 -101.692
| 28> H 	 -55.3523 	 3.49654 	 -100.827
| 29> C 	 -53.9492 	 5.92147 	 -100.765
| 30> H 	 -53.9869 	 6.96374 	 -100.516
| 31> H 	 -53.3013 	 5.70812 	 -101.598
| 32> C 	 -53.4618 	 5.06917 	 -99.5275
| 33> H 	 -52.4122 	 5.3595 	 -99.172
| 34> H 	 -53.3878 	 4.06973 	 -99.8935
| 35> C 	 -54.4688 	 5.17723 	 -98.3882
| 36> H 	 -54.1523 	 4.48582 	 -97.6201
| 37> H 	 -55.4507 	 4.93251 	 -98.576
| 38> H 	 -54.4337 	 6.17775 	 -98.0012
| 39> H 	 -56.5894 	 11.6275 	 -101.538
| 40> H 	 -57.6737 	 3.38169 	 -101.992
| 41> *
| 42>
| 43>                          ****END OF INPUT****

CARTESIAN COORDINATES (ANGSTROEM)
---------------------------------
  S    -57.355700    9.304330  -101.576000
  C    -56.222800   10.603300  -101.632000
  C    -54.969500   10.194300  -102.047000
  C    -54.902200    8.782160  -102.244000
  C    -56.074600    8.116940  -101.937000
  H    -53.991100    8.203030  -102.471000
  C    -53.794800   11.122000  -102.274000
  H    -52.963100   10.526300  -102.482000
  H    -53.617200   11.622300  -101.342000
  C    -54.001400   12.249300  -103.406000
  H    -54.159500   11.865300  -104.409000
  H    -54.900100   12.900800  -103.194000
  C    -52.758800   13.156100  -103.505000
  H    -52.385900   13.468400  -102.563000
  H    -52.023200   12.474600  -104.087000
  H    -52.895400   14.030600  -104.131000
  S    -57.556000    5.872490  -102.537000
  C    -57.126400    4.313010  -101.837000
  C    -55.866000    4.365620  -101.265000
  C    -55.308800    5.701310  -101.246000
  C    -56.206800    6.660670  -101.692000
  H    -55.352300    3.496540  -100.827000
  C    -53.949200    5.921470  -100.765000
  H    -53.986900    6.963740  -100.516000
  H    -53.301300    5.708120  -101.598000
  C    -53.461800    5.069170  -99.527500
  H    -52.412200    5.359500  -99.172000
  H    -53.387800    4.069730  -99.893500
  C    -54.468800    5.177230  -98.388200
  H    -54.152300    4.485820  -97.620100
  H    -55.450700    4.932510  -98.576000
  H    -54.433700    6.177750  -98.001200
  H    -56.589400   11.627500  -101.538000
  H    -57.673700    3.381690  -101.992000

 Total Charge           Charge          ....    0
 Multiplicity           Mult            ....    1
 Number of Electrons    NEL             ....  134
 Basis Dimension        Dim             ....  322

ORBITAL ENERGIES
----------------

  NO   OCC          E(Eh)            E(eV)
   0   2.0000     -88.965097     -2420.8634
   1   2.0000     -88.961289     -2420.7598
   2   2.0000     -10.331488      -281.1341
   3   2.0000     -10.328512      -281.0531
   4   2.0000     -10.320174      -280.8262
   5   2.0000     -10.313708      -280.6503
   6   2.0000     -10.302218      -280.3376
   7   2.0000     -10.301103      -280.3073
   8   2.0000     -10.296994      -280.1955
   9   2.0000     -10.295909      -280.1659
  10   2.0000     -10.295697      -280.1602
  11   2.0000     -10.293767      -280.1076
  12   2.0000     -10.292585      -280.0755
  13   2.0000     -10.285109      -279.8720
  14   2.0000     -10.282245      -279.7941
  15   2.0000     -10.264940      -279.3232
  16   2.0000      -8.079878      -219.8647
  17   2.0000      -8.075686      -219.7506
  18   2.0000      -6.038399      -164.3132
  19   2.0000      -6.034347      -164.2029
  20   2.0000      -6.034321      -164.2022
  21   2.0000      -6.030681      -164.1032
  22   2.0000      -6.030388      -164.0952
  23   2.0000      -6.026158      -163.9801
  24   2.0000      -1.002944       -27.2915
  25   2.0000      -0.982605       -26.7380
  26   2.0000      -0.912238       -24.8232
  27   2.0000      -0.903300       -24.5801
  28   2.0000      -0.866645       -23.5826
  29   2.0000      -0.852819       -23.2064
  30   2.0000      -0.845435       -23.0055
  31   2.0000      -0.814187       -22.1552
  32   2.0000      -0.782138       -21.2831
  33   2.0000      -0.768798       -20.9201
  34   2.0000      -0.708951       -19.2915
  35   2.0000      -0.701882       -19.0992
  36   2.0000      -0.691894       -18.8274
  37   2.0000      -0.659006       -17.9325
  38   2.0000      -0.642215       -17.4756
  39   2.0000      -0.615326       -16.7439
  40   2.0000      -0.590066       -16.0565
  41   2.0000      -0.567557       -15.4440
  42   2.0000      -0.563612       -15.3367
  43   2.0000      -0.557396       -15.1675
  44   2.0000      -0.539722       -14.6866
  45   2.0000      -0.526632       -14.3304
  46   2.0000      -0.518424       -14.1070
  47   2.0000      -0.512264       -13.9394
  48   2.0000      -0.509695       -13.8695
  49   2.0000      -0.497302       -13.5323
  50   2.0000      -0.494861       -13.4658
  51   2.0000      -0.478177       -13.0119
  52   2.0000      -0.466473       -12.6934
  53   2.0000      -0.460897       -12.5417
  54   2.0000      -0.459105       -12.4929
  55   2.0000      -0.452446       -12.3117
  56   2.0000      -0.441189       -12.0054
  57   2.0000      -0.438916       -11.9435
  58   2.0000      -0.432764       -11.7761
  59   2.0000      -0.426547       -11.6069
  60   2.0000      -0.422510       -11.4971
  61   2.0000      -0.416761       -11.3406
  62   2.0000      -0.410844       -11.1796
  63   2.0000      -0.348189        -9.4747
  64   2.0000      -0.331021        -9.0075
  65   2.0000      -0.324261        -8.8236
  66   2.0000      -0.290018        -7.8918
  67   0.0000       0.025722         0.6999
  68   0.0000       0.070852         1.9280
  69   0.0000       0.103737         2.8228
  70   0.0000       0.122851         3.3429
  71   0.0000       0.136770         3.7217

MULLIKEN ATOMIC CHARGES
-----------------------
   0 S :    0.111548
   1 C :   -0.129073
   2 C :   -0.100066
   3 C :    0.008937
   4 C :   -0.146781
   5 H :    0.026090
   6 C :    0.119085
   7 H :   -0.001125
   8 H :    0.030836
   9 C :   -0.099546
  10 H :    0.034649
  11 H :    0.033065
  12 C :   -0.060998
  13 H :    0.028093
  14 H :    0.037761
  15 H :    0.037139
  16 S :    0.083065
  17 C :   -0.080150
  18 C :   -0.041905
  19 C :   -0.095084
  20 C :   -0.132394
  21 H :    0.028160
  22 C :    0.074334
  23 H :    0.029280
  24 H :    0.045881
  25 C :   -0.092491
  26 H :    0.044235
  27 H :    0.019287
  28 C :   -0.010452
  29 H :    0.024002
  30 H :    0.025750
  31 H :    0.029170
  32 H :    0.057864
  33 H :    0.061834
Sum of atomic charges:    0.0000000

LOEWDIN ATOMIC CHARGES
----------------------
   0 S :    0.404618
   1 C :   -0.198513
   2 C :   -0.068380
   3 C :   -0.064880
   4 C :   -0.192356
   5 H :    0.036945
   6 C :   -0.020368
   7 H :    0.019896
   8 H :    0.033262
   9 C :   -0.038350
  10 H :    0.023531
  11 H :    0.023179
  12 C :   -0.068737
  13 H :    0.015574
  14 H :    0.035249
  15 H :    0.025027
  16 S :    0.382112
  17 C :   -0.177418
  18 C :   -0.074799
  19 C :   -0.054533
  20 C :   -0.189974
  21 H :    0.034487
  22 C :   -0.037376
  23 H :    0.029856
  24 H :    0.035144
  25 C :   -0.035332
  26 H :    0.035567
  27 H :    0.012401
  28 C :   -0.057294
  29 H :    0.026987
  30 H :    0.015653
  31 H :    0.027256
  32 H :    0.029204
  33 H :    0.032362

  Mayer bond orders larger than 0.100000
B(  0-S ,  1-C ) :   1.1536 B(  0-S ,  4-C ) :   1.1503 B(  1-C ,  2-C ) :   1.5895
B(  1-C , 32-H ) :   0.9699 B(  2-C ,  3-C ) :   1.2575 B(  2-C ,  6-C ) :   1.0232
B(  3-C ,  4-C ) :   1.5615 B(  3-C ,  5-H ) :   0.9879 B(  4-C , 20-C ) :   1.0172
B(  6-C ,  7-H ) :   0.9410 B(  6-C ,  8-H ) :   0.9370 B(  6-C ,  9-C ) :   1.0476
B(  9-C , 10-H ) :   0.9638 B(  9-C , 11-H ) :   0.9596 B(  9-C , 12-C ) :   1.0742
B( 12-C , 13-H ) :   0.9773 B( 12-C , 14-H ) :   0.9787 B( 12-C , 15-H ) :   0.9748
B( 16-S , 17-C ) :   1.1450 B( 16-S , 20-C ) :   1.1261 B( 17-C , 18-C ) :   1.6167
B( 17-C , 33-H ) :   0.9659 B( 18-C , 19-C ) :   1.2170 B( 18-C , 21-H ) :   0.9840
B( 19-C , 20-C ) :   1.6182 B( 19-C , 22-C ) :   1.0430 B( 22-C , 23-H ) :   0.9307
B( 22-C , 24-H ) :   0.9199 B( 22-C , 25-C ) :   1.0664 B( 25-C , 26-H ) :   0.9565
B( 25-C , 27-H ) :   0.9506 B( 25-C , 28-C ) :   1.0837 B( 28-C , 29-H ) :   0.9711
B( 28-C , 30-H ) :   0.9711 B( 28-C , 31-H ) :   0.9746

Dispersion correction           -0.013995530
FINAL SINGLE POINT ENERGY     -1339.872022951262

DIPOLE MOMENT
-------------
                                X             Y             Z
Electronic contribution:    -23.47525      -8.57760      -5.20223
Nuclear contribution   :     24.21713       8.60461       5.30033
                        -----------------------------------------
Total Dipole Moment    :      0.74188       0.02701       0.09810
                        -----------------------------------------
Magnitude (a.u.)       :      0.74883
Magnitude (Debye)      :      1.90337

Rotational constants in cm-1:     0.021567     0.007306     0.006140
Rotational constants in MHz :   646.555375   219.032975   184.076702

                             ****ORCA TERMINATED NORMALLY****
TOTAL RUN TIME: 0 days 0 hours 0 minutes 21 seconds 422 msec
