                         Program Version 4.2.1 -  RELEASE  -
|  1> ! wB97X-D3 SP def2-SVP
|  2> %pal
|  3> nprocs 24
|  4> end
|  5>
|  6> * xyz 0 1
|  7> S 	 -107.86 	 61.5548 	 -16.523
|  8> C 	 -108.525 	 62.2101 	 -15.0293
|  9> C 	 -108.604 	 61.1583 	 -14.0945
| 10> C 	 -108.229 	 59.848 	 -14.5944
| 11> C 	 -107.745 	 59.9485 	 -15.9191
| 12> H 	 -108.08 	 58.8362 	 -14.0837
| 13> C 	 -108.945 	 61.4394 	 -12.6031
| 14> H 	 -109.45 	 60.6049 	 -12.0903
| 15> H 	 -109.853 	 62.0949 	 -12.624
| 16> C 	 -107.861 	 62.1234 	 -11.7668
| 17> H 	 -107.036 	 61.4843 	 -11.566
| 18> H 	 -107.412 	 62.9868 	 -12.2901
| 19> C 	 -108.445 	 62.556 	 -10.3937
| 20> H 	 -107.871 	 63.4154 	 -9.97985
| 21> H 	 -109.444 	 62.9834 	 -10.5358
| 22> H 	 -108.669 	 61.6876 	 -9.75979
| 23> S 	 -107.6 	 58.5504 	 -18.2866
| 24> C 	 -106.17 	 57.4549 	 -18.4888
| 25> C 	 -105.468 	 57.3044 	 -17.3159
| 26> C 	 -105.959 	 58.1625 	 -16.2732
| 27> C 	 -107.002 	 58.9479 	 -16.6335
| 28> H 	 -104.652 	 56.5705 	 -17.1732
| 29> C 	 -105.258 	 58.1731 	 -14.9229
| 30> H 	 -104.958 	 57.1302 	 -14.615
| 31> H 	 -106.017 	 58.2906 	 -14.1592
| 32> C 	 -104.157 	 59.2037 	 -14.7435
| 33> H 	 -104.655 	 60.1958 	 -14.5983
| 34> H 	 -103.439 	 59.1645 	 -15.5612
| 35> C 	 -103.374 	 58.8299 	 -13.4636
| 36> H 	 -102.665 	 59.6534 	 -13.259
| 37> H 	 -102.824 	 57.8535 	 -13.5739
| 38> H 	 -103.987 	 58.7491 	 -12.5484
| 39> H 	 -108.517 	 63.3116 	 -14.8189
| 40> H 	 -105.994 	 56.7799 	 -19.326
| 41> *
| 42>
| 43>                          ****END OF INPUT****

CARTESIAN COORDINATES (ANGSTROEM)
---------------------------------
  S    -107.860000   61.554800  -16.523000
  C    -108.525000   62.210100  -15.029300
  C    -108.604000   61.158300  -14.094500
  C    -108.229000   59.848000  -14.594400
  C    -107.745000   59.948500  -15.919100
  H    -108.080000   58.836200  -14.083700
  C    -108.945000   61.439400  -12.603100
  H    -109.450000   60.604900  -12.090300
  H    -109.853000   62.094900  -12.624000
  C    -107.861000   62.123400  -11.766800
  H    -107.036000   61.484300  -11.566000
  H    -107.412000   62.986800  -12.290100
  C    -108.445000   62.556000  -10.393700
  H    -107.871000   63.415400   -9.979850
  H    -109.444000   62.983400  -10.535800
  H    -108.669000   61.687600   -9.759790
  S    -107.600000   58.550400  -18.286600
  C    -106.170000   57.454900  -18.488800
  C    -105.468000   57.304400  -17.315900
  C    -105.959000   58.162500  -16.273200
  C    -107.002000   58.947900  -16.633500
  H    -104.652000   56.570500  -17.173200
  C    -105.258000   58.173100  -14.922900
  H    -104.958000   57.130200  -14.615000
  H    -106.017000   58.290600  -14.159200
  C    -104.157000   59.203700  -14.743500
  H    -104.655000   60.195800  -14.598300
  H    -103.439000   59.164500  -15.561200
  C    -103.374000   58.829900  -13.463600
  H    -102.665000   59.653400  -13.259000
  H    -102.824000   57.853500  -13.573900
  H    -103.987000   58.749100  -12.548400
  H    -108.517000   63.311600  -14.818900
  H    -105.994000   56.779900  -19.326000

 Total Charge           Charge          ....    0
 Multiplicity           Mult            ....    1
 Number of Electrons    NEL             ....  134
 Basis Dimension        Dim             ....  322

ORBITAL ENERGIES
----------------

  NO   OCC          E(Eh)            E(eV)
   0   2.0000     -88.967740     -2420.9353
   1   2.0000     -88.965034     -2420.8616
   2   2.0000     -10.329578      -281.0821
   3   2.0000     -10.326561      -281.0000
   4   2.0000     -10.322417      -280.8872
   5   2.0000     -10.322410      -280.8871
   6   2.0000     -10.314353      -280.6678
   7   2.0000     -10.306876      -280.4644
   8   2.0000     -10.301448      -280.3166
   9   2.0000     -10.297713      -280.2150
  10   2.0000     -10.297474      -280.2085
  11   2.0000     -10.291502      -280.0460
  12   2.0000     -10.290296      -280.0132
  13   2.0000     -10.288821      -279.9731
  14   2.0000     -10.284332      -279.8509
  15   2.0000     -10.283795      -279.8363
  16   2.0000      -8.082651      -219.9401
  17   2.0000      -8.078251      -219.8204
  18   2.0000      -6.041076      -164.3860
  19   2.0000      -6.036952      -164.2738
  20   2.0000      -6.036925      -164.2731
  21   2.0000      -6.033665      -164.1844
  22   2.0000      -6.033199      -164.1717
  23   2.0000      -6.028654      -164.0480
  24   2.0000      -1.004371       -27.3303
  25   2.0000      -0.977367       -26.5955
  26   2.0000      -0.908676       -24.7263
  27   2.0000      -0.907141       -24.6846
  28   2.0000      -0.869664       -23.6648
  29   2.0000      -0.848556       -23.0904
  30   2.0000      -0.841477       -22.8978
  31   2.0000      -0.810668       -22.0594
  32   2.0000      -0.777071       -21.1452
  33   2.0000      -0.766175       -20.8487
  34   2.0000      -0.706558       -19.2264
  35   2.0000      -0.702963       -19.1286
  36   2.0000      -0.691837       -18.8258
  37   2.0000      -0.663937       -18.0666
  38   2.0000      -0.642269       -17.4770
  39   2.0000      -0.608796       -16.5662
  40   2.0000      -0.593122       -16.1397
  41   2.0000      -0.568825       -15.4785
  42   2.0000      -0.564600       -15.3636
  43   2.0000      -0.552072       -15.0226
  44   2.0000      -0.526001       -14.3132
  45   2.0000      -0.525087       -14.2883
  46   2.0000      -0.513811       -13.9815
  47   2.0000      -0.509496       -13.8641
  48   2.0000      -0.509250       -13.8574
  49   2.0000      -0.497021       -13.5246
  50   2.0000      -0.491595       -13.3770
  51   2.0000      -0.474438       -12.9101
  52   2.0000      -0.467905       -12.7323
  53   2.0000      -0.457076       -12.4377
  54   2.0000      -0.454402       -12.3649
  55   2.0000      -0.450158       -12.2494
  56   2.0000      -0.446601       -12.1526
  57   2.0000      -0.437593       -11.9075
  58   2.0000      -0.433567       -11.7980
  59   2.0000      -0.418931       -11.3997
  60   2.0000      -0.416236       -11.3264
  61   2.0000      -0.415352       -11.3023
  62   2.0000      -0.413017       -11.2388
  63   2.0000      -0.343621        -9.3504
  64   2.0000      -0.333737        -9.0815
  65   2.0000      -0.330323        -8.9886
  66   2.0000      -0.294590        -8.0162
  67   0.0000       0.027203         0.7402
  68   0.0000       0.060765         1.6535
  69   0.0000       0.097548         2.6544
  70   0.0000       0.116345         3.1659
  71   0.0000       0.126091         3.4311

MULLIKEN ATOMIC CHARGES
-----------------------
   0 S :    0.118948
   1 C :   -0.135253
   2 C :   -0.097248
   3 C :    0.023320
   4 C :   -0.164208
   5 H :    0.057403
   6 C :    0.009375
   7 H :    0.022190
   8 H :    0.027184
   9 C :   -0.034498
  10 H :    0.024961
  11 H :    0.026068
  12 C :   -0.067001
  13 H :    0.047320
  14 H :    0.016317
  15 H :    0.040613
  16 S :    0.087790
  17 C :   -0.083065
  18 C :   -0.039381
  19 C :   -0.019304
  20 C :   -0.164188
  21 H :    0.032108
  22 C :    0.042092
  23 H :    0.017017
  24 H :   -0.010231
  25 C :   -0.033558
  26 H :    0.051097
  27 H :    0.035471
  28 C :   -0.086621
  29 H :    0.038764
  30 H :    0.041346
  31 H :    0.030397
  32 H :    0.084180
  33 H :    0.060595
Sum of atomic charges:    0.0000000

LOEWDIN ATOMIC CHARGES
----------------------
   0 S :    0.426763
   1 C :   -0.214817
   2 C :   -0.057779
   3 C :   -0.076236
   4 C :   -0.208617
   5 H :    0.048717
   6 C :   -0.045307
   7 H :    0.030615
   8 H :    0.034219
   9 C :   -0.038802
  10 H :    0.019660
  11 H :    0.025866
  12 C :   -0.072327
  13 H :    0.033808
  14 H :    0.021683
  15 H :    0.028949
  16 S :    0.354061
  17 C :   -0.164094
  18 C :   -0.068915
  19 C :   -0.056479
  20 C :   -0.182645
  21 H :    0.038712
  22 C :   -0.040656
  23 H :    0.031849
  24 H :    0.022270
  25 C :   -0.034461
  26 H :    0.036604
  27 H :    0.026339
  28 C :   -0.073344
  29 H :    0.026980
  30 H :    0.028921
  31 H :    0.023255
  32 H :    0.043579
  33 H :    0.031628

  Mayer bond orders larger than 0.100000
B(  0-S ,  1-C ) :   1.1368 B(  0-S ,  4-C ) :   1.1902 B(  1-C ,  2-C ) :   1.5858
B(  1-C ,  4-C ) :   0.1024 B(  1-C , 32-H ) :   0.9652 B(  2-C ,  3-C ) :   1.2509
B(  2-C ,  6-C ) :   1.0135 B(  3-C ,  4-C ) :   1.5362 B(  3-C ,  5-H ) :   0.9788
B(  4-C , 20-C ) :   1.0337 B(  6-C ,  7-H ) :   0.9482 B(  6-C ,  8-H ) :   0.9449
B(  6-C ,  9-C ) :   1.0562 B(  9-C , 10-H ) :   0.9557 B(  9-C , 11-H ) :   0.9573
B(  9-C , 12-C ) :   1.0718 B( 12-C , 13-H ) :   0.9741 B( 12-C , 14-H ) :   0.9757
B( 12-C , 15-H ) :   0.9752 B( 16-S , 17-C ) :   1.1222 B( 16-S , 20-C ) :   1.1078
B( 17-C , 18-C ) :   1.6520 B( 17-C , 33-H ) :   0.9631 B( 18-C , 19-C ) :   1.2080
B( 18-C , 21-H ) :   0.9823 B( 19-C , 20-C ) :   1.6615 B( 19-C , 22-C ) :   1.0361
B( 22-C , 23-H ) :   0.9386 B( 22-C , 24-H ) :   0.9217 B( 22-C , 25-C ) :   1.0632
B( 25-C , 26-H ) :   0.9501 B( 25-C , 27-H ) :   0.9578 B( 25-C , 28-C ) :   1.0789
B( 28-C , 29-H ) :   0.9746 B( 28-C , 30-H ) :   0.9752 B( 28-C , 31-H ) :   0.9743

Dispersion correction           -0.014289295
FINAL SINGLE POINT ENERGY     -1339.871669952349

DIPOLE MOMENT
-------------
                                X             Y             Z
Electronic contribution:    -10.08588      -3.58419     -30.62211
Nuclear contribution   :     10.48485       3.46155      31.35113
                        -----------------------------------------
Total Dipole Moment    :      0.39896      -0.12264       0.72903
                        -----------------------------------------
Magnitude (a.u.)       :      0.84005
Magnitude (Debye)      :      2.13525

Rotational constants in cm-1:     0.019249     0.008673     0.006567
Rotational constants in MHz :   577.063826   260.019841   196.871332

                             ****ORCA TERMINATED NORMALLY****
TOTAL RUN TIME: 0 days 0 hours 0 minutes 20 seconds 525 msec
