                         Program Version 4.2.1 -  RELEASE  -
|  1> ! wB97X-D3 SP def2-SVP
|  2> %pal
|  3> nprocs 24
|  4> end
|  5>
|  6> * xyz 0 1
|  7> S 	 -126.022 	 63.3427 	 -56.8248
|  8> C 	 -124.833 	 64.212 	 -57.7687
|  9> C 	 -125.296 	 64.2604 	 -59.0691
| 10> C 	 -126.613 	 63.7013 	 -59.302
| 11> C 	 -127.089 	 63.0775 	 -58.166
| 12> H 	 -127.11 	 63.8567 	 -60.2883
| 13> C 	 -124.546 	 65.0289 	 -60.0972
| 14> H 	 -123.71 	 65.5885 	 -59.5575
| 15> H 	 -125.171 	 65.8584 	 -60.4879
| 16> C 	 -123.948 	 64.103 	 -61.1241
| 17> H 	 -123.59 	 63.1437 	 -60.6128
| 18> H 	 -124.819 	 63.8724 	 -61.7968
| 19> C 	 -122.789 	 64.6636 	 -61.971
| 20> H 	 -121.83 	 64.7486 	 -61.3099
| 21> H 	 -122.563 	 64.0084 	 -62.7519
| 22> H 	 -123.01 	 65.6784 	 -62.3075
| 23> S 	 -129.282 	 62.6374 	 -56.4914
| 24> C 	 -130.536 	 61.5874 	 -57.0235
| 25> C 	 -130.175 	 60.939 	 -58.2316
| 26> C 	 -128.964 	 61.3313 	 -58.7858
| 27> C 	 -128.321 	 62.3036 	 -57.9809
| 28> H 	 -130.817 	 60.1814 	 -58.6328
| 29> C 	 -128.528 	 60.7056 	 -60.0285
| 30> H 	 -127.53 	 61.1734 	 -60.3097
| 31> H 	 -129.216 	 60.9452 	 -60.844
| 32> C 	 -128.407 	 59.1692 	 -59.9975
| 33> H 	 -129.371 	 58.7903 	 -59.6964
| 34> H 	 -127.68 	 58.8877 	 -59.2399
| 35> C 	 -128.002 	 58.6785 	 -61.3353
| 36> H 	 -127.111 	 59.2356 	 -61.6923
| 37> H 	 -128.807 	 58.6621 	 -62.1021
| 38> H 	 -127.601 	 57.7301 	 -61.343
| 39> H 	 -123.844 	 64.4335 	 -57.4517
| 40> H 	 -131.434 	 61.3444 	 -56.432
| 41> *
| 42>
| 43>                          ****END OF INPUT****

CARTESIAN COORDINATES (ANGSTROEM)
---------------------------------
  S    -126.022000   63.342700  -56.824800
  C    -124.833000   64.212000  -57.768700
  C    -125.296000   64.260400  -59.069100
  C    -126.613000   63.701300  -59.302000
  C    -127.089000   63.077500  -58.166000
  H    -127.110000   63.856700  -60.288300
  C    -124.546000   65.028900  -60.097200
  H    -123.710000   65.588500  -59.557500
  H    -125.171000   65.858400  -60.487900
  C    -123.948000   64.103000  -61.124100
  H    -123.590000   63.143700  -60.612800
  H    -124.819000   63.872400  -61.796800
  C    -122.789000   64.663600  -61.971000
  H    -121.830000   64.748600  -61.309900
  H    -122.563000   64.008400  -62.751900
  H    -123.010000   65.678400  -62.307500
  S    -129.282000   62.637400  -56.491400
  C    -130.536000   61.587400  -57.023500
  C    -130.175000   60.939000  -58.231600
  C    -128.964000   61.331300  -58.785800
  C    -128.321000   62.303600  -57.980900
  H    -130.817000   60.181400  -58.632800
  C    -128.528000   60.705600  -60.028500
  H    -127.530000   61.173400  -60.309700
  H    -129.216000   60.945200  -60.844000
  C    -128.407000   59.169200  -59.997500
  H    -129.371000   58.790300  -59.696400
  H    -127.680000   58.887700  -59.239900
  C    -128.002000   58.678500  -61.335300
  H    -127.111000   59.235600  -61.692300
  H    -128.807000   58.662100  -62.102100
  H    -127.601000   57.730100  -61.343000
  H    -123.844000   64.433500  -57.451700
  H    -131.434000   61.344400  -56.432000

 Total Charge           Charge          ....    0
 Multiplicity           Mult            ....    1
 Number of Electrons    NEL             ....  134
 Basis Dimension        Dim             ....  322

ORBITAL ENERGIES
----------------

  NO   OCC          E(Eh)            E(eV)
   0   2.0000     -88.968936     -2420.9678
   1   2.0000     -88.961889     -2420.7761
   2   2.0000     -10.333080      -281.1774
   3   2.0000     -10.332941      -281.1736
   4   2.0000     -10.321142      -280.8525
   5   2.0000     -10.309922      -280.5473
   6   2.0000     -10.301175      -280.3092
   7   2.0000     -10.298525      -280.2371
   8   2.0000     -10.297471      -280.2084
   9   2.0000     -10.292700      -280.0786
  10   2.0000     -10.291279      -280.0399
  11   2.0000     -10.290434      -280.0170
  12   2.0000     -10.290228      -280.0113
  13   2.0000     -10.283741      -279.8348
  14   2.0000     -10.282613      -279.8041
  15   2.0000     -10.273021      -279.5431
  16   2.0000      -8.083130      -219.9532
  17   2.0000      -8.077167      -219.7909
  18   2.0000      -6.041510      -164.3979
  19   2.0000      -6.037665      -164.2932
  20   2.0000      -6.035730      -164.2406
  21   2.0000      -6.034114      -164.1966
  22   2.0000      -6.031482      -164.1250
  23   2.0000      -6.027948      -164.0288
  24   2.0000      -1.005409       -27.3586
  25   2.0000      -0.984362       -26.7858
  26   2.0000      -0.920112       -25.0375
  27   2.0000      -0.913402       -24.8549
  28   2.0000      -0.865787       -23.5593
  29   2.0000      -0.861813       -23.4511
  30   2.0000      -0.842786       -22.9334
  31   2.0000      -0.811705       -22.0876
  32   2.0000      -0.782695       -21.2982
  33   2.0000      -0.768759       -20.9190
  34   2.0000      -0.709055       -19.2944
  35   2.0000      -0.698397       -19.0044
  36   2.0000      -0.688113       -18.7245
  37   2.0000      -0.658547       -17.9200
  38   2.0000      -0.638559       -17.3761
  39   2.0000      -0.622161       -16.9298
  40   2.0000      -0.601031       -16.3549
  41   2.0000      -0.573620       -15.6090
  42   2.0000      -0.569715       -15.5027
  43   2.0000      -0.553190       -15.0531
  44   2.0000      -0.531917       -14.4742
  45   2.0000      -0.522574       -14.2200
  46   2.0000      -0.521753       -14.1976
  47   2.0000      -0.514962       -14.0128
  48   2.0000      -0.508291       -13.8313
  49   2.0000      -0.501060       -13.6345
  50   2.0000      -0.490198       -13.3390
  51   2.0000      -0.482672       -13.1342
  52   2.0000      -0.469024       -12.7628
  53   2.0000      -0.463399       -12.6097
  54   2.0000      -0.457345       -12.4450
  55   2.0000      -0.448795       -12.2123
  56   2.0000      -0.447084       -12.1658
  57   2.0000      -0.436004       -11.8643
  58   2.0000      -0.430626       -11.7179
  59   2.0000      -0.426179       -11.5969
  60   2.0000      -0.420289       -11.4366
  61   2.0000      -0.415640       -11.3101
  62   2.0000      -0.403671       -10.9845
  63   2.0000      -0.349623        -9.5137
  64   2.0000      -0.333336        -9.0705
  65   2.0000      -0.326970        -8.8973
  66   2.0000      -0.284959        -7.7541
  67   0.0000       0.024954         0.6790
  68   0.0000       0.071556         1.9471
  69   0.0000       0.110464         3.0059
  70   0.0000       0.120601         3.2817
  71   0.0000       0.128070         3.4850

MULLIKEN ATOMIC CHARGES
-----------------------
   0 S :    0.093413
   1 C :   -0.100056
   2 C :   -0.129520
   3 C :    0.024912
   4 C :   -0.128200
   5 H :    0.036668
   6 C :    0.033044
   7 H :    0.016047
   8 H :    0.043095
   9 C :   -0.122517
  10 H :    0.049774
  11 H :    0.032970
  12 C :   -0.030969
  13 H :    0.037694
  14 H :    0.032203
  15 H :    0.031218
  16 S :    0.113914
  17 C :   -0.102801
  18 C :   -0.057273
  19 C :    0.023039
  20 C :   -0.159944
  21 H :    0.013115
  22 C :    0.026253
  23 H :    0.026107
  24 H :    0.031881
  25 C :   -0.061966
  26 H :    0.020460
  27 H :    0.035222
  28 C :   -0.009452
  29 H :    0.021794
  30 H :    0.035736
  31 H :    0.007554
  32 H :    0.045583
  33 H :    0.071002
Sum of atomic charges:    0.0000000

LOEWDIN ATOMIC CHARGES
----------------------
   0 S :    0.406133
   1 C :   -0.199487
   2 C :   -0.061717
   3 C :   -0.075754
   4 C :   -0.190363
   5 H :    0.041288
   6 C :   -0.044931
   7 H :    0.029951
   8 H :    0.034379
   9 C :   -0.052330
  10 H :    0.034463
  11 H :    0.026172
  12 C :   -0.064944
  13 H :    0.033993
  14 H :    0.017935
  15 H :    0.024050
  16 S :    0.407679
  17 C :   -0.198167
  18 C :   -0.071162
  19 C :   -0.056116
  20 C :   -0.187471
  21 H :    0.026106
  22 C :   -0.036961
  23 H :    0.034110
  24 H :    0.033722
  25 C :   -0.033018
  26 H :    0.019293
  27 H :    0.029364
  28 C :   -0.065165
  29 H :    0.031543
  30 H :    0.029988
  31 H :    0.016058
  32 H :    0.025675
  33 H :    0.035684

  Mayer bond orders larger than 0.100000
B(  0-S ,  1-C ) :   1.1182 B(  0-S ,  4-C ) :   1.1725 B(  1-C ,  2-C ) :   1.6122
B(  1-C , 32-H ) :   0.9732 B(  2-C ,  3-C ) :   1.2345 B(  2-C ,  6-C ) :   1.0400
B(  3-C ,  4-C ) :   1.5477 B(  3-C ,  5-H ) :   0.9883 B(  4-C , 20-C ) :   1.0378
B(  6-C ,  7-H ) :   0.9482 B(  6-C ,  8-H ) :   0.9372 B(  6-C ,  9-C ) :   1.0407
B(  9-C , 10-H ) :   0.9589 B(  9-C , 11-H ) :   0.9513 B(  9-C , 12-C ) :   1.0871
B( 12-C , 13-H ) :   0.9740 B( 12-C , 14-H ) :   0.9750 B( 12-C , 15-H ) :   0.9720
B( 16-S , 17-C ) :   1.1798 B( 16-S , 20-C ) :   1.1461 B( 17-C , 18-C ) :   1.5583
B( 17-C , 20-C ) :   0.1148 B( 17-C , 33-H ) :   0.9646 B( 18-C , 19-C ) :   1.2758
B( 18-C , 21-H ) :   0.9923 B( 19-C , 20-C ) :   1.5361 B( 19-C , 22-C ) :   1.0593
B( 22-C , 23-H ) :   0.9260 B( 22-C , 24-H ) :   0.9290 B( 22-C , 25-C ) :   1.0650
B( 25-C , 26-H ) :   0.9506 B( 25-C , 27-H ) :   0.9511 B( 25-C , 28-C ) :   1.1030
B( 28-C , 29-H ) :   0.9652 B( 28-C , 30-H ) :   0.9707 B( 28-C , 31-H ) :   0.9673

Dispersion correction           -0.013402585
FINAL SINGLE POINT ENERGY     -1339.879837230883

DIPOLE MOMENT
-------------
                                X             Y             Z
Electronic contribution:    -12.21697       6.84580      27.27212
Nuclear contribution   :     12.27377      -7.11243     -27.92309
                        -----------------------------------------
Total Dipole Moment    :      0.05679      -0.26663      -0.65097
                        -----------------------------------------
Magnitude (a.u.)       :      0.70575
Magnitude (Debye)      :      1.79388

Rotational constants in cm-1:     0.017510     0.008527     0.006174
Rotational constants in MHz :   524.944539   255.629905   185.104437

                             ****ORCA TERMINATED NORMALLY****
TOTAL RUN TIME: 0 days 0 hours 0 minutes 21 seconds 137 msec
