                         Program Version 4.2.1 -  RELEASE  -
|  1> ! wB97X-D3 SP def2-SVP
|  2> %pal
|  3> nprocs 24
|  4> end
|  5>
|  6> * xyz 0 1
|  7> S 	 -145.259 	 5.48024 	 5.10748
|  8> C 	 -145.554 	 4.9946 	 6.70104
|  9> C 	 -145.236 	 5.96789 	 7.60612
| 10> C 	 -144.689 	 7.12488 	 7.01639
| 11> C 	 -144.866 	 7.13967 	 5.65836
| 12> H 	 -144.417 	 8.04224 	 7.5503
| 13> C 	 -145.336 	 5.80973 	 9.12843
| 14> H 	 -145.442 	 4.79374 	 9.36613
| 15> H 	 -146.272 	 6.26259 	 9.42744
| 16> C 	 -144.191 	 6.47104 	 9.97199
| 17> H 	 -144.216 	 7.53052 	 9.85937
| 18> H 	 -144.366 	 6.28812 	 11.0714
| 19> C 	 -142.8 	 6.00941 	 9.66075
| 20> H 	 -142.627 	 4.966 	 10.0018
| 21> H 	 -142.697 	 5.92598 	 8.61223
| 22> H 	 -141.98 	 6.62609 	 10.1093
| 23> S 	 -146.375 	 8.9934 	 4.15119
| 24> C 	 -145.401 	 9.92742 	 3.05039
| 25> C 	 -144.052 	 9.6757 	 3.25273
| 26> C 	 -143.711 	 8.79215 	 4.27253
| 27> C 	 -144.855 	 8.26677 	 4.77602
| 28> H 	 -143.354 	 10.1821 	 2.657
| 29> C 	 -142.277 	 8.3375 	 4.49524
| 30> H 	 -141.851 	 8.1786 	 3.5009
| 31> H 	 -142.298 	 7.42509 	 5.06566
| 32> C 	 -141.441 	 9.42647 	 5.34601
| 33> H 	 -141.953 	 9.50516 	 6.29226
| 34> H 	 -141.487 	 10.3726 	 4.8017
| 35> C 	 -139.994 	 8.98578 	 5.49758
| 36> H 	 -139.351 	 9.54061 	 6.14299
| 37> H 	 -139.625 	 9.02446 	 4.46894
| 38> H 	 -140.085 	 7.99241 	 5.8941
| 39> H 	 -145.891 	 4.03569 	 7.04709
| 40> H 	 -145.777 	 10.7018 	 2.45418
| 41> *
| 42>
| 43>                          ****END OF INPUT****

CARTESIAN COORDINATES (ANGSTROEM)
---------------------------------
  S    -145.259000    5.480240    5.107480
  C    -145.554000    4.994600    6.701040
  C    -145.236000    5.967890    7.606120
  C    -144.689000    7.124880    7.016390
  C    -144.866000    7.139670    5.658360
  H    -144.417000    8.042240    7.550300
  C    -145.336000    5.809730    9.128430
  H    -145.442000    4.793740    9.366130
  H    -146.272000    6.262590    9.427440
  C    -144.191000    6.471040    9.971990
  H    -144.216000    7.530520    9.859370
  H    -144.366000    6.288120   11.071400
  C    -142.800000    6.009410    9.660750
  H    -142.627000    4.966000   10.001800
  H    -142.697000    5.925980    8.612230
  H    -141.980000    6.626090   10.109300
  S    -146.375000    8.993400    4.151190
  C    -145.401000    9.927420    3.050390
  C    -144.052000    9.675700    3.252730
  C    -143.711000    8.792150    4.272530
  C    -144.855000    8.266770    4.776020
  H    -143.354000   10.182100    2.657000
  C    -142.277000    8.337500    4.495240
  H    -141.851000    8.178600    3.500900
  H    -142.298000    7.425090    5.065660
  C    -141.441000    9.426470    5.346010
  H    -141.953000    9.505160    6.292260
  H    -141.487000   10.372600    4.801700
  C    -139.994000    8.985780    5.497580
  H    -139.351000    9.540610    6.142990
  H    -139.625000    9.024460    4.468940
  H    -140.085000    7.992410    5.894100
  H    -145.891000    4.035690    7.047090
  H    -145.777000   10.701800    2.454180

 Total Charge           Charge          ....    0
 Multiplicity           Mult            ....    1
 Number of Electrons    NEL             ....  134
 Basis Dimension        Dim             ....  322

ORBITAL ENERGIES
----------------

  NO   OCC          E(Eh)            E(eV)
   0   2.0000     -88.967411     -2420.9263
   1   2.0000     -88.962118     -2420.7823
   2   2.0000     -10.323224      -280.9092
   3   2.0000     -10.320277      -280.8290
   4   2.0000     -10.313692      -280.6498
   5   2.0000     -10.304875      -280.4099
   6   2.0000     -10.296132      -280.1720
   7   2.0000     -10.295709      -280.1605
   8   2.0000     -10.293817      -280.1090
   9   2.0000     -10.290852      -280.0283
  10   2.0000     -10.289679      -279.9964
  11   2.0000     -10.288786      -279.9721
  12   2.0000     -10.288042      -279.9519
  13   2.0000     -10.284630      -279.8590
  14   2.0000     -10.274319      -279.5784
  15   2.0000     -10.273382      -279.5529
  16   2.0000      -8.081623      -219.9121
  17   2.0000      -8.077441      -219.7984
  18   2.0000      -6.040077      -164.3588
  19   2.0000      -6.036335      -164.2570
  20   2.0000      -6.035838      -164.2435
  21   2.0000      -6.032339      -164.1483
  22   2.0000      -6.031946      -164.1376
  23   2.0000      -6.028197      -164.0356
  24   2.0000      -1.010156       -27.4877
  25   2.0000      -0.988645       -26.9024
  26   2.0000      -0.908627       -24.7250
  27   2.0000      -0.906741       -24.6737
  28   2.0000      -0.873344       -23.7649
  29   2.0000      -0.857043       -23.3213
  30   2.0000      -0.847584       -23.0639
  31   2.0000      -0.814261       -22.1572
  32   2.0000      -0.785039       -21.3620
  33   2.0000      -0.771110       -20.9830
  34   2.0000      -0.709783       -19.3142
  35   2.0000      -0.698217       -18.9995
  36   2.0000      -0.691801       -18.8249
  37   2.0000      -0.663396       -18.0519
  38   2.0000      -0.640395       -17.4260
  39   2.0000      -0.622246       -16.9322
  40   2.0000      -0.599457       -16.3120
  41   2.0000      -0.574638       -15.6367
  42   2.0000      -0.561893       -15.2899
  43   2.0000      -0.552939       -15.0462
  44   2.0000      -0.537808       -14.6345
  45   2.0000      -0.528977       -14.3942
  46   2.0000      -0.524403       -14.2697
  47   2.0000      -0.512653       -13.9500
  48   2.0000      -0.505255       -13.7487
  49   2.0000      -0.497316       -13.5327
  50   2.0000      -0.484642       -13.1878
  51   2.0000      -0.479662       -13.0523
  52   2.0000      -0.477387       -12.9904
  53   2.0000      -0.464883       -12.6501
  54   2.0000      -0.454857       -12.3773
  55   2.0000      -0.448671       -12.2090
  56   2.0000      -0.441467       -12.0129
  57   2.0000      -0.439108       -11.9487
  58   2.0000      -0.434378       -11.8200
  59   2.0000      -0.430640       -11.7183
  60   2.0000      -0.423031       -11.5113
  61   2.0000      -0.421854       -11.4792
  62   2.0000      -0.412149       -11.2151
  63   2.0000      -0.340069        -9.2537
  64   2.0000      -0.335728        -9.1356
  65   2.0000      -0.317270        -8.6333
  66   2.0000      -0.300409        -8.1745
  67   0.0000       0.038870         1.0577
  68   0.0000       0.054832         1.4920
  69   0.0000       0.115012         3.1296
  70   0.0000       0.117244         3.1904
  71   0.0000       0.134390         3.6570

MULLIKEN ATOMIC CHARGES
-----------------------
   0 S :    0.122097
   1 C :   -0.098705
   2 C :   -0.135622
   3 C :    0.053916
   4 C :   -0.218372
   5 H :    0.021712
   6 C :    0.126208
   7 H :    0.000056
   8 H :    0.034559
   9 C :   -0.097137
  10 H :    0.023366
  11 H :    0.036452
  12 C :   -0.048133
  13 H :    0.022697
  14 H :    0.024768
  15 H :    0.043586
  16 S :    0.124745
  17 C :   -0.074447
  18 C :   -0.017316
  19 C :    0.007974
  20 C :   -0.191715
  21 H :   -0.011197
  22 C :    0.070235
  23 H :    0.034919
  24 H :    0.027682
  25 C :   -0.102565
  26 H :    0.028761
  27 H :    0.031014
  28 C :   -0.000545
  29 H :    0.034672
  30 H :    0.029963
  31 H :    0.024708
  32 H :    0.031264
  33 H :    0.040398
Sum of atomic charges:   -0.0000000

LOEWDIN ATOMIC CHARGES
----------------------
   0 S :    0.407205
   1 C :   -0.212602
   2 C :   -0.072139
   3 C :   -0.060744
   4 C :   -0.177856
   5 H :    0.035065
   6 C :   -0.020978
   7 H :    0.019030
   8 H :    0.034902
   9 C :   -0.044668
  10 H :    0.016632
  11 H :    0.032124
  12 C :   -0.071195
  13 H :    0.026600
  14 H :    0.017906
  15 H :    0.032461
  16 S :    0.392736
  17 C :   -0.175915
  18 C :   -0.062444
  19 C :   -0.050592
  20 C :   -0.192725
  21 H :    0.018264
  22 C :   -0.017362
  23 H :    0.032481
  24 H :    0.025591
  25 C :   -0.030360
  26 H :    0.019287
  27 H :    0.019765
  28 C :   -0.061384
  29 H :    0.021717
  30 H :    0.029161
  31 H :    0.024777
  32 H :    0.025947
  33 H :    0.019312

  Mayer bond orders larger than 0.100000
B(  0-S ,  1-C ) :   1.1401 B(  0-S ,  4-C ) :   1.1406 B(  1-C ,  2-C ) :   1.6286
B(  1-C , 32-H ) :   0.9647 B(  2-C ,  3-C ) :   1.2480 B(  2-C ,  6-C ) :   1.0074
B(  3-C ,  4-C ) :   1.5879 B(  3-C ,  5-H ) :   0.9841 B(  4-C , 20-C ) :   1.0504
B(  6-C ,  7-H ) :   0.9426 B(  6-C ,  8-H ) :   0.9309 B(  6-C ,  9-C ) :   1.0768
B(  9-C , 10-H ) :   0.9504 B(  9-C , 11-H ) :   0.9551 B(  9-C , 12-C ) :   1.0806
B( 12-C , 13-H ) :   0.9715 B( 12-C , 14-H ) :   0.9732 B( 12-C , 15-H ) :   0.9733
B( 16-S , 17-C ) :   1.1429 B( 16-S , 20-C ) :   1.1340 B( 17-C , 18-C ) :   1.6128
B( 17-C , 33-H ) :   0.9736 B( 18-C , 19-C ) :   1.2431 B( 18-C , 21-H ) :   0.9933
B( 19-C , 20-C ) :   1.6026 B( 19-C , 22-C ) :   1.0367 B( 22-C , 23-H ) :   0.9431
B( 22-C , 24-H ) :   0.9209 B( 22-C , 25-C ) :   1.0497 B( 25-C , 26-H ) :   0.9560
B( 25-C , 27-H ) :   0.9646 B( 25-C , 28-C ) :   1.0766 B( 28-C , 29-H ) :   0.9756
B( 28-C , 30-H ) :   0.9747 B( 28-C , 31-H ) :   0.9723

Dispersion correction           -0.014755305
FINAL SINGLE POINT ENERGY     -1339.871818877858

DIPOLE MOMENT
-------------
                                X             Y             Z
Electronic contribution:    -22.19738      -1.46537     -17.91978
Nuclear contribution   :     22.58439       1.67588      18.22932
                        -----------------------------------------
Total Dipole Moment    :      0.38700       0.21051       0.30954
                        -----------------------------------------
Magnitude (a.u.)       :      0.53842
Magnitude (Debye)      :      1.36857

Rotational constants in cm-1:     0.016406     0.010004     0.007330
Rotational constants in MHz :   491.848533   299.909483   219.745750

                             ****ORCA TERMINATED NORMALLY****
TOTAL RUN TIME: 0 days 0 hours 0 minutes 22 seconds 254 msec
