                         Program Version 4.2.1 -  RELEASE  -
|  1> ! wB97X-D3 SP def2-SVP
|  2> %pal
|  3> nprocs 24
|  4> end
|  5>
|  6> * xyz 0 1
|  7> S 	 -49.5749 	 10.3002 	 -18.6917
|  8> C 	 -51.0302 	 9.50651 	 -18.0719
|  9> C 	 -51.5095 	 10.1987 	 -16.9333
| 10> C 	 -50.7402 	 11.3655 	 -16.5924
| 11> C 	 -49.6463 	 11.549 	 -17.4426
| 12> H 	 -50.9205 	 11.9958 	 -15.7624
| 13> C 	 -52.7553 	 9.86502 	 -16.1002
| 14> H 	 -53.1125 	 8.83971 	 -16.2906
| 15> H 	 -53.445 	 10.5186 	 -16.4966
| 16> C 	 -52.4883 	 10.2122 	 -14.608
| 17> H 	 -51.4252 	 9.90909 	 -14.3793
| 18> H 	 -52.5702 	 11.3199 	 -14.5103
| 19> C 	 -53.4162 	 9.44712 	 -13.6999
| 20> H 	 -53.511 	 8.40813 	 -13.9083
| 21> H 	 -53.1122 	 9.65441 	 -12.6314
| 22> H 	 -54.424 	 9.95995 	 -13.6555
| 23> S 	 -47.0456 	 12.0706 	 -16.5415
| 24> C 	 -46.4001 	 13.6301 	 -16.8568
| 25> C 	 -47.2815 	 14.5181 	 -17.4602
| 26> C 	 -48.5874 	 13.9116 	 -17.7524
| 27> C 	 -48.6495 	 12.6205 	 -17.2596
| 28> H 	 -46.9965 	 15.4718 	 -17.8812
| 29> C 	 -49.425 	 14.5223 	 -18.8626
| 30> H 	 -49.6195 	 15.4922 	 -18.5182
| 31> H 	 -50.3531 	 13.9421 	 -18.9251
| 32> C 	 -48.7922 	 14.6604 	 -20.2807
| 33> H 	 -48.6577 	 13.591 	 -20.6169
| 34> H 	 -47.7463 	 15.0177 	 -20.2466
| 35> C 	 -49.6693 	 15.4334 	 -21.3091
| 36> H 	 -49.1101 	 16.315 	 -21.6434
| 37> H 	 -50.6227 	 15.7459 	 -20.9009
| 38> H 	 -49.8608 	 14.7848 	 -22.1079
| 39> H 	 -51.3912 	 8.64875 	 -18.4861
| 40> H 	 -45.3474 	 13.8688 	 -16.8216
| 41> *
| 42>
| 43>                          ****END OF INPUT****

CARTESIAN COORDINATES (ANGSTROEM)
---------------------------------
  S    -49.574900   10.300200  -18.691700
  C    -51.030200    9.506510  -18.071900
  C    -51.509500   10.198700  -16.933300
  C    -50.740200   11.365500  -16.592400
  C    -49.646300   11.549000  -17.442600
  H    -50.920500   11.995800  -15.762400
  C    -52.755300    9.865020  -16.100200
  H    -53.112500    8.839710  -16.290600
  H    -53.445000   10.518600  -16.496600
  C    -52.488300   10.212200  -14.608000
  H    -51.425200    9.909090  -14.379300
  H    -52.570200   11.319900  -14.510300
  C    -53.416200    9.447120  -13.699900
  H    -53.511000    8.408130  -13.908300
  H    -53.112200    9.654410  -12.631400
  H    -54.424000    9.959950  -13.655500
  S    -47.045600   12.070600  -16.541500
  C    -46.400100   13.630100  -16.856800
  C    -47.281500   14.518100  -17.460200
  C    -48.587400   13.911600  -17.752400
  C    -48.649500   12.620500  -17.259600
  H    -46.996500   15.471800  -17.881200
  C    -49.425000   14.522300  -18.862600
  H    -49.619500   15.492200  -18.518200
  H    -50.353100   13.942100  -18.925100
  C    -48.792200   14.660400  -20.280700
  H    -48.657700   13.591000  -20.616900
  H    -47.746300   15.017700  -20.246600
  C    -49.669300   15.433400  -21.309100
  H    -49.110100   16.315000  -21.643400
  H    -50.622700   15.745900  -20.900900
  H    -49.860800   14.784800  -22.107900
  H    -51.391200    8.648750  -18.486100
  H    -45.347400   13.868800  -16.821600

 Total Charge           Charge          ....    0
 Multiplicity           Mult            ....    1
 Number of Electrons    NEL             ....  134
 Basis Dimension        Dim             ....  322

ORBITAL ENERGIES
----------------

  NO   OCC          E(Eh)            E(eV)
   0   2.0000     -88.965707     -2420.8800
   1   2.0000     -88.963683     -2420.8249
   2   2.0000     -10.329852      -281.0896
   3   2.0000     -10.329458      -281.0788
   4   2.0000     -10.316666      -280.7308
   5   2.0000     -10.311948      -280.6024
   6   2.0000     -10.306386      -280.4510
   7   2.0000     -10.304701      -280.4052
   8   2.0000     -10.294076      -280.1161
   9   2.0000     -10.293616      -280.1035
  10   2.0000     -10.292599      -280.0758
  11   2.0000     -10.291610      -280.0489
  12   2.0000     -10.289149      -279.9820
  13   2.0000     -10.287402      -279.9344
  14   2.0000     -10.282826      -279.8099
  15   2.0000     -10.276159      -279.6285
  16   2.0000      -8.079567      -219.8562
  17   2.0000      -8.077935      -219.8118
  18   2.0000      -6.038114      -164.3054
  19   2.0000      -6.036528      -164.2623
  20   2.0000      -6.034068      -164.1953
  21   2.0000      -6.032654      -164.1569
  22   2.0000      -6.030485      -164.0978
  23   2.0000      -6.028488      -164.0435
  24   2.0000      -0.993999       -27.0481
  25   2.0000      -0.973766       -26.4975
  26   2.0000      -0.910821       -24.7847
  27   2.0000      -0.903328       -24.5808
  28   2.0000      -0.862955       -23.4822
  29   2.0000      -0.848255       -23.0822
  30   2.0000      -0.844870       -22.9901
  31   2.0000      -0.808013       -21.9872
  32   2.0000      -0.782829       -21.3019
  33   2.0000      -0.769342       -20.9349
  34   2.0000      -0.707159       -19.2428
  35   2.0000      -0.697472       -18.9792
  36   2.0000      -0.688380       -18.7318
  37   2.0000      -0.658096       -17.9077
  38   2.0000      -0.643231       -17.5032
  39   2.0000      -0.614132       -16.7114
  40   2.0000      -0.592106       -16.1120
  41   2.0000      -0.574178       -15.6242
  42   2.0000      -0.561476       -15.2785
  43   2.0000      -0.555362       -15.1122
  44   2.0000      -0.525724       -14.3057
  45   2.0000      -0.520235       -14.1563
  46   2.0000      -0.515977       -14.0404
  47   2.0000      -0.511448       -13.9172
  48   2.0000      -0.502618       -13.6769
  49   2.0000      -0.500418       -13.6171
  50   2.0000      -0.491801       -13.3826
  51   2.0000      -0.481723       -13.1084
  52   2.0000      -0.468449       -12.7471
  53   2.0000      -0.465167       -12.6578
  54   2.0000      -0.454065       -12.3557
  55   2.0000      -0.451874       -12.2961
  56   2.0000      -0.445152       -12.1132
  57   2.0000      -0.437646       -11.9090
  58   2.0000      -0.434312       -11.8182
  59   2.0000      -0.420496       -11.4423
  60   2.0000      -0.414063       -11.2672
  61   2.0000      -0.412838       -11.2339
  62   2.0000      -0.410782       -11.1780
  63   2.0000      -0.332241        -9.0407
  64   2.0000      -0.326871        -8.8946
  65   2.0000      -0.316252        -8.6056
  66   2.0000      -0.305978        -8.3261
  67   0.0000       0.037738         1.0269
  68   0.0000       0.055360         1.5064
  69   0.0000       0.105888         2.8814
  70   0.0000       0.119022         3.2388
  71   0.0000       0.127929         3.4811

MULLIKEN ATOMIC CHARGES
-----------------------
   0 S :    0.108539
   1 C :   -0.098705
   2 C :   -0.103158
   3 C :    0.045142
   4 C :   -0.158018
   5 H :    0.005572
   6 C :    0.117629
   7 H :    0.021746
   8 H :    0.024891
   9 C :   -0.154310
  10 H :    0.054144
  11 H :    0.048202
  12 C :   -0.032815
  13 H :    0.042783
  14 H :    0.033851
  15 H :    0.029040
  16 S :    0.100374
  17 C :   -0.077849
  18 C :   -0.048475
  19 C :   -0.016284
  20 C :   -0.196244
  21 H :    0.019038
  22 C :    0.079310
  23 H :    0.012682
  24 H :    0.037556
  25 C :   -0.123483
  26 H :    0.036204
  27 H :    0.030805
  28 C :   -0.008207
  29 H :    0.039120
  30 H :    0.030297
  31 H :    0.029729
  32 H :    0.011093
  33 H :    0.059799
Sum of atomic charges:    0.0000000

LOEWDIN ATOMIC CHARGES
----------------------
   0 S :    0.392261
   1 C :   -0.185412
   2 C :   -0.050930
   3 C :   -0.055137
   4 C :   -0.197310
   5 H :    0.027469
   6 C :   -0.025575
   7 H :    0.028990
   8 H :    0.024702
   9 C :   -0.048125
  10 H :    0.031451
  11 H :    0.029490
  12 C :   -0.071707
  13 H :    0.021642
  14 H :    0.033007
  15 H :    0.031511
  16 S :    0.379260
  17 C :   -0.188347
  18 C :   -0.073095
  19 C :   -0.045868
  20 C :   -0.178536
  21 H :    0.027191
  22 C :   -0.027867
  23 H :    0.020650
  24 H :    0.033555
  25 C :   -0.043717
  26 H :    0.029237
  27 H :    0.022828
  28 C :   -0.058159
  29 H :    0.031662
  30 H :    0.025937
  31 H :    0.023365
  32 H :    0.006125
  33 H :    0.029452

  Mayer bond orders larger than 0.100000
B(  0-S ,  1-C ) :   1.1321 B(  0-S ,  4-C ) :   1.1535 B(  1-C ,  2-C ) :   1.5948
B(  1-C , 32-H ) :   0.9883 B(  2-C ,  3-C ) :   1.2385 B(  2-C ,  6-C ) :   1.0103
B(  3-C ,  4-C ) :   1.5698 B(  3-C ,  5-H ) :   0.9942 B(  4-C , 20-C ) :   1.0163
B(  6-C ,  7-H ) :   0.9502 B(  6-C ,  8-H ) :   0.9292 B(  6-C ,  9-C ) :   1.0509
B(  9-C , 10-H ) :   0.9684 B(  9-C , 11-H ) :   0.9419 B(  9-C , 12-C ) :   1.0911
B( 12-C , 13-H ) :   0.9764 B( 12-C , 14-H ) :   0.9704 B( 12-C , 15-H ) :   0.9684
B( 16-S , 17-C ) :   1.1540 B( 16-S , 20-C ) :   1.1080 B( 17-C , 18-C ) :   1.6453
B( 17-C , 33-H ) :   0.9617 B( 18-C , 19-C ) :   1.1952 B( 18-C , 21-H ) :   0.9840
B( 19-C , 20-C ) :   1.6549 B( 19-C , 22-C ) :   1.0558 B( 22-C , 23-H ) :   0.9240
B( 22-C , 24-H ) :   0.9357 B( 22-C , 25-C ) :   1.0602 B( 25-C , 26-H ) :   0.9628
B( 25-C , 27-H ) :   0.9604 B( 25-C , 28-C ) :   1.0522 B( 28-C , 29-H ) :   0.9783
B( 28-C , 30-H ) :   0.9801 B( 28-C , 31-H ) :   0.9781

Dispersion correction           -0.013792023
FINAL SINGLE POINT ENERGY     -1339.860354995067

DIPOLE MOMENT
-------------
                                X             Y             Z
Electronic contribution:     17.31841      -7.04908      -0.27350
Nuclear contribution   :    -17.70548       7.29431       0.14015
                        -----------------------------------------
Total Dipole Moment    :     -0.38707       0.24523      -0.13335
                        -----------------------------------------
Magnitude (a.u.)       :      0.47722
Magnitude (Debye)      :      1.21301

Rotational constants in cm-1:     0.019311     0.007439     0.006595
Rotational constants in MHz :   578.915747   223.012749   197.701078

                             ****ORCA TERMINATED NORMALLY****
TOTAL RUN TIME: 0 days 0 hours 0 minutes 20 seconds 965 msec
