                         Program Version 4.2.1 -  RELEASE  -
|  1> ! wB97X-D3 SP def2-SVP
|  2> %pal
|  3> nprocs 24
|  4> end
|  5>
|  6> * xyz 0 1
|  7> S 	 -49.0442 	 23.8239 	 23.3099
|  8> C 	 -50.7932 	 24.0794 	 23.4886
|  9> C 	 -51.4019 	 22.8661 	 23.657
| 10> C 	 -50.5503 	 21.7083 	 23.4856
| 11> C 	 -49.2073 	 22.0416 	 23.3322
| 12> H 	 -50.8151 	 20.666 	 23.4486
| 13> C 	 -52.8197 	 22.7948 	 23.9864
| 14> H 	 -53.261 	 22.0001 	 23.3937
| 15> H 	 -53.1617 	 23.8092 	 23.762
| 16> C 	 -53.1852 	 22.5158 	 25.4745
| 17> H 	 -52.6184 	 23.1865 	 26.0826
| 18> H 	 -54.1909 	 22.8878 	 25.6909
| 19> C 	 -53.0317 	 21.0267 	 25.9482
| 20> H 	 -53.3306 	 20.9102 	 26.9663
| 21> H 	 -53.6512 	 20.3962 	 25.3464
| 22> H 	 -51.9838 	 20.7226 	 25.7245
| 23> S 	 -46.8652 	 21.3004 	 24.3474
| 24> C 	 -45.7598 	 20.4596 	 23.1888
| 25> C 	 -46.451 	 19.9168 	 22.1052
| 26> C 	 -47.8505 	 20.2251 	 22.1326
| 27> C 	 -48.0901 	 21.2057 	 23.1428
| 28> H 	 -45.8697 	 19.426 	 21.3761
| 29> C 	 -48.824 	 19.7643 	 21.0696
| 30> H 	 -48.3452 	 19.5303 	 20.1081
| 31> H 	 -49.4284 	 20.6691 	 20.893
| 32> C 	 -49.6558 	 18.4863 	 21.3478
| 33> H 	 -50.3064 	 18.6804 	 22.2295
| 34> H 	 -49.0602 	 17.727 	 21.7929
| 35> C 	 -50.4198 	 17.9326 	 20.1141
| 36> H 	 -50.9552 	 18.8215 	 19.7328
| 37> H 	 -51.1909 	 17.1347 	 20.3922
| 38> H 	 -49.7287 	 17.5065 	 19.4136
| 39> H 	 -51.2949 	 25.0028 	 23.8221
| 40> H 	 -44.7066 	 20.272 	 23.3125
| 41> *
| 42>
| 43>                          ****END OF INPUT****

CARTESIAN COORDINATES (ANGSTROEM)
---------------------------------
  S    -49.044200   23.823900   23.309900
  C    -50.793200   24.079400   23.488600
  C    -51.401900   22.866100   23.657000
  C    -50.550300   21.708300   23.485600
  C    -49.207300   22.041600   23.332200
  H    -50.815100   20.666000   23.448600
  C    -52.819700   22.794800   23.986400
  H    -53.261000   22.000100   23.393700
  H    -53.161700   23.809200   23.762000
  C    -53.185200   22.515800   25.474500
  H    -52.618400   23.186500   26.082600
  H    -54.190900   22.887800   25.690900
  C    -53.031700   21.026700   25.948200
  H    -53.330600   20.910200   26.966300
  H    -53.651200   20.396200   25.346400
  H    -51.983800   20.722600   25.724500
  S    -46.865200   21.300400   24.347400
  C    -45.759800   20.459600   23.188800
  C    -46.451000   19.916800   22.105200
  C    -47.850500   20.225100   22.132600
  C    -48.090100   21.205700   23.142800
  H    -45.869700   19.426000   21.376100
  C    -48.824000   19.764300   21.069600
  H    -48.345200   19.530300   20.108100
  H    -49.428400   20.669100   20.893000
  C    -49.655800   18.486300   21.347800
  H    -50.306400   18.680400   22.229500
  H    -49.060200   17.727000   21.792900
  C    -50.419800   17.932600   20.114100
  H    -50.955200   18.821500   19.732800
  H    -51.190900   17.134700   20.392200
  H    -49.728700   17.506500   19.413600
  H    -51.294900   25.002800   23.822100
  H    -44.706600   20.272000   23.312500

 Total Charge           Charge          ....    0
 Multiplicity           Mult            ....    1
 Number of Electrons    NEL             ....  134
 Basis Dimension        Dim             ....  322

ORBITAL ENERGIES
----------------

  NO   OCC          E(Eh)            E(eV)
   0   2.0000     -88.970600     -2421.0131
   1   2.0000     -88.962760     -2420.7998
   2   2.0000     -10.330249      -281.1004
   3   2.0000     -10.325951      -280.9834
   4   2.0000     -10.319375      -280.8045
   5   2.0000     -10.313630      -280.6482
   6   2.0000     -10.312696      -280.6227
   7   2.0000     -10.297132      -280.1992
   8   2.0000     -10.296889      -280.1926
   9   2.0000     -10.295873      -280.1650
  10   2.0000     -10.295698      -280.1602
  11   2.0000     -10.288757      -279.9713
  12   2.0000     -10.288732      -279.9706
  13   2.0000     -10.287205      -279.9291
  14   2.0000     -10.285477      -279.8821
  15   2.0000     -10.278285      -279.6863
  16   2.0000      -8.084797      -219.9985
  17   2.0000      -8.076513      -219.7731
  18   2.0000      -6.043267      -164.4457
  19   2.0000      -6.039572      -164.3451
  20   2.0000      -6.035431      -164.2324
  21   2.0000      -6.035214      -164.2265
  22   2.0000      -6.031144      -164.1158
  23   2.0000      -6.027101      -164.0058
  24   2.0000      -1.005589       -27.3635
  25   2.0000      -0.978974       -26.6392
  26   2.0000      -0.912380       -24.8271
  27   2.0000      -0.905804       -24.6482
  28   2.0000      -0.872182       -23.7333
  29   2.0000      -0.851184       -23.1619
  30   2.0000      -0.840725       -22.8773
  31   2.0000      -0.818645       -22.2765
  32   2.0000      -0.782453       -21.2916
  33   2.0000      -0.766138       -20.8477
  34   2.0000      -0.712698       -19.3935
  35   2.0000      -0.704492       -19.1702
  36   2.0000      -0.698121       -18.9968
  37   2.0000      -0.663656       -18.0590
  38   2.0000      -0.638784       -17.3822
  39   2.0000      -0.613796       -16.7022
  40   2.0000      -0.592547       -16.1240
  41   2.0000      -0.573760       -15.6128
  42   2.0000      -0.564293       -15.3552
  43   2.0000      -0.548047       -14.9131
  44   2.0000      -0.538086       -14.6421
  45   2.0000      -0.524353       -14.2684
  46   2.0000      -0.517202       -14.0738
  47   2.0000      -0.513729       -13.9793
  48   2.0000      -0.508052       -13.8248
  49   2.0000      -0.503652       -13.7051
  50   2.0000      -0.488126       -13.2826
  51   2.0000      -0.481188       -13.0938
  52   2.0000      -0.472628       -12.8609
  53   2.0000      -0.462459       -12.5842
  54   2.0000      -0.455236       -12.3876
  55   2.0000      -0.451364       -12.2822
  56   2.0000      -0.442915       -12.0523
  57   2.0000      -0.437132       -11.8950
  58   2.0000      -0.435697       -11.8559
  59   2.0000      -0.434535       -11.8243
  60   2.0000      -0.418885       -11.3985
  61   2.0000      -0.411056       -11.1854
  62   2.0000      -0.410454       -11.1690
  63   2.0000      -0.342571        -9.3218
  64   2.0000      -0.331180        -9.0119
  65   2.0000      -0.324422        -8.8280
  66   2.0000      -0.291423        -7.9300
  67   0.0000       0.018913         0.5146
  68   0.0000       0.063345         1.7237
  69   0.0000       0.103820         2.8251
  70   0.0000       0.114471         3.1149
  71   0.0000       0.123542         3.3617

MULLIKEN ATOMIC CHARGES
-----------------------
   0 S :    0.099374
   1 C :   -0.117435
   2 C :   -0.111359
   3 C :    0.055744
   4 C :   -0.166804
   5 H :    0.003553
   6 C :    0.069758
   7 H :    0.025612
   8 H :    0.015289
   9 C :   -0.057340
  10 H :    0.008490
  11 H :    0.022269
  12 C :   -0.037858
  13 H :    0.039083
  14 H :    0.018346
  15 H :    0.040502
  16 S :    0.127635
  17 C :   -0.093876
  18 C :   -0.028681
  19 C :    0.020377
  20 C :   -0.193796
  21 H :    0.009180
  22 C :    0.038110
  23 H :    0.016359
  24 H :    0.044979
  25 C :   -0.064543
  26 H :    0.015302
  27 H :    0.015628
  28 C :   -0.063781
  29 H :    0.043371
  30 H :    0.051369
  31 H :    0.041454
  32 H :    0.064230
  33 H :    0.049459
Sum of atomic charges:   -0.0000000

LOEWDIN ATOMIC CHARGES
----------------------
   0 S :    0.377785
   1 C :   -0.202037
   2 C :   -0.065093
   3 C :   -0.062385
   4 C :   -0.183368
   5 H :    0.027417
   6 C :   -0.031913
   7 H :    0.030255
   8 H :    0.033963
   9 C :   -0.036345
  10 H :    0.016666
  11 H :    0.022215
  12 C :   -0.061067
  13 H :    0.025430
  14 H :    0.018598
  15 H :    0.030318
  16 S :    0.405706
  17 C :   -0.171376
  18 C :   -0.058046
  19 C :   -0.041579
  20 C :   -0.212750
  21 H :    0.027550
  22 C :   -0.038564
  23 H :    0.029879
  24 H :    0.037372
  25 C :   -0.045683
  26 H :    0.020606
  27 H :    0.017808
  28 C :   -0.066798
  29 H :    0.030797
  30 H :    0.038324
  31 H :    0.022637
  32 H :    0.038132
  33 H :    0.025546

  Mayer bond orders larger than 0.100000
B(  0-S ,  1-C ) :   1.1126 B(  0-S ,  4-C ) :   1.1359 B(  1-C ,  2-C ) :   1.6463
B(  1-C , 32-H ) :   0.9537 B(  2-C ,  3-C ) :   1.1916 B(  2-C ,  6-C ) :   1.0522
B(  3-C ,  4-C ) :   1.5752 B(  3-C ,  5-H ) :   0.9956 B(  4-C , 20-C ) :   1.0798
B(  6-C ,  7-H ) :   0.9367 B(  6-C ,  8-H ) :   0.9306 B(  6-C ,  9-C ) :   1.0669
B(  9-C , 10-H ) :   0.9523 B(  9-C , 11-H ) :   0.9572 B(  9-C , 12-C ) :   1.0699
B( 12-C , 13-H ) :   0.9736 B( 12-C , 14-H ) :   0.9766 B( 12-C , 15-H ) :   0.9741
B( 16-S , 17-C ) :   1.1213 B( 16-S , 20-C ) :   1.1656 B( 17-C , 18-C ) :   1.6364
B( 17-C , 20-C ) :   0.1061 B( 17-C , 33-H ) :   0.9685 B( 18-C , 19-C ) :   1.2210
B( 18-C , 21-H ) :   0.9959 B( 19-C , 20-C ) :   1.5371 B( 19-C , 22-C ) :   1.0528
B( 22-C , 23-H ) :   0.9420 B( 22-C , 24-H ) :   0.9260 B( 22-C , 25-C ) :   1.0496
B( 25-C , 26-H ) :   0.9486 B( 25-C , 27-H ) :   0.9523 B( 25-C , 28-C ) :   1.0731
B( 28-C , 29-H ) :   0.9766 B( 28-C , 30-H ) :   0.9740 B( 28-C , 31-H ) :   0.9754

Dispersion correction           -0.014496616
FINAL SINGLE POINT ENERGY     -1339.860304268140

DIPOLE MOMENT
-------------
                                X             Y             Z
Electronic contribution:     22.26393      14.70901       4.31695
Nuclear contribution   :    -22.61190     -15.17807      -4.44673
                        -----------------------------------------
Total Dipole Moment    :     -0.34797      -0.46906      -0.12979
                        -----------------------------------------
Magnitude (a.u.)       :      0.59828
Magnitude (Debye)      :      1.52071

Rotational constants in cm-1:     0.016280     0.009445     0.007270
Rotational constants in MHz :   488.059980   283.164084   217.942066

                             ****ORCA TERMINATED NORMALLY****
TOTAL RUN TIME: 0 days 0 hours 0 minutes 20 seconds 520 msec
