                         Program Version 4.2.1 -  RELEASE  -
|  1> ! wB97X-D3 SP def2-SVP
|  2> %pal
|  3> nprocs 24
|  4> end
|  5>
|  6> * xyz 0 1
|  7> S 	 -44.3137 	 11.2077 	 26.4645
|  8> C 	 -44.2842 	 12.7039 	 27.3195
|  9> C 	 -45.4574 	 13.3616 	 27.2605
| 10> C 	 -46.3672 	 12.7483 	 26.3414
| 11> C 	 -45.8484 	 11.5831 	 25.7788
| 12> H 	 -47.309 	 13.0935 	 25.9677
| 13> C 	 -45.6567 	 14.7625 	 27.7845
| 14> H 	 -44.8691 	 14.8944 	 28.5697
| 15> H 	 -46.6764 	 14.6029 	 28.3204
| 16> C 	 -45.6578 	 15.9125 	 26.7181
| 17> H 	 -46.4358 	 15.5642 	 25.9508
| 18> H 	 -45.9943 	 16.8265 	 27.1903
| 19> C 	 -44.3418 	 16.2854 	 26.0944
| 20> H 	 -43.627 	 15.5514 	 25.7363
| 21> H 	 -44.4625 	 16.9164 	 25.1782
| 22> H 	 -43.7971 	 16.8435 	 26.8594
| 23> S 	 -47.0544 	 9.20414 	 25.3183
| 24> C 	 -47.7174 	 8.87804 	 23.7306
| 25> C 	 -47.5641 	 9.8795 	 22.8306
| 26> C 	 -46.8754 	 10.9719 	 23.4344
| 27> C 	 -46.4248 	 10.7411 	 24.731
| 28> H 	 -47.8691 	 9.69922 	 21.7842
| 29> C 	 -46.7139 	 12.3079 	 22.7375
| 30> H 	 -46.3104 	 12.1107 	 21.762
| 31> H 	 -45.9804 	 12.9527 	 23.259
| 32> C 	 -48.0494 	 12.9376 	 22.5685
| 33> H 	 -48.6608 	 12.6533 	 23.413
| 34> H 	 -48.4601 	 12.4539 	 21.6332
| 35> C 	 -47.9252 	 14.4682 	 22.3881
| 36> H 	 -47.6332 	 15.0401 	 23.2509
| 37> H 	 -48.8646 	 14.9443 	 22.0179
| 38> H 	 -47.0404 	 14.7093 	 21.7601
| 39> H 	 -43.4078 	 12.9667 	 27.8951
| 40> H 	 -47.9044 	 7.91997 	 23.4066
| 41> *
| 42>
| 43>                          ****END OF INPUT****

CARTESIAN COORDINATES (ANGSTROEM)
---------------------------------
  S    -44.313700   11.207700   26.464500
  C    -44.284200   12.703900   27.319500
  C    -45.457400   13.361600   27.260500
  C    -46.367200   12.748300   26.341400
  C    -45.848400   11.583100   25.778800
  H    -47.309000   13.093500   25.967700
  C    -45.656700   14.762500   27.784500
  H    -44.869100   14.894400   28.569700
  H    -46.676400   14.602900   28.320400
  C    -45.657800   15.912500   26.718100
  H    -46.435800   15.564200   25.950800
  H    -45.994300   16.826500   27.190300
  C    -44.341800   16.285400   26.094400
  H    -43.627000   15.551400   25.736300
  H    -44.462500   16.916400   25.178200
  H    -43.797100   16.843500   26.859400
  S    -47.054400    9.204140   25.318300
  C    -47.717400    8.878040   23.730600
  C    -47.564100    9.879500   22.830600
  C    -46.875400   10.971900   23.434400
  C    -46.424800   10.741100   24.731000
  H    -47.869100    9.699220   21.784200
  C    -46.713900   12.307900   22.737500
  H    -46.310400   12.110700   21.762000
  H    -45.980400   12.952700   23.259000
  C    -48.049400   12.937600   22.568500
  H    -48.660800   12.653300   23.413000
  H    -48.460100   12.453900   21.633200
  C    -47.925200   14.468200   22.388100
  H    -47.633200   15.040100   23.250900
  H    -48.864600   14.944300   22.017900
  H    -47.040400   14.709300   21.760100
  H    -43.407800   12.966700   27.895100
  H    -47.904400    7.919970   23.406600

 Total Charge           Charge          ....    0
 Multiplicity           Mult            ....    1
 Number of Electrons    NEL             ....  134
 Basis Dimension        Dim             ....  322

ORBITAL ENERGIES
----------------

  NO   OCC          E(Eh)            E(eV)
   0   2.0000     -88.961845     -2420.7749
   1   2.0000     -88.960536     -2420.7392
   2   2.0000     -10.326137      -280.9885
   3   2.0000     -10.324429      -280.9420
   4   2.0000     -10.307881      -280.4917
   5   2.0000     -10.307459      -280.4802
   6   2.0000     -10.304550      -280.4011
   7   2.0000     -10.303765      -280.3797
   8   2.0000     -10.298313      -280.2313
   9   2.0000     -10.296354      -280.1780
  10   2.0000     -10.294843      -280.1369
  11   2.0000     -10.293948      -280.1126
  12   2.0000     -10.287172      -279.9282
  13   2.0000     -10.283237      -279.8211
  14   2.0000     -10.282792      -279.8090
  15   2.0000     -10.280713      -279.7524
  16   2.0000      -8.078047      -219.8148
  17   2.0000      -8.075564      -219.7473
  18   2.0000      -6.036345      -164.2573
  19   2.0000      -6.034022      -164.1941
  20   2.0000      -6.032332      -164.1481
  21   2.0000      -6.030088      -164.0870
  22   2.0000      -6.028958      -164.0563
  23   2.0000      -6.026297      -163.9839
  24   2.0000      -1.010933       -27.5089
  25   2.0000      -0.989388       -26.9226
  26   2.0000      -0.916508       -24.9395
  27   2.0000      -0.910011       -24.7627
  28   2.0000      -0.873239       -23.7620
  29   2.0000      -0.851062       -23.1586
  30   2.0000      -0.845001       -22.9936
  31   2.0000      -0.817856       -22.2550
  32   2.0000      -0.782293       -21.2873
  33   2.0000      -0.771647       -20.9976
  34   2.0000      -0.709174       -19.2976
  35   2.0000      -0.697965       -18.9926
  36   2.0000      -0.692772       -18.8513
  37   2.0000      -0.660090       -17.9620
  38   2.0000      -0.646752       -17.5990
  39   2.0000      -0.618098       -16.8193
  40   2.0000      -0.597195       -16.2505
  41   2.0000      -0.569498       -15.4968
  42   2.0000      -0.565261       -15.3815
  43   2.0000      -0.549616       -14.9558
  44   2.0000      -0.543109       -14.7788
  45   2.0000      -0.524151       -14.2629
  46   2.0000      -0.520109       -14.1529
  47   2.0000      -0.516354       -14.0507
  48   2.0000      -0.506992       -13.7959
  49   2.0000      -0.498051       -13.5526
  50   2.0000      -0.485788       -13.2190
  51   2.0000      -0.483149       -13.1472
  52   2.0000      -0.469363       -12.7720
  53   2.0000      -0.464562       -12.6414
  54   2.0000      -0.457020       -12.4361
  55   2.0000      -0.449000       -12.2179
  56   2.0000      -0.443013       -12.0550
  57   2.0000      -0.439040       -11.9469
  58   2.0000      -0.433889       -11.8067
  59   2.0000      -0.424504       -11.5513
  60   2.0000      -0.419708       -11.4208
  61   2.0000      -0.413807       -11.2603
  62   2.0000      -0.409184       -11.1345
  63   2.0000      -0.340781        -9.2731
  64   2.0000      -0.330084        -8.9820
  65   2.0000      -0.324373        -8.8266
  66   2.0000      -0.304535        -8.2868
  67   0.0000       0.039048         1.0626
  68   0.0000       0.065263         1.7759
  69   0.0000       0.115734         3.1493
  70   0.0000       0.119963         3.2644
  71   0.0000       0.124415         3.3855

MULLIKEN ATOMIC CHARGES
-----------------------
   0 S :    0.117689
   1 C :   -0.131303
   2 C :   -0.057599
   3 C :    0.049215
   4 C :   -0.186081
   5 H :   -0.001007
   6 C :    0.011894
   7 H :    0.024335
   8 H :    0.050642
   9 C :   -0.049943
  10 H :    0.040361
  11 H :    0.037083
  12 C :   -0.067773
  13 H :    0.035690
  14 H :    0.041175
  15 H :    0.027763
  16 S :    0.092938
  17 C :   -0.049916
  18 C :   -0.054912
  19 C :   -0.059487
  20 C :   -0.149608
  21 H :    0.037025
  22 C :    0.080487
  23 H :    0.017516
  24 H :    0.032088
  25 C :   -0.084162
  26 H :    0.042266
  27 H :    0.038176
  28 C :   -0.055698
  29 H :    0.023033
  30 H :    0.044872
  31 H :    0.027288
  32 H :    0.046877
  33 H :    0.029074
Sum of atomic charges:   -0.0000000

LOEWDIN ATOMIC CHARGES
----------------------
   0 S :    0.424738
   1 C :   -0.198428
   2 C :   -0.076954
   3 C :   -0.055490
   4 C :   -0.208865
   5 H :    0.026934
   6 C :   -0.039259
   7 H :    0.028273
   8 H :    0.045557
   9 C :   -0.042346
  10 H :    0.029360
  11 H :    0.028382
  12 C :   -0.075352
  13 H :    0.024509
  14 H :    0.035348
  15 H :    0.026778
  16 S :    0.394857
  17 C :   -0.165587
  18 C :   -0.073982
  19 C :   -0.048274
  20 C :   -0.202621
  21 H :    0.042549
  22 C :   -0.034581
  23 H :    0.027063
  24 H :    0.029581
  25 C :   -0.041750
  26 H :    0.021955
  27 H :    0.032237
  28 C :   -0.073281
  29 H :    0.021159
  30 H :    0.030569
  31 H :    0.029646
  32 H :    0.026128
  33 H :    0.011146

  Mayer bond orders larger than 0.100000
B(  0-S ,  1-C ) :   1.1462 B(  0-S ,  4-C ) :   1.1725 B(  1-C ,  2-C ) :   1.6171
B(  1-C , 32-H ) :   0.9706 B(  2-C ,  3-C ) :   1.2068 B(  2-C ,  6-C ) :   1.0211
B(  3-C ,  4-C ) :   1.5851 B(  3-C ,  5-H ) :   1.0049 B(  4-C , 20-C ) :   0.9906
B(  6-C ,  7-H ) :   0.9465 B(  6-C ,  8-H ) :   0.9364 B(  6-C ,  9-C ) :   1.0566
B(  9-C , 10-H ) :   0.9542 B(  9-C , 11-H ) :   0.9547 B(  9-C , 12-C ) :   1.0687
B( 12-C , 13-H ) :   0.9777 B( 12-C , 14-H ) :   0.9715 B( 12-C , 15-H ) :   0.9741
B( 16-S , 17-C ) :   1.1578 B( 16-S , 20-C ) :   1.1361 B( 17-C , 18-C ) :   1.6439
B( 17-C , 33-H ) :   0.9641 B( 18-C , 19-C ) :   1.2033 B( 18-C , 21-H ) :   0.9874
B( 19-C , 20-C ) :   1.6367 B( 19-C , 22-C ) :   1.0542 B( 22-C , 23-H ) :   0.9220
B( 22-C , 24-H ) :   0.9454 B( 22-C , 25-C ) :   1.0442 B( 25-C , 26-H ) :   0.9648
B( 25-C , 27-H ) :   0.9500 B( 25-C , 28-C ) :   1.0787 B( 28-C , 29-H ) :   0.9750
B( 28-C , 30-H ) :   0.9743 B( 28-C , 31-H ) :   0.9682

Dispersion correction           -0.015277816
FINAL SINGLE POINT ENERGY     -1339.872918057199

DIPOLE MOMENT
-------------
                                X             Y             Z
Electronic contribution:      3.73945     -28.91250       8.59590
Nuclear contribution   :     -3.79393      29.50402      -8.92704
                        -----------------------------------------
Total Dipole Moment    :     -0.05448       0.59152      -0.33114
                        -----------------------------------------
Magnitude (a.u.)       :      0.68009
Magnitude (Debye)      :      1.72865

Rotational constants in cm-1:     0.018315     0.010122     0.007181
Rotational constants in MHz :   549.082231   303.435328   215.288999

                             ****ORCA TERMINATED NORMALLY****
TOTAL RUN TIME: 0 days 0 hours 0 minutes 22 seconds 590 msec
