                         Program Version 4.2.1 -  RELEASE  -
|  1> ! wB97X-D3 SP def2-SVP
|  2> %pal
|  3> nprocs 24
|  4> end
|  5>
|  6> * xyz 0 1
|  7> S 	 -130.241 	 59.6838 	 -58.8969
|  8> C 	 -130.796 	 59.1729 	 -57.3029
|  9> C 	 -129.708 	 58.7386 	 -56.5684
| 10> C 	 -128.525 	 58.6604 	 -57.3817
| 11> C 	 -128.622 	 59.1972 	 -58.6415
| 12> H 	 -127.536 	 58.3372 	 -57.0311
| 13> C 	 -129.712 	 58.1797 	 -55.0954
| 14> H 	 -128.765 	 57.7333 	 -54.9109
| 15> H 	 -130.439 	 57.4041 	 -54.9816
| 16> C 	 -129.993 	 59.2262 	 -54.0017
| 17> H 	 -129.249 	 60.0916 	 -54.0537
| 18> H 	 -130.973 	 59.5932 	 -54.2726
| 19> C 	 -130.072 	 58.7257 	 -52.5708
| 20> H 	 -129.172 	 58.0836 	 -52.4231
| 21> H 	 -129.842 	 59.5198 	 -51.8979
| 22> H 	 -131.027 	 58.2382 	 -52.2496
| 23> S 	 -127.426 	 58.2084 	 -60.8892
| 24> C 	 -126.428 	 59.2979 	 -61.8653
| 25> C 	 -126.265 	 60.487 	 -61.2249
| 26> C 	 -126.901 	 60.5587 	 -59.9231
| 27> C 	 -127.623 	 59.3782 	 -59.6071
| 28> H 	 -125.711 	 61.2259 	 -61.7563
| 29> C 	 -126.93 	 61.7999 	 -59.0904
| 30> H 	 -125.946 	 62.1905 	 -59.0659
| 31> H 	 -127.207 	 61.483 	 -58.129
| 32> C 	 -127.925 	 62.8328 	 -59.5151
| 33> H 	 -128.918 	 62.4262 	 -59.7023
| 34> H 	 -127.613 	 63.1226 	 -60.5194
| 35> C 	 -127.95 	 64.0437 	 -58.6616
| 36> H 	 -128.731 	 64.7045 	 -59.0772
| 37> H 	 -127.019 	 64.6868 	 -58.6541
| 38> H 	 -128.318 	 63.7786 	 -57.7117
| 39> H 	 -131.728 	 59.5871 	 -56.8989
| 40> H 	 -125.993 	 59.0604 	 -62.7957
| 41> *
| 42>
| 43>                          ****END OF INPUT****

CARTESIAN COORDINATES (ANGSTROEM)
---------------------------------
  S    -130.241000   59.683800  -58.896900
  C    -130.796000   59.172900  -57.302900
  C    -129.708000   58.738600  -56.568400
  C    -128.525000   58.660400  -57.381700
  C    -128.622000   59.197200  -58.641500
  H    -127.536000   58.337200  -57.031100
  C    -129.712000   58.179700  -55.095400
  H    -128.765000   57.733300  -54.910900
  H    -130.439000   57.404100  -54.981600
  C    -129.993000   59.226200  -54.001700
  H    -129.249000   60.091600  -54.053700
  H    -130.973000   59.593200  -54.272600
  C    -130.072000   58.725700  -52.570800
  H    -129.172000   58.083600  -52.423100
  H    -129.842000   59.519800  -51.897900
  H    -131.027000   58.238200  -52.249600
  S    -127.426000   58.208400  -60.889200
  C    -126.428000   59.297900  -61.865300
  C    -126.265000   60.487000  -61.224900
  C    -126.901000   60.558700  -59.923100
  C    -127.623000   59.378200  -59.607100
  H    -125.711000   61.225900  -61.756300
  C    -126.930000   61.799900  -59.090400
  H    -125.946000   62.190500  -59.065900
  H    -127.207000   61.483000  -58.129000
  C    -127.925000   62.832800  -59.515100
  H    -128.918000   62.426200  -59.702300
  H    -127.613000   63.122600  -60.519400
  C    -127.950000   64.043700  -58.661600
  H    -128.731000   64.704500  -59.077200
  H    -127.019000   64.686800  -58.654100
  H    -128.318000   63.778600  -57.711700
  H    -131.728000   59.587100  -56.898900
  H    -125.993000   59.060400  -62.795700

 Total Charge           Charge          ....    0
 Multiplicity           Mult            ....    1
 Number of Electrons    NEL             ....  134
 Basis Dimension        Dim             ....  322

ORBITAL ENERGIES
----------------

  NO   OCC          E(Eh)            E(eV)
   0   2.0000     -88.964095     -2420.8361
   1   2.0000     -88.962296     -2420.7872
   2   2.0000     -10.322739      -280.8960
   3   2.0000     -10.322272      -280.8833
   4   2.0000     -10.317930      -280.7652
   5   2.0000     -10.315423      -280.6969
   6   2.0000     -10.308737      -280.5150
   7   2.0000     -10.306942      -280.4662
   8   2.0000     -10.294779      -280.1352
   9   2.0000     -10.292248      -280.0663
  10   2.0000     -10.292222      -280.0656
  11   2.0000     -10.290280      -280.0127
  12   2.0000     -10.282054      -279.7889
  13   2.0000     -10.275281      -279.6046
  14   2.0000     -10.274853      -279.5930
  15   2.0000     -10.273751      -279.5630
  16   2.0000      -8.079302      -219.8490
  17   2.0000      -8.076905      -219.7837
  18   2.0000      -6.037765      -164.2960
  19   2.0000      -6.035446      -164.2328
  20   2.0000      -6.033518      -164.1804
  21   2.0000      -6.031289      -164.1197
  22   2.0000      -6.030274      -164.0921
  23   2.0000      -6.027768      -164.0239
  24   2.0000      -1.011138       -27.5145
  25   2.0000      -0.982796       -26.7432
  26   2.0000      -0.918282       -24.9877
  27   2.0000      -0.910462       -24.7749
  28   2.0000      -0.877980       -23.8911
  29   2.0000      -0.850123       -23.1330
  30   2.0000      -0.846144       -23.0247
  31   2.0000      -0.818048       -22.2602
  32   2.0000      -0.787007       -21.4156
  33   2.0000      -0.771660       -20.9979
  34   2.0000      -0.708517       -19.2797
  35   2.0000      -0.697097       -18.9690
  36   2.0000      -0.693844       -18.8805
  37   2.0000      -0.659413       -17.9435
  38   2.0000      -0.646304       -17.5868
  39   2.0000      -0.616283       -16.7699
  40   2.0000      -0.597266       -16.2524
  41   2.0000      -0.574654       -15.6371
  42   2.0000      -0.571912       -15.5625
  43   2.0000      -0.566372       -15.4118
  44   2.0000      -0.525965       -14.3122
  45   2.0000      -0.524628       -14.2759
  46   2.0000      -0.520891       -14.1742
  47   2.0000      -0.512955       -13.9582
  48   2.0000      -0.509721       -13.8702
  49   2.0000      -0.503084       -13.6896
  50   2.0000      -0.501197       -13.6383
  51   2.0000      -0.479554       -13.0493
  52   2.0000      -0.471894       -12.8409
  53   2.0000      -0.468182       -12.7399
  54   2.0000      -0.462896       -12.5960
  55   2.0000      -0.448109       -12.1937
  56   2.0000      -0.443311       -12.0631
  57   2.0000      -0.431123       -11.7314
  58   2.0000      -0.427433       -11.6310
  59   2.0000      -0.421423       -11.4675
  60   2.0000      -0.417613       -11.3638
  61   2.0000      -0.415036       -11.2937
  62   2.0000      -0.409882       -11.1535
  63   2.0000      -0.335944        -9.1415
  64   2.0000      -0.329388        -8.9631
  65   2.0000      -0.322932        -8.7874
  66   2.0000      -0.311187        -8.4678
  67   0.0000       0.042974         1.1694
  68   0.0000       0.047124         1.2823
  69   0.0000       0.119196         3.2435
  70   0.0000       0.123821         3.3693
  71   0.0000       0.129828         3.5328

MULLIKEN ATOMIC CHARGES
-----------------------
   0 S :    0.113087
   1 C :   -0.133435
   2 C :   -0.090092
   3 C :    0.034383
   4 C :   -0.171242
   5 H :    0.015162
   6 C :    0.101207
   7 H :    0.004743
   8 H :    0.030778
   9 C :   -0.113159
  10 H :    0.041194
  11 H :    0.018050
  12 C :   -0.039787
  13 H :    0.024262
  14 H :    0.026016
  15 H :    0.051555
  16 S :    0.104725
  17 C :   -0.079765
  18 C :   -0.024559
  19 C :   -0.048139
  20 C :   -0.170172
  21 H :    0.011742
  22 C :    0.151443
  23 H :    0.010363
  24 H :   -0.002461
  25 C :   -0.075376
  26 H :    0.019764
  27 H :    0.002673
  28 C :   -0.016220
  29 H :    0.027177
  30 H :    0.041571
  31 H :    0.020255
  32 H :    0.071646
  33 H :    0.042611
Sum of atomic charges:   -0.0000000

LOEWDIN ATOMIC CHARGES
----------------------
   0 S :    0.427081
   1 C :   -0.200173
   2 C :   -0.058028
   3 C :   -0.062667
   4 C :   -0.216963
   5 H :    0.033293
   6 C :   -0.021472
   7 H :    0.020078
   8 H :    0.029442
   9 C :   -0.047495
  10 H :    0.031785
  11 H :    0.017646
  12 C :   -0.073047
  13 H :    0.028916
  14 H :    0.025523
  15 H :    0.032502
  16 S :    0.400207
  17 C :   -0.166222
  18 C :   -0.071700
  19 C :   -0.035770
  20 C :   -0.216645
  21 H :    0.028961
  22 C :   -0.027636
  23 H :    0.027841
  24 H :    0.022137
  25 C :   -0.042902
  26 H :    0.021320
  27 H :    0.018826
  28 C :   -0.063903
  29 H :    0.031846
  30 H :    0.032957
  31 H :    0.017858
  32 H :    0.033278
  33 H :    0.023125

  Mayer bond orders larger than 0.100000
B(  0-S ,  1-C ) :   1.1492 B(  0-S ,  4-C ) :   1.1629 B(  1-C ,  2-C ) :   1.6020
B(  1-C , 32-H ) :   0.9618 B(  2-C ,  3-C ) :   1.2566 B(  2-C ,  6-C ) :   1.0075
B(  3-C ,  4-C ) :   1.5785 B(  3-C ,  5-H ) :   0.9890 B(  4-C , 20-C ) :   1.0388
B(  6-C ,  7-H ) :   0.9414 B(  6-C ,  8-H ) :   0.9477 B(  6-C ,  9-C ) :   1.0589
B(  9-C , 10-H ) :   0.9579 B(  9-C , 11-H ) :   0.9585 B(  9-C , 12-C ) :   1.0859
B( 12-C , 13-H ) :   0.9704 B( 12-C , 14-H ) :   0.9721 B( 12-C , 15-H ) :   0.9736
B( 16-S , 17-C ) :   1.1506 B( 16-S , 20-C ) :   1.1434 B( 17-C , 18-C ) :   1.6247
B( 17-C , 33-H ) :   0.9716 B( 18-C , 19-C ) :   1.2208 B( 18-C , 21-H ) :   0.9955
B( 19-C , 20-C ) :   1.5769 B( 19-C , 22-C ) :   1.0628 B( 22-C , 23-H ) :   0.9222
B( 22-C , 24-H ) :   0.9123 B( 22-C , 25-C ) :   1.0759 B( 25-C , 26-H ) :   0.9451
B( 25-C , 27-H ) :   0.9461 B( 25-C , 28-C ) :   1.1006 B( 28-C , 29-H ) :   0.9674
B( 28-C , 30-H ) :   0.9706 B( 28-C , 31-H ) :   0.9708

Dispersion correction           -0.014202207
FINAL SINGLE POINT ENERGY     -1339.874823691670

DIPOLE MOMENT
-------------
                                X             Y             Z
Electronic contribution:      0.98014     -13.73347     -22.98047
Nuclear contribution   :     -0.82794      14.16801      23.37682
                        -----------------------------------------
Total Dipole Moment    :      0.15220       0.43455       0.39636
                        -----------------------------------------
Magnitude (a.u.)       :      0.60753
Magnitude (Debye)      :      1.54422

Rotational constants in cm-1:     0.020245     0.007814     0.006557
Rotational constants in MHz :   606.937379   234.267509   196.578270

                             ****ORCA TERMINATED NORMALLY****
TOTAL RUN TIME: 0 days 0 hours 0 minutes 20 seconds 237 msec
