                         Program Version 4.2.1 -  RELEASE  -
|  1> ! wB97X-D3 SP def2-SVP
|  2> %pal
|  3> nprocs 24
|  4> end
|  5>
|  6> * xyz 0 1
|  7> S 	 -118.446 	 59.1634 	 -41.5053
|  8> C 	 -118.499 	 57.3994 	 -41.7776
|  9> C 	 -119.027 	 56.7831 	 -40.6959
| 10> C 	 -119.328 	 57.6536 	 -39.6237
| 11> C 	 -119.159 	 59.0112 	 -39.913
| 12> H 	 -119.716 	 57.4375 	 -38.615
| 13> C 	 -119.158 	 55.2994 	 -40.5985
| 14> H 	 -118.147 	 55.0201 	 -40.3871
| 15> H 	 -119.386 	 54.9685 	 -41.5755
| 16> C 	 -120.199 	 54.687 	 -39.5691
| 17> H 	 -120.025 	 53.6378 	 -39.6236
| 18> H 	 -119.943 	 54.9286 	 -38.5503
| 19> C 	 -121.668 	 54.9187 	 -39.9315
| 20> H 	 -121.858 	 54.4571 	 -40.9535
| 21> H 	 -122.362 	 54.5889 	 -39.1523
| 22> H 	 -121.762 	 56.0318 	 -40.129
| 23> S 	 -118.054 	 61.392 	 -38.9438
| 24> C 	 -118.824 	 62.1385 	 -37.5543
| 25> C 	 -119.931 	 61.4718 	 -37.1435
| 26> C 	 -120.308 	 60.372 	 -38.0541
| 27> C 	 -119.369 	 60.1898 	 -39.0515
| 28> H 	 -120.463 	 62.0262 	 -36.3063
| 29> C 	 -121.53 	 59.542 	 -37.7002
| 30> H 	 -121.51 	 58.6852 	 -38.2747
| 31> H 	 -122.379 	 60.0507 	 -38.1394
| 32> C 	 -121.713 	 59.094 	 -36.2272
| 33> H 	 -121.473 	 59.8659 	 -35.5122
| 34> H 	 -121.15 	 58.2596 	 -36.0063
| 35> C 	 -123.198 	 58.6638 	 -35.9731
| 36> H 	 -123.91 	 59.4679 	 -36.1323
| 37> H 	 -123.158 	 58.2623 	 -34.9644
| 38> H 	 -123.46 	 57.8836 	 -36.6564
| 39> H 	 -118.092 	 56.9369 	 -42.66
| 40> H 	 -118.477 	 63.1266 	 -37.1022
| 41> *
| 42>
| 43>                          ****END OF INPUT****

CARTESIAN COORDINATES (ANGSTROEM)
---------------------------------
  S    -118.446000   59.163400  -41.505300
  C    -118.499000   57.399400  -41.777600
  C    -119.027000   56.783100  -40.695900
  C    -119.328000   57.653600  -39.623700
  C    -119.159000   59.011200  -39.913000
  H    -119.716000   57.437500  -38.615000
  C    -119.158000   55.299400  -40.598500
  H    -118.147000   55.020100  -40.387100
  H    -119.386000   54.968500  -41.575500
  C    -120.199000   54.687000  -39.569100
  H    -120.025000   53.637800  -39.623600
  H    -119.943000   54.928600  -38.550300
  C    -121.668000   54.918700  -39.931500
  H    -121.858000   54.457100  -40.953500
  H    -122.362000   54.588900  -39.152300
  H    -121.762000   56.031800  -40.129000
  S    -118.054000   61.392000  -38.943800
  C    -118.824000   62.138500  -37.554300
  C    -119.931000   61.471800  -37.143500
  C    -120.308000   60.372000  -38.054100
  C    -119.369000   60.189800  -39.051500
  H    -120.463000   62.026200  -36.306300
  C    -121.530000   59.542000  -37.700200
  H    -121.510000   58.685200  -38.274700
  H    -122.379000   60.050700  -38.139400
  C    -121.713000   59.094000  -36.227200
  H    -121.473000   59.865900  -35.512200
  H    -121.150000   58.259600  -36.006300
  C    -123.198000   58.663800  -35.973100
  H    -123.910000   59.467900  -36.132300
  H    -123.158000   58.262300  -34.964400
  H    -123.460000   57.883600  -36.656400
  H    -118.092000   56.936900  -42.660000
  H    -118.477000   63.126600  -37.102200

 Total Charge           Charge          ....    0
 Multiplicity           Mult            ....    1
 Number of Electrons    NEL             ....  134
 Basis Dimension        Dim             ....  322

ORBITAL ENERGIES
----------------

  NO   OCC          E(Eh)            E(eV)
   0   2.0000     -88.962740     -2420.7992
   1   2.0000     -88.961625     -2420.7689
   2   2.0000     -10.331982      -281.1475
   3   2.0000     -10.331459      -281.1333
   4   2.0000     -10.321424      -280.8602
   5   2.0000     -10.311335      -280.5857
   6   2.0000     -10.310330      -280.5584
   7   2.0000     -10.299075      -280.2521
   8   2.0000     -10.296805      -280.1903
   9   2.0000     -10.294311      -280.1224
  10   2.0000     -10.289284      -279.9857
  11   2.0000     -10.288715      -279.9702
  12   2.0000     -10.288654      -279.9685
  13   2.0000     -10.286196      -279.9016
  14   2.0000     -10.284911      -279.8667
  15   2.0000     -10.278296      -279.6867
  16   2.0000      -8.077210      -219.7921
  17   2.0000      -8.075964      -219.7582
  18   2.0000      -6.035877      -164.2446
  19   2.0000      -6.034499      -164.2071
  20   2.0000      -6.031851      -164.1350
  21   2.0000      -6.030505      -164.0984
  22   2.0000      -6.027703      -164.0221
  23   2.0000      -6.026755      -163.9963
  24   2.0000      -1.002476       -27.2788
  25   2.0000      -0.981466       -26.7070
  26   2.0000      -0.911070       -24.7915
  27   2.0000      -0.909189       -24.7403
  28   2.0000      -0.870017       -23.6744
  29   2.0000      -0.850948       -23.1555
  30   2.0000      -0.839704       -22.8495
  31   2.0000      -0.817740       -22.2518
  32   2.0000      -0.784318       -21.3424
  33   2.0000      -0.772225       -21.0133
  34   2.0000      -0.713346       -19.4111
  35   2.0000      -0.706169       -19.2158
  36   2.0000      -0.692807       -18.8522
  37   2.0000      -0.650452       -17.6997
  38   2.0000      -0.637445       -17.3457
  39   2.0000      -0.620827       -16.8936
  40   2.0000      -0.595746       -16.2111
  41   2.0000      -0.566586       -15.4176
  42   2.0000      -0.565134       -15.3781
  43   2.0000      -0.556350       -15.1391
  44   2.0000      -0.533395       -14.5144
  45   2.0000      -0.530413       -14.4333
  46   2.0000      -0.524703       -14.2779
  47   2.0000      -0.514999       -14.0138
  48   2.0000      -0.500349       -13.6152
  49   2.0000      -0.495138       -13.4734
  50   2.0000      -0.492635       -13.4053
  51   2.0000      -0.484270       -13.1777
  52   2.0000      -0.467379       -12.7180
  53   2.0000      -0.460491       -12.5306
  54   2.0000      -0.455150       -12.3853
  55   2.0000      -0.451634       -12.2896
  56   2.0000      -0.444964       -12.1081
  57   2.0000      -0.441561       -12.0155
  58   2.0000      -0.435837       -11.8597
  59   2.0000      -0.429928       -11.6989
  60   2.0000      -0.425027       -11.5656
  61   2.0000      -0.414938       -11.2910
  62   2.0000      -0.408409       -11.1134
  63   2.0000      -0.351114        -9.5543
  64   2.0000      -0.329747        -8.9729
  65   2.0000      -0.326872        -8.8946
  66   2.0000      -0.291808        -7.9405
  67   0.0000       0.026298         0.7156
  68   0.0000       0.080151         2.1810
  69   0.0000       0.106487         2.8977
  70   0.0000       0.121232         3.2989
  71   0.0000       0.124051         3.3756

MULLIKEN ATOMIC CHARGES
-----------------------
   0 S :    0.087475
   1 C :   -0.138677
   2 C :   -0.075881
   3 C :    0.014687
   4 C :   -0.168462
   5 H :    0.018422
   6 C :    0.079145
   7 H :    0.041114
   8 H :    0.009860
   9 C :   -0.054521
  10 H :    0.020694
  11 H :    0.025215
  12 C :   -0.079819
  13 H :    0.040080
  14 H :    0.052670
  15 H :    0.045377
  16 S :    0.090794
  17 C :   -0.125676
  18 C :   -0.057938
  19 C :   -0.069811
  20 C :   -0.098111
  21 H :    0.050107
  22 C :    0.118697
  23 H :   -0.024700
  24 H :    0.031932
  25 C :   -0.050361
  26 H :    0.031804
  27 H :    0.015767
  28 C :   -0.053951
  29 H :    0.037930
  30 H :    0.036560
  31 H :    0.023327
  32 H :    0.043850
  33 H :    0.082401
Sum of atomic charges:   -0.0000000

LOEWDIN ATOMIC CHARGES
----------------------
   0 S :    0.385024
   1 C :   -0.187557
   2 C :   -0.067697
   3 C :   -0.073833
   4 C :   -0.183935
   5 H :    0.033825
   6 C :   -0.022726
   7 H :    0.037447
   8 H :    0.024366
   9 C :   -0.040516
  10 H :    0.022364
  11 H :    0.019146
  12 C :   -0.073425
  13 H :    0.033878
  14 H :    0.029049
  15 H :    0.030976
  16 S :    0.376776
  17 C :   -0.187505
  18 C :   -0.088817
  19 C :   -0.046112
  20 C :   -0.192315
  21 H :    0.047083
  22 C :   -0.030849
  23 H :    0.016100
  24 H :    0.037580
  25 C :   -0.022098
  26 H :    0.020780
  27 H :    0.014733
  28 C :   -0.055825
  29 H :    0.023951
  30 H :    0.028113
  31 H :    0.019502
  32 H :    0.027324
  33 H :    0.045192

  Mayer bond orders larger than 0.100000
B(  0-S ,  1-C ) :   1.1211 B(  0-S ,  4-C ) :   1.1630 B(  1-C ,  2-C ) :   1.6164
B(  1-C ,  4-C ) :   0.1013 B(  1-C , 32-H ) :   0.9788 B(  2-C ,  3-C ) :   1.2339
B(  2-C ,  6-C ) :   0.9980 B(  3-C ,  4-C ) :   1.5694 B(  3-C ,  5-H ) :   0.9830
B(  4-C , 20-C ) :   1.0250 B(  6-C ,  7-H ) :   0.9352 B(  6-C ,  8-H ) :   0.9406
B(  6-C ,  9-C ) :   1.0803 B(  9-C , 10-H ) :   0.9523 B(  9-C , 11-H ) :   0.9512
B(  9-C , 12-C ) :   1.0685 B( 12-C , 13-H ) :   0.9712 B( 12-C , 14-H ) :   0.9737
B( 12-C , 15-H ) :   0.9775 B( 16-S , 17-C ) :   1.1367 B( 16-S , 20-C ) :   1.1110
B( 17-C , 18-C ) :   1.6830 B( 17-C , 33-H ) :   0.9528 B( 18-C , 19-C ) :   1.1763
B( 18-C , 21-H ) :   0.9728 B( 19-C , 20-C ) :   1.6443 B( 19-C , 22-C ) :   1.0397
B( 22-C , 23-H ) :   0.9201 B( 22-C , 24-H ) :   0.9291 B( 22-C , 25-C ) :   1.0534
B( 25-C , 26-H ) :   0.9585 B( 25-C , 27-H ) :   0.9578 B( 25-C , 28-C ) :   1.0801
B( 28-C , 29-H ) :   0.9797 B( 28-C , 30-H ) :   0.9754 B( 28-C , 31-H ) :   0.9770

Dispersion correction           -0.014294329
FINAL SINGLE POINT ENERGY     -1339.869444199808

DIPOLE MOMENT
-------------
                                X             Y             Z
Electronic contribution:     20.74683      20.92751     -12.89229
Nuclear contribution   :    -21.13308     -21.44491      13.38317
                        -----------------------------------------
Total Dipole Moment    :     -0.38625      -0.51740       0.49088
                        -----------------------------------------
Magnitude (a.u.)       :      0.81108
Magnitude (Debye)      :      2.06160

Rotational constants in cm-1:     0.015400     0.010676     0.006664
Rotational constants in MHz :   461.689809   320.049550   199.782420

                             ****ORCA TERMINATED NORMALLY****
TOTAL RUN TIME: 0 days 0 hours 0 minutes 21 seconds 972 msec
