                         Program Version 4.2.1 -  RELEASE  -
|  1> ! wB97X-D3 SP def2-SVP
|  2> %pal
|  3> nprocs 24
|  4> end
|  5>
|  6> * xyz 0 1
|  7> S 	 -103.274 	 -1.58756 	 -112.958
|  8> C 	 -102.819 	 -0.178279 	 -113.873
|  9> C 	 -103.887 	 0.45687 	 -114.427
| 10> C 	 -105.134 	 -0.201094 	 -114.035
| 11> C 	 -104.925 	 -1.36997 	 -113.389
| 12> H 	 -106.16 	 0.161425 	 -114.439
| 13> C 	 -103.831 	 1.75987 	 -115.187
| 14> H 	 -104.419 	 1.69526 	 -116.092
| 15> H 	 -102.749 	 1.92056 	 -115.351
| 16> C 	 -104.302 	 3.01149 	 -114.421
| 17> H 	 -103.523 	 3.15771 	 -113.711
| 18> H 	 -104.249 	 3.80082 	 -115.085
| 19> C 	 -105.65 	 3.02372 	 -113.716
| 20> H 	 -106.447 	 3.07404 	 -114.429
| 21> H 	 -105.914 	 2.1822 	 -113.096
| 22> H 	 -105.68 	 3.77208 	 -112.955
| 23> S 	 -105.665 	 -3.97145 	 -112.685
| 24> C 	 -107.047 	 -4.16134 	 -111.665
| 25> C 	 -107.744 	 -3.00889 	 -111.422
| 26> C 	 -107.109 	 -1.90639 	 -112.064
| 27> C 	 -105.922 	 -2.24429 	 -112.722
| 28> H 	 -108.56 	 -3.0704 	 -110.682
| 29> C 	 -107.786 	 -0.54404 	 -111.861
| 30> H 	 -106.944 	 0.099983 	 -111.848
| 31> H 	 -108.094 	 -0.468028 	 -110.88
| 32> C 	 -108.892 	 -0.259494 	 -112.898
| 33> H 	 -108.54 	 0.294622 	 -113.674
| 34> H 	 -109.643 	 0.508508 	 -112.568
| 35> C 	 -109.773 	 -1.45168 	 -113.336
| 36> H 	 -110.289 	 -2.02065 	 -112.604
| 37> H 	 -109.081 	 -2.1966 	 -113.788
| 38> H 	 -110.509 	 -1.12954 	 -114.001
| 39> H 	 -101.869 	 0.196842 	 -113.789
| 40> H 	 -107.35 	 -5.10378 	 -111.359
| 41> *
| 42>
| 43>                          ****END OF INPUT****

CARTESIAN COORDINATES (ANGSTROEM)
---------------------------------
  S    -103.274000   -1.587560  -112.958000
  C    -102.819000   -0.178279  -113.873000
  C    -103.887000    0.456870  -114.427000
  C    -105.134000   -0.201094  -114.035000
  C    -104.925000   -1.369970  -113.389000
  H    -106.160000    0.161425  -114.439000
  C    -103.831000    1.759870  -115.187000
  H    -104.419000    1.695260  -116.092000
  H    -102.749000    1.920560  -115.351000
  C    -104.302000    3.011490  -114.421000
  H    -103.523000    3.157710  -113.711000
  H    -104.249000    3.800820  -115.085000
  C    -105.650000    3.023720  -113.716000
  H    -106.447000    3.074040  -114.429000
  H    -105.914000    2.182200  -113.096000
  H    -105.680000    3.772080  -112.955000
  S    -105.665000   -3.971450  -112.685000
  C    -107.047000   -4.161340  -111.665000
  C    -107.744000   -3.008890  -111.422000
  C    -107.109000   -1.906390  -112.064000
  C    -105.922000   -2.244290  -112.722000
  H    -108.560000   -3.070400  -110.682000
  C    -107.786000   -0.544040  -111.861000
  H    -106.944000    0.099983  -111.848000
  H    -108.094000   -0.468028  -110.880000
  C    -108.892000   -0.259494  -112.898000
  H    -108.540000    0.294622  -113.674000
  H    -109.643000    0.508508  -112.568000
  C    -109.773000   -1.451680  -113.336000
  H    -110.289000   -2.020650  -112.604000
  H    -109.081000   -2.196600  -113.788000
  H    -110.509000   -1.129540  -114.001000
  H    -101.869000    0.196842  -113.789000
  H    -107.350000   -5.103780  -111.359000

 Total Charge           Charge          ....    0
 Multiplicity           Mult            ....    1
 Number of Electrons    NEL             ....  134
 Basis Dimension        Dim             ....  322

ORBITAL ENERGIES
----------------

  NO   OCC          E(Eh)            E(eV)
   0   2.0000     -88.965691     -2420.8795
   1   2.0000     -88.961696     -2420.7708
   2   2.0000     -10.328203      -281.0447
   3   2.0000     -10.326339      -280.9940
   4   2.0000     -10.307723      -280.4874
   5   2.0000     -10.304315      -280.3947
   6   2.0000     -10.303073      -280.3609
   7   2.0000     -10.299807      -280.2720
   8   2.0000     -10.298932      -280.2482
   9   2.0000     -10.292520      -280.0737
  10   2.0000     -10.291752      -280.0528
  11   2.0000     -10.284322      -279.8506
  12   2.0000     -10.282837      -279.8102
  13   2.0000     -10.278377      -279.6889
  14   2.0000     -10.271797      -279.5098
  15   2.0000     -10.269771      -279.4547
  16   2.0000      -8.080966      -219.8943
  17   2.0000      -8.077662      -219.8044
  18   2.0000      -6.039323      -164.3383
  19   2.0000      -6.036165      -164.2524
  20   2.0000      -6.035446      -164.2328
  21   2.0000      -6.032100      -164.1418
  22   2.0000      -6.031829      -164.1344
  23   2.0000      -6.028252      -164.0371
  24   2.0000      -1.010544       -27.4983
  25   2.0000      -0.988652       -26.9026
  26   2.0000      -0.915349       -24.9079
  27   2.0000      -0.908294       -24.7159
  28   2.0000      -0.870406       -23.6850
  29   2.0000      -0.849547       -23.1173
  30   2.0000      -0.843328       -22.9481
  31   2.0000      -0.819927       -22.3113
  32   2.0000      -0.792773       -21.5724
  33   2.0000      -0.779913       -21.2225
  34   2.0000      -0.714980       -19.4556
  35   2.0000      -0.708006       -19.2658
  36   2.0000      -0.694603       -18.9011
  37   2.0000      -0.662125       -18.0173
  38   2.0000      -0.640926       -17.4405
  39   2.0000      -0.615410       -16.7462
  40   2.0000      -0.590680       -16.0732
  41   2.0000      -0.581291       -15.8177
  42   2.0000      -0.558469       -15.1967
  43   2.0000      -0.556235       -15.1359
  44   2.0000      -0.546729       -14.8772
  45   2.0000      -0.534615       -14.5476
  46   2.0000      -0.520412       -14.1611
  47   2.0000      -0.511079       -13.9072
  48   2.0000      -0.503843       -13.7103
  49   2.0000      -0.496880       -13.5208
  50   2.0000      -0.491721       -13.3804
  51   2.0000      -0.482221       -13.1219
  52   2.0000      -0.475122       -12.9287
  53   2.0000      -0.464425       -12.6376
  54   2.0000      -0.463524       -12.6131
  55   2.0000      -0.454750       -12.3744
  56   2.0000      -0.445178       -12.1139
  57   2.0000      -0.436284       -11.8719
  58   2.0000      -0.428656       -11.6643
  59   2.0000      -0.426002       -11.5921
  60   2.0000      -0.422876       -11.5070
  61   2.0000      -0.418203       -11.3799
  62   2.0000      -0.400409       -10.8957
  63   2.0000      -0.353140        -9.6094
  64   2.0000      -0.333336        -9.0705
  65   2.0000      -0.328736        -8.9454
  66   2.0000      -0.291399        -7.9294
  67   0.0000       0.036033         0.9805
  68   0.0000       0.077443         2.1073
  69   0.0000       0.114883         3.1261
  70   0.0000       0.120440         3.2773
  71   0.0000       0.126792         3.4502

MULLIKEN ATOMIC CHARGES
-----------------------
   0 S :    0.096757
   1 C :   -0.096364
   2 C :   -0.094924
   3 C :   -0.049381
   4 C :   -0.088782
   5 H :    0.047554
   6 C :    0.068133
   7 H :    0.030609
   8 H :    0.024121
   9 C :   -0.024119
  10 H :    0.008709
  11 H :    0.014488
  12 C :   -0.024051
  13 H :    0.022690
  14 H :    0.015913
  15 H :    0.024050
  16 S :    0.110190
  17 C :   -0.066191
  18 C :   -0.040197
  19 C :   -0.117848
  20 C :   -0.148793
  21 H :    0.035915
  22 C :    0.172055
  23 H :    0.009083
  24 H :   -0.001350
  25 C :   -0.042382
  26 H :   -0.004819
  27 H :    0.017584
  28 C :   -0.028859
  29 H :    0.019017
  30 H :    0.048781
  31 H :    0.022169
  32 H :    0.015113
  33 H :    0.025127
Sum of atomic charges:   -0.0000000

LOEWDIN ATOMIC CHARGES
----------------------
   0 S :    0.412855
   1 C :   -0.185736
   2 C :   -0.059086
   3 C :   -0.077968
   4 C :   -0.198289
   5 H :    0.045512
   6 C :   -0.027272
   7 H :    0.027946
   8 H :    0.036844
   9 C :   -0.029228
  10 H :    0.020258
  11 H :    0.016845
  12 C :   -0.065529
  13 H :    0.020770
  14 H :    0.024230
  15 H :    0.028207
  16 S :    0.412294
  17 C :   -0.175149
  18 C :   -0.073391
  19 C :   -0.051181
  20 C :   -0.206470
  21 H :    0.040810
  22 C :   -0.020969
  23 H :    0.027170
  24 H :    0.021469
  25 C :   -0.034937
  26 H :    0.008064
  27 H :    0.030618
  28 C :   -0.059986
  29 H :    0.019338
  30 H :    0.033251
  31 H :    0.019676
  32 H :    0.008622
  33 H :    0.010413

  Mayer bond orders larger than 0.100000
B(  0-S ,  1-C ) :   1.1286 B(  0-S ,  4-C ) :   1.1570 B(  1-C ,  2-C ) :   1.6401
B(  1-C , 32-H ) :   0.9762 B(  2-C ,  3-C ) :   1.2073 B(  2-C ,  6-C ) :   1.0348
B(  3-C ,  4-C ) :   1.6143 B(  3-C ,  5-H ) :   0.9773 B(  4-C , 20-C ) :   1.0053
B(  6-C ,  7-H ) :   0.9350 B(  6-C ,  8-H ) :   0.9408 B(  6-C ,  9-C ) :   1.0748
B(  9-C , 10-H ) :   0.9521 B(  9-C , 11-H ) :   0.9534 B(  9-C , 12-C ) :   1.0908
B( 12-C , 13-H ) :   0.9735 B( 12-C , 14-H ) :   0.9660 B( 12-C , 15-H ) :   0.9661
B( 16-S , 17-C ) :   1.1623 B( 16-S , 20-C ) :   1.1439 B( 17-C , 18-C ) :   1.6176
B( 17-C , 33-H ) :   0.9723 B( 18-C , 19-C ) :   1.2272 B( 18-C , 21-H ) :   0.9892
B( 19-C , 20-C ) :   1.6045 B( 19-C , 22-C ) :   1.0235 B( 22-C , 23-H ) :   0.9324
B( 22-C , 24-H ) :   0.9266 B( 22-C , 25-C ) :   1.0476 B( 25-C , 26-H ) :   0.9537
B( 25-C , 27-H ) :   0.9512 B( 25-C , 28-C ) :   1.0916 B( 28-C , 29-H ) :   0.9723
B( 28-C , 30-H ) :   0.9654 B( 28-C , 31-H ) :   0.9714

Dispersion correction           -0.015988376
FINAL SINGLE POINT ENERGY     -1339.855110719727

DIPOLE MOMENT
-------------
                                X             Y             Z
Electronic contribution:     16.08723     -23.23810       3.97772
Nuclear contribution   :    -16.48370      23.83228      -3.87314
                        -----------------------------------------
Total Dipole Moment    :     -0.39647       0.59418       0.10457
                        -----------------------------------------
Magnitude (a.u.)       :      0.72193
Magnitude (Debye)      :      1.83499

Rotational constants in cm-1:     0.019236     0.010305     0.007206
Rotational constants in MHz :   576.694491   308.929080   216.042256

                             ****ORCA TERMINATED NORMALLY****
TOTAL RUN TIME: 0 days 0 hours 0 minutes 23 seconds 60 msec
