                         Program Version 4.2.1 -  RELEASE  -
|  1> ! wB97X-D3 SP def2-SVP
|  2> %pal
|  3> nprocs 24
|  4> end
|  5>
|  6> * xyz 0 1
|  7> S 	 -111.597 	 64.2815 	 -74.1873
|  8> C 	 -110.096 	 63.3934 	 -74.2189
|  9> C 	 -110.206 	 62.2482 	 -74.9154
| 10> C 	 -111.446 	 62.1129 	 -75.6309
| 11> C 	 -112.306 	 63.0773 	 -75.2112
| 12> H 	 -111.791 	 61.302 	 -76.3162
| 13> C 	 -109.11 	 61.2448 	 -75.1265
| 14> H 	 -108.131 	 61.7747 	 -75.0182
| 15> H 	 -109.094 	 60.7575 	 -76.0955
| 16> C 	 -108.974 	 60.2544 	 -73.9844
| 17> H 	 -108.166 	 59.5213 	 -74.0424
| 18> H 	 -108.742 	 60.8624 	 -73.1201
| 19> C 	 -110.31 	 59.5347 	 -73.6717
| 20> H 	 -110.156 	 58.6452 	 -73.1109
| 21> H 	 -111.198 	 60.2017 	 -73.3343
| 22> H 	 -110.544 	 59.207 	 -74.6985
| 23> S 	 -114.93 	 63.0499 	 -74.1956
| 24> C 	 -116.268 	 63.4065 	 -75.3163
| 25> C 	 -115.739 	 63.3942 	 -76.6221
| 26> C 	 -114.298 	 63.2272 	 -76.7184
| 27> C 	 -113.695 	 63.161 	 -75.4746
| 28> H 	 -116.267 	 63.5831 	 -77.5158
| 29> C 	 -113.535 	 63.2611 	 -78.0067
| 30> H 	 -114.168 	 62.8659 	 -78.7555
| 31> H 	 -112.76 	 62.4928 	 -78.0389
| 32> C 	 -113.136 	 64.6085 	 -78.6034
| 33> H 	 -113.909 	 65.324 	 -78.6051
| 34> H 	 -112.791 	 64.6313 	 -79.6766
| 35> C 	 -111.964 	 65.2892 	 -77.8116
| 36> H 	 -111.066 	 64.7624 	 -77.7458
| 37> H 	 -112.311 	 65.391 	 -76.7568
| 38> H 	 -111.783 	 66.3069 	 -78.1866
| 39> H 	 -109.234 	 63.6786 	 -73.5704
| 40> H 	 -117.315 	 63.4827 	 -75.1224
| 41> *
| 42>
| 43>                          ****END OF INPUT****

CARTESIAN COORDINATES (ANGSTROEM)
---------------------------------
  S    -111.597000   64.281500  -74.187300
  C    -110.096000   63.393400  -74.218900
  C    -110.206000   62.248200  -74.915400
  C    -111.446000   62.112900  -75.630900
  C    -112.306000   63.077300  -75.211200
  H    -111.791000   61.302000  -76.316200
  C    -109.110000   61.244800  -75.126500
  H    -108.131000   61.774700  -75.018200
  H    -109.094000   60.757500  -76.095500
  C    -108.974000   60.254400  -73.984400
  H    -108.166000   59.521300  -74.042400
  H    -108.742000   60.862400  -73.120100
  C    -110.310000   59.534700  -73.671700
  H    -110.156000   58.645200  -73.110900
  H    -111.198000   60.201700  -73.334300
  H    -110.544000   59.207000  -74.698500
  S    -114.930000   63.049900  -74.195600
  C    -116.268000   63.406500  -75.316300
  C    -115.739000   63.394200  -76.622100
  C    -114.298000   63.227200  -76.718400
  C    -113.695000   63.161000  -75.474600
  H    -116.267000   63.583100  -77.515800
  C    -113.535000   63.261100  -78.006700
  H    -114.168000   62.865900  -78.755500
  H    -112.760000   62.492800  -78.038900
  C    -113.136000   64.608500  -78.603400
  H    -113.909000   65.324000  -78.605100
  H    -112.791000   64.631300  -79.676600
  C    -111.964000   65.289200  -77.811600
  H    -111.066000   64.762400  -77.745800
  H    -112.311000   65.391000  -76.756800
  H    -111.783000   66.306900  -78.186600
  H    -109.234000   63.678600  -73.570400
  H    -117.315000   63.482700  -75.122400

 Total Charge           Charge          ....    0
 Multiplicity           Mult            ....    1
 Number of Electrons    NEL             ....  134
 Basis Dimension        Dim             ....  322

ORBITAL ENERGIES
----------------

  NO   OCC          E(Eh)            E(eV)
   0   2.0000     -88.967429     -2420.9268
   1   2.0000     -88.966856     -2420.9112
   2   2.0000     -10.324534      -280.9449
   3   2.0000     -10.323765      -280.9239
   4   2.0000     -10.323184      -280.9081
   5   2.0000     -10.314594      -280.6744
   6   2.0000     -10.302179      -280.3365
   7   2.0000     -10.301174      -280.3092
   8   2.0000     -10.298616      -280.2396
   9   2.0000     -10.296936      -280.1939
  10   2.0000     -10.290912      -280.0300
  11   2.0000     -10.287575      -279.9392
  12   2.0000     -10.285710      -279.8884
  13   2.0000     -10.283389      -279.8252
  14   2.0000     -10.276798      -279.6459
  15   2.0000     -10.263829      -279.2930
  16   2.0000      -8.082108      -219.9254
  17   2.0000      -8.080912      -219.8928
  18   2.0000      -6.040558      -164.3719
  19   2.0000      -6.039718      -164.3491
  20   2.0000      -6.036649      -164.2656
  21   2.0000      -6.035487      -164.2339
  22   2.0000      -6.032763      -164.1598
  23   2.0000      -6.031518      -164.1259
  24   2.0000      -1.014204       -27.5979
  25   2.0000      -0.981681       -26.7129
  26   2.0000      -0.917607       -24.9694
  27   2.0000      -0.906099       -24.6562
  28   2.0000      -0.872463       -23.7409
  29   2.0000      -0.849948       -23.1283
  30   2.0000      -0.840169       -22.8622
  31   2.0000      -0.813526       -22.1372
  32   2.0000      -0.784593       -21.3499
  33   2.0000      -0.772067       -21.0090
  34   2.0000      -0.707059       -19.2401
  35   2.0000      -0.699893       -19.0451
  36   2.0000      -0.695501       -18.9255
  37   2.0000      -0.664167       -18.0729
  38   2.0000      -0.644178       -17.5290
  39   2.0000      -0.612339       -16.6626
  40   2.0000      -0.597131       -16.2488
  41   2.0000      -0.576438       -15.6857
  42   2.0000      -0.555056       -15.1039
  43   2.0000      -0.547753       -14.9051
  44   2.0000      -0.545319       -14.8389
  45   2.0000      -0.531741       -14.4694
  46   2.0000      -0.521107       -14.1801
  47   2.0000      -0.509878       -13.8745
  48   2.0000      -0.501008       -13.6331
  49   2.0000      -0.497227       -13.5302
  50   2.0000      -0.492910       -13.4128
  51   2.0000      -0.477203       -12.9854
  52   2.0000      -0.469991       -12.7891
  53   2.0000      -0.466060       -12.6821
  54   2.0000      -0.459159       -12.4944
  55   2.0000      -0.451359       -12.2821
  56   2.0000      -0.440944       -11.9987
  57   2.0000      -0.434850       -11.8329
  58   2.0000      -0.428161       -11.6509
  59   2.0000      -0.422462       -11.4958
  60   2.0000      -0.417543       -11.3619
  61   2.0000      -0.404052       -10.9948
  62   2.0000      -0.401645       -10.9293
  63   2.0000      -0.345938        -9.4135
  64   2.0000      -0.333806        -9.0833
  65   2.0000      -0.327484        -8.9113
  66   2.0000      -0.297613        -8.0985
  67   0.0000       0.029091         0.7916
  68   0.0000       0.065788         1.7902
  69   0.0000       0.110001         2.9933
  70   0.0000       0.110942         3.0189
  71   0.0000       0.126259         3.4357

MULLIKEN ATOMIC CHARGES
-----------------------
   0 S :    0.122013
   1 C :   -0.130446
   2 C :   -0.078143
   3 C :    0.027609
   4 C :   -0.199220
   5 H :    0.043261
   6 C :    0.056287
   7 H :    0.025778
   8 H :    0.031759
   9 C :   -0.072369
  10 H :    0.032543
  11 H :    0.014501
  12 C :   -0.075466
  13 H :    0.032421
  14 H :    0.073095
  15 H :    0.009955
  16 S :    0.111412
  17 C :   -0.082942
  18 C :   -0.003525
  19 C :   -0.055270
  20 C :   -0.148418
  21 H :    0.000360
  22 C :    0.115748
  23 H :   -0.000635
  24 H :    0.012828
  25 C :   -0.052011
  26 H :    0.011604
  27 H :    0.032893
  28 C :   -0.051736
  29 H :    0.021520
  30 H :    0.024144
  31 H :    0.027950
  32 H :    0.064044
  33 H :    0.058454
Sum of atomic charges:   -0.0000000

LOEWDIN ATOMIC CHARGES
----------------------
   0 S :    0.422915
   1 C :   -0.200044
   2 C :   -0.062957
   3 C :   -0.057146
   4 C :   -0.192931
   5 H :    0.043748
   6 C :   -0.035473
   7 H :    0.038077
   8 H :    0.026968
   9 C :   -0.042128
  10 H :    0.025181
  11 H :    0.016374
  12 C :   -0.077185
  13 H :    0.019298
  14 H :    0.042680
  15 H :    0.021066
  16 S :    0.383400
  17 C :   -0.177750
  18 C :   -0.058728
  19 C :   -0.055085
  20 C :   -0.195559
  21 H :    0.021178
  22 C :   -0.037105
  23 H :    0.029755
  24 H :    0.031425
  25 C :   -0.033655
  26 H :    0.017577
  27 H :    0.029765
  28 C :   -0.068241
  29 H :    0.012810
  30 H :    0.019526
  31 H :    0.023867
  32 H :    0.037629
  33 H :    0.030747

  Mayer bond orders larger than 0.100000
B(  0-S ,  1-C ) :   1.1169 B(  0-S ,  4-C ) :   1.1575 B(  1-C ,  2-C ) :   1.6630
B(  1-C , 32-H ) :   0.9583 B(  2-C ,  3-C ) :   1.1942 B(  2-C ,  6-C ) :   1.0184
B(  3-C ,  4-C ) :   1.6058 B(  3-C ,  5-H ) :   0.9835 B(  4-C , 20-C ) :   1.0576
B(  6-C ,  7-H ) :   0.9417 B(  6-C ,  8-H ) :   0.9494 B(  6-C ,  9-C ) :   1.0653
B(  9-C , 10-H ) :   0.9583 B(  9-C , 11-H ) :   0.9562 B(  9-C , 12-C ) :   1.0693
B( 12-C , 13-H ) :   0.9750 B( 12-C , 14-H ) :   0.9666 B( 12-C , 15-H ) :   0.9771
B( 16-S , 17-C ) :   1.1341 B( 16-S , 20-C ) :   1.1322 B( 17-C , 18-C ) :   1.5951
B( 17-C , 33-H ) :   0.9739 B( 18-C , 19-C ) :   1.2558 B( 18-C , 21-H ) :   0.9857
B( 19-C , 20-C ) :   1.5818 B( 19-C , 22-C ) :   1.0557 B( 22-C , 23-H ) :   0.9091
B( 22-C , 24-H ) :   0.9283 B( 22-C , 25-C ) :   1.0701 B( 25-C , 26-H ) :   0.9531
B( 25-C , 27-H ) :   0.9567 B( 25-C , 28-C ) :   1.0800 B( 28-C , 29-H ) :   0.9788
B( 28-C , 30-H ) :   0.9696 B( 28-C , 31-H ) :   0.9741

Dispersion correction           -0.016394940
FINAL SINGLE POINT ENERGY     -1339.864263807231

DIPOLE MOMENT
-------------
                                X             Y             Z
Electronic contribution:    -13.50541       7.57969      11.13382
Nuclear contribution   :     13.72861      -7.86689     -11.55616
                        -----------------------------------------
Total Dipole Moment    :      0.22319      -0.28720      -0.42234
                        -----------------------------------------
Magnitude (a.u.)       :      0.55738
Magnitude (Debye)      :      1.41675

Rotational constants in cm-1:     0.020464     0.009479     0.008207
Rotational constants in MHz :   613.501474   284.169304   246.031253

                             ****ORCA TERMINATED NORMALLY****
TOTAL RUN TIME: 0 days 0 hours 0 minutes 23 seconds 179 msec
