                         Program Version 4.2.1 -  RELEASE  -
|  1> ! wB97X-D3 SP def2-SVP
|  2> %pal
|  3> nprocs 24
|  4> end
|  5>
|  6> * xyz 0 1
|  7> S 	 -46.6302 	 21.1964 	 28.6166
|  8> C 	 -47.9843 	 22.292 	 28.2653
|  9> C 	 -48.2545 	 23.0987 	 29.397
| 10> C 	 -47.4695 	 22.7749 	 30.5257
| 11> C 	 -46.6517 	 21.6755 	 30.3065
| 12> H 	 -47.5284 	 23.3363 	 31.4303
| 13> C 	 -49.4033 	 24.1515 	 29.4922
| 14> H 	 -49.7886 	 24.2591 	 28.4346
| 15> H 	 -48.9939 	 25.1388 	 29.6144
| 16> C 	 -50.4741 	 23.8599 	 30.5796
| 17> H 	 -50.8245 	 22.9173 	 30.2467
| 18> H 	 -50.043 	 23.7539 	 31.5948
| 19> C 	 -51.7038 	 24.8154 	 30.5063
| 20> H 	 -51.3947 	 25.7924 	 31.0305
| 21> H 	 -52.093 	 25.0551 	 29.5051
| 22> H 	 -52.5795 	 24.4567 	 31.0478
| 23> S 	 -43.9508 	 21.751 	 30.3911
| 24> C 	 -43.174 	 21.718 	 31.9504
| 25> C 	 -44.0153 	 21.2315 	 32.9412
| 26> C 	 -45.349 	 21.0907 	 32.4687
| 27> C 	 -45.4955 	 21.4003 	 31.1383
| 28> H 	 -43.6914 	 21.2421 	 33.9526
| 29> C 	 -46.5629 	 20.8196 	 33.4117
| 30> H 	 -47.516 	 20.7247 	 32.8054
| 31> H 	 -46.7912 	 21.6903 	 34.0925
| 32> C 	 -46.4516 	 19.5133 	 34.2289
| 33> H 	 -45.55 	 19.7307 	 34.8008
| 34> H 	 -46.2262 	 18.6339 	 33.5435
| 35> C 	 -47.5937 	 19.0585 	 35.1747
| 36> H 	 -47.6065 	 19.8094 	 36.0383
| 37> H 	 -47.3513 	 18.1204 	 35.564
| 38> H 	 -48.6014 	 19.1759 	 34.7544
| 39> H 	 -48.5632 	 22.2274 	 27.369
| 40> H 	 -42.1172 	 21.8873 	 32.2063
| 41> *
| 42>
| 43>                          ****END OF INPUT****

CARTESIAN COORDINATES (ANGSTROEM)
---------------------------------
  S    -46.630200   21.196400   28.616600
  C    -47.984300   22.292000   28.265300
  C    -48.254500   23.098700   29.397000
  C    -47.469500   22.774900   30.525700
  C    -46.651700   21.675500   30.306500
  H    -47.528400   23.336300   31.430300
  C    -49.403300   24.151500   29.492200
  H    -49.788600   24.259100   28.434600
  H    -48.993900   25.138800   29.614400
  C    -50.474100   23.859900   30.579600
  H    -50.824500   22.917300   30.246700
  H    -50.043000   23.753900   31.594800
  C    -51.703800   24.815400   30.506300
  H    -51.394700   25.792400   31.030500
  H    -52.093000   25.055100   29.505100
  H    -52.579500   24.456700   31.047800
  S    -43.950800   21.751000   30.391100
  C    -43.174000   21.718000   31.950400
  C    -44.015300   21.231500   32.941200
  C    -45.349000   21.090700   32.468700
  C    -45.495500   21.400300   31.138300
  H    -43.691400   21.242100   33.952600
  C    -46.562900   20.819600   33.411700
  H    -47.516000   20.724700   32.805400
  H    -46.791200   21.690300   34.092500
  C    -46.451600   19.513300   34.228900
  H    -45.550000   19.730700   34.800800
  H    -46.226200   18.633900   33.543500
  C    -47.593700   19.058500   35.174700
  H    -47.606500   19.809400   36.038300
  H    -47.351300   18.120400   35.564000
  H    -48.601400   19.175900   34.754400
  H    -48.563200   22.227400   27.369000
  H    -42.117200   21.887300   32.206300

 Total Charge           Charge          ....    0
 Multiplicity           Mult            ....    1
 Number of Electrons    NEL             ....  134
 Basis Dimension        Dim             ....  322

ORBITAL ENERGIES
----------------

  NO   OCC          E(Eh)            E(eV)
   0   2.0000     -88.970516     -2421.0108
   1   2.0000     -88.965135     -2420.8644
   2   2.0000     -10.330825      -281.1160
   3   2.0000     -10.322990      -280.9028
   4   2.0000     -10.320842      -280.8444
   5   2.0000     -10.316499      -280.7262
   6   2.0000     -10.307383      -280.4782
   7   2.0000     -10.303307      -280.3672
   8   2.0000     -10.300034      -280.2782
   9   2.0000     -10.298994      -280.2499
  10   2.0000     -10.294353      -280.1236
  11   2.0000     -10.292872      -280.0833
  12   2.0000     -10.290847      -280.0282
  13   2.0000     -10.289427      -279.9896
  14   2.0000     -10.288666      -279.9688
  15   2.0000     -10.282139      -279.7912
  16   2.0000      -8.084581      -219.9926
  17   2.0000      -8.080020      -219.8685
  18   2.0000      -6.043109      -164.4414
  19   2.0000      -6.039204      -164.3351
  20   2.0000      -6.038561      -164.3176
  21   2.0000      -6.035346      -164.2301
  22   2.0000      -6.034576      -164.2092
  23   2.0000      -6.030635      -164.1019
  24   2.0000      -1.008676       -27.4475
  25   2.0000      -0.981281       -26.7020
  26   2.0000      -0.905434       -24.6381
  27   2.0000      -0.898276       -24.4433
  28   2.0000      -0.868225       -23.6256
  29   2.0000      -0.851254       -23.1638
  30   2.0000      -0.844090       -22.9689
  31   2.0000      -0.811625       -22.0854
  32   2.0000      -0.780145       -21.2288
  33   2.0000      -0.769826       -20.9480
  34   2.0000      -0.707749       -19.2588
  35   2.0000      -0.696985       -18.9659
  36   2.0000      -0.688181       -18.7263
  37   2.0000      -0.657034       -17.8788
  38   2.0000      -0.642616       -17.4865
  39   2.0000      -0.624082       -16.9821
  40   2.0000      -0.591589       -16.0979
  41   2.0000      -0.567646       -15.4464
  42   2.0000      -0.558734       -15.2039
  43   2.0000      -0.553722       -15.0675
  44   2.0000      -0.529466       -14.4075
  45   2.0000      -0.522530       -14.2188
  46   2.0000      -0.519085       -14.1250
  47   2.0000      -0.507196       -13.8015
  48   2.0000      -0.505122       -13.7451
  49   2.0000      -0.495936       -13.4951
  50   2.0000      -0.487494       -13.2654
  51   2.0000      -0.478017       -13.0075
  52   2.0000      -0.471724       -12.8363
  53   2.0000      -0.466724       -12.7002
  54   2.0000      -0.456654       -12.4262
  55   2.0000      -0.452937       -12.3250
  56   2.0000      -0.445390       -12.1197
  57   2.0000      -0.438755       -11.9391
  58   2.0000      -0.425621       -11.5817
  59   2.0000      -0.424286       -11.5454
  60   2.0000      -0.417927       -11.3724
  61   2.0000      -0.413515       -11.2523
  62   2.0000      -0.403520       -10.9803
  63   2.0000      -0.348648        -9.4872
  64   2.0000      -0.332923        -9.0593
  65   2.0000      -0.330977        -9.0063
  66   2.0000      -0.290458        -7.9038
  67   0.0000       0.029179         0.7940
  68   0.0000       0.059958         1.6315
  69   0.0000       0.105089         2.8596
  70   0.0000       0.123492         3.3604
  71   0.0000       0.130852         3.5607

MULLIKEN ATOMIC CHARGES
-----------------------
   0 S :    0.095125
   1 C :   -0.118805
   2 C :   -0.089523
   3 C :    0.043237
   4 C :   -0.130988
   5 H :    0.014496
   6 C :    0.046833
   7 H :    0.018473
   8 H :    0.025554
   9 C :   -0.055286
  10 H :    0.024584
  11 H :    0.046267
  12 C :   -0.079201
  13 H :    0.039443
  14 H :    0.037068
  15 H :    0.038901
  16 S :    0.115484
  17 C :   -0.104099
  18 C :   -0.032766
  19 C :   -0.022881
  20 C :   -0.150910
  21 H :    0.016590
  22 C :    0.023050
  23 H :    0.031193
  24 H :    0.040589
  25 C :   -0.134687
  26 H :    0.024834
  27 H :    0.045570
  28 C :   -0.018365
  29 H :    0.024020
  30 H :    0.035789
  31 H :    0.038842
  32 H :    0.049554
  33 H :    0.062015
Sum of atomic charges:    0.0000000

LOEWDIN ATOMIC CHARGES
----------------------
   0 S :    0.397005
   1 C :   -0.188502
   2 C :   -0.057115
   3 C :   -0.049415
   4 C :   -0.191123
   5 H :    0.030458
   6 C :   -0.034589
   7 H :    0.033580
   8 H :    0.024318
   9 C :   -0.040065
  10 H :    0.021229
  11 H :    0.030212
  12 C :   -0.073021
  13 H :    0.031949
  14 H :    0.027143
  15 H :    0.026214
  16 S :    0.407721
  17 C :   -0.190712
  18 C :   -0.070848
  19 C :   -0.060983
  20 C :   -0.194773
  21 H :    0.027369
  22 C :   -0.040436
  23 H :    0.029801
  24 H :    0.031323
  25 C :   -0.052384
  26 H :    0.019246
  27 H :    0.031315
  28 C :   -0.062939
  29 H :    0.030083
  30 H :    0.021131
  31 H :    0.027482
  32 H :    0.024097
  33 H :    0.035230

  Mayer bond orders larger than 0.100000
B(  0-S ,  1-C ) :   1.1367 B(  0-S ,  4-C ) :   1.1566 B(  1-C ,  2-C ) :   1.5823
B(  1-C ,  4-C ) :   0.1041 B(  1-C , 32-H ) :   0.9728 B(  2-C ,  3-C ) :   1.2736
B(  2-C ,  6-C ) :   1.0210 B(  3-C ,  4-C ) :   1.5295 B(  3-C ,  5-H ) :   0.9968
B(  4-C , 20-C ) :   1.0258 B(  6-C ,  7-H ) :   0.9464 B(  6-C ,  8-H ) :   0.9399
B(  6-C ,  9-C ) :   1.0408 B(  9-C , 10-H ) :   0.9585 B(  9-C , 11-H ) :   0.9567
B(  9-C , 12-C ) :   1.0761 B( 12-C , 13-H ) :   0.9766 B( 12-C , 14-H ) :   0.9761
B( 12-C , 15-H ) :   0.9772 B( 16-S , 17-C ) :   1.1526 B( 16-S , 20-C ) :   1.1327
B( 17-C , 18-C ) :   1.6330 B( 17-C , 33-H ) :   0.9604 B( 18-C , 19-C ) :   1.2256
B( 18-C , 21-H ) :   0.9910 B( 19-C , 20-C ) :   1.6420 B( 19-C , 22-C ) :   1.0314
B( 22-C , 23-H ) :   0.9378 B( 22-C , 24-H ) :   0.9443 B( 22-C , 25-C ) :   1.0455
B( 25-C , 26-H ) :   0.9598 B( 25-C , 27-H ) :   0.9590 B( 25-C , 28-C ) :   1.0810
B( 28-C , 29-H ) :   0.9724 B( 28-C , 30-H ) :   0.9742 B( 28-C , 31-H ) :   0.9758

Dispersion correction           -0.013498206
FINAL SINGLE POINT ENERGY     -1339.865188154849

DIPOLE MOMENT
-------------
                                X             Y             Z
Electronic contribution:     23.43854      -4.04247     -18.38587
Nuclear contribution   :    -23.88578       4.40097      18.81429
                        -----------------------------------------
Total Dipole Moment    :     -0.44723       0.35851       0.42842
                        -----------------------------------------
Magnitude (a.u.)       :      0.71561
Magnitude (Debye)      :      1.81893

Rotational constants in cm-1:     0.015861     0.008576     0.006383
Rotational constants in MHz :   475.501143   257.092788   191.359798

                             ****ORCA TERMINATED NORMALLY****
TOTAL RUN TIME: 0 days 0 hours 0 minutes 19 seconds 756 msec
