                         Program Version 4.2.1 -  RELEASE  -
|  1> ! wB97X-D3 SP def2-SVP
|  2> %pal
|  3> nprocs 24
|  4> end
|  5>
|  6> * xyz 0 1
|  7> S 	 -90.427 	 -36.5338 	 -60.8681
|  8> C 	 -89.9723 	 -37.5761 	 -62.2068
|  9> C 	 -88.8591 	 -38.3659 	 -61.8791
| 10> C 	 -88.4399 	 -38.2096 	 -60.4906
| 11> C 	 -89.2468 	 -37.2578 	 -59.8227
| 12> H 	 -87.6036 	 -38.7786 	 -60.0646
| 13> C 	 -88.2237 	 -39.4668 	 -62.7012
| 14> H 	 -88.6447 	 -39.2253 	 -63.6967
| 15> H 	 -88.5565 	 -40.4605 	 -62.3513
| 16> C 	 -86.7329 	 -39.531 	 -62.9106
| 17> H 	 -86.3741 	 -38.4882 	 -62.9693
| 18> H 	 -86.2761 	 -39.9154 	 -62.0184
| 19> C 	 -86.2328 	 -40.2378 	 -64.2371
| 20> H 	 -86.8571 	 -41.1114 	 -64.2941
| 21> H 	 -86.3225 	 -39.5511 	 -65.0526
| 22> H 	 -85.1815 	 -40.5147 	 -64.105
| 23> S 	 -87.2824 	 -36.6507 	 -58.0396
| 24> C 	 -87.6431 	 -36.0194 	 -56.4374
| 25> C 	 -88.99 	 -35.7104 	 -56.3023
| 26> C 	 -89.7569 	 -36.1352 	 -57.4544
| 27> C 	 -89.0177 	 -36.7667 	 -58.4439
| 28> H 	 -89.1799 	 -35.1806 	 -55.4103
| 29> C 	 -91.2378 	 -35.7584 	 -57.5564
| 30> H 	 -91.8446 	 -36.2195 	 -58.3967
| 31> H 	 -91.3295 	 -34.6704 	 -57.7575
| 32> C 	 -92.0864 	 -35.9996 	 -56.3213
| 33> H 	 -93.0771 	 -35.7184 	 -56.7118
| 34> H 	 -91.7222 	 -35.2636 	 -55.6367
| 35> C 	 -92.042 	 -37.486 	 -55.8581
| 36> H 	 -91.073 	 -38.023 	 -56.0696
| 37> H 	 -92.8045 	 -38.1262 	 -56.3511
| 38> H 	 -92.1664 	 -37.5953 	 -54.8076
| 39> H 	 -90.3639 	 -37.4908 	 -63.1976
| 40> H 	 -86.7665 	 -35.7615 	 -55.7283
| 41> *
| 42>
| 43>                          ****END OF INPUT****

CARTESIAN COORDINATES (ANGSTROEM)
---------------------------------
  S    -90.427000  -36.533800  -60.868100
  C    -89.972300  -37.576100  -62.206800
  C    -88.859100  -38.365900  -61.879100
  C    -88.439900  -38.209600  -60.490600
  C    -89.246800  -37.257800  -59.822700
  H    -87.603600  -38.778600  -60.064600
  C    -88.223700  -39.466800  -62.701200
  H    -88.644700  -39.225300  -63.696700
  H    -88.556500  -40.460500  -62.351300
  C    -86.732900  -39.531000  -62.910600
  H    -86.374100  -38.488200  -62.969300
  H    -86.276100  -39.915400  -62.018400
  C    -86.232800  -40.237800  -64.237100
  H    -86.857100  -41.111400  -64.294100
  H    -86.322500  -39.551100  -65.052600
  H    -85.181500  -40.514700  -64.105000
  S    -87.282400  -36.650700  -58.039600
  C    -87.643100  -36.019400  -56.437400
  C    -88.990000  -35.710400  -56.302300
  C    -89.756900  -36.135200  -57.454400
  C    -89.017700  -36.766700  -58.443900
  H    -89.179900  -35.180600  -55.410300
  C    -91.237800  -35.758400  -57.556400
  H    -91.844600  -36.219500  -58.396700
  H    -91.329500  -34.670400  -57.757500
  C    -92.086400  -35.999600  -56.321300
  H    -93.077100  -35.718400  -56.711800
  H    -91.722200  -35.263600  -55.636700
  C    -92.042000  -37.486000  -55.858100
  H    -91.073000  -38.023000  -56.069600
  H    -92.804500  -38.126200  -56.351100
  H    -92.166400  -37.595300  -54.807600
  H    -90.363900  -37.490800  -63.197600
  H    -86.766500  -35.761500  -55.728300

 Total Charge           Charge          ....    0
 Multiplicity           Mult            ....    1
 Number of Electrons    NEL             ....  134
 Basis Dimension        Dim             ....  322

ORBITAL ENERGIES
----------------

  NO   OCC          E(Eh)            E(eV)
   0   2.0000     -88.971813     -2421.0461
   1   2.0000     -88.961424     -2420.7634
   2   2.0000     -10.337499      -281.2976
   3   2.0000     -10.332423      -281.1595
   4   2.0000     -10.326325      -280.9936
   5   2.0000     -10.316269      -280.7200
   6   2.0000     -10.312217      -280.6097
   7   2.0000     -10.306098      -280.4432
   8   2.0000     -10.299163      -280.2545
   9   2.0000     -10.297909      -280.2204
  10   2.0000     -10.293153      -280.0909
  11   2.0000     -10.292020      -280.0601
  12   2.0000     -10.284569      -279.8573
  13   2.0000     -10.283913      -279.8395
  14   2.0000     -10.281273      -279.7677
  15   2.0000     -10.276225      -279.6303
  16   2.0000      -8.085917      -220.0290
  17   2.0000      -8.075722      -219.7516
  18   2.0000      -6.044522      -164.4798
  19   2.0000      -6.040396      -164.3675
  20   2.0000      -6.036743      -164.2681
  21   2.0000      -6.034295      -164.2015
  22   2.0000      -6.030346      -164.0941
  23   2.0000      -6.026380      -163.9861
  24   2.0000      -1.000995       -27.2385
  25   2.0000      -0.978631       -26.6299
  26   2.0000      -0.910805       -24.7843
  27   2.0000      -0.907461       -24.6933
  28   2.0000      -0.866587       -23.5810
  29   2.0000      -0.848546       -23.0901
  30   2.0000      -0.836283       -22.7564
  31   2.0000      -0.810109       -22.0442
  32   2.0000      -0.782284       -21.2870
  33   2.0000      -0.774257       -21.0686
  34   2.0000      -0.708729       -19.2855
  35   2.0000      -0.696718       -18.9587
  36   2.0000      -0.681533       -18.5455
  37   2.0000      -0.658614       -17.9218
  38   2.0000      -0.632566       -17.2130
  39   2.0000      -0.618266       -16.8239
  40   2.0000      -0.597747       -16.2655
  41   2.0000      -0.576757       -15.6944
  42   2.0000      -0.561649       -15.2832
  43   2.0000      -0.552482       -15.0338
  44   2.0000      -0.533607       -14.5202
  45   2.0000      -0.523821       -14.2539
  46   2.0000      -0.516000       -14.0411
  47   2.0000      -0.511632       -13.9222
  48   2.0000      -0.502677       -13.6785
  49   2.0000      -0.494055       -13.4439
  50   2.0000      -0.488938       -13.3047
  51   2.0000      -0.475815       -12.9476
  52   2.0000      -0.471718       -12.8361
  53   2.0000      -0.463528       -12.6133
  54   2.0000      -0.457775       -12.4567
  55   2.0000      -0.449317       -12.2265
  56   2.0000      -0.441863       -12.0237
  57   2.0000      -0.436207       -11.8698
  58   2.0000      -0.426878       -11.6159
  59   2.0000      -0.421321       -11.4647
  60   2.0000      -0.415005       -11.2929
  61   2.0000      -0.409781       -11.1507
  62   2.0000      -0.406324       -11.0567
  63   2.0000      -0.352997        -9.6055
  64   2.0000      -0.330494        -8.9932
  65   2.0000      -0.327853        -8.9213
  66   2.0000      -0.287958        -7.8357
  67   0.0000       0.023112         0.6289
  68   0.0000       0.076725         2.0878
  69   0.0000       0.104974         2.8565
  70   0.0000       0.113138         3.0787
  71   0.0000       0.122565         3.3352

MULLIKEN ATOMIC CHARGES
-----------------------
   0 S :    0.119516
   1 C :   -0.115836
   2 C :   -0.091746
   3 C :   -0.010403
   4 C :   -0.113487
   5 H :    0.033535
   6 C :    0.050833
   7 H :    0.009493
   8 H :    0.050737
   9 C :   -0.111481
  10 H :    0.027493
  11 H :    0.024485
  12 C :   -0.029777
  13 H :    0.033940
  14 H :    0.040029
  15 H :    0.040501
  16 S :    0.074791
  17 C :   -0.137970
  18 C :   -0.022763
  19 C :   -0.024417
  20 C :   -0.114053
  21 H :    0.014670
  22 C :   -0.011982
  23 H :    0.032471
  24 H :    0.043578
  25 C :   -0.061899
  26 H :    0.035588
  27 H :    0.028696
  28 C :   -0.065359
  29 H :    0.050510
  30 H :    0.036391
  31 H :    0.026933
  32 H :    0.043845
  33 H :    0.093136
Sum of atomic charges:    0.0000000

LOEWDIN ATOMIC CHARGES
----------------------
   0 S :    0.426504
   1 C :   -0.202814
   2 C :   -0.056190
   3 C :   -0.073349
   4 C :   -0.194371
   5 H :    0.033366
   6 C :   -0.041072
   7 H :    0.030294
   8 H :    0.036021
   9 C :   -0.047576
  10 H :    0.025309
  11 H :    0.015202
  12 C :   -0.052472
  13 H :    0.023167
  14 H :    0.024196
  15 H :    0.031493
  16 S :    0.386642
  17 C :   -0.187419
  18 C :   -0.072834
  19 C :   -0.059566
  20 C :   -0.181489
  21 H :    0.030312
  22 C :   -0.046415
  23 H :    0.025766
  24 H :    0.036041
  25 C :   -0.041458
  26 H :    0.031386
  27 H :    0.016997
  28 C :   -0.074643
  29 H :    0.035394
  30 H :    0.031259
  31 H :    0.020486
  32 H :    0.024464
  33 H :    0.047367

  Mayer bond orders larger than 0.100000
B(  0-S ,  1-C ) :   1.1309 B(  0-S ,  4-C ) :   1.1642 B(  1-C ,  2-C ) :   1.6074
B(  1-C , 32-H ) :   0.9676 B(  2-C ,  3-C ) :   1.2404 B(  2-C ,  6-C ) :   1.0335
B(  3-C ,  4-C ) :   1.5307 B(  3-C ,  5-H ) :   0.9883 B(  4-C , 20-C ) :   1.0556
B(  6-C ,  7-H ) :   0.9397 B(  6-C ,  8-H ) :   0.9370 B(  6-C ,  9-C ) :   1.0617
B(  9-C , 10-H ) :   0.9605 B(  9-C , 11-H ) :   0.9534 B(  9-C , 12-C ) :   1.0757
B( 12-C , 13-H ) :   0.9802 B( 12-C , 14-H ) :   0.9777 B( 12-C , 15-H ) :   0.9755
B( 16-S , 17-C ) :   1.1568 B( 16-S , 20-C ) :   1.1261 B( 17-C , 18-C ) :   1.6233
B( 17-C , 33-H ) :   0.9537 B( 18-C , 19-C ) :   1.1848 B( 18-C , 21-H ) :   1.0048
B( 19-C , 20-C ) :   1.6111 B( 19-C , 22-C ) :   1.0294 B( 22-C , 23-H ) :   0.9460
B( 22-C , 24-H ) :   0.9383 B( 22-C , 25-C ) :   1.0735 B( 25-C , 26-H ) :   0.9590
B( 25-C , 27-H ) :   0.9583 B( 25-C , 28-C ) :   1.0624 B( 28-C , 29-H ) :   0.9757
B( 28-C , 30-H ) :   0.9750 B( 28-C , 31-H ) :   0.9775

Dispersion correction           -0.013796462
FINAL SINGLE POINT ENERGY     -1339.866752279023

DIPOLE MOMENT
-------------
                                X             Y             Z
Electronic contribution:      2.29097      10.53373       3.65515
Nuclear contribution   :     -2.23838     -10.52639      -3.65702
                        -----------------------------------------
Total Dipole Moment    :      0.05260       0.00735      -0.00187
                        -----------------------------------------
Magnitude (a.u.)       :      0.05314
Magnitude (Debye)      :      0.13508

Rotational constants in cm-1:     0.024708     0.007074     0.006029
Rotational constants in MHz :   740.737049   212.061860   180.730308

                             ****ORCA TERMINATED NORMALLY****
TOTAL RUN TIME: 0 days 0 hours 0 minutes 19 seconds 812 msec
