                         Program Version 4.2.1 -  RELEASE  -
|  1> ! wB97X-D3 SP def2-SVP
|  2> %pal
|  3> nprocs 24
|  4> end
|  5>
|  6> * xyz 0 1
|  7> S 	 -121.658 	 61.0112 	 -39.3573
|  8> C 	 -122.957 	 59.9432 	 -39.7206
|  9> C 	 -122.689 	 58.6724 	 -39.2036
| 10> C 	 -121.562 	 58.6431 	 -38.3141
| 11> C 	 -120.861 	 59.8507 	 -38.1714
| 12> H 	 -121.259 	 57.7179 	 -37.8679
| 13> C 	 -123.662 	 57.5162 	 -39.4743
| 14> H 	 -123.15 	 56.9176 	 -40.1839
| 15> H 	 -124.396 	 57.9885 	 -40.061
| 16> C 	 -124.287 	 56.7486 	 -38.3285
| 17> H 	 -124.745 	 55.7916 	 -38.6468
| 18> H 	 -123.397 	 56.4661 	 -37.8038
| 19> C 	 -125.213 	 57.7042 	 -37.4969
| 20> H 	 -126.082 	 57.9959 	 -38.104
| 21> H 	 -125.63 	 57.1869 	 -36.7259
| 22> H 	 -124.658 	 58.5003 	 -37.0358
| 23> S 	 -118.815 	 61.7553 	 -37.8599
| 24> C 	 -117.399 	 61.3314 	 -36.9264
| 25> C 	 -117.659 	 60.167 	 -36.1614
| 26> C 	 -118.857 	 59.4581 	 -36.5457
| 27> C 	 -119.621 	 60.2185 	 -37.449
| 28> H 	 -117.111 	 59.8856 	 -35.2639
| 29> C 	 -119.375 	 58.2884 	 -35.696
| 30> H 	 -120.437 	 58.2593 	 -35.8245
| 31> H 	 -119.202 	 58.5091 	 -34.6689
| 32> C 	 -118.611 	 56.9821 	 -35.9034
| 33> H 	 -118.569 	 56.5343 	 -34.9669
| 34> H 	 -117.607 	 57.1744 	 -36.2517
| 35> C 	 -119.208 	 55.9957 	 -36.8774
| 36> H 	 -120.239 	 55.709 	 -36.7684
| 37> H 	 -118.544 	 55.0907 	 -36.7125
| 38> H 	 -118.956 	 56.32 	 -37.9076
| 39> H 	 -123.695 	 60.1629 	 -40.4077
| 40> H 	 -116.573 	 62.0793 	 -36.7946
| 41> *
| 42>
| 43>                          ****END OF INPUT****

CARTESIAN COORDINATES (ANGSTROEM)
---------------------------------
  S    -121.658000   61.011200  -39.357300
  C    -122.957000   59.943200  -39.720600
  C    -122.689000   58.672400  -39.203600
  C    -121.562000   58.643100  -38.314100
  C    -120.861000   59.850700  -38.171400
  H    -121.259000   57.717900  -37.867900
  C    -123.662000   57.516200  -39.474300
  H    -123.150000   56.917600  -40.183900
  H    -124.396000   57.988500  -40.061000
  C    -124.287000   56.748600  -38.328500
  H    -124.745000   55.791600  -38.646800
  H    -123.397000   56.466100  -37.803800
  C    -125.213000   57.704200  -37.496900
  H    -126.082000   57.995900  -38.104000
  H    -125.630000   57.186900  -36.725900
  H    -124.658000   58.500300  -37.035800
  S    -118.815000   61.755300  -37.859900
  C    -117.399000   61.331400  -36.926400
  C    -117.659000   60.167000  -36.161400
  C    -118.857000   59.458100  -36.545700
  C    -119.621000   60.218500  -37.449000
  H    -117.111000   59.885600  -35.263900
  C    -119.375000   58.288400  -35.696000
  H    -120.437000   58.259300  -35.824500
  H    -119.202000   58.509100  -34.668900
  C    -118.611000   56.982100  -35.903400
  H    -118.569000   56.534300  -34.966900
  H    -117.607000   57.174400  -36.251700
  C    -119.208000   55.995700  -36.877400
  H    -120.239000   55.709000  -36.768400
  H    -118.544000   55.090700  -36.712500
  H    -118.956000   56.320000  -37.907600
  H    -123.695000   60.162900  -40.407700
  H    -116.573000   62.079300  -36.794600

 Total Charge           Charge          ....    0
 Multiplicity           Mult            ....    1
 Number of Electrons    NEL             ....  134
 Basis Dimension        Dim             ....  322

ORBITAL ENERGIES
----------------

  NO   OCC          E(Eh)            E(eV)
   0   2.0000     -88.969781     -2420.9908
   1   2.0000     -88.962330     -2420.7881
   2   2.0000     -10.343876      -281.4712
   3   2.0000     -10.338089      -281.3137
   4   2.0000     -10.329416      -281.0777
   5   2.0000     -10.309014      -280.5225
   6   2.0000     -10.308159      -280.4993
   7   2.0000     -10.303057      -280.3604
   8   2.0000     -10.301565      -280.3198
   9   2.0000     -10.297885      -280.2197
  10   2.0000     -10.289319      -279.9866
  11   2.0000     -10.288462      -279.9633
  12   2.0000     -10.281802      -279.7821
  13   2.0000     -10.280736      -279.7531
  14   2.0000     -10.279649      -279.7235
  15   2.0000     -10.270809      -279.4829
  16   2.0000      -8.083935      -219.9751
  17   2.0000      -8.076343      -219.7685
  18   2.0000      -6.042568      -164.4266
  19   2.0000      -6.038556      -164.3175
  20   2.0000      -6.035005      -164.2208
  21   2.0000      -6.034575      -164.2091
  22   2.0000      -6.030939      -164.1102
  23   2.0000      -6.027004      -164.0031
  24   2.0000      -0.997320       -27.1384
  25   2.0000      -0.977738       -26.6056
  26   2.0000      -0.916009       -24.9259
  27   2.0000      -0.909664       -24.7532
  28   2.0000      -0.865640       -23.5553
  29   2.0000      -0.853919       -23.2363
  30   2.0000      -0.840062       -22.8593
  31   2.0000      -0.814161       -22.1545
  32   2.0000      -0.787633       -21.4326
  33   2.0000      -0.773929       -21.0597
  34   2.0000      -0.713985       -19.4285
  35   2.0000      -0.699000       -19.0208
  36   2.0000      -0.693990       -18.8844
  37   2.0000      -0.658124       -17.9085
  38   2.0000      -0.640199       -17.4207
  39   2.0000      -0.624808       -17.0019
  40   2.0000      -0.601667       -16.3722
  41   2.0000      -0.563070       -15.3219
  42   2.0000      -0.560311       -15.2468
  43   2.0000      -0.554861       -15.0985
  44   2.0000      -0.542605       -14.7650
  45   2.0000      -0.537253       -14.6194
  46   2.0000      -0.529340       -14.4041
  47   2.0000      -0.509098       -13.8533
  48   2.0000      -0.503586       -13.7033
  49   2.0000      -0.492570       -13.4035
  50   2.0000      -0.488134       -13.2828
  51   2.0000      -0.480458       -13.0739
  52   2.0000      -0.472617       -12.8606
  53   2.0000      -0.466980       -12.7072
  54   2.0000      -0.464227       -12.6322
  55   2.0000      -0.449284       -12.2256
  56   2.0000      -0.442783       -12.0487
  57   2.0000      -0.440153       -11.9772
  58   2.0000      -0.433991       -11.8095
  59   2.0000      -0.422970       -11.5096
  60   2.0000      -0.419359       -11.4113
  61   2.0000      -0.415606       -11.3092
  62   2.0000      -0.406596       -11.0641
  63   2.0000      -0.363323        -9.8865
  64   2.0000      -0.332212        -9.0400
  65   2.0000      -0.324691        -8.8353
  66   2.0000      -0.277856        -7.5609
  67   0.0000       0.011980         0.3260
  68   0.0000       0.076450         2.0803
  69   0.0000       0.094468         2.5706
  70   0.0000       0.107847         2.9347
  71   0.0000       0.131982         3.5914

MULLIKEN ATOMIC CHARGES
-----------------------
   0 S :    0.075604
   1 C :   -0.083288
   2 C :   -0.148116
   3 C :    0.018977
   4 C :   -0.093117
   5 H :   -0.020054
   6 C :    0.114182
   7 H :    0.023594
   8 H :   -0.016996
   9 C :   -0.060724
  10 H :    0.035172
  11 H :    0.012165
  12 C :   -0.008217
  13 H :    0.032546
  14 H :    0.003507
  15 H :    0.046736
  16 S :    0.103144
  17 C :   -0.115941
  18 C :   -0.021723
  19 C :   -0.075216
  20 C :   -0.122962
  21 H :    0.028998
  22 C :    0.060816
  23 H :    0.021782
  24 H :    0.020646
  25 C :   -0.038534
  26 H :    0.010380
  27 H :    0.029329
  28 C :   -0.073118
  29 H :    0.043942
  30 H :    0.036157
  31 H :    0.044031
  32 H :    0.030512
  33 H :    0.085783
Sum of atomic charges:    0.0000000

LOEWDIN ATOMIC CHARGES
----------------------
   0 S :    0.374380
   1 C :   -0.192174
   2 C :   -0.059052
   3 C :   -0.072671
   4 C :   -0.155216
   5 H :    0.022994
   6 C :   -0.030282
   7 H :    0.028182
   8 H :    0.018249
   9 C :   -0.038089
  10 H :    0.029771
  11 H :    0.017765
  12 C :   -0.052635
  13 H :    0.030599
  14 H :    0.011568
  15 H :    0.031231
  16 S :    0.398330
  17 C :   -0.194684
  18 C :   -0.069113
  19 C :   -0.056408
  20 C :   -0.187218
  21 H :    0.031912
  22 C :   -0.024064
  23 H :    0.026605
  24 H :    0.031854
  25 C :   -0.035475
  26 H :    0.014344
  27 H :    0.029256
  28 C :   -0.070676
  29 H :    0.018142
  30 H :    0.036493
  31 H :    0.030471
  32 H :    0.015053
  33 H :    0.040560

  Mayer bond orders larger than 0.100000
B(  0-S ,  1-C ) :   1.1484 B(  0-S ,  4-C ) :   1.1327 B(  1-C ,  2-C ) :   1.5891
B(  1-C ,  4-C ) :   0.1005 B(  1-C , 32-H ) :   0.9722 B(  2-C ,  3-C ) :   1.2668
B(  2-C ,  6-C ) :   1.0181 B(  3-C ,  4-C ) :   1.5459 B(  3-C ,  5-H ) :   0.9848
B(  4-C , 20-C ) :   1.0863 B(  6-C ,  7-H ) :   0.9265 B(  6-C ,  8-H ) :   0.9340
B(  6-C ,  9-C ) :   1.0648 B(  9-C , 10-H ) :   0.9532 B(  9-C , 11-H ) :   0.9561
B(  9-C , 12-C ) :   1.0712 B( 12-C , 13-H ) :   0.9758 B( 12-C , 14-H ) :   0.9722
B( 12-C , 15-H ) :   0.9746 B( 16-S , 17-C ) :   1.1628 B( 16-S , 20-C ) :   1.1343
B( 17-C , 18-C ) :   1.5742 B( 17-C , 20-C ) :   0.1029 B( 17-C , 33-H ) :   0.9629
B( 18-C , 19-C ) :   1.2603 B( 18-C , 21-H ) :   0.9798 B( 19-C , 20-C ) :   1.5733
B( 19-C , 22-C ) :   1.0353 B( 22-C , 23-H ) :   0.9490 B( 22-C , 24-H ) :   0.9439
B( 22-C , 25-C ) :   1.0464 B( 25-C , 26-H ) :   0.9577 B( 25-C , 27-H ) :   0.9550
B( 25-C , 28-C ) :   1.0990 B( 28-C , 29-H ) :   0.9689 B( 28-C , 30-H ) :   0.9693
B( 28-C , 31-H ) :   0.9705

Dispersion correction           -0.014659529
FINAL SINGLE POINT ENERGY     -1339.853125229238

DIPOLE MOMENT
-------------
                                X             Y             Z
Electronic contribution:     10.40151      26.77055      -8.05903
Nuclear contribution   :    -10.42034     -27.42976       8.48038
                        -----------------------------------------
Total Dipole Moment    :     -0.01883      -0.65921       0.42135
                        -----------------------------------------
Magnitude (a.u.)       :      0.78259
Magnitude (Debye)      :      1.98919

Rotational constants in cm-1:     0.018352     0.009567     0.006795
Rotational constants in MHz :   550.172911   286.815767   203.715759

                             ****ORCA TERMINATED NORMALLY****
TOTAL RUN TIME: 0 days 0 hours 0 minutes 23 seconds 133 msec
