                         Program Version 4.2.1 -  RELEASE  -
|  1> ! wB97X-D3 SP def2-SVP
|  2> %pal
|  3> nprocs 24
|  4> end
|  5>
|  6> * xyz 0 1
|  7> S 	 39.3885 	 -3.67494 	 -114.786
|  8> C 	 40.4623 	 -4.93836 	 -115.175
|  9> C 	 39.8289 	 -5.93398 	 -115.933
| 10> C 	 38.5686 	 -5.51469 	 -116.451
| 11> C 	 38.1901 	 -4.31325 	 -115.994
| 12> H 	 37.9392 	 -6.01713 	 -117.141
| 13> C 	 40.641 	 -7.16777 	 -116.455
| 14> H 	 40.102 	 -7.76764 	 -117.194
| 15> H 	 40.8853 	 -7.76225 	 -115.578
| 16> C 	 41.87 	 -6.83244 	 -117.301
| 17> H 	 41.6167 	 -6.07388 	 -118.061
| 18> H 	 42.4831 	 -6.35725 	 -116.552
| 19> C 	 42.4086 	 -8.08654 	 -117.953
| 20> H 	 41.7081 	 -8.57338 	 -118.565
| 21> H 	 43.2676 	 -7.85256 	 -118.543
| 22> H 	 42.6698 	 -8.79708 	 -117.178
| 23> S 	 36.0542 	 -3.4704 	 -114.575
| 24> C 	 34.5929 	 -3.12992 	 -115.365
| 25> C 	 34.7141 	 -3.16751 	 -116.748
| 26> C 	 35.9822 	 -3.65578 	 -117.184
| 27> C 	 36.8772 	 -3.76087 	 -116.131
| 28> H 	 33.8982 	 -2.79048 	 -117.332
| 29> C 	 36.1896 	 -3.84627 	 -118.667
| 30> H 	 37.2361 	 -4.19857 	 -118.851
| 31> H 	 36.2139 	 -2.82546 	 -119.059
| 32> C 	 35.189 	 -4.75665 	 -119.329
| 33> H 	 35.3861 	 -4.7678 	 -120.391
| 34> H 	 34.2144 	 -4.36363 	 -119.062
| 35> C 	 35.1965 	 -6.22877 	 -118.844
| 36> H 	 34.4163 	 -6.87525 	 -119.394
| 37> H 	 34.915 	 -6.37805 	 -117.8
| 38> H 	 36.1445 	 -6.77813 	 -119.069
| 39> H 	 41.5234 	 -5.10297 	 -114.855
| 40> H 	 33.7008 	 -2.91727 	 -114.862
| 41> *
| 42>
| 43>                          ****END OF INPUT****

CARTESIAN COORDINATES (ANGSTROEM)
---------------------------------
  S     39.388500   -3.674940  -114.786000
  C     40.462300   -4.938360  -115.175000
  C     39.828900   -5.933980  -115.933000
  C     38.568600   -5.514690  -116.451000
  C     38.190100   -4.313250  -115.994000
  H     37.939200   -6.017130  -117.141000
  C     40.641000   -7.167770  -116.455000
  H     40.102000   -7.767640  -117.194000
  H     40.885300   -7.762250  -115.578000
  C     41.870000   -6.832440  -117.301000
  H     41.616700   -6.073880  -118.061000
  H     42.483100   -6.357250  -116.552000
  C     42.408600   -8.086540  -117.953000
  H     41.708100   -8.573380  -118.565000
  H     43.267600   -7.852560  -118.543000
  H     42.669800   -8.797080  -117.178000
  S     36.054200   -3.470400  -114.575000
  C     34.592900   -3.129920  -115.365000
  C     34.714100   -3.167510  -116.748000
  C     35.982200   -3.655780  -117.184000
  C     36.877200   -3.760870  -116.131000
  H     33.898200   -2.790480  -117.332000
  C     36.189600   -3.846270  -118.667000
  H     37.236100   -4.198570  -118.851000
  H     36.213900   -2.825460  -119.059000
  C     35.189000   -4.756650  -119.329000
  H     35.386100   -4.767800  -120.391000
  H     34.214400   -4.363630  -119.062000
  C     35.196500   -6.228770  -118.844000
  H     34.416300   -6.875250  -119.394000
  H     34.915000   -6.378050  -117.800000
  H     36.144500   -6.778130  -119.069000
  H     41.523400   -5.102970  -114.855000
  H     33.700800   -2.917270  -114.862000

 Total Charge           Charge          ....    0
 Multiplicity           Mult            ....    1
 Number of Electrons    NEL             ....  134
 Basis Dimension        Dim             ....  322

ORBITAL ENERGIES
----------------

  NO   OCC          E(Eh)            E(eV)
   0   2.0000     -88.966636     -2420.9053
   1   2.0000     -88.962648     -2420.7967
   2   2.0000     -10.324731      -280.9502
   3   2.0000     -10.324489      -280.9436
   4   2.0000     -10.315543      -280.7002
   5   2.0000     -10.308825      -280.5174
   6   2.0000     -10.303026      -280.3596
   7   2.0000     -10.301141      -280.3083
   8   2.0000     -10.293414      -280.0980
   9   2.0000     -10.289831      -280.0005
  10   2.0000     -10.289664      -279.9960
  11   2.0000     -10.289344      -279.9873
  12   2.0000     -10.287885      -279.9476
  13   2.0000     -10.287800      -279.9453
  14   2.0000     -10.282780      -279.8087
  15   2.0000     -10.272148      -279.5194
  16   2.0000      -8.081082      -219.8974
  17   2.0000      -8.078109      -219.8165
  18   2.0000      -6.039619      -164.3464
  19   2.0000      -6.036544      -164.2627
  20   2.0000      -6.035789      -164.2422
  21   2.0000      -6.032526      -164.1534
  22   2.0000      -6.031669      -164.1301
  23   2.0000      -6.028890      -164.0544
  24   2.0000      -1.008770       -27.4500
  25   2.0000      -0.985011       -26.8035
  26   2.0000      -0.915299       -24.9065
  27   2.0000      -0.913198       -24.8494
  28   2.0000      -0.875209       -23.8156
  29   2.0000      -0.851949       -23.1827
  30   2.0000      -0.846099       -23.0235
  31   2.0000      -0.813464       -22.1355
  32   2.0000      -0.784300       -21.3419
  33   2.0000      -0.768101       -20.9011
  34   2.0000      -0.707257       -19.2455
  35   2.0000      -0.701019       -19.0757
  36   2.0000      -0.693861       -18.8809
  37   2.0000      -0.662106       -18.0168
  38   2.0000      -0.640012       -17.4156
  39   2.0000      -0.617925       -16.8146
  40   2.0000      -0.602085       -16.3836
  41   2.0000      -0.577658       -15.7189
  42   2.0000      -0.561340       -15.2748
  43   2.0000      -0.551888       -15.0176
  44   2.0000      -0.546009       -14.8577
  45   2.0000      -0.527087       -14.3428
  46   2.0000      -0.522139       -14.2081
  47   2.0000      -0.505741       -13.7619
  48   2.0000      -0.504361       -13.7243
  49   2.0000      -0.497914       -13.5489
  50   2.0000      -0.491255       -13.3677
  51   2.0000      -0.478471       -13.0198
  52   2.0000      -0.476107       -12.9555
  53   2.0000      -0.465339       -12.6625
  54   2.0000      -0.462220       -12.5777
  55   2.0000      -0.448363       -12.2006
  56   2.0000      -0.445877       -12.1329
  57   2.0000      -0.440634       -11.9903
  58   2.0000      -0.438404       -11.9296
  59   2.0000      -0.424262       -11.5448
  60   2.0000      -0.417387       -11.3577
  61   2.0000      -0.412374       -11.2213
  62   2.0000      -0.406361       -11.0577
  63   2.0000      -0.357327        -9.7234
  64   2.0000      -0.329959        -8.9786
  65   2.0000      -0.327231        -8.9044
  66   2.0000      -0.283164        -7.7053
  67   0.0000       0.033559         0.9132
  68   0.0000       0.062098         1.6898
  69   0.0000       0.111727         3.0403
  70   0.0000       0.123341         3.3563
  71   0.0000       0.133587         3.6351

MULLIKEN ATOMIC CHARGES
-----------------------
   0 S :    0.110510
   1 C :   -0.129582
   2 C :   -0.072088
   3 C :    0.046503
   4 C :   -0.139735
   5 H :   -0.010159
   6 C :    0.009480
   7 H :    0.011671
   8 H :    0.039358
   9 C :   -0.074271
  10 H :    0.037385
  11 H :    0.012844
  12 C :   -0.003594
  13 H :    0.020424
  14 H :    0.032418
  15 H :    0.023170
  16 S :    0.103687
  17 C :   -0.073208
  18 C :   -0.051039
  19 C :   -0.053907
  20 C :   -0.140801
  21 H :    0.020717
  22 C :    0.062577
  23 H :    0.017115
  24 H :    0.044626
  25 C :   -0.034376
  26 H :    0.037303
  27 H :    0.027332
  28 C :   -0.110023
  29 H :    0.038833
  30 H :    0.049907
  31 H :    0.039373
  32 H :    0.070419
  33 H :    0.037130
Sum of atomic charges:    0.0000000

LOEWDIN ATOMIC CHARGES
----------------------
   0 S :    0.392661
   1 C :   -0.217832
   2 C :   -0.063291
   3 C :   -0.052095
   4 C :   -0.175178
   5 H :    0.028740
   6 C :   -0.034550
   7 H :    0.023606
   8 H :    0.028900
   9 C :   -0.039955
  10 H :    0.027824
  11 H :    0.015742
  12 C :   -0.056539
  13 H :    0.019196
  14 H :    0.026243
  15 H :    0.027473
  16 S :    0.414483
  17 C :   -0.189593
  18 C :   -0.075044
  19 C :   -0.057394
  20 C :   -0.186561
  21 H :    0.028926
  22 C :   -0.036522
  23 H :    0.029409
  24 H :    0.039640
  25 C :   -0.036829
  26 H :    0.028392
  27 H :    0.023856
  28 C :   -0.078611
  29 H :    0.035334
  30 H :    0.027033
  31 H :    0.024390
  32 H :    0.040536
  33 H :    0.017611

  Mayer bond orders larger than 0.100000
B(  0-S ,  1-C ) :   1.1443 B(  0-S ,  4-C ) :   1.1160 B(  1-C ,  2-C ) :   1.6033
B(  1-C , 32-H ) :   0.9613 B(  2-C ,  3-C ) :   1.2337 B(  2-C ,  6-C ) :   1.0164
B(  3-C ,  4-C ) :   1.5956 B(  3-C ,  5-H ) :   1.0018 B(  4-C , 20-C ) :   1.0459
B(  6-C ,  7-H ) :   0.9584 B(  6-C ,  8-H ) :   0.9406 B(  6-C ,  9-C ) :   1.0523
B(  9-C , 10-H ) :   0.9577 B(  9-C , 11-H ) :   0.9524 B(  9-C , 12-C ) :   1.0875
B( 12-C , 13-H ) :   0.9723 B( 12-C , 14-H ) :   0.9711 B( 12-C , 15-H ) :   0.9711
B( 16-S , 17-C ) :   1.1746 B( 16-S , 20-C ) :   1.1315 B( 17-C , 18-C ) :   1.6022
B( 17-C , 33-H ) :   0.9733 B( 18-C , 19-C ) :   1.2192 B( 18-C , 21-H ) :   0.9918
B( 19-C , 20-C ) :   1.6129 B( 19-C , 22-C ) :   1.0333 B( 22-C , 23-H ) :   0.9354
B( 22-C , 24-H ) :   0.9361 B( 22-C , 25-C ) :   1.0702 B( 25-C , 26-H ) :   0.9537
B( 25-C , 27-H ) :   0.9527 B( 25-C , 28-C ) :   1.0786 B( 28-C , 29-H ) :   0.9726
B( 28-C , 30-H ) :   0.9725 B( 28-C , 31-H ) :   0.9700

Dispersion correction           -0.014317526
FINAL SINGLE POINT ENERGY     -1339.869817704360

DIPOLE MOMENT
-------------
                                X             Y             Z
Electronic contribution:     -6.10337      18.86409      21.66491
Nuclear contribution   :      6.01807     -19.25738     -22.24834
                        -----------------------------------------
Total Dipole Moment    :     -0.08531      -0.39329      -0.58343
                        -----------------------------------------
Magnitude (a.u.)       :      0.70876
Magnitude (Debye)      :      1.80153

Rotational constants in cm-1:     0.019744     0.008518     0.006393
Rotational constants in MHz :   591.918238   255.362609   191.659843

                             ****ORCA TERMINATED NORMALLY****
TOTAL RUN TIME: 0 days 0 hours 0 minutes 20 seconds 519 msec
