                         Program Version 4.2.1 -  RELEASE  -
|  1> ! wB97X-D3 SP def2-SVP
|  2> %pal
|  3> nprocs 24
|  4> end
|  5>
|  6> * xyz 0 1
|  7> S 	 -90.3464 	 -12.412 	 -116.674
|  8> C 	 -88.7942 	 -13.215 	 -116.767
|  9> C 	 -87.7396 	 -12.4604 	 -116.167
| 10> C 	 -88.2603 	 -11.2459 	 -115.674
| 11> C 	 -89.5873 	 -11.0412 	 -115.908
| 12> H 	 -87.6233 	 -10.5661 	 -115.118
| 13> C 	 -86.2855 	 -12.8693 	 -115.835
| 14> H 	 -86.0558 	 -13.8473 	 -116.208
| 15> H 	 -86.1469 	 -12.9849 	 -114.785
| 16> C 	 -85.1727 	 -11.8949 	 -116.296
| 17> H 	 -85.2189 	 -11.0052 	 -115.609
| 18> H 	 -84.1743 	 -12.484 	 -116.129
| 19> C 	 -85.433 	 -11.4995 	 -117.743
| 20> H 	 -85.6911 	 -12.324 	 -118.322
| 21> H 	 -86.0287 	 -10.6276 	 -117.736
| 22> H 	 -84.5428 	 -11.137 	 -118.164
| 23> S 	 -90.0086 	 -8.79648 	 -114.264
| 24> C 	 -91.1886 	 -7.59262 	 -114.612
| 25> C 	 -91.7914 	 -7.86945 	 -115.823
| 26> C 	 -91.3426 	 -9.07024 	 -116.387
| 27> C 	 -90.2702 	 -9.72751 	 -115.767
| 28> H 	 -92.5342 	 -7.22118 	 -116.169
| 29> C 	 -91.8369 	 -9.49609 	 -117.71
| 30> H 	 -92.4734 	 -10.358 	 -117.577
| 31> H 	 -90.9325 	 -9.87806 	 -118.201
| 32> C 	 -92.5309 	 -8.52894 	 -118.644
| 33> H 	 -93.4525 	 -8.20988 	 -118.051
| 34> H 	 -92.8721 	 -9.12335 	 -119.466
| 35> C 	 -91.5928 	 -7.35625 	 -119.066
| 36> H 	 -91.1108 	 -7.05242 	 -118.082
| 37> H 	 -92.1959 	 -6.55784 	 -119.49
| 38> H 	 -90.755 	 -7.69358 	 -119.718
| 39> H 	 -88.6994 	 -14.1368 	 -117.178
| 40> H 	 -91.182 	 -6.63957 	 -114.051
| 41> *
| 42>
| 43>                          ****END OF INPUT****

CARTESIAN COORDINATES (ANGSTROEM)
---------------------------------
  S    -90.346400  -12.412000  -116.674000
  C    -88.794200  -13.215000  -116.767000
  C    -87.739600  -12.460400  -116.167000
  C    -88.260300  -11.245900  -115.674000
  C    -89.587300  -11.041200  -115.908000
  H    -87.623300  -10.566100  -115.118000
  C    -86.285500  -12.869300  -115.835000
  H    -86.055800  -13.847300  -116.208000
  H    -86.146900  -12.984900  -114.785000
  C    -85.172700  -11.894900  -116.296000
  H    -85.218900  -11.005200  -115.609000
  H    -84.174300  -12.484000  -116.129000
  C    -85.433000  -11.499500  -117.743000
  H    -85.691100  -12.324000  -118.322000
  H    -86.028700  -10.627600  -117.736000
  H    -84.542800  -11.137000  -118.164000
  S    -90.008600   -8.796480  -114.264000
  C    -91.188600   -7.592620  -114.612000
  C    -91.791400   -7.869450  -115.823000
  C    -91.342600   -9.070240  -116.387000
  C    -90.270200   -9.727510  -115.767000
  H    -92.534200   -7.221180  -116.169000
  C    -91.836900   -9.496090  -117.710000
  H    -92.473400  -10.358000  -117.577000
  H    -90.932500   -9.878060  -118.201000
  C    -92.530900   -8.528940  -118.644000
  H    -93.452500   -8.209880  -118.051000
  H    -92.872100   -9.123350  -119.466000
  C    -91.592800   -7.356250  -119.066000
  H    -91.110800   -7.052420  -118.082000
  H    -92.195900   -6.557840  -119.490000
  H    -90.755000   -7.693580  -119.718000
  H    -88.699400  -14.136800  -117.178000
  H    -91.182000   -6.639570  -114.051000

 Total Charge           Charge          ....    0
 Multiplicity           Mult            ....    1
 Number of Electrons    NEL             ....  134
 Basis Dimension        Dim             ....  322

ORBITAL ENERGIES
----------------

  NO   OCC          E(Eh)            E(eV)
   0   2.0000     -88.973903     -2421.1030
   1   2.0000     -88.958839     -2420.6931
   2   2.0000     -10.333313      -281.1838
   3   2.0000     -10.330122      -281.0969
   4   2.0000     -10.317742      -280.7600
   5   2.0000     -10.315710      -280.7047
   6   2.0000     -10.308014      -280.4953
   7   2.0000     -10.298320      -280.2315
   8   2.0000     -10.297904      -280.2202
   9   2.0000     -10.291332      -280.0414
  10   2.0000     -10.290756      -280.0257
  11   2.0000     -10.287743      -279.9437
  12   2.0000     -10.287444      -279.9356
  13   2.0000     -10.282866      -279.8110
  14   2.0000     -10.277072      -279.6533
  15   2.0000     -10.262073      -279.2452
  16   2.0000      -8.088172      -220.0903
  17   2.0000      -8.073757      -219.6981
  18   2.0000      -6.046582      -164.5358
  19   2.0000      -6.042785      -164.4326
  20   2.0000      -6.039029      -164.3303
  21   2.0000      -6.032161      -164.1435
  22   2.0000      -6.028056      -164.0317
  23   2.0000      -6.024809      -163.9434
  24   2.0000      -1.007132       -27.4055
  25   2.0000      -0.987409       -26.8688
  26   2.0000      -0.913097       -24.8466
  27   2.0000      -0.911804       -24.8115
  28   2.0000      -0.868020       -23.6200
  29   2.0000      -0.853111       -23.2143
  30   2.0000      -0.840720       -22.8772
  31   2.0000      -0.815609       -22.1938
  32   2.0000      -0.788565       -21.4579
  33   2.0000      -0.773061       -21.0361
  34   2.0000      -0.706518       -19.2253
  35   2.0000      -0.697421       -18.9778
  36   2.0000      -0.689746       -18.7689
  37   2.0000      -0.661772       -18.0077
  38   2.0000      -0.638767       -17.3817
  39   2.0000      -0.626134       -17.0380
  40   2.0000      -0.597140       -16.2490
  41   2.0000      -0.573173       -15.5968
  42   2.0000      -0.562495       -15.3063
  43   2.0000      -0.557322       -15.1655
  44   2.0000      -0.538859       -14.6631
  45   2.0000      -0.531528       -14.4636
  46   2.0000      -0.520739       -14.1700
  47   2.0000      -0.516789       -14.0625
  48   2.0000      -0.505714       -13.7612
  49   2.0000      -0.496522       -13.5111
  50   2.0000      -0.490914       -13.3584
  51   2.0000      -0.482515       -13.1299
  52   2.0000      -0.474024       -12.8989
  53   2.0000      -0.462996       -12.5988
  54   2.0000      -0.460267       -12.5245
  55   2.0000      -0.450661       -12.2631
  56   2.0000      -0.438796       -11.9402
  57   2.0000      -0.433554       -11.7976
  58   2.0000      -0.428585       -11.6624
  59   2.0000      -0.426218       -11.5980
  60   2.0000      -0.417040       -11.3482
  61   2.0000      -0.412473       -11.2240
  62   2.0000      -0.405609       -11.0372
  63   2.0000      -0.354440        -9.6448
  64   2.0000      -0.333877        -9.0853
  65   2.0000      -0.325802        -8.8655
  66   2.0000      -0.285683        -7.7738
  67   0.0000       0.021358         0.5812
  68   0.0000       0.076077         2.0702
  69   0.0000       0.107309         2.9200
  70   0.0000       0.119486         3.2514
  71   0.0000       0.130927         3.5627

MULLIKEN ATOMIC CHARGES
-----------------------
   0 S :    0.119687
   1 C :   -0.095163
   2 C :   -0.073790
   3 C :   -0.001956
   4 C :   -0.098627
   5 H :    0.015056
   6 C :    0.085722
   7 H :    0.009215
   8 H :    0.032473
   9 C :   -0.168641
  10 H :    0.040950
  11 H :    0.048309
  12 C :    0.050425
  13 H :    0.021141
  14 H :    0.028256
  15 H :    0.006727
  16 S :    0.072634
  17 C :   -0.096771
  18 C :   -0.026894
  19 C :   -0.080682
  20 C :   -0.118784
  21 H :    0.005505
  22 C :    0.019621
  23 H :    0.032716
  24 H :    0.028277
  25 C :   -0.067136
  26 H :    0.033043
  27 H :    0.026871
  28 C :   -0.066825
  29 H :    0.043291
  30 H :    0.045086
  31 H :    0.046033
  32 H :    0.007442
  33 H :    0.076788
Sum of atomic charges:    0.0000000

LOEWDIN ATOMIC CHARGES
----------------------
   0 S :    0.427026
   1 C :   -0.178692
   2 C :   -0.051951
   3 C :   -0.061635
   4 C :   -0.194821
   5 H :    0.030114
   6 C :   -0.032242
   7 H :    0.023041
   8 H :    0.030153
   9 C :   -0.044603
  10 H :    0.024094
  11 H :    0.034617
  12 C :   -0.055701
  13 H :    0.020186
  14 H :    0.029081
  15 H :    0.021142
  16 S :    0.401213
  17 C :   -0.191552
  18 C :   -0.077831
  19 C :   -0.067108
  20 C :   -0.186078
  21 H :    0.024880
  22 C :   -0.049326
  23 H :    0.028174
  24 H :    0.029415
  25 C :   -0.043385
  26 H :    0.027593
  27 H :    0.022808
  28 C :   -0.071864
  29 H :    0.035303
  30 H :    0.025671
  31 H :    0.032152
  32 H :    0.002369
  33 H :    0.037759

  Mayer bond orders larger than 0.100000
B(  0-S ,  1-C ) :   1.1603 B(  0-S ,  4-C ) :   1.1480 B(  1-C ,  2-C ) :   1.5675
B(  1-C , 32-H ) :   0.9815 B(  2-C ,  3-C ) :   1.2814 B(  2-C ,  6-C ) :   1.0163
B(  3-C ,  4-C ) :   1.5416 B(  3-C ,  5-H ) :   0.9912 B(  4-C , 20-C ) :   1.0297
B(  6-C ,  7-H ) :   0.9411 B(  6-C ,  8-H ) :   0.9453 B(  6-C ,  9-C ) :   1.0641
B(  9-C , 10-H ) :   0.9564 B(  9-C , 11-H ) :   0.9580 B(  9-C , 12-C ) :   1.0816
B( 12-C , 13-H ) :   0.9759 B( 12-C , 14-H ) :   0.9630 B( 12-C , 15-H ) :   0.9664
B( 16-S , 17-C ) :   1.1972 B( 16-S , 20-C ) :   1.1309 B( 17-C , 18-C ) :   1.5466
B( 17-C , 20-C ) :   0.1081 B( 17-C , 33-H ) :   0.9579 B( 18-C , 19-C ) :   1.2791
B( 18-C , 21-H ) :   0.9993 B( 19-C , 20-C ) :   1.5553 B( 19-C , 22-C ) :   1.0246
B( 22-C , 23-H ) :   0.9179 B( 22-C , 24-H ) :   0.9387 B( 22-C , 25-C ) :   1.0991
B( 25-C , 26-H ) :   0.9451 B( 25-C , 27-H ) :   0.9483 B( 25-C , 28-C ) :   1.0654
B( 28-C , 29-H ) :   0.9742 B( 28-C , 30-H ) :   0.9753 B( 28-C , 31-H ) :   0.9714

Dispersion correction           -0.014631800
FINAL SINGLE POINT ENERGY     -1339.859471118219

DIPOLE MOMENT
-------------
                                X             Y             Z
Electronic contribution:     -9.84613      -4.16410      14.44124
Nuclear contribution   :     10.11513       4.15293     -14.73582
                        -----------------------------------------
Total Dipole Moment    :      0.26900      -0.01118      -0.29458
                        -----------------------------------------
Magnitude (a.u.)       :      0.39908
Magnitude (Debye)      :      1.01439

Rotational constants in cm-1:     0.020683     0.007975     0.007332
Rotational constants in MHz :   620.063174   239.085580   219.801499

                             ****ORCA TERMINATED NORMALLY****
TOTAL RUN TIME: 0 days 0 hours 0 minutes 21 seconds 806 msec
