                         Program Version 4.2.1 -  RELEASE  -
|  1> ! wB97X-D3 SP def2-SVP
|  2> %pal
|  3> nprocs 24
|  4> end
|  5>
|  6> * xyz 0 1
|  7> S 	 -78.1722 	 -0.582411 	 -61.2449
|  8> C 	 -77.0286 	 0.734212 	 -61.6479
|  9> C 	 -76.9845 	 0.914523 	 -63.0011
| 10> C 	 -77.8807 	 0.00990599 	 -63.6771
| 11> C 	 -78.5673 	 -0.885298 	 -62.8643
| 12> H 	 -78.177 	 -0.0295211 	 -64.7579
| 13> C 	 -76.2441 	 1.99651 	 -63.6713
| 14> H 	 -75.4295 	 1.55702 	 -64.2032
| 15> H 	 -75.7735 	 2.528 	 -62.906
| 16> C 	 -76.9943 	 3.04075 	 -64.558
| 17> H 	 -77.5282 	 2.52021 	 -65.3219
| 18> H 	 -77.8917 	 3.41948 	 -63.9732
| 19> C 	 -76.2317 	 4.16477 	 -65.1811
| 20> H 	 -75.7886 	 4.86138 	 -64.5044
| 21> H 	 -75.3861 	 3.82569 	 -65.8573
| 22> H 	 -76.9718 	 4.71841 	 -65.775
| 23> S 	 -79.2829 	 -3.19292 	 -64.3331
| 24> C 	 -80.9854 	 -3.68576 	 -64.3808
| 25> C 	 -81.7654 	 -2.95147 	 -63.5197
| 26> C 	 -80.9967 	 -1.87216 	 -62.9513
| 27> C 	 -79.6214 	 -1.81764 	 -63.3035
| 28> H 	 -82.7902 	 -3.15721 	 -63.449
| 29> C 	 -81.644 	 -0.751323 	 -62.136
| 30> H 	 -81.0334 	 0.143168 	 -62.013
| 31> H 	 -81.6688 	 -1.10721 	 -61.127
| 32> C 	 -83.1036 	 -0.370534 	 -62.5508
| 33> H 	 -83.6315 	 0.26715 	 -61.8027
| 34> H 	 -83.7637 	 -1.19902 	 -62.6902
| 35> C 	 -83.046 	 0.409307 	 -63.9073
| 36> H 	 -82.5394 	 -0.229963 	 -64.6034
| 37> H 	 -82.3866 	 1.38681 	 -63.79
| 38> H 	 -84.1502 	 0.624063 	 -64.1336
| 39> H 	 -76.4759 	 1.17696 	 -60.9137
| 40> H 	 -81.399 	 -4.46333 	 -65.0836
| 41> *
| 42>
| 43>                          ****END OF INPUT****

CARTESIAN COORDINATES (ANGSTROEM)
---------------------------------
  S    -78.172200   -0.582411  -61.244900
  C    -77.028600    0.734212  -61.647900
  C    -76.984500    0.914523  -63.001100
  C    -77.880700    0.009906  -63.677100
  C    -78.567300   -0.885298  -62.864300
  H    -78.177000   -0.029521  -64.757900
  C    -76.244100    1.996510  -63.671300
  H    -75.429500    1.557020  -64.203200
  H    -75.773500    2.528000  -62.906000
  C    -76.994300    3.040750  -64.558000
  H    -77.528200    2.520210  -65.321900
  H    -77.891700    3.419480  -63.973200
  C    -76.231700    4.164770  -65.181100
  H    -75.788600    4.861380  -64.504400
  H    -75.386100    3.825690  -65.857300
  H    -76.971800    4.718410  -65.775000
  S    -79.282900   -3.192920  -64.333100
  C    -80.985400   -3.685760  -64.380800
  C    -81.765400   -2.951470  -63.519700
  C    -80.996700   -1.872160  -62.951300
  C    -79.621400   -1.817640  -63.303500
  H    -82.790200   -3.157210  -63.449000
  C    -81.644000   -0.751323  -62.136000
  H    -81.033400    0.143168  -62.013000
  H    -81.668800   -1.107210  -61.127000
  C    -83.103600   -0.370534  -62.550800
  H    -83.631500    0.267150  -61.802700
  H    -83.763700   -1.199020  -62.690200
  C    -83.046000    0.409307  -63.907300
  H    -82.539400   -0.229963  -64.603400
  H    -82.386600    1.386810  -63.790000
  H    -84.150200    0.624063  -64.133600
  H    -76.475900    1.176960  -60.913700
  H    -81.399000   -4.463330  -65.083600

 Total Charge           Charge          ....    0
 Multiplicity           Mult            ....    1
 Number of Electrons    NEL             ....  134
 Basis Dimension        Dim             ....  322

ORBITAL ENERGIES
----------------

  NO   OCC          E(Eh)            E(eV)
   0   2.0000     -88.966687     -2420.9066
   1   2.0000     -88.964343     -2420.8428
   2   2.0000     -10.330503      -281.1073
   3   2.0000     -10.329280      -281.0740
   4   2.0000     -10.325502      -280.9712
   5   2.0000     -10.312719      -280.6233
   6   2.0000     -10.310557      -280.5645
   7   2.0000     -10.303763      -280.3797
   8   2.0000     -10.297131      -280.1992
   9   2.0000     -10.296074      -280.1704
  10   2.0000     -10.289781      -279.9992
  11   2.0000     -10.287483      -279.9366
  12   2.0000     -10.286486      -279.9095
  13   2.0000     -10.285875      -279.8929
  14   2.0000     -10.283878      -279.8386
  15   2.0000     -10.283137      -279.8184
  16   2.0000      -8.080830      -219.8906
  17   2.0000      -8.079462      -219.8534
  18   2.0000      -6.039366      -164.3395
  19   2.0000      -6.037841      -164.2980
  20   2.0000      -6.035344      -164.2301
  21   2.0000      -6.033819      -164.1886
  22   2.0000      -6.031662      -164.1299
  23   2.0000      -6.030408      -164.0957
  24   2.0000      -1.006439       -27.3866
  25   2.0000      -0.983975       -26.7753
  26   2.0000      -0.916186       -24.9307
  27   2.0000      -0.899925       -24.4882
  28   2.0000      -0.874591       -23.7988
  29   2.0000      -0.850730       -23.1495
  30   2.0000      -0.837314       -22.7845
  31   2.0000      -0.818781       -22.2802
  32   2.0000      -0.786860       -21.4115
  33   2.0000      -0.765780       -20.8379
  34   2.0000      -0.709974       -19.3194
  35   2.0000      -0.699626       -19.0378
  36   2.0000      -0.690501       -18.7895
  37   2.0000      -0.659891       -17.9566
  38   2.0000      -0.643363       -17.5068
  39   2.0000      -0.617932       -16.8148
  40   2.0000      -0.597167       -16.2497
  41   2.0000      -0.575851       -15.6697
  42   2.0000      -0.561688       -15.2843
  43   2.0000      -0.547355       -14.8943
  44   2.0000      -0.533328       -14.5126
  45   2.0000      -0.530981       -14.4487
  46   2.0000      -0.518058       -14.0971
  47   2.0000      -0.517639       -14.0857
  48   2.0000      -0.506135       -13.7726
  49   2.0000      -0.500819       -13.6280
  50   2.0000      -0.486882       -13.2487
  51   2.0000      -0.477275       -12.9873
  52   2.0000      -0.475676       -12.9438
  53   2.0000      -0.461398       -12.5553
  54   2.0000      -0.458635       -12.4801
  55   2.0000      -0.453415       -12.3380
  56   2.0000      -0.446821       -12.1586
  57   2.0000      -0.431747       -11.7484
  58   2.0000      -0.428218       -11.6524
  59   2.0000      -0.422392       -11.4939
  60   2.0000      -0.415185       -11.2977
  61   2.0000      -0.412119       -11.2143
  62   2.0000      -0.409265       -11.1367
  63   2.0000      -0.343465        -9.3462
  64   2.0000      -0.329941        -8.9781
  65   2.0000      -0.328462        -8.9379
  66   2.0000      -0.298765        -8.1298
  67   0.0000       0.032472         0.8836
  68   0.0000       0.069477         1.8906
  69   0.0000       0.116333         3.1656
  70   0.0000       0.122040         3.3209
  71   0.0000       0.129310         3.5187

MULLIKEN ATOMIC CHARGES
-----------------------
   0 S :    0.102319
   1 C :   -0.108187
   2 C :   -0.068258
   3 C :    0.002276
   4 C :   -0.163720
   5 H :    0.031893
   6 C :    0.146168
   7 H :    0.024114
   8 H :   -0.014070
   9 C :   -0.092483
  10 H :    0.017541
  11 H :    0.030898
  12 C :   -0.041887
  13 H :    0.028203
  14 H :    0.039345
  15 H :    0.038578
  16 S :    0.109497
  17 C :   -0.121459
  18 C :   -0.002532
  19 C :   -0.056036
  20 C :   -0.151892
  21 H :    0.006866
  22 C :    0.080786
  23 H :    0.030668
  24 H :    0.026533
  25 C :   -0.092741
  26 H :    0.033505
  27 H :    0.021295
  28 C :   -0.090657
  29 H :    0.041690
  30 H :    0.046287
  31 H :    0.049199
  32 H :    0.016344
  33 H :    0.079917
Sum of atomic charges:   -0.0000000

LOEWDIN ATOMIC CHARGES
----------------------
   0 S :    0.416210
   1 C :   -0.164108
   2 C :   -0.058574
   3 C :   -0.069358
   4 C :   -0.214939
   5 H :    0.038598
   6 C :   -0.030131
   7 H :    0.031593
   8 H :    0.021510
   9 C :   -0.045040
  10 H :    0.018462
  11 H :    0.032531
  12 C :   -0.065664
  13 H :    0.019548
  14 H :    0.032840
  15 H :    0.034788
  16 S :    0.399688
  17 C :   -0.179364
  18 C :   -0.069505
  19 C :   -0.048766
  20 C :   -0.211388
  21 H :    0.026762
  22 C :   -0.038733
  23 H :    0.029487
  24 H :    0.030197
  25 C :   -0.043554
  26 H :    0.027074
  27 H :    0.014326
  28 C :   -0.073391
  29 H :    0.018961
  30 H :    0.035453
  31 H :    0.032681
  32 H :    0.008956
  33 H :    0.042849

  Mayer bond orders larger than 0.100000
B(  0-S ,  1-C ) :   1.1372 B(  0-S ,  4-C ) :   1.1609 B(  1-C ,  2-C ) :   1.5945
B(  1-C , 32-H ) :   0.9857 B(  2-C ,  3-C ) :   1.2189 B(  2-C ,  6-C ) :   1.0449
B(  3-C ,  4-C ) :   1.5846 B(  3-C ,  5-H ) :   0.9855 B(  4-C , 20-C ) :   1.0163
B(  6-C ,  7-H ) :   0.9194 B(  6-C ,  8-H ) :   0.9276 B(  6-C ,  9-C ) :   1.0540
B(  9-C , 10-H ) :   0.9511 B(  9-C , 11-H ) :   0.9518 B(  9-C , 12-C ) :   1.0957
B( 12-C , 13-H ) :   0.9754 B( 12-C , 14-H ) :   0.9712 B( 12-C , 15-H ) :   0.9701
B( 16-S , 17-C ) :   1.1659 B( 16-S , 20-C ) :   1.1352 B( 17-C , 18-C ) :   1.6027
B( 17-C , 33-H ) :   0.9572 B( 18-C , 19-C ) :   1.2341 B( 18-C , 21-H ) :   1.0007
B( 19-C , 20-C ) :   1.5800 B( 19-C , 22-C ) :   1.0337 B( 22-C , 23-H ) :   0.9414
B( 22-C , 24-H ) :   0.9233 B( 22-C , 25-C ) :   1.0715 B( 25-C , 26-H ) :   0.9570
B( 25-C , 27-H ) :   0.9555 B( 25-C , 28-C ) :   1.0633 B( 28-C , 29-H ) :   0.9778
B( 28-C , 30-H ) :   0.9737 B( 28-C , 31-H ) :   0.9748

Dispersion correction           -0.014350783
FINAL SINGLE POINT ENERGY     -1339.869038818335

DIPOLE MOMENT
-------------
                                X             Y             Z
Electronic contribution:      6.24708     -23.30356       7.68371
Nuclear contribution   :     -6.46591      23.76251      -7.83583
                        -----------------------------------------
Total Dipole Moment    :     -0.21883       0.45895      -0.15212
                        -----------------------------------------
Magnitude (a.u.)       :      0.53072
Magnitude (Debye)      :      1.34899

Rotational constants in cm-1:     0.018961     0.007662     0.007065
Rotational constants in MHz :   568.422358   229.714054   211.797745

                             ****ORCA TERMINATED NORMALLY****
TOTAL RUN TIME: 0 days 0 hours 0 minutes 21 seconds 275 msec
