                         Program Version 4.2.1 -  RELEASE  -
|  1> ! wB97X-D3 SP def2-SVP
|  2> %pal
|  3> nprocs 24
|  4> end
|  5>
|  6> * xyz 0 1
|  7> S 	 -146.111 	 30.3684 	 -17.0212
|  8> C 	 -145.298 	 31.7729 	 -17.6727
|  9> C 	 -144.884 	 32.5941 	 -16.6418
| 10> C 	 -145.34 	 32.1107 	 -15.3667
| 11> C 	 -146.045 	 30.8954 	 -15.3624
| 12> H 	 -145.188 	 32.6 	 -14.4469
| 13> C 	 -143.8 	 33.6611 	 -16.7481
| 14> H 	 -143.826 	 34.3001 	 -15.9136
| 15> H 	 -144.188 	 34.3394 	 -17.4804
| 16> C 	 -142.429 	 33.2094 	 -17.1213
| 17> H 	 -142.067 	 32.5116 	 -16.3945
| 18> H 	 -142.447 	 32.7291 	 -18.1281
| 19> C 	 -141.348 	 34.3366 	 -16.9925
| 20> H 	 -140.35 	 34.0128 	 -17.2755
| 21> H 	 -141.541 	 35.1481 	 -17.6507
| 22> H 	 -141.442 	 34.8258 	 -16.0331
| 23> S 	 -145.865 	 28.79 	 -13.4846
| 24> C 	 -146.912 	 28.9224 	 -12.151
| 25> C 	 -147.865 	 29.9216 	 -12.2189
| 26> C 	 -147.782 	 30.6606 	 -13.4319
| 27> C 	 -146.642 	 30.3105 	 -14.156
| 28> H 	 -148.572 	 29.9951 	 -11.4183
| 29> C 	 -148.729 	 31.8626 	 -13.6963
| 30> H 	 -149.524 	 31.8861 	 -12.9409
| 31> H 	 -149.37 	 31.7143 	 -14.6411
| 32> C 	 -148.213 	 33.3345 	 -13.8296
| 33> H 	 -149.105 	 33.9978 	 -13.9575
| 34> H 	 -147.658 	 33.4886 	 -14.7531
| 35> C 	 -147.404 	 33.6156 	 -12.5927
| 36> H 	 -146.78 	 32.7274 	 -12.4535
| 37> H 	 -148.095 	 33.8445 	 -11.7437
| 38> H 	 -146.793 	 34.5282 	 -12.7593
| 39> H 	 -144.958 	 31.9018 	 -18.6956
| 40> H 	 -146.79 	 28.4695 	 -11.2206
| 41> *
| 42>
| 43>                          ****END OF INPUT****

CARTESIAN COORDINATES (ANGSTROEM)
---------------------------------
  S    -146.111000   30.368400  -17.021200
  C    -145.298000   31.772900  -17.672700
  C    -144.884000   32.594100  -16.641800
  C    -145.340000   32.110700  -15.366700
  C    -146.045000   30.895400  -15.362400
  H    -145.188000   32.600000  -14.446900
  C    -143.800000   33.661100  -16.748100
  H    -143.826000   34.300100  -15.913600
  H    -144.188000   34.339400  -17.480400
  C    -142.429000   33.209400  -17.121300
  H    -142.067000   32.511600  -16.394500
  H    -142.447000   32.729100  -18.128100
  C    -141.348000   34.336600  -16.992500
  H    -140.350000   34.012800  -17.275500
  H    -141.541000   35.148100  -17.650700
  H    -141.442000   34.825800  -16.033100
  S    -145.865000   28.790000  -13.484600
  C    -146.912000   28.922400  -12.151000
  C    -147.865000   29.921600  -12.218900
  C    -147.782000   30.660600  -13.431900
  C    -146.642000   30.310500  -14.156000
  H    -148.572000   29.995100  -11.418300
  C    -148.729000   31.862600  -13.696300
  H    -149.524000   31.886100  -12.940900
  H    -149.370000   31.714300  -14.641100
  C    -148.213000   33.334500  -13.829600
  H    -149.105000   33.997800  -13.957500
  H    -147.658000   33.488600  -14.753100
  C    -147.404000   33.615600  -12.592700
  H    -146.780000   32.727400  -12.453500
  H    -148.095000   33.844500  -11.743700
  H    -146.793000   34.528200  -12.759300
  H    -144.958000   31.901800  -18.695600
  H    -146.790000   28.469500  -11.220600

 Total Charge           Charge          ....    0
 Multiplicity           Mult            ....    1
 Number of Electrons    NEL             ....  134
 Basis Dimension        Dim             ....  322

ORBITAL ENERGIES
----------------

  NO   OCC          E(Eh)            E(eV)
   0   2.0000     -88.970053     -2420.9982
   1   2.0000     -88.966588     -2420.9039
   2   2.0000     -10.335826      -281.2521
   3   2.0000     -10.329519      -281.0805
   4   2.0000     -10.315899      -280.7099
   5   2.0000     -10.314665      -280.6763
   6   2.0000     -10.311297      -280.5847
   7   2.0000     -10.300667      -280.2954
   8   2.0000     -10.300155      -280.2815
   9   2.0000     -10.292662      -280.0776
  10   2.0000     -10.290418      -280.0165
  11   2.0000     -10.287652      -279.9413
  12   2.0000     -10.284771      -279.8629
  13   2.0000     -10.284490      -279.8552
  14   2.0000     -10.276759      -279.6448
  15   2.0000     -10.276169      -279.6288
  16   2.0000      -8.084543      -219.9916
  17   2.0000      -8.081018      -219.8957
  18   2.0000      -6.042866      -164.4347
  19   2.0000      -6.039616      -164.3463
  20   2.0000      -6.039244      -164.3362
  21   2.0000      -6.035342      -164.2300
  22   2.0000      -6.035339      -164.2299
  23   2.0000      -6.031902      -164.1364
  24   2.0000      -1.002749       -27.2862
  25   2.0000      -0.984632       -26.7932
  26   2.0000      -0.915294       -24.9064
  27   2.0000      -0.906144       -24.6574
  28   2.0000      -0.867663       -23.6103
  29   2.0000      -0.852138       -23.1879
  30   2.0000      -0.845036       -22.9946
  31   2.0000      -0.811448       -22.0806
  32   2.0000      -0.783179       -21.3114
  33   2.0000      -0.772962       -21.0334
  34   2.0000      -0.709946       -19.3186
  35   2.0000      -0.707050       -19.2398
  36   2.0000      -0.684832       -18.6352
  37   2.0000      -0.660136       -17.9632
  38   2.0000      -0.644451       -17.5364
  39   2.0000      -0.614201       -16.7132
  40   2.0000      -0.591215       -16.0878
  41   2.0000      -0.576910       -15.6985
  42   2.0000      -0.561374       -15.2758
  43   2.0000      -0.551758       -15.0141
  44   2.0000      -0.545015       -14.8306
  45   2.0000      -0.529490       -14.4082
  46   2.0000      -0.514212       -13.9924
  47   2.0000      -0.513300       -13.9676
  48   2.0000      -0.508023       -13.8240
  49   2.0000      -0.497784       -13.5454
  50   2.0000      -0.481686       -13.1073
  51   2.0000      -0.476629       -12.9697
  52   2.0000      -0.473183       -12.8760
  53   2.0000      -0.465169       -12.6579
  54   2.0000      -0.459444       -12.5021
  55   2.0000      -0.447710       -12.1828
  56   2.0000      -0.443595       -12.0708
  57   2.0000      -0.439950       -11.9716
  58   2.0000      -0.431034       -11.7290
  59   2.0000      -0.419695       -11.4205
  60   2.0000      -0.418318       -11.3830
  61   2.0000      -0.413813       -11.2604
  62   2.0000      -0.410486       -11.1699
  63   2.0000      -0.337468        -9.1830
  64   2.0000      -0.330546        -8.9946
  65   2.0000      -0.326956        -8.8969
  66   2.0000      -0.302825        -8.2403
  67   0.0000       0.035421         0.9639
  68   0.0000       0.048349         1.3157
  69   0.0000       0.108103         2.9416
  70   0.0000       0.121982         3.3193
  71   0.0000       0.130552         3.5525

MULLIKEN ATOMIC CHARGES
-----------------------
   0 S :    0.119549
   1 C :   -0.131938
   2 C :   -0.089637
   3 C :    0.043361
   4 C :   -0.149615
   5 H :   -0.011155
   6 C :    0.097730
   7 H :   -0.006519
   8 H :    0.011100
   9 C :   -0.047152
  10 H :    0.030618
  11 H :    0.032785
  12 C :   -0.036903
  13 H :    0.039404
  14 H :    0.008027
  15 H :    0.027642
  16 S :    0.119069
  17 C :   -0.047181
  18 C :   -0.057563
  19 C :    0.012702
  20 C :   -0.209854
  21 H :    0.015450
  22 C :    0.019159
  23 H :    0.015960
  24 H :    0.046284
  25 C :   -0.074698
  26 H :    0.030431
  27 H :    0.041790
  28 C :   -0.065500
  29 H :    0.056818
  30 H :    0.037447
  31 H :    0.033753
  32 H :    0.053764
  33 H :    0.034872
Sum of atomic charges:    0.0000000

LOEWDIN ATOMIC CHARGES
----------------------
   0 S :    0.416720
   1 C :   -0.197193
   2 C :   -0.065934
   3 C :   -0.053126
   4 C :   -0.213196
   5 H :    0.020241
   6 C :   -0.034142
   7 H :    0.021714
   8 H :    0.030110
   9 C :   -0.034870
  10 H :    0.024781
  11 H :    0.027615
  12 C :   -0.062348
  13 H :    0.028463
  14 H :    0.016500
  15 H :    0.026001
  16 S :    0.399437
  17 C :   -0.184727
  18 C :   -0.072092
  19 C :   -0.044930
  20 C :   -0.176554
  21 H :    0.030336
  22 C :   -0.038889
  23 H :    0.027196
  24 H :    0.042898
  25 C :   -0.044892
  26 H :    0.028064
  27 H :    0.021548
  28 C :   -0.073265
  29 H :    0.027896
  30 H :    0.030690
  31 H :    0.025417
  32 H :    0.031631
  33 H :    0.018899

  Mayer bond orders larger than 0.100000
B(  0-S ,  1-C ) :   1.1564 B(  0-S ,  4-C ) :   1.1507 B(  1-C ,  2-C ) :   1.5783
B(  1-C , 32-H ) :   0.9695 B(  2-C ,  3-C ) :   1.2667 B(  2-C ,  6-C ) :   1.0266
B(  3-C ,  4-C ) :   1.5533 B(  3-C ,  5-H ) :   0.9985 B(  4-C , 20-C ) :   1.0470
B(  6-C ,  7-H ) :   0.9369 B(  6-C ,  8-H ) :   0.9226 B(  6-C ,  9-C ) :   1.0699
B(  9-C , 10-H ) :   0.9579 B(  9-C , 11-H ) :   0.9513 B(  9-C , 12-C ) :   1.0762
B( 12-C , 13-H ) :   0.9757 B( 12-C , 14-H ) :   0.9751 B( 12-C , 15-H ) :   0.9736
B( 16-S , 17-C ) :   1.1657 B( 16-S , 20-C ) :   1.1256 B( 17-C , 18-C ) :   1.6403
B( 17-C , 33-H ) :   0.9621 B( 18-C , 19-C ) :   1.2116 B( 18-C , 21-H ) :   0.9900
B( 19-C , 20-C ) :   1.6001 B( 19-C , 22-C ) :   1.0379 B( 22-C , 23-H ) :   0.9444
B( 22-C , 24-H ) :   0.9311 B( 22-C , 25-C ) :   1.0703 B( 25-C , 26-H ) :   0.9505
B( 25-C , 27-H ) :   0.9521 B( 25-C , 28-C ) :   1.0688 B( 28-C , 29-H ) :   0.9713
B( 28-C , 30-H ) :   0.9734 B( 28-C , 31-H ) :   0.9732

Dispersion correction           -0.015313053
FINAL SINGLE POINT ENERGY     -1339.862328028804

DIPOLE MOMENT
-------------
                                X             Y             Z
Electronic contribution:     -6.90722     -25.43647      -1.09112
Nuclear contribution   :      6.99123      26.02606       1.29777
                        -----------------------------------------
Total Dipole Moment    :      0.08402       0.58959       0.20665
                        -----------------------------------------
Magnitude (a.u.)       :      0.63038
Magnitude (Debye)      :      1.60229

Rotational constants in cm-1:     0.019979     0.008122     0.007201
Rotational constants in MHz :   598.940748   243.484370   215.865795

                             ****ORCA TERMINATED NORMALLY****
TOTAL RUN TIME: 0 days 0 hours 0 minutes 22 seconds 196 msec
