                         Program Version 4.2.1 -  RELEASE  -
|  1> ! wB97X-D3 SP def2-SVP
|  2> %pal
|  3> nprocs 24
|  4> end
|  5>
|  6> * xyz 0 1
|  7> S 	 -86.7788 	 -33.0191 	 -67.1218
|  8> C 	 -86.5381 	 -34.3136 	 -68.2563
|  9> C 	 -87.7714 	 -34.8571 	 -68.7123
| 10> C 	 -88.8726 	 -34.0961 	 -68.226
| 11> C 	 -88.4825 	 -33.0378 	 -67.4435
| 12> H 	 -89.9087 	 -34.4671 	 -68.334
| 13> C 	 -87.7727 	 -36.1526 	 -69.4917
| 14> H 	 -88.2205 	 -36.95 	 -68.9267
| 15> H 	 -86.6566 	 -36.321 	 -69.6524
| 16> C 	 -88.4924 	 -36.0241 	 -70.8592
| 17> H 	 -89.5746 	 -36.0362 	 -70.6394
| 18> H 	 -88.3049 	 -35.0775 	 -71.3572
| 19> C 	 -88.1489 	 -37.2495 	 -71.6833
| 20> H 	 -88.0134 	 -38.213 	 -71.189
| 21> H 	 -88.8525 	 -37.3475 	 -72.5281
| 22> H 	 -87.2345 	 -37.0664 	 -72.1959
| 23> S 	 -89.1453 	 -31.5427 	 -65.2093
| 24> C 	 -90.7289 	 -30.9145 	 -64.9996
| 25> C 	 -91.3987 	 -31.0143 	 -66.2112
| 26> C 	 -90.7779 	 -31.8581 	 -67.179
| 27> C 	 -89.507 	 -32.1906 	 -66.7997
| 28> H 	 -92.3724 	 -30.6269 	 -66.2763
| 29> C 	 -91.5549 	 -32.1226 	 -68.4851
| 30> H 	 -92.6652 	 -32.1674 	 -68.3575
| 31> H 	 -91.447 	 -33.2008 	 -68.8771
| 32> C 	 -91.1772 	 -31.0633 	 -69.6081
| 33> H 	 -91.4213 	 -30.0749 	 -69.2633
| 34> H 	 -91.7403 	 -31.106 	 -70.4932
| 35> C 	 -89.7227 	 -31.029 	 -70.0818
| 36> H 	 -89.4775 	 -30.2001 	 -70.7135
| 37> H 	 -89.4348 	 -31.829 	 -70.6386
| 38> H 	 -88.9655 	 -30.8847 	 -69.3084
| 39> H 	 -85.5776 	 -34.6415 	 -68.5406
| 40> H 	 -91.1126 	 -30.2948 	 -64.1827
| 41> *
| 42>
| 43>                          ****END OF INPUT****

CARTESIAN COORDINATES (ANGSTROEM)
---------------------------------
  S    -86.778800  -33.019100  -67.121800
  C    -86.538100  -34.313600  -68.256300
  C    -87.771400  -34.857100  -68.712300
  C    -88.872600  -34.096100  -68.226000
  C    -88.482500  -33.037800  -67.443500
  H    -89.908700  -34.467100  -68.334000
  C    -87.772700  -36.152600  -69.491700
  H    -88.220500  -36.950000  -68.926700
  H    -86.656600  -36.321000  -69.652400
  C    -88.492400  -36.024100  -70.859200
  H    -89.574600  -36.036200  -70.639400
  H    -88.304900  -35.077500  -71.357200
  C    -88.148900  -37.249500  -71.683300
  H    -88.013400  -38.213000  -71.189000
  H    -88.852500  -37.347500  -72.528100
  H    -87.234500  -37.066400  -72.195900
  S    -89.145300  -31.542700  -65.209300
  C    -90.728900  -30.914500  -64.999600
  C    -91.398700  -31.014300  -66.211200
  C    -90.777900  -31.858100  -67.179000
  C    -89.507000  -32.190600  -66.799700
  H    -92.372400  -30.626900  -66.276300
  C    -91.554900  -32.122600  -68.485100
  H    -92.665200  -32.167400  -68.357500
  H    -91.447000  -33.200800  -68.877100
  C    -91.177200  -31.063300  -69.608100
  H    -91.421300  -30.074900  -69.263300
  H    -91.740300  -31.106000  -70.493200
  C    -89.722700  -31.029000  -70.081800
  H    -89.477500  -30.200100  -70.713500
  H    -89.434800  -31.829000  -70.638600
  H    -88.965500  -30.884700  -69.308400
  H    -85.577600  -34.641500  -68.540600
  H    -91.112600  -30.294800  -64.182700

 Total Charge           Charge          ....    0
 Multiplicity           Mult            ....    1
 Number of Electrons    NEL             ....  134
 Basis Dimension        Dim             ....  322

ORBITAL ENERGIES
----------------

  NO   OCC          E(Eh)            E(eV)
   0   2.0000     -88.971324     -2421.0328
   1   2.0000     -88.963245     -2420.8130
   2   2.0000     -10.329384      -281.0768
   3   2.0000     -10.328307      -281.0475
   4   2.0000     -10.314362      -280.6681
   5   2.0000     -10.311700      -280.5956
   6   2.0000     -10.308580      -280.5107
   7   2.0000     -10.303109      -280.3618
   8   2.0000     -10.301300      -280.3126
   9   2.0000     -10.296075      -280.1705
  10   2.0000     -10.292367      -280.0696
  11   2.0000     -10.288348      -279.9602
  12   2.0000     -10.287263      -279.9307
  13   2.0000     -10.282680      -279.8059
  14   2.0000     -10.275902      -279.6215
  15   2.0000     -10.257660      -279.1251
  16   2.0000      -8.086100      -220.0340
  17   2.0000      -8.078633      -219.8308
  18   2.0000      -6.044543      -164.4804
  19   2.0000      -6.040678      -164.3752
  20   2.0000      -6.037155      -164.2793
  21   2.0000      -6.036882      -164.2719
  22   2.0000      -6.033021      -164.1668
  23   2.0000      -6.029386      -164.0679
  24   2.0000      -1.009732       -27.4762
  25   2.0000      -0.986940       -26.8560
  26   2.0000      -0.912855       -24.8400
  27   2.0000      -0.899279       -24.4706
  28   2.0000      -0.867726       -23.6120
  29   2.0000      -0.854393       -23.2492
  30   2.0000      -0.845960       -23.0197
  31   2.0000      -0.813525       -22.1371
  32   2.0000      -0.782376       -21.2895
  33   2.0000      -0.770335       -20.9619
  34   2.0000      -0.710414       -19.3314
  35   2.0000      -0.701207       -19.0808
  36   2.0000      -0.692985       -18.8571
  37   2.0000      -0.662843       -18.0369
  38   2.0000      -0.637050       -17.3350
  39   2.0000      -0.622827       -16.9480
  40   2.0000      -0.594943       -16.1892
  41   2.0000      -0.576533       -15.6883
  42   2.0000      -0.555388       -15.1129
  43   2.0000      -0.545431       -14.8419
  44   2.0000      -0.536371       -14.5954
  45   2.0000      -0.525909       -14.3107
  46   2.0000      -0.512923       -13.9573
  47   2.0000      -0.512235       -13.9386
  48   2.0000      -0.502489       -13.6734
  49   2.0000      -0.495494       -13.4831
  50   2.0000      -0.492812       -13.4101
  51   2.0000      -0.475250       -12.9322
  52   2.0000      -0.473555       -12.8861
  53   2.0000      -0.469250       -12.7689
  54   2.0000      -0.459289       -12.4979
  55   2.0000      -0.449203       -12.2234
  56   2.0000      -0.447513       -12.1775
  57   2.0000      -0.436828       -11.8867
  58   2.0000      -0.429898       -11.6981
  59   2.0000      -0.422757       -11.5038
  60   2.0000      -0.417250       -11.3539
  61   2.0000      -0.413810       -11.2604
  62   2.0000      -0.410701       -11.1757
  63   2.0000      -0.357240        -9.7210
  64   2.0000      -0.332847        -9.0572
  65   2.0000      -0.328056        -8.9268
  66   2.0000      -0.281993        -7.6734
  67   0.0000       0.025265         0.6875
  68   0.0000       0.078506         2.1363
  69   0.0000       0.105345         2.8666
  70   0.0000       0.120967         3.2917
  71   0.0000       0.131490         3.5780

MULLIKEN ATOMIC CHARGES
-----------------------
   0 S :    0.123324
   1 C :   -0.119096
   2 C :   -0.089414
   3 C :   -0.022627
   4 C :   -0.093238
   5 H :    0.031828
   6 C :    0.051496
   7 H :    0.042788
   8 H :    0.025894
   9 C :   -0.089340
  10 H :    0.028821
  11 H :    0.039228
  12 C :   -0.034119
  13 H :    0.037152
  14 H :    0.028425
  15 H :    0.020132
  16 S :    0.097637
  17 C :   -0.094336
  18 C :   -0.023580
  19 C :   -0.046810
  20 C :   -0.134069
  21 H :    0.000443
  22 C :    0.020175
  23 H :    0.032573
  24 H :    0.029073
  25 C :   -0.014339
  26 H :    0.012736
  27 H :    0.012969
  28 C :   -0.025133
  29 H :    0.011560
  30 H :    0.006081
  31 H :    0.034389
  32 H :    0.032936
  33 H :    0.066444
Sum of atomic charges:    0.0000000

LOEWDIN ATOMIC CHARGES
----------------------
   0 S :    0.420025
   1 C :   -0.202025
   2 C :   -0.056625
   3 C :   -0.069033
   4 C :   -0.194903
   5 H :    0.037235
   6 C :   -0.028685
   7 H :    0.031636
   8 H :    0.036115
   9 C :   -0.041567
  10 H :    0.022607
  11 H :    0.026611
  12 C :   -0.069234
  13 H :    0.027882
  14 H :    0.027771
  15 H :    0.022248
  16 S :    0.409691
  17 C :   -0.202692
  18 C :   -0.063426
  19 C :   -0.065124
  20 C :   -0.184314
  21 H :    0.020845
  22 C :   -0.035980
  23 H :    0.035308
  24 H :    0.032097
  25 C :   -0.030849
  26 H :    0.022244
  27 H :    0.018643
  28 C :   -0.062899
  29 H :    0.025903
  30 H :    0.009280
  31 H :    0.028917
  32 H :    0.015059
  33 H :    0.037237

  Mayer bond orders larger than 0.100000
B(  0-S ,  1-C ) :   1.1417 B(  0-S ,  4-C ) :   1.1594 B(  1-C ,  2-C ) :   1.5742
B(  1-C , 32-H ) :   0.9730 B(  2-C ,  3-C ) :   1.2728 B(  2-C ,  6-C ) :   1.0272
B(  3-C ,  4-C ) :   1.5400 B(  3-C ,  5-H ) :   0.9875 B(  4-C , 20-C ) :   1.0536
B(  6-C ,  7-H ) :   0.9350 B(  6-C ,  8-H ) :   0.9477 B(  6-C ,  9-C ) :   1.0548
B(  9-C , 10-H ) :   0.9537 B(  9-C , 11-H ) :   0.9617 B(  9-C , 12-C ) :   1.0825
B( 12-C , 13-H ) :   0.9729 B( 12-C , 14-H ) :   0.9717 B( 12-C , 15-H ) :   0.9733
B( 16-S , 17-C ) :   1.1559 B( 16-S , 20-C ) :   1.1385 B( 17-C , 18-C ) :   1.6080
B( 17-C , 33-H ) :   0.9650 B( 18-C , 19-C ) :   1.2512 B( 18-C , 21-H ) :   0.9894
B( 19-C , 20-C ) :   1.6074 B( 19-C , 22-C ) :   1.0292 B( 22-C , 23-H ) :   0.9396
B( 22-C , 24-H ) :   0.9438 B( 22-C , 25-C ) :   1.0559 B( 25-C , 26-H ) :   0.9553
B( 25-C , 27-H ) :   0.9552 B( 25-C , 28-C ) :   1.0867 B( 28-C , 29-H ) :   0.9664
B( 28-C , 30-H ) :   0.9748 B( 28-C , 31-H ) :   0.9696

Dispersion correction           -0.015215869
FINAL SINGLE POINT ENERGY     -1339.867312604972

DIPOLE MOMENT
-------------
                                X             Y             Z
Electronic contribution:      7.98094      10.58890      26.55422
Nuclear contribution   :     -8.35690     -10.85817     -27.05250
                        -----------------------------------------
Total Dipole Moment    :     -0.37596      -0.26927      -0.49829
                        -----------------------------------------
Magnitude (a.u.)       :      0.67981
Magnitude (Debye)      :      1.72794

Rotational constants in cm-1:     0.020860     0.008835     0.007070
Rotational constants in MHz :   625.368204   264.857199   211.959794

                             ****ORCA TERMINATED NORMALLY****
TOTAL RUN TIME: 0 days 0 hours 0 minutes 22 seconds 417 msec
