                         Program Version 4.2.1 -  RELEASE  -
|  1> ! wB97X-D3 SP def2-SVP
|  2> %pal
|  3> nprocs 24
|  4> end
|  5>
|  6> * xyz 0 1
|  7> S 	 -108.085 	 39.5168 	 -11.6376
|  8> C 	 -106.836 	 39.6726 	 -10.4566
|  9> C 	 -107.282 	 40.2474 	 -9.31515
| 10> C 	 -108.561 	 40.7247 	 -9.44741
| 11> C 	 -109.198 	 40.341 	 -10.6044
| 12> H 	 -109.084 	 41.3477 	 -8.69819
| 13> C 	 -106.43 	 40.7872 	 -8.17236
| 14> H 	 -105.891 	 39.8984 	 -7.72709
| 15> H 	 -107.012 	 41.2939 	 -7.37715
| 16> C 	 -105.323 	 41.7514 	 -8.57398
| 17> H 	 -104.525 	 41.9352 	 -7.82794
| 18> H 	 -104.838 	 41.3354 	 -9.49066
| 19> C 	 -105.94 	 43.0338 	 -9.22875
| 20> H 	 -106.49 	 42.7878 	 -10.1111
| 21> H 	 -106.62 	 43.5374 	 -8.54627
| 22> H 	 -105.193 	 43.7607 	 -9.55087
| 23> S 	 -111.257 	 39.5358 	 -12.1992
| 24> C 	 -112.793 	 40.2961 	 -12.1808
| 25> C 	 -112.76 	 41.4508 	 -11.4669
| 26> C 	 -111.477 	 41.6569 	 -10.8557
| 27> C 	 -110.589 	 40.5913 	 -10.97
| 28> H 	 -113.617 	 42.1457 	 -11.428
| 29> C 	 -111.165 	 42.9654 	 -10.1389
| 30> H 	 -111.259 	 43.83 	 -10.836
| 31> H 	 -110.089 	 42.8327 	 -9.81961
| 32> C 	 -112.015 	 43.2172 	 -8.84764
| 33> H 	 -112.051 	 42.3165 	 -8.24805
| 34> H 	 -113.022 	 43.3554 	 -9.18035
| 35> C 	 -111.725 	 44.4752 	 -8.02889
| 36> H 	 -111.906 	 45.2775 	 -8.74119
| 37> H 	 -110.68 	 44.7304 	 -7.70416
| 38> H 	 -112.476 	 44.5762 	 -7.28296
| 39> H 	 -105.803 	 39.4182 	 -10.6879
| 40> H 	 -113.661 	 39.9275 	 -12.7556
| 41> *
| 42>
| 43>                          ****END OF INPUT****

CARTESIAN COORDINATES (ANGSTROEM)
---------------------------------
  S    -108.085000   39.516800  -11.637600
  C    -106.836000   39.672600  -10.456600
  C    -107.282000   40.247400   -9.315150
  C    -108.561000   40.724700   -9.447410
  C    -109.198000   40.341000  -10.604400
  H    -109.084000   41.347700   -8.698190
  C    -106.430000   40.787200   -8.172360
  H    -105.891000   39.898400   -7.727090
  H    -107.012000   41.293900   -7.377150
  C    -105.323000   41.751400   -8.573980
  H    -104.525000   41.935200   -7.827940
  H    -104.838000   41.335400   -9.490660
  C    -105.940000   43.033800   -9.228750
  H    -106.490000   42.787800  -10.111100
  H    -106.620000   43.537400   -8.546270
  H    -105.193000   43.760700   -9.550870
  S    -111.257000   39.535800  -12.199200
  C    -112.793000   40.296100  -12.180800
  C    -112.760000   41.450800  -11.466900
  C    -111.477000   41.656900  -10.855700
  C    -110.589000   40.591300  -10.970000
  H    -113.617000   42.145700  -11.428000
  C    -111.165000   42.965400  -10.138900
  H    -111.259000   43.830000  -10.836000
  H    -110.089000   42.832700   -9.819610
  C    -112.015000   43.217200   -8.847640
  H    -112.051000   42.316500   -8.248050
  H    -113.022000   43.355400   -9.180350
  C    -111.725000   44.475200   -8.028890
  H    -111.906000   45.277500   -8.741190
  H    -110.680000   44.730400   -7.704160
  H    -112.476000   44.576200   -7.282960
  H    -105.803000   39.418200  -10.687900
  H    -113.661000   39.927500  -12.755600

 Total Charge           Charge          ....    0
 Multiplicity           Mult            ....    1
 Number of Electrons    NEL             ....  134
 Basis Dimension        Dim             ....  322

ORBITAL ENERGIES
----------------

  NO   OCC          E(Eh)            E(eV)
   0   2.0000     -88.970902     -2421.0213
   1   2.0000     -88.960734     -2420.7446
   2   2.0000     -10.329557      -281.0815
   3   2.0000     -10.329053      -281.0678
   4   2.0000     -10.316689      -280.7314
   5   2.0000     -10.312969      -280.6302
   6   2.0000     -10.305155      -280.4175
   7   2.0000     -10.297790      -280.2171
   8   2.0000     -10.297579      -280.2114
   9   2.0000     -10.294827      -280.1365
  10   2.0000     -10.294561      -280.1292
  11   2.0000     -10.291936      -280.0578
  12   2.0000     -10.289380      -279.9883
  13   2.0000     -10.285250      -279.8759
  14   2.0000     -10.279846      -279.7288
  15   2.0000     -10.272637      -279.5327
  16   2.0000      -8.086397      -220.0420
  17   2.0000      -8.076721      -219.7787
  18   2.0000      -6.044849      -164.4887
  19   2.0000      -6.040732      -164.3767
  20   2.0000      -6.037244      -164.2818
  21   2.0000      -6.035265      -164.2279
  22   2.0000      -6.031130      -164.1154
  23   2.0000      -6.027290      -164.0109
  24   2.0000      -1.019525       -27.7427
  25   2.0000      -0.996223       -27.1086
  26   2.0000      -0.914498       -24.8848
  27   2.0000      -0.905055       -24.6278
  28   2.0000      -0.872614       -23.7450
  29   2.0000      -0.856231       -23.2992
  30   2.0000      -0.847196       -23.0534
  31   2.0000      -0.815684       -22.1959
  32   2.0000      -0.782478       -21.2923
  33   2.0000      -0.772588       -21.0232
  34   2.0000      -0.707625       -19.2554
  35   2.0000      -0.701721       -19.0948
  36   2.0000      -0.692547       -18.8452
  37   2.0000      -0.663570       -18.0567
  38   2.0000      -0.639431       -17.3998
  39   2.0000      -0.619642       -16.8613
  40   2.0000      -0.593965       -16.1626
  41   2.0000      -0.578450       -15.7404
  42   2.0000      -0.562583       -15.3087
  43   2.0000      -0.551081       -14.9957
  44   2.0000      -0.541439       -14.7333
  45   2.0000      -0.531857       -14.4726
  46   2.0000      -0.515607       -14.0304
  47   2.0000      -0.512618       -13.9491
  48   2.0000      -0.502299       -13.6682
  49   2.0000      -0.497961       -13.5502
  50   2.0000      -0.490697       -13.3525
  51   2.0000      -0.481629       -13.1058
  52   2.0000      -0.476869       -12.9763
  53   2.0000      -0.473988       -12.8979
  54   2.0000      -0.459691       -12.5088
  55   2.0000      -0.452035       -12.3005
  56   2.0000      -0.442598       -12.0437
  57   2.0000      -0.438510       -11.9325
  58   2.0000      -0.428644       -11.6640
  59   2.0000      -0.423488       -11.5237
  60   2.0000      -0.415913       -11.3176
  61   2.0000      -0.413663       -11.2563
  62   2.0000      -0.409543       -11.1442
  63   2.0000      -0.362616        -9.8673
  64   2.0000      -0.340353        -9.2615
  65   2.0000      -0.326692        -8.8898
  66   2.0000      -0.285554        -7.7703
  67   0.0000       0.023601         0.6422
  68   0.0000       0.075246         2.0476
  69   0.0000       0.103130         2.8063
  70   0.0000       0.121907         3.3173
  71   0.0000       0.129319         3.5189

MULLIKEN ATOMIC CHARGES
-----------------------
   0 S :    0.125219
   1 C :   -0.145483
   2 C :   -0.027246
   3 C :   -0.030471
   4 C :   -0.126387
   5 H :    0.023966
   6 C :    0.036996
   7 H :    0.040585
   8 H :    0.033474
   9 C :   -0.083924
  10 H :    0.047024
  11 H :    0.022121
  12 C :   -0.062947
  13 H :    0.040920
  14 H :    0.018214
  15 H :    0.032982
  16 S :    0.074078
  17 C :   -0.083852
  18 C :   -0.030137
  19 C :   -0.074818
  20 C :   -0.110831
  21 H :    0.030470
  22 C :    0.037526
  23 H :    0.040864
  24 H :    0.021783
  25 C :   -0.078193
  26 H :    0.029265
  27 H :    0.013814
  28 C :   -0.024174
  29 H :    0.011959
  30 H :    0.039500
  31 H :    0.033708
  32 H :    0.054887
  33 H :    0.069109
Sum of atomic charges:    0.0000000

LOEWDIN ATOMIC CHARGES
----------------------
   0 S :    0.431047
   1 C :   -0.197301
   2 C :   -0.072675
   3 C :   -0.069988
   4 C :   -0.198157
   5 H :    0.035314
   6 C :   -0.032564
   7 H :    0.038616
   8 H :    0.030051
   9 C :   -0.045517
  10 H :    0.027861
  11 H :    0.025648
  12 C :   -0.066668
  13 H :    0.024374
  14 H :    0.016403
  15 H :    0.025810
  16 S :    0.406155
  17 C :   -0.190912
  18 C :   -0.079695
  19 C :   -0.059882
  20 C :   -0.191169
  21 H :    0.037208
  22 C :   -0.035902
  23 H :    0.034483
  24 H :    0.031003
  25 C :   -0.041713
  26 H :    0.020617
  27 H :    0.019597
  28 C :   -0.068230
  29 H :    0.025136
  30 H :    0.029281
  31 H :    0.025260
  32 H :    0.028792
  33 H :    0.037719

  Mayer bond orders larger than 0.100000
B(  0-S ,  1-C ) :   1.1538 B(  0-S ,  4-C ) :   1.1629 B(  1-C ,  2-C ) :   1.5733
B(  1-C ,  4-C ) :   0.1010 B(  1-C , 32-H ) :   0.9678 B(  2-C ,  3-C ) :   1.2841
B(  2-C ,  6-C ) :   1.0223 B(  3-C ,  4-C ) :   1.5406 B(  3-C ,  5-H ) :   0.9901
B(  4-C , 20-C ) :   1.0695 B(  6-C ,  7-H ) :   0.9301 B(  6-C ,  8-H ) :   0.9534
B(  6-C ,  9-C ) :   1.0732 B(  9-C , 10-H ) :   0.9598 B(  9-C , 11-H ) :   0.9549
B(  9-C , 12-C ) :   1.0595 B( 12-C , 13-H ) :   0.9762 B( 12-C , 14-H ) :   0.9782
B( 12-C , 15-H ) :   0.9752 B( 16-S , 17-C ) :   1.1684 B( 16-S , 20-C ) :   1.1246
B( 17-C , 18-C ) :   1.5995 B( 17-C , 33-H ) :   0.9644 B( 18-C , 19-C ) :   1.2355
B( 18-C , 21-H ) :   0.9911 B( 19-C , 20-C ) :   1.5794 B( 19-C , 22-C ) :   1.0463
B( 22-C , 23-H ) :   0.9337 B( 22-C , 24-H ) :   0.9355 B( 22-C , 25-C ) :   1.0580
B( 25-C , 26-H ) :   0.9584 B( 25-C , 27-H ) :   0.9513 B( 25-C , 28-C ) :   1.0811
B( 28-C , 29-H ) :   0.9695 B( 28-C , 30-H ) :   0.9766 B( 28-C , 31-H ) :   0.9722

Dispersion correction           -0.014586736
FINAL SINGLE POINT ENERGY     -1339.877569684232

DIPOLE MOMENT
-------------
                                X             Y             Z
Electronic contribution:     -5.92071     -22.94351     -18.94702
Nuclear contribution   :      5.91960      23.51321      19.17012
                        -----------------------------------------
Total Dipole Moment    :     -0.00111       0.56971       0.22311
                        -----------------------------------------
Magnitude (a.u.)       :      0.61184
Magnitude (Debye)      :      1.55516

Rotational constants in cm-1:     0.017191     0.010112     0.006767
Rotational constants in MHz :   515.382251   303.158555   202.874992

                             ****ORCA TERMINATED NORMALLY****
TOTAL RUN TIME: 0 days 0 hours 0 minutes 22 seconds 226 msec
