                         Program Version 4.2.1 -  RELEASE  -
|  1> ! wB97X-D3 SP def2-SVP
|  2> %pal
|  3> nprocs 24
|  4> end
|  5>
|  6> * xyz 0 1
|  7> S 	 -117.708 	 48.5724 	 -114.721
|  8> C 	 -119.118 	 47.5143 	 -114.83
|  9> C 	 -118.89 	 46.1632 	 -114.515
| 10> C 	 -117.533 	 46.0834 	 -114.045
| 11> C 	 -116.742 	 47.2342 	 -114.033
| 12> H 	 -117.112 	 45.1973 	 -113.581
| 13> C 	 -119.858 	 45.0052 	 -114.445
| 14> H 	 -119.415 	 44.0727 	 -114.225
| 15> H 	 -120.209 	 44.8364 	 -115.447
| 16> C 	 -121.007 	 45.1203 	 -113.417
| 17> H 	 -120.722 	 45.729 	 -112.536
| 18> H 	 -121.874 	 45.6984 	 -113.75
| 19> C 	 -121.431 	 43.7921 	 -112.957
| 20> H 	 -122.249 	 43.8167 	 -112.336
| 21> H 	 -121.568 	 43.0478 	 -113.809
| 22> H 	 -120.73 	 43.2848 	 -112.309
| 23> S 	 -115.102 	 47.4132 	 -111.788
| 24> C 	 -113.339 	 47.6384 	 -112.027
| 25> C 	 -113.002 	 47.7458 	 -113.376
| 26> C 	 -114.173 	 47.5766 	 -114.171
| 27> C 	 -115.383 	 47.4167 	 -113.484
| 28> H 	 -112.038 	 48.0352 	 -113.694
| 29> C 	 -114.022 	 47.5462 	 -115.682
| 30> H 	 -114.91 	 47.3424 	 -116.236
| 31> H 	 -113.297 	 46.7046 	 -115.864
| 32> C 	 -113.457 	 48.7239 	 -116.396
| 33> H 	 -112.958 	 48.4361 	 -117.394
| 34> H 	 -112.575 	 49.0664 	 -115.809
| 35> C 	 -114.414 	 49.9051 	 -116.526
| 36> H 	 -114.284 	 50.7045 	 -115.768
| 37> H 	 -115.445 	 49.6009 	 -116.51
| 38> H 	 -114.213 	 50.3714 	 -117.488
| 39> H 	 -120.151 	 47.7914 	 -115.045
| 40> H 	 -112.724 	 47.6745 	 -111.16
| 41> *
| 42>
| 43>                          ****END OF INPUT****

CARTESIAN COORDINATES (ANGSTROEM)
---------------------------------
  S    -117.708000   48.572400  -114.721000
  C    -119.118000   47.514300  -114.830000
  C    -118.890000   46.163200  -114.515000
  C    -117.533000   46.083400  -114.045000
  C    -116.742000   47.234200  -114.033000
  H    -117.112000   45.197300  -113.581000
  C    -119.858000   45.005200  -114.445000
  H    -119.415000   44.072700  -114.225000
  H    -120.209000   44.836400  -115.447000
  C    -121.007000   45.120300  -113.417000
  H    -120.722000   45.729000  -112.536000
  H    -121.874000   45.698400  -113.750000
  C    -121.431000   43.792100  -112.957000
  H    -122.249000   43.816700  -112.336000
  H    -121.568000   43.047800  -113.809000
  H    -120.730000   43.284800  -112.309000
  S    -115.102000   47.413200  -111.788000
  C    -113.339000   47.638400  -112.027000
  C    -113.002000   47.745800  -113.376000
  C    -114.173000   47.576600  -114.171000
  C    -115.383000   47.416700  -113.484000
  H    -112.038000   48.035200  -113.694000
  C    -114.022000   47.546200  -115.682000
  H    -114.910000   47.342400  -116.236000
  H    -113.297000   46.704600  -115.864000
  C    -113.457000   48.723900  -116.396000
  H    -112.958000   48.436100  -117.394000
  H    -112.575000   49.066400  -115.809000
  C    -114.414000   49.905100  -116.526000
  H    -114.284000   50.704500  -115.768000
  H    -115.445000   49.600900  -116.510000
  H    -114.213000   50.371400  -117.488000
  H    -120.151000   47.791400  -115.045000
  H    -112.724000   47.674500  -111.160000

 Total Charge           Charge          ....    0
 Multiplicity           Mult            ....    1
 Number of Electrons    NEL             ....  134
 Basis Dimension        Dim             ....  322

ORBITAL ENERGIES
----------------

  NO   OCC          E(Eh)            E(eV)
   0   2.0000     -88.970743     -2421.0170
   1   2.0000     -88.965827     -2420.8832
   2   2.0000     -10.332219      -281.1540
   3   2.0000     -10.326173      -280.9894
   4   2.0000     -10.323350      -280.9126
   5   2.0000     -10.319431      -280.8060
   6   2.0000     -10.305680      -280.4318
   7   2.0000     -10.303721      -280.3785
   8   2.0000     -10.297470      -280.2084
   9   2.0000     -10.295592      -280.1573
  10   2.0000     -10.292642      -280.0770
  11   2.0000     -10.287343      -279.9328
  12   2.0000     -10.285669      -279.8873
  13   2.0000     -10.282433      -279.7992
  14   2.0000     -10.273425      -279.5541
  15   2.0000     -10.269234      -279.4401
  16   2.0000      -8.083786      -219.9710
  17   2.0000      -8.080479      -219.8810
  18   2.0000      -6.042435      -164.4230
  19   2.0000      -6.038922      -164.3274
  20   2.0000      -6.038486      -164.3155
  21   2.0000      -6.034951      -164.2194
  22   2.0000      -6.034540      -164.2082
  23   2.0000      -6.031354      -164.1215
  24   2.0000      -0.999904       -27.2088
  25   2.0000      -0.978285       -26.6205
  26   2.0000      -0.918554       -24.9951
  27   2.0000      -0.909576       -24.7508
  28   2.0000      -0.869651       -23.6644
  29   2.0000      -0.851545       -23.1717
  30   2.0000      -0.842716       -22.9315
  31   2.0000      -0.812238       -22.1021
  32   2.0000      -0.785856       -21.3842
  33   2.0000      -0.771103       -20.9828
  34   2.0000      -0.709966       -19.3192
  35   2.0000      -0.698594       -19.0097
  36   2.0000      -0.690169       -18.7804
  37   2.0000      -0.660337       -17.9687
  38   2.0000      -0.638479       -17.3739
  39   2.0000      -0.616041       -16.7633
  40   2.0000      -0.603215       -16.4143
  41   2.0000      -0.579669       -15.7736
  42   2.0000      -0.561944       -15.2913
  43   2.0000      -0.552075       -15.0227
  44   2.0000      -0.536669       -14.6035
  45   2.0000      -0.531009       -14.4495
  46   2.0000      -0.517715       -14.0877
  47   2.0000      -0.513802       -13.9813
  48   2.0000      -0.499468       -13.5912
  49   2.0000      -0.495817       -13.4919
  50   2.0000      -0.483478       -13.1561
  51   2.0000      -0.479504       -13.0480
  52   2.0000      -0.466332       -12.6895
  53   2.0000      -0.464454       -12.6384
  54   2.0000      -0.461246       -12.5511
  55   2.0000      -0.448637       -12.2080
  56   2.0000      -0.444153       -12.0860
  57   2.0000      -0.438857       -11.9419
  58   2.0000      -0.432473       -11.7682
  59   2.0000      -0.430479       -11.7139
  60   2.0000      -0.417325       -11.3560
  61   2.0000      -0.408054       -11.1037
  62   2.0000      -0.400809       -10.9066
  63   2.0000      -0.337902        -9.1948
  64   2.0000      -0.333187        -9.0665
  65   2.0000      -0.321148        -8.7389
  66   2.0000      -0.301024        -8.1913
  67   0.0000       0.039851         1.0844
  68   0.0000       0.051494         1.4012
  69   0.0000       0.103655         2.8206
  70   0.0000       0.118542         3.2257
  71   0.0000       0.125840         3.4243

MULLIKEN ATOMIC CHARGES
-----------------------
   0 S :    0.124593
   1 C :   -0.120598
   2 C :   -0.099486
   3 C :    0.033730
   4 C :   -0.181186
   5 H :    0.008224
   6 C :    0.120372
   7 H :    0.002070
   8 H :    0.032080
   9 C :   -0.067844
  10 H :    0.035643
  11 H :    0.026604
  12 C :   -0.043246
  13 H :    0.011169
  14 H :    0.035170
  15 H :    0.022505
  16 S :    0.108451
  17 C :   -0.102273
  18 C :    0.001295
  19 C :   -0.022721
  20 C :   -0.155596
  21 H :    0.017403
  22 C :    0.061502
  23 H :    0.021729
  24 H :    0.034538
  25 C :   -0.110895
  26 H :    0.040155
  27 H :    0.014257
  28 C :   -0.036109
  29 H :    0.042162
  30 H :    0.020993
  31 H :    0.027294
  32 H :    0.044300
  33 H :    0.053714
Sum of atomic charges:    0.0000000

LOEWDIN ATOMIC CHARGES
----------------------
   0 S :    0.396587
   1 C :   -0.190526
   2 C :   -0.061892
   3 C :   -0.053768
   4 C :   -0.193481
   5 H :    0.028425
   6 C :   -0.026050
   7 H :    0.027209
   8 H :    0.036433
   9 C :   -0.044215
  10 H :    0.031561
  11 H :    0.023634
  12 C :   -0.066692
  13 H :    0.016422
  14 H :    0.031912
  15 H :    0.024846
  16 S :    0.407729
  17 C :   -0.156959
  18 C :   -0.060293
  19 C :   -0.051800
  20 C :   -0.222796
  21 H :    0.028791
  22 C :   -0.039109
  23 H :    0.023179
  24 H :    0.040547
  25 C :   -0.053552
  26 H :    0.032960
  27 H :    0.019648
  28 C :   -0.070704
  29 H :    0.031557
  30 H :    0.013703
  31 H :    0.028396
  32 H :    0.028529
  33 H :    0.019769

  Mayer bond orders larger than 0.100000
B(  0-S ,  1-C ) :   1.1556 B(  0-S ,  4-C ) :   1.1207 B(  1-C ,  2-C ) :   1.6089
B(  1-C , 32-H ) :   0.9618 B(  2-C ,  3-C ) :   1.2408 B(  2-C ,  6-C ) :   1.0291
B(  3-C ,  4-C ) :   1.6096 B(  3-C ,  5-H ) :   0.9879 B(  4-C , 20-C ) :   1.0223
B(  6-C ,  7-H ) :   0.9470 B(  6-C ,  8-H ) :   0.9195 B(  6-C ,  9-C ) :   1.0438
B(  9-C , 10-H ) :   0.9573 B(  9-C , 11-H ) :   0.9505 B(  9-C , 12-C ) :   1.1038
B( 12-C , 13-H ) :   0.9669 B( 12-C , 14-H ) :   0.9708 B( 12-C , 15-H ) :   0.9674
B( 16-S , 17-C ) :   1.1714 B( 16-S , 20-C ) :   1.1415 B( 17-C , 18-C ) :   1.5750
B( 17-C , 33-H ) :   0.9740 B( 18-C , 19-C ) :   1.2451 B( 18-C , 21-H ) :   0.9986
B( 19-C , 20-C ) :   1.5845 B( 19-C , 22-C ) :   1.0464 B( 22-C , 23-H ) :   0.9378
B( 22-C , 24-H ) :   0.9297 B( 22-C , 25-C ) :   1.0837 B( 25-C , 26-H ) :   0.9574
B( 25-C , 27-H ) :   0.9527 B( 25-C , 28-C ) :   1.0546 B( 28-C , 29-H ) :   0.9763
B( 28-C , 30-H ) :   0.9773 B( 28-C , 31-H ) :   0.9732

Dispersion correction           -0.014374057
FINAL SINGLE POINT ENERGY     -1339.866145803455

DIPOLE MOMENT
-------------
                                X             Y             Z
Electronic contribution:      7.49027       7.54503       9.61332
Nuclear contribution   :     -7.55631      -7.89895      -9.64518
                        -----------------------------------------
Total Dipole Moment    :     -0.06604      -0.35392      -0.03186
                        -----------------------------------------
Magnitude (a.u.)       :      0.36144
Magnitude (Debye)      :      0.91870

Rotational constants in cm-1:     0.022858     0.007443     0.006259
Rotational constants in MHz :   685.260860   223.139888   187.644882

                             ****ORCA TERMINATED NORMALLY****
TOTAL RUN TIME: 0 days 0 hours 0 minutes 21 seconds 367 msec
