                         Program Version 4.2.1 -  RELEASE  -
|  1> ! wB97X-D3 SP def2-SVP
|  2> %pal
|  3> nprocs 24
|  4> end
|  5>
|  6> * xyz 0 1
|  7> S 	 14.8536 	 -9.96959 	 -120.916
|  8> C 	 13.202 	 -9.44768 	 -121.172
|  9> C 	 12.5028 	 -10.4567 	 -121.826
| 10> C 	 13.369 	 -11.5708 	 -122.185
| 11> C 	 14.6285 	 -11.5146 	 -121.679
| 12> H 	 13.0871 	 -12.4497 	 -122.824
| 13> C 	 11.0491 	 -10.4182 	 -122.149
| 14> H 	 10.5176 	 -9.84921 	 -121.43
| 15> H 	 10.6581 	 -11.3678 	 -122.212
| 16> C 	 10.7788 	 -9.76596 	 -123.513
| 17> H 	 11.5005 	 -8.9996 	 -123.728
| 18> H 	 10.9401 	 -10.438 	 -124.312
| 19> C 	 9.34232 	 -9.21466 	 -123.631
| 20> H 	 8.98748 	 -8.96073 	 -122.683
| 21> H 	 9.33821 	 -8.28682 	 -124.216
| 22> H 	 8.56175 	 -9.87567 	 -124.144
| 23> S 	 16.9999 	 -11.4498 	 -123.192
| 24> C 	 18.0296 	 -12.8115 	 -123.206
| 25> C 	 17.5139 	 -13.9271 	 -122.565
| 26> C 	 16.2741 	 -13.6349 	 -121.967
| 27> C 	 15.8202 	 -12.2917 	 -122.162
| 28> H 	 18.1268 	 -14.82 	 -122.583
| 29> C 	 15.5289 	 -14.6112 	 -121.091
| 30> H 	 15.5293 	 -15.5578 	 -121.664
| 31> H 	 14.4997 	 -14.3191 	 -120.945
| 32> C 	 16.1175 	 -14.784 	 -119.643
| 33> H 	 15.3569 	 -15.3203 	 -119.033
| 34> H 	 16.1563 	 -13.8204 	 -119.066
| 35> C 	 17.4155 	 -15.6814 	 -119.524
| 36> H 	 17.3079 	 -16.7569 	 -119.526
| 37> H 	 17.9534 	 -15.3788 	 -118.637
| 38> H 	 18.1413 	 -15.5199 	 -120.307
| 39> H 	 12.7067 	 -8.60561 	 -120.651
| 40> H 	 18.9905 	 -12.9616 	 -123.66
| 41> *
| 42>
| 43>                          ****END OF INPUT****

CARTESIAN COORDINATES (ANGSTROEM)
---------------------------------
  S     14.853600   -9.969590  -120.916000
  C     13.202000   -9.447680  -121.172000
  C     12.502800  -10.456700  -121.826000
  C     13.369000  -11.570800  -122.185000
  C     14.628500  -11.514600  -121.679000
  H     13.087100  -12.449700  -122.824000
  C     11.049100  -10.418200  -122.149000
  H     10.517600   -9.849210  -121.430000
  H     10.658100  -11.367800  -122.212000
  C     10.778800   -9.765960  -123.513000
  H     11.500500   -8.999600  -123.728000
  H     10.940100  -10.438000  -124.312000
  C      9.342320   -9.214660  -123.631000
  H      8.987480   -8.960730  -122.683000
  H      9.338210   -8.286820  -124.216000
  H      8.561750   -9.875670  -124.144000
  S     16.999900  -11.449800  -123.192000
  C     18.029600  -12.811500  -123.206000
  C     17.513900  -13.927100  -122.565000
  C     16.274100  -13.634900  -121.967000
  C     15.820200  -12.291700  -122.162000
  H     18.126800  -14.820000  -122.583000
  C     15.528900  -14.611200  -121.091000
  H     15.529300  -15.557800  -121.664000
  H     14.499700  -14.319100  -120.945000
  C     16.117500  -14.784000  -119.643000
  H     15.356900  -15.320300  -119.033000
  H     16.156300  -13.820400  -119.066000
  C     17.415500  -15.681400  -119.524000
  H     17.307900  -16.756900  -119.526000
  H     17.953400  -15.378800  -118.637000
  H     18.141300  -15.519900  -120.307000
  H     12.706700   -8.605610  -120.651000
  H     18.990500  -12.961600  -123.660000

 Total Charge           Charge          ....    0
 Multiplicity           Mult            ....    1
 Number of Electrons    NEL             ....  134
 Basis Dimension        Dim             ....  322

ORBITAL ENERGIES
----------------

  NO   OCC          E(Eh)            E(eV)
   0   2.0000     -88.968195     -2420.9477
   1   2.0000     -88.963310     -2420.8147
   2   2.0000     -10.332059      -281.1496
   3   2.0000     -10.330305      -281.1019
   4   2.0000     -10.319321      -280.8030
   5   2.0000     -10.311659      -280.5945
   6   2.0000     -10.305686      -280.4320
   7   2.0000     -10.304598      -280.4024
   8   2.0000     -10.298850      -280.2459
   9   2.0000     -10.295572      -280.1568
  10   2.0000     -10.290921      -280.0302
  11   2.0000     -10.290197      -280.0105
  12   2.0000     -10.281659      -279.7782
  13   2.0000     -10.278692      -279.6974
  14   2.0000     -10.278335      -279.6877
  15   2.0000     -10.275073      -279.5989
  16   2.0000      -8.082696      -219.9413
  17   2.0000      -8.078352      -219.8231
  18   2.0000      -6.041101      -164.3867
  19   2.0000      -6.037074      -164.2771
  20   2.0000      -6.036993      -164.2749
  21   2.0000      -6.033738      -164.1864
  22   2.0000      -6.032651      -164.1568
  23   2.0000      -6.029086      -164.0598
  24   2.0000      -1.005191       -27.3526
  25   2.0000      -0.985261       -26.8103
  26   2.0000      -0.917160       -24.9572
  27   2.0000      -0.898212       -24.4416
  28   2.0000      -0.866144       -23.5690
  29   2.0000      -0.844821       -22.9887
  30   2.0000      -0.842506       -22.9258
  31   2.0000      -0.817146       -22.2357
  32   2.0000      -0.783480       -21.3196
  33   2.0000      -0.771052       -20.9814
  34   2.0000      -0.709342       -19.3022
  35   2.0000      -0.704445       -19.1689
  36   2.0000      -0.690238       -18.7823
  37   2.0000      -0.653934       -17.7944
  38   2.0000      -0.645159       -17.5557
  39   2.0000      -0.619140       -16.8476
  40   2.0000      -0.587827       -15.9956
  41   2.0000      -0.576617       -15.6905
  42   2.0000      -0.564171       -15.3519
  43   2.0000      -0.541316       -14.7300
  44   2.0000      -0.530542       -14.4368
  45   2.0000      -0.521440       -14.1891
  46   2.0000      -0.515932       -14.0392
  47   2.0000      -0.508686       -13.8420
  48   2.0000      -0.507844       -13.8192
  49   2.0000      -0.499653       -13.5962
  50   2.0000      -0.493359       -13.4250
  51   2.0000      -0.473139       -12.8748
  52   2.0000      -0.469223       -12.7682
  53   2.0000      -0.465343       -12.6626
  54   2.0000      -0.463442       -12.6109
  55   2.0000      -0.448499       -12.2043
  56   2.0000      -0.443375       -12.0649
  57   2.0000      -0.442364       -12.0373
  58   2.0000      -0.435487       -11.8502
  59   2.0000      -0.421303       -11.4642
  60   2.0000      -0.417303       -11.3554
  61   2.0000      -0.415576       -11.3084
  62   2.0000      -0.407333       -11.0841
  63   2.0000      -0.344298        -9.3688
  64   2.0000      -0.333089        -9.0638
  65   2.0000      -0.321505        -8.7486
  66   2.0000      -0.298385        -8.1195
  67   0.0000       0.035992         0.9794
  68   0.0000       0.059329         1.6144
  69   0.0000       0.118242         3.2175
  70   0.0000       0.123011         3.3473
  71   0.0000       0.133268         3.6264

MULLIKEN ATOMIC CHARGES
-----------------------
   0 S :    0.094841
   1 C :   -0.121815
   2 C :   -0.130611
   3 C :    0.025815
   4 C :   -0.141673
   5 H :    0.036075
   6 C :    0.141229
   7 H :    0.007663
   8 H :    0.006536
   9 C :   -0.065935
  10 H :    0.025851
  11 H :    0.015933
  12 C :   -0.053136
  13 H :    0.009807
  14 H :    0.031503
  15 H :    0.045422
  16 S :    0.132259
  17 C :   -0.080549
  18 C :   -0.063794
  19 C :   -0.017391
  20 C :   -0.176036
  21 H :    0.025217
  22 C :    0.069800
  23 H :    0.032217
  24 H :    0.019247
  25 C :   -0.088378
  26 H :    0.031483
  27 H :    0.044760
  28 C :   -0.043966
  29 H :    0.033830
  30 H :    0.029632
  31 H :    0.011367
  32 H :    0.068635
  33 H :    0.044161
Sum of atomic charges:    0.0000000

LOEWDIN ATOMIC CHARGES
----------------------
   0 S :    0.408264
   1 C :   -0.201990
   2 C :   -0.059687
   3 C :   -0.063988
   4 C :   -0.207957
   5 H :    0.040763
   6 C :   -0.020365
   7 H :    0.024781
   8 H :    0.022660
   9 C :   -0.034117
  10 H :    0.022745
  11 H :    0.019295
  12 C :   -0.067772
  13 H :    0.011206
  14 H :    0.029667
  15 H :    0.033953
  16 S :    0.424619
  17 C :   -0.196807
  18 C :   -0.080841
  19 C :   -0.051599
  20 C :   -0.202734
  21 H :    0.033944
  22 C :   -0.034057
  23 H :    0.034509
  24 H :    0.028305
  25 C :   -0.041077
  26 H :    0.027626
  27 H :    0.033967
  28 C :   -0.073102
  29 H :    0.024485
  30 H :    0.028516
  31 H :    0.018476
  32 H :    0.039063
  33 H :    0.029251

  Mayer bond orders larger than 0.100000
B(  0-S ,  1-C ) :   1.1394 B(  0-S ,  4-C ) :   1.1543 B(  1-C ,  2-C ) :   1.6005
B(  1-C , 32-H ) :   0.9628 B(  2-C ,  3-C ) :   1.2343 B(  2-C ,  6-C ) :   1.0518
B(  3-C ,  4-C ) :   1.5952 B(  3-C ,  5-H ) :   0.9813 B(  4-C , 20-C ) :   0.9938
B(  6-C ,  7-H ) :   0.9397 B(  6-C ,  8-H ) :   0.9313 B(  6-C ,  9-C ) :   1.0572
B(  9-C , 10-H ) :   0.9638 B(  9-C , 11-H ) :   0.9532 B(  9-C , 12-C ) :   1.0705
B( 12-C , 13-H ) :   0.9791 B( 12-C , 14-H ) :   0.9764 B( 12-C , 15-H ) :   0.9770
B( 16-S , 17-C ) :   1.1819 B( 16-S , 20-C ) :   1.1476 B( 17-C , 18-C ) :   1.5976
B( 17-C , 20-C ) :   0.1027 B( 17-C , 33-H ) :   0.9607 B( 18-C , 19-C ) :   1.2618
B( 18-C , 21-H ) :   0.9900 B( 19-C , 20-C ) :   1.5701 B( 19-C , 22-C ) :   1.0516
B( 22-C , 23-H ) :   0.9398 B( 22-C , 24-H ) :   0.9303 B( 22-C , 25-C ) :   1.0665
B( 25-C , 26-H ) :   0.9583 B( 25-C , 27-H ) :   0.9604 B( 25-C , 28-C ) :   1.0578
B( 28-C , 29-H ) :   0.9780 B( 28-C , 30-H ) :   0.9737 B( 28-C , 31-H ) :   0.9772

Dispersion correction           -0.013731197
FINAL SINGLE POINT ENERGY     -1339.866953725269

DIPOLE MOMENT
-------------
                                X             Y             Z
Electronic contribution:     15.70023       9.92862      -2.73846
Nuclear contribution   :    -16.08081     -10.25887       2.68571
                        -----------------------------------------
Total Dipole Moment    :     -0.38059      -0.33024      -0.05275
                        -----------------------------------------
Magnitude (a.u.)       :      0.50665
Magnitude (Debye)      :      1.28779

Rotational constants in cm-1:     0.023905     0.006718     0.006185
Rotational constants in MHz :   716.643151   201.395953   185.428692

                             ****ORCA TERMINATED NORMALLY****
TOTAL RUN TIME: 0 days 0 hours 0 minutes 20 seconds 831 msec
