                         Program Version 4.2.1 -  RELEASE  -
|  1> ! wB97X-D3 SP def2-SVP
|  2> %pal
|  3> nprocs 24
|  4> end
|  5>
|  6> * xyz 0 1
|  7> S 	 -112.56 	 59.6818 	 -76.6252
|  8> C 	 -112.895 	 60.894 	 -77.9491
|  9> C 	 -113.524 	 62.0256 	 -77.4414
| 10> C 	 -113.663 	 62.0055 	 -75.9984
| 11> C 	 -113.149 	 60.8826 	 -75.386
| 12> H 	 -113.971 	 62.8045 	 -75.3236
| 13> C 	 -113.893 	 63.2703 	 -78.1861
| 14> H 	 -113.044 	 63.7785 	 -78.6017
| 15> H 	 -114.275 	 63.9605 	 -77.5171
| 16> C 	 -115.004 	 63.1493 	 -79.268
| 17> H 	 -115.343 	 64.0801 	 -79.7807
| 18> H 	 -114.694 	 62.431 	 -80.0556
| 19> C 	 -116.308 	 62.6415 	 -78.6831
| 20> H 	 -116.188 	 61.5319 	 -78.7901
| 21> H 	 -116.341 	 62.8909 	 -77.6516
| 22> H 	 -117.119 	 63.0809 	 -79.271
| 23> S 	 -111.392 	 60.0159 	 -73.44
| 24> C 	 -111.984 	 59.7294 	 -71.7934
| 25> C 	 -113.351 	 59.9158 	 -71.7483
| 26> C 	 -113.933 	 60.5311 	 -72.8939
| 27> C 	 -113.007 	 60.51 	 -73.9612
| 28> H 	 -113.762 	 59.6585 	 -70.6918
| 29> C 	 -115.453 	 60.7139 	 -73.131
| 30> H 	 -115.653 	 61.687 	 -73.6222
| 31> H 	 -116.088 	 60.8081 	 -72.2107
| 32> C 	 -116.064 	 59.6313 	 -73.9809
| 33> H 	 -116.299 	 58.7658 	 -73.397
| 34> H 	 -115.41 	 59.2841 	 -74.7313
| 35> C 	 -117.419 	 60.1881 	 -74.6042
| 36> H 	 -117.872 	 59.5114 	 -75.3319
| 37> H 	 -117.191 	 61.0716 	 -75.1569
| 38> H 	 -118.221 	 60.3667 	 -73.8236
| 39> H 	 -112.661 	 60.7984 	 -78.9875
| 40> H 	 -111.355 	 59.4605 	 -70.9716
| 41> *
| 42>
| 43>                          ****END OF INPUT****

CARTESIAN COORDINATES (ANGSTROEM)
---------------------------------
  S    -112.560000   59.681800  -76.625200
  C    -112.895000   60.894000  -77.949100
  C    -113.524000   62.025600  -77.441400
  C    -113.663000   62.005500  -75.998400
  C    -113.149000   60.882600  -75.386000
  H    -113.971000   62.804500  -75.323600
  C    -113.893000   63.270300  -78.186100
  H    -113.044000   63.778500  -78.601700
  H    -114.275000   63.960500  -77.517100
  C    -115.004000   63.149300  -79.268000
  H    -115.343000   64.080100  -79.780700
  H    -114.694000   62.431000  -80.055600
  C    -116.308000   62.641500  -78.683100
  H    -116.188000   61.531900  -78.790100
  H    -116.341000   62.890900  -77.651600
  H    -117.119000   63.080900  -79.271000
  S    -111.392000   60.015900  -73.440000
  C    -111.984000   59.729400  -71.793400
  C    -113.351000   59.915800  -71.748300
  C    -113.933000   60.531100  -72.893900
  C    -113.007000   60.510000  -73.961200
  H    -113.762000   59.658500  -70.691800
  C    -115.453000   60.713900  -73.131000
  H    -115.653000   61.687000  -73.622200
  H    -116.088000   60.808100  -72.210700
  C    -116.064000   59.631300  -73.980900
  H    -116.299000   58.765800  -73.397000
  H    -115.410000   59.284100  -74.731300
  C    -117.419000   60.188100  -74.604200
  H    -117.872000   59.511400  -75.331900
  H    -117.191000   61.071600  -75.156900
  H    -118.221000   60.366700  -73.823600
  H    -112.661000   60.798400  -78.987500
  H    -111.355000   59.460500  -70.971600

 Total Charge           Charge          ....    0
 Multiplicity           Mult            ....    1
 Number of Electrons    NEL             ....  134
 Basis Dimension        Dim             ....  322

ORBITAL ENERGIES
----------------

  NO   OCC          E(Eh)            E(eV)
   0   2.0000     -88.969251     -2420.9764
   1   2.0000     -88.968888     -2420.9665
   2   2.0000     -10.340235      -281.3721
   3   2.0000     -10.336129      -281.2604
   4   2.0000     -10.322578      -280.8916
   5   2.0000     -10.319469      -280.8070
   6   2.0000     -10.314945      -280.6839
   7   2.0000     -10.309426      -280.5337
   8   2.0000     -10.304905      -280.4107
   9   2.0000     -10.300800      -280.2990
  10   2.0000     -10.297345      -280.2050
  11   2.0000     -10.287163      -279.9279
  12   2.0000     -10.286498      -279.9098
  13   2.0000     -10.279042      -279.7069
  14   2.0000     -10.277460      -279.6639
  15   2.0000     -10.271953      -279.5140
  16   2.0000      -8.082883      -219.9464
  17   2.0000      -8.081580      -219.9110
  18   2.0000      -6.041321      -164.3927
  19   2.0000      -6.040447      -164.3689
  20   2.0000      -6.037450      -164.2874
  21   2.0000      -6.036473      -164.2608
  22   2.0000      -6.033787      -164.1877
  23   2.0000      -6.032024      -164.1397
  24   2.0000      -0.999425       -27.1957
  25   2.0000      -0.975141       -26.5349
  26   2.0000      -0.913715       -24.8634
  27   2.0000      -0.906303       -24.6618
  28   2.0000      -0.866429       -23.5767
  29   2.0000      -0.846107       -23.0237
  30   2.0000      -0.841602       -22.9011
  31   2.0000      -0.815270       -22.1846
  32   2.0000      -0.781019       -21.2526
  33   2.0000      -0.769710       -20.9449
  34   2.0000      -0.709399       -19.3037
  35   2.0000      -0.698919       -19.0186
  36   2.0000      -0.690617       -18.7926
  37   2.0000      -0.655824       -17.8459
  38   2.0000      -0.641315       -17.4511
  39   2.0000      -0.612345       -16.6628
  40   2.0000      -0.595201       -16.1963
  41   2.0000      -0.576448       -15.6860
  42   2.0000      -0.563603       -15.3364
  43   2.0000      -0.557924       -15.1819
  44   2.0000      -0.543171       -14.7804
  45   2.0000      -0.516726       -14.0608
  46   2.0000      -0.515606       -14.0303
  47   2.0000      -0.510488       -13.8911
  48   2.0000      -0.503859       -13.7107
  49   2.0000      -0.496061       -13.4985
  50   2.0000      -0.483360       -13.1529
  51   2.0000      -0.478625       -13.0240
  52   2.0000      -0.473501       -12.8846
  53   2.0000      -0.461760       -12.5651
  54   2.0000      -0.456048       -12.4097
  55   2.0000      -0.441469       -12.0130
  56   2.0000      -0.440166       -11.9775
  57   2.0000      -0.436732       -11.8841
  58   2.0000      -0.427937       -11.6448
  59   2.0000      -0.424778       -11.5588
  60   2.0000      -0.422468       -11.4959
  61   2.0000      -0.414177       -11.2703
  62   2.0000      -0.407979       -11.1017
  63   2.0000      -0.347766        -9.4632
  64   2.0000      -0.334678        -9.1071
  65   2.0000      -0.331734        -9.0269
  66   2.0000      -0.293699        -7.9920
  67   0.0000       0.019995         0.5441
  68   0.0000       0.059580         1.6212
  69   0.0000       0.099231         2.7002
  70   0.0000       0.118572         3.2265
  71   0.0000       0.124586         3.3901

MULLIKEN ATOMIC CHARGES
-----------------------
   0 S :    0.085741
   1 C :   -0.105651
   2 C :   -0.090921
   3 C :    0.031392
   4 C :   -0.153974
   5 H :    0.026680
   6 C :    0.112132
   7 H :    0.037834
   8 H :   -0.003647
   9 C :   -0.126678
  10 H :    0.032886
  11 H :    0.029955
  12 C :   -0.044819
  13 H :    0.046584
  14 H :    0.020338
  15 H :    0.039807
  16 S :    0.111191
  17 C :   -0.105145
  18 C :   -0.064809
  19 C :    0.024848
  20 C :   -0.174019
  21 H :    0.053872
  22 C :    0.023138
  23 H :    0.019421
  24 H :    0.029775
  25 C :   -0.027468
  26 H :    0.022658
  27 H :    0.028066
  28 C :   -0.082334
  29 H :    0.033041
  30 H :    0.030978
  31 H :    0.040382
  32 H :    0.042551
  33 H :    0.056192
Sum of atomic charges:    0.0000000

LOEWDIN ATOMIC CHARGES
----------------------
   0 S :    0.344369
   1 C :   -0.168506
   2 C :   -0.056614
   3 C :   -0.067205
   4 C :   -0.162048
   5 H :    0.036935
   6 C :   -0.029074
   7 H :    0.034454
   8 H :    0.019674
   9 C :   -0.046340
  10 H :    0.025843
  11 H :    0.019895
  12 C :   -0.065525
  13 H :    0.035504
  14 H :    0.015034
  15 H :    0.027792
  16 S :    0.397848
  17 C :   -0.180437
  18 C :   -0.081604
  19 C :   -0.054130
  20 C :   -0.195202
  21 H :    0.050037
  22 C :   -0.036092
  23 H :    0.028508
  24 H :    0.035875
  25 C :   -0.030355
  26 H :    0.021467
  27 H :    0.018461
  28 C :   -0.065991
  29 H :    0.025496
  30 H :    0.018432
  31 H :    0.030149
  32 H :    0.026115
  33 H :    0.027234

  Mayer bond orders larger than 0.100000
B(  0-S ,  1-C ) :   1.1047 B(  0-S ,  4-C ) :   1.1159 B(  1-C ,  2-C ) :   1.6488
B(  1-C , 32-H ) :   0.9721 B(  2-C ,  3-C ) :   1.1868 B(  2-C ,  6-C ) :   1.0199
B(  3-C ,  4-C ) :   1.6430 B(  3-C ,  5-H ) :   0.9845 B(  4-C , 20-C ) :   1.0306
B(  6-C ,  7-H ) :   0.9373 B(  6-C ,  8-H ) :   0.9378 B(  6-C ,  9-C ) :   1.0683
B(  9-C , 10-H ) :   0.9674 B(  9-C , 11-H ) :   0.9662 B(  9-C , 12-C ) :   1.0544
B( 12-C , 13-H ) :   0.9764 B( 12-C , 14-H ) :   0.9802 B( 12-C , 15-H ) :   0.9799
B( 16-S , 17-C ) :   1.1432 B( 16-S , 20-C ) :   1.1616 B( 17-C , 18-C ) :   1.6237
B( 17-C , 20-C ) :   0.1098 B( 17-C , 33-H ) :   0.9713 B( 18-C , 19-C ) :   1.2347
B( 18-C , 21-H ) :   0.9712 B( 19-C , 20-C ) :   1.5486 B( 19-C , 22-C ) :   1.0454
B( 22-C , 23-H ) :   0.9420 B( 22-C , 24-H ) :   0.9411 B( 22-C , 25-C ) :   1.0526
B( 25-C , 26-H ) :   0.9542 B( 25-C , 27-H ) :   0.9592 B( 25-C , 28-C ) :   1.0696
B( 28-C , 29-H ) :   0.9750 B( 28-C , 30-H ) :   0.9784 B( 28-C , 31-H ) :   0.9766

Dispersion correction           -0.015274648
FINAL SINGLE POINT ENERGY     -1339.859522113233

DIPOLE MOMENT
-------------
                                X             Y             Z
Electronic contribution:     25.95850      -9.92838       9.72078
Nuclear contribution   :    -26.33898      10.27911      -9.65521
                        -----------------------------------------
Total Dipole Moment    :     -0.38048       0.35073       0.06557
                        -----------------------------------------
Magnitude (a.u.)       :      0.52161
Magnitude (Debye)      :      1.32583

Rotational constants in cm-1:     0.020373     0.009188     0.007185
Rotational constants in MHz :   610.777605   275.443105   215.408646

                             ****ORCA TERMINATED NORMALLY****
TOTAL RUN TIME: 0 days 0 hours 0 minutes 22 seconds 460 msec
