                         Program Version 4.2.1 -  RELEASE  -
|  1> ! wB97X-D3 SP def2-SVP
|  2> %pal
|  3> nprocs 24
|  4> end
|  5>
|  6> * xyz 0 1
|  7> S 	 -40.6218 	 7.9036 	 -7.20207
|  8> C 	 -40.1918 	 6.43906 	 -8.04556
|  9> C 	 -40.1481 	 5.40195 	 -7.17035
| 10> C 	 -40.5433 	 5.81855 	 -5.84797
| 11> C 	 -40.6575 	 7.16074 	 -5.6548
| 12> H 	 -40.605 	 5.12438 	 -4.99685
| 13> C 	 -39.975 	 3.96303 	 -7.5905
| 14> H 	 -40.8415 	 3.67278 	 -8.04631
| 15> H 	 -40.0079 	 3.33623 	 -6.64887
| 16> C 	 -38.697 	 3.61067 	 -8.35574
| 17> H 	 -38.7918 	 4.02339 	 -9.33963
| 18> H 	 -37.7266 	 3.96913 	 -8.02319
| 19> C 	 -38.471 	 2.09981 	 -8.69669
| 20> H 	 -39.3603 	 1.73484 	 -9.13182
| 21> H 	 -37.632 	 2.02679 	 -9.37883
| 22> H 	 -38.3777 	 1.50868 	 -7.85523
| 23> S 	 -42.8691 	 7.97855 	 -4.14346
| 24> C 	 -42.5773 	 8.8617 	 -2.73224
| 25> C 	 -41.233 	 8.77951 	 -2.31641
| 26> C 	 -40.4185 	 8.16312 	 -3.3365
| 27> C 	 -41.1415 	 7.84915 	 -4.48127
| 28> H 	 -40.9315 	 9.17083 	 -1.3213
| 29> C 	 -38.9211 	 7.97814 	 -3.21927
| 30> H 	 -38.3872 	 8.04603 	 -4.18663
| 31> H 	 -38.7792 	 6.94637 	 -2.95376
| 32> C 	 -38.1383 	 8.77839 	 -2.16496
| 33> H 	 -37.0546 	 8.60762 	 -2.09482
| 34> H 	 -38.5295 	 8.49897 	 -1.23134
| 35> C 	 -38.1878 	 10.3045 	 -2.27476
| 36> H 	 -37.764 	 10.7657 	 -3.06238
| 37> H 	 -37.6381 	 10.7807 	 -1.42655
| 38> H 	 -39.1668 	 10.6833 	 -2.24512
| 39> H 	 -40.0409 	 6.31435 	 -9.10643
| 40> H 	 -43.3074 	 9.14919 	 -2.0337
| 41> *
| 42>
| 43>                          ****END OF INPUT****

CARTESIAN COORDINATES (ANGSTROEM)
---------------------------------
  S    -40.621800    7.903600   -7.202070
  C    -40.191800    6.439060   -8.045560
  C    -40.148100    5.401950   -7.170350
  C    -40.543300    5.818550   -5.847970
  C    -40.657500    7.160740   -5.654800
  H    -40.605000    5.124380   -4.996850
  C    -39.975000    3.963030   -7.590500
  H    -40.841500    3.672780   -8.046310
  H    -40.007900    3.336230   -6.648870
  C    -38.697000    3.610670   -8.355740
  H    -38.791800    4.023390   -9.339630
  H    -37.726600    3.969130   -8.023190
  C    -38.471000    2.099810   -8.696690
  H    -39.360300    1.734840   -9.131820
  H    -37.632000    2.026790   -9.378830
  H    -38.377700    1.508680   -7.855230
  S    -42.869100    7.978550   -4.143460
  C    -42.577300    8.861700   -2.732240
  C    -41.233000    8.779510   -2.316410
  C    -40.418500    8.163120   -3.336500
  C    -41.141500    7.849150   -4.481270
  H    -40.931500    9.170830   -1.321300
  C    -38.921100    7.978140   -3.219270
  H    -38.387200    8.046030   -4.186630
  H    -38.779200    6.946370   -2.953760
  C    -38.138300    8.778390   -2.164960
  H    -37.054600    8.607620   -2.094820
  H    -38.529500    8.498970   -1.231340
  C    -38.187800   10.304500   -2.274760
  H    -37.764000   10.765700   -3.062380
  H    -37.638100   10.780700   -1.426550
  H    -39.166800   10.683300   -2.245120
  H    -40.040900    6.314350   -9.106430
  H    -43.307400    9.149190   -2.033700

 Total Charge           Charge          ....    0
 Multiplicity           Mult            ....    1
 Number of Electrons    NEL             ....  134
 Basis Dimension        Dim             ....  322

ORBITAL ENERGIES
----------------

  NO   OCC          E(Eh)            E(eV)
   0   2.0000     -88.967006     -2420.9153
   1   2.0000     -88.960491     -2420.7380
   2   2.0000     -10.322293      -280.8839
   3   2.0000     -10.321094      -280.8513
   4   2.0000     -10.313137      -280.6347
   5   2.0000     -10.310054      -280.5508
   6   2.0000     -10.308019      -280.4955
   7   2.0000     -10.299692      -280.2689
   8   2.0000     -10.296539      -280.1831
   9   2.0000     -10.292664      -280.0776
  10   2.0000     -10.291006      -280.0325
  11   2.0000     -10.289443      -279.9900
  12   2.0000     -10.286059      -279.8979
  13   2.0000     -10.282827      -279.8100
  14   2.0000     -10.269985      -279.4605
  15   2.0000     -10.260236      -279.1952
  16   2.0000      -8.082411      -219.9336
  17   2.0000      -8.076116      -219.7623
  18   2.0000      -6.040716      -164.3762
  19   2.0000      -6.036948      -164.2737
  20   2.0000      -6.034670      -164.2117
  21   2.0000      -6.033214      -164.1721
  22   2.0000      -6.030367      -164.0946
  23   2.0000      -6.026877      -163.9997
  24   2.0000      -1.011987       -27.5376
  25   2.0000      -0.989585       -26.9280
  26   2.0000      -0.913260       -24.8511
  27   2.0000      -0.908979       -24.7346
  28   2.0000      -0.873346       -23.7650
  29   2.0000      -0.850901       -23.1542
  30   2.0000      -0.845264       -23.0008
  31   2.0000      -0.814702       -22.1692
  32   2.0000      -0.790539       -21.5117
  33   2.0000      -0.778228       -21.1767
  34   2.0000      -0.710984       -19.3469
  35   2.0000      -0.707896       -19.2628
  36   2.0000      -0.699596       -19.0370
  37   2.0000      -0.652714       -17.7613
  38   2.0000      -0.643252       -17.5038
  39   2.0000      -0.615377       -16.7453
  40   2.0000      -0.599489       -16.3129
  41   2.0000      -0.572589       -15.5809
  42   2.0000      -0.562908       -15.3175
  43   2.0000      -0.548512       -14.9258
  44   2.0000      -0.542870       -14.7723
  45   2.0000      -0.536462       -14.5979
  46   2.0000      -0.521372       -14.1873
  47   2.0000      -0.514557       -14.0018
  48   2.0000      -0.506699       -13.7880
  49   2.0000      -0.502024       -13.6608
  50   2.0000      -0.491716       -13.3803
  51   2.0000      -0.479120       -13.0375
  52   2.0000      -0.471774       -12.8376
  53   2.0000      -0.469038       -12.7632
  54   2.0000      -0.461247       -12.5512
  55   2.0000      -0.450010       -12.2454
  56   2.0000      -0.443144       -12.0586
  57   2.0000      -0.441858       -12.0236
  58   2.0000      -0.437353       -11.9010
  59   2.0000      -0.420399       -11.4396
  60   2.0000      -0.417550       -11.3621
  61   2.0000      -0.412267       -11.2183
  62   2.0000      -0.410340       -11.1659
  63   2.0000      -0.332889        -9.0584
  64   2.0000      -0.325657        -8.8616
  65   2.0000      -0.323240        -8.7958
  66   2.0000      -0.312845        -8.5129
  67   0.0000       0.041343         1.1250
  68   0.0000       0.055563         1.5119
  69   0.0000       0.112477         3.0606
  70   0.0000       0.126738         3.4487
  71   0.0000       0.136257         3.7077

MULLIKEN ATOMIC CHARGES
-----------------------
   0 S :    0.107818
   1 C :   -0.117582
   2 C :   -0.086840
   3 C :    0.023714
   4 C :   -0.175608
   5 H :    0.017514
   6 C :    0.094990
   7 H :    0.018244
   8 H :    0.016164
   9 C :   -0.090174
  10 H :    0.014577
  11 H :    0.032332
  12 C :   -0.005048
  13 H :    0.007273
  14 H :    0.037927
  15 H :    0.012624
  16 S :    0.135231
  17 C :   -0.061715
  18 C :   -0.078916
  19 C :   -0.029314
  20 C :   -0.166450
  21 H :    0.038933
  22 C :    0.091149
  23 H :    0.041958
  24 H :    0.027195
  25 C :   -0.052718
  26 H :    0.030235
  27 H :    0.009235
  28 C :   -0.017895
  29 H :    0.002597
  30 H :    0.021899
  31 H :    0.011194
  32 H :    0.046824
  33 H :    0.042635
Sum of atomic charges:    0.0000000

LOEWDIN ATOMIC CHARGES
----------------------
   0 S :    0.422993
   1 C :   -0.191717
   2 C :   -0.068809
   3 C :   -0.060211
   4 C :   -0.215503
   5 H :    0.031593
   6 C :   -0.027713
   7 H :    0.022440
   8 H :    0.033682
   9 C :   -0.037467
  10 H :    0.018493
  11 H :    0.025805
  12 C :   -0.050619
  13 H :    0.017802
  14 H :    0.029447
  15 H :    0.011723
  16 S :    0.434863
  17 C :   -0.196210
  18 C :   -0.080225
  19 C :   -0.041213
  20 C :   -0.212078
  21 H :    0.037430
  22 C :   -0.035165
  23 H :    0.037907
  24 H :    0.036467
  25 C :   -0.037619
  26 H :    0.032754
  27 H :    0.014461
  28 C :   -0.060514
  29 H :    0.008900
  30 H :    0.032270
  31 H :    0.015481
  32 H :    0.029632
  33 H :    0.020917

  Mayer bond orders larger than 0.100000
B(  0-S ,  1-C ) :   1.1512 B(  0-S ,  4-C ) :   1.1500 B(  1-C ,  2-C ) :   1.6026
B(  1-C , 32-H ) :   0.9737 B(  2-C ,  3-C ) :   1.2569 B(  2-C ,  6-C ) :   1.0150
B(  3-C ,  4-C ) :   1.5875 B(  3-C ,  5-H ) :   0.9899 B(  4-C , 20-C ) :   1.0218
B(  6-C ,  7-H ) :   0.9346 B(  6-C ,  8-H ) :   0.9426 B(  6-C ,  9-C ) :   1.0555
B(  9-C , 10-H ) :   0.9533 B(  9-C , 11-H ) :   0.9657 B(  9-C , 12-C ) :   1.0854
B( 12-C , 13-H ) :   0.9720 B( 12-C , 14-H ) :   0.9764 B( 12-C , 15-H ) :   0.9763
B( 16-S , 17-C ) :   1.1909 B( 16-S , 20-C ) :   1.1446 B( 17-C , 18-C ) :   1.5815
B( 17-C , 20-C ) :   0.1003 B( 17-C , 33-H ) :   0.9659 B( 18-C , 19-C ) :   1.2612
B( 18-C , 21-H ) :   0.9800 B( 19-C , 20-C ) :   1.5854 B( 19-C , 22-C ) :   1.0331
B( 22-C , 23-H ) :   0.9361 B( 22-C , 24-H ) :   0.9178 B( 22-C , 25-C ) :   1.0801
B( 25-C , 26-H ) :   0.9559 B( 25-C , 27-H ) :   0.9466 B( 25-C , 28-C ) :   1.0825
B( 28-C , 29-H ) :   0.9732 B( 28-C , 30-H ) :   0.9712 B( 28-C , 31-H ) :   0.9724

Dispersion correction           -0.013782442
FINAL SINGLE POINT ENERGY     -1339.855405717229

DIPOLE MOMENT
-------------
                                X             Y             Z
Electronic contribution:    -19.89445      11.46395      -1.57470
Nuclear contribution   :     20.16542     -11.98878       1.77787
                        -----------------------------------------
Total Dipole Moment    :      0.27097      -0.52483       0.20316
                        -----------------------------------------
Magnitude (a.u.)       :      0.62462
Magnitude (Debye)      :      1.58766

Rotational constants in cm-1:     0.022087     0.006880     0.006079
Rotational constants in MHz :   662.162962   206.249034   182.230597

                             ****ORCA TERMINATED NORMALLY****
TOTAL RUN TIME: 0 days 0 hours 0 minutes 20 seconds 910 msec
