                         Program Version 4.2.1 -  RELEASE  -
|  1> ! wB97X-D3 SP def2-SVP
|  2> %pal
|  3> nprocs 24
|  4> end
|  5>
|  6> * xyz 0 1
|  7> S 	 9.12509 	 -18.8319 	 -118.016
|  8> C 	 7.92473 	 -18.2742 	 -119.154
|  9> C 	 6.92703 	 -17.5386 	 -118.557
| 10> C 	 7.31004 	 -17.1805 	 -117.186
| 11> C 	 8.5419 	 -17.6983 	 -116.799
| 12> H 	 6.7119 	 -16.6513 	 -116.523
| 13> C 	 5.62108 	 -17.0983 	 -119.245
| 14> H 	 5.66111 	 -17.3431 	 -120.32
| 15> H 	 5.6301 	 -15.9906 	 -119.201
| 16> C 	 4.3796 	 -17.6623 	 -118.778
| 17> H 	 4.4471 	 -18.7142 	 -118.753
| 18> H 	 4.21358 	 -17.3148 	 -117.805
| 19> C 	 3.15903 	 -17.2928 	 -119.513
| 20> H 	 2.15979 	 -17.655 	 -119.015
| 21> H 	 3.08958 	 -16.195 	 -119.668
| 22> H 	 3.2524 	 -17.7698 	 -120.466
| 23> S 	 10.235 	 -18.9331 	 -115.016
| 24> C 	 10.8718 	 -18.1245 	 -113.694
| 25> C 	 10.1203 	 -16.959 	 -113.467
| 26> C 	 9.17169 	 -16.6557 	 -114.495
| 27> C 	 9.23652 	 -17.5954 	 -115.518
| 28> H 	 10.3916 	 -16.2974 	 -112.632
| 29> C 	 8.36538 	 -15.4057 	 -114.366
| 30> H 	 7.84768 	 -15.2484 	 -115.346
| 31> H 	 9.07697 	 -14.6337 	 -114.246
| 32> C 	 7.31279 	 -15.4917 	 -113.313
| 33> H 	 6.83452 	 -14.5428 	 -113.134
| 34> H 	 7.87003 	 -15.6598 	 -112.401
| 35> C 	 6.15983 	 -16.3848 	 -113.705
| 36> H 	 5.29834 	 -16.5108 	 -113.017
| 37> H 	 6.5249 	 -17.3581 	 -113.844
| 38> H 	 5.83262 	 -15.9487 	 -114.715
| 39> H 	 7.92789 	 -18.6288 	 -120.191
| 40> H 	 11.695 	 -18.4576 	 -112.997
| 41> *
| 42>
| 43>                          ****END OF INPUT****

CARTESIAN COORDINATES (ANGSTROEM)
---------------------------------
  S      9.125090  -18.831900  -118.016000
  C      7.924730  -18.274200  -119.154000
  C      6.927030  -17.538600  -118.557000
  C      7.310040  -17.180500  -117.186000
  C      8.541900  -17.698300  -116.799000
  H      6.711900  -16.651300  -116.523000
  C      5.621080  -17.098300  -119.245000
  H      5.661110  -17.343100  -120.320000
  H      5.630100  -15.990600  -119.201000
  C      4.379600  -17.662300  -118.778000
  H      4.447100  -18.714200  -118.753000
  H      4.213580  -17.314800  -117.805000
  C      3.159030  -17.292800  -119.513000
  H      2.159790  -17.655000  -119.015000
  H      3.089580  -16.195000  -119.668000
  H      3.252400  -17.769800  -120.466000
  S     10.235000  -18.933100  -115.016000
  C     10.871800  -18.124500  -113.694000
  C     10.120300  -16.959000  -113.467000
  C      9.171690  -16.655700  -114.495000
  C      9.236520  -17.595400  -115.518000
  H     10.391600  -16.297400  -112.632000
  C      8.365380  -15.405700  -114.366000
  H      7.847680  -15.248400  -115.346000
  H      9.076970  -14.633700  -114.246000
  C      7.312790  -15.491700  -113.313000
  H      6.834520  -14.542800  -113.134000
  H      7.870030  -15.659800  -112.401000
  C      6.159830  -16.384800  -113.705000
  H      5.298340  -16.510800  -113.017000
  H      6.524900  -17.358100  -113.844000
  H      5.832620  -15.948700  -114.715000
  H      7.927890  -18.628800  -120.191000
  H     11.695000  -18.457600  -112.997000

 Total Charge           Charge          ....    0
 Multiplicity           Mult            ....    1
 Number of Electrons    NEL             ....  134
 Basis Dimension        Dim             ....  322

ORBITAL ENERGIES
----------------

  NO   OCC          E(Eh)            E(eV)
   0   2.0000     -88.965570     -2420.8762
   1   2.0000     -88.963494     -2420.8198
   2   2.0000     -10.333705      -281.1944
   3   2.0000     -10.327799      -281.0337
   4   2.0000     -10.319036      -280.7953
   5   2.0000     -10.314616      -280.6750
   6   2.0000     -10.306844      -280.4635
   7   2.0000     -10.301749      -280.3248
   8   2.0000     -10.294750      -280.1344
   9   2.0000     -10.294112      -280.1170
  10   2.0000     -10.292628      -280.0766
  11   2.0000     -10.287798      -279.9452
  12   2.0000     -10.282984      -279.8142
  13   2.0000     -10.282190      -279.7926
  14   2.0000     -10.281721      -279.7799
  15   2.0000     -10.267538      -279.3939
  16   2.0000      -8.081823      -219.9176
  17   2.0000      -8.078465      -219.8262
  18   2.0000      -6.040213      -164.3625
  19   2.0000      -6.037083      -164.2774
  20   2.0000      -6.036094      -164.2505
  21   2.0000      -6.033163      -164.1707
  22   2.0000      -6.032634      -164.1563
  23   2.0000      -6.028877      -164.0541
  24   2.0000      -1.011977       -27.5373
  25   2.0000      -0.986023       -26.8311
  26   2.0000      -0.929983       -25.3061
  27   2.0000      -0.926142       -25.2016
  28   2.0000      -0.872180       -23.7332
  29   2.0000      -0.855984       -23.2925
  30   2.0000      -0.845107       -22.9965
  31   2.0000      -0.813046       -22.1241
  32   2.0000      -0.785688       -21.3797
  33   2.0000      -0.775335       -21.0979
  34   2.0000      -0.711040       -19.3484
  35   2.0000      -0.697478       -18.9793
  36   2.0000      -0.690896       -18.8002
  37   2.0000      -0.661559       -18.0019
  38   2.0000      -0.639525       -17.4024
  39   2.0000      -0.626892       -17.0586
  40   2.0000      -0.598866       -16.2960
  41   2.0000      -0.586981       -15.9726
  42   2.0000      -0.568451       -15.4683
  43   2.0000      -0.562763       -15.3136
  44   2.0000      -0.552481       -15.0338
  45   2.0000      -0.524195       -14.2641
  46   2.0000      -0.518663       -14.1135
  47   2.0000      -0.511962       -13.9312
  48   2.0000      -0.510191       -13.8830
  49   2.0000      -0.498902       -13.5758
  50   2.0000      -0.493905       -13.4398
  51   2.0000      -0.480292       -13.0694
  52   2.0000      -0.469234       -12.7685
  53   2.0000      -0.465979       -12.6799
  54   2.0000      -0.459416       -12.5013
  55   2.0000      -0.454842       -12.3769
  56   2.0000      -0.451722       -12.2920
  57   2.0000      -0.439878       -11.9697
  58   2.0000      -0.432982       -11.7821
  59   2.0000      -0.424116       -11.5408
  60   2.0000      -0.415640       -11.3101
  61   2.0000      -0.412866       -11.2347
  62   2.0000      -0.410118       -11.1599
  63   2.0000      -0.360502        -9.8098
  64   2.0000      -0.331634        -9.0242
  65   2.0000      -0.325841        -8.8666
  66   2.0000      -0.283127        -7.7043
  67   0.0000       0.020242         0.5508
  68   0.0000       0.079896         2.1741
  69   0.0000       0.099276         2.7014
  70   0.0000       0.123093         3.3495
  71   0.0000       0.134564         3.6617

MULLIKEN ATOMIC CHARGES
-----------------------
   0 S :    0.091600
   1 C :   -0.131620
   2 C :   -0.068808
   3 C :    0.058599
   4 C :   -0.108524
   5 H :   -0.069328
   6 C :    0.050480
   7 H :    0.005707
   8 H :    0.031366
   9 C :   -0.005442
  10 H :    0.018212
  11 H :    0.003150
  12 C :   -0.070533
  13 H :    0.053141
  14 H :    0.030628
  15 H :    0.020797
  16 S :    0.111868
  17 C :   -0.102210
  18 C :   -0.070810
  19 C :   -0.071951
  20 C :   -0.124293
  21 H :    0.026551
  22 C :    0.075048
  23 H :    0.009433
  24 H :    0.027143
  25 C :   -0.034511
  26 H :    0.021263
  27 H :    0.017886
  28 C :   -0.055950
  29 H :    0.046532
  30 H :    0.033123
  31 H :    0.043683
  32 H :    0.056097
  33 H :    0.081672
Sum of atomic charges:   -0.0000000

LOEWDIN ATOMIC CHARGES
----------------------
   0 S :    0.390637
   1 C :   -0.195614
   2 C :   -0.054690
   3 C :   -0.057050
   4 C :   -0.176036
   5 H :    0.008348
   6 C :   -0.030774
   7 H :    0.028302
   8 H :    0.033151
   9 C :   -0.049847
  10 H :    0.023978
  11 H :    0.016385
  12 C :   -0.063235
  13 H :    0.040794
  14 H :    0.025775
  15 H :    0.018197
  16 S :    0.436435
  17 C :   -0.220370
  18 C :   -0.080441
  19 C :   -0.059396
  20 C :   -0.201652
  21 H :    0.031039
  22 C :   -0.027795
  23 H :    0.029242
  24 H :    0.030195
  25 C :   -0.040989
  26 H :    0.023293
  27 H :    0.020197
  28 C :   -0.060149
  29 H :    0.032355
  30 H :    0.018606
  31 H :    0.032929
  32 H :    0.030650
  33 H :    0.047533

  Mayer bond orders larger than 0.100000
B(  0-S ,  1-C ) :   1.1284 B(  0-S ,  4-C ) :   1.1394 B(  1-C ,  2-C ) :   1.6328
B(  1-C , 32-H ) :   0.9650 B(  2-C ,  3-C ) :   1.2167 B(  2-C ,  6-C ) :   1.0232
B(  3-C ,  4-C ) :   1.5677 B(  3-C ,  5-H ) :   0.9992 B(  4-C , 20-C ) :   1.0794
B(  6-C ,  7-H ) :   0.9388 B(  6-C ,  8-H ) :   0.9318 B(  6-C ,  9-C ) :   1.0855
B(  9-C , 10-H ) :   0.9456 B(  9-C , 11-H ) :   0.9382 B(  9-C , 12-C ) :   1.0964
B( 12-C , 13-H ) :   0.9714 B( 12-C , 14-H ) :   0.9703 B( 12-C , 15-H ) :   0.9720
B( 16-S , 17-C ) :   1.1763 B( 16-S , 20-C ) :   1.1520 B( 17-C , 18-C ) :   1.5749
B( 17-C , 33-H ) :   0.9621 B( 18-C , 19-C ) :   1.2619 B( 18-C , 21-H ) :   0.9837
B( 19-C , 20-C ) :   1.5626 B( 19-C , 22-C ) :   1.0339 B( 22-C , 23-H ) :   0.9330
B( 22-C , 24-H ) :   0.9296 B( 22-C , 25-C ) :   1.0825 B( 25-C , 26-H ) :   0.9529
B( 25-C , 27-H ) :   0.9515 B( 25-C , 28-C ) :   1.0607 B( 28-C , 29-H ) :   0.9709
B( 28-C , 30-H ) :   0.9789 B( 28-C , 31-H ) :   0.9599

Dispersion correction           -0.014441476
FINAL SINGLE POINT ENERGY     -1339.863807623738

DIPOLE MOMENT
-------------
                                X             Y             Z
Electronic contribution:     27.02663     -13.37462       0.37179
Nuclear contribution   :    -27.47678      13.74213      -0.14842
                        -----------------------------------------
Total Dipole Moment    :     -0.45015       0.36751       0.22336
                        -----------------------------------------
Magnitude (a.u.)       :      0.62257
Magnitude (Debye)      :      1.58244

Rotational constants in cm-1:     0.020378     0.008749     0.006531
Rotational constants in MHz :   610.909801   262.276078   195.793059

                             ****ORCA TERMINATED NORMALLY****
TOTAL RUN TIME: 0 days 0 hours 0 minutes 22 seconds 286 msec
