                         Program Version 4.2.1 -  RELEASE  -
|  1> ! wB97X-D3 SP def2-SVP
|  2> %pal
|  3> nprocs 24
|  4> end
|  5>
|  6> * xyz 0 1
|  7> S 	 -46.5839 	 10.84 	 -20.5146
|  8> C 	 -47.9065 	 10.2953 	 -19.4739
|  9> C 	 -49.0399 	 10.2791 	 -20.1569
| 10> C 	 -48.9191 	 10.6968 	 -21.5133
| 11> C 	 -47.6271 	 11.0596 	 -21.8639
| 12> H 	 -49.7492 	 10.7739 	 -22.2819
| 13> C 	 -50.3247 	 9.7541 	 -19.6575
| 14> H 	 -51.1333 	 10.1525 	 -20.2651
| 15> H 	 -50.5524 	 10.1268 	 -18.6658
| 16> C 	 -50.4769 	 8.18148 	 -19.615
| 17> H 	 -49.6497 	 7.75077 	 -19.011
| 18> H 	 -51.4138 	 7.84603 	 -19.1013
| 19> C 	 -50.4584 	 7.43132 	 -20.956
| 20> H 	 -50.4039 	 6.38551 	 -20.7515
| 21> H 	 -51.3513 	 7.58782 	 -21.6523
| 22> H 	 -49.494 	 7.63823 	 -21.4222
| 23> S 	 -46.1568 	 9.99273 	 -23.9895
| 24> C 	 -46.1771 	 10.8394 	 -25.5199
| 25> C 	 -46.8775 	 12.0396 	 -25.3957
| 26> C 	 -47.4609 	 12.2321 	 -24.0918
| 27> C 	 -47.1751 	 11.1902 	 -23.2723
| 28> H 	 -46.9167 	 12.6768 	 -26.297
| 29> C 	 -48.3692 	 13.4111 	 -23.7271
| 30> H 	 -48.4733 	 13.4737 	 -22.6105
| 31> H 	 -49.3777 	 13.2856 	 -24.0807
| 32> C 	 -47.7776 	 14.7017 	 -24.1496
| 33> H 	 -47.8694 	 14.8527 	 -25.1888
| 34> H 	 -46.666 	 14.5626 	 -24.1718
| 35> C 	 -48.1022 	 16.0056 	 -23.4347
| 36> H 	 -47.8477 	 15.9365 	 -22.3737
| 37> H 	 -49.1793 	 16.2626 	 -23.5469
| 38> H 	 -47.5173 	 16.8553 	 -23.7326
| 39> H 	 -47.817 	 9.81432 	 -18.5
| 40> H 	 -45.7513 	 10.5059 	 -26.4229
| 41> *
| 42>
| 43>                          ****END OF INPUT****

CARTESIAN COORDINATES (ANGSTROEM)
---------------------------------
  S    -46.583900   10.840000  -20.514600
  C    -47.906500   10.295300  -19.473900
  C    -49.039900   10.279100  -20.156900
  C    -48.919100   10.696800  -21.513300
  C    -47.627100   11.059600  -21.863900
  H    -49.749200   10.773900  -22.281900
  C    -50.324700    9.754100  -19.657500
  H    -51.133300   10.152500  -20.265100
  H    -50.552400   10.126800  -18.665800
  C    -50.476900    8.181480  -19.615000
  H    -49.649700    7.750770  -19.011000
  H    -51.413800    7.846030  -19.101300
  C    -50.458400    7.431320  -20.956000
  H    -50.403900    6.385510  -20.751500
  H    -51.351300    7.587820  -21.652300
  H    -49.494000    7.638230  -21.422200
  S    -46.156800    9.992730  -23.989500
  C    -46.177100   10.839400  -25.519900
  C    -46.877500   12.039600  -25.395700
  C    -47.460900   12.232100  -24.091800
  C    -47.175100   11.190200  -23.272300
  H    -46.916700   12.676800  -26.297000
  C    -48.369200   13.411100  -23.727100
  H    -48.473300   13.473700  -22.610500
  H    -49.377700   13.285600  -24.080700
  C    -47.777600   14.701700  -24.149600
  H    -47.869400   14.852700  -25.188800
  H    -46.666000   14.562600  -24.171800
  C    -48.102200   16.005600  -23.434700
  H    -47.847700   15.936500  -22.373700
  H    -49.179300   16.262600  -23.546900
  H    -47.517300   16.855300  -23.732600
  H    -47.817000    9.814320  -18.500000
  H    -45.751300   10.505900  -26.422900

 Total Charge           Charge          ....    0
 Multiplicity           Mult            ....    1
 Number of Electrons    NEL             ....  134
 Basis Dimension        Dim             ....  322

ORBITAL ENERGIES
----------------

  NO   OCC          E(Eh)            E(eV)
   0   2.0000     -88.966937     -2420.9134
   1   2.0000     -88.965620     -2420.8776
   2   2.0000     -10.327306      -281.0203
   3   2.0000     -10.323444      -280.9152
   4   2.0000     -10.316426      -280.7242
   5   2.0000     -10.309496      -280.5356
   6   2.0000     -10.302059      -280.3333
   7   2.0000     -10.298734      -280.2428
   8   2.0000     -10.296071      -280.1703
   9   2.0000     -10.294082      -280.1162
  10   2.0000     -10.291555      -280.0474
  11   2.0000     -10.289907      -280.0026
  12   2.0000     -10.289155      -279.9822
  13   2.0000     -10.277078      -279.6535
  14   2.0000     -10.277007      -279.6516
  15   2.0000     -10.276298      -279.6323
  16   2.0000      -8.082033      -219.9233
  17   2.0000      -8.080588      -219.8840
  18   2.0000      -6.040537      -164.3714
  19   2.0000      -6.039181      -164.3345
  20   2.0000      -6.036510      -164.2618
  21   2.0000      -6.034964      -164.2197
  22   2.0000      -6.032745      -164.1593
  23   2.0000      -6.031332      -164.1209
  24   2.0000      -1.012012       -27.5383
  25   2.0000      -0.990664       -26.9574
  26   2.0000      -0.913401       -24.8549
  27   2.0000      -0.909155       -24.7394
  28   2.0000      -0.868313       -23.6280
  29   2.0000      -0.850187       -23.1348
  30   2.0000      -0.843568       -22.9547
  31   2.0000      -0.815364       -22.1872
  32   2.0000      -0.785566       -21.3763
  33   2.0000      -0.778291       -21.1784
  34   2.0000      -0.704324       -19.1656
  35   2.0000      -0.700886       -19.0721
  36   2.0000      -0.694154       -18.8889
  37   2.0000      -0.654774       -17.8173
  38   2.0000      -0.636525       -17.3207
  39   2.0000      -0.613997       -16.7077
  40   2.0000      -0.599374       -16.3098
  41   2.0000      -0.575380       -15.6569
  42   2.0000      -0.564861       -15.3706
  43   2.0000      -0.545059       -14.8318
  44   2.0000      -0.540421       -14.7056
  45   2.0000      -0.524938       -14.2843
  46   2.0000      -0.521066       -14.1789
  47   2.0000      -0.510319       -13.8865
  48   2.0000      -0.502358       -13.6699
  49   2.0000      -0.499376       -13.5887
  50   2.0000      -0.487931       -13.2773
  51   2.0000      -0.479275       -13.0417
  52   2.0000      -0.473518       -12.8851
  53   2.0000      -0.465639       -12.6707
  54   2.0000      -0.462215       -12.5775
  55   2.0000      -0.449725       -12.2376
  56   2.0000      -0.441660       -12.0182
  57   2.0000      -0.434060       -11.8114
  58   2.0000      -0.428649       -11.6641
  59   2.0000      -0.423346       -11.5198
  60   2.0000      -0.418548       -11.3893
  61   2.0000      -0.416087       -11.3223
  62   2.0000      -0.402483       -10.9521
  63   2.0000      -0.340356        -9.2616
  64   2.0000      -0.334272        -9.0960
  65   2.0000      -0.328955        -8.9513
  66   2.0000      -0.305048        -8.3008
  67   0.0000       0.038700         1.0531
  68   0.0000       0.065337         1.7779
  69   0.0000       0.122524         3.3340
  70   0.0000       0.127190         3.4610
  71   0.0000       0.130362         3.5473

MULLIKEN ATOMIC CHARGES
-----------------------
   0 S :    0.105151
   1 C :   -0.127998
   2 C :   -0.070602
   3 C :    0.009055
   4 C :   -0.172962
   5 H :    0.038314
   6 C :    0.095033
   7 H :    0.014291
   8 H :    0.023477
   9 C :   -0.104045
  10 H :    0.026524
  11 H :    0.035052
  12 C :   -0.062864
  13 H :    0.024766
  14 H :    0.046669
  15 H :    0.039309
  16 S :    0.124798
  17 C :   -0.088165
  18 C :   -0.048978
  19 C :   -0.052465
  20 C :   -0.157657
  21 H :    0.031346
  22 C :    0.130777
  23 H :    0.031054
  24 H :    0.033785
  25 C :   -0.118253
  26 H :    0.009528
  27 H :    0.028468
  28 C :   -0.028081
  29 H :    0.029711
  30 H :    0.035471
  31 H :    0.027629
  32 H :    0.050667
  33 H :    0.041192
Sum of atomic charges:   -0.0000000

LOEWDIN ATOMIC CHARGES
----------------------
   0 S :    0.409249
   1 C :   -0.189060
   2 C :   -0.077554
   3 C :   -0.064038
   4 C :   -0.204478
   5 H :    0.042155
   6 C :   -0.031776
   7 H :    0.028798
   8 H :    0.031345
   9 C :   -0.042023
  10 H :    0.024092
  11 H :    0.026231
  12 C :   -0.074841
  13 H :    0.023171
  14 H :    0.031795
  15 H :    0.027104
  16 S :    0.415898
  17 C :   -0.179969
  18 C :   -0.070875
  19 C :   -0.056400
  20 C :   -0.205211
  21 H :    0.036024
  22 C :   -0.028309
  23 H :    0.037624
  24 H :    0.028691
  25 C :   -0.057010
  26 H :    0.014552
  27 H :    0.031614
  28 C :   -0.064247
  29 H :    0.025961
  30 H :    0.027716
  31 H :    0.026719
  32 H :    0.035539
  33 H :    0.021511

  Mayer bond orders larger than 0.100000
B(  0-S ,  1-C ) :   1.1201 B(  0-S ,  4-C ) :   1.1660 B(  1-C ,  2-C ) :   1.6386
B(  1-C , 32-H ) :   0.9644 B(  2-C ,  3-C ) :   1.2407 B(  2-C ,  6-C ) :   1.0304
B(  3-C ,  4-C ) :   1.5704 B(  3-C ,  5-H ) :   0.9834 B(  4-C , 20-C ) :   1.0036
B(  6-C ,  7-H ) :   0.9399 B(  6-C ,  8-H ) :   0.9365 B(  6-C ,  9-C ) :   1.0602
B(  9-C , 10-H ) :   0.9579 B(  9-C , 11-H ) :   0.9589 B(  9-C , 12-C ) :   1.0816
B( 12-C , 13-H ) :   0.9707 B( 12-C , 14-H ) :   0.9749 B( 12-C , 15-H ) :   0.9723
B( 16-S , 17-C ) :   1.1496 B( 16-S , 20-C ) :   1.1448 B( 17-C , 18-C ) :   1.6256
B( 17-C , 33-H ) :   0.9737 B( 18-C , 19-C ) :   1.2140 B( 18-C , 21-H ) :   0.9883
B( 19-C , 20-C ) :   1.6427 B( 19-C , 22-C ) :   1.0420 B( 22-C , 23-H ) :   0.9281
B( 22-C , 24-H ) :   0.9295 B( 22-C , 25-C ) :   1.0514 B( 25-C , 26-H ) :   0.9423
B( 25-C , 27-H ) :   0.9567 B( 25-C , 28-C ) :   1.0972 B( 28-C , 29-H ) :   0.9714
B( 28-C , 30-H ) :   0.9733 B( 28-C , 31-H ) :   0.9712

Dispersion correction           -0.014394478
FINAL SINGLE POINT ENERGY     -1339.881496439038

DIPOLE MOMENT
-------------
                                X             Y             Z
Electronic contribution:     17.80066      -6.58742      -1.58486
Nuclear contribution   :    -18.26878       6.61310       1.44965
                        -----------------------------------------
Total Dipole Moment    :     -0.46813       0.02568      -0.13521
                        -----------------------------------------
Magnitude (a.u.)       :      0.48794
Magnitude (Debye)      :      1.24024

Rotational constants in cm-1:     0.018960     0.008272     0.007146
Rotational constants in MHz :   568.408689   247.985512   214.236303

                             ****ORCA TERMINATED NORMALLY****
TOTAL RUN TIME: 0 days 0 hours 0 minutes 21 seconds 513 msec
