                         Program Version 4.2.1 -  RELEASE  -
|  1> ! wB97X-D3 SP def2-SVP
|  2> %pal
|  3> nprocs 24
|  4> end
|  5>
|  6> * xyz 0 1
|  7> S 	 -95.701 	 8.22888 	 0.870368
|  8> C 	 -96.6026 	 9.07622 	 -0.315696
|  9> C 	 -95.8095 	 9.68291 	 -1.29647
| 10> C 	 -94.407 	 9.52578 	 -1.0448
| 11> C 	 -94.155 	 8.82884 	 0.155142
| 12> H 	 -93.5905 	 9.9227 	 -1.67487
| 13> C 	 -96.387 	 10.3864 	 -2.5076
| 14> H 	 -95.8636 	 11.2342 	 -2.74228
| 15> H 	 -97.2794 	 10.8627 	 -2.12416
| 16> C 	 -96.5907 	 9.35507 	 -3.70617
| 17> H 	 -95.5972 	 8.97772 	 -3.99548
| 18> H 	 -97.2705 	 8.62602 	 -3.42177
| 19> C 	 -97.1862 	 10.0991 	 -4.87697
| 20> H 	 -97.1553 	 9.3597 	 -5.70047
| 21> H 	 -98.1952 	 10.5363 	 -4.83953
| 22> H 	 -96.5134 	 10.8704 	 -5.24191
| 23> S 	 -92.8631 	 6.93002 	 1.4985
| 24> C 	 -91.1765 	 7.08729 	 1.88643
| 25> C 	 -90.6643 	 8.29216 	 1.46741
| 26> C 	 -91.579 	 9.0944 	 0.712423
| 27> C 	 -92.8573 	 8.43855 	 0.688016
| 28> H 	 -89.5792 	 8.5846 	 1.6461
| 29> C 	 -91.1756 	 10.4197 	 0.128107
| 30> H 	 -91.3199 	 10.1687 	 -0.920837
| 31> H 	 -90.1474 	 10.5525 	 0.515197
| 32> C 	 -92.0852 	 11.5576 	 0.575184
| 33> H 	 -91.8442 	 11.7674 	 1.61317
| 34> H 	 -93.2041 	 11.3756 	 0.558739
| 35> C 	 -91.9196 	 12.7734 	 -0.24452
| 36> H 	 -92.5662 	 13.4929 	 0.112252
| 37> H 	 -92.0707 	 12.5156 	 -1.29875
| 38> H 	 -90.876 	 13.0867 	 -0.207003
| 39> H 	 -97.7169 	 9.14357 	 -0.171325
| 40> H 	 -90.524 	 6.43078 	 2.46425
| 41> *
| 42>
| 43>                          ****END OF INPUT****

CARTESIAN COORDINATES (ANGSTROEM)
---------------------------------
  S    -95.701000    8.228880    0.870368
  C    -96.602600    9.076220   -0.315696
  C    -95.809500    9.682910   -1.296470
  C    -94.407000    9.525780   -1.044800
  C    -94.155000    8.828840    0.155142
  H    -93.590500    9.922700   -1.674870
  C    -96.387000   10.386400   -2.507600
  H    -95.863600   11.234200   -2.742280
  H    -97.279400   10.862700   -2.124160
  C    -96.590700    9.355070   -3.706170
  H    -95.597200    8.977720   -3.995480
  H    -97.270500    8.626020   -3.421770
  C    -97.186200   10.099100   -4.876970
  H    -97.155300    9.359700   -5.700470
  H    -98.195200   10.536300   -4.839530
  H    -96.513400   10.870400   -5.241910
  S    -92.863100    6.930020    1.498500
  C    -91.176500    7.087290    1.886430
  C    -90.664300    8.292160    1.467410
  C    -91.579000    9.094400    0.712423
  C    -92.857300    8.438550    0.688016
  H    -89.579200    8.584600    1.646100
  C    -91.175600   10.419700    0.128107
  H    -91.319900   10.168700   -0.920837
  H    -90.147400   10.552500    0.515197
  C    -92.085200   11.557600    0.575184
  H    -91.844200   11.767400    1.613170
  H    -93.204100   11.375600    0.558739
  C    -91.919600   12.773400   -0.244520
  H    -92.566200   13.492900    0.112252
  H    -92.070700   12.515600   -1.298750
  H    -90.876000   13.086700   -0.207003
  H    -97.716900    9.143570   -0.171325
  H    -90.524000    6.430780    2.464250

 Total Charge           Charge          ....    0
 Multiplicity           Mult            ....    1
 Number of Electrons    NEL             ....  134
 Basis Dimension        Dim             ....  322

ORBITAL ENERGIES
----------------

  NO   OCC          E(Eh)            E(eV)
   0   2.0000     -88.967793     -2420.9367
   1   2.0000     -88.966948     -2420.9137
   2   2.0000     -10.334523      -281.2167
   3   2.0000     -10.325545      -280.9724
   4   2.0000     -10.315192      -280.6906
   5   2.0000     -10.312307      -280.6121
   6   2.0000     -10.303854      -280.3821
   7   2.0000     -10.301927      -280.3297
   8   2.0000     -10.299575      -280.2657
   9   2.0000     -10.295118      -280.1444
  10   2.0000     -10.294922      -280.1391
  11   2.0000     -10.288311      -279.9592
  12   2.0000     -10.283988      -279.8415
  13   2.0000     -10.279021      -279.7064
  14   2.0000     -10.277184      -279.6564
  15   2.0000     -10.265608      -279.3414
  16   2.0000      -8.083110      -219.9526
  17   2.0000      -8.081397      -219.9060
  18   2.0000      -6.041603      -164.4004
  19   2.0000      -6.039922      -164.3546
  20   2.0000      -6.037520      -164.2893
  21   2.0000      -6.035938      -164.2462
  22   2.0000      -6.033874      -164.1901
  23   2.0000      -6.032179      -164.1439
  24   2.0000      -1.005244       -27.3541
  25   2.0000      -0.980249       -26.6739
  26   2.0000      -0.918928       -25.0053
  27   2.0000      -0.908831       -24.7305
  28   2.0000      -0.868911       -23.6443
  29   2.0000      -0.858063       -23.3491
  30   2.0000      -0.850435       -23.1415
  31   2.0000      -0.814243       -22.1567
  32   2.0000      -0.780475       -21.2378
  33   2.0000      -0.762500       -20.7487
  34   2.0000      -0.706567       -19.2267
  35   2.0000      -0.701905       -19.0998
  36   2.0000      -0.684541       -18.6273
  37   2.0000      -0.663218       -18.0471
  38   2.0000      -0.634283       -17.2597
  39   2.0000      -0.617544       -16.8042
  40   2.0000      -0.590142       -16.0586
  41   2.0000      -0.575902       -15.6711
  42   2.0000      -0.571050       -15.5391
  43   2.0000      -0.551025       -14.9941
  44   2.0000      -0.536898       -14.6097
  45   2.0000      -0.527586       -14.3564
  46   2.0000      -0.516811       -14.0631
  47   2.0000      -0.506323       -13.7777
  48   2.0000      -0.503584       -13.7032
  49   2.0000      -0.496771       -13.5178
  50   2.0000      -0.492874       -13.4118
  51   2.0000      -0.486311       -13.2332
  52   2.0000      -0.470878       -12.8132
  53   2.0000      -0.463352       -12.6085
  54   2.0000      -0.458046       -12.4641
  55   2.0000      -0.448691       -12.2095
  56   2.0000      -0.443448       -12.0668
  57   2.0000      -0.437830       -11.9140
  58   2.0000      -0.434127       -11.8132
  59   2.0000      -0.428054       -11.6479
  60   2.0000      -0.422639       -11.5006
  61   2.0000      -0.413433       -11.2501
  62   2.0000      -0.409510       -11.1433
  63   2.0000      -0.355129        -9.6635
  64   2.0000      -0.333480        -9.0745
  65   2.0000      -0.325158        -8.8480
  66   2.0000      -0.274448        -7.4681
  67   0.0000       0.021580         0.5872
  68   0.0000       0.075531         2.0553
  69   0.0000       0.104876         2.8538
  70   0.0000       0.122822         3.3422
  71   0.0000       0.134560         3.6616

MULLIKEN ATOMIC CHARGES
-----------------------
   0 S :    0.102615
   1 C :   -0.148119
   2 C :   -0.103428
   3 C :    0.005447
   4 C :   -0.135404
   5 H :    0.020310
   6 C :    0.101157
   7 H :   -0.010206
   8 H :    0.007886
   9 C :   -0.027545
  10 H :    0.038660
  11 H :    0.024654
  12 C :   -0.054232
  13 H :    0.026026
  14 H :    0.043052
  15 H :    0.020551
  16 S :    0.115182
  17 C :   -0.081389
  18 C :   -0.076012
  19 C :   -0.071619
  20 C :   -0.155666
  21 H :    0.037060
  22 C :    0.100340
  23 H :    0.039946
  24 H :    0.029222
  25 C :   -0.131371
  26 H :    0.023359
  27 H :    0.059968
  28 C :    0.024861
  29 H :    0.023510
  30 H :    0.014064
  31 H :    0.013486
  32 H :    0.071899
  33 H :    0.051733
Sum of atomic charges:    0.0000000

LOEWDIN ATOMIC CHARGES
----------------------
   0 S :    0.393451
   1 C :   -0.220936
   2 C :   -0.062655
   3 C :   -0.069438
   4 C :   -0.177386
   5 H :    0.034958
   6 C :   -0.028745
   7 H :    0.014052
   8 H :    0.030671
   9 C :   -0.017900
  10 H :    0.032615
  11 H :    0.018425
  12 C :   -0.072975
  13 H :    0.027969
  14 H :    0.027372
  15 H :    0.021696
  16 S :    0.433163
  17 C :   -0.204524
  18 C :   -0.082760
  19 C :   -0.056306
  20 C :   -0.212148
  21 H :    0.040276
  22 C :   -0.030601
  23 H :    0.035411
  24 H :    0.039391
  25 C :   -0.049348
  26 H :    0.023489
  27 H :    0.036205
  28 C :   -0.055467
  29 H :    0.017544
  30 H :    0.022163
  31 H :    0.021652
  32 H :    0.037517
  33 H :    0.033170

  Mayer bond orders larger than 0.100000
B(  0-S ,  1-C ) :   1.1458 B(  0-S ,  4-C ) :   1.1484 B(  1-C ,  2-C ) :   1.5861
B(  1-C , 32-H ) :   0.9611 B(  2-C ,  3-C ) :   1.2647 B(  2-C ,  6-C ) :   1.0277
B(  3-C ,  4-C ) :   1.5315 B(  3-C ,  5-H ) :   0.9874 B(  4-C , 20-C ) :   1.0898
B(  6-C ,  7-H ) :   0.9370 B(  6-C ,  8-H ) :   0.9361 B(  6-C ,  9-C ) :   1.0493
B(  9-C , 10-H ) :   0.9558 B(  9-C , 11-H ) :   0.9589 B(  9-C , 12-C ) :   1.0891
B( 12-C , 13-H ) :   0.9718 B( 12-C , 14-H ) :   0.9756 B( 12-C , 15-H ) :   0.9721
B( 16-S , 17-C ) :   1.1507 B( 16-S , 20-C ) :   1.1625 B( 17-C , 18-C ) :   1.6076
B( 17-C , 33-H ) :   0.9630 B( 18-C , 19-C ) :   1.2916 B( 18-C , 21-H ) :   0.9697
B( 19-C , 20-C ) :   1.5189 B( 19-C , 22-C ) :   1.0214 B( 22-C , 23-H ) :   0.9283
B( 22-C , 24-H ) :   0.9256 B( 22-C , 25-C ) :   1.0709 B( 25-C , 26-H ) :   0.9472
B( 25-C , 27-H ) :   0.9565 B( 25-C , 28-C ) :   1.0943 B( 28-C , 29-H ) :   0.9701
B( 28-C , 30-H ) :   0.9721 B( 28-C , 31-H ) :   0.9656

Dispersion correction           -0.014358826
FINAL SINGLE POINT ENERGY     -1339.863781431110

DIPOLE MOMENT
-------------
                                X             Y             Z
Electronic contribution:      1.04299     -20.99015      20.17722
Nuclear contribution   :     -0.91899      21.45080     -20.54258
                        -----------------------------------------
Total Dipole Moment    :      0.12400       0.46065      -0.36536
                        -----------------------------------------
Magnitude (a.u.)       :      0.60088
Magnitude (Debye)      :      1.52732

Rotational constants in cm-1:     0.019030     0.008589     0.006743
Rotational constants in MHz :   570.510388   257.482744   202.156005

                             ****ORCA TERMINATED NORMALLY****
TOTAL RUN TIME: 0 days 0 hours 0 minutes 21 seconds 846 msec
