                         Program Version 4.2.1 -  RELEASE  -
|  1> ! wB97X-D3 SP def2-SVP
|  2> %pal
|  3> nprocs 24
|  4> end
|  5>
|  6> * xyz 0 1
|  7> S 	 -49.6673 	 22.3294 	 24.4674
|  8> C 	 -51.1378 	 21.9729 	 23.6073
|  9> C 	 -51.4343 	 20.6174 	 23.6186
| 10> C 	 -50.4253 	 19.9316 	 24.3059
| 11> C 	 -49.291 	 20.6979 	 24.6613
| 12> H 	 -50.5919 	 18.8873 	 24.5289
| 13> C 	 -52.786 	 20.0047 	 23.2226
| 14> H 	 -53.5595 	 20.7771 	 23.1393
| 15> H 	 -52.9457 	 19.3793 	 24.0723
| 16> C 	 -52.741 	 19.1703 	 21.9376
| 17> H 	 -51.8596 	 18.5195 	 21.9914
| 18> H 	 -53.5894 	 18.4442 	 21.8326
| 19> C 	 -52.4562 	 20.022 	 20.6701
| 20> H 	 -52.1384 	 19.4376 	 19.7671
| 21> H 	 -53.1854 	 20.5983 	 20.1858
| 22> H 	 -51.6022 	 20.7174 	 20.907
| 23> S 	 -46.593 	 21.0462 	 25.1821
| 24> C 	 -45.8542 	 19.9936 	 26.3922
| 25> C 	 -46.6714 	 19.0131 	 26.8938
| 26> C 	 -48.017 	 19.1563 	 26.448
| 27> C 	 -48.1783 	 20.2575 	 25.5331
| 28> H 	 -46.2242 	 18.2741 	 27.5842
| 29> C 	 -49.0051 	 18.1239 	 26.901
| 30> H 	 -48.4344 	 17.4081 	 27.3279
| 31> H 	 -49.3136 	 17.5887 	 26.0254
| 32> C 	 -50.2691 	 18.5749 	 27.6553
| 33> H 	 -50.9366 	 19.2944 	 27.2259
| 34> H 	 -49.7787 	 19.2029 	 28.4589
| 35> C 	 -50.9693 	 17.5053 	 28.3996
| 36> H 	 -51.9325 	 17.8698 	 28.849
| 37> H 	 -50.417 	 16.9952 	 29.1374
| 38> H 	 -51.2991 	 16.6641 	 27.7854
| 39> H 	 -51.8415 	 22.641 	 23.3892
| 40> H 	 -44.8122 	 20.0748 	 26.6247
| 41> *
| 42>
| 43>                          ****END OF INPUT****

CARTESIAN COORDINATES (ANGSTROEM)
---------------------------------
  S    -49.667300   22.329400   24.467400
  C    -51.137800   21.972900   23.607300
  C    -51.434300   20.617400   23.618600
  C    -50.425300   19.931600   24.305900
  C    -49.291000   20.697900   24.661300
  H    -50.591900   18.887300   24.528900
  C    -52.786000   20.004700   23.222600
  H    -53.559500   20.777100   23.139300
  H    -52.945700   19.379300   24.072300
  C    -52.741000   19.170300   21.937600
  H    -51.859600   18.519500   21.991400
  H    -53.589400   18.444200   21.832600
  C    -52.456200   20.022000   20.670100
  H    -52.138400   19.437600   19.767100
  H    -53.185400   20.598300   20.185800
  H    -51.602200   20.717400   20.907000
  S    -46.593000   21.046200   25.182100
  C    -45.854200   19.993600   26.392200
  C    -46.671400   19.013100   26.893800
  C    -48.017000   19.156300   26.448000
  C    -48.178300   20.257500   25.533100
  H    -46.224200   18.274100   27.584200
  C    -49.005100   18.123900   26.901000
  H    -48.434400   17.408100   27.327900
  H    -49.313600   17.588700   26.025400
  C    -50.269100   18.574900   27.655300
  H    -50.936600   19.294400   27.225900
  H    -49.778700   19.202900   28.458900
  C    -50.969300   17.505300   28.399600
  H    -51.932500   17.869800   28.849000
  H    -50.417000   16.995200   29.137400
  H    -51.299100   16.664100   27.785400
  H    -51.841500   22.641000   23.389200
  H    -44.812200   20.074800   26.624700

 Total Charge           Charge          ....    0
 Multiplicity           Mult            ....    1
 Number of Electrons    NEL             ....  134
 Basis Dimension        Dim             ....  322

ORBITAL ENERGIES
----------------

  NO   OCC          E(Eh)            E(eV)
   0   2.0000     -88.969236     -2420.9760
   1   2.0000     -88.967703     -2420.9343
   2   2.0000     -10.337467      -281.2968
   3   2.0000     -10.330254      -281.1005
   4   2.0000     -10.316000      -280.7126
   5   2.0000     -10.310753      -280.5699
   6   2.0000     -10.303097      -280.3615
   7   2.0000     -10.299128      -280.2535
   8   2.0000     -10.297150      -280.1997
   9   2.0000     -10.296769      -280.1893
  10   2.0000     -10.294748      -280.1343
  11   2.0000     -10.292657      -280.0774
  12   2.0000     -10.286440      -279.9083
  13   2.0000     -10.284364      -279.8518
  14   2.0000     -10.276785      -279.6455
  15   2.0000     -10.275487      -279.6102
  16   2.0000      -8.085041      -220.0052
  17   2.0000      -8.081406      -219.9062
  18   2.0000      -6.043308      -164.4468
  19   2.0000      -6.039832      -164.3522
  20   2.0000      -6.039406      -164.3406
  21   2.0000      -6.036203      -164.2534
  22   2.0000      -6.035977      -164.2473
  23   2.0000      -6.032190      -164.1442
  24   2.0000      -1.009840       -27.4791
  25   2.0000      -0.981505       -26.7081
  26   2.0000      -0.916490       -24.9390
  27   2.0000      -0.912775       -24.8379
  28   2.0000      -0.866357       -23.5748
  29   2.0000      -0.856875       -23.3167
  30   2.0000      -0.846333       -23.0299
  31   2.0000      -0.812559       -22.1109
  32   2.0000      -0.787984       -21.4421
  33   2.0000      -0.776816       -21.1382
  34   2.0000      -0.715547       -19.4710
  35   2.0000      -0.703896       -19.1540
  36   2.0000      -0.695580       -18.9277
  37   2.0000      -0.660364       -17.9694
  38   2.0000      -0.638526       -17.3752
  39   2.0000      -0.627701       -17.0806
  40   2.0000      -0.596879       -16.2419
  41   2.0000      -0.570149       -15.5145
  42   2.0000      -0.565726       -15.3942
  43   2.0000      -0.555458       -15.1148
  44   2.0000      -0.539032       -14.6678
  45   2.0000      -0.534610       -14.5475
  46   2.0000      -0.514289       -13.9945
  47   2.0000      -0.510217       -13.8837
  48   2.0000      -0.500366       -13.6156
  49   2.0000      -0.496440       -13.5088
  50   2.0000      -0.491182       -13.3657
  51   2.0000      -0.477095       -12.9824
  52   2.0000      -0.475174       -12.9301
  53   2.0000      -0.465230       -12.6595
  54   2.0000      -0.456132       -12.4120
  55   2.0000      -0.455006       -12.3814
  56   2.0000      -0.447285       -12.1712
  57   2.0000      -0.443966       -12.0809
  58   2.0000      -0.437829       -11.9139
  59   2.0000      -0.429746       -11.6940
  60   2.0000      -0.421822       -11.4784
  61   2.0000      -0.414471       -11.2783
  62   2.0000      -0.398196       -10.8355
  63   2.0000      -0.351758        -9.5718
  64   2.0000      -0.334845        -9.1116
  65   2.0000      -0.330711        -8.9991
  66   2.0000      -0.282097        -7.6762
  67   0.0000       0.019529         0.5314
  68   0.0000       0.072059         1.9608
  69   0.0000       0.099831         2.7165
  70   0.0000       0.108485         2.9520
  71   0.0000       0.142572         3.8796

MULLIKEN ATOMIC CHARGES
-----------------------
   0 S :    0.121647
   1 C :   -0.062147
   2 C :   -0.131163
   3 C :   -0.014805
   4 C :   -0.083932
   5 H :   -0.001545
   6 C :    0.102015
   7 H :    0.029254
   8 H :    0.024744
   9 C :   -0.061427
  10 H :    0.027677
  11 H :    0.040582
  12 C :   -0.080839
  13 H :    0.030789
  14 H :    0.017224
  15 H :    0.044587
  16 S :    0.091118
  17 C :   -0.084178
  18 C :   -0.048824
  19 C :   -0.070392
  20 C :   -0.140340
  21 H :    0.036558
  22 C :    0.149416
  23 H :   -0.031789
  24 H :    0.015410
  25 C :   -0.062113
  26 H :    0.039506
  27 H :    0.029595
  28 C :   -0.035928
  29 H :    0.037049
  30 H :    0.018656
  31 H :    0.012041
  32 H :   -0.006970
  33 H :    0.048525
Sum of atomic charges:   -0.0000000

LOEWDIN ATOMIC CHARGES
----------------------
   0 S :    0.451412
   1 C :   -0.186737
   2 C :   -0.059043
   3 C :   -0.067365
   4 C :   -0.222693
   5 H :    0.024665
   6 C :   -0.021354
   7 H :    0.030811
   8 H :    0.031508
   9 C :   -0.044160
  10 H :    0.027972
  11 H :    0.028161
  12 C :   -0.079830
  13 H :    0.032082
  14 H :    0.012846
  15 H :    0.034917
  16 S :    0.378405
  17 C :   -0.172194
  18 C :   -0.077335
  19 C :   -0.045407
  20 C :   -0.181946
  21 H :    0.042144
  22 C :   -0.026013
  23 H :    0.017731
  24 H :    0.028478
  25 C :   -0.045098
  26 H :    0.026874
  27 H :    0.035324
  28 C :   -0.068375
  29 H :    0.035036
  30 H :    0.018455
  31 H :    0.020453
  32 H :   -0.001733
  33 H :    0.022009

  Mayer bond orders larger than 0.100000
B(  0-S ,  1-C ) :   1.1682 B(  0-S ,  4-C ) :   1.1899 B(  1-C ,  2-C ) :   1.5461
B(  1-C ,  4-C ) :   0.1030 B(  1-C , 32-H ) :   0.9800 B(  2-C ,  3-C ) :   1.3341
B(  2-C ,  6-C ) :   1.0028 B(  3-C ,  4-C ) :   1.4886 B(  3-C ,  5-H ) :   0.9920
B(  4-C , 20-C ) :   1.0384 B(  6-C ,  7-H ) :   0.9486 B(  6-C ,  8-H ) :   0.9381
B(  6-C ,  9-C ) :   1.0672 B(  9-C , 10-H ) :   0.9562 B(  9-C , 11-H ) :   0.9590
B(  9-C , 12-C ) :   1.0589 B( 12-C , 13-H ) :   0.9748 B( 12-C , 14-H ) :   0.9792
B( 12-C , 15-H ) :   0.9727 B( 16-S , 17-C ) :   1.1537 B( 16-S , 20-C ) :   1.1346
B( 17-C , 18-C ) :   1.6239 B( 17-C , 20-C ) :   0.1029 B( 17-C , 33-H ) :   0.9651
B( 18-C , 19-C ) :   1.2460 B( 18-C , 21-H ) :   0.9825 B( 19-C , 20-C ) :   1.5685
B( 19-C , 22-C ) :   1.0474 B( 22-C , 23-H ) :   0.9181 B( 22-C , 24-H ) :   0.9080
B( 22-C , 25-C ) :   1.0380 B( 25-C , 26-H ) :   0.9583 B( 25-C , 27-H ) :   0.9521
B( 25-C , 28-C ) :   1.0929 B( 28-C , 29-H ) :   0.9714 B( 28-C , 30-H ) :   0.9736
B( 28-C , 31-H ) :   0.9693

Dispersion correction           -0.014396709
FINAL SINGLE POINT ENERGY     -1339.843736531366

DIPOLE MOMENT
-------------
                                X             Y             Z
Electronic contribution:     20.96906      17.77074       0.72362
Nuclear contribution   :    -21.37059     -18.36244      -0.44988
                        -----------------------------------------
Total Dipole Moment    :     -0.40153      -0.59170       0.27374
                        -----------------------------------------
Magnitude (a.u.)       :      0.76568
Magnitude (Debye)      :      1.94621

Rotational constants in cm-1:     0.017710     0.008978     0.006843
Rotational constants in MHz :   530.920035   269.158116   205.135243

                             ****ORCA TERMINATED NORMALLY****
TOTAL RUN TIME: 0 days 0 hours 0 minutes 21 seconds 819 msec
