                         Program Version 4.2.1 -  RELEASE  -
|  1> ! wB97X-D3 SP def2-SVP
|  2> %pal
|  3> nprocs 24
|  4> end
|  5>
|  6> * xyz 0 1
|  7> S 	 -103.928 	 0.107561 	 -119.436
|  8> C 	 -105.372 	 -0.344841 	 -120.334
|  9> C 	 -105.204 	 -1.45869 	 -121.166
| 10> C 	 -103.859 	 -1.931 	 -121.016
| 11> C 	 -102.998 	 -1.09304 	 -120.245
| 12> H 	 -103.553 	 -2.82149 	 -121.55
| 13> C 	 -106.234 	 -2.09725 	 -122.023
| 14> H 	 -106.028 	 -1.82133 	 -123.03
| 15> H 	 -107.261 	 -1.59098 	 -121.91
| 16> C 	 -106.448 	 -3.64354 	 -121.778
| 17> H 	 -105.552 	 -4.22188 	 -121.992
| 18> H 	 -106.623 	 -3.82744 	 -120.669
| 19> C 	 -107.787 	 -4.19855 	 -122.407
| 20> H 	 -108.649 	 -3.62067 	 -122.092
| 21> H 	 -107.731 	 -4.18503 	 -123.484
| 22> H 	 -107.943 	 -5.24641 	 -122.087
| 23> S 	 -100.403 	 0.0853533 	 -120.217
| 24> C 	 -99.0791 	 -0.744344 	 -119.423
| 25> C 	 -99.5176 	 -1.97831 	 -119.039
| 26> C 	 -100.908 	 -2.23128 	 -119.269
| 27> C 	 -101.536 	 -1.23784 	 -120.02
| 28> H 	 -98.8778 	 -2.59118 	 -118.393
| 29> C 	 -101.591 	 -3.42274 	 -118.714
| 30> H 	 -102.68 	 -3.30389 	 -118.615
| 31> H 	 -101.227 	 -3.51955 	 -117.689
| 32> C 	 -101.238 	 -4.78268 	 -119.428
| 33> H 	 -100.173 	 -4.89459 	 -119.533
| 34> H 	 -101.627 	 -4.79651 	 -120.442
| 35> C 	 -101.657 	 -6.0072 	 -118.71
| 36> H 	 -101.352 	 -6.21239 	 -117.741
| 37> H 	 -101.438 	 -6.93017 	 -119.254
| 38> H 	 -102.738 	 -6.05231 	 -118.805
| 39> H 	 -106.298 	 0.12166 	 -120.226
| 40> H 	 -98.1142 	 -0.323413 	 -119.148
| 41> *
| 42>
| 43>                          ****END OF INPUT****

CARTESIAN COORDINATES (ANGSTROEM)
---------------------------------
  S    -103.928000    0.107561  -119.436000
  C    -105.372000   -0.344841  -120.334000
  C    -105.204000   -1.458690  -121.166000
  C    -103.859000   -1.931000  -121.016000
  C    -102.998000   -1.093040  -120.245000
  H    -103.553000   -2.821490  -121.550000
  C    -106.234000   -2.097250  -122.023000
  H    -106.028000   -1.821330  -123.030000
  H    -107.261000   -1.590980  -121.910000
  C    -106.448000   -3.643540  -121.778000
  H    -105.552000   -4.221880  -121.992000
  H    -106.623000   -3.827440  -120.669000
  C    -107.787000   -4.198550  -122.407000
  H    -108.649000   -3.620670  -122.092000
  H    -107.731000   -4.185030  -123.484000
  H    -107.943000   -5.246410  -122.087000
  S    -100.403000    0.085353  -120.217000
  C    -99.079100   -0.744344  -119.423000
  C    -99.517600   -1.978310  -119.039000
  C    -100.908000   -2.231280  -119.269000
  C    -101.536000   -1.237840  -120.020000
  H    -98.877800   -2.591180  -118.393000
  C    -101.591000   -3.422740  -118.714000
  H    -102.680000   -3.303890  -118.615000
  H    -101.227000   -3.519550  -117.689000
  C    -101.238000   -4.782680  -119.428000
  H    -100.173000   -4.894590  -119.533000
  H    -101.627000   -4.796510  -120.442000
  C    -101.657000   -6.007200  -118.710000
  H    -101.352000   -6.212390  -117.741000
  H    -101.438000   -6.930170  -119.254000
  H    -102.738000   -6.052310  -118.805000
  H    -106.298000    0.121660  -120.226000
  H    -98.114200   -0.323413  -119.148000

 Total Charge           Charge          ....    0
 Multiplicity           Mult            ....    1
 Number of Electrons    NEL             ....  134
 Basis Dimension        Dim             ....  322

ORBITAL ENERGIES
----------------

  NO   OCC          E(Eh)            E(eV)
   0   2.0000     -88.969788     -2420.9910
   1   2.0000     -88.963147     -2420.8103
   2   2.0000     -10.334392      -281.2131
   3   2.0000     -10.327222      -281.0180
   4   2.0000     -10.319334      -280.8033
   5   2.0000     -10.310309      -280.5578
   6   2.0000     -10.302103      -280.3345
   7   2.0000     -10.301557      -280.3196
   8   2.0000     -10.300969      -280.3036
   9   2.0000     -10.300911      -280.3020
  10   2.0000     -10.297965      -280.2219
  11   2.0000     -10.292797      -280.0812
  12   2.0000     -10.288550      -279.9657
  13   2.0000     -10.285619      -279.8859
  14   2.0000     -10.282169      -279.7920
  15   2.0000     -10.267209      -279.3849
  16   2.0000      -8.084416      -219.9881
  17   2.0000      -8.077763      -219.8071
  18   2.0000      -6.042837      -164.4339
  19   2.0000      -6.038850      -164.3255
  20   2.0000      -6.036355      -164.2576
  21   2.0000      -6.035368      -164.2307
  22   2.0000      -6.032168      -164.1436
  23   2.0000      -6.028533      -164.0447
  24   2.0000      -1.004067       -27.3221
  25   2.0000      -0.983656       -26.7667
  26   2.0000      -0.909268       -24.7425
  27   2.0000      -0.907944       -24.7064
  28   2.0000      -0.865879       -23.5618
  29   2.0000      -0.854943       -23.2642
  30   2.0000      -0.845288       -23.0014
  31   2.0000      -0.812750       -22.1160
  32   2.0000      -0.783018       -21.3070
  33   2.0000      -0.770878       -20.9767
  34   2.0000      -0.710814       -19.3422
  35   2.0000      -0.701854       -19.0984
  36   2.0000      -0.695213       -18.9177
  37   2.0000      -0.655662       -17.8415
  38   2.0000      -0.639047       -17.3894
  39   2.0000      -0.622297       -16.9336
  40   2.0000      -0.597165       -16.2497
  41   2.0000      -0.569925       -15.5084
  42   2.0000      -0.565885       -15.3985
  43   2.0000      -0.558129       -15.1875
  44   2.0000      -0.527155       -14.3446
  45   2.0000      -0.523344       -14.2409
  46   2.0000      -0.518281       -14.1032
  47   2.0000      -0.514199       -13.9921
  48   2.0000      -0.503584       -13.7032
  49   2.0000      -0.498371       -13.5614
  50   2.0000      -0.496975       -13.5234
  51   2.0000      -0.476142       -12.9565
  52   2.0000      -0.470505       -12.8031
  53   2.0000      -0.465788       -12.6747
  54   2.0000      -0.461953       -12.5704
  55   2.0000      -0.454492       -12.3673
  56   2.0000      -0.447333       -12.1725
  57   2.0000      -0.435384       -11.8474
  58   2.0000      -0.432896       -11.7797
  59   2.0000      -0.428545       -11.6613
  60   2.0000      -0.416675       -11.3383
  61   2.0000      -0.413559       -11.2535
  62   2.0000      -0.411140       -11.1877
  63   2.0000      -0.337974        -9.1968
  64   2.0000      -0.332208        -9.0398
  65   2.0000      -0.324853        -8.8397
  66   2.0000      -0.296141        -8.0584
  67   0.0000       0.032332         0.8798
  68   0.0000       0.067399         1.8340
  69   0.0000       0.117442         3.1958
  70   0.0000       0.121908         3.3173
  71   0.0000       0.130053         3.5389

MULLIKEN ATOMIC CHARGES
-----------------------
   0 S :    0.135612
   1 C :   -0.106181
   2 C :   -0.074536
   3 C :    0.020636
   4 C :   -0.169274
   5 H :    0.006733
   6 C :    0.064873
   7 H :    0.036803
   8 H :    0.020338
   9 C :   -0.119763
  10 H :    0.040151
  11 H :    0.044191
  12 C :   -0.050337
  13 H :    0.036045
  14 H :    0.032679
  15 H :    0.041128
  16 S :    0.093938
  17 C :   -0.095361
  18 C :   -0.018246
  19 C :   -0.046139
  20 C :   -0.139180
  21 H :    0.022836
  22 C :    0.067518
  23 H :    0.037078
  24 H :    0.016208
  25 C :   -0.059730
  26 H :    0.017788
  27 H :    0.022902
  28 C :   -0.016608
  29 H :    0.022107
  30 H :    0.018360
  31 H :    0.013004
  32 H :    0.018879
  33 H :    0.065546
Sum of atomic charges:   -0.0000000

LOEWDIN ATOMIC CHARGES
----------------------
   0 S :    0.427984
   1 C :   -0.189385
   2 C :   -0.061129
   3 C :   -0.059271
   4 C :   -0.205045
   5 H :    0.025654
   6 C :   -0.038033
   7 H :    0.030568
   8 H :    0.038225
   9 C :   -0.042160
  10 H :    0.020602
  11 H :    0.034026
  12 C :   -0.064065
  13 H :    0.025172
  14 H :    0.020736
  15 H :    0.031226
  16 S :    0.400701
  17 C :   -0.181344
  18 C :   -0.076463
  19 C :   -0.053070
  20 C :   -0.210827
  21 H :    0.032541
  22 C :   -0.032324
  23 H :    0.032910
  24 H :    0.031869
  25 C :   -0.036195
  26 H :    0.019829
  27 H :    0.024450
  28 C :   -0.066632
  29 H :    0.014752
  30 H :    0.030589
  31 H :    0.025050
  32 H :    0.011961
  33 H :    0.037099

  Mayer bond orders larger than 0.100000
B(  0-S ,  1-C ) :   1.1512 B(  0-S ,  4-C ) :   1.1773 B(  1-C ,  2-C ) :   1.5839
B(  1-C ,  4-C ) :   0.1011 B(  1-C , 32-H ) :   0.9713 B(  2-C ,  3-C ) :   1.2755
B(  2-C ,  6-C ) :   1.0331 B(  3-C ,  4-C ) :   1.5305 B(  3-C ,  5-H ) :   0.9946
B(  4-C , 20-C ) :   1.0341 B(  6-C ,  7-H ) :   0.9305 B(  6-C ,  8-H ) :   0.9422
B(  6-C ,  9-C ) :   1.0384 B(  9-C , 10-H ) :   0.9578 B(  9-C , 11-H ) :   0.9628
B(  9-C , 12-C ) :   1.0764 B( 12-C , 13-H ) :   0.9758 B( 12-C , 14-H ) :   0.9785
B( 12-C , 15-H ) :   0.9766 B( 16-S , 17-C ) :   1.1598 B( 16-S , 20-C ) :   1.1306
B( 17-C , 18-C ) :   1.6043 B( 17-C , 33-H ) :   0.9668 B( 18-C , 19-C ) :   1.2565
B( 18-C , 21-H ) :   0.9831 B( 19-C , 20-C ) :   1.5709 B( 19-C , 22-C ) :   1.0665
B( 22-C , 23-H ) :   0.9295 B( 22-C , 24-H ) :   0.9275 B( 22-C , 25-C ) :   1.0542
B( 25-C , 26-H ) :   0.9575 B( 25-C , 27-H ) :   0.9509 B( 25-C , 28-C ) :   1.0984
B( 28-C , 29-H ) :   0.9752 B( 28-C , 30-H ) :   0.9654 B( 28-C , 31-H ) :   0.9686

Dispersion correction           -0.013893682
FINAL SINGLE POINT ENERGY     -1339.876589214699

DIPOLE MOMENT
-------------
                                X             Y             Z
Electronic contribution:     14.30124      28.68679       3.77487
Nuclear contribution   :    -14.55964     -29.33836      -3.67147
                        -----------------------------------------
Total Dipole Moment    :     -0.25840      -0.65157       0.10340
                        -----------------------------------------
Magnitude (a.u.)       :      0.70852
Magnitude (Debye)      :      1.80092

Rotational constants in cm-1:     0.017542     0.008623     0.006301
Rotational constants in MHz :   525.886694   258.518893   188.905980

                             ****ORCA TERMINATED NORMALLY****
TOTAL RUN TIME: 0 days 0 hours 0 minutes 21 seconds 224 msec
