                         Program Version 4.2.1 -  RELEASE  -
|  1> ! wB97X-D3 SP def2-SVP
|  2> %pal
|  3> nprocs 24
|  4> end
|  5>
|  6> * xyz 0 1
|  7> S 	 -67.0975 	 11.4622 	 -74.5091
|  8> C 	 -68.8756 	 11.3244 	 -74.4977
|  9> C 	 -69.3827 	 11.3248 	 -73.2178
| 10> C 	 -68.3858 	 11.5821 	 -72.2665
| 11> C 	 -67.1076 	 11.5045 	 -72.7511
| 12> H 	 -68.4634 	 11.6916 	 -71.1656
| 13> C 	 -70.8172 	 11.1895 	 -72.7727
| 14> H 	 -71.4524 	 11.0134 	 -73.6367
| 15> H 	 -71.0048 	 12.1948 	 -72.5201
| 16> C 	 -71.1352 	 10.2077 	 -71.5969
| 17> H 	 -70.4989 	 10.5264 	 -70.8025
| 18> H 	 -72.2089 	 10.2423 	 -71.2855
| 19> C 	 -70.5479 	 8.88382 	 -71.9653
| 20> H 	 -70.8167 	 8.21881 	 -71.1459
| 21> H 	 -71.0721 	 8.5867 	 -72.9595
| 22> H 	 -69.4706 	 8.93998 	 -72.1259
| 23> S 	 -64.7488 	 12.639 	 -72.862
| 24> C 	 -63.6124 	 12.4939 	 -71.4679
| 25> C 	 -64.1708 	 11.8265 	 -70.4359
| 26> C 	 -65.5002 	 11.4009 	 -70.6838
| 27> C 	 -65.9262 	 11.6916 	 -72.006
| 28> H 	 -63.6776 	 11.6808 	 -69.4632
| 29> C 	 -66.2041 	 10.4885 	 -69.7064
| 30> H 	 -67.2566 	 10.8696 	 -69.5545
| 31> H 	 -65.6727 	 10.5423 	 -68.7319
| 32> C 	 -66.2828 	 8.92966 	 -70.0409
| 33> H 	 -65.2813 	 8.42182 	 -70.21
| 34> H 	 -66.8989 	 8.89633 	 -71.013
| 35> C 	 -67.1158 	 8.11712 	 -69.0761
| 36> H 	 -66.5313 	 7.94008 	 -68.1494
| 37> H 	 -67.323 	 7.09514 	 -69.3929
| 38> H 	 -68.1435 	 8.53172 	 -68.8965
| 39> H 	 -69.4636 	 11.2444 	 -75.3715
| 40> H 	 -62.6446 	 12.9287 	 -71.3876
| 41> *
| 42>
| 43>                          ****END OF INPUT****

CARTESIAN COORDINATES (ANGSTROEM)
---------------------------------
  S    -67.097500   11.462200  -74.509100
  C    -68.875600   11.324400  -74.497700
  C    -69.382700   11.324800  -73.217800
  C    -68.385800   11.582100  -72.266500
  C    -67.107600   11.504500  -72.751100
  H    -68.463400   11.691600  -71.165600
  C    -70.817200   11.189500  -72.772700
  H    -71.452400   11.013400  -73.636700
  H    -71.004800   12.194800  -72.520100
  C    -71.135200   10.207700  -71.596900
  H    -70.498900   10.526400  -70.802500
  H    -72.208900   10.242300  -71.285500
  C    -70.547900    8.883820  -71.965300
  H    -70.816700    8.218810  -71.145900
  H    -71.072100    8.586700  -72.959500
  H    -69.470600    8.939980  -72.125900
  S    -64.748800   12.639000  -72.862000
  C    -63.612400   12.493900  -71.467900
  C    -64.170800   11.826500  -70.435900
  C    -65.500200   11.400900  -70.683800
  C    -65.926200   11.691600  -72.006000
  H    -63.677600   11.680800  -69.463200
  C    -66.204100   10.488500  -69.706400
  H    -67.256600   10.869600  -69.554500
  H    -65.672700   10.542300  -68.731900
  C    -66.282800    8.929660  -70.040900
  H    -65.281300    8.421820  -70.210000
  H    -66.898900    8.896330  -71.013000
  C    -67.115800    8.117120  -69.076100
  H    -66.531300    7.940080  -68.149400
  H    -67.323000    7.095140  -69.392900
  H    -68.143500    8.531720  -68.896500
  H    -69.463600   11.244400  -75.371500
  H    -62.644600   12.928700  -71.387600

 Total Charge           Charge          ....    0
 Multiplicity           Mult            ....    1
 Number of Electrons    NEL             ....  134
 Basis Dimension        Dim             ....  322

ORBITAL ENERGIES
----------------

  NO   OCC          E(Eh)            E(eV)
   0   2.0000     -88.967906     -2420.9398
   1   2.0000     -88.967163     -2420.9196
   2   2.0000     -10.327485      -281.0252
   3   2.0000     -10.326344      -280.9941
   4   2.0000     -10.315091      -280.6879
   5   2.0000     -10.312866      -280.6274
   6   2.0000     -10.305780      -280.4345
   7   2.0000     -10.303703      -280.3780
   8   2.0000     -10.301758      -280.3251
   9   2.0000     -10.299296      -280.2581
  10   2.0000     -10.293878      -280.1107
  11   2.0000     -10.291269      -280.0397
  12   2.0000     -10.289130      -279.9815
  13   2.0000     -10.287614      -279.9402
  14   2.0000     -10.282885      -279.8115
  15   2.0000     -10.280245      -279.7397
  16   2.0000      -8.082030      -219.9232
  17   2.0000      -8.081446      -219.9073
  18   2.0000      -6.040647      -164.3744
  19   2.0000      -6.040094      -164.3593
  20   2.0000      -6.036812      -164.2700
  21   2.0000      -6.035977      -164.2473
  22   2.0000      -6.032527      -164.1534
  23   2.0000      -6.032107      -164.1420
  24   2.0000      -1.012363       -27.5478
  25   2.0000      -0.983667       -26.7669
  26   2.0000      -0.919917       -25.0322
  27   2.0000      -0.900350       -24.4998
  28   2.0000      -0.879872       -23.9425
  29   2.0000      -0.853625       -23.2283
  30   2.0000      -0.846977       -23.0474
  31   2.0000      -0.818395       -22.2697
  32   2.0000      -0.781458       -21.2646
  33   2.0000      -0.767848       -20.8942
  34   2.0000      -0.712767       -19.3954
  35   2.0000      -0.696593       -18.9553
  36   2.0000      -0.685760       -18.6605
  37   2.0000      -0.666161       -18.1272
  38   2.0000      -0.640840       -17.4382
  39   2.0000      -0.624043       -16.9811
  40   2.0000      -0.592548       -16.1240
  41   2.0000      -0.565827       -15.3969
  42   2.0000      -0.563426       -15.3316
  43   2.0000      -0.559372       -15.2213
  44   2.0000      -0.542994       -14.7756
  45   2.0000      -0.522381       -14.2147
  46   2.0000      -0.515951       -14.0397
  47   2.0000      -0.514202       -13.9921
  48   2.0000      -0.502847       -13.6832
  49   2.0000      -0.499393       -13.5892
  50   2.0000      -0.490982       -13.3603
  51   2.0000      -0.489319       -13.3151
  52   2.0000      -0.470140       -12.7932
  53   2.0000      -0.467510       -12.7216
  54   2.0000      -0.456929       -12.4337
  55   2.0000      -0.450221       -12.2511
  56   2.0000      -0.446255       -12.1432
  57   2.0000      -0.434919       -11.8348
  58   2.0000      -0.430652       -11.7186
  59   2.0000      -0.428145       -11.6504
  60   2.0000      -0.421535       -11.4706
  61   2.0000      -0.415210       -11.2984
  62   2.0000      -0.402082       -10.9412
  63   2.0000      -0.358210        -9.7474
  64   2.0000      -0.335827        -9.1383
  65   2.0000      -0.329258        -8.9596
  66   2.0000      -0.281569        -7.6619
  67   0.0000       0.015855         0.4314
  68   0.0000       0.077912         2.1201
  69   0.0000       0.094672         2.5762
  70   0.0000       0.112462         3.0602
  71   0.0000       0.123896         3.3714

MULLIKEN ATOMIC CHARGES
-----------------------
   0 S :    0.100228
   1 C :   -0.111287
   2 C :   -0.093263
   3 C :   -0.030819
   4 C :   -0.119150
   5 H :    0.022990
   6 C :    0.094987
   7 H :    0.010866
   8 H :    0.026342
   9 C :   -0.060912
  10 H :    0.010875
  11 H :    0.051786
  12 C :   -0.074750
  13 H :    0.038074
  14 H :    0.035192
  15 H :    0.063191
  16 S :    0.089439
  17 C :   -0.069593
  18 C :   -0.034238
  19 C :   -0.020438
  20 C :   -0.138522
  21 H :    0.027740
  22 C :    0.026451
  23 H :    0.028882
  24 H :    0.021009
  25 C :   -0.104511
  26 H :    0.050252
  27 H :    0.045237
  28 C :   -0.058833
  29 H :    0.031450
  30 H :    0.031910
  31 H :    0.036540
  32 H :    0.029897
  33 H :    0.042980
Sum of atomic charges:   -0.0000000

LOEWDIN ATOMIC CHARGES
----------------------
   0 S :    0.382040
   1 C :   -0.182490
   2 C :   -0.058474
   3 C :   -0.070587
   4 C :   -0.189024
   5 H :    0.035518
   6 C :   -0.030108
   7 H :    0.025187
   8 H :    0.030208
   9 C :   -0.040807
  10 H :    0.016522
  11 H :    0.034368
  12 C :   -0.066292
  13 H :    0.024417
  14 H :    0.032116
  15 H :    0.029113
  16 S :    0.393909
  17 C :   -0.167662
  18 C :   -0.068022
  19 C :   -0.065639
  20 C :   -0.188459
  21 H :    0.038881
  22 C :   -0.038320
  23 H :    0.030845
  24 H :    0.029328
  25 C :   -0.050327
  26 H :    0.033816
  27 H :    0.030988
  28 C :   -0.077695
  29 H :    0.025274
  30 H :    0.027860
  31 H :    0.029101
  32 H :    0.019404
  33 H :    0.025011

  Mayer bond orders larger than 0.100000
B(  0-S ,  1-C ) :   1.1128 B(  0-S ,  4-C ) :   1.1308 B(  1-C ,  2-C ) :   1.6224
B(  1-C , 32-H ) :   0.9720 B(  2-C ,  3-C ) :   1.2178 B(  2-C ,  6-C ) :   1.0039
B(  3-C ,  4-C ) :   1.5884 B(  3-C ,  5-H ) :   0.9832 B(  4-C , 20-C ) :   1.1041
B(  6-C ,  7-H ) :   0.9399 B(  6-C ,  8-H ) :   0.9326 B(  6-C ,  9-C ) :   1.0664
B(  9-C , 10-H ) :   0.9477 B(  9-C , 11-H ) :   0.9567 B(  9-C , 12-C ) :   1.0766
B( 12-C , 13-H ) :   0.9724 B( 12-C , 14-H ) :   0.9752 B( 12-C , 15-H ) :   0.9648
B( 16-S , 17-C ) :   1.1239 B( 16-S , 20-C ) :   1.1448 B( 17-C , 18-C ) :   1.6288
B( 17-C , 20-C ) :   0.1003 B( 17-C , 33-H ) :   0.9690 B( 18-C , 19-C ) :   1.2570
B( 18-C , 21-H ) :   0.9799 B( 19-C , 20-C ) :   1.5438 B( 19-C , 22-C ) :   1.0599
B( 22-C , 23-H ) :   0.9312 B( 22-C , 24-H ) :   0.9343 B( 22-C , 25-C ) :   1.0472
B( 25-C , 26-H ) :   0.9547 B( 25-C , 27-H ) :   0.9528 B( 25-C , 28-C ) :   1.0859
B( 28-C , 29-H ) :   0.9731 B( 28-C , 30-H ) :   0.9709 B( 28-C , 31-H ) :   0.9703

Dispersion correction           -0.015611855
FINAL SINGLE POINT ENERGY     -1339.867042847258

DIPOLE MOMENT
-------------
                                X             Y             Z
Electronic contribution:     17.70404      17.98453     -18.15749
Nuclear contribution   :    -18.04628     -18.18476      18.74050
                        -----------------------------------------
Total Dipole Moment    :     -0.34224      -0.20023       0.58301
                        -----------------------------------------
Magnitude (a.u.)       :      0.70507
Magnitude (Debye)      :      1.79214

Rotational constants in cm-1:     0.017359     0.011114     0.007457
Rotational constants in MHz :   520.418861   333.187256   223.540280

                             ****ORCA TERMINATED NORMALLY****
TOTAL RUN TIME: 0 days 0 hours 0 minutes 21 seconds 975 msec
