                         Program Version 4.2.1 -  RELEASE  -
|  1> ! wB97X-D3 SP def2-SVP
|  2> %pal
|  3> nprocs 24
|  4> end
|  5>
|  6> * xyz 0 1
|  7> S 	 -126.476 	 60.9524 	 -59.6885
|  8> C 	 -126.029 	 62.6686 	 -59.505
|  9> C 	 -126.705 	 63.2691 	 -58.4513
| 10> C 	 -127.571 	 62.3499 	 -57.7978
| 11> C 	 -127.394 	 61.0217 	 -58.1816
| 12> H 	 -128.261 	 62.474 	 -56.9068
| 13> C 	 -126.666 	 64.7662 	 -57.9627
| 14> H 	 -125.794 	 64.8041 	 -57.388
| 15> H 	 -127.394 	 65.0337 	 -57.1534
| 16> C 	 -126.625 	 65.7835 	 -59.1561
| 17> H 	 -126.243 	 66.7109 	 -58.7432
| 18> H 	 -125.955 	 65.6219 	 -60.0473
| 19> C 	 -128.041 	 66.1094 	 -59.7345
| 20> H 	 -128.426 	 65.1619 	 -60.2262
| 21> H 	 -128.678 	 66.4743 	 -58.9311
| 22> H 	 -128.12 	 66.9848 	 -60.4466
| 23> S 	 -127.07 	 58.7332 	 -56.7625
| 24> C 	 -128.445 	 57.8499 	 -56.2609
| 25> C 	 -129.6 	 58.5126 	 -56.5302
| 26> C 	 -129.405 	 59.6903 	 -57.2434
| 27> C 	 -128.082 	 59.915 	 -57.5086
| 28> H 	 -130.567 	 58.0754 	 -56.1488
| 29> C 	 -130.616 	 60.4761 	 -57.7079
| 30> H 	 -130.179 	 61.127 	 -58.3836
| 31> H 	 -131.094 	 60.9023 	 -56.8181
| 32> C 	 -131.682 	 59.7695 	 -58.4138
| 33> H 	 -132.011 	 58.9756 	 -57.7791
| 34> H 	 -131.175 	 59.321 	 -59.2112
| 35> C 	 -132.912 	 60.5231 	 -58.936
| 36> H 	 -132.695 	 61.1811 	 -59.785
| 37> H 	 -133.251 	 61.204 	 -58.2038
| 38> H 	 -133.695 	 59.8721 	 -59.1997
| 39> H 	 -125.517 	 63.2324 	 -60.2156
| 40> H 	 -128.449 	 57.013 	 -55.5588
| 41> *
| 42>
| 43>                          ****END OF INPUT****

CARTESIAN COORDINATES (ANGSTROEM)
---------------------------------
  S    -126.476000   60.952400  -59.688500
  C    -126.029000   62.668600  -59.505000
  C    -126.705000   63.269100  -58.451300
  C    -127.571000   62.349900  -57.797800
  C    -127.394000   61.021700  -58.181600
  H    -128.261000   62.474000  -56.906800
  C    -126.666000   64.766200  -57.962700
  H    -125.794000   64.804100  -57.388000
  H    -127.394000   65.033700  -57.153400
  C    -126.625000   65.783500  -59.156100
  H    -126.243000   66.710900  -58.743200
  H    -125.955000   65.621900  -60.047300
  C    -128.041000   66.109400  -59.734500
  H    -128.426000   65.161900  -60.226200
  H    -128.678000   66.474300  -58.931100
  H    -128.120000   66.984800  -60.446600
  S    -127.070000   58.733200  -56.762500
  C    -128.445000   57.849900  -56.260900
  C    -129.600000   58.512600  -56.530200
  C    -129.405000   59.690300  -57.243400
  C    -128.082000   59.915000  -57.508600
  H    -130.567000   58.075400  -56.148800
  C    -130.616000   60.476100  -57.707900
  H    -130.179000   61.127000  -58.383600
  H    -131.094000   60.902300  -56.818100
  C    -131.682000   59.769500  -58.413800
  H    -132.011000   58.975600  -57.779100
  H    -131.175000   59.321000  -59.211200
  C    -132.912000   60.523100  -58.936000
  H    -132.695000   61.181100  -59.785000
  H    -133.251000   61.204000  -58.203800
  H    -133.695000   59.872100  -59.199700
  H    -125.517000   63.232400  -60.215600
  H    -128.449000   57.013000  -55.558800

 Total Charge           Charge          ....    0
 Multiplicity           Mult            ....    1
 Number of Electrons    NEL             ....  134
 Basis Dimension        Dim             ....  322

ORBITAL ENERGIES
----------------

  NO   OCC          E(Eh)            E(eV)
   0   2.0000     -88.969427     -2420.9812
   1   2.0000     -88.964354     -2420.8431
   2   2.0000     -10.328706      -281.0584
   3   2.0000     -10.322260      -280.8830
   4   2.0000     -10.313887      -280.6551
   5   2.0000     -10.309038      -280.5232
   6   2.0000     -10.307689      -280.4865
   7   2.0000     -10.303243      -280.3655
   8   2.0000     -10.297222      -280.2017
   9   2.0000     -10.296166      -280.1729
  10   2.0000     -10.295938      -280.1667
  11   2.0000     -10.287724      -279.9432
  12   2.0000     -10.286005      -279.8964
  13   2.0000     -10.277531      -279.6658
  14   2.0000     -10.271212      -279.4939
  15   2.0000     -10.269812      -279.4558
  16   2.0000      -8.083030      -219.9504
  17   2.0000      -8.080430      -219.8797
  18   2.0000      -6.041606      -164.4005
  19   2.0000      -6.038747      -164.3227
  20   2.0000      -6.037830      -164.2977
  21   2.0000      -6.034748      -164.2138
  22   2.0000      -6.033643      -164.1838
  23   2.0000      -6.031311      -164.1203
  24   2.0000      -1.014095       -27.5949
  25   2.0000      -0.984517       -26.7901
  26   2.0000      -0.922341       -25.0982
  27   2.0000      -0.902031       -24.5455
  28   2.0000      -0.867474       -23.6052
  29   2.0000      -0.855679       -23.2842
  30   2.0000      -0.842884       -22.9360
  31   2.0000      -0.811010       -22.0687
  32   2.0000      -0.788133       -21.4462
  33   2.0000      -0.778010       -21.1707
  34   2.0000      -0.708218       -19.2716
  35   2.0000      -0.702934       -19.1278
  36   2.0000      -0.692822       -18.8526
  37   2.0000      -0.657517       -17.8919
  38   2.0000      -0.639948       -17.4139
  39   2.0000      -0.608992       -16.5715
  40   2.0000      -0.595923       -16.2159
  41   2.0000      -0.582217       -15.8429
  42   2.0000      -0.573800       -15.6139
  43   2.0000      -0.547732       -14.9045
  44   2.0000      -0.535981       -14.5848
  45   2.0000      -0.526079       -14.3153
  46   2.0000      -0.516772       -14.0621
  47   2.0000      -0.515315       -14.0224
  48   2.0000      -0.503404       -13.6983
  49   2.0000      -0.493950       -13.4411
  50   2.0000      -0.481959       -13.1148
  51   2.0000      -0.479336       -13.0434
  52   2.0000      -0.470953       -12.8153
  53   2.0000      -0.467333       -12.7168
  54   2.0000      -0.461673       -12.5628
  55   2.0000      -0.455572       -12.3967
  56   2.0000      -0.441622       -12.0172
  57   2.0000      -0.436871       -11.8879
  58   2.0000      -0.434141       -11.8136
  59   2.0000      -0.427017       -11.6197
  60   2.0000      -0.419870       -11.4252
  61   2.0000      -0.410783       -11.1780
  62   2.0000      -0.406994       -11.0749
  63   2.0000      -0.341194        -9.2844
  64   2.0000      -0.334549        -9.1035
  65   2.0000      -0.330076        -8.9818
  66   2.0000      -0.297307        -8.0901
  67   0.0000       0.035259         0.9594
  68   0.0000       0.065206         1.7744
  69   0.0000       0.111979         3.0471
  70   0.0000       0.123649         3.3646
  71   0.0000       0.134708         3.6656

MULLIKEN ATOMIC CHARGES
-----------------------
   0 S :    0.116225
   1 C :   -0.098860
   2 C :   -0.074758
   3 C :    0.003407
   4 C :   -0.168726
   5 H :    0.040599
   6 C :    0.093442
   7 H :    0.028603
   8 H :    0.035390
   9 C :   -0.098651
  10 H :    0.019782
  11 H :    0.046233
  12 C :   -0.086562
  13 H :    0.054711
  14 H :    0.025864
  15 H :    0.041664
  16 S :    0.125524
  17 C :   -0.083169
  18 C :   -0.083057
  19 C :   -0.030406
  20 C :   -0.207678
  21 H :    0.037880
  22 C :    0.156363
  23 H :   -0.000147
  24 H :    0.021806
  25 C :   -0.085436
  26 H :    0.010027
  27 H :    0.011068
  28 C :    0.007419
  29 H :    0.027153
  30 H :    0.007669
  31 H :    0.029800
  32 H :    0.022584
  33 H :    0.054239
Sum of atomic charges:   -0.0000000

LOEWDIN ATOMIC CHARGES
----------------------
   0 S :    0.390950
   1 C :   -0.183986
   2 C :   -0.056256
   3 C :   -0.069006
   4 C :   -0.199569
   5 H :    0.042876
   6 C :   -0.024227
   7 H :    0.029111
   8 H :    0.041334
   9 C :   -0.048176
  10 H :    0.020345
  11 H :    0.031149
  12 C :   -0.078241
  13 H :    0.033278
  14 H :    0.020696
  15 H :    0.030460
  16 S :    0.438126
  17 C :   -0.200416
  18 C :   -0.080698
  19 C :   -0.058188
  20 C :   -0.209249
  21 H :    0.040804
  22 C :   -0.023755
  23 H :    0.020716
  24 H :    0.032098
  25 C :   -0.039741
  26 H :    0.016141
  27 H :    0.019381
  28 C :   -0.052342
  29 H :    0.028368
  30 H :    0.018527
  31 H :    0.024338
  32 H :    0.013570
  33 H :    0.031584

  Mayer bond orders larger than 0.100000
B(  0-S ,  1-C ) :   1.1269 B(  0-S ,  4-C ) :   1.1471 B(  1-C ,  2-C ) :   1.6189
B(  1-C ,  4-C ) :   0.1026 B(  1-C , 32-H ) :   0.9738 B(  2-C ,  3-C ) :   1.2425
B(  2-C ,  6-C ) :   0.9880 B(  3-C ,  4-C ) :   1.5820 B(  3-C ,  5-H ) :   0.9827
B(  4-C , 20-C ) :   1.0221 B(  6-C ,  7-H ) :   0.9360 B(  6-C ,  8-H ) :   0.9508
B(  6-C ,  9-C ) :   1.0567 B(  9-C , 10-H ) :   0.9544 B(  9-C , 11-H ) :   0.9629
B(  9-C , 12-C ) :   1.0666 B( 12-C , 13-H ) :   0.9775 B( 12-C , 14-H ) :   0.9756
B( 12-C , 15-H ) :   0.9764 B( 16-S , 17-C ) :   1.1652 B( 16-S , 20-C ) :   1.1628
B( 17-C , 18-C ) :   1.6170 B( 17-C , 33-H ) :   0.9607 B( 18-C , 19-C ) :   1.2483
B( 18-C , 21-H ) :   0.9798 B( 19-C , 20-C ) :   1.5985 B( 19-C , 22-C ) :   1.0358
B( 22-C , 23-H ) :   0.9254 B( 22-C , 24-H ) :   0.9148 B( 22-C , 25-C ) :   1.0923
B( 25-C , 26-H ) :   0.9458 B( 25-C , 27-H ) :   0.9504 B( 25-C , 28-C ) :   1.0923
B( 28-C , 29-H ) :   0.9725 B( 28-C , 30-H ) :   0.9709 B( 28-C , 31-H ) :   0.9729

Dispersion correction           -0.013872375
FINAL SINGLE POINT ENERGY     -1339.850066529315

DIPOLE MOMENT
-------------
                                X             Y             Z
Electronic contribution:     19.09917     -20.30079       4.38286
Nuclear contribution   :    -19.54274      20.80583      -4.11377
                        -----------------------------------------
Total Dipole Moment    :     -0.44357       0.50504       0.26909
                        -----------------------------------------
Magnitude (a.u.)       :      0.72404
Magnitude (Debye)      :      1.84036

Rotational constants in cm-1:     0.017797     0.008341     0.006458
Rotational constants in MHz :   533.538252   250.044333   193.595104

                             ****ORCA TERMINATED NORMALLY****
TOTAL RUN TIME: 0 days 0 hours 0 minutes 21 seconds 197 msec
