                         Program Version 4.2.1 -  RELEASE  -
|  1> ! wB97X-D3 SP def2-SVP
|  2> %pal
|  3> nprocs 24
|  4> end
|  5>
|  6> * xyz 0 1
|  7> S 	 -50.2692 	 -44.2619 	 -79.303
|  8> C 	 -50.7454 	 -42.5915 	 -79.329
|  9> C 	 -49.9588 	 -41.8109 	 -78.4572
| 10> C 	 -48.9243 	 -42.5881 	 -77.859
| 11> C 	 -48.9412 	 -43.8952 	 -78.2032
| 12> H 	 -48.154 	 -42.2028 	 -77.174
| 13> C 	 -50.2147 	 -40.3958 	 -78.1445
| 14> H 	 -49.5066 	 -39.8147 	 -78.7081
| 15> H 	 -49.9028 	 -40.2659 	 -77.1111
| 16> C 	 -51.5454 	 -39.8217 	 -78.5303
| 17> H 	 -51.7818 	 -39.874 	 -79.6106
| 18> H 	 -52.4099 	 -40.4084 	 -78.1673
| 19> C 	 -51.7274 	 -38.3266 	 -78.2035
| 20> H 	 -50.9015 	 -37.7301 	 -78.5729
| 21> H 	 -52.577 	 -37.9195 	 -78.7419
| 22> H 	 -51.9204 	 -38.257 	 -77.1558
| 23> S 	 -49.067 	 -46.234 	 -77.0487
| 24> C 	 -47.5878 	 -47.1722 	 -76.8844
| 25> C 	 -46.4801 	 -46.3888 	 -76.9726
| 26> C 	 -46.719 	 -45.0828 	 -77.4893
| 27> C 	 -48.0956 	 -44.9175 	 -77.691
| 28> H 	 -45.4951 	 -46.804 	 -76.9026
| 29> C 	 -45.6124 	 -44.0232 	 -77.7756
| 30> H 	 -45.8387 	 -43.5281 	 -78.7047
| 31> H 	 -44.6078 	 -44.4405 	 -78.0334
| 32> C 	 -45.2771 	 -42.9777 	 -76.7293
| 33> H 	 -45.4953 	 -43.4565 	 -75.7862
| 34> H 	 -46.0183 	 -42.1801 	 -76.6408
| 35> C 	 -43.7906 	 -42.5681 	 -76.7113
| 36> H 	 -43.5628 	 -41.8504 	 -77.501
| 37> H 	 -43.086 	 -43.4045 	 -76.7441
| 38> H 	 -43.6635 	 -42.0868 	 -75.6986
| 39> H 	 -51.6121 	 -42.1484 	 -79.7717
| 40> H 	 -47.423 	 -48.2032 	 -76.7494
| 41> *
| 42>
| 43>                          ****END OF INPUT****

CARTESIAN COORDINATES (ANGSTROEM)
---------------------------------
  S    -50.269200  -44.261900  -79.303000
  C    -50.745400  -42.591500  -79.329000
  C    -49.958800  -41.810900  -78.457200
  C    -48.924300  -42.588100  -77.859000
  C    -48.941200  -43.895200  -78.203200
  H    -48.154000  -42.202800  -77.174000
  C    -50.214700  -40.395800  -78.144500
  H    -49.506600  -39.814700  -78.708100
  H    -49.902800  -40.265900  -77.111100
  C    -51.545400  -39.821700  -78.530300
  H    -51.781800  -39.874000  -79.610600
  H    -52.409900  -40.408400  -78.167300
  C    -51.727400  -38.326600  -78.203500
  H    -50.901500  -37.730100  -78.572900
  H    -52.577000  -37.919500  -78.741900
  H    -51.920400  -38.257000  -77.155800
  S    -49.067000  -46.234000  -77.048700
  C    -47.587800  -47.172200  -76.884400
  C    -46.480100  -46.388800  -76.972600
  C    -46.719000  -45.082800  -77.489300
  C    -48.095600  -44.917500  -77.691000
  H    -45.495100  -46.804000  -76.902600
  C    -45.612400  -44.023200  -77.775600
  H    -45.838700  -43.528100  -78.704700
  H    -44.607800  -44.440500  -78.033400
  C    -45.277100  -42.977700  -76.729300
  H    -45.495300  -43.456500  -75.786200
  H    -46.018300  -42.180100  -76.640800
  C    -43.790600  -42.568100  -76.711300
  H    -43.562800  -41.850400  -77.501000
  H    -43.086000  -43.404500  -76.744100
  H    -43.663500  -42.086800  -75.698600
  H    -51.612100  -42.148400  -79.771700
  H    -47.423000  -48.203200  -76.749400

 Total Charge           Charge          ....    0
 Multiplicity           Mult            ....    1
 Number of Electrons    NEL             ....  134
 Basis Dimension        Dim             ....  322

ORBITAL ENERGIES
----------------

  NO   OCC          E(Eh)            E(eV)
   0   2.0000     -88.966981     -2420.9146
   1   2.0000     -88.965250     -2420.8675
   2   2.0000     -10.324036      -280.9313
   3   2.0000     -10.321682      -280.8672
   4   2.0000     -10.309796      -280.5438
   5   2.0000     -10.307813      -280.4899
   6   2.0000     -10.307599      -280.4840
   7   2.0000     -10.298494      -280.2363
   8   2.0000     -10.293415      -280.0981
   9   2.0000     -10.291270      -280.0397
  10   2.0000     -10.289544      -279.9927
  11   2.0000     -10.288169      -279.9553
  12   2.0000     -10.287290      -279.9314
  13   2.0000     -10.287149      -279.9276
  14   2.0000     -10.284927      -279.8671
  15   2.0000     -10.277337      -279.6606
  16   2.0000      -8.081394      -219.9059
  17   2.0000      -8.079822      -219.8631
  18   2.0000      -6.039915      -164.3544
  19   2.0000      -6.038411      -164.3135
  20   2.0000      -6.035972      -164.2471
  21   2.0000      -6.034512      -164.2074
  22   2.0000      -6.032107      -164.1420
  23   2.0000      -6.030319      -164.0933
  24   2.0000      -1.009805       -27.4782
  25   2.0000      -0.982885       -26.7457
  26   2.0000      -0.920253       -25.0414
  27   2.0000      -0.908182       -24.7129
  28   2.0000      -0.872640       -23.7458
  29   2.0000      -0.855544       -23.2805
  30   2.0000      -0.847300       -23.0562
  31   2.0000      -0.816786       -22.2259
  32   2.0000      -0.783587       -21.3225
  33   2.0000      -0.770499       -20.9664
  34   2.0000      -0.717698       -19.5295
  35   2.0000      -0.703777       -19.1507
  36   2.0000      -0.694734       -18.9047
  37   2.0000      -0.663386       -18.0516
  38   2.0000      -0.638207       -17.3665
  39   2.0000      -0.616317       -16.7708
  40   2.0000      -0.598556       -16.2875
  41   2.0000      -0.572685       -15.5835
  42   2.0000      -0.567432       -15.4406
  43   2.0000      -0.559613       -15.2278
  44   2.0000      -0.525772       -14.3070
  45   2.0000      -0.523039       -14.2326
  46   2.0000      -0.520455       -14.1623
  47   2.0000      -0.516970       -14.0675
  48   2.0000      -0.509245       -13.8573
  49   2.0000      -0.500196       -13.6110
  50   2.0000      -0.499363       -13.5883
  51   2.0000      -0.480817       -13.0837
  52   2.0000      -0.467829       -12.7303
  53   2.0000      -0.463931       -12.6242
  54   2.0000      -0.457152       -12.4397
  55   2.0000      -0.448287       -12.1985
  56   2.0000      -0.446075       -12.1383
  57   2.0000      -0.440510       -11.9869
  58   2.0000      -0.438357       -11.9283
  59   2.0000      -0.427955       -11.6452
  60   2.0000      -0.423359       -11.5202
  61   2.0000      -0.414867       -11.2891
  62   2.0000      -0.406776       -11.0689
  63   2.0000      -0.347018        -9.4428
  64   2.0000      -0.332229        -9.0404
  65   2.0000      -0.324851        -8.8396
  66   2.0000      -0.288086        -7.8392
  67   0.0000       0.025979         0.7069
  68   0.0000       0.073820         2.0088
  69   0.0000       0.105498         2.8707
  70   0.0000       0.126051         3.4300
  71   0.0000       0.133013         3.6195

MULLIKEN ATOMIC CHARGES
-----------------------
   0 S :    0.129478
   1 C :   -0.103477
   2 C :   -0.122815
   3 C :    0.025411
   4 C :   -0.136936
   5 H :    0.003188
   6 C :    0.139631
   7 H :    0.025301
   8 H :    0.024362
   9 C :   -0.151949
  10 H :    0.029630
  11 H :    0.029504
  12 C :   -0.013022
  13 H :    0.029204
  14 H :    0.024968
  15 H :    0.034847
  16 S :    0.106294
  17 C :   -0.059031
  18 C :   -0.037776
  19 C :   -0.012567
  20 C :   -0.178336
  21 H :    0.009872
  22 C :    0.069227
  23 H :    0.024406
  24 H :    0.011337
  25 C :   -0.074329
  26 H :    0.015563
  27 H :    0.027942
  28 C :   -0.067891
  29 H :    0.045925
  30 H :    0.040757
  31 H :    0.041925
  32 H :    0.035722
  33 H :    0.033635
Sum of atomic charges:   -0.0000000

LOEWDIN ATOMIC CHARGES
----------------------
   0 S :    0.410017
   1 C :   -0.206766
   2 C :   -0.058396
   3 C :   -0.060559
   4 C :   -0.201938
   5 H :    0.033824
   6 C :   -0.037229
   7 H :    0.037558
   8 H :    0.034947
   9 C :   -0.051289
  10 H :    0.025585
  11 H :    0.023786
  12 C :   -0.056700
  13 H :    0.025020
  14 H :    0.027368
  15 H :    0.022866
  16 S :    0.399869
  17 C :   -0.180456
  18 C :   -0.066418
  19 C :   -0.054036
  20 C :   -0.182550
  21 H :    0.028043
  22 C :   -0.036858
  23 H :    0.029419
  24 H :    0.033195
  25 C :   -0.051772
  26 H :    0.023561
  27 H :    0.020509
  28 C :   -0.065043
  29 H :    0.025652
  30 H :    0.026498
  31 H :    0.036867
  32 H :    0.022630
  33 H :    0.022796

  Mayer bond orders larger than 0.100000
B(  0-S ,  1-C ) :   1.1309 B(  0-S ,  4-C ) :   1.1350 B(  1-C ,  2-C ) :   1.6112
B(  1-C , 32-H ) :   0.9584 B(  2-C ,  3-C ) :   1.2437 B(  2-C ,  6-C ) :   1.0283
B(  3-C ,  4-C ) :   1.5791 B(  3-C ,  5-H ) :   0.9917 B(  4-C , 20-C ) :   1.0574
B(  6-C ,  7-H ) :   0.9078 B(  6-C ,  8-H ) :   0.9374 B(  6-C ,  9-C ) :   1.0720
B(  9-C , 10-H ) :   0.9451 B(  9-C , 11-H ) :   0.9554 B(  9-C , 12-C ) :   1.0884
B( 12-C , 13-H ) :   0.9728 B( 12-C , 14-H ) :   0.9736 B( 12-C , 15-H ) :   0.9772
B( 16-S , 17-C ) :   1.1182 B( 16-S , 20-C ) :   1.1465 B( 17-C , 18-C ) :   1.6503
B( 17-C , 33-H ) :   0.9700 B( 18-C , 19-C ) :   1.2271 B( 18-C , 21-H ) :   0.9829
B( 19-C , 20-C ) :   1.5982 B( 19-C , 22-C ) :   1.0446 B( 22-C , 23-H ) :   0.9282
B( 22-C , 24-H ) :   0.9412 B( 22-C , 25-C ) :   1.0538 B( 25-C , 26-H ) :   0.9555
B( 25-C , 27-H ) :   0.9420 B( 25-C , 28-C ) :   1.0825 B( 28-C , 29-H ) :   0.9787
B( 28-C , 30-H ) :   0.9725 B( 28-C , 31-H ) :   0.9740

Dispersion correction           -0.013605193
FINAL SINGLE POINT ENERGY     -1339.864704272029

DIPOLE MOMENT
-------------
                                X             Y             Z
Electronic contribution:     -9.90807     -26.59530      -3.62202
Nuclear contribution   :     10.24437      27.17733       3.74953
                        -----------------------------------------
Total Dipole Moment    :      0.33630       0.58203       0.12751
                        -----------------------------------------
Magnitude (a.u.)       :      0.68418
Magnitude (Debye)      :      1.73906

Rotational constants in cm-1:     0.018553     0.008090     0.006013
Rotational constants in MHz :   556.212461   242.522493   180.253531

                             ****ORCA TERMINATED NORMALLY****
TOTAL RUN TIME: 0 days 0 hours 0 minutes 20 seconds 54 msec
