                         Program Version 4.2.1 -  RELEASE  -
|  1> ! wB97X-D3 SP def2-SVP
|  2> %pal
|  3> nprocs 24
|  4> end
|  5>
|  6> * xyz 0 1
|  7> S 	 -93.7114 	 -33.8533 	 -73.9131
|  8> C 	 -93.603 	 -34.4808 	 -75.5758
|  9> C 	 -92.7084 	 -33.7442 	 -76.3783
| 10> C 	 -92.2644 	 -32.6439 	 -75.6075
| 11> C 	 -92.8305 	 -32.4434 	 -74.3812
| 12> H 	 -91.4124 	 -32.0552 	 -75.9499
| 13> C 	 -92.1835 	 -34.1321 	 -77.764
| 14> H 	 -91.2093 	 -34.5118 	 -77.503
| 15> H 	 -92.0112 	 -33.2973 	 -78.4593
| 16> C 	 -92.8701 	 -35.3479 	 -78.5815
| 17> H 	 -92.3401 	 -35.4734 	 -79.6183
| 18> H 	 -92.8595 	 -36.2727 	 -78.0666
| 19> C 	 -94.2954 	 -35.0137 	 -79.02
| 20> H 	 -94.4261 	 -34.0916 	 -79.6672
| 21> H 	 -94.7487 	 -35.8605 	 -79.5789
| 22> H 	 -94.8288 	 -34.7746 	 -78.1538
| 23> S 	 -91.5043 	 -31.8361 	 -72.0271
| 24> C 	 -91.5411 	 -30.1892 	 -71.4854
| 25> C 	 -92.2347 	 -29.4257 	 -72.3064
| 26> C 	 -92.7816 	 -30.0564 	 -73.4817
| 27> C 	 -92.5668 	 -31.4006 	 -73.4129
| 28> H 	 -92.3051 	 -28.3456 	 -72.1595
| 29> C 	 -93.4595 	 -29.415 	 -74.6454
| 30> H 	 -94.2287 	 -28.6837 	 -74.3958
| 31> H 	 -94.114 	 -30.2162 	 -75.0631
| 32> C 	 -92.5228 	 -28.8656 	 -75.7814
| 33> H 	 -91.638 	 -29.5306 	 -75.828
| 34> H 	 -91.9557 	 -27.9758 	 -75.5434
| 35> C 	 -93.2508 	 -28.7047 	 -77.0691
| 36> H 	 -94.0639 	 -27.9735 	 -76.8584
| 37> H 	 -93.7134 	 -29.5144 	 -77.4794
| 38> H 	 -92.6763 	 -28.2064 	 -77.8467
| 39> H 	 -94.0835 	 -35.3559 	 -75.8418
| 40> H 	 -91.142 	 -29.7458 	 -70.5888
| 41> *
| 42>
| 43>                          ****END OF INPUT****

CARTESIAN COORDINATES (ANGSTROEM)
---------------------------------
  S    -93.711400  -33.853300  -73.913100
  C    -93.603000  -34.480800  -75.575800
  C    -92.708400  -33.744200  -76.378300
  C    -92.264400  -32.643900  -75.607500
  C    -92.830500  -32.443400  -74.381200
  H    -91.412400  -32.055200  -75.949900
  C    -92.183500  -34.132100  -77.764000
  H    -91.209300  -34.511800  -77.503000
  H    -92.011200  -33.297300  -78.459300
  C    -92.870100  -35.347900  -78.581500
  H    -92.340100  -35.473400  -79.618300
  H    -92.859500  -36.272700  -78.066600
  C    -94.295400  -35.013700  -79.020000
  H    -94.426100  -34.091600  -79.667200
  H    -94.748700  -35.860500  -79.578900
  H    -94.828800  -34.774600  -78.153800
  S    -91.504300  -31.836100  -72.027100
  C    -91.541100  -30.189200  -71.485400
  C    -92.234700  -29.425700  -72.306400
  C    -92.781600  -30.056400  -73.481700
  C    -92.566800  -31.400600  -73.412900
  H    -92.305100  -28.345600  -72.159500
  C    -93.459500  -29.415000  -74.645400
  H    -94.228700  -28.683700  -74.395800
  H    -94.114000  -30.216200  -75.063100
  C    -92.522800  -28.865600  -75.781400
  H    -91.638000  -29.530600  -75.828000
  H    -91.955700  -27.975800  -75.543400
  C    -93.250800  -28.704700  -77.069100
  H    -94.063900  -27.973500  -76.858400
  H    -93.713400  -29.514400  -77.479400
  H    -92.676300  -28.206400  -77.846700
  H    -94.083500  -35.355900  -75.841800
  H    -91.142000  -29.745800  -70.588800

 Total Charge           Charge          ....    0
 Multiplicity           Mult            ....    1
 Number of Electrons    NEL             ....  134
 Basis Dimension        Dim             ....  322

ORBITAL ENERGIES
----------------

  NO   OCC          E(Eh)            E(eV)
   0   2.0000     -88.965138     -2420.8645
   1   2.0000     -88.961335     -2420.7610
   2   2.0000     -10.323770      -280.9241
   3   2.0000     -10.323060      -280.9048
   4   2.0000     -10.314000      -280.6582
   5   2.0000     -10.309351      -280.5317
   6   2.0000     -10.308204      -280.5005
   7   2.0000     -10.305346      -280.4227
   8   2.0000     -10.301728      -280.3243
   9   2.0000     -10.299933      -280.2754
  10   2.0000     -10.293056      -280.0883
  11   2.0000     -10.292402      -280.0705
  12   2.0000     -10.286650      -279.9140
  13   2.0000     -10.285152      -279.8732
  14   2.0000     -10.277670      -279.6696
  15   2.0000     -10.270163      -279.4653
  16   2.0000      -8.079964      -219.8670
  17   2.0000      -8.075982      -219.7586
  18   2.0000      -6.038364      -164.3122
  19   2.0000      -6.034648      -164.2111
  20   2.0000      -6.034626      -164.2105
  21   2.0000      -6.030681      -164.1032
  22   2.0000      -6.030665      -164.1027
  23   2.0000      -6.026388      -163.9864
  24   2.0000      -1.009210       -27.4620
  25   2.0000      -0.985907       -26.8279
  26   2.0000      -0.909751       -24.7556
  27   2.0000      -0.906172       -24.6582
  28   2.0000      -0.870421       -23.6854
  29   2.0000      -0.855365       -23.2757
  30   2.0000      -0.847358       -23.0578
  31   2.0000      -0.814191       -22.1553
  32   2.0000      -0.786193       -21.3934
  33   2.0000      -0.773522       -21.0486
  34   2.0000      -0.709777       -19.3140
  35   2.0000      -0.703639       -19.1470
  36   2.0000      -0.700038       -19.0490
  37   2.0000      -0.655443       -17.8355
  38   2.0000      -0.644497       -17.5377
  39   2.0000      -0.616200       -16.7677
  40   2.0000      -0.599680       -16.3181
  41   2.0000      -0.574560       -15.6346
  42   2.0000      -0.557899       -15.1812
  43   2.0000      -0.549596       -14.9553
  44   2.0000      -0.539222       -14.6730
  45   2.0000      -0.526266       -14.3204
  46   2.0000      -0.523534       -14.2461
  47   2.0000      -0.511303       -13.9133
  48   2.0000      -0.509958       -13.8767
  49   2.0000      -0.496566       -13.5122
  50   2.0000      -0.490914       -13.3584
  51   2.0000      -0.480231       -13.0677
  52   2.0000      -0.473029       -12.8718
  53   2.0000      -0.465945       -12.6790
  54   2.0000      -0.458952       -12.4887
  55   2.0000      -0.447508       -12.1773
  56   2.0000      -0.443658       -12.0725
  57   2.0000      -0.438797       -11.9403
  58   2.0000      -0.434806       -11.8317
  59   2.0000      -0.427665       -11.6374
  60   2.0000      -0.423301       -11.5186
  61   2.0000      -0.411505       -11.1976
  62   2.0000      -0.404265       -11.0006
  63   2.0000      -0.338500        -9.2111
  64   2.0000      -0.331029        -9.0078
  65   2.0000      -0.326253        -8.8778
  66   2.0000      -0.302005        -8.2180
  67   0.0000       0.035948         0.9782
  68   0.0000       0.063467         1.7270
  69   0.0000       0.109414         2.9773
  70   0.0000       0.121949         3.3184
  71   0.0000       0.132270         3.5993

MULLIKEN ATOMIC CHARGES
-----------------------
   0 S :    0.113075
   1 C :   -0.111293
   2 C :   -0.074949
   3 C :    0.026324
   4 C :   -0.174764
   5 H :    0.018053
   6 C :    0.053310
   7 H :    0.044744
   8 H :    0.042677
   9 C :   -0.101393
  10 H :    0.047294
  11 H :    0.034822
  12 C :   -0.060213
  13 H :    0.034373
  14 H :    0.044507
  15 H :    0.014349
  16 S :    0.096676
  17 C :   -0.055629
  18 C :   -0.035322
  19 C :   -0.018357
  20 C :   -0.164149
  21 H :    0.012481
  22 C :    0.040827
  23 H :    0.023126
  24 H :    0.037474
  25 C :   -0.046805
  26 H :    0.014136
  27 H :    0.018978
  28 C :   -0.007907
  29 H :    0.019536
  30 H :    0.016921
  31 H :    0.027847
  32 H :    0.023021
  33 H :    0.046232
Sum of atomic charges:    0.0000000

LOEWDIN ATOMIC CHARGES
----------------------
   0 S :    0.407834
   1 C :   -0.178358
   2 C :   -0.057744
   3 C :   -0.060525
   4 C :   -0.208694
   5 H :    0.031577
   6 C :   -0.030852
   7 H :    0.039278
   8 H :    0.034828
   9 C :   -0.039654
  10 H :    0.039698
  11 H :    0.018138
  12 C :   -0.074121
  13 H :    0.031166
  14 H :    0.029859
  15 H :    0.011387
  16 S :    0.378644
  17 C :   -0.184944
  18 C :   -0.075481
  19 C :   -0.052404
  20 C :   -0.182052
  21 H :    0.031194
  22 C :   -0.035171
  23 H :    0.028946
  24 H :    0.041214
  25 C :   -0.041485
  26 H :    0.020997
  27 H :    0.024126
  28 C :   -0.058768
  29 H :    0.031463
  30 H :    0.011767
  31 H :    0.028372
  32 H :    0.005690
  33 H :    0.034074

  Mayer bond orders larger than 0.100000
B(  0-S ,  1-C ) :   1.1491 B(  0-S ,  4-C ) :   1.1506 B(  1-C ,  2-C ) :   1.5843
B(  1-C ,  4-C ) :   0.1061 B(  1-C , 32-H ) :   0.9729 B(  2-C ,  3-C ) :   1.2697
B(  2-C ,  6-C ) :   0.9948 B(  3-C ,  4-C ) :   1.5793 B(  3-C ,  5-H ) :   0.9904
B(  4-C , 20-C ) :   1.0111 B(  6-C ,  7-H ) :   0.9350 B(  6-C ,  8-H ) :   0.9488
B(  6-C ,  9-C ) :   1.0734 B(  9-C , 10-H ) :   0.9595 B(  9-C , 11-H ) :   0.9548
B(  9-C , 12-C ) :   1.0712 B( 12-C , 13-H ) :   0.9737 B( 12-C , 14-H ) :   0.9748
B( 12-C , 15-H ) :   0.9768 B( 16-S , 17-C ) :   1.1174 B( 16-S , 20-C ) :   1.1223
B( 17-C , 18-C ) :   1.6763 B( 17-C , 33-H ) :   0.9605 B( 18-C , 19-C ) :   1.1988
B( 18-C , 21-H ) :   0.9858 B( 19-C , 20-C ) :   1.6546 B( 19-C , 22-C ) :   1.0613
B( 22-C , 23-H ) :   0.9314 B( 22-C , 24-H ) :   0.9327 B( 22-C , 25-C ) :   1.0361
B( 25-C , 26-H ) :   0.9530 B( 25-C , 27-H ) :   0.9491 B( 25-C , 28-C ) :   1.0888
B( 28-C , 29-H ) :   0.9672 B( 28-C , 30-H ) :   0.9771 B( 28-C , 31-H ) :   0.9699

Dispersion correction           -0.014649809
FINAL SINGLE POINT ENERGY     -1339.859794147761

DIPOLE MOMENT
-------------
                                X             Y             Z
Electronic contribution:      4.01143      -5.28309      28.70391
Nuclear contribution   :     -3.83147       5.54588     -29.32878
                        -----------------------------------------
Total Dipole Moment    :      0.17996       0.26279      -0.62487
                        -----------------------------------------
Magnitude (a.u.)       :      0.70136
Magnitude (Debye)      :      1.78273

Rotational constants in cm-1:     0.020227     0.008570     0.006626
Rotational constants in MHz :   606.399404   256.924393   198.628995

                             ****ORCA TERMINATED NORMALLY****
TOTAL RUN TIME: 0 days 0 hours 0 minutes 21 seconds 846 msec
