                         Program Version 4.2.1 -  RELEASE  -
|  1> ! wB97X-D3 SP def2-SVP
|  2> %pal
|  3> nprocs 24
|  4> end
|  5>
|  6> * xyz 0 1
|  7> S 	 -51.1465 	 -48.1226 	 -78.8065
|  8> C 	 -50.2433 	 -46.7605 	 -78.1793
|  9> C 	 -49.0283 	 -47.1822 	 -77.659
| 10> C 	 -48.9296 	 -48.6413 	 -77.7555
| 11> C 	 -49.964 	 -49.2408 	 -78.3734
| 12> H 	 -48.1049 	 -49.2226 	 -77.5148
| 13> C 	 -48.0791 	 -46.2338 	 -76.9864
| 14> H 	 -47.4734 	 -46.833 	 -76.2833
| 15> H 	 -48.7088 	 -45.5643 	 -76.4345
| 16> C 	 -47.0295 	 -45.4394 	 -77.8711
| 17> H 	 -46.5058 	 -44.7086 	 -77.3221
| 18> H 	 -46.3519 	 -46.1769 	 -78.3089
| 19> C 	 -47.5628 	 -44.6894 	 -79.0834
| 20> H 	 -48.624 	 -44.3466 	 -78.7352
| 21> H 	 -46.888 	 -43.9169 	 -79.3543
| 22> H 	 -47.6999 	 -45.3827 	 -79.9234
| 23> S 	 -51.1548 	 -51.757 	 -78.1332
| 24> C 	 -50.749 	 -53.0313 	 -79.2388
| 25> C 	 -49.6459 	 -52.6083 	 -79.9427
| 26> C 	 -49.1066 	 -51.3072 	 -79.6326
| 27> C 	 -49.9755 	 -50.6258 	 -78.7737
| 28> H 	 -49.2087 	 -53.3329 	 -80.6096
| 29> C 	 -47.9208 	 -50.6923 	 -80.3593
| 30> H 	 -47.2176 	 -51.4555 	 -80.7056
| 31> H 	 -47.3976 	 -50.2004 	 -79.6256
| 32> C 	 -48.2564 	 -49.6681 	 -81.4536
| 33> H 	 -48.8239 	 -48.8894 	 -80.9635
| 34> H 	 -48.9133 	 -50.1176 	 -82.1478
| 35> C 	 -47.0848 	 -49.2766 	 -82.372
| 36> H 	 -47.409 	 -48.7407 	 -83.2371
| 37> H 	 -46.6134 	 -50.1222 	 -82.8294
| 38> H 	 -46.211 	 -48.6312 	 -82.0156
| 39> H 	 -50.6522 	 -45.795 	 -78.13
| 40> H 	 -51.2189 	 -53.9604 	 -79.191
| 41> *
| 42>
| 43>                          ****END OF INPUT****

CARTESIAN COORDINATES (ANGSTROEM)
---------------------------------
  S    -51.146500  -48.122600  -78.806500
  C    -50.243300  -46.760500  -78.179300
  C    -49.028300  -47.182200  -77.659000
  C    -48.929600  -48.641300  -77.755500
  C    -49.964000  -49.240800  -78.373400
  H    -48.104900  -49.222600  -77.514800
  C    -48.079100  -46.233800  -76.986400
  H    -47.473400  -46.833000  -76.283300
  H    -48.708800  -45.564300  -76.434500
  C    -47.029500  -45.439400  -77.871100
  H    -46.505800  -44.708600  -77.322100
  H    -46.351900  -46.176900  -78.308900
  C    -47.562800  -44.689400  -79.083400
  H    -48.624000  -44.346600  -78.735200
  H    -46.888000  -43.916900  -79.354300
  H    -47.699900  -45.382700  -79.923400
  S    -51.154800  -51.757000  -78.133200
  C    -50.749000  -53.031300  -79.238800
  C    -49.645900  -52.608300  -79.942700
  C    -49.106600  -51.307200  -79.632600
  C    -49.975500  -50.625800  -78.773700
  H    -49.208700  -53.332900  -80.609600
  C    -47.920800  -50.692300  -80.359300
  H    -47.217600  -51.455500  -80.705600
  H    -47.397600  -50.200400  -79.625600
  C    -48.256400  -49.668100  -81.453600
  H    -48.823900  -48.889400  -80.963500
  H    -48.913300  -50.117600  -82.147800
  C    -47.084800  -49.276600  -82.372000
  H    -47.409000  -48.740700  -83.237100
  H    -46.613400  -50.122200  -82.829400
  H    -46.211000  -48.631200  -82.015600
  H    -50.652200  -45.795000  -78.130000
  H    -51.218900  -53.960400  -79.191000

 Total Charge           Charge          ....    0
 Multiplicity           Mult            ....    1
 Number of Electrons    NEL             ....  134
 Basis Dimension        Dim             ....  322

ORBITAL ENERGIES
----------------

  NO   OCC          E(Eh)            E(eV)
   0   2.0000     -88.964524     -2420.8478
   1   2.0000     -88.960731     -2420.7446
   2   2.0000     -10.326853      -281.0080
   3   2.0000     -10.320710      -280.8408
   4   2.0000     -10.313607      -280.6475
   5   2.0000     -10.312678      -280.6222
   6   2.0000     -10.307322      -280.4765
   7   2.0000     -10.306355      -280.4502
   8   2.0000     -10.296328      -280.1773
   9   2.0000     -10.293456      -280.0992
  10   2.0000     -10.288775      -279.9718
  11   2.0000     -10.284713      -279.8613
  12   2.0000     -10.284114      -279.8450
  13   2.0000     -10.281693      -279.7791
  14   2.0000     -10.279961      -279.7320
  15   2.0000     -10.278436      -279.6905
  16   2.0000      -8.080555      -219.8831
  17   2.0000      -8.075956      -219.7579
  18   2.0000      -6.038990      -164.3293
  19   2.0000      -6.034770      -164.2144
  20   2.0000      -6.034425      -164.2050
  21   2.0000      -6.031395      -164.1226
  22   2.0000      -6.030225      -164.0908
  23   2.0000      -6.026897      -164.0002
  24   2.0000      -1.014539       -27.6070
  25   2.0000      -0.988031       -26.8857
  26   2.0000      -0.912500       -24.8304
  27   2.0000      -0.908856       -24.7312
  28   2.0000      -0.873709       -23.7748
  29   2.0000      -0.852474       -23.1970
  30   2.0000      -0.845400       -23.0045
  31   2.0000      -0.819141       -22.2900
  32   2.0000      -0.786426       -21.3997
  33   2.0000      -0.777273       -21.1507
  34   2.0000      -0.712514       -19.3885
  35   2.0000      -0.701028       -19.0759
  36   2.0000      -0.694530       -18.8991
  37   2.0000      -0.661061       -17.9884
  38   2.0000      -0.651387       -17.7251
  39   2.0000      -0.619687       -16.8625
  40   2.0000      -0.598632       -16.2896
  41   2.0000      -0.571477       -15.5507
  42   2.0000      -0.565684       -15.3930
  43   2.0000      -0.559058       -15.2127
  44   2.0000      -0.548353       -14.9215
  45   2.0000      -0.525070       -14.2879
  46   2.0000      -0.523562       -14.2469
  47   2.0000      -0.515096       -14.0165
  48   2.0000      -0.508129       -13.8269
  49   2.0000      -0.503307       -13.6957
  50   2.0000      -0.491407       -13.3719
  51   2.0000      -0.480334       -13.0705
  52   2.0000      -0.476743       -12.9728
  53   2.0000      -0.463520       -12.6130
  54   2.0000      -0.460128       -12.5207
  55   2.0000      -0.449990       -12.2449
  56   2.0000      -0.442698       -12.0464
  57   2.0000      -0.437142       -11.8952
  58   2.0000      -0.432284       -11.7630
  59   2.0000      -0.423226       -11.5166
  60   2.0000      -0.416752       -11.3404
  61   2.0000      -0.414628       -11.2826
  62   2.0000      -0.410367       -11.1667
  63   2.0000      -0.339919        -9.2497
  64   2.0000      -0.330879        -9.0037
  65   2.0000      -0.326537        -8.8855
  66   2.0000      -0.304941        -8.2979
  67   0.0000       0.034946         0.9509
  68   0.0000       0.067887         1.8473
  69   0.0000       0.116096         3.1591
  70   0.0000       0.120933         3.2908
  71   0.0000       0.132970         3.6183

MULLIKEN ATOMIC CHARGES
-----------------------
   0 S :    0.121862
   1 C :   -0.119038
   2 C :   -0.093794
   3 C :    0.061485
   4 C :   -0.157719
   5 H :   -0.014655
   6 C :    0.065852
   7 H :    0.028915
   8 H :    0.028021
   9 C :   -0.057101
  10 H :    0.026616
  11 H :    0.025966
  12 C :   -0.069440
  13 H :    0.025905
  14 H :    0.037259
  15 H :    0.042989
  16 S :    0.099844
  17 C :   -0.075467
  18 C :   -0.039486
  19 C :   -0.030532
  20 C :   -0.184160
  21 H :    0.013912
  22 C :    0.135440
  23 H :    0.011065
  24 H :   -0.013320
  25 C :   -0.024607
  26 H :    0.036178
  27 H :    0.017023
  28 C :   -0.057157
  29 H :    0.022513
  30 H :    0.017077
  31 H :    0.035280
  32 H :    0.038538
  33 H :    0.044733
Sum of atomic charges:   -0.0000000

LOEWDIN ATOMIC CHARGES
----------------------
   0 S :    0.435671
   1 C :   -0.186645
   2 C :   -0.058843
   3 C :   -0.055275
   4 C :   -0.221600
   5 H :    0.018939
   6 C :   -0.030772
   7 H :    0.036014
   8 H :    0.028932
   9 C :   -0.037497
  10 H :    0.018655
  11 H :    0.024394
  12 C :   -0.067230
  13 H :    0.029635
  14 H :    0.021822
  15 H :    0.026334
  16 S :    0.407685
  17 C :   -0.179428
  18 C :   -0.072415
  19 C :   -0.047549
  20 C :   -0.199483
  21 H :    0.027335
  22 C :   -0.026571
  23 H :    0.030416
  24 H :    0.016949
  25 C :   -0.029438
  26 H :    0.026263
  27 H :    0.023372
  28 C :   -0.073414
  29 H :    0.024543
  30 H :    0.022414
  31 H :    0.029057
  32 H :    0.016958
  33 H :    0.020772

  Mayer bond orders larger than 0.100000
B(  0-S ,  1-C ) :   1.1457 B(  0-S ,  4-C ) :   1.1611 B(  1-C ,  2-C ) :   1.5929
B(  1-C , 32-H ) :   0.9789 B(  2-C ,  3-C ) :   1.2217 B(  2-C ,  6-C ) :   1.0221
B(  3-C ,  4-C ) :   1.5901 B(  3-C ,  5-H ) :   1.0084 B(  4-C , 20-C ) :   1.0203
B(  6-C ,  7-H ) :   0.9434 B(  6-C ,  8-H ) :   0.9424 B(  6-C ,  9-C ) :   1.0707
B(  9-C , 10-H ) :   0.9618 B(  9-C , 11-H ) :   0.9574 B(  9-C , 12-C ) :   1.0782
B( 12-C , 13-H ) :   0.9752 B( 12-C , 14-H ) :   0.9751 B( 12-C , 15-H ) :   0.9751
B( 16-S , 17-C ) :   1.1564 B( 16-S , 20-C ) :   1.1641 B( 17-C , 18-C ) :   1.5811
B( 17-C , 20-C ) :   0.1047 B( 17-C , 33-H ) :   0.9829 B( 18-C , 19-C ) :   1.2501
B( 18-C , 21-H ) :   0.9922 B( 19-C , 20-C ) :   1.5549 B( 19-C , 22-C ) :   1.0563
B( 22-C , 23-H ) :   0.9294 B( 22-C , 24-H ) :   0.9112 B( 22-C , 25-C ) :   1.0678
B( 25-C , 26-H ) :   0.9540 B( 25-C , 27-H ) :   0.9531 B( 25-C , 28-C ) :   1.0761
B( 28-C , 29-H ) :   0.9740 B( 28-C , 30-H ) :   0.9703 B( 28-C , 31-H ) :   0.9762

Dispersion correction           -0.015191865
FINAL SINGLE POINT ENERGY     -1339.866066376191

DIPOLE MOMENT
-------------
                                X             Y             Z
Electronic contribution:    -22.46439     -16.19085      10.65184
Nuclear contribution   :     23.08347      16.32847     -10.82196
                        -----------------------------------------
Total Dipole Moment    :      0.61907       0.13762      -0.17012
                        -----------------------------------------
Magnitude (a.u.)       :      0.65661
Magnitude (Debye)      :      1.66896

Rotational constants in cm-1:     0.020205     0.009153     0.007204
Rotational constants in MHz :   605.729152   274.388384   215.979035

                             ****ORCA TERMINATED NORMALLY****
TOTAL RUN TIME: 0 days 0 hours 0 minutes 21 seconds 284 msec
