                         Program Version 4.2.1 -  RELEASE  -
|  1> ! wB97X-D3 SP def2-SVP
|  2> %pal
|  3> nprocs 24
|  4> end
|  5>
|  6> * xyz 0 1
|  7> S 	 -91.5822 	 -4.5957 	 -115.323
|  8> C 	 -90.749 	 -3.12351 	 -114.947
|  9> C 	 -90.8602 	 -2.36085 	 -116.072
| 10> C 	 -91.6847 	 -2.81983 	 -117.144
| 11> C 	 -92.0836 	 -4.12179 	 -116.995
| 12> H 	 -91.9346 	 -2.25899 	 -118.033
| 13> C 	 -90.3253 	 -0.93275 	 -116.145
| 14> H 	 -90.3134 	 -0.689326 	 -117.175
| 15> H 	 -89.2756 	 -0.980638 	 -115.724
| 16> C 	 -91.0941 	 0.09945 	 -115.409
| 17> H 	 -92.148 	 0.000753387 	 -115.624
| 18> H 	 -90.9979 	 -0.156884 	 -114.349
| 19> C 	 -90.7796 	 1.58184 	 -115.635
| 20> H 	 -90.8182 	 1.96783 	 -116.64
| 21> H 	 -91.4769 	 2.12859 	 -115.079
| 22> H 	 -89.817 	 1.90318 	 -115.206
| 23> S 	 -92.423 	 -6.54799 	 -118.164
| 24> C 	 -93.9259 	 -6.96614 	 -118.947
| 25> C 	 -94.7884 	 -5.88855 	 -118.914
| 26> C 	 -94.2604 	 -4.73171 	 -118.277
| 27> C 	 -92.9835 	 -4.9553 	 -117.827
| 28> H 	 -95.7857 	 -5.97064 	 -119.379
| 29> C 	 -94.9579 	 -3.4251 	 -118.214
| 30> H 	 -95.7253 	 -3.47607 	 -118.947
| 31> H 	 -94.3501 	 -2.51816 	 -118.515
| 32> C 	 -95.7985 	 -3.08412 	 -116.941
| 33> H 	 -95.2549 	 -2.84798 	 -116.06
| 34> H 	 -96.3493 	 -3.96036 	 -116.73
| 35> C 	 -96.8265 	 -1.89475 	 -117.1
| 36> H 	 -97.3401 	 -1.51436 	 -116.185
| 37> H 	 -97.6582 	 -2.22798 	 -117.691
| 38> H 	 -96.3311 	 -1.04975 	 -117.477
| 39> H 	 -90.1889 	 -2.8852 	 -114.046
| 40> H 	 -94.0818 	 -7.99208 	 -119.321
| 41> *
| 42>
| 43>                          ****END OF INPUT****

CARTESIAN COORDINATES (ANGSTROEM)
---------------------------------
  S    -91.582200   -4.595700  -115.323000
  C    -90.749000   -3.123510  -114.947000
  C    -90.860200   -2.360850  -116.072000
  C    -91.684700   -2.819830  -117.144000
  C    -92.083600   -4.121790  -116.995000
  H    -91.934600   -2.258990  -118.033000
  C    -90.325300   -0.932750  -116.145000
  H    -90.313400   -0.689326  -117.175000
  H    -89.275600   -0.980638  -115.724000
  C    -91.094100    0.099450  -115.409000
  H    -92.148000    0.000753  -115.624000
  H    -90.997900   -0.156884  -114.349000
  C    -90.779600    1.581840  -115.635000
  H    -90.818200    1.967830  -116.640000
  H    -91.476900    2.128590  -115.079000
  H    -89.817000    1.903180  -115.206000
  S    -92.423000   -6.547990  -118.164000
  C    -93.925900   -6.966140  -118.947000
  C    -94.788400   -5.888550  -118.914000
  C    -94.260400   -4.731710  -118.277000
  C    -92.983500   -4.955300  -117.827000
  H    -95.785700   -5.970640  -119.379000
  C    -94.957900   -3.425100  -118.214000
  H    -95.725300   -3.476070  -118.947000
  H    -94.350100   -2.518160  -118.515000
  C    -95.798500   -3.084120  -116.941000
  H    -95.254900   -2.847980  -116.060000
  H    -96.349300   -3.960360  -116.730000
  C    -96.826500   -1.894750  -117.100000
  H    -97.340100   -1.514360  -116.185000
  H    -97.658200   -2.227980  -117.691000
  H    -96.331100   -1.049750  -117.477000
  H    -90.188900   -2.885200  -114.046000
  H    -94.081800   -7.992080  -119.321000

 Total Charge           Charge          ....    0
 Multiplicity           Mult            ....    1
 Number of Electrons    NEL             ....  134
 Basis Dimension        Dim             ....  322

ORBITAL ENERGIES
----------------

  NO   OCC          E(Eh)            E(eV)
   0   2.0000     -88.966052     -2420.8893
   1   2.0000     -88.960613     -2420.7414
   2   2.0000     -10.334898      -281.2269
   3   2.0000     -10.326786      -281.0061
   4   2.0000     -10.322224      -280.8820
   5   2.0000     -10.314758      -280.6788
   6   2.0000     -10.304239      -280.3926
   7   2.0000     -10.300135      -280.2809
   8   2.0000     -10.296064      -280.1701
   9   2.0000     -10.294669      -280.1322
  10   2.0000     -10.293979      -280.1134
  11   2.0000     -10.283064      -279.8164
  12   2.0000     -10.281466      -279.7729
  13   2.0000     -10.281033      -279.7611
  14   2.0000     -10.276172      -279.6289
  15   2.0000     -10.273444      -279.5546
  16   2.0000      -8.081629      -219.9123
  17   2.0000      -8.074847      -219.7278
  18   2.0000      -6.039913      -164.3544
  19   2.0000      -6.035919      -164.2457
  20   2.0000      -6.033519      -164.1804
  21   2.0000      -6.032665      -164.1572
  22   2.0000      -6.029256      -164.0644
  23   2.0000      -6.025563      -163.9639
  24   2.0000      -1.010879       -27.5074
  25   2.0000      -0.989432       -26.9238
  26   2.0000      -0.912573       -24.8324
  27   2.0000      -0.907713       -24.7001
  28   2.0000      -0.871999       -23.7283
  29   2.0000      -0.853330       -23.2203
  30   2.0000      -0.844771       -22.9874
  31   2.0000      -0.820741       -22.3335
  32   2.0000      -0.783510       -21.3204
  33   2.0000      -0.772271       -21.0146
  34   2.0000      -0.709271       -19.3002
  35   2.0000      -0.700119       -19.0512
  36   2.0000      -0.694760       -18.9054
  37   2.0000      -0.668177       -18.1820
  38   2.0000      -0.643790       -17.5184
  39   2.0000      -0.620250       -16.8779
  40   2.0000      -0.600482       -16.3399
  41   2.0000      -0.570343       -15.5198
  42   2.0000      -0.566750       -15.4220
  43   2.0000      -0.559097       -15.2138
  44   2.0000      -0.526947       -14.3390
  45   2.0000      -0.524173       -14.2635
  46   2.0000      -0.521188       -14.1822
  47   2.0000      -0.515388       -14.0244
  48   2.0000      -0.511673       -13.9233
  49   2.0000      -0.499515       -13.5925
  50   2.0000      -0.495749       -13.4900
  51   2.0000      -0.483764       -13.1639
  52   2.0000      -0.471436       -12.8284
  53   2.0000      -0.469070       -12.7640
  54   2.0000      -0.460663       -12.5353
  55   2.0000      -0.452654       -12.3173
  56   2.0000      -0.443828       -12.0772
  57   2.0000      -0.433649       -11.8002
  58   2.0000      -0.433361       -11.7924
  59   2.0000      -0.428005       -11.6466
  60   2.0000      -0.414657       -11.2834
  61   2.0000      -0.413925       -11.2635
  62   2.0000      -0.399572       -10.8729
  63   2.0000      -0.348189        -9.4747
  64   2.0000      -0.335025        -9.1165
  65   2.0000      -0.326561        -8.8862
  66   2.0000      -0.299529        -8.1506
  67   0.0000       0.031477         0.8565
  68   0.0000       0.065415         1.7800
  69   0.0000       0.116144         3.1604
  70   0.0000       0.122642         3.3373
  71   0.0000       0.127094         3.4584

MULLIKEN ATOMIC CHARGES
-----------------------
   0 S :    0.089035
   1 C :   -0.115976
   2 C :   -0.102679
   3 C :    0.016150
   4 C :   -0.095603
   5 H :    0.016606
   6 C :    0.077877
   7 H :   -0.000154
   8 H :    0.030134
   9 C :   -0.062554
  10 H :    0.015618
  11 H :    0.015787
  12 C :   -0.013543
  13 H :    0.028878
  14 H :    0.016390
  15 H :    0.022705
  16 S :    0.115350
  17 C :   -0.109969
  18 C :   -0.039710
  19 C :    0.004368
  20 C :   -0.195907
  21 H :    0.030411
  22 C :    0.061886
  23 H :   -0.003841
  24 H :    0.038124
  25 C :   -0.043275
  26 H :    0.032323
  27 H :    0.013428
  28 C :   -0.061209
  29 H :    0.034612
  30 H :    0.027357
  31 H :    0.023725
  32 H :    0.060245
  33 H :    0.073412
Sum of atomic charges:   -0.0000000

LOEWDIN ATOMIC CHARGES
----------------------
   0 S :    0.386789
   1 C :   -0.199531
   2 C :   -0.069812
   3 C :   -0.065881
   4 C :   -0.172452
   5 H :    0.032013
   6 C :   -0.034708
   7 H :    0.018436
   8 H :    0.034632
   9 C :   -0.043916
  10 H :    0.022307
  11 H :    0.024045
  12 C :   -0.061477
  13 H :    0.023477
  14 H :    0.021937
  15 H :    0.025385
  16 S :    0.428209
  17 C :   -0.189049
  18 C :   -0.072103
  19 C :   -0.059262
  20 C :   -0.204314
  21 H :    0.037559
  22 C :   -0.033350
  23 H :    0.026704
  24 H :    0.036104
  25 C :   -0.027925
  26 H :    0.019629
  27 H :    0.017736
  28 C :   -0.065826
  29 H :    0.033252
  30 H :    0.020616
  31 H :    0.015979
  32 H :    0.038860
  33 H :    0.035937

  Mayer bond orders larger than 0.100000
B(  0-S ,  1-C ) :   1.1304 B(  0-S ,  4-C ) :   1.1445 B(  1-C ,  2-C ) :   1.5947
B(  1-C ,  4-C ) :   0.1002 B(  1-C , 32-H ) :   0.9761 B(  2-C ,  3-C ) :   1.2402
B(  2-C ,  6-C ) :   1.0330 B(  3-C ,  4-C ) :   1.5804 B(  3-C ,  5-H ) :   0.9974
B(  4-C , 20-C ) :   1.0165 B(  6-C ,  7-H ) :   0.9356 B(  6-C ,  8-H ) :   0.9364
B(  6-C ,  9-C ) :   1.0811 B(  9-C , 10-H ) :   0.9515 B(  9-C , 11-H ) :   0.9483
B(  9-C , 12-C ) :   1.0884 B( 12-C , 13-H ) :   0.9747 B( 12-C , 14-H ) :   0.9705
B( 12-C , 15-H ) :   0.9727 B( 16-S , 17-C ) :   1.1662 B( 16-S , 20-C ) :   1.1680
B( 17-C , 18-C ) :   1.5815 B( 17-C , 33-H ) :   0.9683 B( 18-C , 19-C ) :   1.2572
B( 18-C , 21-H ) :   0.9852 B( 19-C , 20-C ) :   1.5786 B( 19-C , 22-C ) :   1.0538
B( 22-C , 23-H ) :   0.9210 B( 22-C , 24-H ) :   0.9382 B( 22-C , 25-C ) :   1.0505
B( 25-C , 26-H ) :   0.9617 B( 25-C , 27-H ) :   0.9557 B( 25-C , 28-C ) :   1.0765
B( 28-C , 29-H ) :   0.9758 B( 28-C , 30-H ) :   0.9779 B( 28-C , 31-H ) :   0.9778

Dispersion correction           -0.013903254
FINAL SINGLE POINT ENERGY     -1339.873646164320

DIPOLE MOMENT
-------------
                                X             Y             Z
Electronic contribution:      9.77363     -29.90260      -2.78303
Nuclear contribution   :    -10.15741      30.42429       2.66172
                        -----------------------------------------
Total Dipole Moment    :     -0.38378       0.52169      -0.12131
                        -----------------------------------------
Magnitude (a.u.)       :      0.65891
Magnitude (Debye)      :      1.67483

Rotational constants in cm-1:     0.018303     0.008640     0.006566
Rotational constants in MHz :   548.711310   259.015468   196.830046

                             ****ORCA TERMINATED NORMALLY****
TOTAL RUN TIME: 0 days 0 hours 0 minutes 21 seconds 291 msec
