                         Program Version 4.2.1 -  RELEASE  -
|  1> ! wB97X-D3 SP def2-SVP
|  2> %pal
|  3> nprocs 24
|  4> end
|  5>
|  6> * xyz 0 1
|  7> S 	 -76.5405 	 0.0121974 	 -109.482
|  8> C 	 -77.853 	 0.698054 	 -110.411
|  9> C 	 -77.4246 	 1.36556 	 -111.561
| 10> C 	 -75.9843 	 1.51119 	 -111.505
| 11> C 	 -75.4104 	 0.931958 	 -110.441
| 12> H 	 -75.27 	 1.95319 	 -112.203
| 13> C 	 -78.3281 	 2.20428 	 -112.455
| 14> H 	 -79.2976 	 1.88025 	 -112.238
| 15> H 	 -77.9656 	 1.97296 	 -113.46
| 16> C 	 -78.295 	 3.73196 	 -112.267
| 17> H 	 -78.615 	 4.01567 	 -111.257
| 18> H 	 -77.239 	 4.12284 	 -112.269
| 19> C 	 -79.1048 	 4.33999 	 -113.43
| 20> H 	 -80.1608 	 4.28847 	 -113.327
| 21> H 	 -78.7967 	 5.32314 	 -113.64
| 22> H 	 -79.0318 	 3.83795 	 -114.371
| 23> S 	 -72.9397 	 1.87148 	 -111.248
| 24> C 	 -71.53 	 1.25216 	 -110.544
| 25> C 	 -71.833 	 0.567781 	 -109.385
| 26> C 	 -73.2163 	 0.274066 	 -109.225
| 27> C 	 -73.9617 	 0.887331 	 -110.192
| 28> H 	 -70.9503 	 0.0926606 	 -108.931
| 29> C 	 -73.6541 	 -0.666607 	 -108.072
| 30> H 	 -74.6903 	 -0.496481 	 -107.883
| 31> H 	 -73.1754 	 -0.270641 	 -107.226
| 32> C 	 -73.3003 	 -2.17717 	 -108.115
| 33> H 	 -72.198 	 -2.23892 	 -107.979
| 34> H 	 -73.3669 	 -2.37857 	 -109.152
| 35> C 	 -74.0212 	 -3.11711 	 -107.129
| 36> H 	 -73.6814 	 -3.01567 	 -106.11
| 37> H 	 -74.0491 	 -4.17308 	 -107.324
| 38> H 	 -75.0675 	 -2.88874 	 -107.097
| 39> H 	 -78.8871 	 0.538407 	 -110.116
| 40> H 	 -70.5157 	 1.2154 	 -110.946
| 41> *
| 42>
| 43>                          ****END OF INPUT****

CARTESIAN COORDINATES (ANGSTROEM)
---------------------------------
  S    -76.540500    0.012197  -109.482000
  C    -77.853000    0.698054  -110.411000
  C    -77.424600    1.365560  -111.561000
  C    -75.984300    1.511190  -111.505000
  C    -75.410400    0.931958  -110.441000
  H    -75.270000    1.953190  -112.203000
  C    -78.328100    2.204280  -112.455000
  H    -79.297600    1.880250  -112.238000
  H    -77.965600    1.972960  -113.460000
  C    -78.295000    3.731960  -112.267000
  H    -78.615000    4.015670  -111.257000
  H    -77.239000    4.122840  -112.269000
  C    -79.104800    4.339990  -113.430000
  H    -80.160800    4.288470  -113.327000
  H    -78.796700    5.323140  -113.640000
  H    -79.031800    3.837950  -114.371000
  S    -72.939700    1.871480  -111.248000
  C    -71.530000    1.252160  -110.544000
  C    -71.833000    0.567781  -109.385000
  C    -73.216300    0.274066  -109.225000
  C    -73.961700    0.887331  -110.192000
  H    -70.950300    0.092661  -108.931000
  C    -73.654100   -0.666607  -108.072000
  H    -74.690300   -0.496481  -107.883000
  H    -73.175400   -0.270641  -107.226000
  C    -73.300300   -2.177170  -108.115000
  H    -72.198000   -2.238920  -107.979000
  H    -73.366900   -2.378570  -109.152000
  C    -74.021200   -3.117110  -107.129000
  H    -73.681400   -3.015670  -106.110000
  H    -74.049100   -4.173080  -107.324000
  H    -75.067500   -2.888740  -107.097000
  H    -78.887100    0.538407  -110.116000
  H    -70.515700    1.215400  -110.946000

 Total Charge           Charge          ....    0
 Multiplicity           Mult            ....    1
 Number of Electrons    NEL             ....  134
 Basis Dimension        Dim             ....  322

ORBITAL ENERGIES
----------------

  NO   OCC          E(Eh)            E(eV)
   0   2.0000     -88.965164     -2420.8652
   1   2.0000     -88.964640     -2420.8509
   2   2.0000     -10.327931      -281.0373
   3   2.0000     -10.324590      -280.9464
   4   2.0000     -10.314303      -280.6665
   5   2.0000     -10.313474      -280.6439
   6   2.0000     -10.304861      -280.4095
   7   2.0000     -10.304138      -280.3899
   8   2.0000     -10.292346      -280.0690
   9   2.0000     -10.290723      -280.0248
  10   2.0000     -10.289302      -279.9861
  11   2.0000     -10.288919      -279.9757
  12   2.0000     -10.287334      -279.9326
  13   2.0000     -10.286547      -279.9112
  14   2.0000     -10.276701      -279.6432
  15   2.0000     -10.269634      -279.4509
  16   2.0000      -8.080234      -219.8743
  17   2.0000      -8.079766      -219.8616
  18   2.0000      -6.038777      -164.3235
  19   2.0000      -6.038404      -164.3133
  20   2.0000      -6.034699      -164.2125
  21   2.0000      -6.034423      -164.2050
  22   2.0000      -6.030847      -164.1077
  23   2.0000      -6.030293      -164.0926
  24   2.0000      -1.012725       -27.5577
  25   2.0000      -0.988606       -26.9013
  26   2.0000      -0.912178       -24.8216
  27   2.0000      -0.905949       -24.6521
  28   2.0000      -0.871022       -23.7017
  29   2.0000      -0.856219       -23.2989
  30   2.0000      -0.846003       -23.0209
  31   2.0000      -0.814025       -22.1507
  32   2.0000      -0.790044       -21.4982
  33   2.0000      -0.774947       -21.0874
  34   2.0000      -0.712509       -19.3884
  35   2.0000      -0.709388       -19.3034
  36   2.0000      -0.691396       -18.8139
  37   2.0000      -0.670919       -18.2566
  38   2.0000      -0.631138       -17.1741
  39   2.0000      -0.618656       -16.8345
  40   2.0000      -0.595512       -16.2047
  41   2.0000      -0.569284       -15.4910
  42   2.0000      -0.563008       -15.3202
  43   2.0000      -0.557747       -15.1771
  44   2.0000      -0.528858       -14.3909
  45   2.0000      -0.519436       -14.1346
  46   2.0000      -0.517549       -14.0832
  47   2.0000      -0.514508       -14.0005
  48   2.0000      -0.503096       -13.6899
  49   2.0000      -0.501206       -13.6385
  50   2.0000      -0.491113       -13.3639
  51   2.0000      -0.483324       -13.1519
  52   2.0000      -0.478439       -13.0190
  53   2.0000      -0.473412       -12.8822
  54   2.0000      -0.462419       -12.5831
  55   2.0000      -0.452620       -12.3164
  56   2.0000      -0.444599       -12.0982
  57   2.0000      -0.439455       -11.9582
  58   2.0000      -0.430623       -11.7178
  59   2.0000      -0.424119       -11.5409
  60   2.0000      -0.419381       -11.4119
  61   2.0000      -0.418027       -11.3751
  62   2.0000      -0.405218       -11.0265
  63   2.0000      -0.363149        -9.8818
  64   2.0000      -0.334601        -9.1049
  65   2.0000      -0.328129        -8.9288
  66   2.0000      -0.282630        -7.6908
  67   0.0000       0.023512         0.6398
  68   0.0000       0.082122         2.2346
  69   0.0000       0.113959         3.1010
  70   0.0000       0.116131         3.1601
  71   0.0000       0.130037         3.5385

MULLIKEN ATOMIC CHARGES
-----------------------
   0 S :    0.080959
   1 C :   -0.119198
   2 C :   -0.049183
   3 C :   -0.069044
   4 C :   -0.072329
   5 H :    0.025707
   6 C :    0.076545
   7 H :    0.008430
   8 H :    0.032572
   9 C :   -0.077779
  10 H :    0.031210
  11 H :    0.034969
  12 C :   -0.004075
  13 H :    0.020711
  14 H :    0.023352
  15 H :    0.010480
  16 S :    0.081984
  17 C :   -0.093003
  18 C :   -0.048570
  19 C :   -0.105244
  20 C :   -0.106492
  21 H :    0.027643
  22 C :    0.094307
  23 H :    0.007795
  24 H :    0.011900
  25 C :   -0.043337
  26 H :    0.022322
  27 H :    0.021163
  28 C :   -0.021579
  29 H :    0.029380
  30 H :    0.033391
  31 H :    0.020031
  32 H :    0.049288
  33 H :    0.065694
Sum of atomic charges:    0.0000000

LOEWDIN ATOMIC CHARGES
----------------------
   0 S :    0.406577
   1 C :   -0.194017
   2 C :   -0.056452
   3 C :   -0.079085
   4 C :   -0.180406
   5 H :    0.023970
   6 C :   -0.024187
   7 H :    0.021557
   8 H :    0.034032
   9 C :   -0.036137
  10 H :    0.026093
  11 H :    0.028740
  12 C :   -0.062701
  13 H :    0.023686
  14 H :    0.021583
  15 H :    0.024771
  16 S :    0.415813
  17 C :   -0.202105
  18 C :   -0.077632
  19 C :   -0.062110
  20 C :   -0.178869
  21 H :    0.033812
  22 C :   -0.028971
  23 H :    0.006841
  24 H :    0.026846
  25 C :   -0.038416
  26 H :    0.025787
  27 H :    0.020474
  28 C :   -0.064331
  29 H :    0.026808
  30 H :    0.029773
  31 H :    0.025038
  32 H :    0.025332
  33 H :    0.037885

  Mayer bond orders larger than 0.100000
B(  0-S ,  1-C ) :   1.1283 B(  0-S ,  4-C ) :   1.1175 B(  1-C ,  2-C ) :   1.6268
B(  1-C , 32-H ) :   0.9668 B(  2-C ,  3-C ) :   1.1811 B(  2-C ,  6-C ) :   1.0406
B(  3-C ,  4-C ) :   1.6331 B(  3-C ,  5-H ) :   0.9782 B(  4-C , 20-C ) :   1.0860
B(  6-C ,  7-H ) :   0.9445 B(  6-C ,  8-H ) :   0.9337 B(  6-C ,  9-C ) :   1.0651
B(  9-C , 10-H ) :   0.9563 B(  9-C , 11-H ) :   0.9587 B(  9-C , 12-C ) :   1.0633
B( 12-C , 13-H ) :   0.9739 B( 12-C , 14-H ) :   0.9742 B( 12-C , 15-H ) :   0.9726
B( 16-S , 17-C ) :   1.1547 B( 16-S , 20-C ) :   1.1278 B( 17-C , 18-C ) :   1.6373
B( 17-C , 33-H ) :   0.9625 B( 18-C , 19-C ) :   1.2288 B( 18-C , 21-H ) :   0.9815
B( 19-C , 20-C ) :   1.6093 B( 19-C , 22-C ) :   1.0361 B( 22-C , 23-H ) :   0.9294
B( 22-C , 24-H ) :   0.9210 B( 22-C , 25-C ) :   1.0466 B( 25-C , 26-H ) :   0.9535
B( 25-C , 27-H ) :   0.9617 B( 25-C , 28-C ) :   1.0690 B( 28-C , 29-H ) :   0.9764
B( 28-C , 30-H ) :   0.9754 B( 28-C , 31-H ) :   0.9750

Dispersion correction           -0.013552050
FINAL SINGLE POINT ENERGY     -1339.859354502442

DIPOLE MOMENT
-------------
                                X             Y             Z
Electronic contribution:      9.19979       1.55059      -0.64588
Nuclear contribution   :     -9.25263      -1.64720       0.60100
                        -----------------------------------------
Total Dipole Moment    :     -0.05284      -0.09661      -0.04488
                        -----------------------------------------
Magnitude (a.u.)       :      0.11891
Magnitude (Debye)      :      0.30225

Rotational constants in cm-1:     0.022316     0.007685     0.005872
Rotational constants in MHz :   669.002634   230.402378   176.048939

                             ****ORCA TERMINATED NORMALLY****
TOTAL RUN TIME: 0 days 0 hours 0 minutes 20 seconds 665 msec
