                         Program Version 4.2.1 -  RELEASE  -
|  1> ! wB97X-D3 SP def2-SVP
|  2> %pal
|  3> nprocs 24
|  4> end
|  5>
|  6> * xyz 0 1
|  7> S 	 -33.4567 	 -31.4729 	 -95.7123
|  8> C 	 -33.5032 	 -30.6016 	 -97.1936
|  9> C 	 -32.2093 	 -30.4516 	 -97.7596
| 10> C 	 -31.2743 	 -31.3295 	 -97.1185
| 11> C 	 -31.7418 	 -31.9336 	 -95.9699
| 12> H 	 -30.2265 	 -31.4181 	 -97.4117
| 13> C 	 -31.8851 	 -29.5743 	 -98.9521
| 14> H 	 -30.8773 	 -29.2272 	 -98.9538
| 15> H 	 -32.3895 	 -28.6097 	 -98.714
| 16> C 	 -32.4798 	 -30.0988 	 -100.265
| 17> H 	 -33.4989 	 -30.0749 	 -100.107
| 18> H 	 -32.2868 	 -29.3663 	 -101.078
| 19> C 	 -31.9733 	 -31.4563 	 -100.697
| 20> H 	 -31.934 	 -32.272 	 -100.002
| 21> H 	 -32.3992 	 -31.8623 	 -101.628
| 22> H 	 -30.9088 	 -31.3301 	 -100.854
| 23> S 	 -32.1477 	 -34.5047 	 -95.1041
| 24> C 	 -30.8688 	 -35.2198 	 -94.1747
| 25> C 	 -29.7544 	 -34.4315 	 -94.1098
| 26> C 	 -29.8095 	 -33.1778 	 -94.8006
| 27> C 	 -31.1332 	 -33.0633 	 -95.3069
| 28> H 	 -28.8984 	 -34.814 	 -93.5616
| 29> C 	 -28.7086 	 -32.1236 	 -94.8185
| 30> H 	 -28.4426 	 -32.088 	 -95.8891
| 31> H 	 -27.835 	 -32.4629 	 -94.2271
| 32> C 	 -29.0137 	 -30.7372 	 -94.3201
| 33> H 	 -29.1196 	 -30.7277 	 -93.2717
| 34> H 	 -30.0742 	 -30.5584 	 -94.5352
| 35> C 	 -28.1593 	 -29.4787 	 -94.8668
| 36> H 	 -28.7185 	 -28.6768 	 -94.3916
| 37> H 	 -28.2097 	 -29.266 	 -95.9398
| 38> H 	 -27.1919 	 -29.4586 	 -94.3371
| 39> H 	 -34.3712 	 -29.999 	 -97.4189
| 40> H 	 -30.8993 	 -36.2006 	 -93.781
| 41> *
| 42>
| 43>                          ****END OF INPUT****

CARTESIAN COORDINATES (ANGSTROEM)
---------------------------------
  S    -33.456700  -31.472900  -95.712300
  C    -33.503200  -30.601600  -97.193600
  C    -32.209300  -30.451600  -97.759600
  C    -31.274300  -31.329500  -97.118500
  C    -31.741800  -31.933600  -95.969900
  H    -30.226500  -31.418100  -97.411700
  C    -31.885100  -29.574300  -98.952100
  H    -30.877300  -29.227200  -98.953800
  H    -32.389500  -28.609700  -98.714000
  C    -32.479800  -30.098800  -100.265000
  H    -33.498900  -30.074900  -100.107000
  H    -32.286800  -29.366300  -101.078000
  C    -31.973300  -31.456300  -100.697000
  H    -31.934000  -32.272000  -100.002000
  H    -32.399200  -31.862300  -101.628000
  H    -30.908800  -31.330100  -100.854000
  S    -32.147700  -34.504700  -95.104100
  C    -30.868800  -35.219800  -94.174700
  C    -29.754400  -34.431500  -94.109800
  C    -29.809500  -33.177800  -94.800600
  C    -31.133200  -33.063300  -95.306900
  H    -28.898400  -34.814000  -93.561600
  C    -28.708600  -32.123600  -94.818500
  H    -28.442600  -32.088000  -95.889100
  H    -27.835000  -32.462900  -94.227100
  C    -29.013700  -30.737200  -94.320100
  H    -29.119600  -30.727700  -93.271700
  H    -30.074200  -30.558400  -94.535200
  C    -28.159300  -29.478700  -94.866800
  H    -28.718500  -28.676800  -94.391600
  H    -28.209700  -29.266000  -95.939800
  H    -27.191900  -29.458600  -94.337100
  H    -34.371200  -29.999000  -97.418900
  H    -30.899300  -36.200600  -93.781000

 Total Charge           Charge          ....    0
 Multiplicity           Mult            ....    1
 Number of Electrons    NEL             ....  134
 Basis Dimension        Dim             ....  322

ORBITAL ENERGIES
----------------

  NO   OCC          E(Eh)            E(eV)
   0   2.0000     -88.967516     -2420.9292
   1   2.0000     -88.966618     -2420.9048
   2   2.0000     -10.328074      -281.0412
   3   2.0000     -10.327448      -281.0242
   4   2.0000     -10.315839      -280.7082
   5   2.0000     -10.308091      -280.4974
   6   2.0000     -10.307977      -280.4943
   7   2.0000     -10.306122      -280.4438
   8   2.0000     -10.296232      -280.1747
   9   2.0000     -10.295246      -280.1479
  10   2.0000     -10.292545      -280.0744
  11   2.0000     -10.290525      -280.0194
  12   2.0000     -10.286803      -279.9181
  13   2.0000     -10.284128      -279.8454
  14   2.0000     -10.281701      -279.7793
  15   2.0000     -10.270691      -279.4797
  16   2.0000      -8.081935      -219.9206
  17   2.0000      -8.081140      -219.8990
  18   2.0000      -6.040360      -164.3666
  19   2.0000      -6.039607      -164.3460
  20   2.0000      -6.036580      -164.2637
  21   2.0000      -6.035616      -164.2375
  22   2.0000      -6.032705      -164.1582
  23   2.0000      -6.032018      -164.1396
  24   2.0000      -1.003138       -27.2968
  25   2.0000      -0.980057       -26.6687
  26   2.0000      -0.913455       -24.8564
  27   2.0000      -0.905921       -24.6514
  28   2.0000      -0.867011       -23.5926
  29   2.0000      -0.849883       -23.1265
  30   2.0000      -0.844365       -22.9763
  31   2.0000      -0.812334       -22.1047
  32   2.0000      -0.787020       -21.4159
  33   2.0000      -0.770782       -20.9740
  34   2.0000      -0.709879       -19.3168
  35   2.0000      -0.708173       -19.2704
  36   2.0000      -0.689600       -18.7650
  37   2.0000      -0.659950       -17.9582
  38   2.0000      -0.640111       -17.4183
  39   2.0000      -0.614486       -16.7210
  40   2.0000      -0.594727       -16.1834
  41   2.0000      -0.573245       -15.5988
  42   2.0000      -0.562346       -15.3022
  43   2.0000      -0.546568       -14.8729
  44   2.0000      -0.539169       -14.6715
  45   2.0000      -0.518605       -14.1120
  46   2.0000      -0.512116       -13.9354
  47   2.0000      -0.507414       -13.8074
  48   2.0000      -0.507079       -13.7983
  49   2.0000      -0.497258       -13.5311
  50   2.0000      -0.487357       -13.2617
  51   2.0000      -0.485246       -13.2042
  52   2.0000      -0.472898       -12.8682
  53   2.0000      -0.464569       -12.6416
  54   2.0000      -0.457370       -12.4457
  55   2.0000      -0.445620       -12.1259
  56   2.0000      -0.441419       -12.0116
  57   2.0000      -0.439034       -11.9467
  58   2.0000      -0.432981       -11.7820
  59   2.0000      -0.425856       -11.5881
  60   2.0000      -0.421190       -11.4612
  61   2.0000      -0.416321       -11.3287
  62   2.0000      -0.407837       -11.0978
  63   2.0000      -0.349942        -9.5224
  64   2.0000      -0.333141        -9.0652
  65   2.0000      -0.324887        -8.8406
  66   2.0000      -0.282786        -7.6950
  67   0.0000       0.022944         0.6243
  68   0.0000       0.068263         1.8575
  69   0.0000       0.104735         2.8500
  70   0.0000       0.117576         3.1994
  71   0.0000       0.137249         3.7347

MULLIKEN ATOMIC CHARGES
-----------------------
   0 S :    0.107049
   1 C :   -0.127540
   2 C :   -0.114309
   3 C :    0.033062
   4 C :   -0.168664
   5 H :    0.014356
   6 C :    0.060256
   7 H :    0.014398
   8 H :    0.025587
   9 C :   -0.016252
  10 H :    0.008356
  11 H :    0.032500
  12 C :   -0.043171
  13 H :    0.032235
  14 H :    0.037467
  15 H :    0.009958
  16 S :    0.125811
  17 C :   -0.078010
  18 C :   -0.044349
  19 C :   -0.029042
  20 C :   -0.172094
  21 H :    0.011949
  22 C :    0.103871
  23 H :    0.033893
  24 H :    0.025611
  25 C :   -0.099695
  26 H :    0.013674
  27 H :    0.030423
  28 C :   -0.043604
  29 H :    0.027710
  30 H :    0.046988
  31 H :    0.045644
  32 H :    0.056802
  33 H :    0.039129
Sum of atomic charges:    0.0000000

LOEWDIN ATOMIC CHARGES
----------------------
   0 S :    0.401792
   1 C :   -0.205658
   2 C :   -0.059109
   3 C :   -0.059532
   4 C :   -0.192158
   5 H :    0.031858
   6 C :   -0.034578
   7 H :    0.023228
   8 H :    0.038944
   9 C :   -0.031481
  10 H :    0.011616
  11 H :    0.030555
  12 C :   -0.070776
  13 H :    0.024245
  14 H :    0.029707
  15 H :    0.024391
  16 S :    0.407914
  17 C :   -0.191728
  18 C :   -0.070893
  19 C :   -0.051648
  20 C :   -0.189426
  21 H :    0.029958
  22 C :   -0.036090
  23 H :    0.035843
  24 H :    0.034073
  25 C :   -0.048572
  26 H :    0.020120
  27 H :    0.027357
  28 C :   -0.065548
  29 H :    0.031366
  30 H :    0.028524
  31 H :    0.029528
  32 H :    0.024534
  33 H :    0.021640

  Mayer bond orders larger than 0.100000
B(  0-S ,  1-C ) :   1.1641 B(  0-S ,  4-C ) :   1.1400 B(  1-C ,  2-C ) :   1.5628
B(  1-C , 32-H ) :   0.9653 B(  2-C ,  3-C ) :   1.2698 B(  2-C ,  6-C ) :   1.0236
B(  3-C ,  4-C ) :   1.5495 B(  3-C ,  5-H ) :   0.9854 B(  4-C , 20-C ) :   1.0686
B(  6-C ,  7-H ) :   0.9457 B(  6-C ,  8-H ) :   0.9331 B(  6-C ,  9-C ) :   1.0717
B(  9-C , 10-H ) :   0.9547 B(  9-C , 11-H ) :   0.9525 B(  9-C , 12-C ) :   1.0726
B( 12-C , 13-H ) :   0.9751 B( 12-C , 14-H ) :   0.9744 B( 12-C , 15-H ) :   0.9705
B( 16-S , 17-C ) :   1.1336 B( 16-S , 20-C ) :   1.1594 B( 17-C , 18-C ) :   1.6287
B( 17-C , 33-H ) :   0.9696 B( 18-C , 19-C ) :   1.2480 B( 18-C , 21-H ) :   0.9859
B( 19-C , 20-C ) :   1.5560 B( 19-C , 22-C ) :   1.0341 B( 22-C , 23-H ) :   0.9245
B( 22-C , 24-H ) :   0.9364 B( 22-C , 25-C ) :   1.0585 B( 25-C , 26-H ) :   0.9487
B( 25-C , 27-H ) :   0.9568 B( 25-C , 28-C ) :   1.0703 B( 28-C , 29-H ) :   0.9725
B( 28-C , 30-H ) :   0.9759 B( 28-C , 31-H ) :   0.9774

Dispersion correction           -0.015032473
FINAL SINGLE POINT ENERGY     -1339.864356279361

DIPOLE MOMENT
-------------
                                X             Y             Z
Electronic contribution:    -14.72336     -15.75306      13.02629
Nuclear contribution   :     15.13048      16.13780     -13.21248
                        -----------------------------------------
Total Dipole Moment    :      0.40712       0.38474      -0.18619
                        -----------------------------------------
Magnitude (a.u.)       :      0.59029
Magnitude (Debye)      :      1.50039

Rotational constants in cm-1:     0.017448     0.009475     0.007613
Rotational constants in MHz :   523.089112   284.051586   228.218276

                             ****ORCA TERMINATED NORMALLY****
TOTAL RUN TIME: 0 days 0 hours 0 minutes 21 seconds 984 msec
