                         Program Version 4.2.1 -  RELEASE  -
|  1> ! wB97X-D3 SP def2-SVP
|  2> %pal
|  3> nprocs 24
|  4> end
|  5>
|  6> * xyz 0 1
|  7> S 	 -107.584 	 49.9905 	 -109.471
|  8> C 	 -106.265 	 50.8622 	 -110.262
|  9> C 	 -106.548 	 52.1803 	 -110.386
| 10> C 	 -107.897 	 52.4836 	 -110.039
| 11> C 	 -108.618 	 51.4278 	 -109.673
| 12> H 	 -108.43 	 53.4091 	 -110.129
| 13> C 	 -105.586 	 53.1917 	 -110.994
| 14> H 	 -105.992 	 53.5924 	 -111.91
| 15> H 	 -104.655 	 52.7304 	 -111.332
| 16> C 	 -105.051 	 54.3447 	 -110.173
| 17> H 	 -104.306 	 53.93 	 -109.445
| 18> H 	 -104.492 	 55.1166 	 -110.684
| 19> C 	 -106.121 	 55.1726 	 -109.422
| 20> H 	 -105.641 	 56.0067 	 -108.862
| 21> H 	 -106.867 	 55.5813 	 -110.044
| 22> H 	 -106.458 	 54.4813 	 -108.7
| 23> S 	 -110.682 	 52.6619 	 -108.507
| 24> C 	 -112.285 	 52.086 	 -108.715
| 25> C 	 -112.297 	 51.0352 	 -109.565
| 26> C 	 -111.01 	 50.6007 	 -110.021
| 27> C 	 -110.042 	 51.4185 	 -109.508
| 28> H 	 -113.272 	 50.5746 	 -109.708
| 29> C 	 -110.798 	 49.3825 	 -110.951
| 30> H 	 -111.572 	 48.6119 	 -110.813
| 31> H 	 -109.951 	 48.8133 	 -110.553
| 32> C 	 -110.694 	 49.6446 	 -112.464
| 33> H 	 -110.606 	 48.6365 	 -112.918
| 34> H 	 -109.833 	 50.2313 	 -112.682
| 35> C 	 -111.989 	 50.134 	 -113.199
| 36> H 	 -112.74 	 49.3603 	 -113.251
| 37> H 	 -111.781 	 50.2838 	 -114.214
| 38> H 	 -112.497 	 51.0189 	 -112.755
| 39> H 	 -105.204 	 50.4867 	 -110.425
| 40> H 	 -113.147 	 52.5049 	 -108.176
| 41> *
| 42>
| 43>                          ****END OF INPUT****

CARTESIAN COORDINATES (ANGSTROEM)
---------------------------------
  S    -107.584000   49.990500  -109.471000
  C    -106.265000   50.862200  -110.262000
  C    -106.548000   52.180300  -110.386000
  C    -107.897000   52.483600  -110.039000
  C    -108.618000   51.427800  -109.673000
  H    -108.430000   53.409100  -110.129000
  C    -105.586000   53.191700  -110.994000
  H    -105.992000   53.592400  -111.910000
  H    -104.655000   52.730400  -111.332000
  C    -105.051000   54.344700  -110.173000
  H    -104.306000   53.930000  -109.445000
  H    -104.492000   55.116600  -110.684000
  C    -106.121000   55.172600  -109.422000
  H    -105.641000   56.006700  -108.862000
  H    -106.867000   55.581300  -110.044000
  H    -106.458000   54.481300  -108.700000
  S    -110.682000   52.661900  -108.507000
  C    -112.285000   52.086000  -108.715000
  C    -112.297000   51.035200  -109.565000
  C    -111.010000   50.600700  -110.021000
  C    -110.042000   51.418500  -109.508000
  H    -113.272000   50.574600  -109.708000
  C    -110.798000   49.382500  -110.951000
  H    -111.572000   48.611900  -110.813000
  H    -109.951000   48.813300  -110.553000
  C    -110.694000   49.644600  -112.464000
  H    -110.606000   48.636500  -112.918000
  H    -109.833000   50.231300  -112.682000
  C    -111.989000   50.134000  -113.199000
  H    -112.740000   49.360300  -113.251000
  H    -111.781000   50.283800  -114.214000
  H    -112.497000   51.018900  -112.755000
  H    -105.204000   50.486700  -110.425000
  H    -113.147000   52.504900  -108.176000

 Total Charge           Charge          ....    0
 Multiplicity           Mult            ....    1
 Number of Electrons    NEL             ....  134
 Basis Dimension        Dim             ....  322

ORBITAL ENERGIES
----------------

  NO   OCC          E(Eh)            E(eV)
   0   2.0000     -88.965448     -2420.8729
   1   2.0000     -88.963177     -2420.8111
   2   2.0000     -10.323851      -280.9263
   3   2.0000     -10.320040      -280.8226
   4   2.0000     -10.317619      -280.7567
   5   2.0000     -10.312082      -280.6060
   6   2.0000     -10.303513      -280.3728
   7   2.0000     -10.301079      -280.3066
   8   2.0000     -10.292825      -280.0820
   9   2.0000     -10.290042      -280.0063
  10   2.0000     -10.290009      -280.0054
  11   2.0000     -10.286928      -279.9215
  12   2.0000     -10.286176      -279.9011
  13   2.0000     -10.284719      -279.8614
  14   2.0000     -10.272705      -279.5345
  15   2.0000     -10.268116      -279.4096
  16   2.0000      -8.079367      -219.8508
  17   2.0000      -8.079321      -219.8495
  18   2.0000      -6.038046      -164.3036
  19   2.0000      -6.037735      -164.2951
  20   2.0000      -6.034243      -164.2001
  21   2.0000      -6.033593      -164.1824
  22   2.0000      -6.030140      -164.0885
  23   2.0000      -6.029734      -164.0774
  24   2.0000      -1.016809       -27.6688
  25   2.0000      -0.991021       -26.9670
  26   2.0000      -0.912060       -24.8184
  27   2.0000      -0.901004       -24.5176
  28   2.0000      -0.877852       -23.8876
  29   2.0000      -0.850074       -23.1317
  30   2.0000      -0.842312       -22.9205
  31   2.0000      -0.820117       -22.3165
  32   2.0000      -0.788080       -21.4447
  33   2.0000      -0.777901       -21.1678
  34   2.0000      -0.708303       -19.2739
  35   2.0000      -0.695138       -18.9157
  36   2.0000      -0.690230       -18.7821
  37   2.0000      -0.665289       -18.1034
  38   2.0000      -0.635446       -17.2914
  39   2.0000      -0.617534       -16.8040
  40   2.0000      -0.595142       -16.1946
  41   2.0000      -0.574764       -15.6401
  42   2.0000      -0.551922       -15.0185
  43   2.0000      -0.550084       -14.9685
  44   2.0000      -0.541929       -14.7466
  45   2.0000      -0.537678       -14.6310
  46   2.0000      -0.518575       -14.1111
  47   2.0000      -0.511632       -13.9222
  48   2.0000      -0.505065       -13.7435
  49   2.0000      -0.497772       -13.5451
  50   2.0000      -0.486835       -13.2474
  51   2.0000      -0.482593       -13.1320
  52   2.0000      -0.475055       -12.9269
  53   2.0000      -0.470261       -12.7964
  54   2.0000      -0.461377       -12.5547
  55   2.0000      -0.446167       -12.1408
  56   2.0000      -0.441477       -12.0132
  57   2.0000      -0.432587       -11.7713
  58   2.0000      -0.430621       -11.7178
  59   2.0000      -0.422075       -11.4852
  60   2.0000      -0.418083       -11.3766
  61   2.0000      -0.408446       -11.1144
  62   2.0000      -0.406143       -11.0517
  63   2.0000      -0.354081        -9.6350
  64   2.0000      -0.333608        -9.0779
  65   2.0000      -0.330327        -8.9887
  66   2.0000      -0.296881        -8.0786
  67   0.0000       0.033394         0.9087
  68   0.0000       0.077738         2.1153
  69   0.0000       0.107304         2.9199
  70   0.0000       0.122063         3.3215
  71   0.0000       0.130009         3.5377

MULLIKEN ATOMIC CHARGES
-----------------------
   0 S :    0.104091
   1 C :   -0.145941
   2 C :   -0.060235
   3 C :    0.014928
   4 C :   -0.120750
   5 H :    0.008079
   6 C :    0.089777
   7 H :    0.029229
   8 H :    0.011557
   9 C :   -0.106938
  10 H :    0.027881
  11 H :    0.024550
  12 C :   -0.051722
  13 H :    0.032770
  14 H :    0.031793
  15 H :    0.036450
  16 S :    0.110482
  17 C :   -0.103085
  18 C :   -0.045113
  19 C :   -0.014401
  20 C :   -0.178376
  21 H :    0.017776
  22 C :    0.068168
  23 H :    0.011980
  24 H :    0.023712
  25 C :   -0.052444
  26 H :    0.031276
  27 H :    0.036766
  28 C :   -0.044863
  29 H :    0.013740
  30 H :    0.021987
  31 H :    0.042949
  32 H :    0.068875
  33 H :    0.065051
Sum of atomic charges:    0.0000000

LOEWDIN ATOMIC CHARGES
----------------------
   0 S :    0.378367
   1 C :   -0.194142
   2 C :   -0.065064
   3 C :   -0.064000
   4 C :   -0.174545
   5 H :    0.028104
   6 C :   -0.033305
   7 H :    0.030004
   8 H :    0.032488
   9 C :   -0.043797
  10 H :    0.025999
  11 H :    0.021795
  12 C :   -0.063803
  13 H :    0.030554
  14 H :    0.016523
  15 H :    0.020621
  16 S :    0.431974
  17 C :   -0.199313
  18 C :   -0.074458
  19 C :   -0.056871
  20 C :   -0.202744
  21 H :    0.032745
  22 C :   -0.038223
  23 H :    0.030771
  24 H :    0.025720
  25 C :   -0.031603
  26 H :    0.032818
  27 H :    0.020519
  28 C :   -0.066261
  29 H :    0.020959
  30 H :    0.020487
  31 H :    0.027261
  32 H :    0.044369
  33 H :    0.036049

  Mayer bond orders larger than 0.100000
B(  0-S ,  1-C ) :   1.1111 B(  0-S ,  4-C ) :   1.1117 B(  1-C ,  2-C ) :   1.6786
B(  1-C , 32-H ) :   0.9526 B(  2-C ,  3-C ) :   1.1790 B(  2-C ,  6-C ) :   1.0174
B(  3-C ,  4-C ) :   1.6341 B(  3-C ,  5-H ) :   0.9971 B(  4-C , 20-C ) :   1.0343
B(  6-C ,  7-H ) :   0.9416 B(  6-C ,  8-H ) :   0.9380 B(  6-C ,  9-C ) :   1.0715
B(  9-C , 10-H ) :   0.9566 B(  9-C , 11-H ) :   0.9581 B(  9-C , 12-C ) :   1.0843
B( 12-C , 13-H ) :   0.9725 B( 12-C , 14-H ) :   0.9753 B( 12-C , 15-H ) :   0.9723
B( 16-S , 17-C ) :   1.1494 B( 16-S , 20-C ) :   1.1604 B( 17-C , 18-C ) :   1.6243
B( 17-C , 33-H ) :   0.9660 B( 18-C , 19-C ) :   1.2208 B( 18-C , 21-H ) :   0.9920
B( 19-C , 20-C ) :   1.5942 B( 19-C , 22-C ) :   1.0331 B( 22-C , 23-H ) :   0.9349
B( 22-C , 24-H ) :   0.9280 B( 22-C , 25-C ) :   1.0769 B( 25-C , 26-H ) :   0.9526
B( 25-C , 27-H ) :   0.9624 B( 25-C , 28-C ) :   1.0702 B( 28-C , 29-H ) :   0.9747
B( 28-C , 30-H ) :   0.9736 B( 28-C , 31-H ) :   0.9769

Dispersion correction           -0.014770621
FINAL SINGLE POINT ENERGY     -1339.874998090625

DIPOLE MOMENT
-------------
                                X             Y             Z
Electronic contribution:     -3.92837      -5.55971      14.19672
Nuclear contribution   :      3.90157       5.65168     -14.52892
                        -----------------------------------------
Total Dipole Moment    :     -0.02680       0.09197      -0.33220
                        -----------------------------------------
Magnitude (a.u.)       :      0.34573
Magnitude (Debye)      :      0.87879

Rotational constants in cm-1:     0.019935     0.008748     0.007433
Rotational constants in MHz :   597.638211   262.253927   222.846108

                             ****ORCA TERMINATED NORMALLY****
TOTAL RUN TIME: 0 days 0 hours 0 minutes 21 seconds 890 msec
