                         Program Version 4.2.1 -  RELEASE  -
|  1> ! wB97X-D3 SP def2-SVP
|  2> %pal
|  3> nprocs 24
|  4> end
|  5>
|  6> * xyz 0 1
|  7> S 	 -106.872 	 55.3981 	 -88.5337
|  8> C 	 -105.511 	 55.181 	 -87.5429
|  9> C 	 -104.405 	 55.2006 	 -88.3772
| 10> C 	 -104.723 	 55.0521 	 -89.7527
| 11> C 	 -106.054 	 55.178 	 -90.0636
| 12> H 	 -104.039 	 54.981 	 -90.5841
| 13> C 	 -103.012 	 55.1145 	 -87.8363
| 14> H 	 -102.6 	 54.1545 	 -88.0741
| 15> H 	 -103.054 	 55.0831 	 -86.7215
| 16> C 	 -102.14 	 56.3301 	 -88.2241
| 17> H 	 -102.082 	 56.4982 	 -89.3168
| 18> H 	 -102.603 	 57.2947 	 -87.8466
| 19> C 	 -100.665 	 56.3139 	 -87.6938
| 20> H 	 -99.9294 	 57.0181 	 -88.1697
| 21> H 	 -100.593 	 56.4823 	 -86.6347
| 22> H 	 -100.346 	 55.2881 	 -87.8279
| 23> S 	 -108.319 	 54.5944 	 -91.5131
| 24> C 	 -108.363 	 55.0198 	 -93.1871
| 25> C 	 -107.161 	 55.4639 	 -93.6281
| 26> C 	 -106.237 	 55.6404 	 -92.5544
| 27> C 	 -106.675 	 55.1359 	 -91.3725
| 28> H 	 -107.004 	 55.6886 	 -94.668
| 29> C 	 -104.924 	 56.3333 	 -92.8242
| 30> H 	 -104.398 	 56.7094 	 -91.8928
| 31> H 	 -105.255 	 57.2437 	 -93.3434
| 32> C 	 -103.903 	 55.5966 	 -93.7573
| 33> H 	 -104.369 	 54.8845 	 -94.4378
| 34> H 	 -103.38 	 54.9272 	 -93.0825
| 35> C 	 -102.891 	 56.5133 	 -94.3791
| 36> H 	 -102.413 	 56.0032 	 -95.1964
| 37> H 	 -102.222 	 56.8336 	 -93.5744
| 38> H 	 -103.349 	 57.4086 	 -94.6502
| 39> H 	 -105.465 	 55.3691 	 -86.4912
| 40> H 	 -109.21 	 54.8274 	 -93.842
| 41> *
| 42>
| 43>                          ****END OF INPUT****

CARTESIAN COORDINATES (ANGSTROEM)
---------------------------------
  S    -106.872000   55.398100  -88.533700
  C    -105.511000   55.181000  -87.542900
  C    -104.405000   55.200600  -88.377200
  C    -104.723000   55.052100  -89.752700
  C    -106.054000   55.178000  -90.063600
  H    -104.039000   54.981000  -90.584100
  C    -103.012000   55.114500  -87.836300
  H    -102.600000   54.154500  -88.074100
  H    -103.054000   55.083100  -86.721500
  C    -102.140000   56.330100  -88.224100
  H    -102.082000   56.498200  -89.316800
  H    -102.603000   57.294700  -87.846600
  C    -100.665000   56.313900  -87.693800
  H    -99.929400   57.018100  -88.169700
  H    -100.593000   56.482300  -86.634700
  H    -100.346000   55.288100  -87.827900
  S    -108.319000   54.594400  -91.513100
  C    -108.363000   55.019800  -93.187100
  C    -107.161000   55.463900  -93.628100
  C    -106.237000   55.640400  -92.554400
  C    -106.675000   55.135900  -91.372500
  H    -107.004000   55.688600  -94.668000
  C    -104.924000   56.333300  -92.824200
  H    -104.398000   56.709400  -91.892800
  H    -105.255000   57.243700  -93.343400
  C    -103.903000   55.596600  -93.757300
  H    -104.369000   54.884500  -94.437800
  H    -103.380000   54.927200  -93.082500
  C    -102.891000   56.513300  -94.379100
  H    -102.413000   56.003200  -95.196400
  H    -102.222000   56.833600  -93.574400
  H    -103.349000   57.408600  -94.650200
  H    -105.465000   55.369100  -86.491200
  H    -109.210000   54.827400  -93.842000

 Total Charge           Charge          ....    0
 Multiplicity           Mult            ....    1
 Number of Electrons    NEL             ....  134
 Basis Dimension        Dim             ....  322

ORBITAL ENERGIES
----------------

  NO   OCC          E(Eh)            E(eV)
   0   2.0000     -88.964659     -2420.8514
   1   2.0000     -88.961864     -2420.7754
   2   2.0000     -10.328388      -281.0497
   3   2.0000     -10.324339      -280.9395
   4   2.0000     -10.316079      -280.7148
   5   2.0000     -10.309095      -280.5247
   6   2.0000     -10.301942      -280.3301
   7   2.0000     -10.298173      -280.2275
   8   2.0000     -10.297592      -280.2117
   9   2.0000     -10.295414      -280.1524
  10   2.0000     -10.293162      -280.0912
  11   2.0000     -10.291582      -280.0482
  12   2.0000     -10.289145      -279.9819
  13   2.0000     -10.286254      -279.9032
  14   2.0000     -10.280420      -279.7444
  15   2.0000     -10.273264      -279.5497
  16   2.0000      -8.080295      -219.8760
  17   2.0000      -8.077503      -219.8000
  18   2.0000      -6.038788      -164.3238
  19   2.0000      -6.035953      -164.2466
  20   2.0000      -6.034765      -164.2143
  21   2.0000      -6.031736      -164.1319
  22   2.0000      -6.030917      -164.1096
  23   2.0000      -6.028376      -164.0405
  24   2.0000      -1.017006       -27.6741
  25   2.0000      -0.996045       -27.1038
  26   2.0000      -0.912737       -24.8368
  27   2.0000      -0.908170       -24.7125
  28   2.0000      -0.876945       -23.8629
  29   2.0000      -0.859821       -23.3969
  30   2.0000      -0.843930       -22.9645
  31   2.0000      -0.822852       -22.3909
  32   2.0000      -0.782268       -21.2866
  33   2.0000      -0.770535       -20.9673
  34   2.0000      -0.711177       -19.3521
  35   2.0000      -0.701380       -19.0855
  36   2.0000      -0.695910       -18.9367
  37   2.0000      -0.667437       -18.1619
  38   2.0000      -0.644697       -17.5431
  39   2.0000      -0.623165       -16.9572
  40   2.0000      -0.601537       -16.3687
  41   2.0000      -0.573170       -15.5968
  42   2.0000      -0.560858       -15.2617
  43   2.0000      -0.552013       -15.0210
  44   2.0000      -0.540521       -14.7083
  45   2.0000      -0.527136       -14.3441
  46   2.0000      -0.519571       -14.1382
  47   2.0000      -0.516694       -14.0600
  48   2.0000      -0.510478       -13.8908
  49   2.0000      -0.504870       -13.7382
  50   2.0000      -0.496994       -13.5239
  51   2.0000      -0.486635       -13.2420
  52   2.0000      -0.471454       -12.8289
  53   2.0000      -0.467786       -12.7291
  54   2.0000      -0.458546       -12.4777
  55   2.0000      -0.456355       -12.4181
  56   2.0000      -0.445578       -12.1248
  57   2.0000      -0.441794       -12.0218
  58   2.0000      -0.430447       -11.7131
  59   2.0000      -0.422833       -11.5059
  60   2.0000      -0.416617       -11.3367
  61   2.0000      -0.414794       -11.2871
  62   2.0000      -0.406095       -11.0504
  63   2.0000      -0.362511        -9.8644
  64   2.0000      -0.331488        -9.0202
  65   2.0000      -0.326601        -8.8873
  66   2.0000      -0.291187        -7.9236
  67   0.0000       0.027842         0.7576
  68   0.0000       0.085786         2.3344
  69   0.0000       0.115925         3.1545
  70   0.0000       0.118817         3.2332
  71   0.0000       0.122574         3.3354

MULLIKEN ATOMIC CHARGES
-----------------------
   0 S :    0.105800
   1 C :   -0.096310
   2 C :   -0.104250
   3 C :    0.018255
   4 C :   -0.124785
   5 H :   -0.001990
   6 C :    0.072795
   7 H :    0.032098
   8 H :    0.014185
   9 C :   -0.114024
  10 H :    0.032612
  11 H :    0.036031
  12 C :   -0.048473
  13 H :    0.047353
  14 H :    0.026693
  15 H :    0.020251
  16 S :    0.108239
  17 C :   -0.087825
  18 C :   -0.022495
  19 C :   -0.040015
  20 C :   -0.131229
  21 H :    0.017762
  22 C :   -0.003340
  23 H :    0.041937
  24 H :    0.027224
  25 C :   -0.074305
  26 H :    0.027523
  27 H :    0.017231
  28 C :    0.010596
  29 H :    0.042779
  30 H :    0.025938
  31 H :    0.009096
  32 H :    0.054341
  33 H :    0.060301
Sum of atomic charges:    0.0000000

LOEWDIN ATOMIC CHARGES
----------------------
   0 S :    0.424500
   1 C :   -0.211618
   2 C :   -0.066302
   3 C :   -0.069635
   4 C :   -0.187908
   5 H :    0.026451
   6 C :   -0.032960
   7 H :    0.028389
   8 H :    0.032220
   9 C :   -0.046968
  10 H :    0.022148
  11 H :    0.029665
  12 C :   -0.072648
  13 H :    0.033766
  14 H :    0.020047
  15 H :    0.021525
  16 S :    0.414514
  17 C :   -0.181660
  18 C :   -0.069351
  19 C :   -0.055115
  20 C :   -0.202505
  21 H :    0.032174
  22 C :   -0.037844
  23 H :    0.034834
  24 H :    0.030578
  25 C :   -0.042991
  26 H :    0.022065
  27 H :    0.020854
  28 C :   -0.055661
  29 H :    0.030357
  30 H :    0.031202
  31 H :    0.014799
  32 H :    0.030570
  33 H :    0.032508

  Mayer bond orders larger than 0.100000
B(  0-S ,  1-C ) :   1.1553 B(  0-S ,  4-C ) :   1.1587 B(  1-C ,  2-C ) :   1.5689
B(  1-C , 32-H ) :   0.9679 B(  2-C ,  3-C ) :   1.2542 B(  2-C ,  6-C ) :   1.0456
B(  3-C ,  4-C ) :   1.5498 B(  3-C ,  5-H ) :   0.9977 B(  4-C , 20-C ) :   1.0674
B(  6-C ,  7-H ) :   0.9404 B(  6-C ,  8-H ) :   0.9414 B(  6-C ,  9-C ) :   1.0441
B(  9-C , 10-H ) :   0.9626 B(  9-C , 11-H ) :   0.9577 B(  9-C , 12-C ) :   1.0684
B( 12-C , 13-H ) :   0.9768 B( 12-C , 14-H ) :   0.9773 B( 12-C , 15-H ) :   0.9750
B( 16-S , 17-C ) :   1.1577 B( 16-S , 20-C ) :   1.1187 B( 17-C , 18-C ) :   1.6241
B( 17-C , 33-H ) :   0.9648 B( 18-C , 19-C ) :   1.2244 B( 18-C , 21-H ) :   0.9935
B( 19-C , 20-C ) :   1.6168 B( 19-C , 22-C ) :   1.0409 B( 22-C , 23-H ) :   0.9355
B( 22-C , 24-H ) :   0.9350 B( 22-C , 25-C ) :   1.0464 B( 25-C , 26-H ) :   0.9614
B( 25-C , 27-H ) :   0.9515 B( 25-C , 28-C ) :   1.0743 B( 28-C , 29-H ) :   0.9724
B( 28-C , 30-H ) :   0.9717 B( 28-C , 31-H ) :   0.9773

Dispersion correction           -0.013814512
FINAL SINGLE POINT ENERGY     -1339.882397156008

DIPOLE MOMENT
-------------
                                X             Y             Z
Electronic contribution:    -32.14130      -7.82228       4.72719
Nuclear contribution   :     32.74301       8.03172      -5.09779
                        -----------------------------------------
Total Dipole Moment    :      0.60172       0.20943      -0.37060
                        -----------------------------------------
Magnitude (a.u.)       :      0.73706
Magnitude (Debye)      :      1.87347

Rotational constants in cm-1:     0.016843     0.009430     0.006226
Rotational constants in MHz :   504.946700   282.709252   186.641521

                             ****ORCA TERMINATED NORMALLY****
TOTAL RUN TIME: 0 days 0 hours 0 minutes 20 seconds 443 msec
