                         Program Version 4.2.1 -  RELEASE  -
|  1> ! wB97X-D3 SP def2-SVP
|  2> %pal
|  3> nprocs 24
|  4> end
|  5>
|  6> * xyz 0 1
|  7> S 	 -145.152 	 7.39578 	 -10.8173
|  8> C 	 -143.516 	 6.99048 	 -11.0643
|  9> C 	 -142.731 	 7.87892 	 -10.3107
| 10> C 	 -143.524 	 8.84288 	 -9.56871
| 11> C 	 -144.876 	 8.75085 	 -9.75353
| 12> H 	 -143.106 	 9.49908 	 -8.87885
| 13> C 	 -141.19 	 7.92439 	 -10.2159
| 14> H 	 -140.838 	 7.01584 	 -9.73812
| 15> H 	 -140.919 	 8.73943 	 -9.67447
| 16> C 	 -140.523 	 8.08114 	 -11.6574
| 17> H 	 -140.495 	 7.08209 	 -12.128
| 18> H 	 -141.18 	 8.57874 	 -12.3612
| 19> C 	 -139.151 	 8.71296 	 -11.6141
| 20> H 	 -139.248 	 9.61587 	 -11.0501
| 21> H 	 -138.517 	 7.93318 	 -11.1806
| 22> H 	 -138.79 	 8.98381 	 -12.6311
| 23> S 	 -147.374 	 8.34442 	 -8.77214
| 24> C 	 -148.196 	 9.49908 	 -7.76417
| 25> C 	 -147.433 	 10.6612 	 -7.73554
| 26> C 	 -146.181 	 10.6338 	 -8.45967
| 27> C 	 -145.957 	 9.37245 	 -8.97611
| 28> H 	 -147.781 	 11.5223 	 -7.16729
| 29> C 	 -145.153 	 11.7591 	 -8.40361
| 30> H 	 -144.133 	 11.5042 	 -8.50842
| 31> H 	 -145.159 	 12.0265 	 -7.36341
| 32> C 	 -145.577 	 13.0626 	 -9.00487
| 33> H 	 -146.355 	 13.4372 	 -8.35853
| 34> H 	 -145.96 	 12.7321 	 -9.98259
| 35> C 	 -144.452 	 14.0982 	 -9.22958
| 36> H 	 -143.86 	 14.4603 	 -8.40904
| 37> H 	 -144.95 	 14.892 	 -9.88969
| 38> H 	 -143.725 	 13.6387 	 -9.8675
| 39> H 	 -143.197 	 6.21776 	 -11.6759
| 40> H 	 -149.09 	 9.42165 	 -7.18734
| 41> *
| 42>
| 43>                          ****END OF INPUT****

CARTESIAN COORDINATES (ANGSTROEM)
---------------------------------
  S    -145.152000    7.395780  -10.817300
  C    -143.516000    6.990480  -11.064300
  C    -142.731000    7.878920  -10.310700
  C    -143.524000    8.842880   -9.568710
  C    -144.876000    8.750850   -9.753530
  H    -143.106000    9.499080   -8.878850
  C    -141.190000    7.924390  -10.215900
  H    -140.838000    7.015840   -9.738120
  H    -140.919000    8.739430   -9.674470
  C    -140.523000    8.081140  -11.657400
  H    -140.495000    7.082090  -12.128000
  H    -141.180000    8.578740  -12.361200
  C    -139.151000    8.712960  -11.614100
  H    -139.248000    9.615870  -11.050100
  H    -138.517000    7.933180  -11.180600
  H    -138.790000    8.983810  -12.631100
  S    -147.374000    8.344420   -8.772140
  C    -148.196000    9.499080   -7.764170
  C    -147.433000   10.661200   -7.735540
  C    -146.181000   10.633800   -8.459670
  C    -145.957000    9.372450   -8.976110
  H    -147.781000   11.522300   -7.167290
  C    -145.153000   11.759100   -8.403610
  H    -144.133000   11.504200   -8.508420
  H    -145.159000   12.026500   -7.363410
  C    -145.577000   13.062600   -9.004870
  H    -146.355000   13.437200   -8.358530
  H    -145.960000   12.732100   -9.982590
  C    -144.452000   14.098200   -9.229580
  H    -143.860000   14.460300   -8.409040
  H    -144.950000   14.892000   -9.889690
  H    -143.725000   13.638700   -9.867500
  H    -143.197000    6.217760  -11.675900
  H    -149.090000    9.421650   -7.187340

 Total Charge           Charge          ....    0
 Multiplicity           Mult            ....    1
 Number of Electrons    NEL             ....  134
 Basis Dimension        Dim             ....  322

ORBITAL ENERGIES
----------------

  NO   OCC          E(Eh)            E(eV)
   0   2.0000     -88.964319     -2420.8422
   1   2.0000     -88.963261     -2420.8134
   2   2.0000     -10.331635      -281.1381
   3   2.0000     -10.330034      -281.0945
   4   2.0000     -10.317325      -280.7487
   5   2.0000     -10.310986      -280.5762
   6   2.0000     -10.307981      -280.4944
   7   2.0000     -10.305507      -280.4271
   8   2.0000     -10.297168      -280.2002
   9   2.0000     -10.289295      -279.9860
  10   2.0000     -10.289248      -279.9847
  11   2.0000     -10.285341      -279.8784
  12   2.0000     -10.284978      -279.8685
  13   2.0000     -10.283819      -279.8369
  14   2.0000     -10.283064      -279.8164
  15   2.0000     -10.279051      -279.7072
  16   2.0000      -8.079061      -219.8424
  17   2.0000      -8.078897      -219.8380
  18   2.0000      -6.037714      -164.2946
  19   2.0000      -6.037404      -164.2861
  20   2.0000      -6.033493      -164.1797
  21   2.0000      -6.033070      -164.1682
  22   2.0000      -6.029790      -164.0789
  23   2.0000      -6.029706      -164.0766
  24   2.0000      -1.009835       -27.4790
  25   2.0000      -0.986077       -26.8325
  26   2.0000      -0.917748       -24.9732
  27   2.0000      -0.906818       -24.6758
  28   2.0000      -0.871959       -23.7272
  29   2.0000      -0.853520       -23.2255
  30   2.0000      -0.845274       -23.0011
  31   2.0000      -0.817582       -22.2475
  32   2.0000      -0.785553       -21.3760
  33   2.0000      -0.773077       -21.0365
  34   2.0000      -0.707366       -19.2484
  35   2.0000      -0.701829       -19.0977
  36   2.0000      -0.694690       -18.9035
  37   2.0000      -0.664823       -18.0908
  38   2.0000      -0.649438       -17.6721
  39   2.0000      -0.621145       -16.9022
  40   2.0000      -0.599707       -16.3189
  41   2.0000      -0.573308       -15.6005
  42   2.0000      -0.568782       -15.4774
  43   2.0000      -0.565575       -15.3901
  44   2.0000      -0.532967       -14.5028
  45   2.0000      -0.525128       -14.2895
  46   2.0000      -0.521174       -14.1819
  47   2.0000      -0.517894       -14.0926
  48   2.0000      -0.514497       -14.0002
  49   2.0000      -0.501729       -13.6527
  50   2.0000      -0.490910       -13.3583
  51   2.0000      -0.488643       -13.2967
  52   2.0000      -0.478755       -13.0276
  53   2.0000      -0.464722       -12.6457
  54   2.0000      -0.461745       -12.5647
  55   2.0000      -0.448067       -12.1925
  56   2.0000      -0.446528       -12.1506
  57   2.0000      -0.433369       -11.7926
  58   2.0000      -0.428395       -11.6572
  59   2.0000      -0.425722       -11.5845
  60   2.0000      -0.414531       -11.2800
  61   2.0000      -0.412102       -11.2139
  62   2.0000      -0.406282       -11.0555
  63   2.0000      -0.362136        -9.8542
  64   2.0000      -0.329519        -8.9667
  65   2.0000      -0.323464        -8.8019
  66   2.0000      -0.287813        -7.8318
  67   0.0000       0.025972         0.7067
  68   0.0000       0.078840         2.1453
  69   0.0000       0.111569         3.0360
  70   0.0000       0.118908         3.2357
  71   0.0000       0.136123         3.7041

MULLIKEN ATOMIC CHARGES
-----------------------
   0 S :    0.095957
   1 C :   -0.090556
   2 C :   -0.121612
   3 C :    0.015591
   4 C :   -0.087805
   5 H :   -0.011500
   6 C :    0.132861
   7 H :    0.042753
   8 H :   -0.014605
   9 C :   -0.122721
  10 H :    0.022642
  11 H :    0.029148
  12 C :   -0.036475
  13 H :    0.032005
  14 H :    0.040316
  15 H :    0.039898
  16 S :    0.093742
  17 C :   -0.065501
  18 C :   -0.056058
  19 C :   -0.019858
  20 C :   -0.157023
  21 H :    0.020326
  22 C :    0.097693
  23 H :   -0.000486
  24 H :    0.011057
  25 C :   -0.104055
  26 H :    0.031615
  27 H :    0.037292
  28 C :   -0.040827
  29 H :    0.035751
  30 H :    0.050575
  31 H :    0.019737
  32 H :    0.028965
  33 H :    0.051159
Sum of atomic charges:   -0.0000000

LOEWDIN ATOMIC CHARGES
----------------------
   0 S :    0.426514
   1 C :   -0.202254
   2 C :   -0.053993
   3 C :   -0.064881
   4 C :   -0.193873
   5 H :    0.016215
   6 C :   -0.016074
   7 H :    0.034379
   8 H :    0.009831
   9 C :   -0.045432
  10 H :    0.020639
  11 H :    0.019464
  12 C :   -0.063815
  13 H :    0.021422
  14 H :    0.029900
  15 H :    0.031720
  16 S :    0.402612
  17 C :   -0.188928
  18 C :   -0.070108
  19 C :   -0.056021
  20 C :   -0.181642
  21 H :    0.028398
  22 C :   -0.037365
  23 H :    0.020365
  24 H :    0.033809
  25 C :   -0.038457
  26 H :    0.020676
  27 H :    0.028873
  28 C :   -0.068299
  29 H :    0.022482
  30 H :    0.042171
  31 H :    0.022329
  32 H :    0.017567
  33 H :    0.031779

  Mayer bond orders larger than 0.100000
B(  0-S ,  1-C ) :   1.1562 B(  0-S ,  4-C ) :   1.1589 B(  1-C ,  2-C ) :   1.5538
B(  1-C , 32-H ) :   0.9912 B(  2-C ,  3-C ) :   1.2831 B(  2-C ,  6-C ) :   1.0280
B(  3-C ,  4-C ) :   1.5450 B(  3-C ,  5-H ) :   1.0018 B(  4-C , 20-C ) :   1.0537
B(  6-C ,  7-H ) :   0.9375 B(  6-C ,  8-H ) :   0.9449 B(  6-C ,  9-C ) :   1.0415
B(  9-C , 10-H ) :   0.9541 B(  9-C , 11-H ) :   0.9659 B(  9-C , 12-C ) :   1.0857
B( 12-C , 13-H ) :   0.9774 B( 12-C , 14-H ) :   0.9756 B( 12-C , 15-H ) :   0.9733
B( 16-S , 17-C ) :   1.1399 B( 16-S , 20-C ) :   1.1357 B( 17-C , 18-C ) :   1.6252
B( 17-C , 33-H ) :   0.9720 B( 18-C , 19-C ) :   1.2303 B( 18-C , 21-H ) :   0.9813
B( 19-C , 20-C ) :   1.5964 B( 19-C , 22-C ) :   1.0357 B( 22-C , 23-H ) :   0.9478
B( 22-C , 24-H ) :   0.9256 B( 22-C , 25-C ) :   1.0372 B( 25-C , 26-H ) :   0.9604
B( 25-C , 27-H ) :   0.9622 B( 25-C , 28-C ) :   1.0858 B( 28-C , 29-H ) :   0.9755
B( 28-C , 30-H ) :   0.9738 B( 28-C , 31-H ) :   0.9719

Dispersion correction           -0.013130577
FINAL SINGLE POINT ENERGY     -1339.857170015191

DIPOLE MOMENT
-------------
                                X             Y             Z
Electronic contribution:    -24.12858     -18.27125       2.74140
Nuclear contribution   :     24.66114      18.66865      -2.49849
                        -----------------------------------------
Total Dipole Moment    :      0.53257       0.39740       0.24290
                        -----------------------------------------
Magnitude (a.u.)       :      0.70750
Magnitude (Debye)      :      1.79833

Rotational constants in cm-1:     0.017669     0.008249     0.005927
Rotational constants in MHz :   529.707139   247.309752   177.697967

                             ****ORCA TERMINATED NORMALLY****
TOTAL RUN TIME: 0 days 0 hours 0 minutes 19 seconds 654 msec
