                         Program Version 4.2.1 -  RELEASE  -
|  1> ! wB97X-D3 SP def2-SVP
|  2> %pal
|  3> nprocs 24
|  4> end
|  5>
|  6> * xyz 0 1
|  7> S 	 20.329 	 -2.10591 	 -114.555
|  8> C 	 18.63 	 -2.46081 	 -114.451
|  9> C 	 18 	 -1.84452 	 -113.428
| 10> C 	 18.9299 	 -1.00711 	 -112.742
| 11> C 	 20.2127 	 -1.04475 	 -113.238
| 12> H 	 18.842 	 -0.445824 	 -111.828
| 13> C 	 16.5045 	 -1.87147 	 -113.175
| 14> H 	 16.0564 	 -1.66808 	 -114.135
| 15> H 	 16.1576 	 -1.08528 	 -112.44
| 16> C 	 15.9508 	 -3.20627 	 -112.533
| 17> H 	 14.8025 	 -3.14772 	 -112.538
| 18> H 	 16.1898 	 -4.03286 	 -113.204
| 19> C 	 16.7446 	 -3.64832 	 -111.282
| 20> H 	 16.7559 	 -2.92184 	 -110.548
| 21> H 	 16.4631 	 -4.53602 	 -110.844
| 22> H 	 17.7359 	 -3.72539 	 -111.529
| 23> S 	 22.4705 	 0.420995 	 -113.932
| 24> C 	 23.5709 	 0.919558 	 -112.661
| 25> C 	 23.0795 	 0.641954 	 -111.426
| 26> C 	 21.7445 	 0.0601429 	 -111.445
| 27> C 	 21.4136 	 -0.345486 	 -112.732
| 28> H 	 23.6671 	 1.01221 	 -110.589
| 29> C 	 21.0339 	 -0.270159 	 -110.145
| 30> H 	 20.1538 	 -0.956488 	 -110.267
| 31> H 	 20.7244 	 0.721255 	 -109.747
| 32> C 	 21.9436 	 -0.836716 	 -109.087
| 33> H 	 21.3297 	 -0.751674 	 -108.144
| 34> H 	 22.8762 	 -0.186127 	 -108.926
| 35> C 	 22.5319 	 -2.23577 	 -109.249
| 36> H 	 21.8146 	 -3.01669 	 -109.44
| 37> H 	 23.1415 	 -2.50979 	 -108.384
| 38> H 	 23.143 	 -2.32342 	 -110.135
| 39> H 	 18.0375 	 -2.96795 	 -115.235
| 40> H 	 24.5069 	 1.41809 	 -112.875
| 41> *
| 42>
| 43>                          ****END OF INPUT****

CARTESIAN COORDINATES (ANGSTROEM)
---------------------------------
  S     20.329000   -2.105910  -114.555000
  C     18.630000   -2.460810  -114.451000
  C     18.000000   -1.844520  -113.428000
  C     18.929900   -1.007110  -112.742000
  C     20.212700   -1.044750  -113.238000
  H     18.842000   -0.445824  -111.828000
  C     16.504500   -1.871470  -113.175000
  H     16.056400   -1.668080  -114.135000
  H     16.157600   -1.085280  -112.440000
  C     15.950800   -3.206270  -112.533000
  H     14.802500   -3.147720  -112.538000
  H     16.189800   -4.032860  -113.204000
  C     16.744600   -3.648320  -111.282000
  H     16.755900   -2.921840  -110.548000
  H     16.463100   -4.536020  -110.844000
  H     17.735900   -3.725390  -111.529000
  S     22.470500    0.420995  -113.932000
  C     23.570900    0.919558  -112.661000
  C     23.079500    0.641954  -111.426000
  C     21.744500    0.060143  -111.445000
  C     21.413600   -0.345486  -112.732000
  H     23.667100    1.012210  -110.589000
  C     21.033900   -0.270159  -110.145000
  H     20.153800   -0.956488  -110.267000
  H     20.724400    0.721255  -109.747000
  C     21.943600   -0.836716  -109.087000
  H     21.329700   -0.751674  -108.144000
  H     22.876200   -0.186127  -108.926000
  C     22.531900   -2.235770  -109.249000
  H     21.814600   -3.016690  -109.440000
  H     23.141500   -2.509790  -108.384000
  H     23.143000   -2.323420  -110.135000
  H     18.037500   -2.967950  -115.235000
  H     24.506900    1.418090  -112.875000

 Total Charge           Charge          ....    0
 Multiplicity           Mult            ....    1
 Number of Electrons    NEL             ....  134
 Basis Dimension        Dim             ....  322

ORBITAL ENERGIES
----------------

  NO   OCC          E(Eh)            E(eV)
   0   2.0000     -88.966192     -2420.8932
   1   2.0000     -88.962866     -2420.8027
   2   2.0000     -10.330353      -281.1032
   3   2.0000     -10.324132      -280.9339
   4   2.0000     -10.316419      -280.7240
   5   2.0000     -10.309591      -280.5382
   6   2.0000     -10.308973      -280.5214
   7   2.0000     -10.300798      -280.2990
   8   2.0000     -10.299557      -280.2652
   9   2.0000     -10.299268      -280.2573
  10   2.0000     -10.295661      -280.1592
  11   2.0000     -10.295631      -280.1584
  12   2.0000     -10.294652      -280.1317
  13   2.0000     -10.288872      -279.9744
  14   2.0000     -10.272356      -279.5250
  15   2.0000     -10.259311      -279.1700
  16   2.0000      -8.082139      -219.9262
  17   2.0000      -8.077616      -219.8031
  18   2.0000      -6.040507      -164.3706
  19   2.0000      -6.036466      -164.2606
  20   2.0000      -6.036172      -164.2526
  21   2.0000      -6.032982      -164.1658
  22   2.0000      -6.032278      -164.1466
  23   2.0000      -6.028166      -164.0347
  24   2.0000      -1.013003       -27.5652
  25   2.0000      -0.987749       -26.8780
  26   2.0000      -0.912942       -24.8424
  27   2.0000      -0.909483       -24.7483
  28   2.0000      -0.869614       -23.6634
  29   2.0000      -0.851496       -23.1704
  30   2.0000      -0.841828       -22.9073
  31   2.0000      -0.817240       -22.2382
  32   2.0000      -0.791004       -21.5243
  33   2.0000      -0.781055       -21.2536
  34   2.0000      -0.706698       -19.2302
  35   2.0000      -0.700652       -19.0657
  36   2.0000      -0.689987       -18.7755
  37   2.0000      -0.655778       -17.8446
  38   2.0000      -0.638680       -17.3794
  39   2.0000      -0.615526       -16.7493
  40   2.0000      -0.599525       -16.3139
  41   2.0000      -0.575267       -15.6538
  42   2.0000      -0.555143       -15.1062
  43   2.0000      -0.553674       -15.0662
  44   2.0000      -0.543021       -14.7763
  45   2.0000      -0.527713       -14.3598
  46   2.0000      -0.523110       -14.2346
  47   2.0000      -0.507923       -13.8213
  48   2.0000      -0.503207       -13.6930
  49   2.0000      -0.495665       -13.4877
  50   2.0000      -0.493406       -13.4263
  51   2.0000      -0.477567       -12.9953
  52   2.0000      -0.472942       -12.8694
  53   2.0000      -0.467935       -12.7332
  54   2.0000      -0.463620       -12.6157
  55   2.0000      -0.451520       -12.2865
  56   2.0000      -0.443324       -12.0635
  57   2.0000      -0.440107       -11.9759
  58   2.0000      -0.436734       -11.8841
  59   2.0000      -0.427148       -11.6233
  60   2.0000      -0.418155       -11.3786
  61   2.0000      -0.411245       -11.1906
  62   2.0000      -0.408526       -11.1166
  63   2.0000      -0.352884        -9.6025
  64   2.0000      -0.333967        -9.0877
  65   2.0000      -0.328509        -8.9392
  66   2.0000      -0.292798        -7.9674
  67   0.0000       0.029899         0.8136
  68   0.0000       0.079293         2.1577
  69   0.0000       0.108901         2.9634
  70   0.0000       0.119818         3.2604
  71   0.0000       0.127689         3.4746

MULLIKEN ATOMIC CHARGES
-----------------------
   0 S :    0.122771
   1 C :   -0.128905
   2 C :   -0.080998
   3 C :    0.018884
   4 C :   -0.160068
   5 H :   -0.003078
   6 C :    0.047023
   7 H :    0.036028
   8 H :    0.039451
   9 C :   -0.108463
  10 H :    0.047362
  11 H :    0.022333
  12 C :    0.038312
  13 H :   -0.002998
  14 H :    0.018085
  15 H :    0.016177
  16 S :    0.089937
  17 C :   -0.086792
  18 C :   -0.040214
  19 C :   -0.050786
  20 C :   -0.129656
  21 H :    0.026907
  22 C :    0.069847
  23 H :    0.043950
  24 H :    0.041152
  25 C :   -0.133302
  26 H :    0.035427
  27 H :    0.036615
  28 C :   -0.024607
  29 H :    0.019827
  30 H :    0.039358
  31 H :    0.030261
  32 H :    0.052708
  33 H :    0.057455
Sum of atomic charges:   -0.0000000

LOEWDIN ATOMIC CHARGES
----------------------
   0 S :    0.433108
   1 C :   -0.205693
   2 C :   -0.067980
   3 C :   -0.070856
   4 C :   -0.208326
   5 H :    0.026039
   6 C :   -0.030393
   7 H :    0.031799
   8 H :    0.036660
   9 C :   -0.042168
  10 H :    0.031424
  11 H :    0.020099
  12 C :   -0.048161
  13 H :    0.012934
  14 H :    0.019281
  15 H :    0.021411
  16 S :    0.381754
  17 C :   -0.175998
  18 C :   -0.074691
  19 C :   -0.054361
  20 C :   -0.189867
  21 H :    0.034349
  22 C :   -0.038902
  23 H :    0.036411
  24 H :    0.043485
  25 C :   -0.051843
  26 H :    0.028922
  27 H :    0.029457
  28 C :   -0.069227
  29 H :    0.020997
  30 H :    0.030592
  31 H :    0.026720
  32 H :    0.033540
  33 H :    0.029486

  Mayer bond orders larger than 0.100000
B(  0-S ,  1-C ) :   1.1381 B(  0-S ,  4-C ) :   1.1688 B(  1-C ,  2-C ) :   1.6295
B(  1-C , 32-H ) :   0.9582 B(  2-C ,  3-C ) :   1.2235 B(  2-C ,  6-C ) :   1.0049
B(  3-C ,  4-C ) :   1.5861 B(  3-C ,  5-H ) :   0.9970 B(  4-C , 20-C ) :   1.0174
B(  6-C ,  7-H ) :   0.9439 B(  6-C ,  8-H ) :   0.9518 B(  6-C ,  9-C ) :   1.0636
B(  9-C , 10-H ) :   0.9617 B(  9-C , 11-H ) :   0.9599 B(  9-C , 12-C ) :   1.0598
B( 12-C , 13-H ) :   0.9745 B( 12-C , 14-H ) :   0.9730 B( 12-C , 15-H ) :   0.9634
B( 16-S , 17-C ) :   1.1343 B( 16-S , 20-C ) :   1.1318 B( 17-C , 18-C ) :   1.6586
B( 17-C , 33-H ) :   0.9657 B( 18-C , 19-C ) :   1.1859 B( 18-C , 21-H ) :   0.9842
B( 19-C , 20-C ) :   1.6256 B( 19-C , 22-C ) :   1.0407 B( 22-C , 23-H ) :   0.9385
B( 22-C , 24-H ) :   0.9153 B( 22-C , 25-C ) :   1.0848 B( 25-C , 26-H ) :   0.9514
B( 25-C , 27-H ) :   0.9467 B( 25-C , 28-C ) :   1.0768 B( 28-C , 29-H ) :   0.9721
B( 28-C , 30-H ) :   0.9733 B( 28-C , 31-H ) :   0.9707

Dispersion correction           -0.014632174
FINAL SINGLE POINT ENERGY     -1339.871931583882

DIPOLE MOMENT
-------------
                                X             Y             Z
Electronic contribution:     12.76547       9.62664     -22.14082
Nuclear contribution   :    -12.96434      -9.56878      22.69343
                        -----------------------------------------
Total Dipole Moment    :     -0.19887       0.05787       0.55260
                        -----------------------------------------
Magnitude (a.u.)       :      0.59014
Magnitude (Debye)      :      1.50002

Rotational constants in cm-1:     0.019661     0.009060     0.006908
Rotational constants in MHz :   589.408533   271.601151   207.097621

                             ****ORCA TERMINATED NORMALLY****
TOTAL RUN TIME: 0 days 0 hours 0 minutes 22 seconds 41 msec
