                         Program Version 4.2.1 -  RELEASE  -
|  1> ! wB97X-D3 SP def2-SVP
|  2> %pal
|  3> nprocs 24
|  4> end
|  5>
|  6> * xyz 0 1
|  7> S 	 -88.8091 	 -2.15325 	 7.60054
|  8> C 	 -87.9891 	 -0.980575 	 6.66947
|  9> C 	 -86.8572 	 -1.42582 	 5.98543
| 10> C 	 -86.7552 	 -2.83748 	 6.15656
| 11> C 	 -87.7498 	 -3.37345 	 6.92669
| 12> H 	 -85.8564 	 -3.38802 	 5.84129
| 13> C 	 -85.9418 	 -0.623519 	 5.03994
| 14> H 	 -86.5121 	 -0.335378 	 4.16776
| 15> H 	 -85.2477 	 -1.32454 	 4.58717
| 16> C 	 -85.2774 	 0.62243 	 5.60652
| 17> H 	 -84.4812 	 0.890385 	 4.95478
| 18> H 	 -85.9485 	 1.49406 	 5.78852
| 19> C 	 -84.4493 	 0.495417 	 6.89097
| 20> H 	 -83.6164 	 1.19194 	 6.9916
| 21> H 	 -85.0808 	 0.899366 	 7.75214
| 22> H 	 -84.0702 	 -0.495926 	 7.0451
| 23> S 	 -87.57 	 -5.99974 	 6.29951
| 24> C 	 -87.7062 	 -7.21853 	 7.51764
| 25> C 	 -88.0932 	 -6.63508 	 8.67813
| 26> C 	 -88.2036 	 -5.23847 	 8.65733
| 27> C 	 -87.8659 	 -4.71871 	 7.42698
| 28> H 	 -88.3729 	 -7.28493 	 9.45784
| 29> C 	 -88.5002 	 -4.48639 	 9.93489
| 30> H 	 -88.8573 	 -5.25355 	 10.5852
| 31> H 	 -89.4108 	 -3.85191 	 9.84269
| 32> C 	 -87.3439 	 -3.67163 	 10.5557
| 33> H 	 -87.1791 	 -2.78746 	 9.96332
| 34> H 	 -86.4727 	 -4.33145 	 10.6218
| 35> C 	 -87.6559 	 -3.41051 	 12.0499
| 36> H 	 -87.5017 	 -4.3464 	 12.6193
| 37> H 	 -88.651 	 -3.01608 	 12.1896
| 38> H 	 -86.9708 	 -2.69052 	 12.5105
| 39> H 	 -88.2169 	 0.0756245 	 6.81675
| 40> H 	 -87.414 	 -8.30071 	 7.48655
| 41> *
| 42>
| 43>                          ****END OF INPUT****

CARTESIAN COORDINATES (ANGSTROEM)
---------------------------------
  S    -88.809100   -2.153250    7.600540
  C    -87.989100   -0.980575    6.669470
  C    -86.857200   -1.425820    5.985430
  C    -86.755200   -2.837480    6.156560
  C    -87.749800   -3.373450    6.926690
  H    -85.856400   -3.388020    5.841290
  C    -85.941800   -0.623519    5.039940
  H    -86.512100   -0.335378    4.167760
  H    -85.247700   -1.324540    4.587170
  C    -85.277400    0.622430    5.606520
  H    -84.481200    0.890385    4.954780
  H    -85.948500    1.494060    5.788520
  C    -84.449300    0.495417    6.890970
  H    -83.616400    1.191940    6.991600
  H    -85.080800    0.899366    7.752140
  H    -84.070200   -0.495926    7.045100
  S    -87.570000   -5.999740    6.299510
  C    -87.706200   -7.218530    7.517640
  C    -88.093200   -6.635080    8.678130
  C    -88.203600   -5.238470    8.657330
  C    -87.865900   -4.718710    7.426980
  H    -88.372900   -7.284930    9.457840
  C    -88.500200   -4.486390    9.934890
  H    -88.857300   -5.253550   10.585200
  H    -89.410800   -3.851910    9.842690
  C    -87.343900   -3.671630   10.555700
  H    -87.179100   -2.787460    9.963320
  H    -86.472700   -4.331450   10.621800
  C    -87.655900   -3.410510   12.049900
  H    -87.501700   -4.346400   12.619300
  H    -88.651000   -3.016080   12.189600
  H    -86.970800   -2.690520   12.510500
  H    -88.216900    0.075624    6.816750
  H    -87.414000   -8.300710    7.486550

 Total Charge           Charge          ....    0
 Multiplicity           Mult            ....    1
 Number of Electrons    NEL             ....  134
 Basis Dimension        Dim             ....  322

ORBITAL ENERGIES
----------------

  NO   OCC          E(Eh)            E(eV)
   0   2.0000     -88.969693     -2420.9884
   1   2.0000     -88.961033     -2420.7528
   2   2.0000     -10.325474      -280.9704
   3   2.0000     -10.319539      -280.8089
   4   2.0000     -10.311715      -280.5960
   5   2.0000     -10.310589      -280.5654
   6   2.0000     -10.302977      -280.3583
   7   2.0000     -10.296874      -280.1922
   8   2.0000     -10.294688      -280.1327
   9   2.0000     -10.293265      -280.0940
  10   2.0000     -10.286762      -279.9170
  11   2.0000     -10.286726      -279.9160
  12   2.0000     -10.282309      -279.7958
  13   2.0000     -10.280368      -279.7430
  14   2.0000     -10.277123      -279.6547
  15   2.0000     -10.275755      -279.6175
  16   2.0000      -8.084734      -219.9968
  17   2.0000      -8.076434      -219.7709
  18   2.0000      -6.043113      -164.4415
  19   2.0000      -6.039251      -164.3364
  20   2.0000      -6.035585      -164.2366
  21   2.0000      -6.034969      -164.2198
  22   2.0000      -6.030688      -164.1034
  23   2.0000      -6.027295      -164.0110
  24   2.0000      -1.014155       -27.5966
  25   2.0000      -0.990693       -26.9581
  26   2.0000      -0.912268       -24.8241
  27   2.0000      -0.905642       -24.6438
  28   2.0000      -0.872023       -23.7290
  29   2.0000      -0.856386       -23.3034
  30   2.0000      -0.846945       -23.0465
  31   2.0000      -0.813037       -22.1239
  32   2.0000      -0.786030       -21.3890
  33   2.0000      -0.769416       -20.9369
  34   2.0000      -0.704960       -19.1829
  35   2.0000      -0.700765       -19.0688
  36   2.0000      -0.689999       -18.7758
  37   2.0000      -0.664052       -18.0698
  38   2.0000      -0.637753       -17.3541
  39   2.0000      -0.615397       -16.7458
  40   2.0000      -0.593232       -16.1427
  41   2.0000      -0.575464       -15.6592
  42   2.0000      -0.565469       -15.3872
  43   2.0000      -0.557301       -15.1649
  44   2.0000      -0.542023       -14.7492
  45   2.0000      -0.517334       -14.0774
  46   2.0000      -0.514236       -13.9931
  47   2.0000      -0.510802       -13.8996
  48   2.0000      -0.509615       -13.8673
  49   2.0000      -0.495526       -13.4840
  50   2.0000      -0.489086       -13.3087
  51   2.0000      -0.472910       -12.8685
  52   2.0000      -0.468372       -12.7451
  53   2.0000      -0.466455       -12.6929
  54   2.0000      -0.463360       -12.6087
  55   2.0000      -0.450908       -12.2698
  56   2.0000      -0.445793       -12.1306
  57   2.0000      -0.442442       -12.0395
  58   2.0000      -0.428932       -11.6718
  59   2.0000      -0.425460       -11.5774
  60   2.0000      -0.418185       -11.3794
  61   2.0000      -0.413913       -11.2631
  62   2.0000      -0.401510       -10.9256
  63   2.0000      -0.353305        -9.6139
  64   2.0000      -0.334569        -9.1041
  65   2.0000      -0.329537        -8.9672
  66   2.0000      -0.284861        -7.7515
  67   0.0000       0.025468         0.6930
  68   0.0000       0.082239         2.2378
  69   0.0000       0.108800         2.9606
  70   0.0000       0.124726         3.3940
  71   0.0000       0.130820         3.5598

MULLIKEN ATOMIC CHARGES
-----------------------
   0 S :    0.110538
   1 C :   -0.118297
   2 C :   -0.094528
   3 C :   -0.006927
   4 C :   -0.135312
   5 H :    0.027955
   6 C :    0.106262
   7 H :    0.041174
   8 H :    0.010883
   9 C :   -0.079659
  10 H :    0.026902
  11 H :    0.039765
  12 C :   -0.073071
  13 H :    0.026939
  14 H :    0.029652
  15 H :    0.033617
  16 S :    0.108601
  17 C :   -0.106022
  18 C :   -0.043158
  19 C :   -0.030983
  20 C :   -0.139998
  21 H :   -0.000755
  22 C :    0.047099
  23 H :   -0.004583
  24 H :    0.032568
  25 C :   -0.031265
  26 H :    0.040857
  27 H :    0.030361
  28 C :   -0.061540
  29 H :    0.034605
  30 H :    0.026997
  31 H :    0.031429
  32 H :    0.047804
  33 H :    0.072091
Sum of atomic charges:    0.0000000

LOEWDIN ATOMIC CHARGES
----------------------
   0 S :    0.442107
   1 C :   -0.207142
   2 C :   -0.062246
   3 C :   -0.065299
   4 C :   -0.194342
   5 H :    0.036413
   6 C :   -0.028915
   7 H :    0.040083
   8 H :    0.031129
   9 C :   -0.048968
  10 H :    0.026034
  11 H :    0.029641
  12 C :   -0.072399
  13 H :    0.024236
  14 H :    0.031059
  15 H :    0.021372
  16 S :    0.424339
  17 C :   -0.207013
  18 C :   -0.073641
  19 C :   -0.070796
  20 C :   -0.199068
  21 H :    0.024293
  22 C :   -0.040401
  23 H :    0.024568
  24 H :    0.026254
  25 C :   -0.032638
  26 H :    0.017596
  27 H :    0.028029
  28 C :   -0.065762
  29 H :    0.028046
  30 H :    0.019063
  31 H :    0.025346
  32 H :    0.023631
  33 H :    0.045392

  Mayer bond orders larger than 0.100000
B(  0-S ,  1-C ) :   1.1615 B(  0-S ,  4-C ) :   1.1511 B(  1-C ,  2-C ) :   1.6004
B(  1-C , 32-H ) :   0.9630 B(  2-C ,  3-C ) :   1.2717 B(  2-C ,  6-C ) :   1.0073
B(  3-C ,  4-C ) :   1.5594 B(  3-C ,  5-H ) :   0.9826 B(  4-C , 20-C ) :   1.0545
B(  6-C ,  7-H ) :   0.9362 B(  6-C ,  8-H ) :   0.9374 B(  6-C ,  9-C ) :   1.0826
B(  9-C , 10-H ) :   0.9581 B(  9-C , 11-H ) :   0.9609 B(  9-C , 12-C ) :   1.0677
B( 12-C , 13-H ) :   0.9789 B( 12-C , 14-H ) :   0.9761 B( 12-C , 15-H ) :   0.9770
B( 16-S , 17-C ) :   1.1515 B( 16-S , 20-C ) :   1.1592 B( 17-C , 18-C ) :   1.6097
B( 17-C , 33-H ) :   0.9571 B( 18-C , 19-C ) :   1.2707 B( 18-C , 21-H ) :   0.9924
B( 19-C , 20-C ) :   1.5485 B( 19-C , 22-C ) :   1.0444 B( 22-C , 23-H ) :   0.9262
B( 22-C , 24-H ) :   0.9241 B( 22-C , 25-C ) :   1.0594 B( 25-C , 26-H ) :   0.9533
B( 25-C , 27-H ) :   0.9583 B( 25-C , 28-C ) :   1.0791 B( 28-C , 29-H ) :   0.9778
B( 28-C , 30-H ) :   0.9757 B( 28-C , 31-H ) :   0.9747

Dispersion correction           -0.014488073
FINAL SINGLE POINT ENERGY     -1339.877428980731

DIPOLE MOMENT
-------------
                                X             Y             Z
Electronic contribution:    -12.07931     -15.33764     -12.06775
Nuclear contribution   :     12.46702      15.61434      12.28181
                        -----------------------------------------
Total Dipole Moment    :      0.38771       0.27670       0.21406
                        -----------------------------------------
Magnitude (a.u.)       :      0.52221
Magnitude (Debye)      :      1.32735

Rotational constants in cm-1:     0.019193     0.008839     0.007075
Rotational constants in MHz :   575.394466   264.982490   212.094788

                             ****ORCA TERMINATED NORMALLY****
TOTAL RUN TIME: 0 days 0 hours 0 minutes 20 seconds 692 msec
