                         Program Version 4.2.1 -  RELEASE  -
|  1> ! wB97X-D3 SP def2-SVP
|  2> %pal
|  3> nprocs 24
|  4> end
|  5>
|  6> * xyz 0 1
|  7> S 	 -106.767 	 31.343 	 -21.0047
|  8> C 	 -106.923 	 30.9626 	 -22.7411
|  9> C 	 -108.161 	 31.3606 	 -23.2355
| 10> C 	 -108.896 	 32.0791 	 -22.2694
| 11> C 	 -108.351 	 32.1676 	 -21.0079
| 12> H 	 -109.863 	 32.4252 	 -22.3877
| 13> C 	 -108.84 	 30.8908 	 -24.5435
| 14> H 	 -108.064 	 30.756 	 -25.2914
| 15> H 	 -109.554 	 31.6471 	 -24.9057
| 16> C 	 -109.621 	 29.6017 	 -24.4385
| 17> H 	 -109.073 	 28.8389 	 -23.9577
| 18> H 	 -110.425 	 29.7901 	 -23.7457
| 19> C 	 -110.184 	 29.1417 	 -25.8296
| 20> H 	 -109.549 	 28.496 	 -26.4105
| 21> H 	 -111.103 	 28.5945 	 -25.6079
| 22> H 	 -110.493 	 29.9828 	 -26.3809
| 23> S 	 -107.647 	 33.9876 	 -19.127
| 24> C 	 -108.884 	 34.6443 	 -18.0429
| 25> C 	 -110.13 	 34.1648 	 -18.3671
| 26> C 	 -110.122 	 33.2191 	 -19.4218
| 27> C 	 -108.859 	 32.9824 	 -19.9323
| 28> H 	 -110.975 	 34.5386 	 -17.7316
| 29> C 	 -111.409 	 32.5879 	 -19.8452
| 30> H 	 -111.565 	 32.816 	 -20.8878
| 31> H 	 -112.237 	 33.1811 	 -19.491
| 32> C 	 -111.414 	 31.0701 	 -19.6271
| 33> H 	 -110.963 	 30.8295 	 -18.6099
| 34> H 	 -110.708 	 30.5884 	 -20.3249
| 35> C 	 -112.803 	 30.5127 	 -19.8177
| 36> H 	 -113.169 	 30.4351 	 -20.8501
| 37> H 	 -113.562 	 31.1326 	 -19.2305
| 38> H 	 -112.887 	 29.4895 	 -19.4726
| 39> H 	 -106.207 	 30.2905 	 -23.2746
| 40> H 	 -108.861 	 35.4451 	 -17.3341
| 41> *
| 42>
| 43>                          ****END OF INPUT****

CARTESIAN COORDINATES (ANGSTROEM)
---------------------------------
  S    -106.767000   31.343000  -21.004700
  C    -106.923000   30.962600  -22.741100
  C    -108.161000   31.360600  -23.235500
  C    -108.896000   32.079100  -22.269400
  C    -108.351000   32.167600  -21.007900
  H    -109.863000   32.425200  -22.387700
  C    -108.840000   30.890800  -24.543500
  H    -108.064000   30.756000  -25.291400
  H    -109.554000   31.647100  -24.905700
  C    -109.621000   29.601700  -24.438500
  H    -109.073000   28.838900  -23.957700
  H    -110.425000   29.790100  -23.745700
  C    -110.184000   29.141700  -25.829600
  H    -109.549000   28.496000  -26.410500
  H    -111.103000   28.594500  -25.607900
  H    -110.493000   29.982800  -26.380900
  S    -107.647000   33.987600  -19.127000
  C    -108.884000   34.644300  -18.042900
  C    -110.130000   34.164800  -18.367100
  C    -110.122000   33.219100  -19.421800
  C    -108.859000   32.982400  -19.932300
  H    -110.975000   34.538600  -17.731600
  C    -111.409000   32.587900  -19.845200
  H    -111.565000   32.816000  -20.887800
  H    -112.237000   33.181100  -19.491000
  C    -111.414000   31.070100  -19.627100
  H    -110.963000   30.829500  -18.609900
  H    -110.708000   30.588400  -20.324900
  C    -112.803000   30.512700  -19.817700
  H    -113.169000   30.435100  -20.850100
  H    -113.562000   31.132600  -19.230500
  H    -112.887000   29.489500  -19.472600
  H    -106.207000   30.290500  -23.274600
  H    -108.861000   35.445100  -17.334100

 Total Charge           Charge          ....    0
 Multiplicity           Mult            ....    1
 Number of Electrons    NEL             ....  134
 Basis Dimension        Dim             ....  322

ORBITAL ENERGIES
----------------

  NO   OCC          E(Eh)            E(eV)
   0   2.0000     -88.969269     -2420.9769
   1   2.0000     -88.966719     -2420.9075
   2   2.0000     -10.331530      -281.1352
   3   2.0000     -10.327698      -281.0310
   4   2.0000     -10.322731      -280.8958
   5   2.0000     -10.313332      -280.6400
   6   2.0000     -10.304044      -280.3873
   7   2.0000     -10.301002      -280.3045
   8   2.0000     -10.294422      -280.1255
   9   2.0000     -10.293227      -280.0930
  10   2.0000     -10.290886      -280.0292
  11   2.0000     -10.287182      -279.9285
  12   2.0000     -10.286051      -279.8977
  13   2.0000     -10.282687      -279.8061
  14   2.0000     -10.281211      -279.7660
  15   2.0000     -10.277846      -279.6744
  16   2.0000      -8.082696      -219.9413
  17   2.0000      -8.080618      -219.8848
  18   2.0000      -6.041356      -164.3936
  19   2.0000      -6.039221      -164.3356
  20   2.0000      -6.037398      -164.2859
  21   2.0000      -6.035252      -164.2275
  22   2.0000      -6.033347      -164.1757
  23   2.0000      -6.031298      -164.1200
  24   2.0000      -1.005262       -27.3546
  25   2.0000      -0.980841       -26.6900
  26   2.0000      -0.912957       -24.8428
  27   2.0000      -0.911043       -24.7907
  28   2.0000      -0.871387       -23.7117
  29   2.0000      -0.852370       -23.1942
  30   2.0000      -0.845326       -23.0025
  31   2.0000      -0.814852       -22.1733
  32   2.0000      -0.782775       -21.3004
  33   2.0000      -0.772167       -21.0117
  34   2.0000      -0.711612       -19.3640
  35   2.0000      -0.705874       -19.2078
  36   2.0000      -0.695591       -18.9280
  37   2.0000      -0.662015       -18.0143
  38   2.0000      -0.641148       -17.4465
  39   2.0000      -0.622992       -16.9525
  40   2.0000      -0.595007       -16.1910
  41   2.0000      -0.575830       -15.6691
  42   2.0000      -0.559975       -15.2377
  43   2.0000      -0.554988       -15.1020
  44   2.0000      -0.528055       -14.3691
  45   2.0000      -0.520059       -14.1515
  46   2.0000      -0.513360       -13.9692
  47   2.0000      -0.511826       -13.9275
  48   2.0000      -0.510564       -13.8932
  49   2.0000      -0.500084       -13.6080
  50   2.0000      -0.491157       -13.3651
  51   2.0000      -0.485047       -13.1988
  52   2.0000      -0.477201       -12.9853
  53   2.0000      -0.463860       -12.6223
  54   2.0000      -0.457807       -12.4576
  55   2.0000      -0.449929       -12.2432
  56   2.0000      -0.442087       -12.0298
  57   2.0000      -0.439408       -11.9569
  58   2.0000      -0.433611       -11.7992
  59   2.0000      -0.425808       -11.5868
  60   2.0000      -0.422757       -11.5038
  61   2.0000      -0.418527       -11.3887
  62   2.0000      -0.409260       -11.1365
  63   2.0000      -0.352255        -9.5853
  64   2.0000      -0.332349        -9.0437
  65   2.0000      -0.331930        -9.0323
  66   2.0000      -0.286777        -7.8036
  67   0.0000       0.022628         0.6157
  68   0.0000       0.070651         1.9225
  69   0.0000       0.102467         2.7883
  70   0.0000       0.116978         3.1831
  71   0.0000       0.130655         3.5553

MULLIKEN ATOMIC CHARGES
-----------------------
   0 S :    0.102890
   1 C :   -0.148586
   2 C :   -0.058864
   3 C :    0.052173
   4 C :   -0.147336
   5 H :   -0.030707
   6 C :    0.045930
   7 H :    0.021482
   8 H :    0.028592
   9 C :   -0.047917
  10 H :    0.015452
  11 H :    0.013290
  12 C :   -0.021805
  13 H :    0.040987
  14 H :    0.028748
  15 H :    0.017872
  16 S :    0.106080
  17 C :   -0.072418
  18 C :   -0.076616
  19 C :   -0.038575
  20 C :   -0.140322
  21 H :    0.036854
  22 C :    0.093185
  23 H :    0.011744
  24 H :    0.001736
  25 C :   -0.081076
  26 H :    0.046612
  27 H :    0.044847
  28 C :   -0.050291
  29 H :    0.030847
  30 H :    0.033982
  31 H :    0.030270
  32 H :    0.068411
  33 H :    0.042532
Sum of atomic charges:   -0.0000000

LOEWDIN ATOMIC CHARGES
----------------------
   0 S :    0.378539
   1 C :   -0.191479
   2 C :   -0.061437
   3 C :   -0.055155
   4 C :   -0.183147
   5 H :    0.016193
   6 C :   -0.029116
   7 H :    0.026377
   8 H :    0.030846
   9 C :   -0.034443
  10 H :    0.017710
  11 H :    0.020333
  12 C :   -0.056852
  13 H :    0.025122
  14 H :    0.030950
  15 H :    0.018453
  16 S :    0.395695
  17 C :   -0.182654
  18 C :   -0.076957
  19 C :   -0.058765
  20 C :   -0.186646
  21 H :    0.042070
  22 C :   -0.035638
  23 H :    0.027996
  24 H :    0.028271
  25 C :   -0.043446
  26 H :    0.034151
  27 H :    0.029839
  28 C :   -0.073738
  29 H :    0.025640
  30 H :    0.030402
  31 H :    0.025089
  32 H :    0.037492
  33 H :    0.028308

  Mayer bond orders larger than 0.100000
B(  0-S ,  1-C ) :   1.1325 B(  0-S ,  4-C ) :   1.1305 B(  1-C ,  2-C ) :   1.5999
B(  1-C ,  4-C ) :   0.1013 B(  1-C , 32-H ) :   0.9618 B(  2-C ,  3-C ) :   1.2531
B(  2-C ,  6-C ) :   1.0291 B(  3-C ,  4-C ) :   1.5633 B(  3-C ,  5-H ) :   1.0000
B(  4-C , 20-C ) :   1.0718 B(  6-C ,  7-H ) :   0.9416 B(  6-C ,  8-H ) :   0.9392
B(  6-C ,  9-C ) :   1.0705 B(  9-C , 10-H ) :   0.9547 B(  9-C , 11-H ) :   0.9552
B(  9-C , 12-C ) :   1.0703 B( 12-C , 13-H ) :   0.9788 B( 12-C , 14-H ) :   0.9749
B( 12-C , 15-H ) :   0.9748 B( 16-S , 17-C ) :   1.1391 B( 16-S , 20-C ) :   1.1283
B( 17-C , 18-C ) :   1.6422 B( 17-C , 33-H ) :   0.9633 B( 18-C , 19-C ) :   1.2406
B( 18-C , 21-H ) :   0.9801 B( 19-C , 20-C ) :   1.5907 B( 19-C , 22-C ) :   1.0486
B( 22-C , 23-H ) :   0.9178 B( 22-C , 24-H ) :   0.9307 B( 22-C , 25-C ) :   1.0444
B( 25-C , 26-H ) :   0.9597 B( 25-C , 27-H ) :   0.9457 B( 25-C , 28-C ) :   1.0870
B( 28-C , 29-H ) :   0.9717 B( 28-C , 30-H ) :   0.9748 B( 28-C , 31-H ) :   0.9722

Dispersion correction           -0.014425676
FINAL SINGLE POINT ENERGY     -1339.876623787830

DIPOLE MOMENT
-------------
                                X             Y             Z
Electronic contribution:     23.87345      15.12868      15.19071
Nuclear contribution   :    -24.61698     -15.35118     -15.52304
                        -----------------------------------------
Total Dipole Moment    :     -0.74353      -0.22251      -0.33233
                        -----------------------------------------
Magnitude (a.u.)       :      0.84427
Magnitude (Debye)      :      2.14596

Rotational constants in cm-1:     0.018559     0.009076     0.006675
Rotational constants in MHz :   556.374854   272.094747   200.116652

                             ****ORCA TERMINATED NORMALLY****
TOTAL RUN TIME: 0 days 0 hours 0 minutes 20 seconds 840 msec
