                         Program Version 4.2.1 -  RELEASE  -
|  1> ! wB97X-D3 SP def2-SVP
|  2> %pal
|  3> nprocs 24
|  4> end
|  5>
|  6> * xyz 0 1
|  7> S 	 -94.0292 	 12.9904 	 -114.407
|  8> C 	 -92.863 	 14.3065 	 -114.58
|  9> C 	 -91.8484 	 14.0662 	 -115.558
| 10> C 	 -91.9909 	 12.7773 	 -116.185
| 11> C 	 -93.168 	 12.1763 	 -115.757
| 12> H 	 -91.2578 	 12.2495 	 -116.784
| 13> C 	 -90.7098 	 14.9642 	 -115.75
| 14> H 	 -89.8051 	 14.4065 	 -115.819
| 15> H 	 -90.6446 	 15.5745 	 -114.904
| 16> C 	 -90.9538 	 15.8342 	 -117.002
| 17> H 	 -90.0624 	 16.391 	 -117.382
| 18> H 	 -91.2315 	 15.1929 	 -117.81
| 19> C 	 -92.1301 	 16.8232 	 -116.825
| 20> H 	 -93.1662 	 16.4447 	 -116.637
| 21> H 	 -91.9021 	 17.4792 	 -115.959
| 22> H 	 -92.2616 	 17.4451 	 -117.715
| 23> S 	 -94.2901 	 9.67831 	 -115.116
| 24> C 	 -94.4897 	 8.58163 	 -116.413
| 25> C 	 -94.2252 	 9.10269 	 -117.692
| 26> C 	 -93.7314 	 10.4257 	 -117.578
| 27> C 	 -93.6276 	 10.8993 	 -116.255
| 28> H 	 -94.3369 	 8.48209 	 -118.599
| 29> C 	 -93.2708 	 11.2344 	 -118.827
| 30> H 	 -92.175 	 11.2198 	 -118.902
| 31> H 	 -93.5178 	 12.2834 	 -118.672
| 32> C 	 -93.7661 	 10.8184 	 -120.228
| 33> H 	 -94.9037 	 10.8432 	 -120.116
| 34> H 	 -93.4906 	 9.77661 	 -120.259
| 35> C 	 -93.1437 	 11.5077 	 -121.41
| 36> H 	 -93.5049 	 11.0357 	 -122.416
| 37> H 	 -92.0928 	 11.5205 	 -121.316
| 38> H 	 -93.3854 	 12.5377 	 -121.399
| 39> H 	 -92.6 	 15.0847 	 -113.826
| 40> H 	 -94.9061 	 7.57081 	 -116.346
| 41> *
| 42>
| 43>                          ****END OF INPUT****

CARTESIAN COORDINATES (ANGSTROEM)
---------------------------------
  S    -94.029200   12.990400  -114.407000
  C    -92.863000   14.306500  -114.580000
  C    -91.848400   14.066200  -115.558000
  C    -91.990900   12.777300  -116.185000
  C    -93.168000   12.176300  -115.757000
  H    -91.257800   12.249500  -116.784000
  C    -90.709800   14.964200  -115.750000
  H    -89.805100   14.406500  -115.819000
  H    -90.644600   15.574500  -114.904000
  C    -90.953800   15.834200  -117.002000
  H    -90.062400   16.391000  -117.382000
  H    -91.231500   15.192900  -117.810000
  C    -92.130100   16.823200  -116.825000
  H    -93.166200   16.444700  -116.637000
  H    -91.902100   17.479200  -115.959000
  H    -92.261600   17.445100  -117.715000
  S    -94.290100    9.678310  -115.116000
  C    -94.489700    8.581630  -116.413000
  C    -94.225200    9.102690  -117.692000
  C    -93.731400   10.425700  -117.578000
  C    -93.627600   10.899300  -116.255000
  H    -94.336900    8.482090  -118.599000
  C    -93.270800   11.234400  -118.827000
  H    -92.175000   11.219800  -118.902000
  H    -93.517800   12.283400  -118.672000
  C    -93.766100   10.818400  -120.228000
  H    -94.903700   10.843200  -120.116000
  H    -93.490600    9.776610  -120.259000
  C    -93.143700   11.507700  -121.410000
  H    -93.504900   11.035700  -122.416000
  H    -92.092800   11.520500  -121.316000
  H    -93.385400   12.537700  -121.399000
  H    -92.600000   15.084700  -113.826000
  H    -94.906100    7.570810  -116.346000

 Total Charge           Charge          ....    0
 Multiplicity           Mult            ....    1
 Number of Electrons    NEL             ....  134
 Basis Dimension        Dim             ....  322

ORBITAL ENERGIES
----------------

  NO   OCC          E(Eh)            E(eV)
   0   2.0000     -88.972828     -2421.0737
   1   2.0000     -88.971131     -2421.0276
   2   2.0000     -10.332914      -281.1729
   3   2.0000     -10.327639      -281.0293
   4   2.0000     -10.319367      -280.8043
   5   2.0000     -10.316794      -280.7342
   6   2.0000     -10.310350      -280.5589
   7   2.0000     -10.302846      -280.3547
   8   2.0000     -10.297762      -280.2163
   9   2.0000     -10.297688      -280.2143
  10   2.0000     -10.292394      -280.0703
  11   2.0000     -10.288582      -279.9665
  12   2.0000     -10.288559      -279.9659
  13   2.0000     -10.283192      -279.8199
  14   2.0000     -10.282577      -279.8031
  15   2.0000     -10.278219      -279.6846
  16   2.0000      -8.086107      -220.0342
  17   2.0000      -8.085601      -220.0204
  18   2.0000      -6.044685      -164.4842
  19   2.0000      -6.043963      -164.4646
  20   2.0000      -6.041072      -164.3859
  21   2.0000      -6.040183      -164.3617
  22   2.0000      -6.036635      -164.2652
  23   2.0000      -6.036517      -164.2620
  24   2.0000      -1.001071       -27.2405
  25   2.0000      -0.977797       -26.6072
  26   2.0000      -0.916326       -24.9345
  27   2.0000      -0.909295       -24.7432
  28   2.0000      -0.863729       -23.5033
  29   2.0000      -0.854474       -23.2514
  30   2.0000      -0.845225       -22.9997
  31   2.0000      -0.810132       -22.0448
  32   2.0000      -0.785218       -21.3669
  33   2.0000      -0.767453       -20.8835
  34   2.0000      -0.708325       -19.2745
  35   2.0000      -0.697990       -18.9933
  36   2.0000      -0.691820       -18.8254
  37   2.0000      -0.649549       -17.6751
  38   2.0000      -0.636729       -17.3263
  39   2.0000      -0.620234       -16.8774
  40   2.0000      -0.595306       -16.1991
  41   2.0000      -0.569468       -15.4960
  42   2.0000      -0.566040       -15.4027
  43   2.0000      -0.551404       -15.0045
  44   2.0000      -0.541870       -14.7450
  45   2.0000      -0.521160       -14.1815
  46   2.0000      -0.512487       -13.9455
  47   2.0000      -0.508639       -13.8408
  48   2.0000      -0.499352       -13.5881
  49   2.0000      -0.492671       -13.4063
  50   2.0000      -0.488131       -13.2827
  51   2.0000      -0.475441       -12.9374
  52   2.0000      -0.471835       -12.8393
  53   2.0000      -0.463938       -12.6244
  54   2.0000      -0.457210       -12.4413
  55   2.0000      -0.455904       -12.4058
  56   2.0000      -0.451075       -12.2744
  57   2.0000      -0.439632       -11.9630
  58   2.0000      -0.429559       -11.6889
  59   2.0000      -0.425588       -11.5808
  60   2.0000      -0.419304       -11.4099
  61   2.0000      -0.417712       -11.3665
  62   2.0000      -0.413076       -11.2404
  63   2.0000      -0.345860        -9.4113
  64   2.0000      -0.336755        -9.1636
  65   2.0000      -0.330217        -8.9857
  66   2.0000      -0.280229        -7.6254
  67   0.0000       0.018478         0.5028
  68   0.0000       0.066106         1.7988
  69   0.0000       0.098086         2.6691
  70   0.0000       0.117179         3.1886
  71   0.0000       0.129005         3.5104

MULLIKEN ATOMIC CHARGES
-----------------------
   0 S :    0.111577
   1 C :   -0.111433
   2 C :   -0.144045
   3 C :    0.009304
   4 C :   -0.139009
   5 H :    0.029880
   6 C :    0.138589
   7 H :    0.020987
   8 H :   -0.002902
   9 C :   -0.063922
  10 H :    0.038122
  11 H :    0.018628
  12 C :   -0.090423
  13 H :    0.052479
  14 H :    0.025204
  15 H :    0.033158
  16 S :    0.121092
  17 C :   -0.086721
  18 C :   -0.076578
  19 C :   -0.007931
  20 C :   -0.167098
  21 H :    0.039238
  22 C :    0.020992
  23 H :    0.026637
  24 H :    0.033915
  25 C :   -0.106101
  26 H :    0.043774
  27 H :    0.023519
  28 C :   -0.005977
  29 H :    0.057760
  30 H :    0.017765
  31 H :    0.019521
  32 H :    0.060922
  33 H :    0.059076
Sum of atomic charges:    0.0000000

LOEWDIN ATOMIC CHARGES
----------------------
   0 S :    0.380110
   1 C :   -0.216327
   2 C :   -0.047395
   3 C :   -0.056446
   4 C :   -0.170776
   5 H :    0.037356
   6 C :   -0.026343
   7 H :    0.030087
   8 H :    0.020558
   9 C :   -0.037000
  10 H :    0.028728
  11 H :    0.018607
  12 C :   -0.075840
  13 H :    0.031716
  14 H :    0.022949
  15 H :    0.025701
  16 S :    0.409142
  17 C :   -0.195701
  18 C :   -0.082841
  19 C :   -0.045673
  20 C :   -0.197026
  21 H :    0.039639
  22 C :   -0.036651
  23 H :    0.025918
  24 H :    0.028032
  25 C :   -0.051802
  26 H :    0.031608
  27 H :    0.017178
  28 C :   -0.061332
  29 H :    0.045109
  30 H :    0.020955
  31 H :    0.020751
  32 H :    0.034837
  33 H :    0.032171

  Mayer bond orders larger than 0.100000
B(  0-S ,  1-C ) :   1.1142 B(  0-S ,  4-C ) :   1.1336 B(  1-C ,  2-C ) :   1.6204
B(  1-C , 32-H ) :   0.9521 B(  2-C ,  3-C ) :   1.2224 B(  2-C ,  6-C ) :   1.0449
B(  3-C ,  4-C ) :   1.5666 B(  3-C ,  5-H ) :   0.9916 B(  4-C , 20-C ) :   1.0993
B(  6-C ,  7-H ) :   0.9360 B(  6-C ,  8-H ) :   0.9363 B(  6-C ,  9-C ) :   1.0531
B(  9-C , 10-H ) :   0.9570 B(  9-C , 11-H ) :   0.9574 B(  9-C , 12-C ) :   1.0705
B( 12-C , 13-H ) :   0.9729 B( 12-C , 14-H ) :   0.9767 B( 12-C , 15-H ) :   0.9740
B( 16-S , 17-C ) :   1.1829 B( 16-S , 20-C ) :   1.1223 B( 17-C , 18-C ) :   1.5850
B( 17-C , 20-C ) :   0.1015 B( 17-C , 33-H ) :   0.9574 B( 18-C , 19-C ) :   1.2686
B( 18-C , 21-H ) :   0.9831 B( 19-C , 20-C ) :   1.5691 B( 19-C , 22-C ) :   1.0246
B( 22-C , 23-H ) :   0.9354 B( 22-C , 24-H ) :   0.9320 B( 22-C , 25-C ) :   1.0703
B( 25-C , 26-H ) :   0.9576 B( 25-C , 27-H ) :   0.9437 B( 25-C , 28-C ) :   1.0837
B( 28-C , 29-H ) :   0.9706 B( 28-C , 30-H ) :   0.9670 B( 28-C , 31-H ) :   0.9726

Dispersion correction           -0.014211141
FINAL SINGLE POINT ENERGY     -1339.867788879317

DIPOLE MOMENT
-------------
                                X             Y             Z
Electronic contribution:    -10.53882     -15.44294      24.02138
Nuclear contribution   :     11.00518      15.45950     -24.53011
                        -----------------------------------------
Total Dipole Moment    :      0.46636       0.01656      -0.50873
                        -----------------------------------------
Magnitude (a.u.)       :      0.69034
Magnitude (Debye)      :      1.75470

Rotational constants in cm-1:     0.016525     0.009607     0.006527
Rotational constants in MHz :   495.400434   287.996868   195.686499

                             ****ORCA TERMINATED NORMALLY****
TOTAL RUN TIME: 0 days 0 hours 0 minutes 20 seconds 604 msec
