                         Program Version 4.2.1 -  RELEASE  -
|  1> ! wB97X-D3 SP def2-SVP
|  2> %pal
|  3> nprocs 24
|  4> end
|  5>
|  6> * xyz 0 1
|  7> S 	 -100.18 	 14.1129 	 -126.076
|  8> C 	 -100.411 	 15.183 	 -124.731
|  9> C 	 -100.036 	 14.6445 	 -123.5
| 10> C 	 -99.7837 	 13.2649 	 -123.614
| 11> C 	 -99.7482 	 12.7696 	 -124.901
| 12> H 	 -99.5133 	 12.6041 	 -122.794
| 13> C 	 -100.059 	 15.4776 	 -122.196
| 14> H 	 -99.9246 	 14.8122 	 -121.299
| 15> H 	 -100.905 	 16.1007 	 -122.153
| 16> C 	 -98.8757 	 16.5265 	 -122.141
| 17> H 	 -98.9237 	 17.2531 	 -122.943
| 18> H 	 -98.9458 	 17.0795 	 -121.201
| 19> C 	 -97.5525 	 15.7949 	 -121.997
| 20> H 	 -96.6782 	 16.4259 	 -121.859
| 21> H 	 -97.6678 	 15.1182 	 -121.199
| 22> H 	 -97.4176 	 15.1484 	 -122.781
| 23> S 	 -98.2003 	 10.9944 	 -126.268
| 24> C 	 -98.7882 	 9.34717 	 -126.525
| 25> C 	 -100.164 	 9.3223 	 -126.335
| 26> C 	 -100.685 	 10.478 	 -125.707
| 27> C 	 -99.6662 	 11.4735 	 -125.518
| 28> H 	 -100.692 	 8.48566 	 -126.715
| 29> C 	 -102.203 	 10.576 	 -125.474
| 30> H 	 -102.674 	 10.2065 	 -126.363
| 31> H 	 -102.463 	 11.6011 	 -125.282
| 32> C 	 -102.787 	 9.8123 	 -124.326
| 33> H 	 -102.618 	 8.70815 	 -124.348
| 34> H 	 -103.847 	 9.95675 	 -124.398
| 35> C 	 -102.47 	 10.2668 	 -122.913
| 36> H 	 -102.789 	 11.3305 	 -122.723
| 37> H 	 -101.454 	 10.086 	 -122.572
| 38> H 	 -103.07 	 9.75233 	 -122.1
| 39> H 	 -100.889 	 16.1168 	 -124.844
| 40> H 	 -98.3815 	 8.60094 	 -127.181
| 41> *
| 42>
| 43>                          ****END OF INPUT****

CARTESIAN COORDINATES (ANGSTROEM)
---------------------------------
  S    -100.180000   14.112900  -126.076000
  C    -100.411000   15.183000  -124.731000
  C    -100.036000   14.644500  -123.500000
  C    -99.783700   13.264900  -123.614000
  C    -99.748200   12.769600  -124.901000
  H    -99.513300   12.604100  -122.794000
  C    -100.059000   15.477600  -122.196000
  H    -99.924600   14.812200  -121.299000
  H    -100.905000   16.100700  -122.153000
  C    -98.875700   16.526500  -122.141000
  H    -98.923700   17.253100  -122.943000
  H    -98.945800   17.079500  -121.201000
  C    -97.552500   15.794900  -121.997000
  H    -96.678200   16.425900  -121.859000
  H    -97.667800   15.118200  -121.199000
  H    -97.417600   15.148400  -122.781000
  S    -98.200300   10.994400  -126.268000
  C    -98.788200    9.347170  -126.525000
  C    -100.164000    9.322300  -126.335000
  C    -100.685000   10.478000  -125.707000
  C    -99.666200   11.473500  -125.518000
  H    -100.692000    8.485660  -126.715000
  C    -102.203000   10.576000  -125.474000
  H    -102.674000   10.206500  -126.363000
  H    -102.463000   11.601100  -125.282000
  C    -102.787000    9.812300  -124.326000
  H    -102.618000    8.708150  -124.348000
  H    -103.847000    9.956750  -124.398000
  C    -102.470000   10.266800  -122.913000
  H    -102.789000   11.330500  -122.723000
  H    -101.454000   10.086000  -122.572000
  H    -103.070000    9.752330  -122.100000
  H    -100.889000   16.116800  -124.844000
  H    -98.381500    8.600940  -127.181000

 Total Charge           Charge          ....    0
 Multiplicity           Mult            ....    1
 Number of Electrons    NEL             ....  134
 Basis Dimension        Dim             ....  322

ORBITAL ENERGIES
----------------

  NO   OCC          E(Eh)            E(eV)
   0   2.0000     -88.967215     -2420.9210
   1   2.0000     -88.964221     -2420.8395
   2   2.0000     -10.332071      -281.1499
   3   2.0000     -10.327876      -281.0358
   4   2.0000     -10.313878      -280.6549
   5   2.0000     -10.313451      -280.6433
   6   2.0000     -10.306237      -280.4470
   7   2.0000     -10.303815      -280.3811
   8   2.0000     -10.300485      -280.2904
   9   2.0000     -10.298978      -280.2494
  10   2.0000     -10.289892      -280.0022
  11   2.0000     -10.287767      -279.9444
  12   2.0000     -10.284715      -279.8613
  13   2.0000     -10.282819      -279.8097
  14   2.0000     -10.278952      -279.7045
  15   2.0000     -10.259947      -279.1873
  16   2.0000      -8.081979      -219.9218
  17   2.0000      -8.078307      -219.8219
  18   2.0000      -6.040414      -164.3680
  19   2.0000      -6.036660      -164.2659
  20   2.0000      -6.036478      -164.2609
  21   2.0000      -6.032941      -164.1647
  22   2.0000      -6.032811      -164.1611
  23   2.0000      -6.029221      -164.0635
  24   2.0000      -1.003493       -27.3064
  25   2.0000      -0.981102       -26.6971
  26   2.0000      -0.911705       -24.8088
  27   2.0000      -0.908403       -24.7189
  28   2.0000      -0.870484       -23.6871
  29   2.0000      -0.848489       -23.0886
  30   2.0000      -0.845941       -23.0192
  31   2.0000      -0.816291       -22.2124
  32   2.0000      -0.785152       -21.3651
  33   2.0000      -0.769460       -20.9381
  34   2.0000      -0.707041       -19.2396
  35   2.0000      -0.701110       -19.0782
  36   2.0000      -0.687761       -18.7149
  37   2.0000      -0.656547       -17.8655
  38   2.0000      -0.647582       -17.6216
  39   2.0000      -0.618525       -16.8309
  40   2.0000      -0.593608       -16.1529
  41   2.0000      -0.573235       -15.5985
  42   2.0000      -0.555933       -15.1277
  43   2.0000      -0.551513       -15.0074
  44   2.0000      -0.545502       -14.8439
  45   2.0000      -0.541895       -14.7457
  46   2.0000      -0.515282       -14.0215
  47   2.0000      -0.509181       -13.8555
  48   2.0000      -0.504646       -13.7321
  49   2.0000      -0.494433       -13.4542
  50   2.0000      -0.492266       -13.3952
  51   2.0000      -0.477449       -12.9920
  52   2.0000      -0.464706       -12.6453
  53   2.0000      -0.461721       -12.5641
  54   2.0000      -0.457240       -12.4421
  55   2.0000      -0.446308       -12.1447
  56   2.0000      -0.442805       -12.0493
  57   2.0000      -0.436416       -11.8755
  58   2.0000      -0.432202       -11.7608
  59   2.0000      -0.426872       -11.6158
  60   2.0000      -0.417310       -11.3556
  61   2.0000      -0.415741       -11.3129
  62   2.0000      -0.412014       -11.2115
  63   2.0000      -0.341779        -9.3003
  64   2.0000      -0.332445        -9.0463
  65   2.0000      -0.316222        -8.6048
  66   2.0000      -0.300218        -8.1693
  67   0.0000       0.038470         1.0468
  68   0.0000       0.039975         1.0878
  69   0.0000       0.103338         2.8120
  70   0.0000       0.113593         3.0910
  71   0.0000       0.127509         3.4697

MULLIKEN ATOMIC CHARGES
-----------------------
   0 S :    0.098381
   1 C :   -0.106567
   2 C :   -0.092000
   3 C :    0.066782
   4 C :   -0.186886
   5 H :    0.017396
   6 C :    0.064305
   7 H :    0.033972
   8 H :    0.023815
   9 C :   -0.088720
  10 H :    0.030542
  11 H :    0.026618
  12 C :    0.006744
  13 H :    0.038522
  14 H :   -0.003551
  15 H :    0.012185
  16 S :    0.122906
  17 C :   -0.080274
  18 C :   -0.060703
  19 C :   -0.000568
  20 C :   -0.190265
  21 H :    0.012796
  22 C :    0.128688
  23 H :    0.024892
  24 H :    0.015902
  25 C :   -0.071232
  26 H :    0.031216
  27 H :    0.023604
  28 C :   -0.087233
  29 H :    0.031911
  30 H :    0.035442
  31 H :    0.029266
  32 H :    0.037361
  33 H :    0.054753
Sum of atomic charges:    0.0000000

LOEWDIN ATOMIC CHARGES
----------------------
   0 S :    0.380218
   1 C :   -0.182438
   2 C :   -0.070952
   3 C :   -0.049727
   4 C :   -0.174535
   5 H :    0.037328
   6 C :   -0.020411
   7 H :    0.034370
   8 H :    0.024695
   9 C :   -0.033738
  10 H :    0.017812
  11 H :    0.023026
  12 C :   -0.057255
  13 H :    0.027303
  14 H :    0.018198
  15 H :    0.013893
  16 S :    0.427775
  17 C :   -0.192191
  18 C :   -0.064382
  19 C :   -0.048747
  20 C :   -0.229489
  21 H :    0.026532
  22 C :   -0.022955
  23 H :    0.034504
  24 H :    0.029423
  25 C :   -0.047084
  26 H :    0.026070
  27 H :    0.025638
  28 C :   -0.077721
  29 H :    0.027553
  30 H :    0.020332
  31 H :    0.031547
  32 H :    0.017440
  33 H :    0.027965

  Mayer bond orders larger than 0.100000
B(  0-S ,  1-C ) :   1.1684 B(  0-S ,  4-C ) :   1.1253 B(  1-C ,  2-C ) :   1.5898
B(  1-C ,  4-C ) :   0.1128 B(  1-C , 32-H ) :   0.9705 B(  2-C ,  3-C ) :   1.2410
B(  2-C ,  6-C ) :   1.0152 B(  3-C ,  4-C ) :   1.6137 B(  3-C ,  5-H ) :   0.9949
B(  4-C , 20-C ) :   1.0190 B(  6-C ,  7-H ) :   0.9490 B(  6-C ,  8-H ) :   0.9423
B(  6-C ,  9-C ) :   1.0715 B(  9-C , 10-H ) :   0.9600 B(  9-C , 11-H ) :   0.9591
B(  9-C , 12-C ) :   1.0660 B( 12-C , 13-H ) :   0.9741 B( 12-C , 14-H ) :   0.9680
B( 12-C , 15-H ) :   0.9745 B( 16-S , 17-C ) :   1.1565 B( 16-S , 20-C ) :   1.1795
B( 17-C , 18-C ) :   1.5938 B( 17-C , 20-C ) :   0.1145 B( 17-C , 33-H ) :   0.9627
B( 18-C , 19-C ) :   1.2742 B( 18-C , 21-H ) :   0.9887 B( 19-C , 20-C ) :   1.5216
B( 19-C , 22-C ) :   1.0410 B( 22-C , 23-H ) :   0.9321 B( 22-C , 24-H ) :   0.9256
B( 22-C , 25-C ) :   1.0871 B( 25-C , 26-H ) :   0.9529 B( 25-C , 27-H ) :   0.9492
B( 25-C , 28-C ) :   1.0830 B( 28-C , 29-H ) :   0.9705 B( 28-C , 30-H ) :   0.9759
B( 28-C , 31-H ) :   0.9708

Dispersion correction           -0.014906778
FINAL SINGLE POINT ENERGY     -1339.860587437765

DIPOLE MOMENT
-------------
                                X             Y             Z
Electronic contribution:      8.15701      -3.63533     -20.39608
Nuclear contribution   :     -8.63622       3.63495      20.66274
                        -----------------------------------------
Total Dipole Moment    :     -0.47921      -0.00038       0.26666
                        -----------------------------------------
Magnitude (a.u.)       :      0.54840
Magnitude (Debye)      :      1.39393

Rotational constants in cm-1:     0.020390     0.008408     0.007222
Rotational constants in MHz :   611.289445   252.076877   216.505758

                             ****ORCA TERMINATED NORMALLY****
TOTAL RUN TIME: 0 days 0 hours 0 minutes 21 seconds 903 msec
