                         Program Version 4.2.1 -  RELEASE  -
|  1> ! wB97X-D3 SP def2-SVP
|  2> %pal
|  3> nprocs 24
|  4> end
|  5>
|  6> * xyz 0 1
|  7> S 	 -40.2791 	 16.9757 	 -99.4024
|  8> C 	 -39.6838 	 15.3104 	 -99.4064
|  9> C 	 -40.7309 	 14.404 	 -99.342
| 10> C 	 -42.0331 	 15.062 	 -99.299
| 11> C 	 -42.0144 	 16.4269 	 -99.4353
| 12> H 	 -42.9268 	 14.5055 	 -99.2986
| 13> C 	 -40.4298 	 12.9635 	 -99.4935
| 14> H 	 -39.314 	 12.9055 	 -99.5596
| 15> H 	 -40.9232 	 12.7074 	 -100.456
| 16> C 	 -40.8301 	 12.1529 	 -98.2848
| 17> H 	 -41.8616 	 12.3813 	 -98.1304
| 18> H 	 -40.6007 	 11.0924 	 -98.4669
| 19> C 	 -39.9512 	 12.4797 	 -97.1065
| 20> H 	 -38.9378 	 12.163 	 -97.1994
| 21> H 	 -39.9834 	 13.5123 	 -96.8371
| 22> H 	 -40.3604 	 11.9313 	 -96.1985
| 23> S 	 -42.9754 	 18.6468 	 -97.981
| 24> C 	 -44.5728 	 19.2492 	 -98.1995
| 25> C 	 -45.1002 	 18.499 	 -99.2459
| 26> C 	 -44.2763 	 17.5497 	 -99.8919
| 27> C 	 -43.1023 	 17.3898 	 -99.2284
| 28> H 	 -46.1024 	 18.7896 	 -99.5023
| 29> C 	 -44.7434 	 16.6779 	 -101.022
| 30> H 	 -43.9369 	 16.0764 	 -101.488
| 31> H 	 -44.8811 	 17.3741 	 -101.858
| 32> C 	 -45.8207 	 15.6016 	 -100.801
| 33> H 	 -46.7079 	 16.0212 	 -100.386
| 34> H 	 -45.4897 	 14.9139 	 -100.068
| 35> C 	 -46.3536 	 14.9395 	 -102.131
| 36> H 	 -45.6775 	 14.3237 	 -102.667
| 37> H 	 -46.6666 	 15.7135 	 -102.841
| 38> H 	 -47.2196 	 14.257 	 -101.936
| 39> H 	 -38.6118 	 15.0674 	 -99.5323
| 40> H 	 -45.1587 	 19.976 	 -97.5819
| 41> *
| 42>
| 43>                          ****END OF INPUT****

CARTESIAN COORDINATES (ANGSTROEM)
---------------------------------
  S    -40.279100   16.975700  -99.402400
  C    -39.683800   15.310400  -99.406400
  C    -40.730900   14.404000  -99.342000
  C    -42.033100   15.062000  -99.299000
  C    -42.014400   16.426900  -99.435300
  H    -42.926800   14.505500  -99.298600
  C    -40.429800   12.963500  -99.493500
  H    -39.314000   12.905500  -99.559600
  H    -40.923200   12.707400  -100.456000
  C    -40.830100   12.152900  -98.284800
  H    -41.861600   12.381300  -98.130400
  H    -40.600700   11.092400  -98.466900
  C    -39.951200   12.479700  -97.106500
  H    -38.937800   12.163000  -97.199400
  H    -39.983400   13.512300  -96.837100
  H    -40.360400   11.931300  -96.198500
  S    -42.975400   18.646800  -97.981000
  C    -44.572800   19.249200  -98.199500
  C    -45.100200   18.499000  -99.245900
  C    -44.276300   17.549700  -99.891900
  C    -43.102300   17.389800  -99.228400
  H    -46.102400   18.789600  -99.502300
  C    -44.743400   16.677900  -101.022000
  H    -43.936900   16.076400  -101.488000
  H    -44.881100   17.374100  -101.858000
  C    -45.820700   15.601600  -100.801000
  H    -46.707900   16.021200  -100.386000
  H    -45.489700   14.913900  -100.068000
  C    -46.353600   14.939500  -102.131000
  H    -45.677500   14.323700  -102.667000
  H    -46.666600   15.713500  -102.841000
  H    -47.219600   14.257000  -101.936000
  H    -38.611800   15.067400  -99.532300
  H    -45.158700   19.976000  -97.581900

 Total Charge           Charge          ....    0
 Multiplicity           Mult            ....    1
 Number of Electrons    NEL             ....  134
 Basis Dimension        Dim             ....  322

ORBITAL ENERGIES
----------------

  NO   OCC          E(Eh)            E(eV)
   0   2.0000     -88.962890     -2420.8033
   1   2.0000     -88.962040     -2420.7802
   2   2.0000     -10.338560      -281.3265
   3   2.0000     -10.328864      -281.0627
   4   2.0000     -10.321257      -280.8557
   5   2.0000     -10.318628      -280.7841
   6   2.0000     -10.301352      -280.3140
   7   2.0000     -10.301326      -280.3133
   8   2.0000     -10.299615      -280.2668
   9   2.0000     -10.292420      -280.0710
  10   2.0000     -10.292262      -280.0667
  11   2.0000     -10.290693      -280.0240
  12   2.0000     -10.288353      -279.9603
  13   2.0000     -10.283619      -279.8315
  14   2.0000     -10.283135      -279.8183
  15   2.0000     -10.272568      -279.5308
  16   2.0000      -8.077738      -219.8064
  17   2.0000      -8.075746      -219.7522
  18   2.0000      -6.036295      -164.2559
  19   2.0000      -6.034454      -164.2058
  20   2.0000      -6.032031      -164.1399
  21   2.0000      -6.030426      -164.0962
  22   2.0000      -6.028578      -164.0460
  23   2.0000      -6.026317      -163.9844
  24   2.0000      -1.006964       -27.4009
  25   2.0000      -0.982332       -26.7306
  26   2.0000      -0.921636       -25.0790
  27   2.0000      -0.907630       -24.6979
  28   2.0000      -0.870780       -23.6951
  29   2.0000      -0.850770       -23.1506
  30   2.0000      -0.841840       -22.9076
  31   2.0000      -0.818650       -22.2766
  32   2.0000      -0.782498       -21.2929
  33   2.0000      -0.771057       -20.9815
  34   2.0000      -0.715347       -19.4656
  35   2.0000      -0.707842       -19.2614
  36   2.0000      -0.689266       -18.7559
  37   2.0000      -0.656695       -17.8696
  38   2.0000      -0.641617       -17.4593
  39   2.0000      -0.626130       -17.0379
  40   2.0000      -0.599815       -16.3218
  41   2.0000      -0.573653       -15.6099
  42   2.0000      -0.560787       -15.2598
  43   2.0000      -0.558334       -15.1930
  44   2.0000      -0.546675       -14.8758
  45   2.0000      -0.528067       -14.3694
  46   2.0000      -0.517261       -14.0754
  47   2.0000      -0.516134       -14.0447
  48   2.0000      -0.507106       -13.7991
  49   2.0000      -0.498257       -13.5583
  50   2.0000      -0.487390       -13.2626
  51   2.0000      -0.478762       -13.0278
  52   2.0000      -0.469914       -12.7870
  53   2.0000      -0.466213       -12.6863
  54   2.0000      -0.459575       -12.5057
  55   2.0000      -0.448376       -12.2009
  56   2.0000      -0.443592       -12.0707
  57   2.0000      -0.441535       -12.0148
  58   2.0000      -0.432120       -11.7586
  59   2.0000      -0.425681       -11.5834
  60   2.0000      -0.417650       -11.3648
  61   2.0000      -0.408133       -11.1059
  62   2.0000      -0.404341       -11.0027
  63   2.0000      -0.351747        -9.5715
  64   2.0000      -0.330927        -9.0050
  65   2.0000      -0.324909        -8.8412
  66   2.0000      -0.297163        -8.0862
  67   0.0000       0.030468         0.8291
  68   0.0000       0.062921         1.7122
  69   0.0000       0.115208         3.1350
  70   0.0000       0.119391         3.2488
  71   0.0000       0.131744         3.5849

MULLIKEN ATOMIC CHARGES
-----------------------
   0 S :    0.081764
   1 C :   -0.135890
   2 C :   -0.128619
   3 C :    0.067514
   4 C :   -0.139393
   5 H :   -0.006214
   6 C :    0.057238
   7 H :    0.013223
   8 H :    0.048702
   9 C :   -0.038523
  10 H :    0.026377
  11 H :    0.035610
  12 C :   -0.067466
  13 H :    0.025494
  14 H :    0.037602
  15 H :    0.035173
  16 S :    0.104995
  17 C :   -0.110409
  18 C :   -0.053890
  19 C :    0.000921
  20 C :   -0.146331
  21 H :    0.007620
  22 C :    0.035523
  23 H :    0.020762
  24 H :    0.026756
  25 C :   -0.017582
  26 H :    0.017544
  27 H :    0.020805
  28 C :   -0.069776
  29 H :    0.023041
  30 H :    0.035082
  31 H :    0.040552
  32 H :    0.069009
  33 H :    0.082785
Sum of atomic charges:   -0.0000000

LOEWDIN ATOMIC CHARGES
----------------------
   0 S :    0.360158
   1 C :   -0.190194
   2 C :   -0.067573
   3 C :   -0.051441
   4 C :   -0.162505
   5 H :    0.022090
   6 C :   -0.035110
   7 H :    0.031933
   8 H :    0.037140
   9 C :   -0.040603
  10 H :    0.020496
  11 H :    0.029868
  12 C :   -0.063585
  13 H :    0.020300
  14 H :    0.021290
  15 H :    0.034614
  16 S :    0.407400
  17 C :   -0.204588
  18 C :   -0.075064
  19 C :   -0.064882
  20 C :   -0.186921
  21 H :    0.024341
  22 C :   -0.042076
  23 H :    0.034617
  24 H :    0.035546
  25 C :   -0.029950
  26 H :    0.019215
  27 H :    0.018514
  28 C :   -0.065202
  29 H :    0.015358
  30 H :    0.028487
  31 H :    0.033166
  32 H :    0.035758
  33 H :    0.049405

  Mayer bond orders larger than 0.100000
B(  0-S ,  1-C ) :   1.1291 B(  0-S ,  4-C ) :   1.1238 B(  1-C ,  2-C ) :   1.6257
B(  1-C , 32-H ) :   0.9604 B(  2-C ,  3-C ) :   1.2144 B(  2-C ,  6-C ) :   1.0228
B(  3-C ,  4-C ) :   1.5991 B(  3-C ,  5-H ) :   0.9948 B(  4-C , 20-C ) :   1.0334
B(  6-C ,  7-H ) :   0.9389 B(  6-C ,  8-H ) :   0.9384 B(  6-C ,  9-C ) :   1.0663
B(  9-C , 10-H ) :   0.9584 B(  9-C , 11-H ) :   0.9539 B(  9-C , 12-C ) :   1.0811
B( 12-C , 13-H ) :   0.9730 B( 12-C , 14-H ) :   0.9754 B( 12-C , 15-H ) :   0.9704
B( 16-S , 17-C ) :   1.1573 B( 16-S , 20-C ) :   1.1410 B( 17-C , 18-C ) :   1.5990
B( 17-C , 33-H ) :   0.9633 B( 18-C , 19-C ) :   1.2378 B( 18-C , 21-H ) :   0.9940
B( 19-C , 20-C ) :   1.5881 B( 19-C , 22-C ) :   1.0608 B( 22-C , 23-H ) :   0.9305
B( 22-C , 24-H ) :   0.9266 B( 22-C , 25-C ) :   1.0526 B( 25-C , 26-H ) :   0.9563
B( 25-C , 27-H ) :   0.9546 B( 25-C , 28-C ) :   1.0689 B( 28-C , 29-H ) :   0.9798
B( 28-C , 30-H ) :   0.9764 B( 28-C , 31-H ) :   0.9762

Dispersion correction           -0.014105310
FINAL SINGLE POINT ENERGY     -1339.869913618681

DIPOLE MOMENT
-------------
                                X             Y             Z
Electronic contribution:      8.67986      24.18685       6.04679
Nuclear contribution   :     -9.08165     -24.77817      -6.23835
                        -----------------------------------------
Total Dipole Moment    :     -0.40180      -0.59132      -0.19156
                        -----------------------------------------
Magnitude (a.u.)       :      0.74013
Magnitude (Debye)      :      1.88126

Rotational constants in cm-1:     0.017124     0.008839     0.006750
Rotational constants in MHz :   513.370295   264.998420   202.347366

                             ****ORCA TERMINATED NORMALLY****
TOTAL RUN TIME: 0 days 0 hours 0 minutes 20 seconds 274 msec
