                         Program Version 4.2.1 -  RELEASE  -
|  1> ! wB97X-D3 SP def2-SVP
|  2> %pal
|  3> nprocs 24
|  4> end
|  5>
|  6> * xyz 0 1
|  7> S 	 -113.711 	 22.2121 	 -113.306
|  8> C 	 -115.109 	 23.2428 	 -113.638
|  9> C 	 -116.293 	 22.6084 	 -113.454
| 10> C 	 -116.05 	 21.3007 	 -112.971
| 11> C 	 -114.746 	 20.9519 	 -112.775
| 12> H 	 -116.778 	 20.6003 	 -112.584
| 13> C 	 -117.71 	 23.2132 	 -113.539
| 14> H 	 -117.509 	 24.2888 	 -113.59
| 15> H 	 -118.26 	 23.0269 	 -112.628
| 16> C 	 -118.575 	 22.7764 	 -114.806
| 17> H 	 -118.049 	 23.1477 	 -115.67
| 18> H 	 -118.494 	 21.6776 	 -114.885
| 19> C 	 -120.028 	 23.1646 	 -114.778
| 20> H 	 -120.546 	 22.5031 	 -114.127
| 21> H 	 -120.135 	 24.2326 	 -114.441
| 22> H 	 -120.374 	 22.9479 	 -115.753
| 23> S 	 -114.503 	 19.3452 	 -110.517
| 24> C 	 -113.83 	 17.6846 	 -110.704
| 25> C 	 -113.418 	 17.4947 	 -111.984
| 26> C 	 -113.735 	 18.5737 	 -112.844
| 27> C 	 -114.386 	 19.6105 	 -112.242
| 28> H 	 -113.023 	 16.6074 	 -112.385
| 29> C 	 -113.432 	 18.3622 	 -114.263
| 30> H 	 -113.767 	 19.136 	 -114.916
| 31> H 	 -114.056 	 17.5047 	 -114.49
| 32> C 	 -111.878 	 18.1736 	 -114.631
| 33> H 	 -111.825 	 17.7777 	 -115.594
| 34> H 	 -111.494 	 17.3191 	 -114.114
| 35> C 	 -111.115 	 19.5019 	 -114.487
| 36> H 	 -111.658 	 20.3021 	 -114.954
| 37> H 	 -110.15 	 19.5759 	 -114.997
| 38> H 	 -110.998 	 19.8703 	 -113.39
| 39> H 	 -115.059 	 24.2723 	 -114.098
| 40> H 	 -113.599 	 17.0816 	 -109.828
| 41> *
| 42>
| 43>                          ****END OF INPUT****

CARTESIAN COORDINATES (ANGSTROEM)
---------------------------------
  S    -113.711000   22.212100  -113.306000
  C    -115.109000   23.242800  -113.638000
  C    -116.293000   22.608400  -113.454000
  C    -116.050000   21.300700  -112.971000
  C    -114.746000   20.951900  -112.775000
  H    -116.778000   20.600300  -112.584000
  C    -117.710000   23.213200  -113.539000
  H    -117.509000   24.288800  -113.590000
  H    -118.260000   23.026900  -112.628000
  C    -118.575000   22.776400  -114.806000
  H    -118.049000   23.147700  -115.670000
  H    -118.494000   21.677600  -114.885000
  C    -120.028000   23.164600  -114.778000
  H    -120.546000   22.503100  -114.127000
  H    -120.135000   24.232600  -114.441000
  H    -120.374000   22.947900  -115.753000
  S    -114.503000   19.345200  -110.517000
  C    -113.830000   17.684600  -110.704000
  C    -113.418000   17.494700  -111.984000
  C    -113.735000   18.573700  -112.844000
  C    -114.386000   19.610500  -112.242000
  H    -113.023000   16.607400  -112.385000
  C    -113.432000   18.362200  -114.263000
  H    -113.767000   19.136000  -114.916000
  H    -114.056000   17.504700  -114.490000
  C    -111.878000   18.173600  -114.631000
  H    -111.825000   17.777700  -115.594000
  H    -111.494000   17.319100  -114.114000
  C    -111.115000   19.501900  -114.487000
  H    -111.658000   20.302100  -114.954000
  H    -110.150000   19.575900  -114.997000
  H    -110.998000   19.870300  -113.390000
  H    -115.059000   24.272300  -114.098000
  H    -113.599000   17.081600  -109.828000

 Total Charge           Charge          ....    0
 Multiplicity           Mult            ....    1
 Number of Electrons    NEL             ....  134
 Basis Dimension        Dim             ....  322

ORBITAL ENERGIES
----------------

  NO   OCC          E(Eh)            E(eV)
   0   2.0000     -88.968403     -2420.9533
   1   2.0000     -88.960549     -2420.7396
   2   2.0000     -10.322555      -280.8910
   3   2.0000     -10.322333      -280.8850
   4   2.0000     -10.320328      -280.8304
   5   2.0000     -10.316687      -280.7313
   6   2.0000     -10.297805      -280.2175
   7   2.0000     -10.296403      -280.1794
   8   2.0000     -10.292256      -280.0665
   9   2.0000     -10.286892      -279.9206
  10   2.0000     -10.286621      -279.9132
  11   2.0000     -10.286109      -279.8993
  12   2.0000     -10.285462      -279.8817
  13   2.0000     -10.284015      -279.8423
  14   2.0000     -10.281310      -279.7687
  15   2.0000     -10.276446      -279.6363
  16   2.0000      -8.082957      -219.9484
  17   2.0000      -8.074912      -219.7295
  18   2.0000      -6.041510      -164.3978
  19   2.0000      -6.037510      -164.2890
  20   2.0000      -6.033646      -164.1838
  21   2.0000      -6.033531      -164.1807
  22   2.0000      -6.029555      -164.0725
  23   2.0000      -6.025492      -163.9620
  24   2.0000      -1.008532       -27.4435
  25   2.0000      -0.987575       -26.8733
  26   2.0000      -0.906248       -24.6603
  27   2.0000      -0.904314       -24.6076
  28   2.0000      -0.871060       -23.7028
  29   2.0000      -0.851794       -23.1785
  30   2.0000      -0.845486       -23.0068
  31   2.0000      -0.814572       -22.1656
  32   2.0000      -0.783085       -21.3088
  33   2.0000      -0.769192       -20.9308
  34   2.0000      -0.713239       -19.4082
  35   2.0000      -0.698098       -18.9962
  36   2.0000      -0.692739       -18.8504
  37   2.0000      -0.668357       -18.1869
  38   2.0000      -0.637377       -17.3439
  39   2.0000      -0.613864       -16.7041
  40   2.0000      -0.599923       -16.3247
  41   2.0000      -0.570078       -15.5126
  42   2.0000      -0.558480       -15.1970
  43   2.0000      -0.554666       -15.0932
  44   2.0000      -0.532348       -14.4859
  45   2.0000      -0.529448       -14.4070
  46   2.0000      -0.515236       -14.0203
  47   2.0000      -0.508698       -13.8424
  48   2.0000      -0.497623       -13.5410
  49   2.0000      -0.495942       -13.4953
  50   2.0000      -0.488274       -13.2866
  51   2.0000      -0.481429       -13.1003
  52   2.0000      -0.467162       -12.7121
  53   2.0000      -0.463987       -12.6257
  54   2.0000      -0.458290       -12.4707
  55   2.0000      -0.451482       -12.2855
  56   2.0000      -0.441632       -12.0174
  57   2.0000      -0.438654       -11.9364
  58   2.0000      -0.433414       -11.7938
  59   2.0000      -0.425638       -11.5822
  60   2.0000      -0.418953       -11.4003
  61   2.0000      -0.418218       -11.3803
  62   2.0000      -0.413740       -11.2584
  63   2.0000      -0.337482        -9.1834
  64   2.0000      -0.333495        -9.0749
  65   2.0000      -0.323553        -8.8043
  66   2.0000      -0.306773        -8.3477
  67   0.0000       0.046439         1.2637
  68   0.0000       0.061966         1.6862
  69   0.0000       0.113054         3.0764
  70   0.0000       0.117226         3.1899
  71   0.0000       0.125712         3.4208

MULLIKEN ATOMIC CHARGES
-----------------------
   0 S :    0.128169
   1 C :   -0.163979
   2 C :   -0.047962
   3 C :    0.009465
   4 C :   -0.147664
   5 H :    0.009010
   6 C :    0.064210
   7 H :    0.016524
   8 H :    0.031583
   9 C :   -0.103635
  10 H :    0.022654
  11 H :    0.028064
  12 C :    0.002431
  13 H :    0.024347
  14 H :    0.043738
  15 H :    0.028388
  16 S :    0.086123
  17 C :   -0.095427
  18 C :    0.006089
  19 C :   -0.014915
  20 C :   -0.183417
  21 H :    0.001845
  22 C :    0.022326
  23 H :    0.016234
  24 H :    0.035113
  25 C :   -0.014049
  26 H :    0.007946
  27 H :    0.011353
  28 C :   -0.064487
  29 H :    0.018648
  30 H :    0.037577
  31 H :    0.053985
  32 H :    0.063369
  33 H :    0.066343
Sum of atomic charges:    0.0000000

LOEWDIN ATOMIC CHARGES
----------------------
   0 S :    0.416377
   1 C :   -0.198400
   2 C :   -0.069094
   3 C :   -0.062957
   4 C :   -0.210688
   5 H :    0.029155
   6 C :   -0.025861
   7 H :    0.027859
   8 H :    0.028389
   9 C :   -0.040469
  10 H :    0.019423
  11 H :    0.024537
  12 C :   -0.059146
  13 H :    0.022200
  14 H :    0.033387
  15 H :    0.026149
  16 S :    0.378800
  17 C :   -0.160212
  18 C :   -0.059881
  19 C :   -0.063494
  20 C :   -0.197957
  21 H :    0.024230
  22 C :   -0.027941
  23 H :    0.023615
  24 H :    0.036247
  25 C :   -0.030767
  26 H :    0.018347
  27 H :    0.017141
  28 C :   -0.074964
  29 H :    0.018436
  30 H :    0.028246
  31 H :    0.038635
  32 H :    0.039618
  33 H :    0.031043

  Mayer bond orders larger than 0.100000
B(  0-S ,  1-C ) :   1.1372 B(  0-S ,  4-C ) :   1.1379 B(  1-C ,  2-C ) :   1.6395
B(  1-C , 32-H ) :   0.9511 B(  2-C ,  3-C ) :   1.2258 B(  2-C ,  6-C ) :   1.0149
B(  3-C ,  4-C ) :   1.6056 B(  3-C ,  5-H ) :   0.9926 B(  4-C , 20-C ) :   1.0065
B(  6-C ,  7-H ) :   0.9386 B(  6-C ,  8-H ) :   0.9491 B(  6-C ,  9-C ) :   1.0499
B(  9-C , 10-H ) :   0.9572 B(  9-C , 11-H ) :   0.9606 B(  9-C , 12-C ) :   1.0836
B( 12-C , 13-H ) :   0.9728 B( 12-C , 14-H ) :   0.9737 B( 12-C , 15-H ) :   0.9702
B( 16-S , 17-C ) :   1.1411 B( 16-S , 20-C ) :   1.1301 B( 17-C , 18-C ) :   1.6072
B( 17-C , 33-H ) :   0.9680 B( 18-C , 19-C ) :   1.2302 B( 18-C , 21-H ) :   0.9959
B( 19-C , 20-C ) :   1.6233 B( 19-C , 22-C ) :   1.0450 B( 22-C , 23-H ) :   0.9383
B( 22-C , 24-H ) :   0.9364 B( 22-C , 25-C ) :   1.0690 B( 25-C , 26-H ) :   0.9518
B( 25-C , 27-H ) :   0.9559 B( 25-C , 28-C ) :   1.0566 B( 28-C , 29-H ) :   0.9713
B( 28-C , 30-H ) :   0.9744 B( 28-C , 31-H ) :   0.9757

Dispersion correction           -0.014645899
FINAL SINGLE POINT ENERGY     -1339.873370794824

DIPOLE MOMENT
-------------
                                X             Y             Z
Electronic contribution:      8.45836      -1.74187      16.22724
Nuclear contribution   :     -8.67948       1.55810     -16.67822
                        -----------------------------------------
Total Dipole Moment    :     -0.22112      -0.18377      -0.45098
                        -----------------------------------------
Magnitude (a.u.)       :      0.53484
Magnitude (Debye)      :      1.35945

Rotational constants in cm-1:     0.021136     0.007479     0.006689
Rotational constants in MHz :   633.647485   224.205407   200.529817

                             ****ORCA TERMINATED NORMALLY****
TOTAL RUN TIME: 0 days 0 hours 0 minutes 21 seconds 445 msec
