                         Program Version 4.2.1 -  RELEASE  -
|  1> ! wB97X-D3 SP def2-SVP
|  2> %pal
|  3> nprocs 24
|  4> end
|  5>
|  6> * xyz 0 1
|  7> S 	 -73.0555 	 8.73214 	 18.6239
|  8> C 	 -71.8637 	 9.80688 	 17.7888
|  9> C 	 -71.1458 	 9.12426 	 16.8305
| 10> C 	 -71.4961 	 7.72968 	 16.7697
| 11> C 	 -72.4662 	 7.32664 	 17.6909
| 12> H 	 -71.0774 	 7.01873 	 16.085
| 13> C 	 -69.9259 	 9.73725 	 16.1285
| 14> H 	 -70.1218 	 10.7982 	 15.843
| 15> H 	 -69.7934 	 9.19749 	 15.1698
| 16> C 	 -68.6047 	 9.70381 	 16.8875
| 17> H 	 -68.7633 	 10.4468 	 17.6028
| 18> H 	 -68.4361 	 8.7853 	 17.442
| 19> C 	 -67.3385 	 10.0695 	 16.0665
| 20> H 	 -66.9652 	 9.26475 	 15.4264
| 21> H 	 -67.4954 	 10.9351 	 15.4283
| 22> H 	 -66.4605 	 10.1302 	 16.7558
| 23> S 	 -74.8069 	 6.06066 	 17.4552
| 24> C 	 -74.8527 	 4.32134 	 17.4151
| 25> C 	 -73.6127 	 3.73863 	 17.4611
| 26> C 	 -72.5692 	 4.70696 	 17.508
| 27> C 	 -73.0609 	 6.02229 	 17.7344
| 28> H 	 -73.3561 	 2.7856 	 17.3572
| 29> C 	 -71.084 	 4.37927 	 17.5373
| 30> H 	 -70.4722 	 5.27137 	 17.3602
| 31> H 	 -70.9729 	 3.74735 	 16.7646
| 32> C 	 -70.6759 	 3.51659 	 18.7331
| 33> H 	 -71.1814 	 2.55911 	 18.7124
| 34> H 	 -71.0024 	 4.09046 	 19.5885
| 35> C 	 -69.205 	 3.19653 	 18.7561
| 36> H 	 -69.0239 	 2.42987 	 19.5166
| 37> H 	 -68.5948 	 4.08226 	 18.9979
| 38> H 	 -68.9505 	 2.80628 	 17.7894
| 39> H 	 -71.6016 	 10.8616 	 18.0825
| 40> H 	 -75.7655 	 3.83217 	 17.2703
| 41> *
| 42>
| 43>                          ****END OF INPUT****

CARTESIAN COORDINATES (ANGSTROEM)
---------------------------------
  S    -73.055500    8.732140   18.623900
  C    -71.863700    9.806880   17.788800
  C    -71.145800    9.124260   16.830500
  C    -71.496100    7.729680   16.769700
  C    -72.466200    7.326640   17.690900
  H    -71.077400    7.018730   16.085000
  C    -69.925900    9.737250   16.128500
  H    -70.121800   10.798200   15.843000
  H    -69.793400    9.197490   15.169800
  C    -68.604700    9.703810   16.887500
  H    -68.763300   10.446800   17.602800
  H    -68.436100    8.785300   17.442000
  C    -67.338500   10.069500   16.066500
  H    -66.965200    9.264750   15.426400
  H    -67.495400   10.935100   15.428300
  H    -66.460500   10.130200   16.755800
  S    -74.806900    6.060660   17.455200
  C    -74.852700    4.321340   17.415100
  C    -73.612700    3.738630   17.461100
  C    -72.569200    4.706960   17.508000
  C    -73.060900    6.022290   17.734400
  H    -73.356100    2.785600   17.357200
  C    -71.084000    4.379270   17.537300
  H    -70.472200    5.271370   17.360200
  H    -70.972900    3.747350   16.764600
  C    -70.675900    3.516590   18.733100
  H    -71.181400    2.559110   18.712400
  H    -71.002400    4.090460   19.588500
  C    -69.205000    3.196530   18.756100
  H    -69.023900    2.429870   19.516600
  H    -68.594800    4.082260   18.997900
  H    -68.950500    2.806280   17.789400
  H    -71.601600   10.861600   18.082500
  H    -75.765500    3.832170   17.270300

 Total Charge           Charge          ....    0
 Multiplicity           Mult            ....    1
 Number of Electrons    NEL             ....  134
 Basis Dimension        Dim             ....  322

ORBITAL ENERGIES
----------------

  NO   OCC          E(Eh)            E(eV)
   0   2.0000     -88.968818     -2420.9646
   1   2.0000     -88.963394     -2420.8170
   2   2.0000     -10.333086      -281.1776
   3   2.0000     -10.325486      -280.9707
   4   2.0000     -10.321802      -280.8705
   5   2.0000     -10.315190      -280.6906
   6   2.0000     -10.305914      -280.4382
   7   2.0000     -10.304322      -280.3949
   8   2.0000     -10.297174      -280.2004
   9   2.0000     -10.295377      -280.1514
  10   2.0000     -10.287411      -279.9347
  11   2.0000     -10.284708      -279.8611
  12   2.0000     -10.282962      -279.8136
  13   2.0000     -10.282456      -279.7999
  14   2.0000     -10.280737      -279.7531
  15   2.0000     -10.276940      -279.6497
  16   2.0000      -8.081854      -219.9184
  17   2.0000      -8.078384      -219.8240
  18   2.0000      -6.040618      -164.3736
  19   2.0000      -6.036823      -164.2703
  20   2.0000      -6.036628      -164.2650
  21   2.0000      -6.032909      -164.1638
  22   2.0000      -6.032405      -164.1501
  23   2.0000      -6.029145      -164.0614
  24   2.0000      -1.002801       -27.2876
  25   2.0000      -0.976690       -26.5771
  26   2.0000      -0.918091       -24.9825
  27   2.0000      -0.909908       -24.7599
  28   2.0000      -0.871630       -23.7183
  29   2.0000      -0.855383       -23.2762
  30   2.0000      -0.842512       -22.9259
  31   2.0000      -0.812576       -22.1113
  32   2.0000      -0.785032       -21.3618
  33   2.0000      -0.770983       -20.9795
  34   2.0000      -0.705497       -19.1975
  35   2.0000      -0.702621       -19.1193
  36   2.0000      -0.697953       -18.9923
  37   2.0000      -0.673002       -18.3133
  38   2.0000      -0.635699       -17.2982
  39   2.0000      -0.617325       -16.7983
  40   2.0000      -0.604088       -16.4381
  41   2.0000      -0.579855       -15.7787
  42   2.0000      -0.564175       -15.3520
  43   2.0000      -0.561529       -15.2800
  44   2.0000      -0.529924       -14.4200
  45   2.0000      -0.528403       -14.3786
  46   2.0000      -0.521406       -14.1882
  47   2.0000      -0.508175       -13.8282
  48   2.0000      -0.499505       -13.5922
  49   2.0000      -0.496227       -13.5030
  50   2.0000      -0.494292       -13.4504
  51   2.0000      -0.485883       -13.2215
  52   2.0000      -0.470540       -12.8040
  53   2.0000      -0.464251       -12.6329
  54   2.0000      -0.458213       -12.4686
  55   2.0000      -0.454013       -12.3543
  56   2.0000      -0.447135       -12.1672
  57   2.0000      -0.439745       -11.9661
  58   2.0000      -0.432489       -11.7686
  59   2.0000      -0.426705       -11.6112
  60   2.0000      -0.421755       -11.4765
  61   2.0000      -0.418988       -11.4013
  62   2.0000      -0.412228       -11.2173
  63   2.0000      -0.350013        -9.5243
  64   2.0000      -0.331655        -9.0248
  65   2.0000      -0.329074        -8.9546
  66   2.0000      -0.286258        -7.7895
  67   0.0000       0.024075         0.6551
  68   0.0000       0.067223         1.8292
  69   0.0000       0.104346         2.8394
  70   0.0000       0.113291         3.0828
  71   0.0000       0.130377         3.5477

MULLIKEN ATOMIC CHARGES
-----------------------
   0 S :    0.101474
   1 C :   -0.141343
   2 C :   -0.067864
   3 C :    0.024693
   4 C :   -0.148689
   5 H :    0.013802
   6 C :    0.021401
   7 H :    0.031732
   8 H :    0.021662
   9 C :   -0.024745
  10 H :    0.006793
  11 H :    0.028348
  12 C :   -0.063662
  13 H :    0.028363
  14 H :    0.037738
  15 H :    0.038534
  16 S :    0.094228
  17 C :   -0.051373
  18 C :    0.051949
  19 C :   -0.095017
  20 C :   -0.139083
  21 H :   -0.045256
  22 C :    0.127362
  23 H :    0.023595
  24 H :   -0.017883
  25 C :   -0.092412
  26 H :    0.024229
  27 H :    0.032646
  28 C :   -0.022683
  29 H :    0.036178
  30 H :    0.037654
  31 H :    0.017688
  32 H :    0.069317
  33 H :    0.040625
Sum of atomic charges:   -0.0000000

LOEWDIN ATOMIC CHARGES
----------------------
   0 S :    0.366470
   1 C :   -0.188242
   2 C :   -0.063836
   3 C :   -0.060264
   4 C :   -0.185895
   5 H :    0.027332
   6 C :   -0.034725
   7 H :    0.033107
   8 H :    0.027081
   9 C :   -0.038149
  10 H :    0.015443
  11 H :    0.025465
  12 C :   -0.069537
  13 H :    0.024741
  14 H :    0.024913
  15 H :    0.034545
  16 S :    0.407337
  17 C :   -0.165034
  18 C :   -0.053450
  19 C :   -0.039555
  20 C :   -0.198447
  21 H :    0.007947
  22 C :   -0.025904
  23 H :    0.031607
  24 H :    0.013224
  25 C :   -0.035813
  26 H :    0.022616
  27 H :    0.023268
  28 C :   -0.060442
  29 H :    0.028958
  30 H :    0.027925
  31 H :    0.020125
  32 H :    0.040900
  33 H :    0.016290

  Mayer bond orders larger than 0.100000
B(  0-S ,  1-C ) :   1.1115 B(  0-S ,  4-C ) :   1.1307 B(  1-C ,  2-C ) :   1.6376
B(  1-C , 32-H ) :   0.9590 B(  2-C ,  3-C ) :   1.2280 B(  2-C ,  6-C ) :   1.0332
B(  3-C ,  4-C ) :   1.5741 B(  3-C ,  5-H ) :   0.9886 B(  4-C , 20-C ) :   1.0590
B(  6-C ,  7-H ) :   0.9412 B(  6-C ,  8-H ) :   0.9438 B(  6-C ,  9-C ) :   1.0541
B(  9-C , 10-H ) :   0.9525 B(  9-C , 11-H ) :   0.9569 B(  9-C , 12-C ) :   1.0824
B( 12-C , 13-H ) :   0.9748 B( 12-C , 14-H ) :   0.9752 B( 12-C , 15-H ) :   0.9724
B( 16-S , 17-C ) :   1.1705 B( 16-S , 20-C ) :   1.1415 B( 17-C , 18-C ) :   1.5606
B( 17-C , 33-H ) :   0.9764 B( 18-C , 19-C ) :   1.2629 B( 18-C , 21-H ) :   1.0114
B( 19-C , 20-C ) :   1.5603 B( 19-C , 22-C ) :   1.0540 B( 22-C , 23-H ) :   0.9395
B( 22-C , 24-H ) :   0.9016 B( 22-C , 25-C ) :   1.0690 B( 25-C , 26-H ) :   0.9501
B( 25-C , 27-H ) :   0.9580 B( 25-C , 28-C ) :   1.0924 B( 28-C , 29-H ) :   0.9734
B( 28-C , 30-H ) :   0.9741 B( 28-C , 31-H ) :   0.9709

Dispersion correction           -0.013520817
FINAL SINGLE POINT ENERGY     -1339.863706719974

DIPOLE MOMENT
-------------
                                X             Y             Z
Electronic contribution:    -30.90918       3.72433       4.00237
Nuclear contribution   :     31.58773      -4.05748      -4.30407
                        -----------------------------------------
Total Dipole Moment    :      0.67855      -0.33316      -0.30170
                        -----------------------------------------
Magnitude (a.u.)       :      0.81391
Magnitude (Debye)      :      2.06880

Rotational constants in cm-1:     0.016810     0.008675     0.006292
Rotational constants in MHz :   503.937983   260.072001   188.634279

                             ****ORCA TERMINATED NORMALLY****
TOTAL RUN TIME: 0 days 0 hours 0 minutes 22 seconds 350 msec
