                         Program Version 4.2.1 -  RELEASE  -
|  1> ! wB97X-D3 SP def2-SVP
|  2> %pal
|  3> nprocs 24
|  4> end
|  5>
|  6> * xyz 0 1
|  7> S 	 -106.262 	 46.8817 	 -5.62798
|  8> C 	 -106.834 	 48.5647 	 -5.48122
|  9> C 	 -105.934 	 49.4886 	 -5.91568
| 10> C 	 -104.695 	 48.8516 	 -6.31671
| 11> C 	 -104.686 	 47.4768 	 -6.19031
| 12> H 	 -103.854 	 49.3091 	 -6.70514
| 13> C 	 -106.071 	 51.0369 	 -5.92703
| 14> H 	 -105.258 	 51.3229 	 -5.29152
| 15> H 	 -106.981 	 51.3007 	 -5.47194
| 16> C 	 -105.776 	 51.7449 	 -7.24017
| 17> H 	 -105.914 	 52.7974 	 -7.16719
| 18> H 	 -104.714 	 51.6849 	 -7.59651
| 19> C 	 -106.671 	 51.1667 	 -8.31659
| 20> H 	 -107.662 	 51.3622 	 -7.95978
| 21> H 	 -106.615 	 51.8397 	 -9.14422
| 22> H 	 -106.453 	 50.1222 	 -8.61467
| 23> S 	 -103.999 	 45.1907 	 -7.32998
| 24> C 	 -102.347 	 44.7841 	 -7.60806
| 25> C 	 -101.524 	 45.7366 	 -7.04747
| 26> C 	 -102.15 	 46.7322 	 -6.27876
| 27> C 	 -103.545 	 46.6127 	 -6.38842
| 28> H 	 -100.443 	 45.8385 	 -7.12944
| 29> C 	 -101.428 	 47.8994 	 -5.6484
| 30> H 	 -100.815 	 47.3542 	 -4.93961
| 31> H 	 -102.136 	 48.5258 	 -5.15856
| 32> C 	 -100.455 	 48.6435 	 -6.43143
| 33> H 	 -99.654 	 47.9644 	 -6.63463
| 34> H 	 -100.064 	 49.4452 	 -5.83768
| 35> C 	 -101.063 	 49.2558 	 -7.73855
| 36> H 	 -101.39 	 48.4934 	 -8.47934
| 37> H 	 -100.233 	 49.7032 	 -8.27617
| 38> H 	 -101.865 	 50.0204 	 -7.61645
| 39> H 	 -107.778 	 48.926 	 -5.07317
| 40> H 	 -101.922 	 44.1422 	 -8.3507
| 41> *
| 42>
| 43>                          ****END OF INPUT****

CARTESIAN COORDINATES (ANGSTROEM)
---------------------------------
  S    -106.262000   46.881700   -5.627980
  C    -106.834000   48.564700   -5.481220
  C    -105.934000   49.488600   -5.915680
  C    -104.695000   48.851600   -6.316710
  C    -104.686000   47.476800   -6.190310
  H    -103.854000   49.309100   -6.705140
  C    -106.071000   51.036900   -5.927030
  H    -105.258000   51.322900   -5.291520
  H    -106.981000   51.300700   -5.471940
  C    -105.776000   51.744900   -7.240170
  H    -105.914000   52.797400   -7.167190
  H    -104.714000   51.684900   -7.596510
  C    -106.671000   51.166700   -8.316590
  H    -107.662000   51.362200   -7.959780
  H    -106.615000   51.839700   -9.144220
  H    -106.453000   50.122200   -8.614670
  S    -103.999000   45.190700   -7.329980
  C    -102.347000   44.784100   -7.608060
  C    -101.524000   45.736600   -7.047470
  C    -102.150000   46.732200   -6.278760
  C    -103.545000   46.612700   -6.388420
  H    -100.443000   45.838500   -7.129440
  C    -101.428000   47.899400   -5.648400
  H    -100.815000   47.354200   -4.939610
  H    -102.136000   48.525800   -5.158560
  C    -100.455000   48.643500   -6.431430
  H    -99.654000   47.964400   -6.634630
  H    -100.064000   49.445200   -5.837680
  C    -101.063000   49.255800   -7.738550
  H    -101.390000   48.493400   -8.479340
  H    -100.233000   49.703200   -8.276170
  H    -101.865000   50.020400   -7.616450
  H    -107.778000   48.926000   -5.073170
  H    -101.922000   44.142200   -8.350700

 Total Charge           Charge          ....    0
 Multiplicity           Mult            ....    1
 Number of Electrons    NEL             ....  134
 Basis Dimension        Dim             ....  322

ORBITAL ENERGIES
----------------

  NO   OCC          E(Eh)            E(eV)
   0   2.0000     -88.965752     -2420.8812
   1   2.0000     -88.965440     -2420.8727
   2   2.0000     -10.330104      -281.0964
   3   2.0000     -10.326292      -280.9927
   4   2.0000     -10.315082      -280.6876
   5   2.0000     -10.312548      -280.6187
   6   2.0000     -10.302398      -280.3425
   7   2.0000     -10.301757      -280.3251
   8   2.0000     -10.291973      -280.0588
   9   2.0000     -10.290130      -280.0087
  10   2.0000     -10.286798      -279.9180
  11   2.0000     -10.286345      -279.9057
  12   2.0000     -10.286298      -279.9044
  13   2.0000     -10.284348      -279.8513
  14   2.0000     -10.283611      -279.8313
  15   2.0000     -10.268509      -279.4203
  16   2.0000      -8.080548      -219.8829
  17   2.0000      -8.079523      -219.8550
  18   2.0000      -6.039002      -164.3296
  19   2.0000      -6.038310      -164.3108
  20   2.0000      -6.034949      -164.2193
  21   2.0000      -6.034357      -164.2032
  22   2.0000      -6.031374      -164.1220
  23   2.0000      -6.029850      -164.0806
  24   2.0000      -1.007494       -27.4153
  25   2.0000      -0.981025       -26.6950
  26   2.0000      -0.926124       -25.2011
  27   2.0000      -0.915742       -24.9186
  28   2.0000      -0.871733       -23.7211
  29   2.0000      -0.851710       -23.1762
  30   2.0000      -0.841879       -22.9087
  31   2.0000      -0.813379       -22.1332
  32   2.0000      -0.789459       -21.4823
  33   2.0000      -0.779534       -21.2122
  34   2.0000      -0.714509       -19.4428
  35   2.0000      -0.699734       -19.0407
  36   2.0000      -0.696097       -18.9418
  37   2.0000      -0.663702       -18.0603
  38   2.0000      -0.638604       -17.3773
  39   2.0000      -0.621466       -16.9109
  40   2.0000      -0.600190       -16.3320
  41   2.0000      -0.564125       -15.3506
  42   2.0000      -0.560039       -15.2394
  43   2.0000      -0.556343       -15.1389
  44   2.0000      -0.549951       -14.9649
  45   2.0000      -0.546592       -14.8735
  46   2.0000      -0.520848       -14.1730
  47   2.0000      -0.515264       -14.0211
  48   2.0000      -0.501469       -13.6457
  49   2.0000      -0.495833       -13.4923
  50   2.0000      -0.493930       -13.4405
  51   2.0000      -0.480980       -13.0881
  52   2.0000      -0.474795       -12.9198
  53   2.0000      -0.463191       -12.6041
  54   2.0000      -0.461151       -12.5486
  55   2.0000      -0.451244       -12.2790
  56   2.0000      -0.446113       -12.1393
  57   2.0000      -0.435428       -11.8486
  58   2.0000      -0.429303       -11.6819
  59   2.0000      -0.428132       -11.6501
  60   2.0000      -0.419475       -11.4145
  61   2.0000      -0.418929       -11.3997
  62   2.0000      -0.413545       -11.2531
  63   2.0000      -0.352619        -9.5953
  64   2.0000      -0.331859        -9.0303
  65   2.0000      -0.328339        -8.9346
  66   2.0000      -0.284784        -7.7494
  67   0.0000       0.027274         0.7422
  68   0.0000       0.071304         1.9403
  69   0.0000       0.100684         2.7398
  70   0.0000       0.119856         3.2615
  71   0.0000       0.127863         3.4793

MULLIKEN ATOMIC CHARGES
-----------------------
   0 S :    0.103419
   1 C :   -0.122584
   2 C :   -0.099533
   3 C :    0.046955
   4 C :   -0.110883
   5 H :   -0.064557
   6 C :    0.131276
   7 H :    0.026069
   8 H :    0.007417
   9 C :   -0.096680
  10 H :    0.023022
  11 H :    0.028372
  12 C :   -0.021672
  13 H :    0.011607
  14 H :    0.012428
  15 H :    0.066211
  16 S :    0.097233
  17 C :   -0.042050
  18 C :   -0.070113
  19 C :   -0.066359
  20 C :   -0.162644
  21 H :    0.009567
  22 C :    0.110302
  23 H :    0.023802
  24 H :    0.019281
  25 C :   -0.041196
  26 H :    0.016460
  27 H :    0.030510
  28 C :   -0.087181
  29 H :    0.045900
  30 H :    0.026405
  31 H :    0.056089
  32 H :    0.037701
  33 H :    0.055427
Sum of atomic charges:   -0.0000000

LOEWDIN ATOMIC CHARGES
----------------------
   0 S :    0.370589
   1 C :   -0.192595
   2 C :   -0.055549
   3 C :   -0.060491
   4 C :   -0.180951
   5 H :    0.011292
   6 C :   -0.020634
   7 H :    0.033656
   8 H :    0.021304
   9 C :   -0.043502
  10 H :    0.022867
  11 H :    0.024843
  12 C :   -0.062220
  13 H :    0.021538
  14 H :    0.019903
  15 H :    0.035463
  16 S :    0.416952
  17 C :   -0.195504
  18 C :   -0.073407
  19 C :   -0.053337
  20 C :   -0.188848
  21 H :    0.028300
  22 C :   -0.031710
  23 H :    0.039228
  24 H :    0.026016
  25 C :   -0.034200
  26 H :    0.020704
  27 H :    0.029120
  28 C :   -0.075684
  29 H :    0.032395
  30 H :    0.025540
  31 H :    0.027401
  32 H :    0.030002
  33 H :    0.031517

  Mayer bond orders larger than 0.100000
B(  0-S ,  1-C ) :   1.1032 B(  0-S ,  4-C ) :   1.1193 B(  1-C ,  2-C ) :   1.6832
B(  1-C , 32-H ) :   0.9562 B(  2-C ,  3-C ) :   1.1825 B(  2-C ,  6-C ) :   1.0103
B(  3-C ,  4-C ) :   1.6155 B(  3-C ,  5-H ) :   1.0054 B(  4-C , 20-C ) :   1.0406
B(  6-C ,  7-H ) :   0.9322 B(  6-C ,  8-H ) :   0.9428 B(  6-C ,  9-C ) :   1.0766
B(  9-C , 10-H ) :   0.9524 B(  9-C , 11-H ) :   0.9503 B(  9-C , 12-C ) :   1.0848
B( 12-C , 13-H ) :   0.9739 B( 12-C , 14-H ) :   0.9701 B( 12-C , 15-H ) :   0.9706
B( 16-S , 17-C ) :   1.1556 B( 16-S , 20-C ) :   1.1515 B( 17-C , 18-C ) :   1.5837
B( 17-C , 33-H ) :   0.9670 B( 18-C , 19-C ) :   1.2810 B( 18-C , 21-H ) :   0.9806
B( 19-C , 20-C ) :   1.5649 B( 19-C , 22-C ) :   1.0282 B( 22-C , 23-H ) :   0.9141
B( 22-C , 24-H ) :   0.9379 B( 22-C , 25-C ) :   1.1035 B( 25-C , 26-H ) :   0.9440
B( 25-C , 27-H ) :   0.9470 B( 25-C , 28-C ) :   1.0815 B( 28-C , 29-H ) :   0.9709
B( 28-C , 30-H ) :   0.9711 B( 28-C , 31-H ) :   0.9670

Dispersion correction           -0.015488985
FINAL SINGLE POINT ENERGY     -1339.862597236790

DIPOLE MOMENT
-------------
                                X             Y             Z
Electronic contribution:     -9.26053     -25.68604       6.05227
Nuclear contribution   :      9.84008      26.50125      -6.21007
                        -----------------------------------------
Total Dipole Moment    :      0.57955       0.81521      -0.15779
                        -----------------------------------------
Magnitude (a.u.)       :      1.01259
Magnitude (Debye)      :      2.57380

Rotational constants in cm-1:     0.018452     0.009990     0.007521
Rotational constants in MHz :   553.183204   299.499037   225.468000

                             ****ORCA TERMINATED NORMALLY****
TOTAL RUN TIME: 0 days 0 hours 0 minutes 22 seconds 885 msec
