                         Program Version 4.2.1 -  RELEASE  -
|  1> ! wB97X-D3 SP def2-SVP
|  2> %pal
|  3> nprocs 24
|  4> end
|  5>
|  6> * xyz 0 1
|  7> S 	 -119.682 	 61.6718 	 -32.9991
|  8> C 	 -120.045 	 63.0636 	 -33.9821
|  9> C 	 -120.265 	 62.7041 	 -35.2819
| 10> C 	 -120.034 	 61.2822 	 -35.5131
| 11> C 	 -119.689 	 60.5945 	 -34.3942
| 12> H 	 -120.172 	 60.7253 	 -36.4754
| 13> C 	 -120.69 	 63.5843 	 -36.4671
| 14> H 	 -121.364 	 64.2819 	 -36.0013
| 15> H 	 -121.307 	 63.0693 	 -37.1782
| 16> C 	 -119.573 	 64.4504 	 -37.0653
| 17> H 	 -120.02 	 65.0402 	 -37.8421
| 18> H 	 -119.18 	 65.1416 	 -36.3929
| 19> C 	 -118.501 	 63.5271 	 -37.6868
| 20> H 	 -118.123 	 62.7245 	 -37.0282
| 21> H 	 -118.718 	 63.1384 	 -38.6784
| 22> H 	 -117.562 	 64.1406 	 -37.8123
| 23> S 	 -119.791 	 57.9888 	 -35.3011
| 24> C 	 -118.882 	 56.7627 	 -34.5173
| 25> C 	 -118.159 	 57.2418 	 -33.4672
| 26> C 	 -118.28 	 58.6834 	 -33.3289
| 27> C 	 -119.13 	 59.2481 	 -34.277
| 28> H 	 -117.661 	 56.5661 	 -32.8463
| 29> C 	 -117.537 	 59.3809 	 -32.1687
| 30> H 	 -117.205 	 58.6242 	 -31.4779
| 31> H 	 -118.231 	 59.9362 	 -31.5487
| 32> C 	 -116.386 	 60.3056 	 -32.4659
| 33> H 	 -116.061 	 60.8541 	 -31.5366
| 34> H 	 -116.618 	 61.1531 	 -33.079
| 35> C 	 -115.171 	 59.4595 	 -32.9396
| 36> H 	 -114.358 	 60.2408 	 -32.9707
| 37> H 	 -115.272 	 58.8529 	 -33.8555
| 38> H 	 -114.87 	 58.7339 	 -32.1068
| 39> H 	 -120.142 	 64.046 	 -33.5598
| 40> H 	 -119.029 	 55.6722 	 -34.6417
| 41> *
| 42>
| 43>                          ****END OF INPUT****

CARTESIAN COORDINATES (ANGSTROEM)
---------------------------------
  S    -119.682000   61.671800  -32.999100
  C    -120.045000   63.063600  -33.982100
  C    -120.265000   62.704100  -35.281900
  C    -120.034000   61.282200  -35.513100
  C    -119.689000   60.594500  -34.394200
  H    -120.172000   60.725300  -36.475400
  C    -120.690000   63.584300  -36.467100
  H    -121.364000   64.281900  -36.001300
  H    -121.307000   63.069300  -37.178200
  C    -119.573000   64.450400  -37.065300
  H    -120.020000   65.040200  -37.842100
  H    -119.180000   65.141600  -36.392900
  C    -118.501000   63.527100  -37.686800
  H    -118.123000   62.724500  -37.028200
  H    -118.718000   63.138400  -38.678400
  H    -117.562000   64.140600  -37.812300
  S    -119.791000   57.988800  -35.301100
  C    -118.882000   56.762700  -34.517300
  C    -118.159000   57.241800  -33.467200
  C    -118.280000   58.683400  -33.328900
  C    -119.130000   59.248100  -34.277000
  H    -117.661000   56.566100  -32.846300
  C    -117.537000   59.380900  -32.168700
  H    -117.205000   58.624200  -31.477900
  H    -118.231000   59.936200  -31.548700
  C    -116.386000   60.305600  -32.465900
  H    -116.061000   60.854100  -31.536600
  H    -116.618000   61.153100  -33.079000
  C    -115.171000   59.459500  -32.939600
  H    -114.358000   60.240800  -32.970700
  H    -115.272000   58.852900  -33.855500
  H    -114.870000   58.733900  -32.106800
  H    -120.142000   64.046000  -33.559800
  H    -119.029000   55.672200  -34.641700

 Total Charge           Charge          ....    0
 Multiplicity           Mult            ....    1
 Number of Electrons    NEL             ....  134
 Basis Dimension        Dim             ....  322

ORBITAL ENERGIES
----------------

  NO   OCC          E(Eh)            E(eV)
   0   2.0000     -88.966335     -2420.8971
   1   2.0000     -88.964229     -2420.8398
   2   2.0000     -10.329917      -281.0913
   3   2.0000     -10.329637      -281.0837
   4   2.0000     -10.314859      -280.6816
   5   2.0000     -10.313337      -280.6402
   6   2.0000     -10.308231      -280.5012
   7   2.0000     -10.304018      -280.3866
   8   2.0000     -10.296189      -280.1735
   9   2.0000     -10.289804      -279.9998
  10   2.0000     -10.288143      -279.9546
  11   2.0000     -10.285095      -279.8717
  12   2.0000     -10.282609      -279.8040
  13   2.0000     -10.282462      -279.8000
  14   2.0000     -10.282318      -279.7961
  15   2.0000     -10.276567      -279.6396
  16   2.0000      -8.081604      -219.9116
  17   2.0000      -8.078671      -219.8318
  18   2.0000      -6.040211      -164.3625
  19   2.0000      -6.037386      -164.2856
  20   2.0000      -6.035980      -164.2474
  21   2.0000      -6.033202      -164.1718
  22   2.0000      -6.032320      -164.1478
  23   2.0000      -6.029248      -164.0642
  24   2.0000      -1.008459       -27.4416
  25   2.0000      -0.986412       -26.8416
  26   2.0000      -0.911190       -24.7947
  27   2.0000      -0.905613       -24.6430
  28   2.0000      -0.872249       -23.7351
  29   2.0000      -0.846419       -23.0322
  30   2.0000      -0.838227       -22.8093
  31   2.0000      -0.816370       -22.2145
  32   2.0000      -0.780253       -21.2318
  33   2.0000      -0.771496       -20.9935
  34   2.0000      -0.707196       -19.2438
  35   2.0000      -0.705563       -19.1993
  36   2.0000      -0.686099       -18.6697
  37   2.0000      -0.666476       -18.1357
  38   2.0000      -0.637799       -17.3554
  39   2.0000      -0.612472       -16.6662
  40   2.0000      -0.592888       -16.1333
  41   2.0000      -0.576639       -15.6911
  42   2.0000      -0.549518       -14.9531
  43   2.0000      -0.547285       -14.8924
  44   2.0000      -0.541346       -14.7308
  45   2.0000      -0.539246       -14.6736
  46   2.0000      -0.516837       -14.0639
  47   2.0000      -0.512277       -13.9398
  48   2.0000      -0.503535       -13.7019
  49   2.0000      -0.490500       -13.3472
  50   2.0000      -0.485278       -13.2051
  51   2.0000      -0.483364       -13.1530
  52   2.0000      -0.470861       -12.8128
  53   2.0000      -0.466903       -12.7051
  54   2.0000      -0.462055       -12.5732
  55   2.0000      -0.445526       -12.1234
  56   2.0000      -0.438979       -11.9452
  57   2.0000      -0.435032       -11.8378
  58   2.0000      -0.429467       -11.6864
  59   2.0000      -0.420640       -11.4462
  60   2.0000      -0.415294       -11.3007
  61   2.0000      -0.407753       -11.0955
  62   2.0000      -0.404627       -11.0105
  63   2.0000      -0.362142        -9.8544
  64   2.0000      -0.331067        -9.0088
  65   2.0000      -0.327976        -8.9247
  66   2.0000      -0.288638        -7.8542
  67   0.0000       0.024800         0.6748
  68   0.0000       0.083788         2.2800
  69   0.0000       0.113060         3.0765
  70   0.0000       0.118634         3.2282
  71   0.0000       0.128868         3.5067

MULLIKEN ATOMIC CHARGES
-----------------------
   0 S :    0.079728
   1 C :   -0.117459
   2 C :   -0.090903
   3 C :   -0.015156
   4 C :   -0.111748
   5 H :    0.035689
   6 C :    0.075559
   7 H :    0.012032
   8 H :    0.026229
   9 C :   -0.007815
  10 H :    0.023516
  11 H :    0.015794
  12 C :   -0.094439
  13 H :    0.051815
  14 H :    0.035014
  15 H :    0.026126
  16 S :    0.097645
  17 C :   -0.089176
  18 C :   -0.021880
  19 C :   -0.073582
  20 C :   -0.107820
  21 H :   -0.001865
  22 C :    0.075640
  23 H :    0.003024
  24 H :    0.027078
  25 C :   -0.052069
  26 H :    0.024794
  27 H :    0.029680
  28 C :   -0.093598
  29 H :    0.037404
  30 H :    0.058686
  31 H :    0.029270
  32 H :    0.043863
  33 H :    0.068927
Sum of atomic charges:   -0.0000000

LOEWDIN ATOMIC CHARGES
----------------------
   0 S :    0.412579
   1 C :   -0.195316
   2 C :   -0.058401
   3 C :   -0.074097
   4 C :   -0.183169
   5 H :    0.038094
   6 C :   -0.028994
   7 H :    0.028387
   8 H :    0.028763
   9 C :   -0.027884
  10 H :    0.025360
  11 H :    0.016607
  12 C :   -0.076199
  13 H :    0.030196
  14 H :    0.023583
  15 H :    0.029419
  16 S :    0.417865
  17 C :   -0.199089
  18 C :   -0.067062
  19 C :   -0.053512
  20 C :   -0.195152
  21 H :    0.022998
  22 C :   -0.042204
  23 H :    0.027152
  24 H :    0.019040
  25 C :   -0.044431
  26 H :    0.032032
  27 H :    0.017297
  28 C :   -0.075606
  29 H :    0.029847
  30 H :    0.027956
  31 H :    0.027682
  32 H :    0.026529
  33 H :    0.039733

  Mayer bond orders larger than 0.100000
B(  0-S ,  1-C ) :   1.1261 B(  0-S ,  4-C ) :   1.1363 B(  1-C ,  2-C ) :   1.6385
B(  1-C , 32-H ) :   0.9731 B(  2-C ,  3-C ) :   1.2151 B(  2-C ,  6-C ) :   1.0094
B(  3-C ,  4-C ) :   1.5981 B(  3-C ,  5-H ) :   0.9814 B(  4-C , 20-C ) :   1.0470
B(  6-C ,  7-H ) :   0.9329 B(  6-C ,  8-H ) :   0.9499 B(  6-C ,  9-C ) :   1.0829
B(  9-C , 10-H ) :   0.9523 B(  9-C , 11-H ) :   0.9586 B(  9-C , 12-C ) :   1.0718
B( 12-C , 13-H ) :   0.9750 B( 12-C , 14-H ) :   0.9776 B( 12-C , 15-H ) :   0.9739
B( 16-S , 17-C ) :   1.1584 B( 16-S , 20-C ) :   1.1369 B( 17-C , 18-C ) :   1.6252
B( 17-C , 33-H ) :   0.9577 B( 18-C , 19-C ) :   1.2359 B( 18-C , 21-H ) :   1.0002
B( 19-C , 20-C ) :   1.5858 B( 19-C , 22-C ) :   1.0309 B( 22-C , 23-H ) :   0.9311
B( 22-C , 24-H ) :   0.9276 B( 22-C , 25-C ) :   1.0821 B( 25-C , 26-H ) :   0.9488
B( 25-C , 27-H ) :   0.9546 B( 25-C , 28-C ) :   1.0605 B( 28-C , 29-H ) :   0.9762
B( 28-C , 30-H ) :   0.9785 B( 28-C , 31-H ) :   0.9744

Dispersion correction           -0.014866688
FINAL SINGLE POINT ENERGY     -1339.880112820844

DIPOLE MOMENT
-------------
                                X             Y             Z
Electronic contribution:    -14.21745     -12.17837       4.59841
Nuclear contribution   :     14.28370      12.40538      -4.58938
                        -----------------------------------------
Total Dipole Moment    :      0.06625       0.22701       0.00903
                        -----------------------------------------
Magnitude (a.u.)       :      0.23666
Magnitude (Debye)      :      0.60153

Rotational constants in cm-1:     0.019921     0.008742     0.007623
Rotational constants in MHz :   597.204290   262.066650   228.524125

                             ****ORCA TERMINATED NORMALLY****
TOTAL RUN TIME: 0 days 0 hours 0 minutes 20 seconds 987 msec
