                         Program Version 4.2.1 -  RELEASE  -
|  1> ! wB97X-D3 SP def2-SVP
|  2> %pal
|  3> nprocs 24
|  4> end
|  5>
|  6> * xyz 0 1
|  7> S 	 41.4424 	 -22.0167 	 -124.234
|  8> C 	 40.0979 	 -20.9302 	 -124.528
|  9> C 	 39.0081 	 -21.6661 	 -125.016
| 10> C 	 39.3496 	 -23.0017 	 -125.259
| 11> C 	 40.6731 	 -23.4099 	 -124.969
| 12> H 	 38.6639 	 -23.8672 	 -125.631
| 13> C 	 37.5942 	 -21.1221 	 -125.148
| 14> H 	 36.9131 	 -21.7186 	 -125.755
| 15> H 	 37.6181 	 -20.1536 	 -125.615
| 16> C 	 36.9597 	 -20.8982 	 -123.772
| 17> H 	 36.7744 	 -21.8342 	 -123.274
| 18> H 	 37.7017 	 -20.2864 	 -123.227
| 19> C 	 35.5557 	 -20.1687 	 -123.843
| 20> H 	 35.2078 	 -20.1631 	 -122.81
| 21> H 	 35.4625 	 -19.1464 	 -124.273
| 22> H 	 34.8867 	 -20.7294 	 -124.378
| 23> S 	 39.9607 	 -25.9916 	 -124.822
| 24> C 	 41.1284 	 -27.1704 	 -124.435
| 25> C 	 42.354 	 -26.6595 	 -124.319
| 26> C 	 42.4505 	 -25.2534 	 -124.556
| 27> C 	 41.2099 	 -24.7575 	 -124.874
| 28> H 	 43.2126 	 -27.2575 	 -124.049
| 29> C 	 43.7358 	 -24.4664 	 -124.398
| 30> H 	 43.6898 	 -24.0532 	 -123.35
| 31> H 	 43.5629 	 -23.6528 	 -125.116
| 32> C 	 45.058 	 -25.2338 	 -124.622
| 33> H 	 45.1528 	 -25.3407 	 -125.657
| 34> H 	 44.9979 	 -26.2406 	 -124.21
| 35> C 	 46.3634 	 -24.4799 	 -124.054
| 36> H 	 46.4665 	 -23.4657 	 -124.413
| 37> H 	 47.3025 	 -25.0656 	 -124.252
| 38> H 	 46.2527 	 -24.4188 	 -122.973
| 39> H 	 39.8404 	 -19.9564 	 -124.294
| 40> H 	 40.9104 	 -28.2177 	 -124.211
| 41> *
| 42>
| 43>                          ****END OF INPUT****

CARTESIAN COORDINATES (ANGSTROEM)
---------------------------------
  S     41.442400  -22.016700  -124.234000
  C     40.097900  -20.930200  -124.528000
  C     39.008100  -21.666100  -125.016000
  C     39.349600  -23.001700  -125.259000
  C     40.673100  -23.409900  -124.969000
  H     38.663900  -23.867200  -125.631000
  C     37.594200  -21.122100  -125.148000
  H     36.913100  -21.718600  -125.755000
  H     37.618100  -20.153600  -125.615000
  C     36.959700  -20.898200  -123.772000
  H     36.774400  -21.834200  -123.274000
  H     37.701700  -20.286400  -123.227000
  C     35.555700  -20.168700  -123.843000
  H     35.207800  -20.163100  -122.810000
  H     35.462500  -19.146400  -124.273000
  H     34.886700  -20.729400  -124.378000
  S     39.960700  -25.991600  -124.822000
  C     41.128400  -27.170400  -124.435000
  C     42.354000  -26.659500  -124.319000
  C     42.450500  -25.253400  -124.556000
  C     41.209900  -24.757500  -124.874000
  H     43.212600  -27.257500  -124.049000
  C     43.735800  -24.466400  -124.398000
  H     43.689800  -24.053200  -123.350000
  H     43.562900  -23.652800  -125.116000
  C     45.058000  -25.233800  -124.622000
  H     45.152800  -25.340700  -125.657000
  H     44.997900  -26.240600  -124.210000
  C     46.363400  -24.479900  -124.054000
  H     46.466500  -23.465700  -124.413000
  H     47.302500  -25.065600  -124.252000
  H     46.252700  -24.418800  -122.973000
  H     39.840400  -19.956400  -124.294000
  H     40.910400  -28.217700  -124.211000

 Total Charge           Charge          ....    0
 Multiplicity           Mult            ....    1
 Number of Electrons    NEL             ....  134
 Basis Dimension        Dim             ....  322

ORBITAL ENERGIES
----------------

  NO   OCC          E(Eh)            E(eV)
   0   2.0000     -88.971514     -2421.0380
   1   2.0000     -88.964111     -2420.8365
   2   2.0000     -10.332991      -281.1750
   3   2.0000     -10.327243      -281.0186
   4   2.0000     -10.311488      -280.5898
   5   2.0000     -10.309518      -280.5362
   6   2.0000     -10.303156      -280.3631
   7   2.0000     -10.300247      -280.2840
   8   2.0000     -10.299661      -280.2680
   9   2.0000     -10.297885      -280.2197
  10   2.0000     -10.291815      -280.0545
  11   2.0000     -10.289483      -279.9911
  12   2.0000     -10.289247      -279.9847
  13   2.0000     -10.287514      -279.9375
  14   2.0000     -10.286604      -279.9127
  15   2.0000     -10.275829      -279.6195
  16   2.0000      -8.084790      -219.9983
  17   2.0000      -8.079926      -219.8660
  18   2.0000      -6.043403      -164.4494
  19   2.0000      -6.039344      -164.3389
  20   2.0000      -6.038523      -164.3166
  21   2.0000      -6.035659      -164.2386
  22   2.0000      -6.034396      -164.2043
  23   2.0000      -6.030428      -164.0963
  24   2.0000      -1.013844       -27.5881
  25   2.0000      -0.987916       -26.8826
  26   2.0000      -0.911924       -24.8147
  27   2.0000      -0.907563       -24.6961
  28   2.0000      -0.872502       -23.7420
  29   2.0000      -0.851671       -23.1752
  30   2.0000      -0.841696       -22.9037
  31   2.0000      -0.812356       -22.1053
  32   2.0000      -0.784954       -21.3597
  33   2.0000      -0.775266       -21.0961
  34   2.0000      -0.716607       -19.4999
  35   2.0000      -0.703208       -19.1353
  36   2.0000      -0.700736       -19.0680
  37   2.0000      -0.665635       -18.1129
  38   2.0000      -0.623784       -16.9740
  39   2.0000      -0.614582       -16.7236
  40   2.0000      -0.599315       -16.3082
  41   2.0000      -0.575341       -15.6558
  42   2.0000      -0.567469       -15.4416
  43   2.0000      -0.561471       -15.2784
  44   2.0000      -0.527146       -14.3444
  45   2.0000      -0.523171       -14.2362
  46   2.0000      -0.516594       -14.0572
  47   2.0000      -0.513934       -13.9849
  48   2.0000      -0.508452       -13.8357
  49   2.0000      -0.495773       -13.4907
  50   2.0000      -0.483598       -13.1594
  51   2.0000      -0.480051       -13.0629
  52   2.0000      -0.472474       -12.8567
  53   2.0000      -0.468471       -12.7477
  54   2.0000      -0.465542       -12.6680
  55   2.0000      -0.452271       -12.3069
  56   2.0000      -0.444525       -12.0961
  57   2.0000      -0.438238       -11.9251
  58   2.0000      -0.432600       -11.7716
  59   2.0000      -0.431501       -11.7417
  60   2.0000      -0.422493       -11.4966
  61   2.0000      -0.417534       -11.3617
  62   2.0000      -0.411833       -11.2065
  63   2.0000      -0.363084        -9.8800
  64   2.0000      -0.333540        -9.0761
  65   2.0000      -0.329886        -8.9767
  66   2.0000      -0.280386        -7.6297
  67   0.0000       0.019545         0.5318
  68   0.0000       0.083493         2.2720
  69   0.0000       0.111566         3.0359
  70   0.0000       0.121690         3.3114
  71   0.0000       0.134019         3.6468

MULLIKEN ATOMIC CHARGES
-----------------------
   0 S :    0.098853
   1 C :   -0.050821
   2 C :   -0.105475
   3 C :   -0.042623
   4 C :   -0.133591
   5 H :    0.049153
   6 C :    0.078177
   7 H :    0.020009
   8 H :    0.018847
   9 C :   -0.092606
  10 H :    0.033816
  11 H :    0.028694
  12 C :   -0.031498
  13 H :    0.034682
  14 H :    0.037653
  15 H :    0.008680
  16 S :    0.083497
  17 C :   -0.060780
  18 C :   -0.041453
  19 C :   -0.082917
  20 C :   -0.117957
  21 H :    0.008719
  22 C :    0.047726
  23 H :    0.054027
  24 H :    0.042741
  25 C :   -0.064555
  26 H :    0.026751
  27 H :    0.034943
  28 C :   -0.068008
  29 H :    0.040759
  30 H :    0.047158
  31 H :    0.032378
  32 H :    0.009463
  33 H :    0.055556
Sum of atomic charges:   -0.0000000

LOEWDIN ATOMIC CHARGES
----------------------
   0 S :    0.425341
   1 C :   -0.201446
   2 C :   -0.059225
   3 C :   -0.092693
   4 C :   -0.195942
   5 H :    0.035260
   6 C :   -0.032138
   7 H :    0.027648
   8 H :    0.028552
   9 C :   -0.029438
  10 H :    0.024578
  11 H :    0.022777
  12 C :   -0.065182
  13 H :    0.030204
  14 H :    0.029047
  15 H :    0.010327
  16 S :    0.422297
  17 C :   -0.191545
  18 C :   -0.078066
  19 C :   -0.056765
  20 C :   -0.191763
  21 H :    0.028378
  22 C :   -0.040072
  23 H :    0.039558
  24 H :    0.030635
  25 C :   -0.032181
  26 H :    0.019259
  27 H :    0.022993
  28 C :   -0.064460
  29 H :    0.024903
  30 H :    0.033480
  31 H :    0.023498
  32 H :    0.017160
  33 H :    0.035020

  Mayer bond orders larger than 0.100000
B(  0-S ,  1-C ) :   1.1430 B(  0-S ,  4-C ) :   1.1520 B(  1-C ,  2-C ) :   1.5639
B(  1-C ,  4-C ) :   0.1106 B(  1-C , 32-H ) :   0.9670 B(  2-C ,  3-C ) :   1.3215
B(  2-C ,  6-C ) :   1.0302 B(  3-C ,  4-C ) :   1.5169 B(  3-C ,  5-H ) :   0.9623
B(  4-C , 20-C ) :   1.0883 B(  6-C ,  7-H ) :   0.9461 B(  6-C ,  8-H ) :   0.9355
B(  6-C ,  9-C ) :   1.0624 B(  9-C , 10-H ) :   0.9562 B(  9-C , 11-H ) :   0.9599
B(  9-C , 12-C ) :   1.0732 B( 12-C , 13-H ) :   0.9754 B( 12-C , 14-H ) :   0.9766
B( 12-C , 15-H ) :   0.9739 B( 16-S , 17-C ) :   1.1496 B( 16-S , 20-C ) :   1.1291
B( 17-C , 18-C ) :   1.6377 B( 17-C , 33-H ) :   0.9598 B( 18-C , 19-C ) :   1.2340
B( 18-C , 21-H ) :   0.9884 B( 19-C , 20-C ) :   1.6009 B( 19-C , 22-C ) :   1.0207
B( 22-C , 23-H ) :   0.9296 B( 22-C , 24-H ) :   0.9318 B( 22-C , 25-C ) :   1.0589
B( 25-C , 26-H ) :   0.9579 B( 25-C , 27-H ) :   0.9558 B( 25-C , 28-C ) :   1.0738
B( 28-C , 29-H ) :   0.9781 B( 28-C , 30-H ) :   0.9768 B( 28-C , 31-H ) :   0.9790

Dispersion correction           -0.013181653
FINAL SINGLE POINT ENERGY     -1339.866928671850

DIPOLE MOMENT
-------------
                                X             Y             Z
Electronic contribution:     -0.37226      -8.96685      -3.57582
Nuclear contribution   :      0.34549       8.84662       3.81935
                        -----------------------------------------
Total Dipole Moment    :     -0.02677      -0.12023       0.24353
                        -----------------------------------------
Magnitude (a.u.)       :      0.27291
Magnitude (Debye)      :      0.69369

Rotational constants in cm-1:     0.025273     0.006883     0.005594
Rotational constants in MHz :   757.662979   206.345989   167.697811

                             ****ORCA TERMINATED NORMALLY****
TOTAL RUN TIME: 0 days 0 hours 0 minutes 20 seconds 781 msec
