                         Program Version 4.2.1 -  RELEASE  -
|  1> ! wB97X-D3 SP def2-SVP
|  2> %pal
|  3> nprocs 24
|  4> end
|  5>
|  6> * xyz 0 1
|  7> S 	 -45.2338 	 11.4019 	 23.9225
|  8> C 	 -44.6992 	 12.596 	 22.8096
|  9> C 	 -45.4128 	 13.727 	 22.9061
| 10> C 	 -46.4026 	 13.6834 	 23.9856
| 11> C 	 -46.4117 	 12.4969 	 24.6415
| 12> H 	 -46.994 	 14.5378 	 24.3716
| 13> C 	 -45.2814 	 14.9982 	 22.0747
| 14> H 	 -46.2566 	 15.5712 	 21.9937
| 15> H 	 -45.08 	 14.7016 	 21.0685
| 16> C 	 -44.1577 	 15.9795 	 22.4116
| 17> H 	 -43.3313 	 15.2545 	 22.7538
| 18> H 	 -43.8694 	 16.4992 	 21.503
| 19> C 	 -44.4983 	 16.9824 	 23.5473
| 20> H 	 -43.6519 	 17.6482 	 23.7192
| 21> H 	 -45.34 	 17.5448 	 23.2964
| 22> H 	 -44.852 	 16.4225 	 24.425
| 23> S 	 -45.9698 	 11.9308 	 27.3211
| 24> C 	 -47.2499 	 11.9013 	 28.489
| 25> C 	 -48.3621 	 12.4322 	 27.8593
| 26> C 	 -48.2774 	 12.6265 	 26.4797
| 27> C 	 -47.0487 	 12.3005 	 25.9675
| 28> H 	 -49.1804 	 12.5238 	 28.4633
| 29> C 	 -49.5224 	 13.1235 	 25.7506
| 30> H 	 -49.2784 	 14.0707 	 25.3953
| 31> H 	 -50.3742 	 13.2688 	 26.4819
| 32> C 	 -50.1434 	 12.2178 	 24.6649
| 33> H 	 -50.5091 	 11.3087 	 25.1818
| 34> H 	 -49.4612 	 11.9709 	 23.8487
| 35> C 	 -51.3312 	 12.8131 	 23.8984
| 36> H 	 -51.1407 	 13.8446 	 23.6584
| 37> H 	 -52.187 	 12.6923 	 24.5015
| 38> H 	 -51.4716 	 12.3717 	 22.9505
| 39> H 	 -43.8461 	 12.5291 	 22.1432
| 40> H 	 -47.1666 	 11.5413 	 29.5113
| 41> *
| 42>
| 43>                          ****END OF INPUT****

CARTESIAN COORDINATES (ANGSTROEM)
---------------------------------
  S    -45.233800   11.401900   23.922500
  C    -44.699200   12.596000   22.809600
  C    -45.412800   13.727000   22.906100
  C    -46.402600   13.683400   23.985600
  C    -46.411700   12.496900   24.641500
  H    -46.994000   14.537800   24.371600
  C    -45.281400   14.998200   22.074700
  H    -46.256600   15.571200   21.993700
  H    -45.080000   14.701600   21.068500
  C    -44.157700   15.979500   22.411600
  H    -43.331300   15.254500   22.753800
  H    -43.869400   16.499200   21.503000
  C    -44.498300   16.982400   23.547300
  H    -43.651900   17.648200   23.719200
  H    -45.340000   17.544800   23.296400
  H    -44.852000   16.422500   24.425000
  S    -45.969800   11.930800   27.321100
  C    -47.249900   11.901300   28.489000
  C    -48.362100   12.432200   27.859300
  C    -48.277400   12.626500   26.479700
  C    -47.048700   12.300500   25.967500
  H    -49.180400   12.523800   28.463300
  C    -49.522400   13.123500   25.750600
  H    -49.278400   14.070700   25.395300
  H    -50.374200   13.268800   26.481900
  C    -50.143400   12.217800   24.664900
  H    -50.509100   11.308700   25.181800
  H    -49.461200   11.970900   23.848700
  C    -51.331200   12.813100   23.898400
  H    -51.140700   13.844600   23.658400
  H    -52.187000   12.692300   24.501500
  H    -51.471600   12.371700   22.950500
  H    -43.846100   12.529100   22.143200
  H    -47.166600   11.541300   29.511300

 Total Charge           Charge          ....    0
 Multiplicity           Mult            ....    1
 Number of Electrons    NEL             ....  134
 Basis Dimension        Dim             ....  322

ORBITAL ENERGIES
----------------

  NO   OCC          E(Eh)            E(eV)
   0   2.0000     -88.966801     -2420.9097
   1   2.0000     -88.960013     -2420.7250
   2   2.0000     -10.330369      -281.1036
   3   2.0000     -10.328656      -281.0570
   4   2.0000     -10.315526      -280.6997
   5   2.0000     -10.312558      -280.6190
   6   2.0000     -10.301191      -280.3097
   7   2.0000     -10.299747      -280.2704
   8   2.0000     -10.297356      -280.2053
   9   2.0000     -10.292268      -280.0668
  10   2.0000     -10.292098      -280.0622
  11   2.0000     -10.291983      -280.0591
  12   2.0000     -10.283372      -279.8248
  13   2.0000     -10.282002      -279.7875
  14   2.0000     -10.274557      -279.5849
  15   2.0000     -10.266170      -279.3567
  16   2.0000      -8.082014      -219.9228
  17   2.0000      -8.074968      -219.7310
  18   2.0000      -6.040646      -164.3743
  19   2.0000      -6.036455      -164.2603
  20   2.0000      -6.033508      -164.1801
  21   2.0000      -6.032581      -164.1549
  22   2.0000      -6.029287      -164.0652
  23   2.0000      -6.025821      -163.9709
  24   2.0000      -1.010864       -27.5070
  25   2.0000      -0.991042       -26.9676
  26   2.0000      -0.909912       -24.7600
  27   2.0000      -0.906138       -24.6573
  28   2.0000      -0.872749       -23.7487
  29   2.0000      -0.854043       -23.2397
  30   2.0000      -0.844623       -22.9834
  31   2.0000      -0.817601       -22.2481
  32   2.0000      -0.784417       -21.3451
  33   2.0000      -0.778212       -21.1762
  34   2.0000      -0.705940       -19.2096
  35   2.0000      -0.697172       -18.9710
  36   2.0000      -0.689050       -18.7500
  37   2.0000      -0.666413       -18.1340
  38   2.0000      -0.641731       -17.4624
  39   2.0000      -0.615933       -16.7604
  40   2.0000      -0.594796       -16.1852
  41   2.0000      -0.577857       -15.7243
  42   2.0000      -0.573855       -15.6154
  43   2.0000      -0.551879       -15.0174
  44   2.0000      -0.538150       -14.6438
  45   2.0000      -0.522322       -14.2131
  46   2.0000      -0.520338       -14.1591
  47   2.0000      -0.513872       -13.9832
  48   2.0000      -0.508332       -13.8324
  49   2.0000      -0.504221       -13.7206
  50   2.0000      -0.493113       -13.4183
  51   2.0000      -0.486328       -13.2337
  52   2.0000      -0.476395       -12.9634
  53   2.0000      -0.468446       -12.7471
  54   2.0000      -0.465181       -12.6582
  55   2.0000      -0.445267       -12.1163
  56   2.0000      -0.433853       -11.8057
  57   2.0000      -0.430970       -11.7273
  58   2.0000      -0.427282       -11.6269
  59   2.0000      -0.423736       -11.5304
  60   2.0000      -0.417976       -11.3737
  61   2.0000      -0.414981       -11.2922
  62   2.0000      -0.408507       -11.1160
  63   2.0000      -0.350733        -9.5439
  64   2.0000      -0.331264        -9.0141
  65   2.0000      -0.326425        -8.8825
  66   2.0000      -0.300214        -8.1692
  67   0.0000       0.028850         0.7851
  68   0.0000       0.075325         2.0497
  69   0.0000       0.115434         3.1411
  70   0.0000       0.118520         3.2251
  71   0.0000       0.136614         3.7175

MULLIKEN ATOMIC CHARGES
-----------------------
   0 S :    0.113656
   1 C :   -0.107755
   2 C :   -0.087984
   3 C :    0.017013
   4 C :   -0.146229
   5 H :    0.031666
   6 C :    0.041144
   7 H :    0.029499
   8 H :    0.014449
   9 C :   -0.092077
  10 H :    0.034689
  11 H :    0.033241
  12 C :   -0.021563
  13 H :    0.045461
  14 H :    0.007918
  15 H :    0.032870
  16 S :    0.092472
  17 C :   -0.103748
  18 C :   -0.019836
  19 C :   -0.010056
  20 C :   -0.143589
  21 H :   -0.021039
  22 C :    0.090790
  23 H :    0.005770
  24 H :    0.022797
  25 C :   -0.100649
  26 H :    0.035432
  27 H :    0.038872
  28 C :   -0.009881
  29 H :    0.016474
  30 H :    0.023539
  31 H :    0.023078
  32 H :    0.047170
  33 H :    0.066405
Sum of atomic charges:   -0.0000000

LOEWDIN ATOMIC CHARGES
----------------------
   0 S :    0.410192
   1 C :   -0.199538
   2 C :   -0.068209
   3 C :   -0.058997
   4 C :   -0.195346
   5 H :    0.037377
   6 C :   -0.040100
   7 H :    0.032911
   8 H :    0.027429
   9 C :   -0.041786
  10 H :    0.031668
  11 H :    0.021771
  12 C :   -0.063752
  13 H :    0.029795
  14 H :    0.013707
  15 H :    0.030135
  16 S :    0.404809
  17 C :   -0.187146
  18 C :   -0.067583
  19 C :   -0.061952
  20 C :   -0.185812
  21 H :    0.014070
  22 C :   -0.025278
  23 H :    0.016268
  24 H :    0.036574
  25 C :   -0.040008
  26 H :    0.027696
  27 H :    0.024881
  28 C :   -0.056472
  29 H :    0.022223
  30 H :    0.018006
  31 H :    0.023238
  32 H :    0.034060
  33 H :    0.035172

  Mayer bond orders larger than 0.100000
B(  0-S ,  1-C ) :   1.1254 B(  0-S ,  4-C ) :   1.1381 B(  1-C ,  2-C ) :   1.6613
B(  1-C , 32-H ) :   0.9627 B(  2-C ,  3-C ) :   1.2104 B(  2-C ,  6-C ) :   1.0243
B(  3-C ,  4-C ) :   1.6098 B(  3-C ,  5-H ) :   0.9844 B(  4-C , 20-C ) :   1.0190
B(  6-C ,  7-H ) :   0.9469 B(  6-C ,  8-H ) :   0.9350 B(  6-C ,  9-C ) :   1.0648
B(  9-C , 10-H ) :   0.9553 B(  9-C , 11-H ) :   0.9573 B(  9-C , 12-C ) :   1.0779
B( 12-C , 13-H ) :   0.9745 B( 12-C , 14-H ) :   0.9735 B( 12-C , 15-H ) :   0.9743
B( 16-S , 17-C ) :   1.1669 B( 16-S , 20-C ) :   1.1518 B( 17-C , 18-C ) :   1.5694
B( 17-C , 20-C ) :   0.1059 B( 17-C , 33-H ) :   0.9708 B( 18-C , 19-C ) :   1.2685
B( 18-C , 21-H ) :   1.0083 B( 19-C , 20-C ) :   1.5800 B( 19-C , 22-C ) :   1.0276
B( 22-C , 23-H ) :   0.9220 B( 22-C , 24-H ) :   0.9419 B( 22-C , 25-C ) :   1.0682
B( 25-C , 26-H ) :   0.9600 B( 25-C , 27-H ) :   0.9592 B( 25-C , 28-C ) :   1.0826
B( 28-C , 29-H ) :   0.9723 B( 28-C , 30-H ) :   0.9785 B( 28-C , 31-H ) :   0.9750

Dispersion correction           -0.014130828
FINAL SINGLE POINT ENERGY     -1339.867190958122

DIPOLE MOMENT
-------------
                                X             Y             Z
Electronic contribution:     12.12227     -18.21086      11.70671
Nuclear contribution   :    -12.41645      18.75049     -11.89561
                        -----------------------------------------
Total Dipole Moment    :     -0.29418       0.53963      -0.18891
                        -----------------------------------------
Magnitude (a.u.)       :      0.64298
Magnitude (Debye)      :      1.63433

Rotational constants in cm-1:     0.016401     0.008816     0.007480
Rotational constants in MHz :   491.679911   264.304382   224.241339

                             ****ORCA TERMINATED NORMALLY****
TOTAL RUN TIME: 0 days 0 hours 0 minutes 21 seconds 408 msec
