                         Program Version 4.2.1 -  RELEASE  -
|  1> ! wB97X-D3 SP def2-SVP
|  2> %pal
|  3> nprocs 24
|  4> end
|  5>
|  6> * xyz 0 1
|  7> S 	 -120.248 	 50.3221 	 -30.032
|  8> C 	 -121.671 	 49.5539 	 -30.647
|  9> C 	 -122.49 	 50.4641 	 -31.3937
| 10> C 	 -121.816 	 51.7124 	 -31.5524
| 11> C 	 -120.595 	 51.8232 	 -30.8429
| 12> H 	 -122.282 	 52.5248 	 -32.0356
| 13> C 	 -123.879 	 50.1451 	 -31.9759
| 14> H 	 -123.885 	 49.0951 	 -32.1328
| 15> H 	 -123.896 	 50.5887 	 -32.9772
| 16> C 	 -124.987 	 50.5861 	 -31.0519
| 17> H 	 -125.207 	 51.6677 	 -31.3851
| 18> H 	 -125.915 	 50.0509 	 -31.2507
| 19> C 	 -124.855 	 50.3635 	 -29.557
| 20> H 	 -125.814 	 50.4839 	 -28.9717
| 21> H 	 -124.511 	 49.3737 	 -29.3733
| 22> H 	 -124.051 	 51.0618 	 -29.1972
| 23> S 	 -118.017 	 52.5896 	 -30.7081
| 24> C 	 -117.632 	 54.3248 	 -30.88
| 25> C 	 -118.789 	 55.1634 	 -30.7332
| 26> C 	 -119.999 	 54.346 	 -30.6178
| 27> C 	 -119.77 	 52.998 	 -30.7547
| 28> H 	 -118.777 	 56.2252 	 -30.8567
| 29> C 	 -121.333 	 55.0802 	 -30.476
| 30> H 	 -121.268 	 55.6798 	 -29.5166
| 31> H 	 -122.082 	 54.3728 	 -30.2603
| 32> C 	 -121.758 	 55.8935 	 -31.6719
| 33> H 	 -120.895 	 56.3382 	 -32.1324
| 34> H 	 -122.377 	 56.6857 	 -31.3604
| 35> C 	 -122.587 	 55.2157 	 -32.7834
| 36> H 	 -123.502 	 54.7324 	 -32.3827
| 37> H 	 -122.045 	 54.4074 	 -33.2155
| 38> H 	 -122.875 	 55.975 	 -33.4529
| 39> H 	 -121.939 	 48.5711 	 -30.4345
| 40> H 	 -116.616 	 54.7082 	 -30.8824
| 41> *
| 42>
| 43>                          ****END OF INPUT****

CARTESIAN COORDINATES (ANGSTROEM)
---------------------------------
  S    -120.248000   50.322100  -30.032000
  C    -121.671000   49.553900  -30.647000
  C    -122.490000   50.464100  -31.393700
  C    -121.816000   51.712400  -31.552400
  C    -120.595000   51.823200  -30.842900
  H    -122.282000   52.524800  -32.035600
  C    -123.879000   50.145100  -31.975900
  H    -123.885000   49.095100  -32.132800
  H    -123.896000   50.588700  -32.977200
  C    -124.987000   50.586100  -31.051900
  H    -125.207000   51.667700  -31.385100
  H    -125.915000   50.050900  -31.250700
  C    -124.855000   50.363500  -29.557000
  H    -125.814000   50.483900  -28.971700
  H    -124.511000   49.373700  -29.373300
  H    -124.051000   51.061800  -29.197200
  S    -118.017000   52.589600  -30.708100
  C    -117.632000   54.324800  -30.880000
  C    -118.789000   55.163400  -30.733200
  C    -119.999000   54.346000  -30.617800
  C    -119.770000   52.998000  -30.754700
  H    -118.777000   56.225200  -30.856700
  C    -121.333000   55.080200  -30.476000
  H    -121.268000   55.679800  -29.516600
  H    -122.082000   54.372800  -30.260300
  C    -121.758000   55.893500  -31.671900
  H    -120.895000   56.338200  -32.132400
  H    -122.377000   56.685700  -31.360400
  C    -122.587000   55.215700  -32.783400
  H    -123.502000   54.732400  -32.382700
  H    -122.045000   54.407400  -33.215500
  H    -122.875000   55.975000  -33.452900
  H    -121.939000   48.571100  -30.434500
  H    -116.616000   54.708200  -30.882400

 Total Charge           Charge          ....    0
 Multiplicity           Mult            ....    1
 Number of Electrons    NEL             ....  134
 Basis Dimension        Dim             ....  322

ORBITAL ENERGIES
----------------

  NO   OCC          E(Eh)            E(eV)
   0   2.0000     -88.971199     -2421.0294
   1   2.0000     -88.965094     -2420.8633
   2   2.0000     -10.330898      -281.1180
   3   2.0000     -10.329788      -281.0878
   4   2.0000     -10.328105      -281.0420
   5   2.0000     -10.312809      -280.6258
   6   2.0000     -10.308638      -280.5123
   7   2.0000     -10.305282      -280.4210
   8   2.0000     -10.303501      -280.3725
   9   2.0000     -10.292686      -280.0782
  10   2.0000     -10.292038      -280.0606
  11   2.0000     -10.291858      -280.0557
  12   2.0000     -10.289769      -279.9988
  13   2.0000     -10.281233      -279.7666
  14   2.0000     -10.280400      -279.7439
  15   2.0000     -10.276678      -279.6426
  16   2.0000      -8.085844      -220.0270
  17   2.0000      -8.078833      -219.8362
  18   2.0000      -6.044336      -164.4747
  19   2.0000      -6.040179      -164.3616
  20   2.0000      -6.037474      -164.2880
  21   2.0000      -6.036838      -164.2707
  22   2.0000      -6.033692      -164.1851
  23   2.0000      -6.029292      -164.0654
  24   2.0000      -1.001683       -27.2572
  25   2.0000      -0.973987       -26.5035
  26   2.0000      -0.915567       -24.9138
  27   2.0000      -0.911025       -24.7903
  28   2.0000      -0.863992       -23.5104
  29   2.0000      -0.852342       -23.1934
  30   2.0000      -0.845326       -23.0025
  31   2.0000      -0.808696       -22.0057
  32   2.0000      -0.786905       -21.4128
  33   2.0000      -0.776808       -21.1380
  34   2.0000      -0.710996       -19.3472
  35   2.0000      -0.695978       -18.9385
  36   2.0000      -0.693081       -18.8597
  37   2.0000      -0.664505       -18.0821
  38   2.0000      -0.641187       -17.4476
  39   2.0000      -0.620033       -16.8720
  40   2.0000      -0.596847       -16.2410
  41   2.0000      -0.565156       -15.3787
  42   2.0000      -0.562859       -15.3162
  43   2.0000      -0.555149       -15.1064
  44   2.0000      -0.550977       -14.9929
  45   2.0000      -0.531224       -14.4553
  46   2.0000      -0.520670       -14.1681
  47   2.0000      -0.510818       -13.9001
  48   2.0000      -0.503868       -13.7109
  49   2.0000      -0.498088       -13.5537
  50   2.0000      -0.489786       -13.3278
  51   2.0000      -0.476789       -12.9741
  52   2.0000      -0.473491       -12.8843
  53   2.0000      -0.464064       -12.6278
  54   2.0000      -0.461127       -12.5479
  55   2.0000      -0.452090       -12.3020
  56   2.0000      -0.448442       -12.2027
  57   2.0000      -0.443121       -12.0579
  58   2.0000      -0.436713       -11.8836
  59   2.0000      -0.423438       -11.5223
  60   2.0000      -0.415004       -11.2928
  61   2.0000      -0.411097       -11.1865
  62   2.0000      -0.404516       -11.0074
  63   2.0000      -0.348826        -9.4920
  64   2.0000      -0.332935        -9.0596
  65   2.0000      -0.329574        -8.9682
  66   2.0000      -0.281963        -7.6726
  67   0.0000       0.021096         0.5741
  68   0.0000       0.065574         1.7844
  69   0.0000       0.097167         2.6441
  70   0.0000       0.113706         3.0941
  71   0.0000       0.125662         3.4194

MULLIKEN ATOMIC CHARGES
-----------------------
   0 S :    0.126940
   1 C :   -0.097498
   2 C :   -0.161821
   3 C :    0.065148
   4 C :   -0.131777
   5 H :   -0.054582
   6 C :    0.128572
   7 H :    0.008084
   8 H :    0.035763
   9 C :   -0.104289
  10 H :    0.034478
  11 H :    0.025668
  12 C :   -0.043926
  13 H :    0.049478
  14 H :    0.015141
  15 H :    0.051826
  16 S :    0.080393
  17 C :   -0.087170
  18 C :   -0.034549
  19 C :   -0.063582
  20 C :   -0.136984
  21 H :    0.026268
  22 C :    0.078512
  23 H :    0.046164
  24 H :    0.000848
  25 C :   -0.052057
  26 H :    0.019828
  27 H :    0.016605
  28 C :   -0.039291
  29 H :    0.029050
  30 H :    0.047010
  31 H :    0.032604
  32 H :    0.024653
  33 H :    0.064489
Sum of atomic charges:   -0.0000000

LOEWDIN ATOMIC CHARGES
----------------------
   0 S :    0.428344
   1 C :   -0.203183
   2 C :   -0.052945
   3 C :   -0.063739
   4 C :   -0.202441
   5 H :    0.017766
   6 C :   -0.028312
   7 H :    0.024338
   8 H :    0.037185
   9 C :   -0.053475
  10 H :    0.029173
  11 H :    0.023964
  12 C :   -0.067786
  13 H :    0.035717
  14 H :    0.018250
  15 H :    0.032999
  16 S :    0.363981
  17 C :   -0.167822
  18 C :   -0.062754
  19 C :   -0.051638
  20 C :   -0.178127
  21 H :    0.028069
  22 C :   -0.031649
  23 H :    0.044829
  24 H :    0.020628
  25 C :   -0.035648
  26 H :    0.021281
  27 H :    0.020519
  28 C :   -0.056069
  29 H :    0.024675
  30 H :    0.019848
  31 H :    0.024883
  32 H :    0.011587
  33 H :    0.027553

  Mayer bond orders larger than 0.100000
B(  0-S ,  1-C ) :   1.1606 B(  0-S ,  4-C ) :   1.1658 B(  1-C ,  2-C ) :   1.5460
B(  1-C ,  4-C ) :   0.1082 B(  1-C , 32-H ) :   0.9752 B(  2-C ,  3-C ) :   1.2987
B(  2-C ,  6-C ) :   1.0191 B(  3-C ,  4-C ) :   1.5071 B(  3-C ,  5-H ) :   0.9930
B(  4-C , 20-C ) :   1.0754 B(  6-C ,  7-H ) :   0.9304 B(  6-C ,  8-H ) :   0.9467
B(  6-C ,  9-C ) :   1.0636 B(  9-C , 10-H ) :   0.9561 B(  9-C , 11-H ) :   0.9560
B(  9-C , 12-C ) :   1.0826 B( 12-C , 13-H ) :   0.9735 B( 12-C , 14-H ) :   0.9695
B( 12-C , 15-H ) :   0.9661 B( 16-S , 17-C ) :   1.1456 B( 16-S , 20-C ) :   1.1005
B( 17-C , 18-C ) :   1.6241 B( 17-C , 33-H ) :   0.9675 B( 18-C , 19-C ) :   1.1961
B( 18-C , 21-H ) :   0.9872 B( 19-C , 20-C ) :   1.6355 B( 19-C , 22-C ) :   1.0477
B( 22-C , 23-H ) :   0.9339 B( 22-C , 24-H ) :   0.9311 B( 22-C , 25-C ) :   1.0611
B( 25-C , 26-H ) :   0.9565 B( 25-C , 27-H ) :   0.9506 B( 25-C , 28-C ) :   1.0933
B( 28-C , 29-H ) :   0.9696 B( 28-C , 30-H ) :   0.9672 B( 28-C , 31-H ) :   0.9674

Dispersion correction           -0.015433208
FINAL SINGLE POINT ENERGY     -1339.867543160168

DIPOLE MOMENT
-------------
                                X             Y             Z
Electronic contribution:     27.00463      -8.58037       5.20751
Nuclear contribution   :    -27.62615       8.96990      -5.31736
                        -----------------------------------------
Total Dipole Moment    :     -0.62153       0.38953      -0.10985
                        -----------------------------------------
Magnitude (a.u.)       :      0.74168
Magnitude (Debye)      :      1.88521

Rotational constants in cm-1:     0.019041     0.009875     0.007126
Rotational constants in MHz :   570.846942   296.052126   213.628746

                             ****ORCA TERMINATED NORMALLY****
TOTAL RUN TIME: 0 days 0 hours 0 minutes 22 seconds 689 msec
