                         Program Version 4.2.1 -  RELEASE  -
|  1> ! wB97X-D3 SP def2-SVP
|  2> %pal
|  3> nprocs 24
|  4> end
|  5>
|  6> * xyz 0 1
|  7> S 	 -131.261 	 27.2266 	 -20.6497
|  8> C 	 -132.416 	 27.7365 	 -19.4223
|  9> C 	 -132.18 	 27.0253 	 -18.2195
| 10> C 	 -131.097 	 26.1006 	 -18.3059
| 11> C 	 -130.504 	 26.0382 	 -19.5758
| 12> H 	 -130.791 	 25.4303 	 -17.4819
| 13> C 	 -132.931 	 27.1685 	 -16.9206
| 14> H 	 -132.915 	 26.2833 	 -16.3909
| 15> H 	 -134.011 	 27.2946 	 -17.2434
| 16> C 	 -132.467 	 28.2939 	 -15.977
| 17> H 	 -132.415 	 29.1141 	 -16.615
| 18> H 	 -133.176 	 28.5036 	 -15.1969
| 19> C 	 -131.104 	 27.9792 	 -15.2786
| 20> H 	 -130.932 	 28.6551 	 -14.386
| 21> H 	 -131.129 	 27.0216 	 -14.8402
| 22> H 	 -130.245 	 28.0629 	 -15.9477
| 23> S 	 -127.996 	 25.8542 	 -20.6624
| 24> C 	 -127.116 	 24.3164 	 -20.767
| 25> C 	 -128.037 	 23.3348 	 -20.3431
| 26> C 	 -129.359 	 23.7354 	 -19.9797
| 27> C 	 -129.466 	 25.107 	 -20.0099
| 28> H 	 -127.594 	 22.3265 	 -20.2906
| 29> C 	 -130.427 	 22.807 	 -19.3187
| 30> H 	 -131.003 	 22.1458 	 -20.003
| 31> H 	 -131.186 	 23.4401 	 -18.9234
| 32> C 	 -129.954 	 22.0533 	 -18.0859
| 33> H 	 -129.172 	 22.5974 	 -17.4411
| 34> H 	 -129.392 	 21.2116 	 -18.3888
| 35> C 	 -131.036 	 21.5864 	 -17.0782
| 36> H 	 -131.661 	 20.8018 	 -17.478
| 37> H 	 -131.58 	 22.4505 	 -16.761
| 38> H 	 -130.576 	 21.1623 	 -16.1863
| 39> H 	 -133.207 	 28.4219 	 -19.7436
| 40> H 	 -126.036 	 24.0872 	 -21.0168
| 41> *
| 42>
| 43>                          ****END OF INPUT****

CARTESIAN COORDINATES (ANGSTROEM)
---------------------------------
  S    -131.261000   27.226600  -20.649700
  C    -132.416000   27.736500  -19.422300
  C    -132.180000   27.025300  -18.219500
  C    -131.097000   26.100600  -18.305900
  C    -130.504000   26.038200  -19.575800
  H    -130.791000   25.430300  -17.481900
  C    -132.931000   27.168500  -16.920600
  H    -132.915000   26.283300  -16.390900
  H    -134.011000   27.294600  -17.243400
  C    -132.467000   28.293900  -15.977000
  H    -132.415000   29.114100  -16.615000
  H    -133.176000   28.503600  -15.196900
  C    -131.104000   27.979200  -15.278600
  H    -130.932000   28.655100  -14.386000
  H    -131.129000   27.021600  -14.840200
  H    -130.245000   28.062900  -15.947700
  S    -127.996000   25.854200  -20.662400
  C    -127.116000   24.316400  -20.767000
  C    -128.037000   23.334800  -20.343100
  C    -129.359000   23.735400  -19.979700
  C    -129.466000   25.107000  -20.009900
  H    -127.594000   22.326500  -20.290600
  C    -130.427000   22.807000  -19.318700
  H    -131.003000   22.145800  -20.003000
  H    -131.186000   23.440100  -18.923400
  C    -129.954000   22.053300  -18.085900
  H    -129.172000   22.597400  -17.441100
  H    -129.392000   21.211600  -18.388800
  C    -131.036000   21.586400  -17.078200
  H    -131.661000   20.801800  -17.478000
  H    -131.580000   22.450500  -16.761000
  H    -130.576000   21.162300  -16.186300
  H    -133.207000   28.421900  -19.743600
  H    -126.036000   24.087200  -21.016800

 Total Charge           Charge          ....    0
 Multiplicity           Mult            ....    1
 Number of Electrons    NEL             ....  134
 Basis Dimension        Dim             ....  322

ORBITAL ENERGIES
----------------

  NO   OCC          E(Eh)            E(eV)
   0   2.0000     -88.968980     -2420.9690
   1   2.0000     -88.964318     -2420.8422
   2   2.0000     -10.335389      -281.2402
   3   2.0000     -10.331513      -281.1348
   4   2.0000     -10.327447      -281.0241
   5   2.0000     -10.324170      -280.9349
   6   2.0000     -10.310451      -280.5616
   7   2.0000     -10.308176      -280.4997
   8   2.0000     -10.300841      -280.3001
   9   2.0000     -10.298675      -280.2412
  10   2.0000     -10.295101      -280.1439
  11   2.0000     -10.288705      -279.9699
  12   2.0000     -10.287458      -279.9360
  13   2.0000     -10.282009      -279.7877
  14   2.0000     -10.278737      -279.6987
  15   2.0000     -10.278159      -279.6829
  16   2.0000      -8.083113      -219.9527
  17   2.0000      -8.078298      -219.8217
  18   2.0000      -6.041578      -164.3997
  19   2.0000      -6.037536      -164.2897
  20   2.0000      -6.036936      -164.2734
  21   2.0000      -6.034115      -164.1966
  22   2.0000      -6.032778      -164.1602
  23   2.0000      -6.029045      -164.0587
  24   2.0000      -1.001719       -27.2582
  25   2.0000      -0.978712       -26.6321
  26   2.0000      -0.910837       -24.7851
  27   2.0000      -0.906069       -24.6554
  28   2.0000      -0.865612       -23.5545
  29   2.0000      -0.848931       -23.1006
  30   2.0000      -0.843249       -22.9460
  31   2.0000      -0.810368       -22.0512
  32   2.0000      -0.783957       -21.3326
  33   2.0000      -0.773220       -21.0404
  34   2.0000      -0.708309       -19.2741
  35   2.0000      -0.701493       -19.0886
  36   2.0000      -0.697609       -18.9829
  37   2.0000      -0.654927       -17.8215
  38   2.0000      -0.642990       -17.4966
  39   2.0000      -0.615531       -16.7494
  40   2.0000      -0.592939       -16.1347
  41   2.0000      -0.575071       -15.6485
  42   2.0000      -0.565844       -15.3974
  43   2.0000      -0.545699       -14.8492
  44   2.0000      -0.538144       -14.6436
  45   2.0000      -0.524817       -14.2810
  46   2.0000      -0.515512       -14.0278
  47   2.0000      -0.511957       -13.9311
  48   2.0000      -0.506867       -13.7925
  49   2.0000      -0.498023       -13.5519
  50   2.0000      -0.486927       -13.2500
  51   2.0000      -0.482374       -13.1261
  52   2.0000      -0.473064       -12.8727
  53   2.0000      -0.468227       -12.7411
  54   2.0000      -0.459113       -12.4931
  55   2.0000      -0.447805       -12.1854
  56   2.0000      -0.443743       -12.0748
  57   2.0000      -0.430344       -11.7103
  58   2.0000      -0.428571       -11.6620
  59   2.0000      -0.426015       -11.5925
  60   2.0000      -0.419812       -11.4237
  61   2.0000      -0.416673       -11.3382
  62   2.0000      -0.410308       -11.1650
  63   2.0000      -0.343260        -9.3406
  64   2.0000      -0.333324        -9.0702
  65   2.0000      -0.330324        -8.9886
  66   2.0000      -0.294764        -8.0209
  67   0.0000       0.028278         0.7695
  68   0.0000       0.057553         1.5661
  69   0.0000       0.111086         3.0228
  70   0.0000       0.116538         3.1712
  71   0.0000       0.127906         3.4805

MULLIKEN ATOMIC CHARGES
-----------------------
   0 S :    0.113436
   1 C :   -0.145119
   2 C :   -0.096755
   3 C :    0.032804
   4 C :   -0.150051
   5 H :    0.028822
   6 C :    0.061631
   7 H :   -0.003235
   8 H :    0.033493
   9 C :   -0.009702
  10 H :    0.011408
  11 H :    0.029216
  12 C :   -0.074139
  13 H :    0.038278
  14 H :    0.015065
  15 H :    0.051018
  16 S :    0.096325
  17 C :   -0.122306
  18 C :   -0.075638
  19 C :    0.015429
  20 C :   -0.173281
  21 H :    0.028427
  22 C :    0.111827
  23 H :    0.041693
  24 H :   -0.002881
  25 C :   -0.122299
  26 H :    0.038371
  27 H :    0.017571
  28 C :   -0.038977
  29 H :    0.034880
  30 H :    0.026843
  31 H :    0.031392
  32 H :    0.068379
  33 H :    0.088076
Sum of atomic charges:    0.0000000

LOEWDIN ATOMIC CHARGES
----------------------
   0 S :    0.404672
   1 C :   -0.198730
   2 C :   -0.061907
   3 C :   -0.063528
   4 C :   -0.193131
   5 H :    0.037680
   6 C :   -0.030749
   7 H :    0.013531
   8 H :    0.039403
   9 C :   -0.027291
  10 H :    0.015084
  11 H :    0.023903
  12 C :   -0.066835
  13 H :    0.033890
  14 H :    0.014869
  15 H :    0.028637
  16 S :    0.388685
  17 C :   -0.199521
  18 C :   -0.076448
  19 C :   -0.055739
  20 C :   -0.185119
  21 H :    0.032125
  22 C :   -0.028405
  23 H :    0.037989
  24 H :    0.022812
  25 C :   -0.048790
  26 H :    0.032886
  27 H :    0.013016
  28 C :   -0.060133
  29 H :    0.023355
  30 H :    0.019711
  31 H :    0.029524
  32 H :    0.032863
  33 H :    0.051692

  Mayer bond orders larger than 0.100000
B(  0-S ,  1-C ) :   1.1510 B(  0-S ,  4-C ) :   1.1684 B(  1-C ,  2-C ) :   1.5557
B(  1-C ,  4-C ) :   0.1086 B(  1-C , 32-H ) :   0.9744 B(  2-C ,  3-C ) :   1.2742
B(  2-C ,  6-C ) :   1.0289 B(  3-C ,  4-C ) :   1.5369 B(  3-C ,  5-H ) :   0.9876
B(  4-C , 20-C ) :   1.0228 B(  6-C ,  7-H ) :   0.9418 B(  6-C ,  8-H ) :   0.9384
B(  6-C ,  9-C ) :   1.0668 B(  9-C , 10-H ) :   0.9565 B(  9-C , 11-H ) :   0.9568
B(  9-C , 12-C ) :   1.0730 B( 12-C , 13-H ) :   0.9754 B( 12-C , 14-H ) :   0.9756
B( 12-C , 15-H ) :   0.9768 B( 16-S , 17-C ) :   1.1372 B( 16-S , 20-C ) :   1.1504
B( 17-C , 18-C ) :   1.6212 B( 17-C , 20-C ) :   0.1071 B( 17-C , 33-H ) :   0.9614
B( 18-C , 19-C ) :   1.2165 B( 18-C , 21-H ) :   0.9841 B( 19-C , 20-C ) :   1.5991
B( 19-C , 22-C ) :   1.0393 B( 22-C , 23-H ) :   0.9295 B( 22-C , 24-H ) :   0.9378
B( 22-C , 25-C ) :   1.0465 B( 25-C , 26-H ) :   0.9597 B( 25-C , 27-H ) :   0.9509
B( 25-C , 28-C ) :   1.0906 B( 28-C , 29-H ) :   0.9763 B( 28-C , 30-H ) :   0.9751
B( 28-C , 31-H ) :   0.9734

Dispersion correction           -0.014466630
FINAL SINGLE POINT ENERGY     -1339.870557826599

DIPOLE MOMENT
-------------
                                X             Y             Z
Electronic contribution:      9.66172       9.82621     -25.28423
Nuclear contribution   :     -9.90458     -10.23786      25.89040
                        -----------------------------------------
Total Dipole Moment    :     -0.24286      -0.41165       0.60618
                        -----------------------------------------
Magnitude (a.u.)       :      0.77193
Magnitude (Debye)      :      1.96210

Rotational constants in cm-1:     0.016389     0.009375     0.007186
Rotational constants in MHz :   491.317507   281.054819   215.426226

                             ****ORCA TERMINATED NORMALLY****
TOTAL RUN TIME: 0 days 0 hours 0 minutes 20 seconds 420 msec
