                         Program Version 4.2.1 -  RELEASE  -
|  1> ! wB97X-D3 SP def2-SVP
|  2> %pal
|  3> nprocs 24
|  4> end
|  5>
|  6> * xyz 0 1
|  7> S 	 -51.885 	 13.014 	 -106.278
|  8> C 	 -52.4449 	 11.6365 	 -105.271
|  9> C 	 -52.5461 	 12.0069 	 -103.978
| 10> C 	 -52.3447 	 13.4256 	 -103.793
| 11> C 	 -52.1783 	 14.1414 	 -104.942
| 12> H 	 -52.3922 	 13.8708 	 -102.818
| 13> C 	 -52.8145 	 11.0929 	 -102.789
| 14> H 	 -53.1226 	 10.0995 	 -103.18
| 15> H 	 -53.7367 	 11.5173 	 -102.365
| 16> C 	 -51.7975 	 11.0286 	 -101.662
| 17> H 	 -51.5955 	 12.0223 	 -101.154
| 18> H 	 -52.2292 	 10.3906 	 -100.891
| 19> C 	 -50.4755 	 10.3703 	 -101.999
| 20> H 	 -49.9312 	 11.0361 	 -102.668
| 21> H 	 -49.8316 	 10.1552 	 -101.084
| 22> H 	 -50.5889 	 9.42211 	 -102.521
| 23> S 	 -52.3305 	 16.5124 	 -103.628
| 24> C 	 -51.7312 	 17.9539 	 -104.5
| 25> C 	 -51.2728 	 17.6679 	 -105.764
| 26> C 	 -51.3411 	 16.3225 	 -106.038
| 27> C 	 -51.9018 	 15.5685 	 -105.019
| 28> H 	 -50.8515 	 18.4444 	 -106.415
| 29> C 	 -50.959 	 15.8508 	 -107.434
| 30> H 	 -50.5039 	 14.8593 	 -107.421
| 31> H 	 -50.163 	 16.507 	 -107.748
| 32> C 	 -52.0418 	 16.0786 	 -108.519
| 33> H 	 -52.5019 	 17.0058 	 -108.461
| 34> H 	 -52.8599 	 15.3967 	 -108.371
| 35> C 	 -51.7036 	 15.7652 	 -110.023
| 36> H 	 -52.673 	 15.7586 	 -110.552
| 37> H 	 -51.227 	 14.7739 	 -110.247
| 38> H 	 -50.9731 	 16.5984 	 -110.285
| 39> H 	 -52.6088 	 10.6811 	 -105.678
| 40> H 	 -51.797 	 18.967 	 -104.194
| 41> *
| 42>
| 43>                          ****END OF INPUT****

CARTESIAN COORDINATES (ANGSTROEM)
---------------------------------
  S    -51.885000   13.014000  -106.278000
  C    -52.444900   11.636500  -105.271000
  C    -52.546100   12.006900  -103.978000
  C    -52.344700   13.425600  -103.793000
  C    -52.178300   14.141400  -104.942000
  H    -52.392200   13.870800  -102.818000
  C    -52.814500   11.092900  -102.789000
  H    -53.122600   10.099500  -103.180000
  H    -53.736700   11.517300  -102.365000
  C    -51.797500   11.028600  -101.662000
  H    -51.595500   12.022300  -101.154000
  H    -52.229200   10.390600  -100.891000
  C    -50.475500   10.370300  -101.999000
  H    -49.931200   11.036100  -102.668000
  H    -49.831600   10.155200  -101.084000
  H    -50.588900    9.422110  -102.521000
  S    -52.330500   16.512400  -103.628000
  C    -51.731200   17.953900  -104.500000
  C    -51.272800   17.667900  -105.764000
  C    -51.341100   16.322500  -106.038000
  C    -51.901800   15.568500  -105.019000
  H    -50.851500   18.444400  -106.415000
  C    -50.959000   15.850800  -107.434000
  H    -50.503900   14.859300  -107.421000
  H    -50.163000   16.507000  -107.748000
  C    -52.041800   16.078600  -108.519000
  H    -52.501900   17.005800  -108.461000
  H    -52.859900   15.396700  -108.371000
  C    -51.703600   15.765200  -110.023000
  H    -52.673000   15.758600  -110.552000
  H    -51.227000   14.773900  -110.247000
  H    -50.973100   16.598400  -110.285000
  H    -52.608800   10.681100  -105.678000
  H    -51.797000   18.967000  -104.194000

 Total Charge           Charge          ....    0
 Multiplicity           Mult            ....    1
 Number of Electrons    NEL             ....  134
 Basis Dimension        Dim             ....  322

ORBITAL ENERGIES
----------------

  NO   OCC          E(Eh)            E(eV)
   0   2.0000     -88.972622     -2421.0681
   1   2.0000     -88.961998     -2420.7790
   2   2.0000     -10.331480      -281.1339
   3   2.0000     -10.326767      -281.0056
   4   2.0000     -10.317098      -280.7425
   5   2.0000     -10.309562      -280.5374
   6   2.0000     -10.299256      -280.2570
   7   2.0000     -10.297865      -280.2192
   8   2.0000     -10.297040      -280.1967
   9   2.0000     -10.291824      -280.0548
  10   2.0000     -10.291379      -280.0426
  11   2.0000     -10.290827      -280.0277
  12   2.0000     -10.289523      -279.9922
  13   2.0000     -10.287821      -279.9458
  14   2.0000     -10.278391      -279.6892
  15   2.0000     -10.277558      -279.6666
  16   2.0000      -8.086634      -220.0485
  17   2.0000      -8.075478      -219.7449
  18   2.0000      -6.045176      -164.4976
  19   2.0000      -6.041433      -164.3958
  20   2.0000      -6.037236      -164.2815
  21   2.0000      -6.034345      -164.2029
  22   2.0000      -6.030387      -164.0952
  23   2.0000      -6.025702      -163.9677
  24   2.0000      -1.009976       -27.4828
  25   2.0000      -0.984386       -26.7865
  26   2.0000      -0.911875       -24.8134
  27   2.0000      -0.905363       -24.6362
  28   2.0000      -0.874788       -23.8042
  29   2.0000      -0.853241       -23.2179
  30   2.0000      -0.839486       -22.8436
  31   2.0000      -0.815736       -22.1973
  32   2.0000      -0.783041       -21.3076
  33   2.0000      -0.772873       -21.0310
  34   2.0000      -0.709185       -19.2979
  35   2.0000      -0.696780       -18.9604
  36   2.0000      -0.691242       -18.8096
  37   2.0000      -0.673817       -18.3355
  38   2.0000      -0.635187       -17.2843
  39   2.0000      -0.618919       -16.8416
  40   2.0000      -0.598035       -16.2734
  41   2.0000      -0.565372       -15.3846
  42   2.0000      -0.561696       -15.2845
  43   2.0000      -0.549577       -14.9548
  44   2.0000      -0.540702       -14.7133
  45   2.0000      -0.525602       -14.3024
  46   2.0000      -0.520145       -14.1539
  47   2.0000      -0.514691       -14.0055
  48   2.0000      -0.503990       -13.7143
  49   2.0000      -0.498282       -13.5590
  50   2.0000      -0.485611       -13.2141
  51   2.0000      -0.480608       -13.0780
  52   2.0000      -0.472659       -12.8617
  53   2.0000      -0.467627       -12.7248
  54   2.0000      -0.456904       -12.4330
  55   2.0000      -0.453299       -12.3349
  56   2.0000      -0.440792       -11.9946
  57   2.0000      -0.439155       -11.9500
  58   2.0000      -0.430989       -11.7278
  59   2.0000      -0.427471       -11.6321
  60   2.0000      -0.424339       -11.5469
  61   2.0000      -0.406907       -11.0725
  62   2.0000      -0.399569       -10.8728
  63   2.0000      -0.364181        -9.9099
  64   2.0000      -0.339271        -9.2320
  65   2.0000      -0.325551        -8.8587
  66   2.0000      -0.281469        -7.6592
  67   0.0000       0.018338         0.4990
  68   0.0000       0.085384         2.3234
  69   0.0000       0.100003         2.7212
  70   0.0000       0.113505         3.0886
  71   0.0000       0.132699         3.6109

MULLIKEN ATOMIC CHARGES
-----------------------
   0 S :    0.057719
   1 C :   -0.111576
   2 C :   -0.053069
   3 C :   -0.043481
   4 C :   -0.059168
   5 H :    0.010356
   6 C :    0.067992
   7 H :    0.019446
   8 H :    0.034548
   9 C :   -0.080727
  10 H :    0.042382
  11 H :    0.029390
  12 C :   -0.065388
  13 H :    0.039543
  14 H :    0.044437
  15 H :    0.025033
  16 S :    0.102432
  17 C :   -0.063681
  18 C :   -0.047869
  19 C :   -0.070903
  20 C :   -0.115160
  21 H :    0.028018
  22 C :    0.075075
  23 H :    0.034969
  24 H :    0.004714
  25 C :   -0.037871
  26 H :    0.010280
  27 H :    0.013254
  28 C :   -0.090754
  29 H :    0.048350
  30 H :    0.045458
  31 H :    0.041911
  32 H :    0.026385
  33 H :    0.037955
Sum of atomic charges:   -0.0000000

LOEWDIN ATOMIC CHARGES
----------------------
   0 S :    0.375438
   1 C :   -0.173464
   2 C :   -0.060757
   3 C :   -0.077210
   4 C :   -0.166218
   5 H :    0.020144
   6 C :   -0.032407
   7 H :    0.031994
   8 H :    0.037506
   9 C :   -0.048998
  10 H :    0.032027
  11 H :    0.027076
  12 C :   -0.071718
  13 H :    0.025275
  14 H :    0.034267
  15 H :    0.022059
  16 S :    0.408066
  17 C :   -0.165857
  18 C :   -0.066070
  19 C :   -0.063896
  20 C :   -0.191411
  21 H :    0.039933
  22 C :   -0.036101
  23 H :    0.019561
  24 H :    0.027253
  25 C :   -0.038138
  26 H :    0.015492
  27 H :    0.018154
  28 C :   -0.071691
  29 H :    0.032490
  30 H :    0.029135
  31 H :    0.028096
  32 H :    0.018028
  33 H :    0.021942

  Mayer bond orders larger than 0.100000
B(  0-S ,  1-C ) :   1.0942 B(  0-S ,  4-C ) :   1.1238 B(  1-C ,  2-C ) :   1.6532
B(  1-C , 32-H ) :   0.9767 B(  2-C ,  3-C ) :   1.2081 B(  2-C ,  6-C ) :   1.0162
B(  3-C ,  4-C ) :   1.5789 B(  3-C ,  5-H ) :   0.9885 B(  4-C , 20-C ) :   1.0948
B(  6-C ,  7-H ) :   0.9418 B(  6-C ,  8-H ) :   0.9326 B(  6-C ,  9-C ) :   1.0827
B(  9-C , 10-H ) :   0.9513 B(  9-C , 11-H ) :   0.9506 B(  9-C , 12-C ) :   1.0752
B( 12-C , 13-H ) :   0.9764 B( 12-C , 14-H ) :   0.9737 B( 12-C , 15-H ) :   0.9730
B( 16-S , 17-C ) :   1.1400 B( 16-S , 20-C ) :   1.1387 B( 17-C , 18-C ) :   1.6156
B( 17-C , 33-H ) :   0.9676 B( 18-C , 19-C ) :   1.2686 B( 18-C , 21-H ) :   0.9842
B( 19-C , 20-C ) :   1.5655 B( 19-C , 22-C ) :   1.0475 B( 22-C , 23-H ) :   0.9268
B( 22-C , 24-H ) :   0.9228 B( 22-C , 25-C ) :   1.0541 B( 25-C , 26-H ) :   0.9547
B( 25-C , 27-H ) :   0.9549 B( 25-C , 28-C ) :   1.0714 B( 28-C , 29-H ) :   0.9752
B( 28-C , 30-H ) :   0.9769 B( 28-C , 31-H ) :   0.9783

Dispersion correction           -0.014091176
FINAL SINGLE POINT ENERGY     -1339.875779600480

DIPOLE MOMENT
-------------
                                X             Y             Z
Electronic contribution:     -4.06892       9.56863       4.17512
Nuclear contribution   :      4.07727      -9.59320      -4.07673
                        -----------------------------------------
Total Dipole Moment    :      0.00836      -0.02457       0.09839
                        -----------------------------------------
Magnitude (a.u.)       :      0.10176
Magnitude (Debye)      :      0.25865

Rotational constants in cm-1:     0.021283     0.008321     0.006417
Rotational constants in MHz :   638.046420   249.457209   192.384955

                             ****ORCA TERMINATED NORMALLY****
TOTAL RUN TIME: 0 days 0 hours 0 minutes 21 seconds 409 msec
