                         Program Version 4.2.1 -  RELEASE  -
|  1> ! wB97X-D3 SP def2-SVP
|  2> %pal
|  3> nprocs 24
|  4> end
|  5>
|  6> * xyz 0 1
|  7> S 	 -82.1542 	 -12.4888 	 -59.0174
|  8> C 	 -81.1495 	 -11.0273 	 -58.9375
|  9> C 	 -80.4622 	 -10.8593 	 -60.1636
| 10> C 	 -80.6483 	 -11.9857 	 -61.0491
| 11> C 	 -81.4411 	 -13.0085 	 -60.5234
| 12> H 	 -80.2872 	 -12.0321 	 -62.1242
| 13> C 	 -79.7056 	 -9.55499 	 -60.5135
| 14> H 	 -79.9503 	 -8.84963 	 -59.7035
| 15> H 	 -80.1088 	 -9.30352 	 -61.48
| 16> C 	 -78.2306 	 -9.70283 	 -60.743
| 17> H 	 -77.9151 	 -9.8883 	 -59.7031
| 18> H 	 -78.1571 	 -10.6791 	 -61.2904
| 19> C 	 -77.3578 	 -8.61665 	 -61.4217
| 20> H 	 -76.4211 	 -9.02243 	 -61.6733
| 21> H 	 -77.7606 	 -8.28248 	 -62.3425
| 22> H 	 -77.1515 	 -7.74586 	 -60.804
| 23> S 	 -80.6648 	 -15.6407 	 -60.8488
| 24> C 	 -81.633 	 -16.6645 	 -61.9588
| 25> C 	 -82.6212 	 -15.9507 	 -62.5578
| 26> C 	 -82.7874 	 -14.5794 	 -62.0532
| 27> C 	 -81.7605 	 -14.2944 	 -61.1332
| 28> H 	 -83.2579 	 -16.4853 	 -63.2711
| 29> C 	 -83.9167 	 -13.6582 	 -62.4981
| 30> H 	 -83.9154 	 -12.7641 	 -61.8437
| 31> H 	 -84.7993 	 -14.1446 	 -62.2141
| 32> C 	 -83.9464 	 -13.3104 	 -64.0683
| 33> H 	 -84.9481 	 -12.9842 	 -64.3599
| 34> H 	 -83.5928 	 -14.2138 	 -64.6152
| 35> C 	 -82.9568 	 -12.1104 	 -64.4185
| 36> H 	 -81.9517 	 -12.4315 	 -64.1861
| 37> H 	 -83.1839 	 -11.1332 	 -63.8779
| 38> H 	 -82.9971 	 -11.7783 	 -65.4392
| 39> H 	 -81.257 	 -10.2924 	 -58.1292
| 40> H 	 -81.396 	 -17.6594 	 -62.1996
| 41> *
| 42>
| 43>                          ****END OF INPUT****

CARTESIAN COORDINATES (ANGSTROEM)
---------------------------------
  S    -82.154200  -12.488800  -59.017400
  C    -81.149500  -11.027300  -58.937500
  C    -80.462200  -10.859300  -60.163600
  C    -80.648300  -11.985700  -61.049100
  C    -81.441100  -13.008500  -60.523400
  H    -80.287200  -12.032100  -62.124200
  C    -79.705600   -9.554990  -60.513500
  H    -79.950300   -8.849630  -59.703500
  H    -80.108800   -9.303520  -61.480000
  C    -78.230600   -9.702830  -60.743000
  H    -77.915100   -9.888300  -59.703100
  H    -78.157100  -10.679100  -61.290400
  C    -77.357800   -8.616650  -61.421700
  H    -76.421100   -9.022430  -61.673300
  H    -77.760600   -8.282480  -62.342500
  H    -77.151500   -7.745860  -60.804000
  S    -80.664800  -15.640700  -60.848800
  C    -81.633000  -16.664500  -61.958800
  C    -82.621200  -15.950700  -62.557800
  C    -82.787400  -14.579400  -62.053200
  C    -81.760500  -14.294400  -61.133200
  H    -83.257900  -16.485300  -63.271100
  C    -83.916700  -13.658200  -62.498100
  H    -83.915400  -12.764100  -61.843700
  H    -84.799300  -14.144600  -62.214100
  C    -83.946400  -13.310400  -64.068300
  H    -84.948100  -12.984200  -64.359900
  H    -83.592800  -14.213800  -64.615200
  C    -82.956800  -12.110400  -64.418500
  H    -81.951700  -12.431500  -64.186100
  H    -83.183900  -11.133200  -63.877900
  H    -82.997100  -11.778300  -65.439200
  H    -81.257000  -10.292400  -58.129200
  H    -81.396000  -17.659400  -62.199600

 Total Charge           Charge          ....    0
 Multiplicity           Mult            ....    1
 Number of Electrons    NEL             ....  134
 Basis Dimension        Dim             ....  322

ORBITAL ENERGIES
----------------

  NO   OCC          E(Eh)            E(eV)
   0   2.0000     -88.965213     -2420.8665
   1   2.0000     -88.965158     -2420.8650
   2   2.0000     -10.330125      -281.0970
   3   2.0000     -10.329011      -281.0667
   4   2.0000     -10.320666      -280.8396
   5   2.0000     -10.316560      -280.7279
   6   2.0000     -10.312353      -280.6134
   7   2.0000     -10.309134      -280.5258
   8   2.0000     -10.303134      -280.3625
   9   2.0000     -10.301968      -280.3308
  10   2.0000     -10.297911      -280.2204
  11   2.0000     -10.294744      -280.1342
  12   2.0000     -10.291898      -280.0568
  13   2.0000     -10.286717      -279.9158
  14   2.0000     -10.281612      -279.7769
  15   2.0000     -10.274911      -279.5945
  16   2.0000      -8.079369      -219.8508
  17   2.0000      -8.079250      -219.8476
  18   2.0000      -6.037923      -164.3002
  19   2.0000      -6.037804      -164.2970
  20   2.0000      -6.033905      -164.1909
  21   2.0000      -6.033892      -164.1906
  22   2.0000      -6.030278      -164.0922
  23   2.0000      -6.029823      -164.0798
  24   2.0000      -0.998668       -27.1751
  25   2.0000      -0.975423       -26.5426
  26   2.0000      -0.911040       -24.7907
  27   2.0000      -0.895278       -24.3618
  28   2.0000      -0.867145       -23.5962
  29   2.0000      -0.842659       -22.9299
  30   2.0000      -0.839240       -22.8369
  31   2.0000      -0.814527       -22.1644
  32   2.0000      -0.787265       -21.4226
  33   2.0000      -0.771376       -20.9902
  34   2.0000      -0.706789       -19.2327
  35   2.0000      -0.698723       -19.0132
  36   2.0000      -0.689378       -18.7589
  37   2.0000      -0.654184       -17.8013
  38   2.0000      -0.637083       -17.3359
  39   2.0000      -0.615096       -16.7376
  40   2.0000      -0.595348       -16.2002
  41   2.0000      -0.569344       -15.4927
  42   2.0000      -0.559014       -15.2115
  43   2.0000      -0.549882       -14.9631
  44   2.0000      -0.535892       -14.5824
  45   2.0000      -0.518948       -14.1213
  46   2.0000      -0.515389       -14.0244
  47   2.0000      -0.507724       -13.8159
  48   2.0000      -0.504366       -13.7245
  49   2.0000      -0.500047       -13.6070
  50   2.0000      -0.486652       -13.2425
  51   2.0000      -0.476068       -12.9545
  52   2.0000      -0.471743       -12.8368
  53   2.0000      -0.462699       -12.5907
  54   2.0000      -0.458075       -12.4648
  55   2.0000      -0.451198       -12.2777
  56   2.0000      -0.447180       -12.1684
  57   2.0000      -0.430816       -11.7231
  58   2.0000      -0.428360       -11.6563
  59   2.0000      -0.426604       -11.6085
  60   2.0000      -0.421157       -11.4603
  61   2.0000      -0.419857       -11.4249
  62   2.0000      -0.408134       -11.1059
  63   2.0000      -0.335793        -9.1374
  64   2.0000      -0.327444        -8.9102
  65   2.0000      -0.316789        -8.6203
  66   2.0000      -0.311763        -8.4835
  67   0.0000       0.045040         1.2256
  68   0.0000       0.049807         1.3553
  69   0.0000       0.104762         2.8507
  70   0.0000       0.116107         3.1594
  71   0.0000       0.125006         3.4016

MULLIKEN ATOMIC CHARGES
-----------------------
   0 S :    0.108611
   1 C :   -0.143045
   2 C :   -0.118150
   3 C :    0.032991
   4 C :   -0.194044
   5 H :    0.044007
   6 C :    0.111860
   7 H :    0.023991
   8 H :    0.014820
   9 C :   -0.127860
  10 H :    0.024367
  11 H :    0.033940
  12 C :    0.022604
  13 H :    0.021853
  14 H :    0.013975
  15 H :    0.031728
  16 S :    0.109249
  17 C :   -0.078608
  18 C :   -0.035138
  19 C :   -0.032767
  20 C :   -0.178405
  21 H :    0.027848
  22 C :    0.100071
  23 H :    0.027484
  24 H :    0.022468
  25 C :   -0.080341
  26 H :    0.039108
  27 H :    0.046337
  28 C :   -0.076795
  29 H :    0.034124
  30 H :    0.038546
  31 H :    0.031455
  32 H :    0.063209
  33 H :    0.040506
Sum of atomic charges:    0.0000000

LOEWDIN ATOMIC CHARGES
----------------------
   0 S :    0.401622
   1 C :   -0.199841
   2 C :   -0.058683
   3 C :   -0.069060
   4 C :   -0.204137
   5 H :    0.042766
   6 C :   -0.028623
   7 H :    0.028934
   8 H :    0.026724
   9 C :   -0.052060
  10 H :    0.026331
  11 H :    0.029685
  12 C :   -0.056896
  13 H :    0.025452
  14 H :    0.019584
  15 H :    0.027736
  16 S :    0.385311
  17 C :   -0.162168
  18 C :   -0.072093
  19 C :   -0.046502
  20 C :   -0.205835
  21 H :    0.034182
  22 C :   -0.029430
  23 H :    0.033983
  24 H :    0.026586
  25 C :   -0.029861
  26 H :    0.024074
  27 H :    0.029182
  28 C :   -0.072122
  29 H :    0.020109
  30 H :    0.031986
  31 H :    0.020915
  32 H :    0.031515
  33 H :    0.020633

  Mayer bond orders larger than 0.100000
B(  0-S ,  1-C ) :   1.1443 B(  0-S ,  4-C ) :   1.1597 B(  1-C ,  2-C ) :   1.5882
B(  1-C ,  4-C ) :   0.1028 B(  1-C , 32-H ) :   0.9682 B(  2-C ,  3-C ) :   1.2480
B(  2-C ,  6-C ) :   1.0235 B(  3-C ,  4-C ) :   1.5837 B(  3-C ,  5-H ) :   0.9760
B(  4-C , 20-C ) :   1.0093 B(  6-C ,  7-H ) :   0.9454 B(  6-C ,  8-H ) :   0.9276
B(  6-C ,  9-C ) :   1.0579 B(  9-C , 10-H ) :   0.9547 B(  9-C , 11-H ) :   0.9590
B(  9-C , 12-C ) :   1.0776 B( 12-C , 13-H ) :   0.9707 B( 12-C , 14-H ) :   0.9714
B( 12-C , 15-H ) :   0.9746 B( 16-S , 17-C ) :   1.1251 B( 16-S , 20-C ) :   1.1403
B( 17-C , 18-C ) :   1.6723 B( 17-C , 33-H ) :   0.9720 B( 18-C , 19-C ) :   1.1897
B( 18-C , 21-H ) :   0.9797 B( 19-C , 20-C ) :   1.6203 B( 19-C , 22-C ) :   1.0434
B( 22-C , 23-H ) :   0.9318 B( 22-C , 24-H ) :   0.9330 B( 22-C , 25-C ) :   1.0457
B( 25-C , 26-H ) :   0.9608 B( 25-C , 27-H ) :   0.9627 B( 25-C , 28-C ) :   1.0632
B( 28-C , 29-H ) :   0.9797 B( 28-C , 30-H ) :   0.9770 B( 28-C , 31-H ) :   0.9761

Dispersion correction           -0.014621111
FINAL SINGLE POINT ENERGY     -1339.872822488404

DIPOLE MOMENT
-------------
                                X             Y             Z
Electronic contribution:     -4.72245     -20.08421      16.10101
Nuclear contribution   :      4.60048      20.42046     -16.67242
                        -----------------------------------------
Total Dipole Moment    :     -0.12197       0.33626      -0.57142
                        -----------------------------------------
Magnitude (a.u.)       :      0.67414
Magnitude (Debye)      :      1.71352

Rotational constants in cm-1:     0.018158     0.007925     0.007154
Rotational constants in MHz :   544.359627   237.575563   214.476262

                             ****ORCA TERMINATED NORMALLY****
TOTAL RUN TIME: 0 days 0 hours 0 minutes 20 seconds 102 msec
