                         Program Version 4.2.1 -  RELEASE  -
|  1> ! wB97X-D3 SP def2-SVP
|  2> %pal
|  3> nprocs 24
|  4> end
|  5>
|  6> * xyz 0 1
|  7> S 	 -76.0662 	 -4.43642 	 1.87965
|  8> C 	 -74.3703 	 -4.27012 	 1.46402
|  9> C 	 -73.6556 	 -5.43742 	 1.79197
| 10> C 	 -74.559 	 -6.56372 	 1.91395
| 11> C 	 -75.9012 	 -6.21275 	 1.77598
| 12> H 	 -74.1642 	 -7.58776 	 2.07315
| 13> C 	 -72.1769 	 -5.61525 	 1.54095
| 14> H 	 -71.9824 	 -4.67178 	 0.984949
| 15> H 	 -72.003 	 -6.45015 	 0.848297
| 16> C 	 -71.1332 	 -5.7415 	 2.71182
| 17> H 	 -70.1437 	 -5.88151 	 2.30585
| 18> H 	 -71.1466 	 -4.85534 	 3.37281
| 19> C 	 -71.4911 	 -7.03742 	 3.52079
| 20> H 	 -72.3479 	 -6.76653 	 4.07206
| 21> H 	 -71.8256 	 -7.76593 	 2.77898
| 22> H 	 -70.8002 	 -7.62437 	 4.17455
| 23> S 	 -77.7447 	 -7.71844 	 0.182722
| 24> C 	 -78.5999 	 -8.94223 	 1.13189
| 25> C 	 -78.6617 	 -8.58937 	 2.43481
| 26> C 	 -77.8172 	 -7.52961 	 2.79503
| 27> C 	 -76.9987 	 -7.15856 	 1.74127
| 28> H 	 -79.2961 	 -9.20461 	 3.13924
| 29> C 	 -77.74 	 -7.06685 	 4.23047
| 30> H 	 -78.7677 	 -6.84254 	 4.57251
| 31> H 	 -77.2014 	 -6.10977 	 4.22751
| 32> C 	 -77.041 	 -8.00633 	 5.1848
| 33> H 	 -76.1147 	 -8.31586 	 4.63335
| 34> H 	 -77.7256 	 -8.8148 	 5.29485
| 35> C 	 -76.6268 	 -7.36717 	 6.57671
| 36> H 	 -77.4398 	 -6.76168 	 6.92538
| 37> H 	 -75.8422 	 -6.67034 	 6.5133
| 38> H 	 -76.4429 	 -8.06971 	 7.40802
| 39> H 	 -73.9902 	 -3.3055 	 1.53744
| 40> H 	 -79.1337 	 -9.75472 	 0.698156
| 41> *
| 42>
| 43>                          ****END OF INPUT****

CARTESIAN COORDINATES (ANGSTROEM)
---------------------------------
  S    -76.066200   -4.436420    1.879650
  C    -74.370300   -4.270120    1.464020
  C    -73.655600   -5.437420    1.791970
  C    -74.559000   -6.563720    1.913950
  C    -75.901200   -6.212750    1.775980
  H    -74.164200   -7.587760    2.073150
  C    -72.176900   -5.615250    1.540950
  H    -71.982400   -4.671780    0.984949
  H    -72.003000   -6.450150    0.848297
  C    -71.133200   -5.741500    2.711820
  H    -70.143700   -5.881510    2.305850
  H    -71.146600   -4.855340    3.372810
  C    -71.491100   -7.037420    3.520790
  H    -72.347900   -6.766530    4.072060
  H    -71.825600   -7.765930    2.778980
  H    -70.800200   -7.624370    4.174550
  S    -77.744700   -7.718440    0.182722
  C    -78.599900   -8.942230    1.131890
  C    -78.661700   -8.589370    2.434810
  C    -77.817200   -7.529610    2.795030
  C    -76.998700   -7.158560    1.741270
  H    -79.296100   -9.204610    3.139240
  C    -77.740000   -7.066850    4.230470
  H    -78.767700   -6.842540    4.572510
  H    -77.201400   -6.109770    4.227510
  C    -77.041000   -8.006330    5.184800
  H    -76.114700   -8.315860    4.633350
  H    -77.725600   -8.814800    5.294850
  C    -76.626800   -7.367170    6.576710
  H    -77.439800   -6.761680    6.925380
  H    -75.842200   -6.670340    6.513300
  H    -76.442900   -8.069710    7.408020
  H    -73.990200   -3.305500    1.537440
  H    -79.133700   -9.754720    0.698156

 Total Charge           Charge          ....    0
 Multiplicity           Mult            ....    1
 Number of Electrons    NEL             ....  134
 Basis Dimension        Dim             ....  322

ORBITAL ENERGIES
----------------

  NO   OCC          E(Eh)            E(eV)
   0   2.0000     -88.965762     -2420.8815
   1   2.0000     -88.962581     -2420.7949
   2   2.0000     -10.331774      -281.1419
   3   2.0000     -10.326652      -281.0025
   4   2.0000     -10.313589      -280.6470
   5   2.0000     -10.313432      -280.6428
   6   2.0000     -10.308197      -280.5003
   7   2.0000     -10.301644      -280.3220
   8   2.0000     -10.301123      -280.3078
   9   2.0000     -10.298808      -280.2448
  10   2.0000     -10.295972      -280.1676
  11   2.0000     -10.291829      -280.0549
  12   2.0000     -10.289332      -279.9870
  13   2.0000     -10.288690      -279.9695
  14   2.0000     -10.278079      -279.6807
  15   2.0000     -10.276762      -279.6449
  16   2.0000      -8.079956      -219.8668
  17   2.0000      -8.076388      -219.7697
  18   2.0000      -6.038368      -164.3123
  19   2.0000      -6.034940      -164.2191
  20   2.0000      -6.034894      -164.2178
  21   2.0000      -6.031536      -164.1264
  22   2.0000      -6.030485      -164.0978
  23   2.0000      -6.026634      -163.9931
  24   2.0000      -1.002167       -27.2703
  25   2.0000      -0.982162       -26.7260
  26   2.0000      -0.908244       -24.7146
  27   2.0000      -0.906782       -24.6748
  28   2.0000      -0.868155       -23.6237
  29   2.0000      -0.844799       -22.9881
  30   2.0000      -0.844334       -22.9755
  31   2.0000      -0.813247       -22.1296
  32   2.0000      -0.783422       -21.3180
  33   2.0000      -0.768956       -20.9244
  34   2.0000      -0.708778       -19.2868
  35   2.0000      -0.704816       -19.1790
  36   2.0000      -0.696899       -18.9636
  37   2.0000      -0.654427       -17.8079
  38   2.0000      -0.641547       -17.4574
  39   2.0000      -0.611336       -16.6353
  40   2.0000      -0.595920       -16.2158
  41   2.0000      -0.574976       -15.6459
  42   2.0000      -0.568267       -15.4633
  43   2.0000      -0.543391       -14.7864
  44   2.0000      -0.537639       -14.6299
  45   2.0000      -0.522312       -14.2128
  46   2.0000      -0.513225       -13.9656
  47   2.0000      -0.508243       -13.8300
  48   2.0000      -0.501864       -13.6564
  49   2.0000      -0.489279       -13.3140
  50   2.0000      -0.486672       -13.2430
  51   2.0000      -0.480971       -13.0879
  52   2.0000      -0.473742       -12.8912
  53   2.0000      -0.469215       -12.7680
  54   2.0000      -0.456058       -12.4100
  55   2.0000      -0.445868       -12.1327
  56   2.0000      -0.442555       -12.0425
  57   2.0000      -0.434915       -11.8346
  58   2.0000      -0.434031       -11.8106
  59   2.0000      -0.425414       -11.5761
  60   2.0000      -0.422775       -11.5043
  61   2.0000      -0.417816       -11.3694
  62   2.0000      -0.415048       -11.2940
  63   2.0000      -0.333002        -9.0614
  64   2.0000      -0.327617        -8.9149
  65   2.0000      -0.314977        -8.5710
  66   2.0000      -0.310354        -8.4452
  67   0.0000       0.029600         0.8055
  68   0.0000       0.037960         1.0329
  69   0.0000       0.097260         2.6466
  70   0.0000       0.098264         2.6739
  71   0.0000       0.125390         3.4120

MULLIKEN ATOMIC CHARGES
-----------------------
   0 S :    0.106359
   1 C :   -0.088989
   2 C :   -0.084812
   3 C :    0.032192
   4 C :   -0.177506
   5 H :    0.032363
   6 C :   -0.017452
   7 H :    0.031679
   8 H :    0.047058
   9 C :   -0.034454
  10 H :    0.034904
  11 H :    0.039233
  12 C :   -0.085730
  13 H :    0.033377
  14 H :    0.019905
  15 H :    0.048972
  16 S :    0.096013
  17 C :   -0.078197
  18 C :   -0.045892
  19 C :   -0.013842
  20 C :   -0.181269
  21 H :    0.037633
  22 C :    0.069408
  23 H :    0.031631
  24 H :    0.011387
  25 C :   -0.063513
  26 H :    0.040863
  27 H :    0.020648
  28 C :   -0.026859
  29 H :    0.013353
  30 H :    0.025452
  31 H :    0.040810
  32 H :    0.040734
  33 H :    0.044541
Sum of atomic charges:    0.0000000

LOEWDIN ATOMIC CHARGES
----------------------
   0 S :    0.386768
   1 C :   -0.184136
   2 C :   -0.062950
   3 C :   -0.050737
   4 C :   -0.185520
   5 H :    0.037187
   6 C :   -0.037522
   7 H :    0.037801
   8 H :    0.034586
   9 C :   -0.029919
  10 H :    0.023274
  11 H :    0.025586
  12 C :   -0.075979
  13 H :    0.019903
  14 H :    0.020471
  15 H :    0.031092
  16 S :    0.362499
  17 C :   -0.163115
  18 C :   -0.078702
  19 C :   -0.048127
  20 C :   -0.182558
  21 H :    0.040930
  22 C :   -0.035897
  23 H :    0.033139
  24 H :    0.023344
  25 C :   -0.034289
  26 H :    0.031252
  27 H :    0.017228
  28 C :   -0.064477
  29 H :    0.022103
  30 H :    0.020056
  31 H :    0.031579
  32 H :    0.011682
  33 H :    0.023449

  Mayer bond orders larger than 0.100000
B(  0-S ,  1-C ) :   1.1475 B(  0-S ,  4-C ) :   1.1270 B(  1-C ,  2-C ) :   1.6083
B(  1-C , 32-H ) :   0.9624 B(  2-C ,  3-C ) :   1.2227 B(  2-C ,  6-C ) :   1.0172
B(  3-C ,  4-C ) :   1.5876 B(  3-C ,  5-H ) :   0.9872 B(  4-C , 20-C ) :   1.0791
B(  6-C ,  7-H ) :   0.9462 B(  6-C ,  8-H ) :   0.9517 B(  6-C ,  9-C ) :   1.0649
B(  9-C , 10-H ) :   0.9584 B(  9-C , 11-H ) :   0.9624 B(  9-C , 12-C ) :   1.0523
B( 12-C , 13-H ) :   0.9777 B( 12-C , 14-H ) :   0.9744 B( 12-C , 15-H ) :   0.9761
B( 16-S , 17-C ) :   1.1359 B( 16-S , 20-C ) :   1.1110 B( 17-C , 18-C ) :   1.6431
B( 17-C , 20-C ) :   0.1004 B( 17-C , 33-H ) :   0.9718 B( 18-C , 19-C ) :   1.2078
B( 18-C , 21-H ) :   0.9815 B( 19-C , 20-C ) :   1.6069 B( 19-C , 22-C ) :   1.0571
B( 22-C , 23-H ) :   0.9267 B( 22-C , 24-H ) :   0.9219 B( 22-C , 25-C ) :   1.0635
B( 25-C , 26-H ) :   0.9572 B( 25-C , 27-H ) :   0.9569 B( 25-C , 28-C ) :   1.0729
B( 28-C , 29-H ) :   0.9728 B( 28-C , 30-H ) :   0.9765 B( 28-C , 31-H ) :   0.9772

Dispersion correction           -0.014697428
FINAL SINGLE POINT ENERGY     -1339.842495987229

DIPOLE MOMENT
-------------
                                X             Y             Z
Electronic contribution:    -16.68588       5.32456     -20.70575
Nuclear contribution   :     16.94955      -5.53978      21.23186
                        -----------------------------------------
Total Dipole Moment    :      0.26367      -0.21523       0.52612
                        -----------------------------------------
Magnitude (a.u.)       :      0.62661
Magnitude (Debye)      :      1.59272

Rotational constants in cm-1:     0.016838     0.009067     0.007409
Rotational constants in MHz :   504.796941   271.807802   222.101372

                             ****ORCA TERMINATED NORMALLY****
TOTAL RUN TIME: 0 days 0 hours 0 minutes 20 seconds 694 msec
