                         Program Version 4.2.1 -  RELEASE  -
|  1> ! wB97X-D3 SP def2-SVP
|  2> %pal
|  3> nprocs 24
|  4> end
|  5>
|  6> * xyz 0 1
|  7> S 	 28.9513 	 -31.6287 	 -132.304
|  8> C 	 29.3898 	 -30.5705 	 -133.601
|  9> C 	 30.1945 	 -29.5822 	 -133.054
| 10> C 	 30.533 	 -29.7852 	 -131.681
| 11> C 	 29.9201 	 -30.9297 	 -131.14
| 12> H 	 31.1541 	 -29.1396 	 -131.08
| 13> C 	 30.7774 	 -28.3638 	 -133.775
| 14> H 	 30.6028 	 -28.2979 	 -134.84
| 15> H 	 31.8488 	 -28.5089 	 -133.919
| 16> C 	 30.5403 	 -27.0363 	 -133.086
| 17> H 	 29.5736 	 -26.9418 	 -132.676
| 18> H 	 31.1295 	 -26.964 	 -132.242
| 19> C 	 30.7662 	 -25.8733 	 -133.993
| 20> H 	 30.4 	 -25.9616 	 -135.028
| 21> H 	 30.3334 	 -24.9251 	 -133.481
| 22> H 	 31.8609 	 -25.6988 	 -134.06
| 23> S 	 29.017 	 -32.9402 	 -129.388
| 24> C 	 29.5834 	 -32.932 	 -127.759
| 25> C 	 30.3338 	 -31.81 	 -127.432
| 26> C 	 30.5015 	 -30.9536 	 -128.551
| 27> C 	 29.8759 	 -31.3964 	 -129.715
| 28> H 	 30.8475 	 -31.6905 	 -126.482
| 29> C 	 31.4928 	 -29.8084 	 -128.453
| 30> H 	 31.5667 	 -29.3967 	 -127.515
| 31> H 	 31.0481 	 -29.0006 	 -129.022
| 32> C 	 32.9244 	 -30.0503 	 -129.047
| 33> H 	 32.8184 	 -30.2414 	 -130.091
| 34> H 	 33.1573 	 -31.0425 	 -128.753
| 35> C 	 33.8864 	 -28.9679 	 -128.716
| 36> H 	 33.331 	 -27.9807 	 -128.904
| 37> H 	 34.7337 	 -29.1603 	 -129.291
| 38> H 	 34.1641 	 -28.926 	 -127.667
| 39> H 	 29.0151 	 -30.4966 	 -134.62
| 40> H 	 29.2661 	 -33.6535 	 -126.992
| 41> *
| 42>
| 43>                          ****END OF INPUT****

CARTESIAN COORDINATES (ANGSTROEM)
---------------------------------
  S     28.951300  -31.628700  -132.304000
  C     29.389800  -30.570500  -133.601000
  C     30.194500  -29.582200  -133.054000
  C     30.533000  -29.785200  -131.681000
  C     29.920100  -30.929700  -131.140000
  H     31.154100  -29.139600  -131.080000
  C     30.777400  -28.363800  -133.775000
  H     30.602800  -28.297900  -134.840000
  H     31.848800  -28.508900  -133.919000
  C     30.540300  -27.036300  -133.086000
  H     29.573600  -26.941800  -132.676000
  H     31.129500  -26.964000  -132.242000
  C     30.766200  -25.873300  -133.993000
  H     30.400000  -25.961600  -135.028000
  H     30.333400  -24.925100  -133.481000
  H     31.860900  -25.698800  -134.060000
  S     29.017000  -32.940200  -129.388000
  C     29.583400  -32.932000  -127.759000
  C     30.333800  -31.810000  -127.432000
  C     30.501500  -30.953600  -128.551000
  C     29.875900  -31.396400  -129.715000
  H     30.847500  -31.690500  -126.482000
  C     31.492800  -29.808400  -128.453000
  H     31.566700  -29.396700  -127.515000
  H     31.048100  -29.000600  -129.022000
  C     32.924400  -30.050300  -129.047000
  H     32.818400  -30.241400  -130.091000
  H     33.157300  -31.042500  -128.753000
  C     33.886400  -28.967900  -128.716000
  H     33.331000  -27.980700  -128.904000
  H     34.733700  -29.160300  -129.291000
  H     34.164100  -28.926000  -127.667000
  H     29.015100  -30.496600  -134.620000
  H     29.266100  -33.653500  -126.992000

 Total Charge           Charge          ....    0
 Multiplicity           Mult            ....    1
 Number of Electrons    NEL             ....  134
 Basis Dimension        Dim             ....  322

ORBITAL ENERGIES
----------------

  NO   OCC          E(Eh)            E(eV)
   0   2.0000     -88.969724     -2420.9893
   1   2.0000     -88.966638     -2420.9053
   2   2.0000     -10.337127      -281.2875
   3   2.0000     -10.332993      -281.1750
   4   2.0000     -10.320855      -280.8447
   5   2.0000     -10.313045      -280.6322
   6   2.0000     -10.305935      -280.4388
   7   2.0000     -10.302441      -280.3437
   8   2.0000     -10.295044      -280.1424
   9   2.0000     -10.292147      -280.0635
  10   2.0000     -10.287984      -279.9503
  11   2.0000     -10.285073      -279.8711
  12   2.0000     -10.284842      -279.8648
  13   2.0000     -10.280896      -279.7574
  14   2.0000     -10.278298      -279.6867
  15   2.0000     -10.272345      -279.5247
  16   2.0000      -8.084129      -219.9803
  17   2.0000      -8.082975      -219.9489
  18   2.0000      -6.042675      -164.4295
  19   2.0000      -6.041494      -164.3974
  20   2.0000      -6.038707      -164.3216
  21   2.0000      -6.037032      -164.2760
  22   2.0000      -6.034859      -164.2169
  23   2.0000      -6.033842      -164.1892
  24   2.0000      -1.013319       -27.5738
  25   2.0000      -0.988610       -26.9014
  26   2.0000      -0.919175       -25.0120
  27   2.0000      -0.914671       -24.8895
  28   2.0000      -0.870149       -23.6780
  29   2.0000      -0.860065       -23.4035
  30   2.0000      -0.845459       -23.0061
  31   2.0000      -0.813658       -22.1407
  32   2.0000      -0.785050       -21.3623
  33   2.0000      -0.774577       -21.0773
  34   2.0000      -0.712869       -19.3981
  35   2.0000      -0.707786       -19.2598
  36   2.0000      -0.692031       -18.8311
  37   2.0000      -0.666813       -18.1449
  38   2.0000      -0.640368       -17.4253
  39   2.0000      -0.625268       -17.0144
  40   2.0000      -0.601236       -16.3605
  41   2.0000      -0.572295       -15.5729
  42   2.0000      -0.565088       -15.3768
  43   2.0000      -0.560255       -15.2453
  44   2.0000      -0.536708       -14.6046
  45   2.0000      -0.528294       -14.3756
  46   2.0000      -0.521240       -14.1837
  47   2.0000      -0.511753       -13.9255
  48   2.0000      -0.509299       -13.8587
  49   2.0000      -0.506969       -13.7953
  50   2.0000      -0.489824       -13.3288
  51   2.0000      -0.481024       -13.0893
  52   2.0000      -0.479306       -13.0426
  53   2.0000      -0.467399       -12.7186
  54   2.0000      -0.464277       -12.6336
  55   2.0000      -0.454869       -12.3776
  56   2.0000      -0.443859       -12.0780
  57   2.0000      -0.440820       -11.9953
  58   2.0000      -0.436712       -11.8835
  59   2.0000      -0.425638       -11.5822
  60   2.0000      -0.416357       -11.3296
  61   2.0000      -0.410903       -11.1812
  62   2.0000      -0.406282       -11.0555
  63   2.0000      -0.361541        -9.8380
  64   2.0000      -0.336884        -9.1671
  65   2.0000      -0.326827        -8.8934
  66   2.0000      -0.284006        -7.7282
  67   0.0000       0.019380         0.5273
  68   0.0000       0.092212         2.5092
  69   0.0000       0.095962         2.6113
  70   0.0000       0.118639         3.2283
  71   0.0000       0.128129         3.4866

MULLIKEN ATOMIC CHARGES
-----------------------
   0 S :    0.099723
   1 C :   -0.106788
   2 C :   -0.073093
   3 C :   -0.020765
   4 C :   -0.077114
   5 H :   -0.000205
   6 C :    0.055803
   7 H :   -0.005479
   8 H :    0.024760
   9 C :   -0.017323
  10 H :    0.019567
  11 H :    0.007098
  12 C :   -0.090079
  13 H :    0.042064
  14 H :    0.044129
  15 H :    0.029095
  16 S :    0.100709
  17 C :   -0.092305
  18 C :   -0.027449
  19 C :   -0.075644
  20 C :   -0.113405
  21 H :    0.023895
  22 C :    0.060017
  23 H :   -0.011995
  24 H :    0.009827
  25 C :   -0.037790
  26 H :    0.010580
  27 H :    0.005298
  28 C :   -0.004048
  29 H :    0.034257
  30 H :    0.032824
  31 H :    0.032976
  32 H :    0.052730
  33 H :    0.068132
Sum of atomic charges:    0.0000000

LOEWDIN ATOMIC CHARGES
----------------------
   0 S :    0.451395
   1 C :   -0.218687
   2 C :   -0.055597
   3 C :   -0.079586
   4 C :   -0.208306
   5 H :    0.024065
   6 C :   -0.037583
   7 H :    0.024030
   8 H :    0.034945
   9 C :   -0.041064
  10 H :    0.021421
  11 H :    0.015413
  12 C :   -0.068974
  13 H :    0.025432
  14 H :    0.037346
  15 H :    0.025365
  16 S :    0.397415
  17 C :   -0.189228
  18 C :   -0.074505
  19 C :   -0.053132
  20 C :   -0.180112
  21 H :    0.035335
  22 C :   -0.027193
  23 H :    0.015388
  24 H :    0.024453
  25 C :   -0.038721
  26 H :    0.020404
  27 H :    0.019186
  28 C :   -0.057209
  29 H :    0.036005
  30 H :    0.023567
  31 H :    0.026099
  32 H :    0.037767
  33 H :    0.034866

  Mayer bond orders larger than 0.100000
B(  0-S ,  1-C ) :   1.1361 B(  0-S ,  4-C ) :   1.1991 B(  1-C ,  2-C ) :   1.5805
B(  1-C , 32-H ) :   0.9703 B(  2-C ,  3-C ) :   1.2819 B(  2-C ,  6-C ) :   1.0240
B(  3-C ,  4-C ) :   1.5012 B(  3-C ,  5-H ) :   0.9917 B(  4-C , 20-C ) :   1.0525
B(  6-C ,  7-H ) :   0.9471 B(  6-C ,  8-H ) :   0.9330 B(  6-C ,  9-C ) :   1.0498
B(  9-C , 10-H ) :   0.9609 B(  9-C , 11-H ) :   0.9413 B(  9-C , 12-C ) :   1.0940
B( 12-C , 13-H ) :   0.9760 B( 12-C , 14-H ) :   0.9730 B( 12-C , 15-H ) :   0.9745
B( 16-S , 17-C ) :   1.1722 B( 16-S , 20-C ) :   1.1234 B( 17-C , 18-C ) :   1.5928
B( 17-C , 33-H ) :   0.9602 B( 18-C , 19-C ) :   1.2638 B( 18-C , 21-H ) :   0.9899
B( 19-C , 20-C ) :   1.5945 B( 19-C , 22-C ) :   1.0533 B( 22-C , 23-H ) :   0.9299
B( 22-C , 24-H ) :   0.9212 B( 22-C , 25-C ) :   1.0534 B( 25-C , 26-H ) :   0.9465
B( 25-C , 27-H ) :   0.9450 B( 25-C , 28-C ) :   1.0772 B( 28-C , 29-H ) :   0.9704
B( 28-C , 30-H ) :   0.9701 B( 28-C , 31-H ) :   0.9736

Dispersion correction           -0.014148889
FINAL SINGLE POINT ENERGY     -1339.862799800972

DIPOLE MOMENT
-------------
                                X             Y             Z
Electronic contribution:    -18.66993     -27.04938       2.91912
Nuclear contribution   :     19.15566      27.53654      -2.73512
                        -----------------------------------------
Total Dipole Moment    :      0.48573       0.48716       0.18400
                        -----------------------------------------
Magnitude (a.u.)       :      0.71212
Magnitude (Debye)      :      1.81006

Rotational constants in cm-1:     0.018004     0.009299     0.006527
Rotational constants in MHz :   539.756126   278.787928   195.666396

                             ****ORCA TERMINATED NORMALLY****
TOTAL RUN TIME: 0 days 0 hours 0 minutes 22 seconds 44 msec
