                         Program Version 4.2.1 -  RELEASE  -
|  1> ! wB97X-D3 SP def2-SVP
|  2> %pal
|  3> nprocs 24
|  4> end
|  5>
|  6> * xyz 0 1
|  7> S 	 -43.7152 	 16.6392 	 28.2863
|  8> C 	 -45.3216 	 16.0405 	 27.9437
|  9> C 	 -46.2627 	 17.007 	 28.1346
| 10> C 	 -45.7113 	 18.2791 	 28.6165
| 11> C 	 -44.3469 	 18.1806 	 28.8256
| 12> H 	 -46.3227 	 19.1454 	 28.8758
| 13> C 	 -47.7196 	 16.791 	 27.7558
| 14> H 	 -47.8399 	 15.6953 	 27.5875
| 15> H 	 -48.0165 	 17.3109 	 26.8032
| 16> C 	 -48.7077 	 17.1809 	 28.844
| 17> H 	 -48.2709 	 16.8264 	 29.7808
| 18> H 	 -48.7966 	 18.294 	 28.7807
| 19> C 	 -50.1475 	 16.5951 	 28.6448
| 20> H 	 -50.1534 	 15.496 	 28.5076
| 21> H 	 -50.8239 	 16.8003 	 29.4922
| 22> H 	 -50.7209 	 17.035 	 27.8468
| 23> S 	 -42.6042 	 18.8113 	 30.8625
| 24> C 	 -41.561 	 20.2418 	 30.6956
| 25> C 	 -41.8131 	 20.9463 	 29.5504
| 26> C 	 -42.9052 	 20.3851 	 28.7729
| 27> C 	 -43.3773 	 19.2005 	 29.3046
| 28> H 	 -41.3866 	 21.9089 	 29.3717
| 29> C 	 -43.3482 	 20.9961 	 27.4706
| 30> H 	 -43.0783 	 22.0268 	 27.4061
| 31> H 	 -44.4293 	 20.9178 	 27.4727
| 32> C 	 -42.735 	 20.3635 	 26.2413
| 33> H 	 -43.1927 	 20.8682 	 25.3744
| 34> H 	 -43.0155 	 19.2983 	 26.2984
| 35> C 	 -41.204 	 20.6097 	 26.1235
| 36> H 	 -40.9268 	 21.5388 	 26.4723
| 37> H 	 -40.8466 	 20.4607 	 25.1477
| 38> H 	 -40.7658 	 19.8352 	 26.8016
| 39> H 	 -45.6421 	 14.9696 	 27.7188
| 40> H 	 -40.7746 	 20.535 	 31.4081
| 41> *
| 42>
| 43>                          ****END OF INPUT****

CARTESIAN COORDINATES (ANGSTROEM)
---------------------------------
  S    -43.715200   16.639200   28.286300
  C    -45.321600   16.040500   27.943700
  C    -46.262700   17.007000   28.134600
  C    -45.711300   18.279100   28.616500
  C    -44.346900   18.180600   28.825600
  H    -46.322700   19.145400   28.875800
  C    -47.719600   16.791000   27.755800
  H    -47.839900   15.695300   27.587500
  H    -48.016500   17.310900   26.803200
  C    -48.707700   17.180900   28.844000
  H    -48.270900   16.826400   29.780800
  H    -48.796600   18.294000   28.780700
  C    -50.147500   16.595100   28.644800
  H    -50.153400   15.496000   28.507600
  H    -50.823900   16.800300   29.492200
  H    -50.720900   17.035000   27.846800
  S    -42.604200   18.811300   30.862500
  C    -41.561000   20.241800   30.695600
  C    -41.813100   20.946300   29.550400
  C    -42.905200   20.385100   28.772900
  C    -43.377300   19.200500   29.304600
  H    -41.386600   21.908900   29.371700
  C    -43.348200   20.996100   27.470600
  H    -43.078300   22.026800   27.406100
  H    -44.429300   20.917800   27.472700
  C    -42.735000   20.363500   26.241300
  H    -43.192700   20.868200   25.374400
  H    -43.015500   19.298300   26.298400
  C    -41.204000   20.609700   26.123500
  H    -40.926800   21.538800   26.472300
  H    -40.846600   20.460700   25.147700
  H    -40.765800   19.835200   26.801600
  H    -45.642100   14.969600   27.718800
  H    -40.774600   20.535000   31.408100

 Total Charge           Charge          ....    0
 Multiplicity           Mult            ....    1
 Number of Electrons    NEL             ....  134
 Basis Dimension        Dim             ....  322

ORBITAL ENERGIES
----------------

  NO   OCC          E(Eh)            E(eV)
   0   2.0000     -88.966864     -2420.9114
   1   2.0000     -88.964826     -2420.8560
   2   2.0000     -10.334832      -281.2251
   3   2.0000     -10.328701      -281.0582
   4   2.0000     -10.321329      -280.8576
   5   2.0000     -10.317159      -280.7442
   6   2.0000     -10.304642      -280.4036
   7   2.0000     -10.301953      -280.3304
   8   2.0000     -10.301787      -280.3259
   9   2.0000     -10.296035      -280.1694
  10   2.0000     -10.293515      -280.1008
  11   2.0000     -10.292300      -280.0677
  12   2.0000     -10.283395      -279.8254
  13   2.0000     -10.282946      -279.8132
  14   2.0000     -10.282381      -279.7978
  15   2.0000     -10.267203      -279.3848
  16   2.0000      -8.081486      -219.9084
  17   2.0000      -8.078756      -219.8341
  18   2.0000      -6.040078      -164.3589
  19   2.0000      -6.037373      -164.2853
  20   2.0000      -6.035985      -164.2475
  21   2.0000      -6.033415      -164.1776
  22   2.0000      -6.032159      -164.1434
  23   2.0000      -6.029413      -164.0687
  24   2.0000      -1.002930       -27.2911
  25   2.0000      -0.980596       -26.6834
  26   2.0000      -0.911080       -24.7918
  27   2.0000      -0.909527       -24.7495
  28   2.0000      -0.866382       -23.5754
  29   2.0000      -0.844126       -22.9698
  30   2.0000      -0.840823       -22.8800
  31   2.0000      -0.816722       -22.2241
  32   2.0000      -0.783996       -21.3336
  33   2.0000      -0.772577       -21.0229
  34   2.0000      -0.709889       -19.3171
  35   2.0000      -0.691695       -18.8220
  36   2.0000      -0.680625       -18.5207
  37   2.0000      -0.662798       -18.0357
  38   2.0000      -0.636244       -17.3131
  39   2.0000      -0.618484       -16.8298
  40   2.0000      -0.594144       -16.1675
  41   2.0000      -0.576337       -15.6829
  42   2.0000      -0.562599       -15.3091
  43   2.0000      -0.552904       -15.0453
  44   2.0000      -0.546121       -14.8607
  45   2.0000      -0.518519       -14.1096
  46   2.0000      -0.512284       -13.9400
  47   2.0000      -0.506716       -13.7884
  48   2.0000      -0.500713       -13.6251
  49   2.0000      -0.495051       -13.4710
  50   2.0000      -0.485592       -13.2136
  51   2.0000      -0.476438       -12.9645
  52   2.0000      -0.473433       -12.8828
  53   2.0000      -0.465140       -12.6571
  54   2.0000      -0.461491       -12.5578
  55   2.0000      -0.452337       -12.3087
  56   2.0000      -0.447603       -12.1799
  57   2.0000      -0.434014       -11.8101
  58   2.0000      -0.429571       -11.6892
  59   2.0000      -0.424832       -11.5603
  60   2.0000      -0.420347       -11.4382
  61   2.0000      -0.418604       -11.3908
  62   2.0000      -0.405010       -11.0209
  63   2.0000      -0.338833        -9.2201
  64   2.0000      -0.330922        -9.0049
  65   2.0000      -0.326882        -8.8949
  66   2.0000      -0.306647        -8.3443
  67   0.0000       0.037048         1.0081
  68   0.0000       0.062574         1.7027
  69   0.0000       0.109797         2.9877
  70   0.0000       0.113528         3.0893
  71   0.0000       0.129918         3.5353

MULLIKEN ATOMIC CHARGES
-----------------------
   0 S :    0.118617
   1 C :   -0.139518
   2 C :   -0.105113
   3 C :    0.058523
   4 C :   -0.164116
   5 H :    0.025171
   6 C :    0.046597
   7 H :    0.010996
   8 H :    0.048675
   9 C :   -0.097497
  10 H :    0.040990
  11 H :    0.040533
  12 C :   -0.059960
  13 H :    0.034736
  14 H :    0.034624
  15 H :    0.025414
  16 S :    0.101965
  17 C :   -0.095077
  18 C :   -0.022323
  19 C :   -0.044881
  20 C :   -0.189945
  21 H :    0.016071
  22 C :    0.103826
  23 H :    0.004230
  24 H :    0.023058
  25 C :   -0.087598
  26 H :    0.029918
  27 H :    0.038843
  28 C :   -0.013067
  29 H :    0.004273
  30 H :    0.027718
  31 H :    0.044529
  32 H :    0.073448
  33 H :    0.066340
Sum of atomic charges:    0.0000000

LOEWDIN ATOMIC CHARGES
----------------------
   0 S :    0.406630
   1 C :   -0.210785
   2 C :   -0.068592
   3 C :   -0.060838
   4 C :   -0.193604
   5 H :    0.035612
   6 C :   -0.037886
   7 H :    0.027422
   8 H :    0.036533
   9 C :   -0.044458
  10 H :    0.026983
  11 H :    0.027881
  12 C :   -0.073533
  13 H :    0.026026
  14 H :    0.030208
  15 H :    0.022320
  16 S :    0.380905
  17 C :   -0.173112
  18 C :   -0.071533
  19 C :   -0.047812
  20 C :   -0.197980
  21 H :    0.028764
  22 C :   -0.031621
  23 H :    0.023100
  24 H :    0.031660
  25 C :   -0.033702
  26 H :    0.023196
  27 H :    0.024890
  28 C :   -0.055018
  29 H :    0.009314
  30 H :    0.020180
  31 H :    0.036605
  32 H :    0.046870
  33 H :    0.035374

  Mayer bond orders larger than 0.100000
B(  0-S ,  1-C ) :   1.1191 B(  0-S ,  4-C ) :   1.1572 B(  1-C ,  2-C ) :   1.6623
B(  1-C , 32-H ) :   0.9512 B(  2-C ,  3-C ) :   1.1985 B(  2-C ,  6-C ) :   1.0317
B(  3-C ,  4-C ) :   1.6054 B(  3-C ,  5-H ) :   0.9943 B(  4-C , 20-C ) :   0.9929
B(  6-C ,  7-H ) :   0.9429 B(  6-C ,  8-H ) :   0.9387 B(  6-C ,  9-C ) :   1.0544
B(  9-C , 10-H ) :   0.9623 B(  9-C , 11-H ) :   0.9513 B(  9-C , 12-C ) :   1.0835
B( 12-C , 13-H ) :   0.9758 B( 12-C , 14-H ) :   0.9752 B( 12-C , 15-H ) :   0.9743
B( 16-S , 17-C ) :   1.1416 B( 16-S , 20-C ) :   1.1310 B( 17-C , 18-C ) :   1.6453
B( 17-C , 33-H ) :   0.9613 B( 18-C , 19-C ) :   1.2124 B( 18-C , 21-H ) :   0.9858
B( 19-C , 20-C ) :   1.6326 B( 19-C , 22-C ) :   1.0498 B( 22-C , 23-H ) :   0.9276
B( 22-C , 24-H ) :   0.9265 B( 22-C , 25-C ) :   1.0815 B( 25-C , 26-H ) :   0.9560
B( 25-C , 27-H ) :   0.9587 B( 25-C , 28-C ) :   1.0681 B( 28-C , 29-H ) :   0.9752
B( 28-C , 30-H ) :   0.9761 B( 28-C , 31-H ) :   0.9737

Dispersion correction           -0.014633657
FINAL SINGLE POINT ENERGY     -1339.887911821697

DIPOLE MOMENT
-------------
                                X             Y             Z
Electronic contribution:     15.91724      -5.14401      13.06574
Nuclear contribution   :    -16.29752       5.49221     -13.33393
                        -----------------------------------------
Total Dipole Moment    :     -0.38028       0.34820      -0.26820
                        -----------------------------------------
Magnitude (a.u.)       :      0.58119
Magnitude (Debye)      :      1.47727

Rotational constants in cm-1:     0.022199     0.007335     0.006762
Rotational constants in MHz :   665.518280   219.898510   202.727726

                             ****ORCA TERMINATED NORMALLY****
TOTAL RUN TIME: 0 days 0 hours 0 minutes 21 seconds 509 msec
