                         Program Version 4.2.1 -  RELEASE  -
|  1> ! wB97X-D3 SP def2-SVP
|  2> %pal
|  3> nprocs 24
|  4> end
|  5>
|  6> * xyz 0 1
|  7> S 	 -57.3711 	 9.76848 	 24.063
|  8> C 	 -57.3219 	 9.78912 	 22.3066
|  9> C 	 -57.2895 	 8.51778 	 21.831
| 10> C 	 -57.393 	 7.51364 	 22.861
| 11> C 	 -57.33 	 8.02687 	 24.16
| 12> H 	 -57.3942 	 6.50879 	 22.5605
| 13> C 	 -57.1868 	 8.14213 	 20.4273
| 14> H 	 -57.7255 	 8.9148 	 19.8348
| 15> H 	 -57.8259 	 7.33065 	 20.2057
| 16> C 	 -55.7874 	 7.7875 	 19.9858
| 17> H 	 -55.1621 	 8.64343 	 20.2473
| 18> H 	 -55.3789 	 7.01708 	 20.6526
| 19> C 	 -55.6788 	 7.4394 	 18.5153
| 20> H 	 -55.9983 	 6.37418 	 18.3331
| 21> H 	 -56.1873 	 8.12925 	 17.8654
| 22> H 	 -54.623 	 7.42923 	 18.1505
| 23> S 	 -58.7848 	 7.82184 	 26.5789
| 24> C 	 -58.7184 	 6.26153 	 27.4231
| 25> C 	 -57.7257 	 5.48539 	 26.8328
| 26> C 	 -57.1355 	 5.95976 	 25.6117
| 27> C 	 -57.5654 	 7.27 	 25.3593
| 28> H 	 -57.4627 	 4.50454 	 27.3442
| 29> C 	 -56.2007 	 5.06164 	 24.7837
| 30> H 	 -55.5767 	 4.61289 	 25.489
| 31> H 	 -55.6192 	 5.75614 	 24.13
| 32> C 	 -56.7992 	 3.95959 	 23.8914
| 33> H 	 -56.1608 	 3.30324 	 23.3335
| 34> H 	 -57.301 	 4.47735 	 23.1026
| 35> C 	 -57.8801 	 3.15497 	 24.5704
| 36> H 	 -57.4168 	 2.45801 	 25.2147
| 37> H 	 -58.5385 	 2.72199 	 23.8368
| 38> H 	 -58.6037 	 3.59837 	 25.2342
| 39> H 	 -57.5014 	 10.6724 	 21.7391
| 40> H 	 -59.1634 	 5.98535 	 28.3794
| 41> *
| 42>
| 43>                          ****END OF INPUT****

CARTESIAN COORDINATES (ANGSTROEM)
---------------------------------
  S    -57.371100    9.768480   24.063000
  C    -57.321900    9.789120   22.306600
  C    -57.289500    8.517780   21.831000
  C    -57.393000    7.513640   22.861000
  C    -57.330000    8.026870   24.160000
  H    -57.394200    6.508790   22.560500
  C    -57.186800    8.142130   20.427300
  H    -57.725500    8.914800   19.834800
  H    -57.825900    7.330650   20.205700
  C    -55.787400    7.787500   19.985800
  H    -55.162100    8.643430   20.247300
  H    -55.378900    7.017080   20.652600
  C    -55.678800    7.439400   18.515300
  H    -55.998300    6.374180   18.333100
  H    -56.187300    8.129250   17.865400
  H    -54.623000    7.429230   18.150500
  S    -58.784800    7.821840   26.578900
  C    -58.718400    6.261530   27.423100
  C    -57.725700    5.485390   26.832800
  C    -57.135500    5.959760   25.611700
  C    -57.565400    7.270000   25.359300
  H    -57.462700    4.504540   27.344200
  C    -56.200700    5.061640   24.783700
  H    -55.576700    4.612890   25.489000
  H    -55.619200    5.756140   24.130000
  C    -56.799200    3.959590   23.891400
  H    -56.160800    3.303240   23.333500
  H    -57.301000    4.477350   23.102600
  C    -57.880100    3.154970   24.570400
  H    -57.416800    2.458010   25.214700
  H    -58.538500    2.721990   23.836800
  H    -58.603700    3.598370   25.234200
  H    -57.501400   10.672400   21.739100
  H    -59.163400    5.985350   28.379400

 Total Charge           Charge          ....    0
 Multiplicity           Mult            ....    1
 Number of Electrons    NEL             ....  134
 Basis Dimension        Dim             ....  322

ORBITAL ENERGIES
----------------

  NO   OCC          E(Eh)            E(eV)
   0   2.0000     -88.968420     -2420.9538
   1   2.0000     -88.964545     -2420.8484
   2   2.0000     -10.334874      -281.2262
   3   2.0000     -10.332168      -281.1526
   4   2.0000     -10.322788      -280.8973
   5   2.0000     -10.311724      -280.5963
   6   2.0000     -10.310022      -280.5500
   7   2.0000     -10.301267      -280.3117
   8   2.0000     -10.295515      -280.1552
   9   2.0000     -10.294420      -280.1254
  10   2.0000     -10.292526      -280.0739
  11   2.0000     -10.286760      -279.9170
  12   2.0000     -10.285158      -279.8734
  13   2.0000     -10.284558      -279.8571
  14   2.0000     -10.283626      -279.8317
  15   2.0000     -10.265943      -279.3505
  16   2.0000      -8.081643      -219.9127
  17   2.0000      -8.079427      -219.8524
  18   2.0000      -6.040381      -164.3671
  19   2.0000      -6.038048      -164.3037
  20   2.0000      -6.036464      -164.2605
  21   2.0000      -6.033852      -164.1895
  22   2.0000      -6.032111      -164.1421
  23   2.0000      -6.030138      -164.0884
  24   2.0000      -1.005166       -27.3520
  25   2.0000      -0.979954       -26.6659
  26   2.0000      -0.921305       -25.0700
  27   2.0000      -0.912450       -24.8290
  28   2.0000      -0.872918       -23.7533
  29   2.0000      -0.853158       -23.2156
  30   2.0000      -0.844043       -22.9676
  31   2.0000      -0.812742       -22.1158
  32   2.0000      -0.788410       -21.4537
  33   2.0000      -0.775954       -21.1148
  34   2.0000      -0.717063       -19.5123
  35   2.0000      -0.706329       -19.2202
  36   2.0000      -0.699304       -19.0290
  37   2.0000      -0.660634       -17.9768
  38   2.0000      -0.640058       -17.4169
  39   2.0000      -0.624517       -16.9940
  40   2.0000      -0.587385       -15.9836
  41   2.0000      -0.571253       -15.5446
  42   2.0000      -0.567088       -15.4313
  43   2.0000      -0.556294       -15.1375
  44   2.0000      -0.547933       -14.9100
  45   2.0000      -0.527216       -14.3463
  46   2.0000      -0.525600       -14.3023
  47   2.0000      -0.513173       -13.9641
  48   2.0000      -0.508875       -13.8472
  49   2.0000      -0.501822       -13.6553
  50   2.0000      -0.494038       -13.4434
  51   2.0000      -0.489739       -13.3265
  52   2.0000      -0.474845       -12.9212
  53   2.0000      -0.462362       -12.5815
  54   2.0000      -0.457132       -12.4392
  55   2.0000      -0.446950       -12.1621
  56   2.0000      -0.441053       -12.0017
  57   2.0000      -0.440063       -11.9747
  58   2.0000      -0.433541       -11.7973
  59   2.0000      -0.422005       -11.4833
  60   2.0000      -0.419799       -11.4233
  61   2.0000      -0.413354       -11.2479
  62   2.0000      -0.408200       -11.1077
  63   2.0000      -0.353512        -9.6196
  64   2.0000      -0.330925        -9.0049
  65   2.0000      -0.328381        -8.9357
  66   2.0000      -0.289544        -7.8789
  67   0.0000       0.019401         0.5279
  68   0.0000       0.073978         2.0130
  69   0.0000       0.110336         3.0024
  70   0.0000       0.120678         3.2838
  71   0.0000       0.125236         3.4078

MULLIKEN ATOMIC CHARGES
-----------------------
   0 S :    0.091645
   1 C :   -0.111740
   2 C :   -0.106635
   3 C :    0.065184
   4 C :   -0.127659
   5 H :   -0.041313
   6 C :    0.070926
   7 H :    0.014819
   8 H :    0.001369
   9 C :   -0.054730
  10 H :    0.022202
  11 H :    0.024682
  12 C :   -0.040921
  13 H :    0.036917
  14 H :    0.032345
  15 H :    0.035794
  16 S :    0.100314
  17 C :   -0.100386
  18 C :   -0.065039
  19 C :   -0.070959
  20 C :   -0.114062
  21 H :    0.040540
  22 C :    0.096085
  23 H :    0.016644
  24 H :    0.035842
  25 C :   -0.011824
  26 H :    0.029248
  27 H :    0.004103
  28 C :   -0.058840
  29 H :    0.015218
  30 H :    0.025167
  31 H :    0.035113
  32 H :    0.044130
  33 H :    0.065820
Sum of atomic charges:    0.0000000

LOEWDIN ATOMIC CHARGES
----------------------
   0 S :    0.401177
   1 C :   -0.185699
   2 C :   -0.064102
   3 C :   -0.049590
   4 C :   -0.193006
   5 H :    0.016608
   6 C :   -0.040222
   7 H :    0.033246
   8 H :    0.022946
   9 C :   -0.042212
  10 H :    0.025043
  11 H :    0.027105
  12 C :   -0.069403
  13 H :    0.031333
  14 H :    0.023071
  15 H :    0.032055
  16 S :    0.372511
  17 C :   -0.189169
  18 C :   -0.075427
  19 C :   -0.051045
  20 C :   -0.175521
  21 H :    0.038100
  22 C :   -0.022711
  23 H :    0.022725
  24 H :    0.035989
  25 C :   -0.035226
  26 H :    0.028513
  27 H :    0.016154
  28 C :   -0.067769
  29 H :    0.016872
  30 H :    0.027207
  31 H :    0.027620
  32 H :    0.026295
  33 H :    0.036534

  Mayer bond orders larger than 0.100000
B(  0-S ,  1-C ) :   1.1273 B(  0-S ,  4-C ) :   1.1488 B(  1-C ,  2-C ) :   1.6037
B(  1-C , 32-H ) :   0.9733 B(  2-C ,  3-C ) :   1.2730 B(  2-C ,  6-C ) :   1.0465
B(  3-C ,  4-C ) :   1.5090 B(  3-C ,  5-H ) :   0.9957 B(  4-C , 20-C ) :   1.0824
B(  6-C ,  7-H ) :   0.9323 B(  6-C ,  8-H ) :   0.9266 B(  6-C ,  9-C ) :   1.0527
B(  9-C , 10-H ) :   0.9522 B(  9-C , 11-H ) :   0.9517 B(  9-C , 12-C ) :   1.0829
B( 12-C , 13-H ) :   0.9725 B( 12-C , 14-H ) :   0.9743 B( 12-C , 15-H ) :   0.9734
B( 16-S , 17-C ) :   1.1285 B( 16-S , 20-C ) :   1.1212 B( 17-C , 18-C ) :   1.6361
B( 17-C , 33-H ) :   0.9631 B( 18-C , 19-C ) :   1.2301 B( 18-C , 21-H ) :   0.9702
B( 19-C , 20-C ) :   1.5971 B( 19-C , 22-C ) :   1.0345 B( 22-C , 23-H ) :   0.9340
B( 22-C , 24-H ) :   0.9310 B( 22-C , 25-C ) :   1.0650 B( 25-C , 26-H ) :   0.9505
B( 25-C , 27-H ) :   0.9505 B( 25-C , 28-C ) :   1.0864 B( 28-C , 29-H ) :   0.9771
B( 28-C , 30-H ) :   0.9714 B( 28-C , 31-H ) :   0.9660

Dispersion correction           -0.014746674
FINAL SINGLE POINT ENERGY     -1339.867237502305

DIPOLE MOMENT
-------------
                                X             Y             Z
Electronic contribution:     -8.28361      19.59066      22.19099
Nuclear contribution   :      8.38663     -20.19574     -22.69563
                        -----------------------------------------
Total Dipole Moment    :      0.10302      -0.60508      -0.50464
                        -----------------------------------------
Magnitude (a.u.)       :      0.79461
Magnitude (Debye)      :      2.01973

Rotational constants in cm-1:     0.019092     0.009154     0.006535
Rotational constants in MHz :   572.364079   274.422367   195.901464

                             ****ORCA TERMINATED NORMALLY****
TOTAL RUN TIME: 0 days 0 hours 0 minutes 22 seconds 254 msec
