                         Program Version 4.2.1 -  RELEASE  -
|  1> ! wB97X-D3 SP def2-SVP
|  2> %pal
|  3> nprocs 24
|  4> end
|  5>
|  6> * xyz 0 1
|  7> S 	 -73.237 	 7.38465 	 -112.092
|  8> C 	 -73.7038 	 7.32944 	 -110.395
|  9> C 	 -72.8319 	 8.16312 	 -109.611
| 10> C 	 -71.6732 	 8.56656 	 -110.391
| 11> C 	 -71.755 	 8.24027 	 -111.759
| 12> H 	 -70.8498 	 9.17624 	 -110.047
| 13> C 	 -72.9235 	 8.42041 	 -108.062
| 14> H 	 -72.5699 	 9.44331 	 -107.713
| 15> H 	 -72.2724 	 7.69259 	 -107.659
| 16> C 	 -74.3132 	 8.0071 	 -107.562
| 17> H 	 -75.0265 	 8.50018 	 -108.173
| 18> H 	 -74.4764 	 6.87336 	 -107.639
| 19> C 	 -74.5626 	 8.37257 	 -106.107
| 20> H 	 -75.6669 	 8.37839 	 -105.951
| 21> H 	 -74.1338 	 7.6907 	 -105.428
| 22> H 	 -74.2018 	 9.31983 	 -105.869
| 23> S 	 -71.8355 	 9.49314 	 -114.32
| 24> C 	 -70.6183 	 10.612 	 -114.764
| 25> C 	 -69.5721 	 10.6349 	 -113.83
| 26> C 	 -69.724 	 9.66017 	 -112.786
| 27> C 	 -70.9874 	 8.98715 	 -112.818
| 28> H 	 -68.732 	 11.2421 	 -113.92
| 29> C 	 -68.6402 	 9.47154 	 -111.763
| 30> H 	 -69.0558 	 8.97236 	 -110.9
| 31> H 	 -68.3314 	 10.4122 	 -111.389
| 32> C 	 -67.3945 	 8.67425 	 -112.212
| 33> H 	 -67.6846 	 7.68817 	 -112.502
| 34> H 	 -66.6661 	 8.5727 	 -111.464
| 35> C 	 -66.6264 	 9.2414 	 -113.359
| 36> H 	 -66.6726 	 10.3415 	 -113.445
| 37> H 	 -66.8473 	 8.85901 	 -114.341
| 38> H 	 -65.556 	 8.91558 	 -113.317
| 39> H 	 -74.6274 	 6.89744 	 -110.075
| 40> H 	 -70.5213 	 11.0275 	 -115.765
| 41> *
| 42>
| 43>                          ****END OF INPUT****

CARTESIAN COORDINATES (ANGSTROEM)
---------------------------------
  S    -73.237000    7.384650  -112.092000
  C    -73.703800    7.329440  -110.395000
  C    -72.831900    8.163120  -109.611000
  C    -71.673200    8.566560  -110.391000
  C    -71.755000    8.240270  -111.759000
  H    -70.849800    9.176240  -110.047000
  C    -72.923500    8.420410  -108.062000
  H    -72.569900    9.443310  -107.713000
  H    -72.272400    7.692590  -107.659000
  C    -74.313200    8.007100  -107.562000
  H    -75.026500    8.500180  -108.173000
  H    -74.476400    6.873360  -107.639000
  C    -74.562600    8.372570  -106.107000
  H    -75.666900    8.378390  -105.951000
  H    -74.133800    7.690700  -105.428000
  H    -74.201800    9.319830  -105.869000
  S    -71.835500    9.493140  -114.320000
  C    -70.618300   10.612000  -114.764000
  C    -69.572100   10.634900  -113.830000
  C    -69.724000    9.660170  -112.786000
  C    -70.987400    8.987150  -112.818000
  H    -68.732000   11.242100  -113.920000
  C    -68.640200    9.471540  -111.763000
  H    -69.055800    8.972360  -110.900000
  H    -68.331400   10.412200  -111.389000
  C    -67.394500    8.674250  -112.212000
  H    -67.684600    7.688170  -112.502000
  H    -66.666100    8.572700  -111.464000
  C    -66.626400    9.241400  -113.359000
  H    -66.672600   10.341500  -113.445000
  H    -66.847300    8.859010  -114.341000
  H    -65.556000    8.915580  -113.317000
  H    -74.627400    6.897440  -110.075000
  H    -70.521300   11.027500  -115.765000

 Total Charge           Charge          ....    0
 Multiplicity           Mult            ....    1
 Number of Electrons    NEL             ....  134
 Basis Dimension        Dim             ....  322

ORBITAL ENERGIES
----------------

  NO   OCC          E(Eh)            E(eV)
   0   2.0000     -88.970387     -2421.0073
   1   2.0000     -88.965794     -2420.8823
   2   2.0000     -10.339445      -281.3506
   3   2.0000     -10.337582      -281.2999
   4   2.0000     -10.322313      -280.8844
   5   2.0000     -10.317334      -280.7489
   6   2.0000     -10.316877      -280.7365
   7   2.0000     -10.306834      -280.4632
   8   2.0000     -10.300835      -280.3000
   9   2.0000     -10.299314      -280.2586
  10   2.0000     -10.291890      -280.0566
  11   2.0000     -10.289013      -279.9783
  12   2.0000     -10.287728      -279.9433
  13   2.0000     -10.277237      -279.6578
  14   2.0000     -10.274075      -279.5718
  15   2.0000     -10.271709      -279.5074
  16   2.0000      -8.084655      -219.9946
  17   2.0000      -8.080324      -219.8768
  18   2.0000      -6.043206      -164.4440
  19   2.0000      -6.039181      -164.3345
  20   2.0000      -6.038852      -164.3255
  21   2.0000      -6.035458      -164.2332
  22   2.0000      -6.034721      -164.2131
  23   2.0000      -6.031221      -164.1179
  24   2.0000      -0.997842       -27.1527
  25   2.0000      -0.977256       -26.5925
  26   2.0000      -0.913776       -24.8651
  27   2.0000      -0.912177       -24.8216
  28   2.0000      -0.861826       -23.4515
  29   2.0000      -0.853874       -23.2351
  30   2.0000      -0.844710       -22.9857
  31   2.0000      -0.810647       -22.0588
  32   2.0000      -0.786641       -21.4056
  33   2.0000      -0.771648       -20.9976
  34   2.0000      -0.709756       -19.3134
  35   2.0000      -0.702446       -19.1145
  36   2.0000      -0.682263       -18.5653
  37   2.0000      -0.663755       -18.0617
  38   2.0000      -0.640926       -17.4405
  39   2.0000      -0.613486       -16.6938
  40   2.0000      -0.593907       -16.1610
  41   2.0000      -0.575681       -15.6651
  42   2.0000      -0.566767       -15.4225
  43   2.0000      -0.559171       -15.2158
  44   2.0000      -0.547317       -14.8933
  45   2.0000      -0.523567       -14.2470
  46   2.0000      -0.521314       -14.1857
  47   2.0000      -0.509585       -13.8665
  48   2.0000      -0.503895       -13.7117
  49   2.0000      -0.497999       -13.5513
  50   2.0000      -0.486050       -13.2261
  51   2.0000      -0.482387       -13.1264
  52   2.0000      -0.480395       -13.0722
  53   2.0000      -0.472902       -12.8683
  54   2.0000      -0.452737       -12.3196
  55   2.0000      -0.448408       -12.2018
  56   2.0000      -0.437220       -11.8974
  57   2.0000      -0.435358       -11.8467
  58   2.0000      -0.428640       -11.6639
  59   2.0000      -0.427741       -11.6394
  60   2.0000      -0.423187       -11.5155
  61   2.0000      -0.418789       -11.3958
  62   2.0000      -0.410343       -11.1660
  63   2.0000      -0.354070        -9.6347
  64   2.0000      -0.332245        -9.0409
  65   2.0000      -0.325913        -8.8686
  66   2.0000      -0.279966        -7.6183
  67   0.0000       0.017057         0.4642
  68   0.0000       0.076402         2.0790
  69   0.0000       0.105677         2.8756
  70   0.0000       0.113634         3.0921
  71   0.0000       0.129156         3.5145

MULLIKEN ATOMIC CHARGES
-----------------------
   0 S :    0.105020
   1 C :   -0.121410
   2 C :   -0.102081
   3 C :    0.004382
   4 C :   -0.105919
   5 H :    0.019377
   6 C :    0.060909
   7 H :    0.049642
   8 H :    0.035532
   9 C :   -0.146817
  10 H :    0.030451
  11 H :    0.047299
  12 C :    0.015514
  13 H :    0.032463
  14 H :    0.021986
  15 H :    0.008850
  16 S :    0.094959
  17 C :   -0.094528
  18 C :   -0.003857
  19 C :   -0.083020
  20 C :   -0.128121
  21 H :   -0.007669
  22 C :    0.078511
  23 H :    0.011276
  24 H :    0.015284
  25 C :    0.001402
  26 H :    0.021502
  27 H :    0.017317
  28 C :   -0.082581
  29 H :    0.024612
  30 H :    0.025490
  31 H :    0.027898
  32 H :    0.054955
  33 H :    0.071369
Sum of atomic charges:   -0.0000000

LOEWDIN ATOMIC CHARGES
----------------------
   0 S :    0.411428
   1 C :   -0.200651
   2 C :   -0.049407
   3 C :   -0.064255
   4 C :   -0.198001
   5 H :    0.027872
   6 C :   -0.030679
   7 H :    0.039186
   8 H :    0.031470
   9 C :   -0.046406
  10 H :    0.016466
  11 H :    0.034867
  12 C :   -0.055494
  13 H :    0.033868
  14 H :    0.018829
  15 H :    0.013718
  16 S :    0.404503
  17 C :   -0.201942
  18 C :   -0.062029
  19 C :   -0.055973
  20 C :   -0.182946
  21 H :    0.017884
  22 C :   -0.028782
  23 H :    0.027653
  24 H :    0.024986
  25 C :   -0.031732
  26 H :    0.026742
  27 H :    0.020844
  28 C :   -0.074211
  29 H :    0.020591
  30 H :    0.022253
  31 H :    0.032187
  32 H :    0.022563
  33 H :    0.034599

  Mayer bond orders larger than 0.100000
B(  0-S ,  1-C ) :   1.1447 B(  0-S ,  4-C ) :   1.1603 B(  1-C ,  2-C ) :   1.5691
B(  1-C , 32-H ) :   0.9687 B(  2-C ,  3-C ) :   1.2810 B(  2-C ,  6-C ) :   1.0082
B(  3-C ,  4-C ) :   1.5358 B(  3-C ,  5-H ) :   0.9792 B(  4-C , 20-C ) :   1.0491
B(  6-C ,  7-H ) :   0.9484 B(  6-C ,  8-H ) :   0.9355 B(  6-C ,  9-C ) :   1.0767
B(  9-C , 10-H ) :   0.9623 B(  9-C , 11-H ) :   0.9459 B(  9-C , 12-C ) :   1.0871
B( 12-C , 13-H ) :   0.9727 B( 12-C , 14-H ) :   0.9739 B( 12-C , 15-H ) :   0.9729
B( 16-S , 17-C ) :   1.1793 B( 16-S , 20-C ) :   1.1381 B( 17-C , 18-C ) :   1.5573
B( 17-C , 20-C ) :   0.1006 B( 17-C , 33-H ) :   0.9634 B( 18-C , 19-C ) :   1.2923
B( 18-C , 21-H ) :   0.9976 B( 19-C , 20-C ) :   1.5518 B( 19-C , 22-C ) :   1.0432
B( 22-C , 23-H ) :   0.9269 B( 22-C , 24-H ) :   0.9342 B( 22-C , 25-C ) :   1.0864
B( 25-C , 26-H ) :   0.9475 B( 25-C , 27-H ) :   0.9578 B( 25-C , 28-C ) :   1.0845
B( 28-C , 29-H ) :   0.9729 B( 28-C , 30-H ) :   0.9715 B( 28-C , 31-H ) :   0.9713

Dispersion correction           -0.013496016
FINAL SINGLE POINT ENERGY     -1339.856932026932

DIPOLE MOMENT
-------------
                                X             Y             Z
Electronic contribution:    -11.02312      -1.81362     -20.96635
Nuclear contribution   :     11.35507       2.01921      21.57515
                        -----------------------------------------
Total Dipole Moment    :      0.33195       0.20559       0.60881
                        -----------------------------------------
Magnitude (a.u.)       :      0.72326
Magnitude (Debye)      :      1.83838

Rotational constants in cm-1:     0.022814     0.006864     0.005793
Rotational constants in MHz :   683.949569   205.784250   173.663489

                             ****ORCA TERMINATED NORMALLY****
TOTAL RUN TIME: 0 days 0 hours 0 minutes 20 seconds 985 msec
