                         Program Version 4.2.1 -  RELEASE  -
|  1> ! wB97X-D3 SP def2-SVP
|  2> %pal
|  3> nprocs 24
|  4> end
|  5>
|  6> * xyz 0 1
|  7> S 	 -68.2852 	 21.0039 	 -110.092
|  8> C 	 -66.9322 	 20.9983 	 -108.936
|  9> C 	 -65.9743 	 20.0472 	 -109.269
| 10> C 	 -66.4231 	 19.3422 	 -110.453
| 11> C 	 -67.4368 	 19.8752 	 -111.155
| 12> H 	 -65.9324 	 18.4975 	 -110.981
| 13> C 	 -64.7105 	 19.5965 	 -108.397
| 14> H 	 -64.0069 	 20.4845 	 -108.453
| 15> H 	 -64.2607 	 18.7615 	 -108.98
| 16> C 	 -65.1268 	 19.1734 	 -106.948
| 17> H 	 -65.1223 	 20.0998 	 -106.423
| 18> H 	 -66.2182 	 18.8492 	 -106.91
| 19> C 	 -64.1675 	 18.0935 	 -106.278
| 20> H 	 -64.1087 	 18.3572 	 -105.217
| 21> H 	 -64.6197 	 17.0785 	 -106.297
| 22> H 	 -63.1527 	 18.0686 	 -106.693
| 23> S 	 -67.869 	 20.9009 	 -113.738
| 24> C 	 -68.0998 	 19.8145 	 -115.068
| 25> C 	 -68.0419 	 18.4796 	 -114.698
| 26> C 	 -67.8084 	 18.3889 	 -113.293
| 27> C 	 -67.7458 	 19.6067 	 -112.589
| 28> H 	 -67.9295 	 17.714 	 -115.465
| 29> C 	 -67.6618 	 16.989 	 -112.739
| 30> H 	 -67.026 	 17.1295 	 -111.927
| 31> H 	 -67.1297 	 16.3751 	 -113.494
| 32> C 	 -68.9699 	 16.2456 	 -112.304
| 33> H 	 -69.524 	 16.0578 	 -113.251
| 34> H 	 -69.5785 	 16.9815 	 -111.698
| 35> C 	 -68.6712 	 14.9948 	 -111.462
| 36> H 	 -67.8886 	 15.2095 	 -110.672
| 37> H 	 -68.3976 	 14.1213 	 -112.039
| 38> H 	 -69.5796 	 14.7277 	 -110.95
| 39> H 	 -67.094 	 21.562 	 -108.016
| 40> H 	 -68.1602 	 20.0828 	 -116.118
| 41> *
| 42>
| 43>                          ****END OF INPUT****

CARTESIAN COORDINATES (ANGSTROEM)
---------------------------------
  S    -68.285200   21.003900  -110.092000
  C    -66.932200   20.998300  -108.936000
  C    -65.974300   20.047200  -109.269000
  C    -66.423100   19.342200  -110.453000
  C    -67.436800   19.875200  -111.155000
  H    -65.932400   18.497500  -110.981000
  C    -64.710500   19.596500  -108.397000
  H    -64.006900   20.484500  -108.453000
  H    -64.260700   18.761500  -108.980000
  C    -65.126800   19.173400  -106.948000
  H    -65.122300   20.099800  -106.423000
  H    -66.218200   18.849200  -106.910000
  C    -64.167500   18.093500  -106.278000
  H    -64.108700   18.357200  -105.217000
  H    -64.619700   17.078500  -106.297000
  H    -63.152700   18.068600  -106.693000
  S    -67.869000   20.900900  -113.738000
  C    -68.099800   19.814500  -115.068000
  C    -68.041900   18.479600  -114.698000
  C    -67.808400   18.388900  -113.293000
  C    -67.745800   19.606700  -112.589000
  H    -67.929500   17.714000  -115.465000
  C    -67.661800   16.989000  -112.739000
  H    -67.026000   17.129500  -111.927000
  H    -67.129700   16.375100  -113.494000
  C    -68.969900   16.245600  -112.304000
  H    -69.524000   16.057800  -113.251000
  H    -69.578500   16.981500  -111.698000
  C    -68.671200   14.994800  -111.462000
  H    -67.888600   15.209500  -110.672000
  H    -68.397600   14.121300  -112.039000
  H    -69.579600   14.727700  -110.950000
  H    -67.094000   21.562000  -108.016000
  H    -68.160200   20.082800  -116.118000

 Total Charge           Charge          ....    0
 Multiplicity           Mult            ....    1
 Number of Electrons    NEL             ....  134
 Basis Dimension        Dim             ....  322

ORBITAL ENERGIES
----------------

  NO   OCC          E(Eh)            E(eV)
   0   2.0000     -88.968440     -2420.9543
   1   2.0000     -88.961474     -2420.7648
   2   2.0000     -10.331054      -281.1223
   3   2.0000     -10.329817      -281.0886
   4   2.0000     -10.320004      -280.8216
   5   2.0000     -10.316087      -280.7150
   6   2.0000     -10.312301      -280.6120
   7   2.0000     -10.310080      -280.5515
   8   2.0000     -10.301819      -280.3267
   9   2.0000     -10.297545      -280.2104
  10   2.0000     -10.293898      -280.1112
  11   2.0000     -10.292389      -280.0701
  12   2.0000     -10.292314      -280.0681
  13   2.0000     -10.288640      -279.9681
  14   2.0000     -10.283712      -279.8340
  15   2.0000     -10.279913      -279.7306
  16   2.0000      -8.083345      -219.9590
  17   2.0000      -8.075889      -219.7561
  18   2.0000      -6.041871      -164.4077
  19   2.0000      -6.037664      -164.2932
  20   2.0000      -6.034510      -164.2074
  21   2.0000      -6.034242      -164.2001
  22   2.0000      -6.030520      -164.0988
  23   2.0000      -6.026472      -163.9886
  24   2.0000      -1.004800       -27.3420
  25   2.0000      -0.983412       -26.7600
  26   2.0000      -0.903293       -24.5799
  27   2.0000      -0.897200       -24.4141
  28   2.0000      -0.865332       -23.5469
  29   2.0000      -0.849654       -23.1202
  30   2.0000      -0.838673       -22.8215
  31   2.0000      -0.814734       -22.1700
  32   2.0000      -0.778985       -21.1973
  33   2.0000      -0.768132       -20.9019
  34   2.0000      -0.704495       -19.1703
  35   2.0000      -0.699016       -19.0212
  36   2.0000      -0.687847       -18.7173
  37   2.0000      -0.660451       -17.9718
  38   2.0000      -0.642864       -17.4932
  39   2.0000      -0.612470       -16.6661
  40   2.0000      -0.587333       -15.9821
  41   2.0000      -0.564172       -15.3519
  42   2.0000      -0.559858       -15.2345
  43   2.0000      -0.554022       -15.0757
  44   2.0000      -0.524634       -14.2760
  45   2.0000      -0.520406       -14.1610
  46   2.0000      -0.517018       -14.0688
  47   2.0000      -0.506228       -13.7752
  48   2.0000      -0.502691       -13.6789
  49   2.0000      -0.498078       -13.5534
  50   2.0000      -0.483159       -13.1474
  51   2.0000      -0.480864       -13.0850
  52   2.0000      -0.474973       -12.9247
  53   2.0000      -0.466365       -12.6904
  54   2.0000      -0.459558       -12.5052
  55   2.0000      -0.446064       -12.1380
  56   2.0000      -0.443194       -12.0599
  57   2.0000      -0.438807       -11.9405
  58   2.0000      -0.428452       -11.6588
  59   2.0000      -0.421723       -11.4757
  60   2.0000      -0.417895       -11.3715
  61   2.0000      -0.416165       -11.3244
  62   2.0000      -0.409250       -11.1362
  63   2.0000      -0.348963        -9.4958
  64   2.0000      -0.330374        -8.9899
  65   2.0000      -0.326661        -8.8889
  66   2.0000      -0.291426        -7.9301
  67   0.0000       0.031174         0.8483
  68   0.0000       0.068023         1.8510
  69   0.0000       0.110980         3.0199
  70   0.0000       0.115564         3.1447
  71   0.0000       0.136440         3.7127

MULLIKEN ATOMIC CHARGES
-----------------------
   0 S :    0.089675
   1 C :   -0.147446
   2 C :   -0.086480
   3 C :    0.012832
   4 C :   -0.166549
   5 H :    0.031526
   6 C :    0.041726
   7 H :    0.061404
   8 H :    0.034319
   9 C :   -0.095771
  10 H :    0.029488
  11 H :    0.057597
  12 C :   -0.071790
  13 H :    0.036853
  14 H :    0.048537
  15 H :    0.046050
  16 S :    0.123594
  17 C :   -0.095494
  18 C :   -0.033283
  19 C :   -0.087480
  20 C :   -0.127575
  21 H :    0.030717
  22 C :    0.100447
  23 H :   -0.033061
  24 H :    0.024043
  25 C :   -0.090273
  26 H :    0.034819
  27 H :    0.043134
  28 C :   -0.037912
  29 H :    0.041853
  30 H :    0.033610
  31 H :    0.031168
  32 H :    0.063498
  33 H :    0.056224
Sum of atomic charges:   -0.0000000

LOEWDIN ATOMIC CHARGES
----------------------
   0 S :    0.373007
   1 C :   -0.185401
   2 C :   -0.061449
   3 C :   -0.071190
   4 C :   -0.189899
   5 H :    0.032888
   6 C :   -0.031152
   7 H :    0.042217
   8 H :    0.029720
   9 C :   -0.047323
  10 H :    0.019246
  11 H :    0.036561
  12 C :   -0.072090
  13 H :    0.029399
  14 H :    0.032516
  15 H :    0.027936
  16 S :    0.431606
  17 C :   -0.189474
  18 C :   -0.076914
  19 C :   -0.055318
  20 C :   -0.211235
  21 H :    0.036754
  22 C :   -0.033032
  23 H :    0.009888
  24 H :    0.031600
  25 C :   -0.039942
  26 H :    0.026506
  27 H :    0.031676
  28 C :   -0.068671
  29 H :    0.033633
  30 H :    0.023803
  31 H :    0.026006
  32 H :    0.027528
  33 H :    0.030603

  Mayer bond orders larger than 0.100000
B(  0-S ,  1-C ) :   1.1340 B(  0-S ,  4-C ) :   1.1251 B(  1-C ,  2-C ) :   1.6104
B(  1-C , 32-H ) :   0.9726 B(  2-C ,  3-C ) :   1.2352 B(  2-C ,  6-C ) :   0.9969
B(  3-C ,  4-C ) :   1.6310 B(  3-C ,  5-H ) :   0.9681 B(  4-C , 20-C ) :   1.0276
B(  6-C ,  7-H ) :   0.9453 B(  6-C ,  8-H ) :   0.9539 B(  6-C ,  9-C ) :   1.0364
B(  9-C , 10-H ) :   0.9607 B(  9-C , 11-H ) :   0.9670 B(  9-C , 12-C ) :   1.0594
B( 12-C , 13-H ) :   0.9780 B( 12-C , 14-H ) :   0.9797 B( 12-C , 15-H ) :   0.9804
B( 16-S , 17-C ) :   1.1811 B( 16-S , 20-C ) :   1.1419 B( 17-C , 18-C ) :   1.5895
B( 17-C , 33-H ) :   0.9628 B( 18-C , 19-C ) :   1.2684 B( 18-C , 21-H ) :   0.9862
B( 19-C , 20-C ) :   1.5705 B( 19-C , 22-C ) :   1.0482 B( 22-C , 23-H ) :   0.9210
B( 22-C , 24-H ) :   0.9344 B( 22-C , 25-C ) :   1.0597 B( 25-C , 26-H ) :   0.9550
B( 25-C , 27-H ) :   0.9589 B( 25-C , 28-C ) :   1.0747 B( 28-C , 29-H ) :   0.9743
B( 28-C , 30-H ) :   0.9753 B( 28-C , 31-H ) :   0.9744

Dispersion correction           -0.013588761
FINAL SINGLE POINT ENERGY     -1339.861692305021

DIPOLE MOMENT
-------------
                                X             Y             Z
Electronic contribution:     -9.54385      23.44092     -16.00641
Nuclear contribution   :      9.97634     -24.02326      16.21229
                        -----------------------------------------
Total Dipole Moment    :      0.43250      -0.58235       0.20587
                        -----------------------------------------
Magnitude (a.u.)       :      0.75403
Magnitude (Debye)      :      1.91660

Rotational constants in cm-1:     0.017810     0.008037     0.006278
Rotational constants in MHz :   533.932201   240.954618   188.198418

                             ****ORCA TERMINATED NORMALLY****
TOTAL RUN TIME: 0 days 0 hours 0 minutes 20 seconds 868 msec
