                         Program Version 4.2.1 -  RELEASE  -
|  1> ! wB97X-D3 SP def2-SVP
|  2> %pal
|  3> nprocs 24
|  4> end
|  5>
|  6> * xyz 0 1
|  7> S 	 -100.934 	 -1.49047 	 -105.43
|  8> C 	 -99.5017 	 -0.374633 	 -105.397
|  9> C 	 -99.7985 	 0.876566 	 -104.948
| 10> C 	 -101.196 	 0.970937 	 -104.588
| 11> C 	 -101.94 	 -0.213888 	 -104.777
| 12> H 	 -101.707 	 1.83135 	 -104.317
| 13> C 	 -98.8033 	 2.06936 	 -104.873
| 14> H 	 -99.0922 	 2.73802 	 -105.74
| 15> H 	 -97.6783 	 1.75577 	 -105.116
| 16> C 	 -98.9541 	 2.8807 	 -103.55
| 17> H 	 -98.4879 	 3.8723 	 -103.749
| 18> H 	 -99.9942 	 3.16461 	 -103.319
| 19> C 	 -98.3609 	 2.25008 	 -102.223
| 20> H 	 -97.5315 	 1.5157 	 -102.417
| 21> H 	 -97.9459 	 3.05084 	 -101.573
| 22> H 	 -99.095 	 1.68256 	 -101.715
| 23> S 	 -104.181 	 -1.08525 	 -105.974
| 24> C 	 -105.688 	 -1.12928 	 -105.178
| 25> C 	 -105.564 	 -0.633491 	 -103.897
| 26> C 	 -104.227 	 -0.192167 	 -103.577
| 27> C 	 -103.344 	 -0.425065 	 -104.608
| 28> H 	 -106.382 	 -0.570722 	 -103.214
| 29> C 	 -103.779 	 0.250795 	 -102.138
| 30> H 	 -103.013 	 0.999862 	 -102.196
| 31> H 	 -103.287 	 -0.633722 	 -101.667
| 32> C 	 -104.881 	 0.705352 	 -101.137
| 33> H 	 -105.579 	 -0.0884255 	 -101.107
| 34> H 	 -105.459 	 1.50273 	 -101.691
| 35> C 	 -104.516 	 1.13587 	 -99.7067
| 36> H 	 -103.769 	 0.420457 	 -99.335
| 37> H 	 -105.343 	 1.10739 	 -99.0084
| 38> H 	 -103.958 	 2.13523 	 -99.6308
| 39> H 	 -98.515 	 -0.715124 	 -105.578
| 40> H 	 -106.686 	 -1.23614 	 -105.535
| 41> *
| 42>
| 43>                          ****END OF INPUT****

CARTESIAN COORDINATES (ANGSTROEM)
---------------------------------
  S    -100.934000   -1.490470  -105.430000
  C    -99.501700   -0.374633  -105.397000
  C    -99.798500    0.876566  -104.948000
  C    -101.196000    0.970937  -104.588000
  C    -101.940000   -0.213888  -104.777000
  H    -101.707000    1.831350  -104.317000
  C    -98.803300    2.069360  -104.873000
  H    -99.092200    2.738020  -105.740000
  H    -97.678300    1.755770  -105.116000
  C    -98.954100    2.880700  -103.550000
  H    -98.487900    3.872300  -103.749000
  H    -99.994200    3.164610  -103.319000
  C    -98.360900    2.250080  -102.223000
  H    -97.531500    1.515700  -102.417000
  H    -97.945900    3.050840  -101.573000
  H    -99.095000    1.682560  -101.715000
  S    -104.181000   -1.085250  -105.974000
  C    -105.688000   -1.129280  -105.178000
  C    -105.564000   -0.633491  -103.897000
  C    -104.227000   -0.192167  -103.577000
  C    -103.344000   -0.425065  -104.608000
  H    -106.382000   -0.570722  -103.214000
  C    -103.779000    0.250795  -102.138000
  H    -103.013000    0.999862  -102.196000
  H    -103.287000   -0.633722  -101.667000
  C    -104.881000    0.705352  -101.137000
  H    -105.579000   -0.088426  -101.107000
  H    -105.459000    1.502730  -101.691000
  C    -104.516000    1.135870  -99.706700
  H    -103.769000    0.420457  -99.335000
  H    -105.343000    1.107390  -99.008400
  H    -103.958000    2.135230  -99.630800
  H    -98.515000   -0.715124  -105.578000
  H    -106.686000   -1.236140  -105.535000

 Total Charge           Charge          ....    0
 Multiplicity           Mult            ....    1
 Number of Electrons    NEL             ....  134
 Basis Dimension        Dim             ....  322

ORBITAL ENERGIES
----------------

  NO   OCC          E(Eh)            E(eV)
   0   2.0000     -88.966429     -2420.8996
   1   2.0000     -88.966299     -2420.8961
   2   2.0000     -10.332685      -281.1667
   3   2.0000     -10.323332      -280.9121
   4   2.0000     -10.317037      -280.7408
   5   2.0000     -10.313094      -280.6335
   6   2.0000     -10.312432      -280.6155
   7   2.0000     -10.308003      -280.4950
   8   2.0000     -10.306417      -280.4519
   9   2.0000     -10.298470      -280.2356
  10   2.0000     -10.297316      -280.2042
  11   2.0000     -10.294424      -280.1255
  12   2.0000     -10.292627      -280.0766
  13   2.0000     -10.290199      -280.0105
  14   2.0000     -10.289058      -279.9795
  15   2.0000     -10.283414      -279.8259
  16   2.0000      -8.082063      -219.9241
  17   2.0000      -8.080234      -219.8743
  18   2.0000      -6.040645      -164.3743
  19   2.0000      -6.038857      -164.3257
  20   2.0000      -6.036227      -164.2541
  21   2.0000      -6.034948      -164.2193
  22   2.0000      -6.032847      -164.1621
  23   2.0000      -6.030850      -164.1078
  24   2.0000      -1.011199       -27.5161
  25   2.0000      -0.980083       -26.6694
  26   2.0000      -0.903018       -24.5724
  27   2.0000      -0.902211       -24.5504
  28   2.0000      -0.870747       -23.6942
  29   2.0000      -0.849777       -23.1236
  30   2.0000      -0.837549       -22.7909
  31   2.0000      -0.813776       -22.1440
  32   2.0000      -0.783252       -21.3134
  33   2.0000      -0.775917       -21.1138
  34   2.0000      -0.712406       -19.3856
  35   2.0000      -0.702336       -19.1115
  36   2.0000      -0.692555       -18.8454
  37   2.0000      -0.655231       -17.8297
  38   2.0000      -0.641194       -17.4478
  39   2.0000      -0.620711       -16.8904
  40   2.0000      -0.595665       -16.2089
  41   2.0000      -0.566238       -15.4081
  42   2.0000      -0.559954       -15.2371
  43   2.0000      -0.542236       -14.7550
  44   2.0000      -0.533554       -14.5187
  45   2.0000      -0.524045       -14.2600
  46   2.0000      -0.515985       -14.0407
  47   2.0000      -0.514596       -14.0029
  48   2.0000      -0.505030       -13.7426
  49   2.0000      -0.498620       -13.5681
  50   2.0000      -0.485959       -13.2236
  51   2.0000      -0.479844       -13.0572
  52   2.0000      -0.471508       -12.8304
  53   2.0000      -0.466241       -12.6871
  54   2.0000      -0.457981       -12.4623
  55   2.0000      -0.457317       -12.4442
  56   2.0000      -0.445941       -12.1347
  57   2.0000      -0.437061       -11.8930
  58   2.0000      -0.427623       -11.6362
  59   2.0000      -0.424075       -11.5397
  60   2.0000      -0.421430       -11.4677
  61   2.0000      -0.413706       -11.2575
  62   2.0000      -0.412536       -11.2257
  63   2.0000      -0.350209        -9.5297
  64   2.0000      -0.333556        -9.0765
  65   2.0000      -0.329312        -8.9610
  66   2.0000      -0.290794        -7.9129
  67   0.0000       0.029508         0.8029
  68   0.0000       0.067806         1.8451
  69   0.0000       0.110653         3.0110
  70   0.0000       0.120956         3.2914
  71   0.0000       0.130707         3.5567

MULLIKEN ATOMIC CHARGES
-----------------------
   0 S :    0.098915
   1 C :   -0.127200
   2 C :   -0.039440
   3 C :    0.048210
   4 C :   -0.162779
   5 H :   -0.011942
   6 C :    0.012013
   7 H :    0.057543
   8 H :    0.052655
   9 C :   -0.105247
  10 H :    0.032781
  11 H :    0.036478
  12 C :   -0.054540
  13 H :    0.034777
  14 H :    0.044847
  15 H :    0.035285
  16 S :    0.121528
  17 C :   -0.051246
  18 C :   -0.069751
  19 C :   -0.030274
  20 C :   -0.160645
  21 H :    0.010009
  22 C :    0.073284
  23 H :    0.014228
  24 H :    0.043742
  25 C :   -0.112173
  26 H :    0.021931
  27 H :    0.031435
  28 C :   -0.037153
  29 H :    0.024931
  30 H :    0.041888
  31 H :    0.044501
  32 H :    0.032072
  33 H :    0.049340
Sum of atomic charges:   -0.0000000

LOEWDIN ATOMIC CHARGES
----------------------
   0 S :    0.376655
   1 C :   -0.173400
   2 C :   -0.061763
   3 C :   -0.056547
   4 C :   -0.186454
   5 H :    0.016197
   6 C :   -0.038220
   7 H :    0.043206
   8 H :    0.043918
   9 C :   -0.050783
  10 H :    0.027033
  11 H :    0.026007
  12 C :   -0.068920
  13 H :    0.029907
  14 H :    0.032776
  15 H :    0.020203
  16 S :    0.438978
  17 C :   -0.202164
  18 C :   -0.070854
  19 C :   -0.053939
  20 C :   -0.209751
  21 H :    0.024221
  22 C :   -0.028263
  23 H :    0.021183
  24 H :    0.038010
  25 C :   -0.051146
  26 H :    0.015193
  27 H :    0.026594
  28 C :   -0.069181
  29 H :    0.026698
  30 H :    0.028810
  31 H :    0.034728
  32 H :    0.018521
  33 H :    0.032546

  Mayer bond orders larger than 0.100000
B(  0-S ,  1-C ) :   1.1095 B(  0-S ,  4-C ) :   1.1454 B(  1-C ,  2-C ) :   1.6530
B(  1-C , 32-H ) :   0.9714 B(  2-C ,  3-C ) :   1.2082 B(  2-C ,  6-C ) :   1.0017
B(  3-C ,  4-C ) :   1.5894 B(  3-C ,  5-H ) :   0.9962 B(  4-C , 20-C ) :   1.0500
B(  6-C ,  7-H ) :   0.9390 B(  6-C ,  8-H ) :   0.9501 B(  6-C ,  9-C ) :   1.0672
B(  9-C , 10-H ) :   0.9611 B(  9-C , 11-H ) :   0.9572 B(  9-C , 12-C ) :   1.0500
B( 12-C , 13-H ) :   0.9804 B( 12-C , 14-H ) :   0.9784 B( 12-C , 15-H ) :   0.9794
B( 16-S , 17-C ) :   1.1606 B( 16-S , 20-C ) :   1.1537 B( 17-C , 18-C ) :   1.5966
B( 17-C , 33-H ) :   0.9646 B( 18-C , 19-C ) :   1.2599 B( 18-C , 21-H ) :   0.9882
B( 19-C , 20-C ) :   1.5915 B( 19-C , 22-C ) :   1.0277 B( 22-C , 23-H ) :   0.9389
B( 22-C , 24-H ) :   0.9331 B( 22-C , 25-C ) :   1.0659 B( 25-C , 26-H ) :   0.9475
B( 25-C , 27-H ) :   0.9600 B( 25-C , 28-C ) :   1.0788 B( 28-C , 29-H ) :   0.9716
B( 28-C , 30-H ) :   0.9745 B( 28-C , 31-H ) :   0.9740

Dispersion correction           -0.013710499
FINAL SINGLE POINT ENERGY     -1339.873018517364

DIPOLE MOMENT
-------------
                                X             Y             Z
Electronic contribution:     -6.61943     -18.12316     -24.43425
Nuclear contribution   :      6.65188      18.64168      24.91279
                        -----------------------------------------
Total Dipole Moment    :      0.03245       0.51852       0.47854
                        -----------------------------------------
Magnitude (a.u.)       :      0.70634
Magnitude (Debye)      :      1.79537

Rotational constants in cm-1:     0.015637     0.009517     0.006421
Rotational constants in MHz :   468.782960   285.313083   192.492097

                             ****ORCA TERMINATED NORMALLY****
TOTAL RUN TIME: 0 days 0 hours 0 minutes 21 seconds 174 msec
