                         Program Version 4.2.1 -  RELEASE  -
|  1> ! wB97X-D3 SP def2-SVP
|  2> %pal
|  3> nprocs 24
|  4> end
|  5>
|  6> * xyz 0 1
|  7> S 	 -37.6775 	 -10.045 	 19.3178
|  8> C 	 -37.3903 	 -11.632 	 19.95
|  9> C 	 -37.5895 	 -12.5727 	 18.9886
| 10> C 	 -37.7939 	 -12.0565 	 17.7006
| 11> C 	 -37.9581 	 -10.6573 	 17.6915
| 12> H 	 -37.9146 	 -12.5499 	 16.7757
| 13> C 	 -37.5511 	 -14.0798 	 19.3192
| 14> H 	 -38.5664 	 -14.5224 	 19.5487
| 15> H 	 -37.1221 	 -14.2941 	 20.2703
| 16> C 	 -36.9233 	 -14.939 	 18.1654
| 17> H 	 -37.0694 	 -15.9725 	 18.4889
| 18> H 	 -37.4443 	 -14.7838 	 17.2144
| 19> C 	 -35.4543 	 -14.6553 	 17.9868
| 20> H 	 -34.967 	 -14.6982 	 19.0357
| 21> H 	 -34.9354 	 -15.4158 	 17.4535
| 22> H 	 -35.3874 	 -13.6805 	 17.5919
| 23> S 	 -39.3093 	 -8.41021 	 16.7388
| 24> C 	 -39.3288 	 -8.18664 	 15.0276
| 25> C 	 -38.3546 	 -8.94816 	 14.3911
| 26> C 	 -37.7438 	 -9.8925 	 15.2507
| 27> C 	 -38.2114 	 -9.8321 	 16.5441
| 28> H 	 -38.1919 	 -8.83472 	 13.3337
| 29> C 	 -36.5454 	 -10.723 	 14.7642
| 30> H 	 -36.7225 	 -10.9025 	 13.7028
| 31> H 	 -36.4908 	 -11.681 	 15.2766
| 32> C 	 -35.2407 	 -9.99065 	 14.7917
| 33> H 	 -35.2251 	 -9.13235 	 14.1115
| 34> H 	 -34.5172 	 -10.6668 	 14.4966
| 35> C 	 -34.8438 	 -9.65724 	 16.2593
| 36> H 	 -34.6741 	 -10.5985 	 16.8593
| 37> H 	 -35.5376 	 -9.03586 	 16.8513
| 38> H 	 -33.9035 	 -9.05362 	 16.3253
| 39> H 	 -37.2556 	 -11.9225 	 20.9901
| 40> H 	 -39.7736 	 -7.32881 	 14.582
| 41> *
| 42>
| 43>                          ****END OF INPUT****

CARTESIAN COORDINATES (ANGSTROEM)
---------------------------------
  S    -37.677500  -10.045000   19.317800
  C    -37.390300  -11.632000   19.950000
  C    -37.589500  -12.572700   18.988600
  C    -37.793900  -12.056500   17.700600
  C    -37.958100  -10.657300   17.691500
  H    -37.914600  -12.549900   16.775700
  C    -37.551100  -14.079800   19.319200
  H    -38.566400  -14.522400   19.548700
  H    -37.122100  -14.294100   20.270300
  C    -36.923300  -14.939000   18.165400
  H    -37.069400  -15.972500   18.488900
  H    -37.444300  -14.783800   17.214400
  C    -35.454300  -14.655300   17.986800
  H    -34.967000  -14.698200   19.035700
  H    -34.935400  -15.415800   17.453500
  H    -35.387400  -13.680500   17.591900
  S    -39.309300   -8.410210   16.738800
  C    -39.328800   -8.186640   15.027600
  C    -38.354600   -8.948160   14.391100
  C    -37.743800   -9.892500   15.250700
  C    -38.211400   -9.832100   16.544100
  H    -38.191900   -8.834720   13.333700
  C    -36.545400  -10.723000   14.764200
  H    -36.722500  -10.902500   13.702800
  H    -36.490800  -11.681000   15.276600
  C    -35.240700   -9.990650   14.791700
  H    -35.225100   -9.132350   14.111500
  H    -34.517200  -10.666800   14.496600
  C    -34.843800   -9.657240   16.259300
  H    -34.674100  -10.598500   16.859300
  H    -35.537600   -9.035860   16.851300
  H    -33.903500   -9.053620   16.325300
  H    -37.255600  -11.922500   20.990100
  H    -39.773600   -7.328810   14.582000

 Total Charge           Charge          ....    0
 Multiplicity           Mult            ....    1
 Number of Electrons    NEL             ....  134
 Basis Dimension        Dim             ....  322

ORBITAL ENERGIES
----------------

  NO   OCC          E(Eh)            E(eV)
   0   2.0000     -88.968293     -2420.9503
   1   2.0000     -88.965610     -2420.8773
   2   2.0000     -10.332211      -281.1538
   3   2.0000     -10.329171      -281.0710
   4   2.0000     -10.316382      -280.7230
   5   2.0000     -10.309924      -280.5473
   6   2.0000     -10.303801      -280.3807
   7   2.0000     -10.298997      -280.2500
   8   2.0000     -10.295779      -280.1624
   9   2.0000     -10.294665      -280.1321
  10   2.0000     -10.292194      -280.0648
  11   2.0000     -10.291234      -280.0387
  12   2.0000     -10.286921      -279.9214
  13   2.0000     -10.281439      -279.7722
  14   2.0000     -10.276769      -279.6451
  15   2.0000     -10.273770      -279.5635
  16   2.0000      -8.082807      -219.9444
  17   2.0000      -8.080248      -219.8747
  18   2.0000      -6.041335      -164.3931
  19   2.0000      -6.038690      -164.3211
  20   2.0000      -6.037273      -164.2826
  21   2.0000      -6.034922      -164.2186
  22   2.0000      -6.033639      -164.1837
  23   2.0000      -6.030932      -164.1100
  24   2.0000      -1.008431       -27.4408
  25   2.0000      -0.987122       -26.8610
  26   2.0000      -0.914190       -24.8764
  27   2.0000      -0.909710       -24.7545
  28   2.0000      -0.873345       -23.7649
  29   2.0000      -0.850242       -23.1363
  30   2.0000      -0.842705       -22.9312
  31   2.0000      -0.813421       -22.1343
  32   2.0000      -0.782739       -21.2994
  33   2.0000      -0.773482       -21.0475
  34   2.0000      -0.712856       -19.3978
  35   2.0000      -0.696543       -18.9539
  36   2.0000      -0.689437       -18.7605
  37   2.0000      -0.662628       -18.0310
  38   2.0000      -0.643458       -17.5094
  39   2.0000      -0.626722       -17.0540
  40   2.0000      -0.599784       -16.3209
  41   2.0000      -0.570027       -15.5112
  42   2.0000      -0.554444       -15.0872
  43   2.0000      -0.546996       -14.8845
  44   2.0000      -0.546683       -14.8760
  45   2.0000      -0.539099       -14.6696
  46   2.0000      -0.518418       -14.1069
  47   2.0000      -0.508811       -13.8455
  48   2.0000      -0.504439       -13.7265
  49   2.0000      -0.500251       -13.6125
  50   2.0000      -0.491732       -13.3807
  51   2.0000      -0.476779       -12.9738
  52   2.0000      -0.468484       -12.7481
  53   2.0000      -0.465301       -12.6615
  54   2.0000      -0.460811       -12.5393
  55   2.0000      -0.448350       -12.2002
  56   2.0000      -0.440836       -11.9957
  57   2.0000      -0.434163       -11.8142
  58   2.0000      -0.429354       -11.6833
  59   2.0000      -0.425872       -11.5886
  60   2.0000      -0.421450       -11.4682
  61   2.0000      -0.414837       -11.2883
  62   2.0000      -0.411451       -11.1961
  63   2.0000      -0.354748        -9.6532
  64   2.0000      -0.334127        -9.0921
  65   2.0000      -0.331971        -9.0334
  66   2.0000      -0.284516        -7.7421
  67   0.0000       0.019637         0.5343
  68   0.0000       0.069211         1.8833
  69   0.0000       0.110250         3.0000
  70   0.0000       0.117304         3.1920
  71   0.0000       0.133005         3.6192

MULLIKEN ATOMIC CHARGES
-----------------------
   0 S :    0.112648
   1 C :   -0.117089
   2 C :   -0.061485
   3 C :    0.011115
   4 C :   -0.132985
   5 H :    0.002111
   6 C :    0.062560
   7 H :    0.041490
   8 H :    0.000331
   9 C :   -0.103455
  10 H :    0.025134
  11 H :    0.037624
  12 C :   -0.026046
  13 H :    0.026844
  14 H :    0.032602
  15 H :    0.032729
  16 S :    0.098380
  17 C :   -0.069850
  18 C :   -0.049000
  19 C :   -0.042410
  20 C :   -0.163065
  21 H :    0.017598
  22 C :    0.077770
  23 H :    0.015495
  24 H :    0.014074
  25 C :   -0.000359
  26 H :    0.030263
  27 H :    0.016511
  28 C :   -0.106786
  29 H :    0.040754
  30 H :    0.043614
  31 H :    0.032098
  32 H :    0.047844
  33 H :    0.052939
Sum of atomic charges:    0.0000000

LOEWDIN ATOMIC CHARGES
----------------------
   0 S :    0.410803
   1 C :   -0.206067
   2 C :   -0.066299
   3 C :   -0.064018
   4 C :   -0.182140
   5 H :    0.023380
   6 C :   -0.030201
   7 H :    0.038799
   8 H :    0.020679
   9 C :   -0.043005
  10 H :    0.023509
  11 H :    0.022267
  12 C :   -0.062294
  13 H :    0.033931
  14 H :    0.021075
  15 H :    0.018013
  16 S :    0.390060
  17 C :   -0.181625
  18 C :   -0.068755
  19 C :   -0.053342
  20 C :   -0.182597
  21 H :    0.030540
  22 C :   -0.025980
  23 H :    0.030184
  24 H :    0.026435
  25 C :   -0.030526
  26 H :    0.025812
  27 H :    0.019887
  28 C :   -0.076727
  29 H :    0.031150
  30 H :    0.023460
  31 H :    0.026572
  32 H :    0.033424
  33 H :    0.023599

  Mayer bond orders larger than 0.100000
B(  0-S ,  1-C ) :   1.1330 B(  0-S ,  4-C ) :   1.1565 B(  1-C ,  2-C ) :   1.6143
B(  1-C ,  4-C ) :   0.1024 B(  1-C , 32-H ) :   0.9653 B(  2-C ,  3-C ) :   1.2489
B(  2-C ,  6-C ) :   1.0115 B(  3-C ,  4-C ) :   1.5471 B(  3-C ,  5-H ) :   1.0001
B(  4-C , 20-C ) :   1.0861 B(  6-C ,  7-H ) :   0.9379 B(  6-C ,  8-H ) :   0.9417
B(  6-C ,  9-C ) :   1.0759 B(  9-C , 10-H ) :   0.9538 B(  9-C , 11-H ) :   0.9519
B(  9-C , 12-C ) :   1.0800 B( 12-C , 13-H ) :   0.9718 B( 12-C , 14-H ) :   0.9743
B( 12-C , 15-H ) :   0.9735 B( 16-S , 17-C ) :   1.1649 B( 16-S , 20-C ) :   1.1163
B( 17-C , 18-C ) :   1.5994 B( 17-C , 20-C ) :   0.1043 B( 17-C , 33-H ) :   0.9667
B( 18-C , 19-C ) :   1.2422 B( 18-C , 21-H ) :   0.9918 B( 19-C , 20-C ) :   1.5934
B( 19-C , 22-C ) :   1.0413 B( 22-C , 23-H ) :   0.9242 B( 22-C , 24-H ) :   0.9318
B( 22-C , 25-C ) :   1.0976 B( 25-C , 26-H ) :   0.9522 B( 25-C , 27-H ) :   0.9473
B( 25-C , 28-C ) :   1.0683 B( 28-C , 29-H ) :   0.9738 B( 28-C , 30-H ) :   0.9754
B( 28-C , 31-H ) :   0.9739

Dispersion correction           -0.016146015
FINAL SINGLE POINT ENERGY     -1339.880645866777

DIPOLE MOMENT
-------------
                                X             Y             Z
Electronic contribution:    -17.56138      19.07791       5.89277
Nuclear contribution   :     17.85283     -19.51601      -6.23800
                        -----------------------------------------
Total Dipole Moment    :      0.29145      -0.43810      -0.34523
                        -----------------------------------------
Magnitude (a.u.)       :      0.62934
Magnitude (Debye)      :      1.59965

Rotational constants in cm-1:     0.020380     0.009713     0.007973
Rotational constants in MHz :   610.983895   291.192451   239.038685

                             ****ORCA TERMINATED NORMALLY****
TOTAL RUN TIME: 0 days 0 hours 0 minutes 23 seconds 586 msec
