                         Program Version 4.2.1 -  RELEASE  -
|  1> ! wB97X-D3 SP def2-SVP
|  2> %pal
|  3> nprocs 24
|  4> end
|  5>
|  6> * xyz 0 1
|  7> S 	 -68.0962 	 10.0597 	 -75.182
|  8> C 	 -67.9306 	 10.1658 	 -73.4577
|  9> C 	 -69.1556 	 10.5008 	 -72.9063
| 10> C 	 -70.039 	 11.1188 	 -73.8449
| 11> C 	 -69.5669 	 11.1137 	 -75.1411
| 12> H 	 -70.8605 	 11.7389 	 -73.5542
| 13> C 	 -69.5016 	 10.4195 	 -71.4955
| 14> H 	 -69.934 	 11.4142 	 -71.2496
| 15> H 	 -68.6357 	 10.2795 	 -70.9282
| 16> C 	 -70.527 	 9.34997 	 -71.1411
| 17> H 	 -70.9589 	 9.49725 	 -70.1154
| 18> H 	 -71.3591 	 9.3271 	 -71.7659
| 19> C 	 -69.8572 	 7.97466 	 -71.126
| 20> H 	 -69.0443 	 7.74551 	 -70.3696
| 21> H 	 -70.6166 	 7.18097 	 -70.9562
| 22> H 	 -69.3996 	 7.82605 	 -72.0431
| 23> S 	 -69.1481 	 13.2124 	 -77.0301
| 24> C 	 -70.279 	 13.4862 	 -78.3046
| 25> C 	 -71.1191 	 12.3986 	 -78.3477
| 26> C 	 -71.1484 	 11.614 	 -77.1604
| 27> C 	 -70.0649 	 11.8751 	 -76.3365
| 28> H 	 -71.8738 	 12.3439 	 -79.1631
| 29> C 	 -72.0975 	 10.4721 	 -76.9954
| 30> H 	 -72.987 	 10.5741 	 -77.6333
| 31> H 	 -72.5898 	 10.6555 	 -76.002
| 32> C 	 -71.5483 	 9.16243 	 -77.3944
| 33> H 	 -70.5395 	 8.97072 	 -76.9107
| 34> H 	 -71.371 	 9.25718 	 -78.4671
| 35> C 	 -72.4538 	 7.93403 	 -77.1169
| 36> H 	 -73.5223 	 8.22055 	 -77.3534
| 37> H 	 -72.5384 	 7.54135 	 -76.061
| 38> H 	 -72.1396 	 7.10014 	 -77.7806
| 39> H 	 -67.1055 	 9.77721 	 -72.8676
| 40> H 	 -70.2817 	 14.295 	 -79.012
| 41> *
| 42>
| 43>                          ****END OF INPUT****

CARTESIAN COORDINATES (ANGSTROEM)
---------------------------------
  S    -68.096200   10.059700  -75.182000
  C    -67.930600   10.165800  -73.457700
  C    -69.155600   10.500800  -72.906300
  C    -70.039000   11.118800  -73.844900
  C    -69.566900   11.113700  -75.141100
  H    -70.860500   11.738900  -73.554200
  C    -69.501600   10.419500  -71.495500
  H    -69.934000   11.414200  -71.249600
  H    -68.635700   10.279500  -70.928200
  C    -70.527000    9.349970  -71.141100
  H    -70.958900    9.497250  -70.115400
  H    -71.359100    9.327100  -71.765900
  C    -69.857200    7.974660  -71.126000
  H    -69.044300    7.745510  -70.369600
  H    -70.616600    7.180970  -70.956200
  H    -69.399600    7.826050  -72.043100
  S    -69.148100   13.212400  -77.030100
  C    -70.279000   13.486200  -78.304600
  C    -71.119100   12.398600  -78.347700
  C    -71.148400   11.614000  -77.160400
  C    -70.064900   11.875100  -76.336500
  H    -71.873800   12.343900  -79.163100
  C    -72.097500   10.472100  -76.995400
  H    -72.987000   10.574100  -77.633300
  H    -72.589800   10.655500  -76.002000
  C    -71.548300    9.162430  -77.394400
  H    -70.539500    8.970720  -76.910700
  H    -71.371000    9.257180  -78.467100
  C    -72.453800    7.934030  -77.116900
  H    -73.522300    8.220550  -77.353400
  H    -72.538400    7.541350  -76.061000
  H    -72.139600    7.100140  -77.780600
  H    -67.105500    9.777210  -72.867600
  H    -70.281700   14.295000  -79.012000

 Total Charge           Charge          ....    0
 Multiplicity           Mult            ....    1
 Number of Electrons    NEL             ....  134
 Basis Dimension        Dim             ....  322

ORBITAL ENERGIES
----------------

  NO   OCC          E(Eh)            E(eV)
   0   2.0000     -88.964505     -2420.8473
   1   2.0000     -88.963037     -2420.8073
   2   2.0000     -10.337533      -281.2986
   3   2.0000     -10.330148      -281.0976
   4   2.0000     -10.318331      -280.7761
   5   2.0000     -10.314568      -280.6737
   6   2.0000     -10.302261      -280.3388
   7   2.0000     -10.297112      -280.1987
   8   2.0000     -10.294857      -280.1373
   9   2.0000     -10.294376      -280.1242
  10   2.0000     -10.288363      -279.9606
  11   2.0000     -10.286997      -279.9234
  12   2.0000     -10.286895      -279.9206
  13   2.0000     -10.285238      -279.8756
  14   2.0000     -10.284052      -279.8433
  15   2.0000     -10.274182      -279.5747
  16   2.0000      -8.079439      -219.8527
  17   2.0000      -8.077112      -219.7894
  18   2.0000      -6.037917      -164.3001
  19   2.0000      -6.035749      -164.2411
  20   2.0000      -6.033804      -164.1882
  21   2.0000      -6.031931      -164.1372
  22   2.0000      -6.030289      -164.0925
  23   2.0000      -6.027528      -164.0174
  24   2.0000      -1.005883       -27.3715
  25   2.0000      -0.989031       -26.9129
  26   2.0000      -0.918446       -24.9922
  27   2.0000      -0.914907       -24.8959
  28   2.0000      -0.865712       -23.5572
  29   2.0000      -0.848356       -23.0850
  30   2.0000      -0.844900       -22.9909
  31   2.0000      -0.817330       -22.2407
  32   2.0000      -0.779396       -21.2084
  33   2.0000      -0.770228       -20.9590
  34   2.0000      -0.710719       -19.3396
  35   2.0000      -0.697122       -18.9696
  36   2.0000      -0.691450       -18.8153
  37   2.0000      -0.659274       -17.9398
  38   2.0000      -0.641927       -17.4677
  39   2.0000      -0.624702       -16.9990
  40   2.0000      -0.597827       -16.2677
  41   2.0000      -0.572085       -15.5672
  42   2.0000      -0.560274       -15.2458
  43   2.0000      -0.555617       -15.1191
  44   2.0000      -0.538085       -14.6420
  45   2.0000      -0.528819       -14.3899
  46   2.0000      -0.519986       -14.1495
  47   2.0000      -0.511974       -13.9315
  48   2.0000      -0.505562       -13.7570
  49   2.0000      -0.501910       -13.6577
  50   2.0000      -0.487513       -13.2659
  51   2.0000      -0.479504       -13.0480
  52   2.0000      -0.474013       -12.8985
  53   2.0000      -0.462127       -12.5751
  54   2.0000      -0.457474       -12.4485
  55   2.0000      -0.445123       -12.1124
  56   2.0000      -0.442791       -12.0490
  57   2.0000      -0.439498       -11.9594
  58   2.0000      -0.430504       -11.7146
  59   2.0000      -0.424983       -11.5644
  60   2.0000      -0.417510       -11.3610
  61   2.0000      -0.412790       -11.2326
  62   2.0000      -0.401831       -10.9344
  63   2.0000      -0.339345        -9.2340
  64   2.0000      -0.329468        -8.9653
  65   2.0000      -0.318452        -8.6655
  66   2.0000      -0.303617        -8.2618
  67   0.0000       0.030228         0.8226
  68   0.0000       0.053548         1.4571
  69   0.0000       0.102604         2.7920
  70   0.0000       0.123162         3.3514
  71   0.0000       0.130552         3.5525

MULLIKEN ATOMIC CHARGES
-----------------------
   0 S :    0.100568
   1 C :   -0.112556
   2 C :   -0.117526
   3 C :    0.067544
   4 C :   -0.168458
   5 H :    0.012621
   6 C :    0.091545
   7 H :    0.028201
   8 H :   -0.000522
   9 C :   -0.029538
  10 H :    0.032330
  11 H :    0.014761
  12 C :   -0.072694
  13 H :    0.033170
  14 H :    0.034095
  15 H :    0.017822
  16 S :    0.116396
  17 C :   -0.090011
  18 C :   -0.041477
  19 C :   -0.056868
  20 C :   -0.161594
  21 H :    0.029327
  22 C :    0.078515
  23 H :    0.003714
  24 H :    0.030918
  25 C :   -0.063577
  26 H :    0.037865
  27 H :    0.026324
  28 C :   -0.069321
  29 H :    0.023323
  30 H :    0.048765
  31 H :    0.044777
  32 H :    0.052460
  33 H :    0.059102
Sum of atomic charges:    0.0000000

LOEWDIN ATOMIC CHARGES
----------------------
   0 S :    0.376755
   1 C :   -0.195261
   2 C :   -0.066999
   3 C :   -0.052442
   4 C :   -0.167994
   5 H :    0.030795
   6 C :   -0.030019
   7 H :    0.035713
   8 H :    0.022357
   9 C :   -0.031180
  10 H :    0.029898
  11 H :    0.015888
  12 C :   -0.068516
  13 H :    0.029597
  14 H :    0.028567
  15 H :    0.011917
  16 S :    0.418004
  17 C :   -0.185285
  18 C :   -0.079864
  19 C :   -0.053857
  20 C :   -0.204411
  21 H :    0.033375
  22 C :   -0.046453
  23 H :    0.028526
  24 H :    0.037043
  25 C :   -0.044929
  26 H :    0.025756
  27 H :    0.028817
  28 C :   -0.075518
  29 H :    0.024490
  30 H :    0.032137
  31 H :    0.030789
  32 H :    0.030266
  33 H :    0.032040

  Mayer bond orders larger than 0.100000
B(  0-S ,  1-C ) :   1.1276 B(  0-S ,  4-C ) :   1.1256 B(  1-C ,  2-C ) :   1.6127
B(  1-C , 32-H ) :   0.9676 B(  2-C ,  3-C ) :   1.2030 B(  2-C ,  6-C ) :   1.0560
B(  3-C ,  4-C ) :   1.6175 B(  3-C ,  5-H ) :   0.9912 B(  4-C , 20-C ) :   1.0287
B(  6-C ,  7-H ) :   0.9332 B(  6-C ,  8-H ) :   0.9355 B(  6-C ,  9-C ) :   1.0676
B(  9-C , 10-H ) :   0.9550 B(  9-C , 11-H ) :   0.9557 B(  9-C , 12-C ) :   1.0693
B( 12-C , 13-H ) :   0.9755 B( 12-C , 14-H ) :   0.9727 B( 12-C , 15-H ) :   0.9785
B( 16-S , 17-C ) :   1.1754 B( 16-S , 20-C ) :   1.1452 B( 17-C , 18-C ) :   1.5815
B( 17-C , 20-C ) :   0.1007 B( 17-C , 33-H ) :   0.9717 B( 18-C , 19-C ) :   1.2759
B( 18-C , 21-H ) :   0.9767 B( 19-C , 20-C ) :   1.5687 B( 19-C , 22-C ) :   1.0586
B( 22-C , 23-H ) :   0.9200 B( 22-C , 24-H ) :   0.9256 B( 22-C , 25-C ) :   1.0600
B( 25-C , 26-H ) :   0.9547 B( 25-C , 27-H ) :   0.9477 B( 25-C , 28-C ) :   1.0737
B( 28-C , 29-H ) :   0.9716 B( 28-C , 30-H ) :   0.9762 B( 28-C , 31-H ) :   0.9752

Dispersion correction           -0.014725693
FINAL SINGLE POINT ENERGY     -1339.859182066971

DIPOLE MOMENT
-------------
                                X             Y             Z
Electronic contribution:     14.96878      18.62813     -12.02903
Nuclear contribution   :    -15.46367     -18.71233      12.21119
                        -----------------------------------------
Total Dipole Moment    :     -0.49489      -0.08420       0.18216
                        -----------------------------------------
Magnitude (a.u.)       :      0.53403
Magnitude (Debye)      :      1.35740

Rotational constants in cm-1:     0.019746     0.008784     0.007110
Rotational constants in MHz :   591.958014   263.350029   213.159741

                             ****ORCA TERMINATED NORMALLY****
TOTAL RUN TIME: 0 days 0 hours 0 minutes 21 seconds 969 msec
