                         Program Version 4.2.1 -  RELEASE  -
|  1> ! wB97X-D3 SP def2-SVP
|  2> %pal
|  3> nprocs 24
|  4> end
|  5>
|  6> * xyz 0 1
|  7> S 	 -40.7173 	 6.25541 	 -6.18196
|  8> C 	 -40.4045 	 4.51932 	 -6.37289
|  9> C 	 -40.1632 	 3.97716 	 -5.16481
| 10> C 	 -40.2097 	 4.9422 	 -4.0653
| 11> C 	 -40.2614 	 6.23541 	 -4.50204
| 12> H 	 -40.0135 	 4.6235 	 -3.03468
| 13> C 	 -39.9853 	 2.50009 	 -4.8168
| 14> H 	 -40.9241 	 1.93249 	 -4.91665
| 15> H 	 -39.7922 	 2.52718 	 -3.75681
| 16> C 	 -38.7416 	 1.72707 	 -5.38048
| 17> H 	 -38.8266 	 1.66393 	 -6.49584
| 18> H 	 -37.7803 	 2.22665 	 -5.13011
| 19> C 	 -38.7779 	 0.257599 	 -4.95337
| 20> H 	 -38.8722 	 0.185499 	 -3.83345
| 21> H 	 -39.5147 	 -0.353957 	 -5.36339
| 22> H 	 -37.9151 	 -0.336539 	 -5.26709
| 23> S 	 -41.705 	 8.52085 	 -4.27547
| 24> C 	 -41.3006 	 9.71583 	 -3.07984
| 25> C 	 -40.3183 	 9.25505 	 -2.19643
| 26> C 	 -39.7217 	 7.97929 	 -2.62731
| 27> C 	 -40.4002 	 7.45703 	 -3.75192
| 28> H 	 -39.9402 	 9.84659 	 -1.41461
| 29> C 	 -38.4334 	 7.44804 	 -1.9877
| 30> H 	 -38.2995 	 6.3698 	 -2.06608
| 31> H 	 -38.5632 	 7.67659 	 -0.898528
| 32> C 	 -37.1132 	 8.14647 	 -2.31076
| 33> H 	 -36.2935 	 7.61364 	 -1.77346
| 34> H 	 -36.9699 	 9.16988 	 -1.90469
| 35> C 	 -36.8284 	 7.95718 	 -3.79595
| 36> H 	 -36.4072 	 6.89965 	 -3.82917
| 37> H 	 -36.0934 	 8.71694 	 -4.11564
| 38> H 	 -37.6394 	 7.91095 	 -4.42862
| 39> H 	 -40.5172 	 4.05485 	 -7.34439
| 40> H 	 -41.7757 	 10.5918 	 -2.85361
| 41> *
| 42>
| 43>                          ****END OF INPUT****

CARTESIAN COORDINATES (ANGSTROEM)
---------------------------------
  S    -40.717300    6.255410   -6.181960
  C    -40.404500    4.519320   -6.372890
  C    -40.163200    3.977160   -5.164810
  C    -40.209700    4.942200   -4.065300
  C    -40.261400    6.235410   -4.502040
  H    -40.013500    4.623500   -3.034680
  C    -39.985300    2.500090   -4.816800
  H    -40.924100    1.932490   -4.916650
  H    -39.792200    2.527180   -3.756810
  C    -38.741600    1.727070   -5.380480
  H    -38.826600    1.663930   -6.495840
  H    -37.780300    2.226650   -5.130110
  C    -38.777900    0.257599   -4.953370
  H    -38.872200    0.185499   -3.833450
  H    -39.514700   -0.353957   -5.363390
  H    -37.915100   -0.336539   -5.267090
  S    -41.705000    8.520850   -4.275470
  C    -41.300600    9.715830   -3.079840
  C    -40.318300    9.255050   -2.196430
  C    -39.721700    7.979290   -2.627310
  C    -40.400200    7.457030   -3.751920
  H    -39.940200    9.846590   -1.414610
  C    -38.433400    7.448040   -1.987700
  H    -38.299500    6.369800   -2.066080
  H    -38.563200    7.676590   -0.898528
  C    -37.113200    8.146470   -2.310760
  H    -36.293500    7.613640   -1.773460
  H    -36.969900    9.169880   -1.904690
  C    -36.828400    7.957180   -3.795950
  H    -36.407200    6.899650   -3.829170
  H    -36.093400    8.716940   -4.115640
  H    -37.639400    7.910950   -4.428620
  H    -40.517200    4.054850   -7.344390
  H    -41.775700   10.591800   -2.853610

 Total Charge           Charge          ....    0
 Multiplicity           Mult            ....    1
 Number of Electrons    NEL             ....  134
 Basis Dimension        Dim             ....  322

ORBITAL ENERGIES
----------------

  NO   OCC          E(Eh)            E(eV)
   0   2.0000     -88.968065     -2420.9441
   1   2.0000     -88.960867     -2420.7483
   2   2.0000     -10.330409      -281.1047
   3   2.0000     -10.329383      -281.0768
   4   2.0000     -10.314417      -280.6696
   5   2.0000     -10.313944      -280.6567
   6   2.0000     -10.312503      -280.6175
   7   2.0000     -10.302077      -280.3338
   8   2.0000     -10.297549      -280.2106
   9   2.0000     -10.297487      -280.2089
  10   2.0000     -10.296882      -280.1924
  11   2.0000     -10.296515      -280.1824
  12   2.0000     -10.294638      -280.1313
  13   2.0000     -10.287924      -279.9487
  14   2.0000     -10.278133      -279.6822
  15   2.0000     -10.268281      -279.4141
  16   2.0000      -8.082644      -219.9399
  17   2.0000      -8.076088      -219.7615
  18   2.0000      -6.041253      -164.3909
  19   2.0000      -6.037140      -164.2789
  20   2.0000      -6.034748      -164.2138
  21   2.0000      -6.033309      -164.1747
  22   2.0000      -6.030631      -164.1018
  23   2.0000      -6.026528      -163.9902
  24   2.0000      -1.008524       -27.4433
  25   2.0000      -0.980503       -26.6808
  26   2.0000      -0.910063       -24.7641
  27   2.0000      -0.907388       -24.6913
  28   2.0000      -0.873173       -23.7602
  29   2.0000      -0.849287       -23.1103
  30   2.0000      -0.841352       -22.8944
  31   2.0000      -0.815119       -22.1805
  32   2.0000      -0.780861       -21.2483
  33   2.0000      -0.773813       -21.0565
  34   2.0000      -0.708443       -19.2777
  35   2.0000      -0.704061       -19.1585
  36   2.0000      -0.692395       -18.8410
  37   2.0000      -0.663923       -18.0663
  38   2.0000      -0.642269       -17.4770
  39   2.0000      -0.618872       -16.8404
  40   2.0000      -0.594507       -16.1774
  41   2.0000      -0.567475       -15.4418
  42   2.0000      -0.560625       -15.2554
  43   2.0000      -0.548009       -14.9121
  44   2.0000      -0.544244       -14.8096
  45   2.0000      -0.520050       -14.1513
  46   2.0000      -0.518529       -14.1099
  47   2.0000      -0.513001       -13.9595
  48   2.0000      -0.505495       -13.7552
  49   2.0000      -0.505126       -13.7452
  50   2.0000      -0.495811       -13.4917
  51   2.0000      -0.481444       -13.1007
  52   2.0000      -0.468923       -12.7600
  53   2.0000      -0.462180       -12.5766
  54   2.0000      -0.461568       -12.5599
  55   2.0000      -0.450884       -12.2692
  56   2.0000      -0.448392       -12.2014
  57   2.0000      -0.437666       -11.9095
  58   2.0000      -0.428722       -11.6661
  59   2.0000      -0.420262       -11.4359
  60   2.0000      -0.412818       -11.2333
  61   2.0000      -0.406627       -11.0649
  62   2.0000      -0.405868       -11.0442
  63   2.0000      -0.356548        -9.7022
  64   2.0000      -0.329522        -8.9668
  65   2.0000      -0.327306        -8.9065
  66   2.0000      -0.291021        -7.9191
  67   0.0000       0.023418         0.6372
  68   0.0000       0.073431         1.9982
  69   0.0000       0.099144         2.6978
  70   0.0000       0.116289         3.1644
  71   0.0000       0.131687         3.5834

MULLIKEN ATOMIC CHARGES
-----------------------
   0 S :    0.069244
   1 C :   -0.122429
   2 C :   -0.077789
   3 C :    0.025348
   4 C :   -0.123567
   5 H :    0.026997
   6 C :    0.052239
   7 H :    0.047822
   8 H :    0.004386
   9 C :   -0.075517
  10 H :    0.032772
  11 H :    0.046254
  12 C :   -0.051529
  13 H :    0.030191
  14 H :    0.016751
  15 H :    0.029395
  16 S :    0.109602
  17 C :   -0.042662
  18 C :   -0.025213
  19 C :   -0.050821
  20 C :   -0.142674
  21 H :    0.005704
  22 C :    0.040647
  23 H :    0.025847
  24 H :    0.027986
  25 C :   -0.078575
  26 H :    0.030108
  27 H :    0.029465
  28 C :   -0.034945
  29 H :    0.025791
  30 H :    0.040287
  31 H :    0.030174
  32 H :    0.053419
  33 H :    0.025293
Sum of atomic charges:    0.0000000

LOEWDIN ATOMIC CHARGES
----------------------
   0 S :    0.385272
   1 C :   -0.178258
   2 C :   -0.066509
   3 C :   -0.062577
   4 C :   -0.192737
   5 H :    0.032298
   6 C :   -0.034569
   7 H :    0.036413
   8 H :    0.024470
   9 C :   -0.039656
  10 H :    0.025277
  11 H :    0.031058
  12 C :   -0.072369
  13 H :    0.027118
  14 H :    0.016776
  15 H :    0.029348
  16 S :    0.408386
  17 C :   -0.176200
  18 C :   -0.056210
  19 C :   -0.052249
  20 C :   -0.196156
  21 H :    0.022015
  22 C :   -0.037880
  23 H :    0.028535
  24 H :    0.037484
  25 C :   -0.047190
  26 H :    0.029341
  27 H :    0.021420
  28 C :   -0.062396
  29 H :    0.034740
  30 H :    0.029305
  31 H :    0.012054
  32 H :    0.030264
  33 H :    0.013383

  Mayer bond orders larger than 0.100000
B(  0-S ,  1-C ) :   1.1108 B(  0-S ,  4-C ) :   1.1396 B(  1-C ,  2-C ) :   1.6339
B(  1-C , 32-H ) :   0.9805 B(  2-C ,  3-C ) :   1.2295 B(  2-C ,  6-C ) :   1.0116
B(  3-C ,  4-C ) :   1.5827 B(  3-C ,  5-H ) :   0.9816 B(  4-C , 20-C ) :   1.0581
B(  6-C ,  7-H ) :   0.9449 B(  6-C ,  8-H ) :   0.9392 B(  6-C ,  9-C ) :   1.0557
B(  9-C , 10-H ) :   0.9576 B(  9-C , 11-H ) :   0.9590 B(  9-C , 12-C ) :   1.0774
B( 12-C , 13-H ) :   0.9749 B( 12-C , 14-H ) :   0.9739 B( 12-C , 15-H ) :   0.9711
B( 16-S , 17-C ) :   1.1432 B( 16-S , 20-C ) :   1.1358 B( 17-C , 18-C ) :   1.6250
B( 17-C , 33-H ) :   0.9752 B( 18-C , 19-C ) :   1.2292 B( 18-C , 21-H ) :   0.9903
B( 19-C , 20-C ) :   1.5913 B( 19-C , 22-C ) :   1.0540 B( 22-C , 23-H ) :   0.9410
B( 22-C , 24-H ) :   0.9255 B( 22-C , 25-C ) :   1.0798 B( 25-C , 26-H ) :   0.9557
B( 25-C , 27-H ) :   0.9587 B( 25-C , 28-C ) :   1.0525 B( 28-C , 29-H ) :   0.9757
B( 28-C , 30-H ) :   0.9746 B( 28-C , 31-H ) :   0.9854

Dispersion correction           -0.014097601
FINAL SINGLE POINT ENERGY     -1339.862479621328

DIPOLE MOMENT
-------------
                                X             Y             Z
Electronic contribution:    -19.82100      18.67845      -7.27362
Nuclear contribution   :     20.13425     -19.06203       7.67342
                        -----------------------------------------
Total Dipole Moment    :      0.31326      -0.38358       0.39981
                        -----------------------------------------
Magnitude (a.u.)       :      0.63648
Magnitude (Debye)      :      1.61780

Rotational constants in cm-1:     0.021356     0.007861     0.006491
Rotational constants in MHz :   640.247331   235.653316   194.588188

                             ****ORCA TERMINATED NORMALLY****
TOTAL RUN TIME: 0 days 0 hours 0 minutes 21 seconds 408 msec
