                         Program Version 4.2.1 -  RELEASE  -
|  1> ! wB97X-D3 SP def2-SVP
|  2> %pal
|  3> nprocs 24
|  4> end
|  5>
|  6> * xyz 0 1
|  7> S 	 -142.546 	 8.03898 	 6.89267
|  8> C 	 -143.597 	 6.88301 	 7.71624
|  9> C 	 -144.522 	 6.33297 	 6.83638
| 10> C 	 -144.239 	 6.77184 	 5.50108
| 11> C 	 -143.23 	 7.68867 	 5.2638
| 12> H 	 -144.789 	 6.44267 	 4.63796
| 13> C 	 -145.709 	 5.45635 	 7.26235
| 14> H 	 -146.371 	 5.29372 	 6.43452
| 15> H 	 -146.323 	 5.98879 	 7.97705
| 16> C 	 -145.256 	 4.06941 	 7.78553
| 17> H 	 -144.773 	 3.53347 	 6.9711
| 18> H 	 -144.437 	 4.26479 	 8.57432
| 19> C 	 -146.553 	 3.33695 	 8.26836
| 20> H 	 -147.396 	 3.26143 	 7.60842
| 21> H 	 -146.273 	 2.36731 	 8.56113
| 22> H 	 -146.88 	 3.76608 	 9.1491
| 23> S 	 -142.043 	 9.85171 	 3.99559
| 24> C 	 -141.861 	 9.93294 	 2.24294
| 25> C 	 -142.326 	 8.74153 	 1.71332
| 26> C 	 -142.749 	 7.75267 	 2.66584
| 27> C 	 -142.718 	 8.24601 	 3.99494
| 28> H 	 -142.166 	 8.59447 	 0.667612
| 29> C 	 -143.26 	 6.41377 	 2.21836
| 30> H 	 -143.463 	 5.64934 	 2.9835
| 31> H 	 -142.389 	 5.9232 	 1.68738
| 32> C 	 -144.432 	 6.42701 	 1.20003
| 33> H 	 -144.066 	 6.70181 	 0.194872
| 34> H 	 -145.15 	 7.19838 	 1.40726
| 35> C 	 -145.124 	 5.07141 	 1.01903
| 36> H 	 -145.769 	 5.01958 	 0.168639
| 37> H 	 -145.716 	 4.99263 	 1.91588
| 38> H 	 -144.489 	 4.23636 	 0.820068
| 39> H 	 -143.523 	 6.79954 	 8.78451
| 40> H 	 -141.375 	 10.6955 	 1.69084
| 41> *
| 42>
| 43>                          ****END OF INPUT****

CARTESIAN COORDINATES (ANGSTROEM)
---------------------------------
  S    -142.546000    8.038980    6.892670
  C    -143.597000    6.883010    7.716240
  C    -144.522000    6.332970    6.836380
  C    -144.239000    6.771840    5.501080
  C    -143.230000    7.688670    5.263800
  H    -144.789000    6.442670    4.637960
  C    -145.709000    5.456350    7.262350
  H    -146.371000    5.293720    6.434520
  H    -146.323000    5.988790    7.977050
  C    -145.256000    4.069410    7.785530
  H    -144.773000    3.533470    6.971100
  H    -144.437000    4.264790    8.574320
  C    -146.553000    3.336950    8.268360
  H    -147.396000    3.261430    7.608420
  H    -146.273000    2.367310    8.561130
  H    -146.880000    3.766080    9.149100
  S    -142.043000    9.851710    3.995590
  C    -141.861000    9.932940    2.242940
  C    -142.326000    8.741530    1.713320
  C    -142.749000    7.752670    2.665840
  C    -142.718000    8.246010    3.994940
  H    -142.166000    8.594470    0.667612
  C    -143.260000    6.413770    2.218360
  H    -143.463000    5.649340    2.983500
  H    -142.389000    5.923200    1.687380
  C    -144.432000    6.427010    1.200030
  H    -144.066000    6.701810    0.194872
  H    -145.150000    7.198380    1.407260
  C    -145.124000    5.071410    1.019030
  H    -145.769000    5.019580    0.168639
  H    -145.716000    4.992630    1.915880
  H    -144.489000    4.236360    0.820068
  H    -143.523000    6.799540    8.784510
  H    -141.375000   10.695500    1.690840

 Total Charge           Charge          ....    0
 Multiplicity           Mult            ....    1
 Number of Electrons    NEL             ....  134
 Basis Dimension        Dim             ....  322

ORBITAL ENERGIES
----------------

  NO   OCC          E(Eh)            E(eV)
   0   2.0000     -88.965679     -2420.8792
   1   2.0000     -88.962448     -2420.7913
   2   2.0000     -10.337229      -281.2903
   3   2.0000     -10.336654      -281.2747
   4   2.0000     -10.319951      -280.8201
   5   2.0000     -10.318435      -280.7789
   6   2.0000     -10.310861      -280.5728
   7   2.0000     -10.305696      -280.4322
   8   2.0000     -10.298010      -280.2231
   9   2.0000     -10.297994      -280.2227
  10   2.0000     -10.295610      -280.1578
  11   2.0000     -10.294513      -280.1279
  12   2.0000     -10.292435      -280.0714
  13   2.0000     -10.287617      -279.9403
  14   2.0000     -10.274601      -279.5861
  15   2.0000     -10.271259      -279.4952
  16   2.0000      -8.080300      -219.8761
  17   2.0000      -8.076303      -219.7674
  18   2.0000      -6.038889      -164.3265
  19   2.0000      -6.034973      -164.2200
  20   2.0000      -6.034693      -164.2123
  21   2.0000      -6.031099      -164.1145
  22   2.0000      -6.030855      -164.1079
  23   2.0000      -6.027023      -164.0036
  24   2.0000      -1.001081       -27.2408
  25   2.0000      -0.980044       -26.6684
  26   2.0000      -0.909153       -24.7393
  27   2.0000      -0.907849       -24.7038
  28   2.0000      -0.869216       -23.6526
  29   2.0000      -0.852840       -23.2069
  30   2.0000      -0.841524       -22.8990
  31   2.0000      -0.818106       -22.2618
  32   2.0000      -0.782789       -21.3008
  33   2.0000      -0.773248       -21.0411
  34   2.0000      -0.706577       -19.2269
  35   2.0000      -0.706274       -19.2187
  36   2.0000      -0.699188       -19.0259
  37   2.0000      -0.661492       -18.0001
  38   2.0000      -0.644076       -17.5262
  39   2.0000      -0.620866       -16.8946
  40   2.0000      -0.600715       -16.3463
  41   2.0000      -0.572043       -15.5661
  42   2.0000      -0.566664       -15.4197
  43   2.0000      -0.559347       -15.2206
  44   2.0000      -0.526140       -14.3170
  45   2.0000      -0.522509       -14.2182
  46   2.0000      -0.520701       -14.1690
  47   2.0000      -0.518434       -14.1073
  48   2.0000      -0.505479       -13.7548
  49   2.0000      -0.503307       -13.6957
  50   2.0000      -0.490735       -13.3536
  51   2.0000      -0.481458       -13.1011
  52   2.0000      -0.476754       -12.9731
  53   2.0000      -0.465168       -12.6579
  54   2.0000      -0.461442       -12.5565
  55   2.0000      -0.453678       -12.3452
  56   2.0000      -0.447923       -12.1886
  57   2.0000      -0.436935       -11.8896
  58   2.0000      -0.433754       -11.8030
  59   2.0000      -0.425341       -11.5741
  60   2.0000      -0.416600       -11.3363
  61   2.0000      -0.414198       -11.2709
  62   2.0000      -0.405293       -11.0286
  63   2.0000      -0.358670        -9.7599
  64   2.0000      -0.331506        -9.0207
  65   2.0000      -0.325157        -8.8480
  66   2.0000      -0.286116        -7.7856
  67   0.0000       0.019903         0.5416
  68   0.0000       0.077536         2.1099
  69   0.0000       0.108405         2.9498
  70   0.0000       0.117854         3.2070
  71   0.0000       0.131149         3.5688

MULLIKEN ATOMIC CHARGES
-----------------------
   0 S :    0.084187
   1 C :   -0.137389
   2 C :   -0.055526
   3 C :    0.001357
   4 C :   -0.111357
   5 H :   -0.003496
   6 C :    0.072329
   7 H :    0.009477
   8 H :    0.033979
   9 C :   -0.119149
  10 H :    0.036132
  11 H :    0.045820
  12 C :    0.020729
  13 H :    0.031779
  14 H :    0.015172
  15 H :    0.008607
  16 S :    0.094641
  17 C :   -0.081219
  18 C :   -0.030660
  19 C :   -0.024680
  20 C :   -0.126156
  21 H :    0.016270
  22 C :    0.024550
  23 H :    0.026827
  24 H :    0.036978
  25 C :   -0.082902
  26 H :    0.021745
  27 H :    0.031862
  28 C :   -0.028206
  29 H :    0.023290
  30 H :    0.030667
  31 H :    0.026378
  32 H :    0.054509
  33 H :    0.053455
Sum of atomic charges:   -0.0000000

LOEWDIN ATOMIC CHARGES
----------------------
   0 S :    0.372924
   1 C :   -0.180291
   2 C :   -0.063932
   3 C :   -0.066070
   4 C :   -0.178025
   5 H :    0.024039
   6 C :   -0.029686
   7 H :    0.024662
   8 H :    0.030258
   9 C :   -0.033893
  10 H :    0.023678
  11 H :    0.032747
  12 C :   -0.056249
  13 H :    0.026539
  14 H :    0.021243
  15 H :    0.017454
  16 S :    0.406350
  17 C :   -0.174835
  18 C :   -0.066505
  19 C :   -0.057735
  20 C :   -0.196251
  21 H :    0.028609
  22 C :   -0.043213
  23 H :    0.029597
  24 H :    0.042727
  25 C :   -0.040457
  26 H :    0.021042
  27 H :    0.021965
  28 C :   -0.061689
  29 H :    0.025074
  30 H :    0.024660
  31 H :    0.023180
  32 H :    0.024425
  33 H :    0.027659

  Mayer bond orders larger than 0.100000
B(  0-S ,  1-C ) :   1.1521 B(  0-S ,  4-C ) :   1.1267 B(  1-C ,  2-C ) :   1.5769
B(  1-C ,  4-C ) :   0.1038 B(  1-C , 32-H ) :   0.9737 B(  2-C ,  3-C ) :   1.2615
B(  2-C ,  6-C ) :   1.0073 B(  3-C ,  4-C ) :   1.5798 B(  3-C ,  5-H ) :   0.9930
B(  4-C , 20-C ) :   1.0581 B(  6-C ,  7-H ) :   0.9423 B(  6-C ,  8-H ) :   0.9478
B(  6-C ,  9-C ) :   1.0532 B(  9-C , 10-H ) :   0.9584 B(  9-C , 11-H ) :   0.9617
B(  9-C , 12-C ) :   1.0666 B( 12-C , 13-H ) :   0.9751 B( 12-C , 14-H ) :   0.9708
B( 12-C , 15-H ) :   0.9722 B( 16-S , 17-C ) :   1.1503 B( 16-S , 20-C ) :   1.1483
B( 17-C , 18-C ) :   1.5971 B( 17-C , 20-C ) :   0.1001 B( 17-C , 33-H ) :   0.9746
B( 18-C , 19-C ) :   1.2543 B( 18-C , 21-H ) :   0.9906 B( 19-C , 20-C ) :   1.5518
B( 19-C , 22-C ) :   1.0496 B( 22-C , 23-H ) :   0.9508 B( 22-C , 24-H ) :   0.9201
B( 22-C , 25-C ) :   1.0450 B( 25-C , 26-H ) :   0.9499 B( 25-C , 27-H ) :   0.9642
B( 25-C , 28-C ) :   1.0864 B( 28-C , 29-H ) :   0.9724 B( 28-C , 30-H ) :   0.9781
B( 28-C , 31-H ) :   0.9732

Dispersion correction           -0.013421158
FINAL SINGLE POINT ENERGY     -1339.873330488826

DIPOLE MOMENT
-------------
                                X             Y             Z
Electronic contribution:     18.95090      25.96427       4.99074
Nuclear contribution   :    -19.40884     -26.55668      -5.34520
                        -----------------------------------------
Total Dipole Moment    :     -0.45793      -0.59241      -0.35446
                        -----------------------------------------
Magnitude (a.u.)       :      0.82843
Magnitude (Debye)      :      2.10569

Rotational constants in cm-1:     0.017776     0.008293     0.005819
Rotational constants in MHz :   532.911582   248.607403   174.462641

                             ****ORCA TERMINATED NORMALLY****
TOTAL RUN TIME: 0 days 0 hours 0 minutes 20 seconds 825 msec
