                         Program Version 4.2.1 -  RELEASE  -
|  1> ! wB97X-D3 SP def2-SVP
|  2> %pal
|  3> nprocs 24
|  4> end
|  5>
|  6> * xyz 0 1
|  7> S 	 -94.6831 	 6.80396 	 -7.45364
|  8> C 	 -94.3173 	 8.21306 	 -8.39075
|  9> C 	 -95.3663 	 9.14616 	 -8.39036
| 10> C 	 -96.5147 	 8.64798 	 -7.68482
| 11> C 	 -96.3362 	 7.3877 	 -7.19791
| 12> H 	 -97.4307 	 9.27445 	 -7.61998
| 13> C 	 -95.2925 	 10.4314 	 -9.21642
| 14> H 	 -96.0357 	 10.4763 	 -9.99949
| 15> H 	 -94.3949 	 10.2927 	 -9.78507
| 16> C 	 -95.355 	 11.7498 	 -8.39755
| 17> H 	 -94.5058 	 11.7645 	 -7.79435
| 18> H 	 -95.3447 	 12.5377 	 -9.15395
| 19> C 	 -96.6132 	 11.8827 	 -7.486
| 20> H 	 -97.5329 	 12.0261 	 -8.10724
| 21> H 	 -96.7615 	 11.1085 	 -6.75339
| 22> H 	 -96.4896 	 12.6785 	 -6.8064
| 23> S 	 -97.6184 	 5.06147 	 -7.14615
| 24> C 	 -99.1864 	 4.95819 	 -6.39268
| 25> C 	 -99.5168 	 6.08337 	 -5.6977
| 26> C 	 -98.5299 	 7.0752 	 -5.7307
| 27> C 	 -97.451 	 6.695 	 -6.51548
| 28> H 	 -100.519 	 6.07748 	 -5.17252
| 29> C 	 -98.7173 	 8.41197 	 -5.12569
| 30> H 	 -97.9588 	 9.20292 	 -5.29175
| 31> H 	 -98.5876 	 8.30659 	 -4.01623
| 32> C 	 -100.081 	 9.08034 	 -5.45837
| 33> H 	 -100.884 	 8.47542 	 -5.11275
| 34> H 	 -100.274 	 8.83869 	 -6.52789
| 35> C 	 -100.318 	 10.5956 	 -5.04423
| 36> H 	 -100.073 	 10.6407 	 -3.97154
| 37> H 	 -101.378 	 10.8245 	 -5.30216
| 38> H 	 -99.6999 	 11.3051 	 -5.61734
| 39> H 	 -93.4279 	 8.30758 	 -8.97625
| 40> H 	 -99.8326 	 4.00484 	 -6.46082
| 41> *
| 42>
| 43>                          ****END OF INPUT****

CARTESIAN COORDINATES (ANGSTROEM)
---------------------------------
  S    -94.683100    6.803960   -7.453640
  C    -94.317300    8.213060   -8.390750
  C    -95.366300    9.146160   -8.390360
  C    -96.514700    8.647980   -7.684820
  C    -96.336200    7.387700   -7.197910
  H    -97.430700    9.274450   -7.619980
  C    -95.292500   10.431400   -9.216420
  H    -96.035700   10.476300   -9.999490
  H    -94.394900   10.292700   -9.785070
  C    -95.355000   11.749800   -8.397550
  H    -94.505800   11.764500   -7.794350
  H    -95.344700   12.537700   -9.153950
  C    -96.613200   11.882700   -7.486000
  H    -97.532900   12.026100   -8.107240
  H    -96.761500   11.108500   -6.753390
  H    -96.489600   12.678500   -6.806400
  S    -97.618400    5.061470   -7.146150
  C    -99.186400    4.958190   -6.392680
  C    -99.516800    6.083370   -5.697700
  C    -98.529900    7.075200   -5.730700
  C    -97.451000    6.695000   -6.515480
  H    -100.519000    6.077480   -5.172520
  C    -98.717300    8.411970   -5.125690
  H    -97.958800    9.202920   -5.291750
  H    -98.587600    8.306590   -4.016230
  C    -100.081000    9.080340   -5.458370
  H    -100.884000    8.475420   -5.112750
  H    -100.274000    8.838690   -6.527890
  C    -100.318000   10.595600   -5.044230
  H    -100.073000   10.640700   -3.971540
  H    -101.378000   10.824500   -5.302160
  H    -99.699900   11.305100   -5.617340
  H    -93.427900    8.307580   -8.976250
  H    -99.832600    4.004840   -6.460820

 Total Charge           Charge          ....    0
 Multiplicity           Mult            ....    1
 Number of Electrons    NEL             ....  134
 Basis Dimension        Dim             ....  322

ORBITAL ENERGIES
----------------

  NO   OCC          E(Eh)            E(eV)
   0   2.0000     -88.968754     -2420.9629
   1   2.0000     -88.961783     -2420.7732
   2   2.0000     -10.328712      -281.0585
   3   2.0000     -10.326542      -280.9995
   4   2.0000     -10.319843      -280.8172
   5   2.0000     -10.311358      -280.5863
   6   2.0000     -10.303995      -280.3860
   7   2.0000     -10.299798      -280.2717
   8   2.0000     -10.295650      -280.1589
   9   2.0000     -10.295640      -280.1586
  10   2.0000     -10.293138      -280.0905
  11   2.0000     -10.291070      -280.0343
  12   2.0000     -10.289547      -279.9928
  13   2.0000     -10.288964      -279.9770
  14   2.0000     -10.287471      -279.9363
  15   2.0000     -10.279486      -279.7190
  16   2.0000      -8.083165      -219.9541
  17   2.0000      -8.077092      -219.7888
  18   2.0000      -6.041766      -164.4048
  19   2.0000      -6.037797      -164.2968
  20   2.0000      -6.035429      -164.2324
  21   2.0000      -6.033785      -164.1876
  22   2.0000      -6.031586      -164.1278
  23   2.0000      -6.027911      -164.0278
  24   2.0000      -1.007724       -27.4216
  25   2.0000      -0.984585       -26.7919
  26   2.0000      -0.908668       -24.7261
  27   2.0000      -0.905324       -24.6351
  28   2.0000      -0.868072       -23.6214
  29   2.0000      -0.850375       -23.1399
  30   2.0000      -0.842762       -22.9327
  31   2.0000      -0.815949       -22.2031
  32   2.0000      -0.784620       -21.3506
  33   2.0000      -0.771233       -20.9863
  34   2.0000      -0.708688       -19.2844
  35   2.0000      -0.702985       -19.1292
  36   2.0000      -0.693872       -18.8812
  37   2.0000      -0.655819       -17.8457
  38   2.0000      -0.635070       -17.2811
  39   2.0000      -0.622632       -16.9427
  40   2.0000      -0.600759       -16.3475
  41   2.0000      -0.576913       -15.6986
  42   2.0000      -0.552597       -15.0369
  43   2.0000      -0.545652       -14.8480
  44   2.0000      -0.530751       -14.4425
  45   2.0000      -0.526497       -14.3267
  46   2.0000      -0.516198       -14.0465
  47   2.0000      -0.506908       -13.7937
  48   2.0000      -0.504955       -13.7405
  49   2.0000      -0.491219       -13.3667
  50   2.0000      -0.489258       -13.3134
  51   2.0000      -0.484230       -13.1766
  52   2.0000      -0.471819       -12.8388
  53   2.0000      -0.463696       -12.6178
  54   2.0000      -0.459993       -12.5171
  55   2.0000      -0.450683       -12.2637
  56   2.0000      -0.444544       -12.0967
  57   2.0000      -0.438942       -11.9442
  58   2.0000      -0.434874       -11.8335
  59   2.0000      -0.430716       -11.7204
  60   2.0000      -0.422453       -11.4955
  61   2.0000      -0.417221       -11.3532
  62   2.0000      -0.404358       -11.0031
  63   2.0000      -0.351092        -9.5537
  64   2.0000      -0.333572        -9.0770
  65   2.0000      -0.327232        -8.9044
  66   2.0000      -0.287245        -7.8163
  67   0.0000       0.031350         0.8531
  68   0.0000       0.075570         2.0564
  69   0.0000       0.111304         3.0287
  70   0.0000       0.118666         3.2291
  71   0.0000       0.122596         3.3360

MULLIKEN ATOMIC CHARGES
-----------------------
   0 S :    0.120340
   1 C :   -0.128422
   2 C :   -0.105802
   3 C :   -0.009148
   4 C :   -0.103010
   5 H :    0.032744
   6 C :    0.076544
   7 H :    0.025464
   8 H :    0.002012
   9 C :   -0.021956
  10 H :    0.017524
  11 H :    0.033130
  12 C :   -0.062151
  13 H :    0.042763
  14 H :    0.027505
  15 H :    0.018880
  16 S :    0.093307
  17 C :   -0.122965
  18 C :   -0.070445
  19 C :    0.001919
  20 C :   -0.156270
  21 H :    0.044724
  22 C :    0.048738
  23 H :    0.020604
  24 H :    0.036188
  25 C :   -0.118788
  26 H :    0.014085
  27 H :    0.025741
  28 C :   -0.045701
  29 H :    0.047544
  30 H :    0.047763
  31 H :    0.039930
  32 H :    0.044444
  33 H :    0.082762
Sum of atomic charges:    0.0000000

LOEWDIN ATOMIC CHARGES
----------------------
   0 S :    0.400357
   1 C :   -0.203967
   2 C :   -0.059405
   3 C :   -0.066724
   4 C :   -0.195287
   5 H :    0.039360
   6 C :   -0.030943
   7 H :    0.026607
   8 H :    0.026325
   9 C :   -0.024101
  10 H :    0.016405
  11 H :    0.027179
  12 C :   -0.069269
  13 H :    0.030694
  14 H :    0.022624
  15 H :    0.022794
  16 S :    0.403167
  17 C :   -0.196418
  18 C :   -0.083594
  19 C :   -0.062469
  20 C :   -0.179159
  21 H :    0.046306
  22 C :   -0.042441
  23 H :    0.030239
  24 H :    0.037386
  25 C :   -0.052121
  26 H :    0.014875
  27 H :    0.026087
  28 C :   -0.064081
  29 H :    0.030786
  30 H :    0.035757
  31 H :    0.025449
  32 H :    0.022752
  33 H :    0.044827

  Mayer bond orders larger than 0.100000
B(  0-S ,  1-C ) :   1.1364 B(  0-S ,  4-C ) :   1.1375 B(  1-C ,  2-C ) :   1.6110
B(  1-C , 32-H ) :   0.9662 B(  2-C ,  3-C ) :   1.2454 B(  2-C ,  6-C ) :   1.0210
B(  3-C ,  4-C ) :   1.5730 B(  3-C ,  5-H ) :   0.9856 B(  4-C , 20-C ) :   1.0165
B(  6-C ,  7-H ) :   0.9446 B(  6-C ,  8-H ) :   0.9371 B(  6-C ,  9-C ) :   1.0593
B(  9-C , 10-H ) :   0.9548 B(  9-C , 11-H ) :   0.9568 B(  9-C , 12-C ) :   1.0892
B( 12-C , 13-H ) :   0.9747 B( 12-C , 14-H ) :   0.9652 B( 12-C , 15-H ) :   0.9663
B( 16-S , 17-C ) :   1.1586 B( 16-S , 20-C ) :   1.1473 B( 17-C , 18-C ) :   1.6219
B( 17-C , 33-H ) :   0.9548 B( 18-C , 19-C ) :   1.2237 B( 18-C , 21-H ) :   0.9841
B( 19-C , 20-C ) :   1.6027 B( 19-C , 22-C ) :   1.0481 B( 22-C , 23-H ) :   0.9467
B( 22-C , 24-H ) :   0.9171 B( 22-C , 25-C ) :   1.0459 B( 25-C , 26-H ) :   0.9476
B( 25-C , 27-H ) :   0.9574 B( 25-C , 28-C ) :   1.0692 B( 28-C , 29-H ) :   0.9753
B( 28-C , 30-H ) :   0.9739 B( 28-C , 31-H ) :   0.9772

Dispersion correction           -0.015127132
FINAL SINGLE POINT ENERGY     -1339.870287565414

DIPOLE MOMENT
-------------
                                X             Y             Z
Electronic contribution:     11.95629     -29.64064      -3.38289
Nuclear contribution   :    -12.36217      30.25903       3.35684
                        -----------------------------------------
Total Dipole Moment    :     -0.40588       0.61839      -0.02605
                        -----------------------------------------
Magnitude (a.u.)       :      0.74015
Magnitude (Debye)      :      1.88132

Rotational constants in cm-1:     0.015614     0.011232     0.006928
Rotational constants in MHz :   468.089864   336.723755   207.682956

                             ****ORCA TERMINATED NORMALLY****
TOTAL RUN TIME: 0 days 0 hours 0 minutes 22 seconds 413 msec
