                         Program Version 4.2.1 -  RELEASE  -
|  1> ! wB97X-D3 SP def2-SVP
|  2> %pal
|  3> nprocs 24
|  4> end
|  5>
|  6> * xyz 0 1
|  7> S 	 17.4951 	 -4.09974 	 -115.258
|  8> C 	 18.2775 	 -5.22776 	 -114.112
|  9> C 	 17.4024 	 -6.3125 	 -113.91
| 10> C 	 16.169 	 -6.24827 	 -114.69
| 11> C 	 16.0542 	 -5.10905 	 -115.504
| 12> H 	 15.4292 	 -7.04422 	 -114.77
| 13> C 	 17.6962 	 -7.41159 	 -112.955
| 14> H 	 16.8339 	 -7.97338 	 -112.709
| 15> H 	 18.0572 	 -6.9128 	 -112.099
| 16> C 	 18.8342 	 -8.32211 	 -113.387
| 17> H 	 19.7039 	 -7.68289 	 -113.442
| 18> H 	 19.0785 	 -9.01299 	 -112.575
| 19> C 	 18.6725 	 -9.04893 	 -114.696
| 20> H 	 19.5283 	 -9.69073 	 -114.937
| 21> H 	 17.8574 	 -9.71117 	 -114.651
| 22> H 	 18.5469 	 -8.44175 	 -115.614
| 23> S 	 15.4189 	 -4.84025 	 -118.138
| 24> C 	 13.7503 	 -4.35238 	 -118.603
| 25> C 	 12.8947 	 -4.12905 	 -117.562
| 26> C 	 13.6722 	 -4.29799 	 -116.34
| 27> C 	 14.9987 	 -4.70247 	 -116.471
| 28> H 	 11.9372 	 -3.75541 	 -117.709
| 29> C 	 13.1295 	 -3.94046 	 -115.026
| 30> H 	 13.2311 	 -2.86578 	 -114.987
| 31> H 	 13.6936 	 -4.41421 	 -114.198
| 32> C 	 11.7164 	 -4.40285 	 -114.779
| 33> H 	 11.0018 	 -3.84388 	 -115.477
| 34> H 	 11.3311 	 -4.02201 	 -113.826
| 35> C 	 11.6499 	 -5.93995 	 -114.703
| 36> H 	 12.3681 	 -6.38043 	 -115.32
| 37> H 	 10.698 	 -6.3391 	 -115.089
| 38> H 	 11.7169 	 -6.21709 	 -113.662
| 39> H 	 19.1815 	 -5.0255 	 -113.458
| 40> H 	 13.6159 	 -4.37414 	 -119.617
| 41> *
| 42>
| 43>                          ****END OF INPUT****

CARTESIAN COORDINATES (ANGSTROEM)
---------------------------------
  S     17.495100   -4.099740  -115.258000
  C     18.277500   -5.227760  -114.112000
  C     17.402400   -6.312500  -113.910000
  C     16.169000   -6.248270  -114.690000
  C     16.054200   -5.109050  -115.504000
  H     15.429200   -7.044220  -114.770000
  C     17.696200   -7.411590  -112.955000
  H     16.833900   -7.973380  -112.709000
  H     18.057200   -6.912800  -112.099000
  C     18.834200   -8.322110  -113.387000
  H     19.703900   -7.682890  -113.442000
  H     19.078500   -9.012990  -112.575000
  C     18.672500   -9.048930  -114.696000
  H     19.528300   -9.690730  -114.937000
  H     17.857400   -9.711170  -114.651000
  H     18.546900   -8.441750  -115.614000
  S     15.418900   -4.840250  -118.138000
  C     13.750300   -4.352380  -118.603000
  C     12.894700   -4.129050  -117.562000
  C     13.672200   -4.297990  -116.340000
  C     14.998700   -4.702470  -116.471000
  H     11.937200   -3.755410  -117.709000
  C     13.129500   -3.940460  -115.026000
  H     13.231100   -2.865780  -114.987000
  H     13.693600   -4.414210  -114.198000
  C     11.716400   -4.402850  -114.779000
  H     11.001800   -3.843880  -115.477000
  H     11.331100   -4.022010  -113.826000
  C     11.649900   -5.939950  -114.703000
  H     12.368100   -6.380430  -115.320000
  H     10.698000   -6.339100  -115.089000
  H     11.716900   -6.217090  -113.662000
  H     19.181500   -5.025500  -113.458000
  H     13.615900   -4.374140  -119.617000

 Total Charge           Charge          ....    0
 Multiplicity           Mult            ....    1
 Number of Electrons    NEL             ....  134
 Basis Dimension        Dim             ....  322

ORBITAL ENERGIES
----------------

  NO   OCC          E(Eh)            E(eV)
   0   2.0000     -88.964952     -2420.8594
   1   2.0000     -88.960975     -2420.7512
   2   2.0000     -10.338466      -281.3240
   3   2.0000     -10.326044      -280.9859
   4   2.0000     -10.323877      -280.9270
   5   2.0000     -10.318654      -280.7849
   6   2.0000     -10.305243      -280.4199
   7   2.0000     -10.305226      -280.4195
   8   2.0000     -10.301456      -280.3169
   9   2.0000     -10.298953      -280.2488
  10   2.0000     -10.287364      -279.9334
  11   2.0000     -10.282014      -279.7878
  12   2.0000     -10.280753      -279.7535
  13   2.0000     -10.280506      -279.7468
  14   2.0000     -10.271845      -279.5111
  15   2.0000     -10.269486      -279.4469
  16   2.0000      -8.078389      -219.8241
  17   2.0000      -8.076100      -219.7618
  18   2.0000      -6.037054      -164.2766
  19   2.0000      -6.034517      -164.2076
  20   2.0000      -6.032867      -164.1627
  21   2.0000      -6.030605      -164.1011
  22   2.0000      -6.029251      -164.0643
  23   2.0000      -6.026872      -163.9995
  24   2.0000      -1.001123       -27.2419
  25   2.0000      -0.976909       -26.5831
  26   2.0000      -0.917507       -24.9666
  27   2.0000      -0.914136       -24.8749
  28   2.0000      -0.868891       -23.6437
  29   2.0000      -0.844831       -22.9890
  30   2.0000      -0.840901       -22.8821
  31   2.0000      -0.819109       -22.2891
  32   2.0000      -0.784193       -21.3390
  33   2.0000      -0.771336       -20.9891
  34   2.0000      -0.705723       -19.2037
  35   2.0000      -0.702450       -19.1146
  36   2.0000      -0.695499       -18.9255
  37   2.0000      -0.663527       -18.0555
  38   2.0000      -0.634715       -17.2715
  39   2.0000      -0.612690       -16.6721
  40   2.0000      -0.600253       -16.3337
  41   2.0000      -0.579326       -15.7643
  42   2.0000      -0.565687       -15.3931
  43   2.0000      -0.557097       -15.1594
  44   2.0000      -0.546394       -14.8681
  45   2.0000      -0.538534       -14.6542
  46   2.0000      -0.518954       -14.1215
  47   2.0000      -0.512567       -13.9476
  48   2.0000      -0.501891       -13.6571
  49   2.0000      -0.495093       -13.4722
  50   2.0000      -0.484207       -13.1760
  51   2.0000      -0.474939       -12.9237
  52   2.0000      -0.471489       -12.8299
  53   2.0000      -0.463434       -12.6107
  54   2.0000      -0.459490       -12.5034
  55   2.0000      -0.450721       -12.2647
  56   2.0000      -0.438365       -11.9285
  57   2.0000      -0.435484       -11.8501
  58   2.0000      -0.431205       -11.7337
  59   2.0000      -0.423393       -11.5211
  60   2.0000      -0.418795       -11.3960
  61   2.0000      -0.412012       -11.2114
  62   2.0000      -0.404647       -11.0110
  63   2.0000      -0.344693        -9.3796
  64   2.0000      -0.326198        -8.8763
  65   2.0000      -0.321807        -8.7568
  66   2.0000      -0.301072        -8.1926
  67   0.0000       0.037825         1.0293
  68   0.0000       0.054303         1.4777
  69   0.0000       0.113764         3.0957
  70   0.0000       0.116953         3.1825
  71   0.0000       0.123258         3.3540

MULLIKEN ATOMIC CHARGES
-----------------------
   0 S :    0.101318
   1 C :   -0.145075
   2 C :   -0.133922
   3 C :    0.062820
   4 C :   -0.172396
   5 H :    0.018833
   6 C :    0.121648
   7 H :    0.010213
   8 H :    0.014466
   9 C :   -0.066660
  10 H :    0.010811
  11 H :    0.027204
  12 C :   -0.038717
  13 H :    0.027616
  14 H :    0.010333
  15 H :    0.045687
  16 S :    0.087792
  17 C :   -0.062268
  18 C :    0.028215
  19 C :   -0.068993
  20 C :   -0.145210
  21 H :    0.006682
  22 C :    0.065559
  23 H :    0.041036
  24 H :    0.033174
  25 C :   -0.108919
  26 H :    0.025110
  27 H :    0.021421
  28 C :   -0.021285
  29 H :    0.029345
  30 H :    0.028353
  31 H :    0.035913
  32 H :    0.081654
  33 H :    0.028244
Sum of atomic charges:   -0.0000000

LOEWDIN ATOMIC CHARGES
----------------------
   0 S :    0.385675
   1 C :   -0.207573
   2 C :   -0.058237
   3 C :   -0.065520
   4 C :   -0.187565
   5 H :    0.032695
   6 C :   -0.028547
   7 H :    0.022899
   8 H :    0.031272
   9 C :   -0.037599
  10 H :    0.018636
  11 H :    0.025796
  12 C :   -0.068448
  13 H :    0.029494
  14 H :    0.015202
  15 H :    0.032806
  16 S :    0.393589
  17 C :   -0.131223
  18 C :   -0.056557
  19 C :   -0.049312
  20 C :   -0.220143
  21 H :    0.027735
  22 C :   -0.039013
  23 H :    0.035898
  24 H :    0.035830
  25 C :   -0.050445
  26 H :    0.021048
  27 H :    0.023231
  28 C :   -0.058735
  29 H :    0.016592
  30 H :    0.030971
  31 H :    0.028772
  32 H :    0.047057
  33 H :    0.003719

  Mayer bond orders larger than 0.100000
B(  0-S ,  1-C ) :   1.1281 B(  0-S ,  4-C ) :   1.1635 B(  1-C ,  2-C ) :   1.5969
B(  1-C ,  4-C ) :   0.1054 B(  1-C , 32-H ) :   0.9587 B(  2-C ,  3-C ) :   1.2307
B(  2-C ,  6-C ) :   1.0317 B(  3-C ,  4-C ) :   1.5765 B(  3-C ,  5-H ) :   0.9932
B(  4-C , 20-C ) :   0.9909 B(  6-C ,  7-H ) :   0.9427 B(  6-C ,  8-H ) :   0.9277
B(  6-C ,  9-C ) :   1.0822 B(  9-C , 10-H ) :   0.9524 B(  9-C , 11-H ) :   0.9528
B(  9-C , 12-C ) :   1.0818 B( 12-C , 13-H ) :   0.9708 B( 12-C , 14-H ) :   0.9744
B( 12-C , 15-H ) :   0.9717 B( 16-S , 17-C ) :   1.1674 B( 16-S , 20-C ) :   1.1351
B( 17-C , 18-C ) :   1.6008 B( 17-C , 33-H ) :   0.9799 B( 18-C , 19-C ) :   1.1902
B( 18-C , 21-H ) :   1.0111 B( 19-C , 20-C ) :   1.6268 B( 19-C , 22-C ) :   1.0538
B( 22-C , 23-H ) :   0.9269 B( 22-C , 24-H ) :   0.9343 B( 22-C , 25-C ) :   1.0814
B( 25-C , 26-H ) :   0.9523 B( 25-C , 27-H ) :   0.9586 B( 25-C , 28-C ) :   1.0529
B( 28-C , 29-H ) :   0.9806 B( 28-C , 30-H ) :   0.9726 B( 28-C , 31-H ) :   0.9762

Dispersion correction           -0.014811254
FINAL SINGLE POINT ENERGY     -1339.866416144535

DIPOLE MOMENT
-------------
                                X             Y             Z
Electronic contribution:      6.64823      15.06189     -14.35412
Nuclear contribution   :     -7.01558     -15.32611      14.72613
                        -----------------------------------------
Total Dipole Moment    :     -0.36735      -0.26421       0.37201
                        -----------------------------------------
Magnitude (a.u.)       :      0.58578
Magnitude (Debye)      :      1.48894

Rotational constants in cm-1:     0.020793     0.008053     0.007119
Rotational constants in MHz :   623.345264   241.413738   213.436285

                             ****ORCA TERMINATED NORMALLY****
TOTAL RUN TIME: 0 days 0 hours 0 minutes 21 seconds 802 msec
