                         Program Version 4.2.1 -  RELEASE  -
|  1> ! wB97X-D3 SP def2-SVP
|  2> %pal
|  3> nprocs 24
|  4> end
|  5>
|  6> * xyz 0 1
|  7> S 	 -67.168 	 2.03106 	 -73.6581
|  8> C 	 -68.2551 	 2.48825 	 -74.9481
|  9> C 	 -68.5071 	 1.31619 	 -75.7944
| 10> C 	 -68.1115 	 0.103687 	 -75.1803
| 11> C 	 -67.532 	 0.360368 	 -73.9773
| 12> H 	 -68.2654 	 -0.864668 	 -75.5431
| 13> C 	 -69.0605 	 1.28418 	 -77.209
| 14> H 	 -69.4897 	 0.249903 	 -77.3897
| 15> H 	 -68.2732 	 1.2599 	 -77.9115
| 16> C 	 -70.1611 	 2.36812 	 -77.516
| 17> H 	 -69.6184 	 3.28614 	 -77.6694
| 18> H 	 -70.6157 	 2.04407 	 -78.4539
| 19> C 	 -71.3614 	 2.51073 	 -76.5516
| 20> H 	 -71.0354 	 3.09328 	 -75.6667
| 21> H 	 -72.2933 	 2.86609 	 -77.076
| 22> H 	 -71.6428 	 1.5093 	 -76.0468
| 23> S 	 -65.4726 	 -1.37542 	 -73.2143
| 24> C 	 -65.7477 	 -2.45847 	 -71.8588
| 25> C 	 -67.0043 	 -2.30098 	 -71.4289
| 26> C 	 -67.7594 	 -1.26666 	 -72.0846
| 27> C 	 -67.0235 	 -0.634089 	 -73.0738
| 28> H 	 -67.3634 	 -3.01424 	 -70.7636
| 29> C 	 -69.1111 	 -0.932968 	 -71.6494
| 30> H 	 -69.3703 	 -0.25766 	 -72.4015
| 31> H 	 -68.9302 	 -0.255367 	 -70.7866
| 32> C 	 -70.0991 	 -2.09547 	 -71.4014
| 33> H 	 -70.8888 	 -1.60922 	 -70.9391
| 34> H 	 -69.8178 	 -2.80542 	 -70.6333
| 35> C 	 -70.8197 	 -2.65303 	 -72.6433
| 36> H 	 -71.8398 	 -2.95778 	 -72.4036
| 37> H 	 -70.2305 	 -3.50431 	 -73.1126
| 38> H 	 -71.0545 	 -1.83286 	 -73.3918
| 39> H 	 -68.5299 	 3.49717 	 -75.2822
| 40> H 	 -65.0061 	 -3.16399 	 -71.4596
| 41> *
| 42>
| 43>                          ****END OF INPUT****

CARTESIAN COORDINATES (ANGSTROEM)
---------------------------------
  S    -67.168000    2.031060  -73.658100
  C    -68.255100    2.488250  -74.948100
  C    -68.507100    1.316190  -75.794400
  C    -68.111500    0.103687  -75.180300
  C    -67.532000    0.360368  -73.977300
  H    -68.265400   -0.864668  -75.543100
  C    -69.060500    1.284180  -77.209000
  H    -69.489700    0.249903  -77.389700
  H    -68.273200    1.259900  -77.911500
  C    -70.161100    2.368120  -77.516000
  H    -69.618400    3.286140  -77.669400
  H    -70.615700    2.044070  -78.453900
  C    -71.361400    2.510730  -76.551600
  H    -71.035400    3.093280  -75.666700
  H    -72.293300    2.866090  -77.076000
  H    -71.642800    1.509300  -76.046800
  S    -65.472600   -1.375420  -73.214300
  C    -65.747700   -2.458470  -71.858800
  C    -67.004300   -2.300980  -71.428900
  C    -67.759400   -1.266660  -72.084600
  C    -67.023500   -0.634089  -73.073800
  H    -67.363400   -3.014240  -70.763600
  C    -69.111100   -0.932968  -71.649400
  H    -69.370300   -0.257660  -72.401500
  H    -68.930200   -0.255367  -70.786600
  C    -70.099100   -2.095470  -71.401400
  H    -70.888800   -1.609220  -70.939100
  H    -69.817800   -2.805420  -70.633300
  C    -70.819700   -2.653030  -72.643300
  H    -71.839800   -2.957780  -72.403600
  H    -70.230500   -3.504310  -73.112600
  H    -71.054500   -1.832860  -73.391800
  H    -68.529900    3.497170  -75.282200
  H    -65.006100   -3.163990  -71.459600

 Total Charge           Charge          ....    0
 Multiplicity           Mult            ....    1
 Number of Electrons    NEL             ....  134
 Basis Dimension        Dim             ....  322

ORBITAL ENERGIES
----------------

  NO   OCC          E(Eh)            E(eV)
   0   2.0000     -88.970832     -2421.0194
   1   2.0000     -88.956343     -2420.6251
   2   2.0000     -10.321897      -280.8731
   3   2.0000     -10.321818      -280.8709
   4   2.0000     -10.312442      -280.6158
   5   2.0000     -10.311485      -280.5898
   6   2.0000     -10.307771      -280.4887
   7   2.0000     -10.295696      -280.1601
   8   2.0000     -10.290729      -280.0250
   9   2.0000     -10.290225      -280.0112
  10   2.0000     -10.290112      -280.0082
  11   2.0000     -10.288611      -279.9673
  12   2.0000     -10.287655      -279.9413
  13   2.0000     -10.283086      -279.8170
  14   2.0000     -10.280328      -279.7420
  15   2.0000     -10.277851      -279.6746
  16   2.0000      -8.085366      -220.0140
  17   2.0000      -8.071703      -219.6422
  18   2.0000      -6.043760      -164.4591
  19   2.0000      -6.040075      -164.3588
  20   2.0000      -6.036088      -164.2503
  21   2.0000      -6.030225      -164.0908
  22   2.0000      -6.026131      -163.9794
  23   2.0000      -6.022407      -163.8780
  24   2.0000      -1.009381       -27.4667
  25   2.0000      -0.983842       -26.7717
  26   2.0000      -0.910882       -24.7863
  27   2.0000      -0.904977       -24.6257
  28   2.0000      -0.868610       -23.6361
  29   2.0000      -0.853444       -23.2234
  30   2.0000      -0.847885       -23.0721
  31   2.0000      -0.812699       -22.1147
  32   2.0000      -0.781750       -21.2725
  33   2.0000      -0.765760       -20.8374
  34   2.0000      -0.709948       -19.3187
  35   2.0000      -0.701989       -19.1021
  36   2.0000      -0.695770       -18.9329
  37   2.0000      -0.650697       -17.7064
  38   2.0000      -0.644707       -17.5434
  39   2.0000      -0.611959       -16.6523
  40   2.0000      -0.594340       -16.1728
  41   2.0000      -0.574155       -15.6235
  42   2.0000      -0.553336       -15.0570
  43   2.0000      -0.549796       -14.9607
  44   2.0000      -0.542129       -14.7521
  45   2.0000      -0.534425       -14.5425
  46   2.0000      -0.526708       -14.3324
  47   2.0000      -0.510427       -13.8894
  48   2.0000      -0.497268       -13.5313
  49   2.0000      -0.493961       -13.4414
  50   2.0000      -0.486794       -13.2463
  51   2.0000      -0.474097       -12.9008
  52   2.0000      -0.469568       -12.7776
  53   2.0000      -0.465917       -12.6783
  54   2.0000      -0.461468       -12.5572
  55   2.0000      -0.446041       -12.1374
  56   2.0000      -0.442524       -12.0417
  57   2.0000      -0.437188       -11.8965
  58   2.0000      -0.432083       -11.7576
  59   2.0000      -0.429786       -11.6951
  60   2.0000      -0.417269       -11.3545
  61   2.0000      -0.411869       -11.2075
  62   2.0000      -0.403507       -10.9800
  63   2.0000      -0.338076        -9.1995
  64   2.0000      -0.328961        -8.9515
  65   2.0000      -0.310132        -8.4391
  66   2.0000      -0.302611        -8.2345
  67   0.0000       0.037773         1.0279
  68   0.0000       0.061258         1.6669
  69   0.0000       0.102375         2.7858
  70   0.0000       0.124097         3.3768
  71   0.0000       0.133565         3.6345

MULLIKEN ATOMIC CHARGES
-----------------------
   0 S :    0.139512
   1 C :   -0.125093
   2 C :   -0.112761
   3 C :    0.070565
   4 C :   -0.210721
   5 H :   -0.001714
   6 C :    0.058343
   7 H :    0.018715
   8 H :    0.035136
   9 C :   -0.077749
  10 H :    0.034819
  11 H :    0.030079
  12 C :   -0.087817
  13 H :    0.037527
  14 H :    0.056412
  15 H :    0.037252
  16 S :    0.096618
  17 C :   -0.106132
  18 C :    0.004012
  19 C :   -0.055819
  20 C :   -0.155874
  21 H :   -0.009555
  22 C :    0.099550
  23 H :    0.000949
  24 H :    0.043316
  25 C :   -0.022618
  26 H :    0.003941
  27 H :    0.031549
  28 C :   -0.077749
  29 H :    0.031647
  30 H :    0.054290
  31 H :    0.037513
  32 H :    0.057633
  33 H :    0.064220
Sum of atomic charges:    0.0000000

LOEWDIN ATOMIC CHARGES
----------------------
   0 S :    0.427082
   1 C :   -0.220598
   2 C :   -0.051428
   3 C :   -0.047116
   4 C :   -0.195437
   5 H :    0.028719
   6 C :   -0.033305
   7 H :    0.031927
   8 H :    0.029138
   9 C :   -0.044904
  10 H :    0.020581
  11 H :    0.026928
  12 C :   -0.080668
  13 H :    0.026419
  14 H :    0.035128
  15 H :    0.034559
  16 S :    0.397586
  17 C :   -0.179034
  18 C :   -0.073010
  19 C :   -0.053718
  20 C :   -0.229026
  21 H :    0.019613
  22 C :   -0.033273
  23 H :    0.024665
  24 H :    0.045786
  25 C :   -0.041276
  26 H :    0.022630
  27 H :    0.026459
  28 C :   -0.070297
  29 H :    0.025206
  30 H :    0.031380
  31 H :    0.034696
  32 H :    0.027721
  33 H :    0.036865

  Mayer bond orders larger than 0.100000
B(  0-S ,  1-C ) :   1.1466 B(  0-S ,  4-C ) :   1.1648 B(  1-C ,  2-C ) :   1.5607
B(  1-C ,  4-C ) :   0.1098 B(  1-C , 32-H ) :   0.9656 B(  2-C ,  3-C ) :   1.2514
B(  2-C ,  6-C ) :   1.0209 B(  3-C ,  4-C ) :   1.5720 B(  3-C ,  5-H ) :   1.0091
B(  4-C , 20-C ) :   1.0104 B(  6-C ,  7-H ) :   0.9422 B(  6-C ,  8-H ) :   0.9371
B(  6-C ,  9-C ) :   1.0694 B(  9-C , 10-H ) :   0.9567 B(  9-C , 11-H ) :   0.9609
B(  9-C , 12-C ) :   1.0679 B( 12-C , 13-H ) :   0.9714 B( 12-C , 14-H ) :   0.9764
B( 12-C , 15-H ) :   0.9739 B( 16-S , 17-C ) :   1.1461 B( 16-S , 20-C ) :   1.1346
B( 17-C , 18-C ) :   1.6316 B( 17-C , 33-H ) :   0.9644 B( 18-C , 19-C ) :   1.2220
B( 18-C , 21-H ) :   1.0004 B( 19-C , 20-C ) :   1.5958 B( 19-C , 22-C ) :   1.0449
B( 22-C , 23-H ) :   0.9159 B( 22-C , 24-H ) :   0.9222 B( 22-C , 25-C ) :   1.0763
B( 25-C , 26-H ) :   0.9426 B( 25-C , 27-H ) :   0.9544 B( 25-C , 28-C ) :   1.0673
B( 28-C , 29-H ) :   0.9776 B( 28-C , 30-H ) :   0.9775 B( 28-C , 31-H ) :   0.9702

Dispersion correction           -0.014953741
FINAL SINGLE POINT ENERGY     -1339.844439754281

DIPOLE MOMENT
-------------
                                X             Y             Z
Electronic contribution:     26.20912       1.80135       7.17195
Nuclear contribution   :    -26.77487      -2.03073      -7.30566
                        -----------------------------------------
Total Dipole Moment    :     -0.56575      -0.22938      -0.13371
                        -----------------------------------------
Magnitude (a.u.)       :      0.62495
Magnitude (Debye)      :      1.58850

Rotational constants in cm-1:     0.020023     0.008697     0.007057
Rotational constants in MHz :   600.262149   260.719776   211.555968

                             ****ORCA TERMINATED NORMALLY****
TOTAL RUN TIME: 0 days 0 hours 0 minutes 22 seconds 69 msec
