                         Program Version 4.2.1 -  RELEASE  -
|  1> ! wB97X-D3 SP def2-SVP
|  2> %pal
|  3> nprocs 24
|  4> end
|  5>
|  6> * xyz 0 1
|  7> S 	 2.15564 	 -17.6993 	 -106.133
|  8> C 	 1.50253 	 -18.9297 	 -107.119
|  9> C 	 0.676599 	 -19.8102 	 -106.443
| 10> C 	 0.657017 	 -19.4783 	 -105.007
| 11> C 	 1.25572 	 -18.2892 	 -104.749
| 12> H 	 0.112279 	 -20.0175 	 -104.252
| 13> C 	 -0.117055 	 -21.0074 	 -106.978
| 14> H 	 -0.786259 	 -20.6213 	 -107.751
| 15> H 	 -0.700901 	 -21.3577 	 -106.148
| 16> C 	 0.747377 	 -22.085 	 -107.515
| 17> H 	 1.22669 	 -21.598 	 -108.32
| 18> H 	 1.49635 	 -22.3601 	 -106.687
| 19> C 	 0.139239 	 -23.336 	 -108.218
| 20> H 	 0.790785 	 -23.9157 	 -108.807
| 21> H 	 -0.267027 	 -24.0916 	 -107.523
| 22> H 	 -0.62017 	 -23.1181 	 -108.997
| 23> S 	 1.40311 	 -18.4681 	 -101.998
| 24> C 	 1.51663 	 -17.017 	 -101.099
| 25> C 	 1.2882 	 -15.9286 	 -101.885
| 26> C 	 1.03423 	 -16.1879 	 -103.235
| 27> C 	 1.17652 	 -17.5213 	 -103.488
| 28> H 	 1.32302 	 -14.901 	 -101.449
| 29> C 	 0.590872 	 -15.0541 	 -104.162
| 30> H 	 0.106783 	 -15.5868 	 -105.032
| 31> H 	 1.50051 	 -14.5922 	 -104.578
| 32> C 	 -0.437073 	 -14.0228 	 -103.601
| 33> H 	 0.0611842 	 -13.4195 	 -102.84
| 34> H 	 -1.07347 	 -14.6451 	 -103.013
| 35> C 	 -1.30891 	 -13.1636 	 -104.51
| 36> H 	 -1.62134 	 -12.2319 	 -104.066
| 37> H 	 -2.22756 	 -13.6774 	 -104.829
| 38> H 	 -0.76438 	 -13.082 	 -105.472
| 39> H 	 1.85951 	 -19.0581 	 -108.103
| 40> H 	 1.75953 	 -16.9877 	 -100.075
| 41> *
| 42>
| 43>                          ****END OF INPUT****

CARTESIAN COORDINATES (ANGSTROEM)
---------------------------------
  S      2.155640  -17.699300  -106.133000
  C      1.502530  -18.929700  -107.119000
  C      0.676599  -19.810200  -106.443000
  C      0.657017  -19.478300  -105.007000
  C      1.255720  -18.289200  -104.749000
  H      0.112279  -20.017500  -104.252000
  C     -0.117055  -21.007400  -106.978000
  H     -0.786259  -20.621300  -107.751000
  H     -0.700901  -21.357700  -106.148000
  C      0.747377  -22.085000  -107.515000
  H      1.226690  -21.598000  -108.320000
  H      1.496350  -22.360100  -106.687000
  C      0.139239  -23.336000  -108.218000
  H      0.790785  -23.915700  -108.807000
  H     -0.267027  -24.091600  -107.523000
  H     -0.620170  -23.118100  -108.997000
  S      1.403110  -18.468100  -101.998000
  C      1.516630  -17.017000  -101.099000
  C      1.288200  -15.928600  -101.885000
  C      1.034230  -16.187900  -103.235000
  C      1.176520  -17.521300  -103.488000
  H      1.323020  -14.901000  -101.449000
  C      0.590872  -15.054100  -104.162000
  H      0.106783  -15.586800  -105.032000
  H      1.500510  -14.592200  -104.578000
  C     -0.437073  -14.022800  -103.601000
  H      0.061184  -13.419500  -102.840000
  H     -1.073470  -14.645100  -103.013000
  C     -1.308910  -13.163600  -104.510000
  H     -1.621340  -12.231900  -104.066000
  H     -2.227560  -13.677400  -104.829000
  H     -0.764380  -13.082000  -105.472000
  H      1.859510  -19.058100  -108.103000
  H      1.759530  -16.987700  -100.075000

 Total Charge           Charge          ....    0
 Multiplicity           Mult            ....    1
 Number of Electrons    NEL             ....  134
 Basis Dimension        Dim             ....  322

ORBITAL ENERGIES
----------------

  NO   OCC          E(Eh)            E(eV)
   0   2.0000     -88.966010     -2420.8882
   1   2.0000     -88.963611     -2420.8229
   2   2.0000     -10.326631      -281.0019
   3   2.0000     -10.326297      -280.9928
   4   2.0000     -10.308338      -280.5041
   5   2.0000     -10.308145      -280.4989
   6   2.0000     -10.304851      -280.4093
   7   2.0000     -10.298948      -280.2486
   8   2.0000     -10.298238      -280.2293
   9   2.0000     -10.292453      -280.0719
  10   2.0000     -10.289095      -279.9805
  11   2.0000     -10.288179      -279.9556
  12   2.0000     -10.287966      -279.9498
  13   2.0000     -10.284737      -279.8619
  14   2.0000     -10.281097      -279.7629
  15   2.0000     -10.279563      -279.7211
  16   2.0000      -8.081387      -219.9057
  17   2.0000      -8.078893      -219.8379
  18   2.0000      -6.039904      -164.3541
  19   2.0000      -6.037345      -164.2845
  20   2.0000      -6.035809      -164.2427
  21   2.0000      -6.033472      -164.1791
  22   2.0000      -6.032110      -164.1421
  23   2.0000      -6.029553      -164.0725
  24   2.0000      -1.010347       -27.4929
  25   2.0000      -0.989714       -26.9315
  26   2.0000      -0.914758       -24.8918
  27   2.0000      -0.905106       -24.6292
  28   2.0000      -0.868838       -23.6423
  29   2.0000      -0.856199       -23.2984
  30   2.0000      -0.846270       -23.0282
  31   2.0000      -0.812197       -22.1010
  32   2.0000      -0.787041       -21.4165
  33   2.0000      -0.776543       -21.1308
  34   2.0000      -0.706160       -19.2156
  35   2.0000      -0.700754       -19.0685
  36   2.0000      -0.695436       -18.9238
  37   2.0000      -0.660926       -17.9847
  38   2.0000      -0.643384       -17.5074
  39   2.0000      -0.610978       -16.6255
  40   2.0000      -0.599881       -16.3236
  41   2.0000      -0.574166       -15.6239
  42   2.0000      -0.562708       -15.3121
  43   2.0000      -0.559725       -15.2309
  44   2.0000      -0.531291       -14.4572
  45   2.0000      -0.518808       -14.1175
  46   2.0000      -0.515339       -14.0231
  47   2.0000      -0.510633       -13.8950
  48   2.0000      -0.509350       -13.8601
  49   2.0000      -0.501010       -13.6332
  50   2.0000      -0.487649       -13.2696
  51   2.0000      -0.480580       -13.0772
  52   2.0000      -0.475721       -12.9450
  53   2.0000      -0.470575       -12.8050
  54   2.0000      -0.461353       -12.5540
  55   2.0000      -0.455260       -12.3882
  56   2.0000      -0.448122       -12.1940
  57   2.0000      -0.434353       -11.8194
  58   2.0000      -0.428284       -11.6542
  59   2.0000      -0.424242       -11.5442
  60   2.0000      -0.415797       -11.3144
  61   2.0000      -0.410292       -11.1646
  62   2.0000      -0.410027       -11.1574
  63   2.0000      -0.354941        -9.6584
  64   2.0000      -0.333954        -9.0874
  65   2.0000      -0.327706        -8.9173
  66   2.0000      -0.287942        -7.8353
  67   0.0000       0.032594         0.8869
  68   0.0000       0.077587         2.1112
  69   0.0000       0.104644         2.8475
  70   0.0000       0.117855         3.2070
  71   0.0000       0.139570         3.7979

MULLIKEN ATOMIC CHARGES
-----------------------
   0 S :    0.122974
   1 C :   -0.120541
   2 C :   -0.117185
   3 C :    0.007244
   4 C :   -0.128637
   5 H :    0.013406
   6 C :    0.129989
   7 H :    0.031986
   8 H :    0.008789
   9 C :   -0.095639
  10 H :    0.015380
  11 H :    0.048533
  12 C :   -0.031625
  13 H :    0.016447
  14 H :    0.031324
  15 H :    0.023614
  16 S :    0.100378
  17 C :   -0.066528
  18 C :   -0.056463
  19 C :   -0.051556
  20 C :   -0.166795
  21 H :    0.028550
  22 C :    0.064234
  23 H :    0.032875
  24 H :    0.042674
  25 C :   -0.086405
  26 H :    0.026064
  27 H :    0.022233
  28 C :   -0.025591
  29 H :    0.040793
  30 H :    0.030277
  31 H :    0.032782
  32 H :    0.036850
  33 H :    0.039569
Sum of atomic charges:   -0.0000000

LOEWDIN ATOMIC CHARGES
----------------------
   0 S :    0.424188
   1 C :   -0.206770
   2 C :   -0.052548
   3 C :   -0.066347
   4 C :   -0.190364
   5 H :    0.027002
   6 C :   -0.028631
   7 H :    0.034508
   8 H :    0.023720
   9 C :   -0.045902
  10 H :    0.018865
  11 H :    0.037652
  12 C :   -0.073016
  13 H :    0.021003
  14 H :    0.025663
  15 H :    0.029322
  16 S :    0.406755
  17 C :   -0.187746
  18 C :   -0.076634
  19 C :   -0.067221
  20 C :   -0.181413
  21 H :    0.036983
  22 C :   -0.034394
  23 H :    0.033723
  24 H :    0.031933
  25 C :   -0.047479
  26 H :    0.020985
  27 H :    0.022748
  28 C :   -0.064712
  29 H :    0.029107
  30 H :    0.029012
  31 H :    0.031429
  32 H :    0.017277
  33 H :    0.021304

  Mayer bond orders larger than 0.100000
B(  0-S ,  1-C ) :   1.1442 B(  0-S ,  4-C ) :   1.1448 B(  1-C ,  2-C ) :   1.6187
B(  1-C , 32-H ) :   0.9727 B(  2-C ,  3-C ) :   1.2347 B(  2-C ,  6-C ) :   1.0169
B(  3-C ,  4-C ) :   1.5904 B(  3-C ,  5-H ) :   0.9901 B(  4-C , 20-C ) :   1.0207
B(  6-C ,  7-H ) :   0.9319 B(  6-C ,  8-H ) :   0.9354 B(  6-C ,  9-C ) :   1.0702
B(  9-C , 10-H ) :   0.9566 B(  9-C , 11-H ) :   0.9556 B(  9-C , 12-C ) :   1.0778
B( 12-C , 13-H ) :   0.9736 B( 12-C , 14-H ) :   0.9760 B( 12-C , 15-H ) :   0.9700
B( 16-S , 17-C ) :   1.1516 B( 16-S , 20-C ) :   1.1415 B( 17-C , 18-C ) :   1.6139
B( 17-C , 33-H ) :   0.9732 B( 18-C , 19-C ) :   1.2383 B( 18-C , 21-H ) :   0.9834
B( 19-C , 20-C ) :   1.6184 B( 19-C , 22-C ) :   1.0258 B( 22-C , 23-H ) :   0.9390
B( 22-C , 24-H ) :   0.9252 B( 22-C , 25-C ) :   1.0590 B( 25-C , 26-H ) :   0.9512
B( 25-C , 27-H ) :   0.9598 B( 25-C , 28-C ) :   1.0828 B( 28-C , 29-H ) :   0.9740
B( 28-C , 30-H ) :   0.9735 B( 28-C , 31-H ) :   0.9769

Dispersion correction           -0.013421728
FINAL SINGLE POINT ENERGY     -1339.870945872471

DIPOLE MOMENT
-------------
                                X             Y             Z
Electronic contribution:     12.64033       0.92564      12.43761
Nuclear contribution   :    -12.91727      -0.86904     -12.60114
                        -----------------------------------------
Total Dipole Moment    :     -0.27694       0.05660      -0.16353
                        -----------------------------------------
Magnitude (a.u.)       :      0.32656
Magnitude (Debye)      :      0.83005

Rotational constants in cm-1:     0.021923     0.006809     0.005813
Rotational constants in MHz :   657.231441   204.132214   174.262927

                             ****ORCA TERMINATED NORMALLY****
TOTAL RUN TIME: 0 days 0 hours 0 minutes 20 seconds 552 msec
