                         Program Version 4.2.1 -  RELEASE  -
|  1> ! wB97X-D3 SP def2-SVP
|  2> %pal
|  3> nprocs 24
|  4> end
|  5>
|  6> * xyz 0 1
|  7> S 	 -60.9331 	 -59.2722 	 -80.7503
|  8> C 	 -59.8838 	 -60.004 	 -79.4924
|  9> C 	 -58.677 	 -59.3069 	 -79.4573
| 10> C 	 -58.543 	 -58.3164 	 -80.4183
| 11> C 	 -59.7271 	 -58.0433 	 -81.0615
| 12> H 	 -57.6735 	 -57.7291 	 -80.6157
| 13> C 	 -57.6602 	 -59.615 	 -78.3225
| 14> H 	 -57.1681 	 -60.5406 	 -78.4665
| 15> H 	 -58.2489 	 -59.7193 	 -77.4436
| 16> C 	 -56.5956 	 -58.4471 	 -78.1597
| 17> H 	 -56.1722 	 -58.0832 	 -79.0095
| 18> H 	 -57.24 	 -57.7245 	 -77.6182
| 19> C 	 -55.4414 	 -58.9665 	 -77.2916
| 20> H 	 -55.8118 	 -59.5071 	 -76.4486
| 21> H 	 -54.7471 	 -59.5631 	 -77.8121
| 22> H 	 -54.8344 	 -58.1426 	 -76.803
| 23> S 	 -60.1887 	 -57.7051 	 -83.7394
| 24> C 	 -60.0272 	 -56.0642 	 -84.43
| 25> C 	 -60.0873 	 -55.1103 	 -83.4438
| 26> C 	 -59.9295 	 -55.6873 	 -82.1351
| 27> C 	 -59.85 	 -57.0751 	 -82.139
| 28> H 	 -60.1015 	 -54.0842 	 -83.6805
| 29> C 	 -59.7865 	 -54.8362 	 -80.8724
| 30> H 	 -59.3869 	 -55.4986 	 -80.0572
| 31> H 	 -60.7258 	 -54.4788 	 -80.3845
| 32> C 	 -58.8113 	 -53.612 	 -80.9071
| 33> H 	 -58.7872 	 -53.0314 	 -81.808
| 34> H 	 -57.8241 	 -54.0636 	 -81.0801
| 35> C 	 -58.7094 	 -52.8071 	 -79.6741
| 36> H 	 -58.0351 	 -52.0204 	 -79.8811
| 37> H 	 -58.4452 	 -53.3652 	 -78.7437
| 38> H 	 -59.6495 	 -52.3362 	 -79.5989
| 39> H 	 -60.2653 	 -60.771 	 -78.8522
| 40> H 	 -59.933 	 -55.7336 	 -85.4366
| 41> *
| 42>
| 43>                          ****END OF INPUT****

CARTESIAN COORDINATES (ANGSTROEM)
---------------------------------
  S    -60.933100  -59.272200  -80.750300
  C    -59.883800  -60.004000  -79.492400
  C    -58.677000  -59.306900  -79.457300
  C    -58.543000  -58.316400  -80.418300
  C    -59.727100  -58.043300  -81.061500
  H    -57.673500  -57.729100  -80.615700
  C    -57.660200  -59.615000  -78.322500
  H    -57.168100  -60.540600  -78.466500
  H    -58.248900  -59.719300  -77.443600
  C    -56.595600  -58.447100  -78.159700
  H    -56.172200  -58.083200  -79.009500
  H    -57.240000  -57.724500  -77.618200
  C    -55.441400  -58.966500  -77.291600
  H    -55.811800  -59.507100  -76.448600
  H    -54.747100  -59.563100  -77.812100
  H    -54.834400  -58.142600  -76.803000
  S    -60.188700  -57.705100  -83.739400
  C    -60.027200  -56.064200  -84.430000
  C    -60.087300  -55.110300  -83.443800
  C    -59.929500  -55.687300  -82.135100
  C    -59.850000  -57.075100  -82.139000
  H    -60.101500  -54.084200  -83.680500
  C    -59.786500  -54.836200  -80.872400
  H    -59.386900  -55.498600  -80.057200
  H    -60.725800  -54.478800  -80.384500
  C    -58.811300  -53.612000  -80.907100
  H    -58.787200  -53.031400  -81.808000
  H    -57.824100  -54.063600  -81.080100
  C    -58.709400  -52.807100  -79.674100
  H    -58.035100  -52.020400  -79.881100
  H    -58.445200  -53.365200  -78.743700
  H    -59.649500  -52.336200  -79.598900
  H    -60.265300  -60.771000  -78.852200
  H    -59.933000  -55.733600  -85.436600

 Total Charge           Charge          ....    0
 Multiplicity           Mult            ....    1
 Number of Electrons    NEL             ....  134
 Basis Dimension        Dim             ....  322

ORBITAL ENERGIES
----------------

  NO   OCC          E(Eh)            E(eV)
   0   2.0000     -88.966164     -2420.8924
   1   2.0000     -88.965196     -2420.8661
   2   2.0000     -10.327657      -281.0298
   3   2.0000     -10.325507      -280.9713
   4   2.0000     -10.316829      -280.7352
   5   2.0000     -10.314509      -280.6721
   6   2.0000     -10.306936      -280.4660
   7   2.0000     -10.301017      -280.3049
   8   2.0000     -10.295613      -280.1579
   9   2.0000     -10.291294      -280.0403
  10   2.0000     -10.290327      -280.0140
  11   2.0000     -10.288982      -279.9774
  12   2.0000     -10.286275      -279.9038
  13   2.0000     -10.279377      -279.7161
  14   2.0000     -10.276075      -279.6262
  15   2.0000     -10.271214      -279.4939
  16   2.0000      -8.080234      -219.8743
  17   2.0000      -8.079298      -219.8489
  18   2.0000      -6.038679      -164.3208
  19   2.0000      -6.037997      -164.3023
  20   2.0000      -6.034817      -164.2157
  21   2.0000      -6.034031      -164.1943
  22   2.0000      -6.031127      -164.1153
  23   2.0000      -6.029743      -164.0777
  24   2.0000      -1.005655       -27.3653
  25   2.0000      -0.981015       -26.6948
  26   2.0000      -0.908822       -24.7303
  27   2.0000      -0.906875       -24.6773
  28   2.0000      -0.870940       -23.6995
  29   2.0000      -0.852944       -23.2098
  30   2.0000      -0.846301       -23.0290
  31   2.0000      -0.819678       -22.3046
  32   2.0000      -0.780075       -21.2269
  33   2.0000      -0.767442       -20.8832
  34   2.0000      -0.716502       -19.4970
  35   2.0000      -0.698554       -19.0086
  36   2.0000      -0.694940       -18.9103
  37   2.0000      -0.657828       -17.9004
  38   2.0000      -0.646025       -17.5792
  39   2.0000      -0.622913       -16.9503
  40   2.0000      -0.597525       -16.2595
  41   2.0000      -0.577713       -15.7204
  42   2.0000      -0.564810       -15.3693
  43   2.0000      -0.557536       -15.1713
  44   2.0000      -0.529903       -14.4194
  45   2.0000      -0.527975       -14.3669
  46   2.0000      -0.521502       -14.1908
  47   2.0000      -0.507896       -13.8206
  48   2.0000      -0.505015       -13.7422
  49   2.0000      -0.497875       -13.5479
  50   2.0000      -0.488129       -13.2827
  51   2.0000      -0.482662       -13.1339
  52   2.0000      -0.472204       -12.8493
  53   2.0000      -0.467739       -12.7278
  54   2.0000      -0.462504       -12.5854
  55   2.0000      -0.455521       -12.3954
  56   2.0000      -0.446037       -12.1373
  57   2.0000      -0.442194       -12.0327
  58   2.0000      -0.431691       -11.7469
  59   2.0000      -0.429852       -11.6969
  60   2.0000      -0.423556       -11.5255
  61   2.0000      -0.401523       -10.9260
  62   2.0000      -0.398439       -10.8421
  63   2.0000      -0.342440        -9.3183
  64   2.0000      -0.332055        -9.0357
  65   2.0000      -0.326240        -8.8774
  66   2.0000      -0.293706        -7.9922
  67   0.0000       0.034867         0.9488
  68   0.0000       0.052849         1.4381
  69   0.0000       0.106174         2.8892
  70   0.0000       0.126190         3.4338
  71   0.0000       0.131882         3.5887

MULLIKEN ATOMIC CHARGES
-----------------------
   0 S :    0.101018
   1 C :   -0.138137
   2 C :   -0.062902
   3 C :    0.034609
   4 C :   -0.154640
   5 H :    0.010684
   6 C :    0.077624
   7 H :    0.027489
   8 H :    0.024726
   9 C :   -0.070661
  10 H :    0.026489
  11 H :    0.042143
  12 C :   -0.046443
  13 H :    0.018768
  14 H :    0.029722
  15 H :    0.032077
  16 S :    0.106822
  17 C :   -0.077052
  18 C :   -0.016032
  19 C :   -0.000660
  20 C :   -0.167944
  21 H :    0.006752
  22 C :    0.041173
  23 H :    0.026387
  24 H :    0.035023
  25 C :   -0.105608
  26 H :    0.013616
  27 H :    0.008088
  28 C :    0.004395
  29 H :    0.021791
  30 H :    0.045284
  31 H :    0.014456
  32 H :    0.047199
  33 H :    0.043745
Sum of atomic charges:   -0.0000000

LOEWDIN ATOMIC CHARGES
----------------------
   0 S :    0.389897
   1 C :   -0.183636
   2 C :   -0.058650
   3 C :   -0.061366
   4 C :   -0.190978
   5 H :    0.031706
   6 C :   -0.017614
   7 H :    0.022149
   8 H :    0.028065
   9 C :   -0.029490
  10 H :    0.008225
  11 H :    0.033264
  12 C :   -0.063067
  13 H :    0.019554
  14 H :    0.018625
  15 H :    0.031770
  16 S :    0.388613
  17 C :   -0.165778
  18 C :   -0.061133
  19 C :   -0.052396
  20 C :   -0.196186
  21 H :    0.025010
  22 C :   -0.040666
  23 H :    0.034965
  24 H :    0.031264
  25 C :   -0.054392
  26 H :    0.018147
  27 H :    0.022117
  28 C :   -0.057772
  29 H :    0.026710
  30 H :    0.033410
  31 H :    0.019799
  32 H :    0.023237
  33 H :    0.026595

  Mayer bond orders larger than 0.100000
B(  0-S ,  1-C ) :   1.1316 B(  0-S ,  4-C ) :   1.1650 B(  1-C ,  2-C ) :   1.5864
B(  1-C ,  4-C ) :   0.1108 B(  1-C , 32-H ) :   0.9808 B(  2-C ,  3-C ) :   1.2738
B(  2-C ,  6-C ) :   0.9862 B(  3-C ,  4-C ) :   1.5461 B(  3-C ,  5-H ) :   0.9944
B(  4-C , 20-C ) :   1.0312 B(  6-C ,  7-H ) :   0.9442 B(  6-C ,  8-H ) :   0.9468
B(  6-C ,  9-C ) :   1.0648 B(  9-C , 10-H ) :   0.9590 B(  9-C , 11-H ) :   0.9608
B(  9-C , 12-C ) :   1.0851 B( 12-C , 13-H ) :   0.9733 B( 12-C , 14-H ) :   0.9783
B( 12-C , 15-H ) :   0.9718 B( 16-S , 17-C ) :   1.1343 B( 16-S , 20-C ) :   1.1273
B( 17-C , 18-C ) :   1.6392 B( 17-C , 33-H ) :   0.9700 B( 18-C , 19-C ) :   1.2160
B( 18-C , 21-H ) :   0.9955 B( 19-C , 20-C ) :   1.6197 B( 19-C , 22-C ) :   1.0407
B( 22-C , 23-H ) :   0.9361 B( 22-C , 24-H ) :   0.9388 B( 22-C , 25-C ) :   1.0407
B( 25-C , 26-H ) :   0.9552 B( 25-C , 27-H ) :   0.9461 B( 25-C , 28-C ) :   1.0979
B( 28-C , 29-H ) :   0.9657 B( 28-C , 30-H ) :   0.9724 B( 28-C , 31-H ) :   0.9702

Dispersion correction           -0.013562714
FINAL SINGLE POINT ENERGY     -1339.848724986678

DIPOLE MOMENT
-------------
                                X             Y             Z
Electronic contribution:    -19.25049     -14.38602     -21.15014
Nuclear contribution   :     19.73786      14.77607      21.55233
                        -----------------------------------------
Total Dipole Moment    :      0.48737       0.39005       0.40220
                        -----------------------------------------
Magnitude (a.u.)       :      0.74258
Magnitude (Debye)      :      1.88750

Rotational constants in cm-1:     0.015451     0.009289     0.006597
Rotational constants in MHz :   463.208645   278.477944   197.778487

                             ****ORCA TERMINATED NORMALLY****
TOTAL RUN TIME: 0 days 0 hours 0 minutes 20 seconds 95 msec
