                         Program Version 4.2.1 -  RELEASE  -
|  1> ! wB97X-D3 SP def2-SVP
|  2> %pal
|  3> nprocs 24
|  4> end
|  5>
|  6> * xyz 0 1
|  7> S 	 -112.92 	 16.1535 	 -9.70531
|  8> C 	 -112.317 	 16.6283 	 -8.08733
|  9> C 	 -112.329 	 15.4925 	 -7.27258
| 10> C 	 -112.853 	 14.3141 	 -7.93099
| 11> C 	 -113.331 	 14.5267 	 -9.20687
| 12> H 	 -112.895 	 13.3322 	 -7.52104
| 13> C 	 -111.798 	 15.5041 	 -5.82711
| 14> H 	 -112.311 	 14.7334 	 -5.26296
| 15> H 	 -112.075 	 16.433 	 -5.44386
| 16> C 	 -110.255 	 15.3907 	 -5.67939
| 17> H 	 -109.748 	 16.1577 	 -6.32492
| 18> H 	 -110.098 	 15.5715 	 -4.61232
| 19> C 	 -109.741 	 13.9874 	 -6.12649
| 20> H 	 -110.23 	 13.7246 	 -7.12456
| 21> H 	 -108.66 	 13.9781 	 -6.43436
| 22> H 	 -109.895 	 13.1518 	 -5.45412
| 23> S 	 -112.751 	 13.3581 	 -11.6088
| 24> C 	 -113.924 	 12.3376 	 -12.3097
| 25> C 	 -114.924 	 12.0323 	 -11.438
| 26> C 	 -114.926 	 12.7619 	 -10.2324
| 27> C 	 -113.812 	 13.5439 	 -10.1348
| 28> H 	 -115.592 	 11.2913 	 -11.8147
| 29> C 	 -115.968 	 12.5551 	 -9.19593
| 30> H 	 -115.592 	 12.2281 	 -8.26208
| 31> H 	 -116.49 	 11.5845 	 -9.61558
| 32> C 	 -117.036 	 13.6647 	 -9.18874
| 33> H 	 -117.836 	 13.265 	 -8.56864
| 34> H 	 -117.562 	 13.7677 	 -10.1079
| 35> C 	 -116.654 	 14.9402 	 -8.58975
| 36> H 	 -117.465 	 15.6157 	 -8.30133
| 37> H 	 -115.974 	 15.5402 	 -9.21776
| 38> H 	 -116.076 	 14.81 	 -7.7175
| 39> H 	 -111.963 	 17.5961 	 -7.8209
| 40> H 	 -113.79 	 11.7363 	 -13.2223
| 41> *
| 42>
| 43>                          ****END OF INPUT****

CARTESIAN COORDINATES (ANGSTROEM)
---------------------------------
  S    -112.920000   16.153500   -9.705310
  C    -112.317000   16.628300   -8.087330
  C    -112.329000   15.492500   -7.272580
  C    -112.853000   14.314100   -7.930990
  C    -113.331000   14.526700   -9.206870
  H    -112.895000   13.332200   -7.521040
  C    -111.798000   15.504100   -5.827110
  H    -112.311000   14.733400   -5.262960
  H    -112.075000   16.433000   -5.443860
  C    -110.255000   15.390700   -5.679390
  H    -109.748000   16.157700   -6.324920
  H    -110.098000   15.571500   -4.612320
  C    -109.741000   13.987400   -6.126490
  H    -110.230000   13.724600   -7.124560
  H    -108.660000   13.978100   -6.434360
  H    -109.895000   13.151800   -5.454120
  S    -112.751000   13.358100  -11.608800
  C    -113.924000   12.337600  -12.309700
  C    -114.924000   12.032300  -11.438000
  C    -114.926000   12.761900  -10.232400
  C    -113.812000   13.543900  -10.134800
  H    -115.592000   11.291300  -11.814700
  C    -115.968000   12.555100   -9.195930
  H    -115.592000   12.228100   -8.262080
  H    -116.490000   11.584500   -9.615580
  C    -117.036000   13.664700   -9.188740
  H    -117.836000   13.265000   -8.568640
  H    -117.562000   13.767700  -10.107900
  C    -116.654000   14.940200   -8.589750
  H    -117.465000   15.615700   -8.301330
  H    -115.974000   15.540200   -9.217760
  H    -116.076000   14.810000   -7.717500
  H    -111.963000   17.596100   -7.820900
  H    -113.790000   11.736300  -13.222300

 Total Charge           Charge          ....    0
 Multiplicity           Mult            ....    1
 Number of Electrons    NEL             ....  134
 Basis Dimension        Dim             ....  322

ORBITAL ENERGIES
----------------

  NO   OCC          E(Eh)            E(eV)
   0   2.0000     -88.964733     -2420.8535
   1   2.0000     -88.961891     -2420.7761
   2   2.0000     -10.328234      -281.0455
   3   2.0000     -10.325837      -280.9803
   4   2.0000     -10.318600      -280.7834
   5   2.0000     -10.311254      -280.5835
   6   2.0000     -10.306194      -280.4458
   7   2.0000     -10.300948      -280.3030
   8   2.0000     -10.296772      -280.1894
   9   2.0000     -10.295675      -280.1596
  10   2.0000     -10.293685      -280.1054
  11   2.0000     -10.288847      -279.9738
  12   2.0000     -10.284862      -279.8653
  13   2.0000     -10.283324      -279.8235
  14   2.0000     -10.277640      -279.6688
  15   2.0000     -10.260958      -279.2149
  16   2.0000      -8.078485      -219.8267
  17   2.0000      -8.076719      -219.7787
  18   2.0000      -6.037077      -164.2772
  19   2.0000      -6.035131      -164.2243
  20   2.0000      -6.033025      -164.1670
  21   2.0000      -6.031309      -164.1203
  22   2.0000      -6.029272      -164.0648
  23   2.0000      -6.027461      -164.0156
  24   2.0000      -1.007098       -27.4045
  25   2.0000      -0.981930       -26.7197
  26   2.0000      -0.915603       -24.9148
  27   2.0000      -0.907681       -24.6993
  28   2.0000      -0.868150       -23.6236
  29   2.0000      -0.857102       -23.3229
  30   2.0000      -0.836837       -22.7715
  31   2.0000      -0.813802       -22.1447
  32   2.0000      -0.786235       -21.3946
  33   2.0000      -0.773403       -21.0454
  34   2.0000      -0.710274       -19.3275
  35   2.0000      -0.699495       -19.0342
  36   2.0000      -0.695711       -18.9312
  37   2.0000      -0.659273       -17.9397
  38   2.0000      -0.643947       -17.5227
  39   2.0000      -0.615446       -16.7471
  40   2.0000      -0.598895       -16.2967
  41   2.0000      -0.572979       -15.5915
  42   2.0000      -0.551911       -15.0183
  43   2.0000      -0.549926       -14.9643
  44   2.0000      -0.539460       -14.6795
  45   2.0000      -0.530837       -14.4448
  46   2.0000      -0.516366       -14.0510
  47   2.0000      -0.515594       -14.0300
  48   2.0000      -0.506873       -13.7927
  49   2.0000      -0.500789       -13.6272
  50   2.0000      -0.487632       -13.2691
  51   2.0000      -0.480538       -13.0761
  52   2.0000      -0.476287       -12.9604
  53   2.0000      -0.462806       -12.5936
  54   2.0000      -0.456958       -12.4345
  55   2.0000      -0.442894       -12.0518
  56   2.0000      -0.439985       -11.9726
  57   2.0000      -0.433930       -11.8078
  58   2.0000      -0.430317       -11.7095
  59   2.0000      -0.423906       -11.5351
  60   2.0000      -0.418920       -11.3994
  61   2.0000      -0.411344       -11.1932
  62   2.0000      -0.401891       -10.9360
  63   2.0000      -0.341719        -9.2986
  64   2.0000      -0.335083        -9.1181
  65   2.0000      -0.323658        -8.8072
  66   2.0000      -0.297049        -8.0831
  67   0.0000       0.031080         0.8457
  68   0.0000       0.059000         1.6055
  69   0.0000       0.109036         2.9670
  70   0.0000       0.121474         3.3055
  71   0.0000       0.127861         3.4793

MULLIKEN ATOMIC CHARGES
-----------------------
   0 S :    0.102687
   1 C :   -0.114743
   2 C :   -0.108019
   3 C :    0.053232
   4 C :   -0.157786
   5 H :    0.003204
   6 C :    0.095573
   7 H :    0.023082
   8 H :    0.007788
   9 C :   -0.057079
  10 H :    0.039956
  11 H :    0.038380
  12 C :   -0.101120
  13 H :    0.041987
  14 H :    0.039337
  15 H :    0.037442
  16 S :    0.100463
  17 C :   -0.085500
  18 C :   -0.059529
  19 C :    0.031631
  20 C :   -0.194562
  21 H :    0.007195
  22 C :    0.035681
  23 H :    0.028439
  24 H :    0.025719
  25 C :   -0.021407
  26 H :    0.014784
  27 H :    0.016015
  28 C :   -0.009939
  29 H :    0.030567
  30 H :    0.027343
  31 H :    0.006311
  32 H :    0.041196
  33 H :    0.061670
Sum of atomic charges:    0.0000000

LOEWDIN ATOMIC CHARGES
----------------------
   0 S :    0.393144
   1 C :   -0.182302
   2 C :   -0.058093
   3 C :   -0.063431
   4 C :   -0.196570
   5 H :    0.026052
   6 C :   -0.026053
   7 H :    0.028440
   8 H :    0.021730
   9 C :   -0.035901
  10 H :    0.031347
  11 H :    0.025420
  12 C :   -0.083620
  13 H :    0.034940
  14 H :    0.030961
  15 H :    0.021333
  16 S :    0.390229
  17 C :   -0.196085
  18 C :   -0.079439
  19 C :   -0.054445
  20 C :   -0.174595
  21 H :    0.028206
  22 C :   -0.025451
  23 H :    0.024772
  24 H :    0.045312
  25 C :   -0.038970
  26 H :    0.026152
  27 H :    0.023621
  28 C :   -0.068731
  29 H :    0.029183
  30 H :    0.023337
  31 H :    0.019333
  32 H :    0.024009
  33 H :    0.036165

  Mayer bond orders larger than 0.100000
B(  0-S ,  1-C ) :   1.1272 B(  0-S ,  4-C ) :   1.1439 B(  1-C ,  2-C ) :   1.6014
B(  1-C , 32-H ) :   0.9777 B(  2-C ,  3-C ) :   1.2281 B(  2-C ,  6-C ) :   1.0169
B(  3-C ,  4-C ) :   1.5748 B(  3-C ,  5-H ) :   0.9967 B(  4-C , 20-C ) :   1.0465
B(  6-C ,  7-H ) :   0.9455 B(  6-C ,  8-H ) :   0.9359 B(  6-C ,  9-C ) :   1.0695
B(  9-C , 10-H ) :   0.9572 B(  9-C , 11-H ) :   0.9582 B(  9-C , 12-C ) :   1.0634
B( 12-C , 13-H ) :   0.9732 B( 12-C , 14-H ) :   0.9757 B( 12-C , 15-H ) :   0.9782
B( 16-S , 17-C ) :   1.1551 B( 16-S , 20-C ) :   1.1282 B( 17-C , 18-C ) :   1.6485
B( 17-C , 33-H ) :   0.9544 B( 18-C , 19-C ) :   1.2222 B( 18-C , 21-H ) :   0.9885
B( 19-C , 20-C ) :   1.6111 B( 19-C , 22-C ) :   1.0193 B( 22-C , 23-H ) :   0.9441
B( 22-C , 24-H ) :   0.9308 B( 22-C , 25-C ) :   1.0813 B( 25-C , 26-H ) :   0.9453
B( 25-C , 27-H ) :   0.9474 B( 25-C , 28-C ) :   1.0957 B( 28-C , 29-H ) :   0.9674
B( 28-C , 30-H ) :   0.9613 B( 28-C , 31-H ) :   0.9651

Dispersion correction           -0.015634991
FINAL SINGLE POINT ENERGY     -1339.870543149410

DIPOLE MOMENT
-------------
                                X             Y             Z
Electronic contribution:      3.14842       2.14504     -19.57047
Nuclear contribution   :     -3.29105      -2.46526      20.06712
                        -----------------------------------------
Total Dipole Moment    :     -0.14264      -0.32022       0.49665
                        -----------------------------------------
Magnitude (a.u.)       :      0.60790
Magnitude (Debye)      :      1.54516

Rotational constants in cm-1:     0.020561     0.008830     0.007806
Rotational constants in MHz :   616.400321   264.705717   234.004035

                             ****ORCA TERMINATED NORMALLY****
TOTAL RUN TIME: 0 days 0 hours 0 minutes 22 seconds 468 msec
