                         Program Version 4.2.1 -  RELEASE  -
|  1> ! wB97X-D3 SP def2-SVP
|  2> %pal
|  3> nprocs 24
|  4> end
|  5>
|  6> * xyz 0 1
|  7> S 	 -144.674 	 9.08209 	 2.49655
|  8> C 	 -143.511 	 10.3945 	 2.33428
|  9> C 	 -142.422 	 10.1395 	 1.53606
| 10> C 	 -142.453 	 8.76434 	 1.05785
| 11> C 	 -143.599 	 8.1038 	 1.4564
| 12> H 	 -141.755 	 8.23312 	 0.457873
| 13> C 	 -141.348 	 11.0803 	 1.09227
| 14> H 	 -140.481 	 10.476 	 0.948368
| 15> H 	 -141.153 	 11.7168 	 1.98141
| 16> C 	 -141.593 	 11.8637 	 -0.191457
| 17> H 	 -141.355 	 11.2928 	 -1.10791
| 18> H 	 -142.655 	 12.0903 	 -0.358405
| 19> C 	 -140.783 	 13.1161 	 -0.326316
| 20> H 	 -141.003 	 13.5285 	 -1.28408
| 21> H 	 -141.068 	 13.7836 	 0.518218
| 22> H 	 -139.746 	 12.8806 	 -0.373919
| 23> S 	 -144.578 	 5.67003 	 2.25694
| 24> C 	 -145.109 	 4.55207 	 1.09417
| 25> C 	 -144.71 	 4.90624 	 -0.192094
| 26> C 	 -143.977 	 6.18098 	 -0.232733
| 27> C 	 -144.091 	 6.80658 	 0.972364
| 28> H 	 -144.952 	 4.36823 	 -1.11642
| 29> C 	 -143.381 	 6.70249 	 -1.56768
| 30> H 	 -142.407 	 6.16112 	 -1.60647
| 31> H 	 -143.314 	 7.79144 	 -1.53311
| 32> C 	 -144.016 	 6.35814 	 -2.97133
| 33> H 	 -145.093 	 6.29085 	 -2.97845
| 34> H 	 -143.834 	 5.30825 	 -3.22737
| 35> C 	 -143.538 	 7.30496 	 -4.09126
| 36> H 	 -142.439 	 7.22464 	 -4.14637
| 37> H 	 -143.844 	 8.42 	 -3.82618
| 38> H 	 -143.901 	 7.06087 	 -5.05545
| 39> H 	 -143.701 	 11.366 	 2.73594
| 40> H 	 -145.757 	 3.70502 	 1.27612
| 41> *
| 42>
| 43>                          ****END OF INPUT****

CARTESIAN COORDINATES (ANGSTROEM)
---------------------------------
  S    -144.674000    9.082090    2.496550
  C    -143.511000   10.394500    2.334280
  C    -142.422000   10.139500    1.536060
  C    -142.453000    8.764340    1.057850
  C    -143.599000    8.103800    1.456400
  H    -141.755000    8.233120    0.457873
  C    -141.348000   11.080300    1.092270
  H    -140.481000   10.476000    0.948368
  H    -141.153000   11.716800    1.981410
  C    -141.593000   11.863700   -0.191457
  H    -141.355000   11.292800   -1.107910
  H    -142.655000   12.090300   -0.358405
  C    -140.783000   13.116100   -0.326316
  H    -141.003000   13.528500   -1.284080
  H    -141.068000   13.783600    0.518218
  H    -139.746000   12.880600   -0.373919
  S    -144.578000    5.670030    2.256940
  C    -145.109000    4.552070    1.094170
  C    -144.710000    4.906240   -0.192094
  C    -143.977000    6.180980   -0.232733
  C    -144.091000    6.806580    0.972364
  H    -144.952000    4.368230   -1.116420
  C    -143.381000    6.702490   -1.567680
  H    -142.407000    6.161120   -1.606470
  H    -143.314000    7.791440   -1.533110
  C    -144.016000    6.358140   -2.971330
  H    -145.093000    6.290850   -2.978450
  H    -143.834000    5.308250   -3.227370
  C    -143.538000    7.304960   -4.091260
  H    -142.439000    7.224640   -4.146370
  H    -143.844000    8.420000   -3.826180
  H    -143.901000    7.060870   -5.055450
  H    -143.701000   11.366000    2.735940
  H    -145.757000    3.705020    1.276120

 Total Charge           Charge          ....    0
 Multiplicity           Mult            ....    1
 Number of Electrons    NEL             ....  134
 Basis Dimension        Dim             ....  322

ORBITAL ENERGIES
----------------

  NO   OCC          E(Eh)            E(eV)
   0   2.0000     -88.965993     -2420.8878
   1   2.0000     -88.960838     -2420.7475
   2   2.0000     -10.328237      -281.0456
   3   2.0000     -10.323784      -280.9244
   4   2.0000     -10.313503      -280.6447
   5   2.0000     -10.310931      -280.5747
   6   2.0000     -10.308134      -280.4986
   7   2.0000     -10.304379      -280.3964
   8   2.0000     -10.301240      -280.3110
   9   2.0000     -10.296039      -280.1695
  10   2.0000     -10.293417      -280.0981
  11   2.0000     -10.292681      -280.0781
  12   2.0000     -10.291960      -280.0585
  13   2.0000     -10.290881      -280.0291
  14   2.0000     -10.284936      -279.8673
  15   2.0000     -10.274501      -279.5834
  16   2.0000      -8.080091      -219.8704
  17   2.0000      -8.076389      -219.7697
  18   2.0000      -6.038594      -164.3185
  19   2.0000      -6.034962      -164.2197
  20   2.0000      -6.034890      -164.2177
  21   2.0000      -6.030958      -164.1107
  22   2.0000      -6.030687      -164.1033
  23   2.0000      -6.026848      -163.9989
  24   2.0000      -1.002513       -27.2798
  25   2.0000      -0.979509       -26.6538
  26   2.0000      -0.915937       -24.9239
  27   2.0000      -0.903304       -24.5802
  28   2.0000      -0.868565       -23.6348
  29   2.0000      -0.855973       -23.2922
  30   2.0000      -0.844625       -22.9834
  31   2.0000      -0.810962       -22.0674
  32   2.0000      -0.782402       -21.2902
  33   2.0000      -0.772779       -21.0284
  34   2.0000      -0.707662       -19.2565
  35   2.0000      -0.698165       -18.9980
  36   2.0000      -0.692609       -18.8468
  37   2.0000      -0.657511       -17.8918
  38   2.0000      -0.641849       -17.4656
  39   2.0000      -0.615281       -16.7426
  40   2.0000      -0.596497       -16.2315
  41   2.0000      -0.574258       -15.6264
  42   2.0000      -0.566107       -15.4046
  43   2.0000      -0.555951       -15.1282
  44   2.0000      -0.530056       -14.4236
  45   2.0000      -0.528072       -14.3696
  46   2.0000      -0.516919       -14.0661
  47   2.0000      -0.515313       -14.0224
  48   2.0000      -0.504201       -13.7200
  49   2.0000      -0.492669       -13.4062
  50   2.0000      -0.483338       -13.1523
  51   2.0000      -0.478249       -13.0138
  52   2.0000      -0.473172       -12.8757
  53   2.0000      -0.462312       -12.5802
  54   2.0000      -0.461314       -12.5530
  55   2.0000      -0.451014       -12.2727
  56   2.0000      -0.447661       -12.1815
  57   2.0000      -0.439732       -11.9657
  58   2.0000      -0.432705       -11.7745
  59   2.0000      -0.428330       -11.6554
  60   2.0000      -0.422989       -11.5101
  61   2.0000      -0.413736       -11.2583
  62   2.0000      -0.410854       -11.1799
  63   2.0000      -0.344170        -9.3653
  64   2.0000      -0.332411        -9.0454
  65   2.0000      -0.324414        -8.8278
  66   2.0000      -0.291045        -7.9197
  67   0.0000       0.030398         0.8272
  68   0.0000       0.074987         2.0405
  69   0.0000       0.105119         2.8604
  70   0.0000       0.113454         3.0872
  71   0.0000       0.130892         3.5618

MULLIKEN ATOMIC CHARGES
-----------------------
   0 S :    0.107595
   1 C :   -0.104831
   2 C :   -0.099500
   3 C :    0.025972
   4 C :   -0.144523
   5 H :    0.003877
   6 C :    0.095126
   7 H :    0.015337
   8 H :    0.029202
   9 C :   -0.084293
  10 H :    0.019684
  11 H :    0.029099
  12 C :   -0.023730
  13 H :    0.024232
  14 H :    0.041539
  15 H :    0.024137
  16 S :    0.098948
  17 C :   -0.066963
  18 C :   -0.055820
  19 C :   -0.033589
  20 C :   -0.164459
  21 H :    0.023639
  22 C :    0.034313
  23 H :    0.054455
  24 H :    0.041636
  25 C :   -0.082990
  26 H :    0.025441
  27 H :    0.021246
  28 C :   -0.063148
  29 H :    0.034017
  30 H :    0.053584
  31 H :    0.031551
  32 H :    0.031309
  33 H :    0.057906
Sum of atomic charges:   -0.0000000

LOEWDIN ATOMIC CHARGES
----------------------
   0 S :    0.382974
   1 C :   -0.187746
   2 C :   -0.058630
   3 C :   -0.054949
   4 C :   -0.179601
   5 H :    0.027703
   6 C :   -0.033909
   7 H :    0.029798
   8 H :    0.035982
   9 C :   -0.046175
  10 H :    0.025575
  11 H :    0.024130
  12 C :   -0.058105
  13 H :    0.024418
  14 H :    0.029243
  15 H :    0.020847
  16 S :    0.402024
  17 C :   -0.199870
  18 C :   -0.074481
  19 C :   -0.051846
  20 C :   -0.192420
  21 H :    0.030494
  22 C :   -0.031967
  23 H :    0.045122
  24 H :    0.030675
  25 C :   -0.051204
  26 H :    0.019464
  27 H :    0.021018
  28 C :   -0.064937
  29 H :    0.026197
  30 H :    0.039476
  31 H :    0.020583
  32 H :    0.019667
  33 H :    0.030448

  Mayer bond orders larger than 0.100000
B(  0-S ,  1-C ) :   1.1213 B(  0-S ,  4-C ) :   1.1351 B(  1-C ,  2-C ) :   1.6579
B(  1-C , 32-H ) :   0.9673 B(  2-C ,  3-C ) :   1.1857 B(  2-C ,  6-C ) :   1.0309
B(  3-C ,  4-C ) :   1.6194 B(  3-C ,  5-H ) :   0.9985 B(  4-C , 20-C ) :   1.0140
B(  6-C ,  7-H ) :   0.9277 B(  6-C ,  8-H ) :   0.9430 B(  6-C ,  9-C ) :   1.0510
B(  9-C , 10-H ) :   0.9489 B(  9-C , 11-H ) :   0.9610 B(  9-C , 12-C ) :   1.0953
B( 12-C , 13-H ) :   0.9702 B( 12-C , 14-H ) :   0.9764 B( 12-C , 15-H ) :   0.9728
B( 16-S , 17-C ) :   1.1482 B( 16-S , 20-C ) :   1.1256 B( 17-C , 18-C ) :   1.6228
B( 17-C , 33-H ) :   0.9663 B( 18-C , 19-C ) :   1.2020 B( 18-C , 21-H ) :   0.9843
B( 19-C , 20-C ) :   1.6600 B( 19-C , 22-C ) :   1.0279 B( 22-C , 23-H ) :   0.9250
B( 22-C , 24-H ) :   0.9509 B( 22-C , 25-C ) :   1.0522 B( 25-C , 26-H ) :   0.9593
B( 25-C , 27-H ) :   0.9468 B( 25-C , 28-C ) :   1.0848 B( 28-C , 29-H ) :   0.9759
B( 28-C , 30-H ) :   0.9727 B( 28-C , 31-H ) :   0.9728

Dispersion correction           -0.013487336
FINAL SINGLE POINT ENERGY     -1339.869560194340

DIPOLE MOMENT
-------------
                                X             Y             Z
Electronic contribution:    -13.64032     -14.52304      25.82464
Nuclear contribution   :     13.96781      14.68014     -26.62942
                        -----------------------------------------
Total Dipole Moment    :      0.32749       0.15710      -0.80479
                        -----------------------------------------
Magnitude (a.u.)       :      0.88295
Magnitude (Debye)      :      2.24429

Rotational constants in cm-1:     0.016467     0.008865     0.006126
Rotational constants in MHz :   493.677057   265.757895   183.660526

                             ****ORCA TERMINATED NORMALLY****
TOTAL RUN TIME: 0 days 0 hours 0 minutes 21 seconds 117 msec
