                         Program Version 4.2.1 -  RELEASE  -
|  1> ! wB97X-D3 SP def2-SVP
|  2> %pal
|  3> nprocs 24
|  4> end
|  5>
|  6> * xyz 0 1
|  7> S 	 -124.325 	 61.2386 	 -60.336
|  8> C 	 -123.143 	 62.2903 	 -59.7071
|  9> C 	 -123.541 	 62.8408 	 -58.5145
| 10> C 	 -124.789 	 62.318 	 -58.0176
| 11> C 	 -125.375 	 61.4899 	 -58.9787
| 12> H 	 -125.125 	 62.431 	 -56.9805
| 13> C 	 -122.661 	 63.7739 	 -57.7868
| 14> H 	 -122.648 	 64.69 	 -58.4153
| 15> H 	 -121.639 	 63.2737 	 -57.7819
| 16> C 	 -123.094 	 64.2748 	 -56.3774
| 17> H 	 -124.126 	 64.5558 	 -56.4488
| 18> H 	 -122.977 	 63.489 	 -55.6024
| 19> C 	 -122.33 	 65.4272 	 -55.8822
| 20> H 	 -122.547 	 66.359 	 -56.401
| 21> H 	 -122.476 	 65.584 	 -54.7808
| 22> H 	 -121.284 	 65.2154 	 -56.1053
| 23> S 	 -126.826 	 59.1384 	 -58.8458
| 24> C 	 -128.514 	 59.2288 	 -58.4691
| 25> C 	 -128.914 	 60.582 	 -58.4048
| 26> C 	 -127.895 	 61.5043 	 -58.6005
| 27> C 	 -126.675 	 60.8837 	 -58.8555
| 28> H 	 -129.911 	 60.7916 	 -58.1171
| 29> C 	 -128.061 	 62.9405 	 -58.256
| 30> H 	 -127.22 	 63.2363 	 -57.6416
| 31> H 	 -128.994 	 62.8918 	 -57.634
| 32> C 	 -128.223 	 63.8151 	 -59.4393
| 33> H 	 -128.805 	 63.3383 	 -60.2365
| 34> H 	 -127.227 	 64.0278 	 -59.7849
| 35> C 	 -128.828 	 65.1019 	 -59.0065
| 36> H 	 -128.29 	 65.7123 	 -58.3357
| 37> H 	 -129.898 	 64.9984 	 -58.5862
| 38> H 	 -128.739 	 65.6254 	 -59.9566
| 39> H 	 -122.203 	 62.4292 	 -60.2062
| 40> H 	 -129.181 	 58.3549 	 -58.3722
| 41> *
| 42>
| 43>                          ****END OF INPUT****

CARTESIAN COORDINATES (ANGSTROEM)
---------------------------------
  S    -124.325000   61.238600  -60.336000
  C    -123.143000   62.290300  -59.707100
  C    -123.541000   62.840800  -58.514500
  C    -124.789000   62.318000  -58.017600
  C    -125.375000   61.489900  -58.978700
  H    -125.125000   62.431000  -56.980500
  C    -122.661000   63.773900  -57.786800
  H    -122.648000   64.690000  -58.415300
  H    -121.639000   63.273700  -57.781900
  C    -123.094000   64.274800  -56.377400
  H    -124.126000   64.555800  -56.448800
  H    -122.977000   63.489000  -55.602400
  C    -122.330000   65.427200  -55.882200
  H    -122.547000   66.359000  -56.401000
  H    -122.476000   65.584000  -54.780800
  H    -121.284000   65.215400  -56.105300
  S    -126.826000   59.138400  -58.845800
  C    -128.514000   59.228800  -58.469100
  C    -128.914000   60.582000  -58.404800
  C    -127.895000   61.504300  -58.600500
  C    -126.675000   60.883700  -58.855500
  H    -129.911000   60.791600  -58.117100
  C    -128.061000   62.940500  -58.256000
  H    -127.220000   63.236300  -57.641600
  H    -128.994000   62.891800  -57.634000
  C    -128.223000   63.815100  -59.439300
  H    -128.805000   63.338300  -60.236500
  H    -127.227000   64.027800  -59.784900
  C    -128.828000   65.101900  -59.006500
  H    -128.290000   65.712300  -58.335700
  H    -129.898000   64.998400  -58.586200
  H    -128.739000   65.625400  -59.956600
  H    -122.203000   62.429200  -60.206200
  H    -129.181000   58.354900  -58.372200

 Total Charge           Charge          ....    0
 Multiplicity           Mult            ....    1
 Number of Electrons    NEL             ....  134
 Basis Dimension        Dim             ....  322

ORBITAL ENERGIES
----------------

  NO   OCC          E(Eh)            E(eV)
   0   2.0000     -88.965469     -2420.8735
   1   2.0000     -88.965187     -2420.8658
   2   2.0000     -10.325875      -280.9813
   3   2.0000     -10.318575      -280.7827
   4   2.0000     -10.318079      -280.7692
   5   2.0000     -10.304848      -280.4092
   6   2.0000     -10.297031      -280.1965
   7   2.0000     -10.296779      -280.1896
   8   2.0000     -10.296031      -280.1692
   9   2.0000     -10.291699      -280.0514
  10   2.0000     -10.287591      -279.9396
  11   2.0000     -10.285869      -279.8927
  12   2.0000     -10.280540      -279.7477
  13   2.0000     -10.278112      -279.6817
  14   2.0000     -10.274564      -279.5851
  15   2.0000     -10.272979      -279.5420
  16   2.0000      -8.081264      -219.9024
  17   2.0000      -8.079990      -219.8677
  18   2.0000      -6.039561      -164.3448
  19   2.0000      -6.038329      -164.3113
  20   2.0000      -6.035535      -164.2353
  21   2.0000      -6.034342      -164.2028
  22   2.0000      -6.032287      -164.1469
  23   2.0000      -6.031096      -164.1145
  24   2.0000      -1.010156       -27.4877
  25   2.0000      -0.987998       -26.8848
  26   2.0000      -0.922347       -25.0983
  27   2.0000      -0.918076       -24.9821
  28   2.0000      -0.873765       -23.7764
  29   2.0000      -0.859715       -23.3940
  30   2.0000      -0.853497       -23.2248
  31   2.0000      -0.812668       -22.1138
  32   2.0000      -0.780766       -21.2457
  33   2.0000      -0.765450       -20.8290
  34   2.0000      -0.710875       -19.3439
  35   2.0000      -0.693587       -18.8735
  36   2.0000      -0.685974       -18.6663
  37   2.0000      -0.661786       -18.0081
  38   2.0000      -0.641076       -17.4446
  39   2.0000      -0.619831       -16.8665
  40   2.0000      -0.597127       -16.2487
  41   2.0000      -0.579085       -15.7577
  42   2.0000      -0.572122       -15.5682
  43   2.0000      -0.564974       -15.3737
  44   2.0000      -0.533187       -14.5088
  45   2.0000      -0.526498       -14.3267
  46   2.0000      -0.517286       -14.0761
  47   2.0000      -0.510981       -13.9045
  48   2.0000      -0.510417       -13.8892
  49   2.0000      -0.500222       -13.6117
  50   2.0000      -0.498124       -13.5547
  51   2.0000      -0.482237       -13.1223
  52   2.0000      -0.472654       -12.8616
  53   2.0000      -0.462976       -12.5982
  54   2.0000      -0.460696       -12.5362
  55   2.0000      -0.456280       -12.4160
  56   2.0000      -0.445562       -12.1244
  57   2.0000      -0.431900       -11.7526
  58   2.0000      -0.427508       -11.6331
  59   2.0000      -0.424554       -11.5527
  60   2.0000      -0.420222       -11.4348
  61   2.0000      -0.416735       -11.3399
  62   2.0000      -0.404932       -11.0187
  63   2.0000      -0.339665        -9.2428
  64   2.0000      -0.330882        -9.0038
  65   2.0000      -0.325142        -8.8476
  66   2.0000      -0.289595        -7.8803
  67   0.0000       0.031437         0.8554
  68   0.0000       0.068864         1.8739
  69   0.0000       0.116326         3.1654
  70   0.0000       0.127598         3.4721
  71   0.0000       0.131301         3.5729

MULLIKEN ATOMIC CHARGES
-----------------------
   0 S :    0.132441
   1 C :   -0.137226
   2 C :   -0.080117
   3 C :    0.003661
   4 C :   -0.154929
   5 H :    0.046370
   6 C :    0.005417
   7 H :    0.042593
   8 H :    0.051437
   9 C :   -0.076660
  10 H :    0.022937
  11 H :    0.036577
  12 C :   -0.040431
  13 H :    0.028006
  14 H :    0.043932
  15 H :    0.023981
  16 S :    0.120549
  17 C :   -0.114410
  18 C :   -0.047174
  19 C :   -0.005706
  20 C :   -0.183644
  21 H :    0.002721
  22 C :    0.078620
  23 H :    0.015126
  24 H :    0.015316
  25 C :   -0.057548
  26 H :    0.036461
  27 H :    0.028246
  28 C :   -0.033767
  29 H :    0.015751
  30 H :    0.043599
  31 H :    0.026243
  32 H :    0.042626
  33 H :    0.069000
Sum of atomic charges:   -0.0000000

LOEWDIN ATOMIC CHARGES
----------------------
   0 S :    0.438088
   1 C :   -0.216753
   2 C :   -0.069097
   3 C :   -0.068571
   4 C :   -0.202785
   5 H :    0.038780
   6 C :   -0.043351
   7 H :    0.039681
   8 H :    0.041964
   9 C :   -0.049516
  10 H :    0.019435
  11 H :    0.028140
  12 C :   -0.066081
  13 H :    0.022174
  14 H :    0.034197
  15 H :    0.025012
  16 S :    0.420934
  17 C :   -0.198373
  18 C :   -0.071847
  19 C :   -0.055162
  20 C :   -0.211011
  21 H :    0.023299
  22 C :   -0.031553
  23 H :    0.028833
  24 H :    0.031776
  25 C :   -0.039080
  26 H :    0.029387
  27 H :    0.028589
  28 C :   -0.066884
  29 H :    0.016284
  30 H :    0.032572
  31 H :    0.030217
  32 H :    0.025447
  33 H :    0.035258

  Mayer bond orders larger than 0.100000
B(  0-S ,  1-C ) :   1.1466 B(  0-S ,  4-C ) :   1.1840 B(  1-C ,  2-C ) :   1.5880
B(  1-C , 32-H ) :   0.9801 B(  2-C ,  3-C ) :   1.2725 B(  2-C ,  6-C ) :   1.0113
B(  3-C ,  4-C ) :   1.5280 B(  3-C ,  5-H ) :   0.9781 B(  4-C , 20-C ) :   1.0375
B(  6-C ,  7-H ) :   0.9378 B(  6-C ,  8-H ) :   0.9369 B(  6-C ,  9-C ) :   1.0883
B(  9-C , 10-H ) :   0.9454 B(  9-C , 11-H ) :   0.9484 B(  9-C , 12-C ) :   1.0982
B( 12-C , 13-H ) :   0.9725 B( 12-C , 14-H ) :   0.9709 B( 12-C , 15-H ) :   0.9701
B( 16-S , 17-C ) :   1.1812 B( 16-S , 20-C ) :   1.1611 B( 17-C , 18-C ) :   1.5539
B( 17-C , 20-C ) :   0.1152 B( 17-C , 33-H ) :   0.9662 B( 18-C , 19-C ) :   1.2910
B( 18-C , 21-H ) :   0.9936 B( 19-C , 20-C ) :   1.5407 B( 19-C , 22-C ) :   1.0302
B( 22-C , 23-H ) :   0.9191 B( 22-C , 24-H ) :   0.9410 B( 22-C , 25-C ) :   1.0715
B( 25-C , 26-H ) :   0.9581 B( 25-C , 27-H ) :   0.9420 B( 25-C , 28-C ) :   1.0917
B( 28-C , 29-H ) :   0.9678 B( 28-C , 30-H ) :   0.9729 B( 28-C , 31-H ) :   0.9725

Dispersion correction           -0.014120997
FINAL SINGLE POINT ENERGY     -1339.873833739081

DIPOLE MOMENT
-------------
                                X             Y             Z
Electronic contribution:     -0.61721     -27.57588     -12.30534
Nuclear contribution   :      0.66624      28.05987      12.68972
                        -----------------------------------------
Total Dipole Moment    :      0.04903       0.48399       0.38439
                        -----------------------------------------
Magnitude (a.u.)       :      0.62000
Magnitude (Debye)      :      1.57592

Rotational constants in cm-1:     0.017263     0.009020     0.007166
Rotational constants in MHz :   517.528652   270.408727   214.832350

                             ****ORCA TERMINATED NORMALLY****
TOTAL RUN TIME: 0 days 0 hours 0 minutes 21 seconds 955 msec
