                         Program Version 4.2.1 -  RELEASE  -
|  1> ! wB97X-D3 SP def2-SVP
|  2> %pal
|  3> nprocs 24
|  4> end
|  5>
|  6> * xyz 0 1
|  7> S 	 -44.3471 	 -47.8908 	 -78.6838
|  8> C 	 -42.6965 	 -47.7178 	 -79.355
|  9> C 	 -41.8465 	 -48.675 	 -78.9651
| 10> C 	 -42.5023 	 -49.6127 	 -78.087
| 11> C 	 -43.7991 	 -49.2842 	 -77.8348
| 12> H 	 -42.036 	 -50.538 	 -77.6301
| 13> C 	 -40.2975 	 -48.6747 	 -79.1174
| 14> H 	 -39.9202 	 -47.9406 	 -79.9107
| 15> H 	 -39.9649 	 -49.6188 	 -79.5817
| 16> C 	 -39.5535 	 -48.536 	 -77.8021
| 17> H 	 -40.1081 	 -47.8222 	 -77.1923
| 18> H 	 -39.7795 	 -49.5442 	 -77.2575
| 19> C 	 -38.0122 	 -48.3593 	 -77.9177
| 20> H 	 -37.7068 	 -47.5686 	 -78.5335
| 21> H 	 -37.5494 	 -48.1445 	 -76.9284
| 22> H 	 -37.5477 	 -49.2659 	 -78.2706
| 23> S 	 -45.1441 	 -49.0563 	 -75.4316
| 24> C 	 -45.8903 	 -50.4726 	 -74.6794
| 25> C 	 -45.8338 	 -51.5639 	 -75.5265
| 26> C 	 -45.152 	 -51.2371 	 -76.7785
| 27> C 	 -44.6221 	 -49.9641 	 -76.8316
| 28> H 	 -46.2986 	 -52.4907 	 -75.2987
| 29> C 	 -44.8387 	 -52.2879 	 -77.8543
| 30> H 	 -44.6627 	 -53.2655 	 -77.344
| 31> H 	 -43.9442 	 -52.1106 	 -78.3993
| 32> C 	 -45.9364 	 -52.4715 	 -78.871
| 33> H 	 -45.6292 	 -53.1009 	 -79.7137
| 34> H 	 -46.146 	 -51.6121 	 -79.5098
| 35> C 	 -47.2766 	 -52.9926 	 -78.2558
| 36> H 	 -47.1387 	 -53.9684 	 -77.7291
| 37> H 	 -47.8185 	 -53.1174 	 -79.221
| 38> H 	 -47.7577 	 -52.278 	 -77.6017
| 39> H 	 -42.2722 	 -46.9158 	 -79.8503
| 40> H 	 -46.3563 	 -50.4372 	 -73.7607
| 41> *
| 42>
| 43>                          ****END OF INPUT****

CARTESIAN COORDINATES (ANGSTROEM)
---------------------------------
  S    -44.347100  -47.890800  -78.683800
  C    -42.696500  -47.717800  -79.355000
  C    -41.846500  -48.675000  -78.965100
  C    -42.502300  -49.612700  -78.087000
  C    -43.799100  -49.284200  -77.834800
  H    -42.036000  -50.538000  -77.630100
  C    -40.297500  -48.674700  -79.117400
  H    -39.920200  -47.940600  -79.910700
  H    -39.964900  -49.618800  -79.581700
  C    -39.553500  -48.536000  -77.802100
  H    -40.108100  -47.822200  -77.192300
  H    -39.779500  -49.544200  -77.257500
  C    -38.012200  -48.359300  -77.917700
  H    -37.706800  -47.568600  -78.533500
  H    -37.549400  -48.144500  -76.928400
  H    -37.547700  -49.265900  -78.270600
  S    -45.144100  -49.056300  -75.431600
  C    -45.890300  -50.472600  -74.679400
  C    -45.833800  -51.563900  -75.526500
  C    -45.152000  -51.237100  -76.778500
  C    -44.622100  -49.964100  -76.831600
  H    -46.298600  -52.490700  -75.298700
  C    -44.838700  -52.287900  -77.854300
  H    -44.662700  -53.265500  -77.344000
  H    -43.944200  -52.110600  -78.399300
  C    -45.936400  -52.471500  -78.871000
  H    -45.629200  -53.100900  -79.713700
  H    -46.146000  -51.612100  -79.509800
  C    -47.276600  -52.992600  -78.255800
  H    -47.138700  -53.968400  -77.729100
  H    -47.818500  -53.117400  -79.221000
  H    -47.757700  -52.278000  -77.601700
  H    -42.272200  -46.915800  -79.850300
  H    -46.356300  -50.437200  -73.760700

 Total Charge           Charge          ....    0
 Multiplicity           Mult            ....    1
 Number of Electrons    NEL             ....  134
 Basis Dimension        Dim             ....  322

ORBITAL ENERGIES
----------------

  NO   OCC          E(Eh)            E(eV)
   0   2.0000     -88.970621     -2421.0137
   1   2.0000     -88.961967     -2420.7782
   2   2.0000     -10.327352      -281.0215
   3   2.0000     -10.324816      -280.9525
   4   2.0000     -10.316783      -280.7339
   5   2.0000     -10.307283      -280.4754
   6   2.0000     -10.304976      -280.4127
   7   2.0000     -10.302349      -280.3412
   8   2.0000     -10.301331      -280.3135
   9   2.0000     -10.297858      -280.2190
  10   2.0000     -10.297391      -280.2062
  11   2.0000     -10.296248      -280.1752
  12   2.0000     -10.286321      -279.9050
  13   2.0000     -10.281532      -279.7747
  14   2.0000     -10.280948      -279.7588
  15   2.0000     -10.279096      -279.7084
  16   2.0000      -8.085163      -220.0085
  17   2.0000      -8.076780      -219.7803
  18   2.0000      -6.043790      -164.4599
  19   2.0000      -6.039883      -164.3536
  20   2.0000      -6.035609      -164.2373
  21   2.0000      -6.035353      -164.2303
  22   2.0000      -6.031225      -164.1180
  23   2.0000      -6.027513      -164.0170
  24   2.0000      -1.008959       -27.4552
  25   2.0000      -0.983435       -26.7606
  26   2.0000      -0.909747       -24.7555
  27   2.0000      -0.904889       -24.6233
  28   2.0000      -0.871890       -23.7253
  29   2.0000      -0.847063       -23.0498
  30   2.0000      -0.838544       -22.8179
  31   2.0000      -0.816908       -22.2292
  32   2.0000      -0.786855       -21.4114
  33   2.0000      -0.775283       -21.0965
  34   2.0000      -0.709927       -19.3181
  35   2.0000      -0.695831       -18.9345
  36   2.0000      -0.690258       -18.7829
  37   2.0000      -0.666970       -18.1492
  38   2.0000      -0.640586       -17.4312
  39   2.0000      -0.617647       -16.8070
  40   2.0000      -0.593873       -16.1601
  41   2.0000      -0.573142       -15.5960
  42   2.0000      -0.556663       -15.1476
  43   2.0000      -0.546796       -14.8791
  44   2.0000      -0.543590       -14.7918
  45   2.0000      -0.521205       -14.1827
  46   2.0000      -0.515065       -14.0156
  47   2.0000      -0.511951       -13.9309
  48   2.0000      -0.504294       -13.7225
  49   2.0000      -0.499307       -13.5868
  50   2.0000      -0.487846       -13.2750
  51   2.0000      -0.479701       -13.0533
  52   2.0000      -0.472039       -12.8448
  53   2.0000      -0.468453       -12.7473
  54   2.0000      -0.460394       -12.5280
  55   2.0000      -0.454244       -12.3606
  56   2.0000      -0.443734       -12.0746
  57   2.0000      -0.437702       -11.9105
  58   2.0000      -0.430714       -11.7203
  59   2.0000      -0.430234       -11.7073
  60   2.0000      -0.414217       -11.2714
  61   2.0000      -0.407299       -11.0832
  62   2.0000      -0.399956       -10.8833
  63   2.0000      -0.341751        -9.2995
  64   2.0000      -0.336922        -9.1681
  65   2.0000      -0.326928        -8.8962
  66   2.0000      -0.304571        -8.2878
  67   0.0000       0.039481         1.0743
  68   0.0000       0.065725         1.7885
  69   0.0000       0.111972         3.0469
  70   0.0000       0.123433         3.3588
  71   0.0000       0.126366         3.4386

MULLIKEN ATOMIC CHARGES
-----------------------
   0 S :    0.123385
   1 C :   -0.080847
   2 C :   -0.058592
   3 C :   -0.000788
   4 C :   -0.151966
   5 H :    0.044782
   6 C :    0.032425
   7 H :    0.026336
   8 H :    0.026348
   9 C :   -0.113162
  10 H :    0.040978
  11 H :    0.037186
  12 C :   -0.014663
  13 H :    0.024004
  14 H :    0.039651
  15 H :    0.029903
  16 S :    0.094291
  17 C :   -0.065492
  18 C :   -0.010081
  19 C :   -0.034966
  20 C :   -0.171790
  21 H :    0.012221
  22 C :    0.096323
  23 H :    0.024477
  24 H :    0.009372
  25 C :   -0.093078
  26 H :    0.017837
  27 H :    0.021748
  28 C :   -0.076750
  29 H :    0.036161
  30 H :    0.041016
  31 H :    0.052545
  32 H :    0.007633
  33 H :    0.033556
Sum of atomic charges:    0.0000000

LOEWDIN ATOMIC CHARGES
----------------------
   0 S :    0.400256
   1 C :   -0.173515
   2 C :   -0.059813
   3 C :   -0.063917
   4 C :   -0.201898
   5 H :    0.042678
   6 C :   -0.039612
   7 H :    0.030697
   8 H :    0.029240
   9 C :   -0.048630
  10 H :    0.024025
  11 H :    0.033311
  12 C :   -0.060685
  13 H :    0.017311
  14 H :    0.035362
  15 H :    0.026311
  16 S :    0.393602
  17 C :   -0.161473
  18 C :   -0.063151
  19 C :   -0.052612
  20 C :   -0.199487
  21 H :    0.027035
  22 C :   -0.033449
  23 H :    0.032350
  24 H :    0.023790
  25 C :   -0.048843
  26 H :    0.023690
  27 H :    0.025105
  28 C :   -0.070163
  29 H :    0.024940
  30 H :    0.034744
  31 H :    0.023252
  32 H :    0.015306
  33 H :    0.014243

  Mayer bond orders larger than 0.100000
B(  0-S ,  1-C ) :   1.1027 B(  0-S ,  4-C ) :   1.1399 B(  1-C ,  2-C ) :   1.7001
B(  1-C , 32-H ) :   0.9619 B(  2-C ,  3-C ) :   1.1872 B(  2-C ,  6-C ) :   1.0227
B(  3-C ,  4-C ) :   1.6332 B(  3-C ,  5-H ) :   0.9788 B(  4-C , 20-C ) :   1.0099
B(  6-C ,  7-H ) :   0.9473 B(  6-C ,  8-H ) :   0.9373 B(  6-C ,  9-C ) :   1.0479
B(  9-C , 10-H ) :   0.9644 B(  9-C , 11-H ) :   0.9487 B(  9-C , 12-C ) :   1.0708
B( 12-C , 13-H ) :   0.9777 B( 12-C , 14-H ) :   0.9745 B( 12-C , 15-H ) :   0.9743
B( 16-S , 17-C ) :   1.1526 B( 16-S , 20-C ) :   1.1309 B( 17-C , 18-C ) :   1.6074
B( 17-C , 33-H ) :   0.9800 B( 18-C , 19-C ) :   1.2199 B( 18-C , 21-H ) :   0.9955
B( 19-C , 20-C ) :   1.6365 B( 19-C , 22-C ) :   1.0289 B( 22-C , 23-H ) :   0.9424
B( 22-C , 24-H ) :   0.9328 B( 22-C , 25-C ) :   1.0824 B( 25-C , 26-H ) :   0.9544
B( 25-C , 27-H ) :   0.9505 B( 25-C , 28-C ) :   1.0680 B( 28-C , 29-H ) :   0.9757
B( 28-C , 30-H ) :   0.9761 B( 28-C , 31-H ) :   0.9734

Dispersion correction           -0.014435897
FINAL SINGLE POINT ENERGY     -1339.870909983324

DIPOLE MOMENT
-------------
                                X             Y             Z
Electronic contribution:    -13.39594      13.28104       7.13905
Nuclear contribution   :     13.86084     -13.65079      -7.21148
                        -----------------------------------------
Total Dipole Moment    :      0.46490      -0.36974      -0.07243
                        -----------------------------------------
Magnitude (a.u.)       :      0.59841
Magnitude (Debye)      :      1.52103

Rotational constants in cm-1:     0.021029     0.007402     0.007006
Rotational constants in MHz :   630.420626   221.897241   210.041236

                             ****ORCA TERMINATED NORMALLY****
TOTAL RUN TIME: 0 days 0 hours 0 minutes 21 seconds 533 msec
