                         Program Version 4.2.1 -  RELEASE  -
|  1> ! wB97X-D3 SP def2-SVP
|  2> %pal
|  3> nprocs 24
|  4> end
|  5>
|  6> * xyz 0 1
|  7> S 	 -132.977 	 5.31689 	 -0.484368
|  8> C 	 -131.366 	 5.8712 	 -0.752605
|  9> C 	 -130.722 	 6.13701 	 0.456284
| 10> C 	 -131.483 	 5.65201 	 1.5355
| 11> C 	 -132.741 	 5.16345 	 1.22509
| 12> H 	 -131.227 	 5.7356 	 2.59141
| 13> C 	 -129.284 	 6.67607 	 0.605883
| 14> H 	 -128.599 	 5.84368 	 0.628414
| 15> H 	 -129.186 	 7.10579 	 1.59743
| 16> C 	 -128.697 	 7.58951 	 -0.38037
| 17> H 	 -127.691 	 7.69696 	 -0.115448
| 18> H 	 -128.767 	 7.19969 	 -1.37702
| 19> C 	 -129.367 	 8.9955 	 -0.351803
| 20> H 	 -128.943 	 9.75546 	 -0.999611
| 21> H 	 -130.447 	 8.94165 	 -0.589794
| 22> H 	 -129.303 	 9.51328 	 0.631554
| 23> S 	 -135.423 	 4.99136 	 1.79888
| 24> C 	 -135.922 	 3.98562 	 3.15557
| 25> C 	 -134.833 	 3.32513 	 3.62123
| 26> C 	 -133.62 	 3.58279 	 3.05979
| 27> C 	 -133.747 	 4.57141 	 2.08146
| 28> H 	 -134.975 	 2.71832 	 4.46216
| 29> C 	 -132.384 	 2.87551 	 3.44801
| 30> H 	 -132.321 	 2.70074 	 4.54698
| 31> H 	 -131.558 	 3.59893 	 3.30628
| 32> C 	 -132.067 	 1.66749 	 2.54183
| 33> H 	 -131.014 	 1.33888 	 2.63764
| 34> H 	 -132.205 	 1.94428 	 1.48153
| 35> C 	 -132.941 	 0.420834 	 2.83594
| 36> H 	 -133.985 	 0.668958 	 3.09177
| 37> H 	 -132.501 	 -0.176935 	 3.65469
| 38> H 	 -132.963 	 -0.150188 	 1.91351
| 39> H 	 -131.025 	 6.14486 	 -1.77067
| 40> H 	 -136.933 	 3.82024 	 3.42536
| 41> *
| 42>
| 43>                          ****END OF INPUT****

CARTESIAN COORDINATES (ANGSTROEM)
---------------------------------
  S    -132.977000    5.316890   -0.484368
  C    -131.366000    5.871200   -0.752605
  C    -130.722000    6.137010    0.456284
  C    -131.483000    5.652010    1.535500
  C    -132.741000    5.163450    1.225090
  H    -131.227000    5.735600    2.591410
  C    -129.284000    6.676070    0.605883
  H    -128.599000    5.843680    0.628414
  H    -129.186000    7.105790    1.597430
  C    -128.697000    7.589510   -0.380370
  H    -127.691000    7.696960   -0.115448
  H    -128.767000    7.199690   -1.377020
  C    -129.367000    8.995500   -0.351803
  H    -128.943000    9.755460   -0.999611
  H    -130.447000    8.941650   -0.589794
  H    -129.303000    9.513280    0.631554
  S    -135.423000    4.991360    1.798880
  C    -135.922000    3.985620    3.155570
  C    -134.833000    3.325130    3.621230
  C    -133.620000    3.582790    3.059790
  C    -133.747000    4.571410    2.081460
  H    -134.975000    2.718320    4.462160
  C    -132.384000    2.875510    3.448010
  H    -132.321000    2.700740    4.546980
  H    -131.558000    3.598930    3.306280
  C    -132.067000    1.667490    2.541830
  H    -131.014000    1.338880    2.637640
  H    -132.205000    1.944280    1.481530
  C    -132.941000    0.420834    2.835940
  H    -133.985000    0.668958    3.091770
  H    -132.501000   -0.176935    3.654690
  H    -132.963000   -0.150188    1.913510
  H    -131.025000    6.144860   -1.770670
  H    -136.933000    3.820240    3.425360

 Total Charge           Charge          ....    0
 Multiplicity           Mult            ....    1
 Number of Electrons    NEL             ....  134
 Basis Dimension        Dim             ....  322

ORBITAL ENERGIES
----------------

  NO   OCC          E(Eh)            E(eV)
   0   2.0000     -88.965953     -2420.8867
   1   2.0000     -88.964859     -2420.8569
   2   2.0000     -10.326824      -281.0072
   3   2.0000     -10.326301      -280.9929
   4   2.0000     -10.315626      -280.7025
   5   2.0000     -10.311978      -280.6032
   6   2.0000     -10.303982      -280.3856
   7   2.0000     -10.294681      -280.1325
   8   2.0000     -10.291989      -280.0593
   9   2.0000     -10.291766      -280.0532
  10   2.0000     -10.288651      -279.9684
  11   2.0000     -10.288217      -279.9566
  12   2.0000     -10.281450      -279.7725
  13   2.0000     -10.280191      -279.7382
  14   2.0000     -10.277126      -279.6548
  15   2.0000     -10.275405      -279.6080
  16   2.0000      -8.080628      -219.8851
  17   2.0000      -8.080377      -219.8782
  18   2.0000      -6.039042      -164.3307
  19   2.0000      -6.038713      -164.3217
  20   2.0000      -6.035126      -164.2241
  21   2.0000      -6.034702      -164.2126
  22   2.0000      -6.031529      -164.1262
  23   2.0000      -6.031346      -164.1213
  24   2.0000      -1.013654       -27.5829
  25   2.0000      -0.991595       -26.9827
  26   2.0000      -0.919760       -25.0279
  27   2.0000      -0.908410       -24.7191
  28   2.0000      -0.872123       -23.7317
  29   2.0000      -0.851968       -23.1832
  30   2.0000      -0.846069       -23.0227
  31   2.0000      -0.812100       -22.0984
  32   2.0000      -0.785754       -21.3814
  33   2.0000      -0.774759       -21.0823
  34   2.0000      -0.708313       -19.2742
  35   2.0000      -0.706378       -19.2215
  36   2.0000      -0.688876       -18.7453
  37   2.0000      -0.667018       -18.1505
  38   2.0000      -0.641540       -17.4572
  39   2.0000      -0.614134       -16.7114
  40   2.0000      -0.599661       -16.3176
  41   2.0000      -0.582753       -15.8575
  42   2.0000      -0.556329       -15.1385
  43   2.0000      -0.551295       -15.0015
  44   2.0000      -0.547992       -14.9116
  45   2.0000      -0.535114       -14.5612
  46   2.0000      -0.517045       -14.0695
  47   2.0000      -0.508484       -13.8365
  48   2.0000      -0.503316       -13.6959
  49   2.0000      -0.495234       -13.4760
  50   2.0000      -0.489118       -13.3096
  51   2.0000      -0.481248       -13.0954
  52   2.0000      -0.474704       -12.9173
  53   2.0000      -0.464390       -12.6367
  54   2.0000      -0.463426       -12.6105
  55   2.0000      -0.443947       -12.0804
  56   2.0000      -0.437527       -11.9057
  57   2.0000      -0.435551       -11.8520
  58   2.0000      -0.433407       -11.7936
  59   2.0000      -0.428228       -11.6527
  60   2.0000      -0.420861       -11.4522
  61   2.0000      -0.418250       -11.3811
  62   2.0000      -0.412455       -11.2235
  63   2.0000      -0.350758        -9.5446
  64   2.0000      -0.337233        -9.1766
  65   2.0000      -0.330862        -9.0032
  66   2.0000      -0.285194        -7.7605
  67   0.0000       0.025027         0.6810
  68   0.0000       0.071410         1.9432
  69   0.0000       0.110078         2.9954
  70   0.0000       0.124560         3.3894
  71   0.0000       0.139725         3.8021

MULLIKEN ATOMIC CHARGES
-----------------------
   0 S :    0.113198
   1 C :   -0.152402
   2 C :   -0.068715
   3 C :    0.005674
   4 C :   -0.151448
   5 H :    0.020250
   6 C :    0.071720
   7 H :    0.034392
   8 H :    0.011979
   9 C :   -0.015715
  10 H :    0.017781
  11 H :    0.023214
  12 C :   -0.087564
  13 H :    0.029123
  14 H :    0.040975
  15 H :    0.024250
  16 S :    0.099553
  17 C :   -0.077598
  18 C :   -0.024901
  19 C :   -0.013674
  20 C :   -0.161843
  21 H :   -0.005556
  22 C :    0.077109
  23 H :    0.032271
  24 H :    0.006038
  25 C :   -0.073538
  26 H :    0.034511
  27 H :    0.041332
  28 C :   -0.063703
  29 H :    0.033092
  30 H :    0.036225
  31 H :    0.035225
  32 H :    0.064349
  33 H :    0.044394
Sum of atomic charges:   -0.0000000

LOEWDIN ATOMIC CHARGES
----------------------
   0 S :    0.424900
   1 C :   -0.212422
   2 C :   -0.062685
   3 C :   -0.069775
   4 C :   -0.201221
   5 H :    0.031502
   6 C :   -0.029643
   7 H :    0.035514
   8 H :    0.029491
   9 C :   -0.034315
  10 H :    0.023841
  11 H :    0.022033
  12 C :   -0.074799
  13 H :    0.021913
  14 H :    0.027979
  15 H :    0.026237
  16 S :    0.402822
  17 C :   -0.174977
  18 C :   -0.067722
  19 C :   -0.061833
  20 C :   -0.191645
  21 H :    0.022942
  22 C :   -0.038659
  23 H :    0.034750
  24 H :    0.032837
  25 C :   -0.036480
  26 H :    0.027004
  27 H :    0.030267
  28 C :   -0.070969
  29 H :    0.024122
  30 H :    0.025853
  31 H :    0.027097
  32 H :    0.031906
  33 H :    0.024135

  Mayer bond orders larger than 0.100000
B(  0-S ,  1-C ) :   1.1620 B(  0-S ,  4-C ) :   1.1605 B(  1-C ,  2-C ) :   1.5609
B(  1-C ,  4-C ) :   0.1077 B(  1-C , 32-H ) :   0.9654 B(  2-C ,  3-C ) :   1.2775
B(  2-C ,  6-C ) :   1.0080 B(  3-C ,  4-C ) :   1.5575 B(  3-C ,  5-H ) :   0.9881
B(  4-C , 20-C ) :   1.0523 B(  6-C ,  7-H ) :   0.9323 B(  6-C ,  8-H ) :   0.9386
B(  6-C ,  9-C ) :   1.1001 B(  9-C , 10-H ) :   0.9448 B(  9-C , 11-H ) :   0.9481
B(  9-C , 12-C ) :   1.0758 B( 12-C , 13-H ) :   0.9774 B( 12-C , 14-H ) :   0.9773
B( 12-C , 15-H ) :   0.9740 B( 16-S , 17-C ) :   1.1470 B( 16-S , 20-C ) :   1.1636
B( 17-C , 18-C ) :   1.5754 B( 17-C , 20-C ) :   0.1145 B( 17-C , 33-H ) :   0.9757
B( 18-C , 19-C ) :   1.2861 B( 18-C , 21-H ) :   0.9939 B( 19-C , 20-C ) :   1.5345
B( 19-C , 22-C ) :   1.0506 B( 22-C , 23-H ) :   0.9367 B( 22-C , 24-H ) :   0.9173
B( 22-C , 25-C ) :   1.0621 B( 25-C , 26-H ) :   0.9578 B( 25-C , 27-H ) :   0.9601
B( 25-C , 28-C ) :   1.0690 B( 28-C , 29-H ) :   0.9757 B( 28-C , 30-H ) :   0.9779
B( 28-C , 31-H ) :   0.9762

Dispersion correction           -0.014559493
FINAL SINGLE POINT ENERGY     -1339.888670493372

DIPOLE MOMENT
-------------
                                X             Y             Z
Electronic contribution:    -20.76106       2.59506      -3.56697
Nuclear contribution   :     21.31115      -2.73307       3.84189
                        -----------------------------------------
Total Dipole Moment    :      0.55009      -0.13802       0.27492
                        -----------------------------------------
Magnitude (a.u.)       :      0.63026
Magnitude (Debye)      :      1.60199

Rotational constants in cm-1:     0.023591     0.007681     0.006606
Rotational constants in MHz :   707.225994   230.264970   198.046157

                             ****ORCA TERMINATED NORMALLY****
TOTAL RUN TIME: 0 days 0 hours 0 minutes 22 seconds 44 msec
