                         Program Version 4.2.1 -  RELEASE  -
|  1> ! wB97X-D3 SP def2-SVP
|  2> %pal
|  3> nprocs 24
|  4> end
|  5>
|  6> * xyz 0 1
|  7> S 	 -37.2231 	 3.39918 	 3.77974
|  8> C 	 -36.9069 	 2.0445 	 2.69999
|  9> C 	 -35.6126 	 1.52873 	 2.88804
| 10> C 	 -34.9371 	 2.21229 	 3.89234
| 11> C 	 -35.6175 	 3.20116 	 4.50262
| 12> H 	 -33.9612 	 1.94956 	 4.37455
| 13> C 	 -34.9213 	 0.328864 	 2.2688
| 14> H 	 -34.5628 	 -0.203255 	 3.09369
| 15> H 	 -34.0343 	 0.637487 	 1.66391
| 16> C 	 -35.7437 	 -0.612276 	 1.40031
| 17> H 	 -36.346 	 -1.21802 	 2.05961
| 18> H 	 -36.3945 	 -0.0696164 	 0.724169
| 19> C 	 -34.9056 	 -1.6007 	 0.706313
| 20> H 	 -35.6212 	 -2.0971 	 0.0137162
| 21> H 	 -34.1096 	 -1.24107 	 0.14778
| 22> H 	 -34.4152 	 -2.32767 	 1.43463
| 23> S 	 -36.0762 	 4.12144 	 7.09226
| 24> C 	 -34.7916 	 4.95104 	 7.89778
| 25> C 	 -33.7852 	 5.30743 	 7.08976
| 26> C 	 -33.8933 	 4.73122 	 5.83358
| 27> C 	 -35.145 	 4.11693 	 5.57911
| 28> H 	 -32.9339 	 5.86534 	 7.51486
| 29> C 	 -32.7498 	 4.68409 	 4.82967
| 30> H 	 -32.9985 	 4.16855 	 3.93372
| 31> H 	 -32.048 	 3.98113 	 5.35406
| 32> C 	 -32.064 	 6.04141 	 4.50158
| 33> H 	 -31.2942 	 5.98501 	 3.73992
| 34> H 	 -31.6379 	 6.48034 	 5.41003
| 35> C 	 -33.0074 	 6.97935 	 3.72302
| 36> H 	 -33.3208 	 6.45741 	 2.77676
| 37> H 	 -32.4268 	 7.83927 	 3.48786
| 38> H 	 -33.8606 	 7.32462 	 4.22909
| 39> H 	 -37.6223 	 1.58999 	 2.03564
| 40> H 	 -34.7138 	 5.06184 	 8.93198
| 41> *
| 42>
| 43>                          ****END OF INPUT****

CARTESIAN COORDINATES (ANGSTROEM)
---------------------------------
  S    -37.223100    3.399180    3.779740
  C    -36.906900    2.044500    2.699990
  C    -35.612600    1.528730    2.888040
  C    -34.937100    2.212290    3.892340
  C    -35.617500    3.201160    4.502620
  H    -33.961200    1.949560    4.374550
  C    -34.921300    0.328864    2.268800
  H    -34.562800   -0.203255    3.093690
  H    -34.034300    0.637487    1.663910
  C    -35.743700   -0.612276    1.400310
  H    -36.346000   -1.218020    2.059610
  H    -36.394500   -0.069616    0.724169
  C    -34.905600   -1.600700    0.706313
  H    -35.621200   -2.097100    0.013716
  H    -34.109600   -1.241070    0.147780
  H    -34.415200   -2.327670    1.434630
  S    -36.076200    4.121440    7.092260
  C    -34.791600    4.951040    7.897780
  C    -33.785200    5.307430    7.089760
  C    -33.893300    4.731220    5.833580
  C    -35.145000    4.116930    5.579110
  H    -32.933900    5.865340    7.514860
  C    -32.749800    4.684090    4.829670
  H    -32.998500    4.168550    3.933720
  H    -32.048000    3.981130    5.354060
  C    -32.064000    6.041410    4.501580
  H    -31.294200    5.985010    3.739920
  H    -31.637900    6.480340    5.410030
  C    -33.007400    6.979350    3.723020
  H    -33.320800    6.457410    2.776760
  H    -32.426800    7.839270    3.487860
  H    -33.860600    7.324620    4.229090
  H    -37.622300    1.589990    2.035640
  H    -34.713800    5.061840    8.931980

 Total Charge           Charge          ....    0
 Multiplicity           Mult            ....    1
 Number of Electrons    NEL             ....  134
 Basis Dimension        Dim             ....  322

ORBITAL ENERGIES
----------------

  NO   OCC          E(Eh)            E(eV)
   0   2.0000     -88.964873     -2420.8573
   1   2.0000     -88.963995     -2420.8334
   2   2.0000     -10.328682      -281.0577
   3   2.0000     -10.327849      -281.0351
   4   2.0000     -10.315135      -280.6891
   5   2.0000     -10.310065      -280.5511
   6   2.0000     -10.306611      -280.4571
   7   2.0000     -10.299530      -280.2645
   8   2.0000     -10.292152      -280.0637
   9   2.0000     -10.289349      -279.9874
  10   2.0000     -10.288304      -279.9590
  11   2.0000     -10.288056      -279.9522
  12   2.0000     -10.286784      -279.9176
  13   2.0000     -10.279857      -279.7291
  14   2.0000     -10.276507      -279.6380
  15   2.0000     -10.269347      -279.4431
  16   2.0000      -8.079049      -219.8421
  17   2.0000      -8.078954      -219.8395
  18   2.0000      -6.037552      -164.2901
  19   2.0000      -6.037356      -164.2848
  20   2.0000      -6.033727      -164.1861
  21   2.0000      -6.033450      -164.1785
  22   2.0000      -6.029790      -164.0789
  23   2.0000      -6.029769      -164.0784
  24   2.0000      -1.007183       -27.4068
  25   2.0000      -0.988197       -26.8902
  26   2.0000      -0.920513       -25.0484
  27   2.0000      -0.906316       -24.6621
  28   2.0000      -0.870672       -23.6922
  29   2.0000      -0.855664       -23.2838
  30   2.0000      -0.850234       -23.1361
  31   2.0000      -0.816835       -22.2272
  32   2.0000      -0.783240       -21.3130
  33   2.0000      -0.770562       -20.9681
  34   2.0000      -0.710944       -19.3458
  35   2.0000      -0.699473       -19.0336
  36   2.0000      -0.692615       -18.8470
  37   2.0000      -0.653003       -17.7691
  38   2.0000      -0.641637       -17.4598
  39   2.0000      -0.615501       -16.7486
  40   2.0000      -0.600568       -16.3423
  41   2.0000      -0.581809       -15.8318
  42   2.0000      -0.568887       -15.4802
  43   2.0000      -0.550257       -14.9733
  44   2.0000      -0.549063       -14.9408
  45   2.0000      -0.524773       -14.2798
  46   2.0000      -0.521018       -14.1776
  47   2.0000      -0.516869       -14.0647
  48   2.0000      -0.502201       -13.6656
  49   2.0000      -0.494542       -13.4572
  50   2.0000      -0.484813       -13.1924
  51   2.0000      -0.481065       -13.0904
  52   2.0000      -0.470654       -12.8071
  53   2.0000      -0.470194       -12.7946
  54   2.0000      -0.459392       -12.5007
  55   2.0000      -0.448454       -12.2031
  56   2.0000      -0.445297       -12.1171
  57   2.0000      -0.433539       -11.7972
  58   2.0000      -0.428029       -11.6473
  59   2.0000      -0.424484       -11.5508
  60   2.0000      -0.422718       -11.5027
  61   2.0000      -0.420723       -11.4484
  62   2.0000      -0.410072       -11.1586
  63   2.0000      -0.349673        -9.5151
  64   2.0000      -0.332568        -9.0496
  65   2.0000      -0.328567        -8.9408
  66   2.0000      -0.289652        -7.8818
  67   0.0000       0.033934         0.9234
  68   0.0000       0.068076         1.8524
  69   0.0000       0.115457         3.1417
  70   0.0000       0.124886         3.3983
  71   0.0000       0.133715         3.6386

MULLIKEN ATOMIC CHARGES
-----------------------
   0 S :    0.102835
   1 C :   -0.126575
   2 C :   -0.064451
   3 C :   -0.017127
   4 C :   -0.132950
   5 H :    0.031144
   6 C :    0.056567
   7 H :    0.016236
   8 H :    0.037638
   9 C :   -0.062412
  10 H :    0.024323
  11 H :    0.028203
  12 C :   -0.039151
  13 H :    0.037153
  14 H :    0.012334
  15 H :    0.034723
  16 S :    0.100311
  17 C :   -0.063761
  18 C :   -0.044236
  19 C :   -0.043307
  20 C :   -0.144426
  21 H :    0.029396
  22 C :    0.058894
  23 H :    0.013448
  24 H :    0.041741
  25 C :   -0.071191
  26 H :    0.028253
  27 H :    0.029708
  28 C :   -0.041898
  29 H :    0.037302
  30 H :    0.022601
  31 H :    0.031055
  32 H :    0.042918
  33 H :    0.034704
Sum of atomic charges:    0.0000000

LOEWDIN ATOMIC CHARGES
----------------------
   0 S :    0.389290
   1 C :   -0.198083
   2 C :   -0.061907
   3 C :   -0.077727
   4 C :   -0.182492
   5 H :    0.041882
   6 C :   -0.029340
   7 H :    0.026202
   8 H :    0.036648
   9 C :   -0.044827
  10 H :    0.027301
  11 H :    0.020756
  12 C :   -0.061311
  13 H :    0.034829
  14 H :    0.009440
  15 H :    0.033259
  16 S :    0.403776
  17 C :   -0.169366
  18 C :   -0.081882
  19 C :   -0.046419
  20 C :   -0.203030
  21 H :    0.040514
  22 C :   -0.032798
  23 H :    0.022552
  24 H :    0.038189
  25 C :   -0.039369
  26 H :    0.027760
  27 H :    0.019925
  28 C :   -0.057671
  29 H :    0.033446
  30 H :    0.021184
  31 H :    0.015197
  32 H :    0.024393
  33 H :    0.019681

  Mayer bond orders larger than 0.100000
B(  0-S ,  1-C ) :   1.1319 B(  0-S ,  4-C ) :   1.1397 B(  1-C ,  2-C ) :   1.6120
B(  1-C ,  4-C ) :   0.1008 B(  1-C , 32-H ) :   0.9676 B(  2-C ,  3-C ) :   1.2451
B(  2-C ,  6-C ) :   1.0030 B(  3-C ,  4-C ) :   1.6198 B(  3-C ,  5-H ) :   0.9836
B(  4-C , 20-C ) :   0.9964 B(  6-C ,  7-H ) :   0.9396 B(  6-C ,  8-H ) :   0.9390
B(  6-C ,  9-C ) :   1.0810 B(  9-C , 10-H ) :   0.9485 B(  9-C , 11-H ) :   0.9527
B(  9-C , 12-C ) :   1.0969 B( 12-C , 13-H ) :   0.9709 B( 12-C , 14-H ) :   0.9751
B( 12-C , 15-H ) :   0.9710 B( 16-S , 17-C ) :   1.1781 B( 16-S , 20-C ) :   1.1309
B( 17-C , 18-C ) :   1.6087 B( 17-C , 33-H ) :   0.9670 B( 18-C , 19-C ) :   1.2511
B( 18-C , 21-H ) :   0.9887 B( 19-C , 20-C ) :   1.5840 B( 19-C , 22-C ) :   1.0294
B( 22-C , 23-H ) :   0.9391 B( 22-C , 24-H ) :   0.9313 B( 22-C , 25-C ) :   1.0744
B( 25-C , 26-H ) :   0.9596 B( 25-C , 27-H ) :   0.9557 B( 25-C , 28-C ) :   1.0668
B( 28-C , 29-H ) :   0.9743 B( 28-C , 30-H ) :   0.9757 B( 28-C , 31-H ) :   0.9784

Dispersion correction           -0.013792393
FINAL SINGLE POINT ENERGY     -1339.866288254604

DIPOLE MOMENT
-------------
                                X             Y             Z
Electronic contribution:    -17.09899       7.89086      17.30969
Nuclear contribution   :     17.83163      -8.18707     -17.37369
                        -----------------------------------------
Total Dipole Moment    :      0.73263      -0.29621      -0.06401
                        -----------------------------------------
Magnitude (a.u.)       :      0.79283
Magnitude (Debye)      :      2.01522

Rotational constants in cm-1:     0.020791     0.007353     0.006353
Rotational constants in MHz :   623.304621   220.433467   190.453159

                             ****ORCA TERMINATED NORMALLY****
TOTAL RUN TIME: 0 days 0 hours 0 minutes 21 seconds 206 msec
