                         Program Version 4.2.1 -  RELEASE  -
|  1> ! wB97X-D3 SP def2-SVP
|  2> %pal
|  3> nprocs 24
|  4> end
|  5>
|  6> * xyz 0 1
|  7> S 	 -128.258 	 3.5454 	 6.07787
|  8> C 	 -126.687 	 3.49016 	 5.45352
|  9> C 	 -125.758 	 3.62518 	 6.46272
| 10> C 	 -126.364 	 3.87585 	 7.74083
| 11> C 	 -127.726 	 3.89642 	 7.7197
| 12> H 	 -125.91 	 3.985 	 8.7008
| 13> C 	 -124.307 	 3.2828 	 6.1803
| 14> H 	 -123.631 	 3.73993 	 6.89315
| 15> H 	 -124.034 	 3.63813 	 5.15712
| 16> C 	 -124.262 	 1.67118 	 6.03318
| 17> H 	 -124.703 	 1.14719 	 6.90863
| 18> H 	 -124.831 	 1.27231 	 5.1558
| 19> C 	 -122.825 	 1.18279 	 5.83469
| 20> H 	 -122.788 	 0.104387 	 5.89933
| 21> H 	 -122.57 	 1.52398 	 4.83632
| 22> H 	 -122.099 	 1.51973 	 6.60311
| 23> S 	 -130.091 	 4.9358 	 8.58232
| 24> C 	 -130.88 	 4.42112 	 10.0798
| 25> C 	 -130.157 	 3.35182 	 10.5647
| 26> C 	 -128.865 	 3.16503 	 9.92258
| 27> C 	 -128.738 	 3.89035 	 8.77958
| 28> H 	 -130.542 	 2.9756 	 11.4785
| 29> C 	 -127.882 	 2.11627 	 10.4413
| 30> H 	 -128.288 	 1.74326 	 11.3922
| 31> H 	 -126.943 	 2.53761 	 10.6739
| 32> C 	 -127.678 	 0.958648 	 9.43563
| 33> H 	 -126.909 	 0.293722 	 9.79249
| 34> H 	 -127.363 	 1.37203 	 8.44405
| 35> C 	 -128.926 	 0.100056 	 9.36018
| 36> H 	 -129.018 	 -0.69005 	 10.1584
| 37> H 	 -128.974 	 -0.521918 	 8.47711
| 38> H 	 -129.801 	 0.809027 	 9.41485
| 39> H 	 -126.501 	 3.11952 	 4.45748
| 40> H 	 -131.817 	 4.72068 	 10.4935
| 41> *
| 42>
| 43>                          ****END OF INPUT****

CARTESIAN COORDINATES (ANGSTROEM)
---------------------------------
  S    -128.258000    3.545400    6.077870
  C    -126.687000    3.490160    5.453520
  C    -125.758000    3.625180    6.462720
  C    -126.364000    3.875850    7.740830
  C    -127.726000    3.896420    7.719700
  H    -125.910000    3.985000    8.700800
  C    -124.307000    3.282800    6.180300
  H    -123.631000    3.739930    6.893150
  H    -124.034000    3.638130    5.157120
  C    -124.262000    1.671180    6.033180
  H    -124.703000    1.147190    6.908630
  H    -124.831000    1.272310    5.155800
  C    -122.825000    1.182790    5.834690
  H    -122.788000    0.104387    5.899330
  H    -122.570000    1.523980    4.836320
  H    -122.099000    1.519730    6.603110
  S    -130.091000    4.935800    8.582320
  C    -130.880000    4.421120   10.079800
  C    -130.157000    3.351820   10.564700
  C    -128.865000    3.165030    9.922580
  C    -128.738000    3.890350    8.779580
  H    -130.542000    2.975600   11.478500
  C    -127.882000    2.116270   10.441300
  H    -128.288000    1.743260   11.392200
  H    -126.943000    2.537610   10.673900
  C    -127.678000    0.958648    9.435630
  H    -126.909000    0.293722    9.792490
  H    -127.363000    1.372030    8.444050
  C    -128.926000    0.100056    9.360180
  H    -129.018000   -0.690050   10.158400
  H    -128.974000   -0.521918    8.477110
  H    -129.801000    0.809027    9.414850
  H    -126.501000    3.119520    4.457480
  H    -131.817000    4.720680   10.493500

 Total Charge           Charge          ....    0
 Multiplicity           Mult            ....    1
 Number of Electrons    NEL             ....  134
 Basis Dimension        Dim             ....  322

ORBITAL ENERGIES
----------------

  NO   OCC          E(Eh)            E(eV)
   0   2.0000     -88.962301     -2420.7873
   1   2.0000     -88.962073     -2420.7811
   2   2.0000     -10.330067      -281.0954
   3   2.0000     -10.325813      -280.9797
   4   2.0000     -10.318106      -280.7699
   5   2.0000     -10.308582      -280.5108
   6   2.0000     -10.304377      -280.3964
   7   2.0000     -10.303071      -280.3608
   8   2.0000     -10.302804      -280.3536
   9   2.0000     -10.297539      -280.2103
  10   2.0000     -10.295556      -280.1563
  11   2.0000     -10.293973      -280.1132
  12   2.0000     -10.288777      -279.9719
  13   2.0000     -10.281452      -279.7725
  14   2.0000     -10.278418      -279.6900
  15   2.0000     -10.274160      -279.5741
  16   2.0000      -8.077892      -219.8106
  17   2.0000      -8.077430      -219.7981
  18   2.0000      -6.036254      -164.2548
  19   2.0000      -6.036071      -164.2498
  20   2.0000      -6.032125      -164.1425
  21   2.0000      -6.031684      -164.1305
  22   2.0000      -6.028838      -164.0530
  23   2.0000      -6.028185      -164.0353
  24   2.0000      -1.013940       -27.5907
  25   2.0000      -0.990766       -26.9601
  26   2.0000      -0.907715       -24.7002
  27   2.0000      -0.906405       -24.6645
  28   2.0000      -0.873504       -23.7693
  29   2.0000      -0.851225       -23.1630
  30   2.0000      -0.840194       -22.8628
  31   2.0000      -0.825500       -22.4630
  32   2.0000      -0.778178       -21.1753
  33   2.0000      -0.767586       -20.8871
  34   2.0000      -0.706108       -19.2142
  35   2.0000      -0.697155       -18.9705
  36   2.0000      -0.685612       -18.6564
  37   2.0000      -0.667915       -18.1749
  38   2.0000      -0.651500       -17.7282
  39   2.0000      -0.620127       -16.8745
  40   2.0000      -0.591078       -16.0841
  41   2.0000      -0.570738       -15.5306
  42   2.0000      -0.561450       -15.2778
  43   2.0000      -0.554121       -15.0784
  44   2.0000      -0.548226       -14.9180
  45   2.0000      -0.523422       -14.2430
  46   2.0000      -0.521778       -14.1983
  47   2.0000      -0.514491       -14.0000
  48   2.0000      -0.510388       -13.8884
  49   2.0000      -0.498412       -13.5625
  50   2.0000      -0.490158       -13.3379
  51   2.0000      -0.476971       -12.9790
  52   2.0000      -0.470396       -12.8001
  53   2.0000      -0.465554       -12.6684
  54   2.0000      -0.462868       -12.5953
  55   2.0000      -0.446303       -12.1445
  56   2.0000      -0.441861       -12.0237
  57   2.0000      -0.434558       -11.8249
  58   2.0000      -0.426156       -11.5963
  59   2.0000      -0.421404       -11.4670
  60   2.0000      -0.419123       -11.4049
  61   2.0000      -0.414226       -11.2717
  62   2.0000      -0.408583       -11.1181
  63   2.0000      -0.352055        -9.5799
  64   2.0000      -0.329995        -8.9796
  65   2.0000      -0.327756        -8.9187
  66   2.0000      -0.295726        -8.0471
  67   0.0000       0.033530         0.9124
  68   0.0000       0.066467         1.8087
  69   0.0000       0.118250         3.2177
  70   0.0000       0.125436         3.4133
  71   0.0000       0.129762         3.5310

MULLIKEN ATOMIC CHARGES
-----------------------
   0 S :    0.108263
   1 C :   -0.111327
   2 C :   -0.086972
   3 C :    0.030492
   4 C :   -0.151510
   5 H :   -0.000046
   6 C :    0.068041
   7 H :    0.032737
   8 H :    0.031652
   9 C :   -0.130777
  10 H :    0.039875
  11 H :    0.039774
  12 C :   -0.031270
  13 H :    0.030127
  14 H :    0.027410
  15 H :    0.036093
  16 S :    0.101564
  17 C :   -0.086086
  18 C :   -0.028498
  19 C :   -0.063415
  20 C :   -0.139897
  21 H :    0.011817
  22 C :    0.098325
  23 H :    0.012164
  24 H :    0.017055
  25 C :   -0.073459
  26 H :    0.020491
  27 H :    0.063641
  28 C :   -0.072408
  29 H :    0.028494
  30 H :    0.027330
  31 H :    0.044630
  32 H :    0.053786
  33 H :    0.051902
Sum of atomic charges:   -0.0000000

LOEWDIN ATOMIC CHARGES
----------------------
   0 S :    0.426403
   1 C :   -0.210497
   2 C :   -0.065718
   3 C :   -0.064605
   4 C :   -0.188602
   5 H :    0.029786
   6 C :   -0.026132
   7 H :    0.028426
   8 H :    0.035241
   9 C :   -0.041150
  10 H :    0.022989
  11 H :    0.029066
  12 C :   -0.069804
  13 H :    0.024024
  14 H :    0.022914
  15 H :    0.026528
  16 S :    0.410058
  17 C :   -0.174550
  18 C :   -0.070359
  19 C :   -0.060240
  20 C :   -0.208812
  21 H :    0.025765
  22 C :   -0.024471
  23 H :    0.030275
  24 H :    0.021900
  25 C :   -0.042354
  26 H :    0.020063
  27 H :    0.031237
  28 C :   -0.074427
  29 H :    0.026629
  30 H :    0.022382
  31 H :    0.030788
  32 H :    0.027825
  33 H :    0.029420

  Mayer bond orders larger than 0.100000
B(  0-S ,  1-C ) :   1.1623 B(  0-S ,  4-C ) :   1.1658 B(  1-C ,  2-C ) :   1.5773
B(  1-C , 32-H ) :   0.9720 B(  2-C ,  3-C ) :   1.2352 B(  2-C ,  6-C ) :   1.0392
B(  3-C ,  4-C ) :   1.5846 B(  3-C ,  5-H ) :   1.0151 B(  4-C , 20-C ) :   1.0044
B(  6-C ,  7-H ) :   0.9512 B(  6-C ,  8-H ) :   0.9397 B(  6-C ,  9-C ) :   1.0355
B(  9-C , 10-H ) :   0.9618 B(  9-C , 11-H ) :   0.9589 B(  9-C , 12-C ) :   1.0794
B( 12-C , 13-H ) :   0.9735 B( 12-C , 14-H ) :   0.9753 B( 12-C , 15-H ) :   0.9761
B( 16-S , 17-C ) :   1.1430 B( 16-S , 20-C ) :   1.1493 B( 17-C , 18-C ) :   1.6375
B( 17-C , 33-H ) :   0.9701 B( 18-C , 19-C ) :   1.2142 B( 18-C , 21-H ) :   0.9865
B( 19-C , 20-C ) :   1.6065 B( 19-C , 22-C ) :   1.0437 B( 22-C , 23-H ) :   0.9341
B( 22-C , 24-H ) :   0.9330 B( 22-C , 25-C ) :   1.0715 B( 25-C , 26-H ) :   0.9539
B( 25-C , 27-H ) :   0.9554 B( 25-C , 28-C ) :   1.0665 B( 28-C , 29-H ) :   0.9738
B( 28-C , 30-H ) :   0.9723 B( 28-C , 31-H ) :   0.9780

Dispersion correction           -0.015605642
FINAL SINGLE POINT ENERGY     -1339.878492847951

DIPOLE MOMENT
-------------
                                X             Y             Z
Electronic contribution:    -19.56269      20.51280      -1.86189
Nuclear contribution   :     20.03806     -21.04510       2.11947
                        -----------------------------------------
Total Dipole Moment    :      0.47537      -0.53230       0.25758
                        -----------------------------------------
Magnitude (a.u.)       :      0.75873
Magnitude (Debye)      :      1.92853

Rotational constants in cm-1:     0.023272     0.008709     0.007181
Rotational constants in MHz :   697.672063   261.079842   215.281586

                             ****ORCA TERMINATED NORMALLY****
TOTAL RUN TIME: 0 days 0 hours 0 minutes 22 seconds 844 msec
