                         Program Version 4.2.1 -  RELEASE  -
|  1> ! wB97X-D3 SP def2-SVP
|  2> %pal
|  3> nprocs 24
|  4> end
|  5>
|  6> * xyz 0 1
|  7> S 	 -113.829 	 21.5879 	 -114.016
|  8> C 	 -115.41 	 21.5391 	 -114.82
|  9> C 	 -116.239 	 22.5141 	 -114.251
| 10> C 	 -115.651 	 23.2114 	 -113.104
| 11> C 	 -114.338 	 22.8172 	 -112.793
| 12> H 	 -116.233 	 23.9302 	 -112.502
| 13> C 	 -117.701 	 22.5549 	 -114.705
| 14> H 	 -118.321 	 22.5282 	 -113.84
| 15> H 	 -117.954 	 21.735 	 -115.356
| 16> C 	 -117.938 	 23.8534 	 -115.545
| 17> H 	 -117.746 	 24.7227 	 -114.932
| 18> H 	 -117.15 	 23.8395 	 -116.29
| 19> C 	 -119.277 	 24.047 	 -116.223
| 20> H 	 -119.512 	 23.2636 	 -116.979
| 21> H 	 -120.07 	 24.1383 	 -115.551
| 22> H 	 -119.276 	 25.0778 	 -116.752
| 23> S 	 -111.769 	 23.3345 	 -111.971
| 24> C 	 -111.627 	 24.1739 	 -110.429
| 25> C 	 -112.796 	 24.4328 	 -109.814
| 26> C 	 -113.905 	 23.8975 	 -110.47
| 27> C 	 -113.531 	 23.3874 	 -111.75
| 28> H 	 -112.804 	 25.1244 	 -109.015
| 29> C 	 -115.326 	 24.0356 	 -109.885
| 30> H 	 -116.039 	 23.4365 	 -110.472
| 31> H 	 -115.562 	 25.0173 	 -110.226
| 32> C 	 -115.686 	 23.9975 	 -108.368
| 33> H 	 -116.815 	 23.9764 	 -108.31
| 34> H 	 -115.235 	 24.9091 	 -107.946
| 35> C 	 -115.057 	 22.8481 	 -107.523
| 36> H 	 -115.676 	 21.9777 	 -107.509
| 37> H 	 -114.901 	 23.2341 	 -106.535
| 38> H 	 -114.01 	 22.5716 	 -107.905
| 39> H 	 -115.655 	 20.8141 	 -115.536
| 40> H 	 -110.667 	 24.5282 	 -110.1
| 41> *
| 42>
| 43>                          ****END OF INPUT****

CARTESIAN COORDINATES (ANGSTROEM)
---------------------------------
  S    -113.829000   21.587900  -114.016000
  C    -115.410000   21.539100  -114.820000
  C    -116.239000   22.514100  -114.251000
  C    -115.651000   23.211400  -113.104000
  C    -114.338000   22.817200  -112.793000
  H    -116.233000   23.930200  -112.502000
  C    -117.701000   22.554900  -114.705000
  H    -118.321000   22.528200  -113.840000
  H    -117.954000   21.735000  -115.356000
  C    -117.938000   23.853400  -115.545000
  H    -117.746000   24.722700  -114.932000
  H    -117.150000   23.839500  -116.290000
  C    -119.277000   24.047000  -116.223000
  H    -119.512000   23.263600  -116.979000
  H    -120.070000   24.138300  -115.551000
  H    -119.276000   25.077800  -116.752000
  S    -111.769000   23.334500  -111.971000
  C    -111.627000   24.173900  -110.429000
  C    -112.796000   24.432800  -109.814000
  C    -113.905000   23.897500  -110.470000
  C    -113.531000   23.387400  -111.750000
  H    -112.804000   25.124400  -109.015000
  C    -115.326000   24.035600  -109.885000
  H    -116.039000   23.436500  -110.472000
  H    -115.562000   25.017300  -110.226000
  C    -115.686000   23.997500  -108.368000
  H    -116.815000   23.976400  -108.310000
  H    -115.235000   24.909100  -107.946000
  C    -115.057000   22.848100  -107.523000
  H    -115.676000   21.977700  -107.509000
  H    -114.901000   23.234100  -106.535000
  H    -114.010000   22.571600  -107.905000
  H    -115.655000   20.814100  -115.536000
  H    -110.667000   24.528200  -110.100000

 Total Charge           Charge          ....    0
 Multiplicity           Mult            ....    1
 Number of Electrons    NEL             ....  134
 Basis Dimension        Dim             ....  322

ORBITAL ENERGIES
----------------

  NO   OCC          E(Eh)            E(eV)
   0   2.0000     -88.968817     -2420.9646
   1   2.0000     -88.963760     -2420.8270
   2   2.0000     -10.337580      -281.2998
   3   2.0000     -10.333197      -281.1806
   4   2.0000     -10.315461      -280.6980
   5   2.0000     -10.315443      -280.6975
   6   2.0000     -10.312121      -280.6071
   7   2.0000     -10.307154      -280.4719
   8   2.0000     -10.302550      -280.3466
   9   2.0000     -10.301360      -280.3142
  10   2.0000     -10.295811      -280.1633
  11   2.0000     -10.290130      -280.0087
  12   2.0000     -10.288400      -279.9616
  13   2.0000     -10.281812      -279.7823
  14   2.0000     -10.280700      -279.7521
  15   2.0000     -10.279378      -279.7161
  16   2.0000      -8.083151      -219.9537
  17   2.0000      -8.077224      -219.7924
  18   2.0000      -6.041582      -164.3998
  19   2.0000      -6.037973      -164.3016
  20   2.0000      -6.035972      -164.2472
  21   2.0000      -6.033763      -164.1870
  22   2.0000      -6.031905      -164.1365
  23   2.0000      -6.027794      -164.0246
  24   2.0000      -1.002507       -27.2796
  25   2.0000      -0.975402       -26.5420
  26   2.0000      -0.907552       -24.6957
  27   2.0000      -0.904134       -24.6027
  28   2.0000      -0.872285       -23.7361
  29   2.0000      -0.852580       -23.1999
  30   2.0000      -0.839728       -22.8502
  31   2.0000      -0.815585       -22.1932
  32   2.0000      -0.787487       -21.4286
  33   2.0000      -0.769064       -20.9273
  34   2.0000      -0.711744       -19.3675
  35   2.0000      -0.694427       -18.8963
  36   2.0000      -0.693706       -18.8767
  37   2.0000      -0.659854       -17.9555
  38   2.0000      -0.640253       -17.4222
  39   2.0000      -0.620527       -16.8854
  40   2.0000      -0.597063       -16.2469
  41   2.0000      -0.567415       -15.4401
  42   2.0000      -0.561294       -15.2736
  43   2.0000      -0.556636       -15.1468
  44   2.0000      -0.540085       -14.6965
  45   2.0000      -0.523227       -14.2377
  46   2.0000      -0.515372       -14.0240
  47   2.0000      -0.509307       -13.8589
  48   2.0000      -0.507764       -13.8170
  49   2.0000      -0.501411       -13.6441
  50   2.0000      -0.487792       -13.2735
  51   2.0000      -0.480686       -13.0801
  52   2.0000      -0.477918       -13.0048
  53   2.0000      -0.465840       -12.6762
  54   2.0000      -0.459229       -12.4963
  55   2.0000      -0.450850       -12.2683
  56   2.0000      -0.442574       -12.0431
  57   2.0000      -0.432081       -11.7575
  58   2.0000      -0.428890       -11.6707
  59   2.0000      -0.426017       -11.5925
  60   2.0000      -0.422361       -11.4930
  61   2.0000      -0.417082       -11.3494
  62   2.0000      -0.405566       -11.0360
  63   2.0000      -0.359764        -9.7897
  64   2.0000      -0.335872        -9.1395
  65   2.0000      -0.324682        -8.8351
  66   2.0000      -0.278479        -7.5778
  67   0.0000       0.017002         0.4626
  68   0.0000       0.076811         2.0901
  69   0.0000       0.095720         2.6047
  70   0.0000       0.118225         3.2171
  71   0.0000       0.134949         3.6721

MULLIKEN ATOMIC CHARGES
-----------------------
   0 S :    0.083033
   1 C :   -0.111546
   2 C :   -0.092820
   3 C :   -0.001573
   4 C :   -0.106731
   5 H :    0.019351
   6 C :    0.093873
   7 H :    0.021103
   8 H :    0.013046
   9 C :   -0.098038
  10 H :    0.023178
  11 H :    0.024522
  12 C :   -0.036189
  13 H :    0.037876
  14 H :    0.016447
  15 H :    0.040458
  16 S :    0.103276
  17 C :   -0.079280
  18 C :   -0.021254
  19 C :   -0.039292
  20 C :   -0.156613
  21 H :    0.008962
  22 C :    0.038137
  23 H :    0.028755
  24 H :    0.034595
  25 C :   -0.072781
  26 H :    0.050334
  27 H :    0.028830
  28 C :   -0.056437
  29 H :    0.037451
  30 H :    0.029725
  31 H :    0.050695
  32 H :    0.041793
  33 H :    0.047115
Sum of atomic charges:    0.0000000

LOEWDIN ATOMIC CHARGES
----------------------
   0 S :    0.361980
   1 C :   -0.181341
   2 C :   -0.054974
   3 C :   -0.072587
   4 C :   -0.172087
   5 H :    0.031590
   6 C :   -0.021751
   7 H :    0.022604
   8 H :    0.026191
   9 C :   -0.044238
  10 H :    0.020932
  11 H :    0.023333
  12 C :   -0.069307
  13 H :    0.027026
  14 H :    0.012772
  15 H :    0.039581
  16 S :    0.389694
  17 C :   -0.165645
  18 C :   -0.072543
  19 C :   -0.042829
  20 C :   -0.187513
  21 H :    0.029611
  22 C :   -0.041961
  23 H :    0.028776
  24 H :    0.033871
  25 C :   -0.039858
  26 H :    0.038511
  27 H :    0.023699
  28 C :   -0.069188
  29 H :    0.021048
  30 H :    0.023115
  31 H :    0.038215
  32 H :    0.020345
  33 H :    0.022927

  Mayer bond orders larger than 0.100000
B(  0-S ,  1-C ) :   1.1191 B(  0-S ,  4-C ) :   1.1246 B(  1-C ,  2-C ) :   1.6010
B(  1-C , 32-H ) :   0.9804 B(  2-C ,  3-C ) :   1.2359 B(  2-C ,  6-C ) :   1.0368
B(  3-C ,  4-C ) :   1.5478 B(  3-C ,  5-H ) :   0.9820 B(  4-C , 20-C ) :   1.1258
B(  6-C ,  7-H ) :   0.9410 B(  6-C ,  8-H ) :   0.9465 B(  6-C ,  9-C ) :   1.0480
B(  9-C , 10-H ) :   0.9585 B(  9-C , 11-H ) :   0.9565 B(  9-C , 12-C ) :   1.0927
B( 12-C , 13-H ) :   0.9734 B( 12-C , 14-H ) :   0.9722 B( 12-C , 15-H ) :   0.9708
B( 16-S , 17-C ) :   1.1461 B( 16-S , 20-C ) :   1.1298 B( 17-C , 18-C ) :   1.6310
B( 17-C , 33-H ) :   0.9652 B( 18-C , 19-C ) :   1.2318 B( 18-C , 21-H ) :   0.9944
B( 19-C , 20-C ) :   1.5676 B( 19-C , 22-C ) :   1.0246 B( 22-C , 23-H ) :   0.9284
B( 22-C , 24-H ) :   0.9301 B( 22-C , 25-C ) :   1.0677 B( 25-C , 26-H ) :   0.9534
B( 25-C , 27-H ) :   0.9551 B( 25-C , 28-C ) :   1.0771 B( 28-C , 29-H ) :   0.9793
B( 28-C , 30-H ) :   0.9783 B( 28-C , 31-H ) :   0.9721

Dispersion correction           -0.013567512
FINAL SINGLE POINT ENERGY     -1339.865027485528

DIPOLE MOMENT
-------------
                                X             Y             Z
Electronic contribution:     25.94823      -7.10860      -5.51081
Nuclear contribution   :    -26.55893       7.48903       5.90716
                        -----------------------------------------
Total Dipole Moment    :     -0.61070       0.38043       0.39635
                        -----------------------------------------
Magnitude (a.u.)       :      0.82145
Magnitude (Debye)      :      2.08796

Rotational constants in cm-1:     0.018726     0.007654     0.006086
Rotational constants in MHz :   561.384391   229.474981   182.452706

                             ****ORCA TERMINATED NORMALLY****
TOTAL RUN TIME: 0 days 0 hours 0 minutes 20 seconds 940 msec
