                         Program Version 4.2.1 -  RELEASE  -
|  1> ! wB97X-D3 SP def2-SVP
|  2> %pal
|  3> nprocs 24
|  4> end
|  5>
|  6> * xyz 0 1
|  7> S 	 -51.5746 	 16.7251 	 -87.3642
|  8> C 	 -52.9559 	 16.4046 	 -88.4584
|  9> C 	 -53.8866 	 17.4094 	 -88.4759
| 10> C 	 -53.518 	 18.3703 	 -87.4993
| 11> C 	 -52.2595 	 18.2949 	 -86.932
| 12> H 	 -54.1513 	 19.0994 	 -87.1806
| 13> C 	 -55.1517 	 17.4921 	 -89.3272
| 14> H 	 -55.7637 	 18.2766 	 -88.799
| 15> H 	 -55.694 	 16.5156 	 -89.3003
| 16> C 	 -55.0656 	 17.9801 	 -90.8266
| 17> H 	 -54.1714 	 18.6632 	 -90.877
| 18> H 	 -54.8616 	 17.1577 	 -91.4614
| 19> C 	 -56.3572 	 18.7574 	 -91.3086
| 20> H 	 -56.3839 	 19.7772 	 -91.0069
| 21> H 	 -56.4461 	 18.9146 	 -92.395
| 22> H 	 -57.3779 	 18.3967 	 -90.983
| 23> S 	 -51.502 	 17.9505 	 -84.2122
| 24> C 	 -51.2833 	 19.3352 	 -83.2068
| 25> C 	 -51.1208 	 20.451 	 -83.999
| 26> C 	 -51.5453 	 20.2543 	 -85.3701
| 27> C 	 -51.8462 	 18.9135 	 -85.6467
| 28> H 	 -50.8058 	 21.4292 	 -83.5814
| 29> C 	 -51.6969 	 21.4111 	 -86.3997
| 30> H 	 -51.1264 	 21.2139 	 -87.3031
| 31> H 	 -51.1694 	 22.2499 	 -86.0274
| 32> C 	 -53.0377 	 22.1345 	 -86.4745
| 33> H 	 -53.0905 	 22.8431 	 -85.6685
| 34> H 	 -53.8318 	 21.5105 	 -86.0505
| 35> C 	 -53.4387 	 22.8041 	 -87.8229
| 36> H 	 -53.3458 	 22.2694 	 -88.7923
| 37> H 	 -52.9088 	 23.8007 	 -87.9739
| 38> H 	 -54.5295 	 23.0828 	 -87.6511
| 39> H 	 -53.221 	 15.5458 	 -88.9967
| 40> H 	 -51.0146 	 19.4076 	 -82.1521
| 41> *
| 42>
| 43>                          ****END OF INPUT****

CARTESIAN COORDINATES (ANGSTROEM)
---------------------------------
  S    -51.574600   16.725100  -87.364200
  C    -52.955900   16.404600  -88.458400
  C    -53.886600   17.409400  -88.475900
  C    -53.518000   18.370300  -87.499300
  C    -52.259500   18.294900  -86.932000
  H    -54.151300   19.099400  -87.180600
  C    -55.151700   17.492100  -89.327200
  H    -55.763700   18.276600  -88.799000
  H    -55.694000   16.515600  -89.300300
  C    -55.065600   17.980100  -90.826600
  H    -54.171400   18.663200  -90.877000
  H    -54.861600   17.157700  -91.461400
  C    -56.357200   18.757400  -91.308600
  H    -56.383900   19.777200  -91.006900
  H    -56.446100   18.914600  -92.395000
  H    -57.377900   18.396700  -90.983000
  S    -51.502000   17.950500  -84.212200
  C    -51.283300   19.335200  -83.206800
  C    -51.120800   20.451000  -83.999000
  C    -51.545300   20.254300  -85.370100
  C    -51.846200   18.913500  -85.646700
  H    -50.805800   21.429200  -83.581400
  C    -51.696900   21.411100  -86.399700
  H    -51.126400   21.213900  -87.303100
  H    -51.169400   22.249900  -86.027400
  C    -53.037700   22.134500  -86.474500
  H    -53.090500   22.843100  -85.668500
  H    -53.831800   21.510500  -86.050500
  C    -53.438700   22.804100  -87.822900
  H    -53.345800   22.269400  -88.792300
  H    -52.908800   23.800700  -87.973900
  H    -54.529500   23.082800  -87.651100
  H    -53.221000   15.545800  -88.996700
  H    -51.014600   19.407600  -82.152100

 Total Charge           Charge          ....    0
 Multiplicity           Mult            ....    1
 Number of Electrons    NEL             ....  134
 Basis Dimension        Dim             ....  322

ORBITAL ENERGIES
----------------

  NO   OCC          E(Eh)            E(eV)
   0   2.0000     -88.968986     -2420.9692
   1   2.0000     -88.965999     -2420.8879
   2   2.0000     -10.330450      -281.1058
   3   2.0000     -10.330230      -281.0999
   4   2.0000     -10.316016      -280.7131
   5   2.0000     -10.314659      -280.6761
   6   2.0000     -10.306504      -280.4542
   7   2.0000     -10.306280      -280.4481
   8   2.0000     -10.300956      -280.3033
   9   2.0000     -10.300021      -280.2778
  10   2.0000     -10.296596      -280.1846
  11   2.0000     -10.293487      -280.1000
  12   2.0000     -10.288773      -279.9718
  13   2.0000     -10.288240      -279.9572
  14   2.0000     -10.286948      -279.9221
  15   2.0000     -10.285663      -279.8871
  16   2.0000      -8.082601      -219.9388
  17   2.0000      -8.080661      -219.8860
  18   2.0000      -6.041251      -164.3908
  19   2.0000      -6.039299      -164.3377
  20   2.0000      -6.037330      -164.2841
  21   2.0000      -6.035176      -164.2255
  22   2.0000      -6.033191      -164.1715
  23   2.0000      -6.031256      -164.1188
  24   2.0000      -1.004018       -27.3207
  25   2.0000      -0.983362       -26.7587
  26   2.0000      -0.904833       -24.6218
  27   2.0000      -0.903436       -24.5837
  28   2.0000      -0.866011       -23.5654
  29   2.0000      -0.846529       -23.0352
  30   2.0000      -0.840360       -22.8674
  31   2.0000      -0.814857       -22.1734
  32   2.0000      -0.783366       -21.3165
  33   2.0000      -0.775573       -21.1044
  34   2.0000      -0.709754       -19.3134
  35   2.0000      -0.706381       -19.2216
  36   2.0000      -0.696554       -18.9542
  37   2.0000      -0.655359       -17.8332
  38   2.0000      -0.641700       -17.4615
  39   2.0000      -0.619282       -16.8515
  40   2.0000      -0.592590       -16.1252
  41   2.0000      -0.567712       -15.4482
  42   2.0000      -0.559378       -15.2214
  43   2.0000      -0.547122       -14.8879
  44   2.0000      -0.526432       -14.3249
  45   2.0000      -0.521976       -14.2037
  46   2.0000      -0.510297       -13.8859
  47   2.0000      -0.506409       -13.7801
  48   2.0000      -0.504085       -13.7169
  49   2.0000      -0.496991       -13.5238
  50   2.0000      -0.488307       -13.2875
  51   2.0000      -0.482533       -13.1304
  52   2.0000      -0.471220       -12.8226
  53   2.0000      -0.463949       -12.6247
  54   2.0000      -0.460934       -12.5427
  55   2.0000      -0.452161       -12.3039
  56   2.0000      -0.448193       -12.1959
  57   2.0000      -0.436361       -11.8740
  58   2.0000      -0.432734       -11.7753
  59   2.0000      -0.425768       -11.5857
  60   2.0000      -0.422785       -11.5046
  61   2.0000      -0.417624       -11.3641
  62   2.0000      -0.388997       -10.5851
  63   2.0000      -0.345917        -9.4129
  64   2.0000      -0.331692        -9.0258
  65   2.0000      -0.327768        -8.9190
  66   2.0000      -0.294731        -8.0200
  67   0.0000       0.027771         0.7557
  68   0.0000       0.060906         1.6573
  69   0.0000       0.107575         2.9273
  70   0.0000       0.120855         3.2886
  71   0.0000       0.130302         3.5457

MULLIKEN ATOMIC CHARGES
-----------------------
   0 S :    0.092186
   1 C :   -0.081044
   2 C :   -0.091560
   3 C :    0.052715
   4 C :   -0.116886
   5 H :   -0.027302
   6 C :    0.027486
   7 H :    0.033617
   8 H :    0.046209
   9 C :   -0.037366
  10 H :    0.045606
  11 H :    0.030883
  12 C :   -0.086529
  13 H :    0.023034
  14 H :    0.034063
  15 H :    0.040059
  16 S :    0.116641
  17 C :   -0.091265
  18 C :   -0.045875
  19 C :   -0.085842
  20 C :   -0.151673
  21 H :    0.028736
  22 C :    0.102473
  23 H :    0.040424
  24 H :   -0.002216
  25 C :   -0.054511
  26 H :    0.009267
  27 H :    0.017604
  28 C :   -0.089288
  29 H :    0.054181
  30 H :    0.041749
  31 H :    0.041865
  32 H :    0.018004
  33 H :    0.064557
Sum of atomic charges:    0.0000000

LOEWDIN ATOMIC CHARGES
----------------------
   0 S :    0.384318
   1 C :   -0.166082
   2 C :   -0.069561
   3 C :   -0.036222
   4 C :   -0.192462
   5 H :    0.012259
   6 C :   -0.035235
   7 H :    0.036989
   8 H :    0.036335
   9 C :   -0.033447
  10 H :    0.034682
  11 H :    0.017777
  12 C :   -0.081825
  13 H :    0.021379
  14 H :    0.030382
  15 H :    0.031583
  16 S :    0.412192
  17 C :   -0.201948
  18 C :   -0.077440
  19 C :   -0.055777
  20 C :   -0.198447
  21 H :    0.033660
  22 C :   -0.041327
  23 H :    0.034636
  24 H :    0.029667
  25 C :   -0.046696
  26 H :    0.023017
  27 H :    0.020698
  28 C :   -0.076629
  29 H :    0.029570
  30 H :    0.030229
  31 H :    0.036332
  32 H :    0.019454
  33 H :    0.037938

  Mayer bond orders larger than 0.100000
B(  0-S ,  1-C ) :   1.1424 B(  0-S ,  4-C ) :   1.1160 B(  1-C ,  2-C ) :   1.6208
B(  1-C , 32-H ) :   0.9658 B(  2-C ,  3-C ) :   1.2525 B(  2-C ,  6-C ) :   1.0188
B(  3-C ,  4-C ) :   1.5890 B(  3-C ,  5-H ) :   0.9965 B(  4-C , 20-C ) :   1.0349
B(  6-C ,  7-H ) :   0.9485 B(  6-C ,  8-H ) :   0.9388 B(  6-C ,  9-C ) :   1.0437
B(  9-C , 10-H ) :   0.9613 B(  9-C , 11-H ) :   0.9618 B(  9-C , 12-C ) :   1.0631
B( 12-C , 13-H ) :   0.9749 B( 12-C , 14-H ) :   0.9760 B( 12-C , 15-H ) :   0.9788
B( 16-S , 17-C ) :   1.1569 B( 16-S , 20-C ) :   1.1392 B( 17-C , 18-C ) :   1.6074
B( 17-C , 33-H ) :   0.9623 B( 18-C , 19-C ) :   1.2672 B( 18-C , 21-H ) :   0.9799
B( 19-C , 20-C ) :   1.5893 B( 19-C , 22-C ) :   1.0533 B( 22-C , 23-H ) :   0.9438
B( 22-C , 24-H ) :   0.9311 B( 22-C , 25-C ) :   1.0250 B( 25-C , 26-H ) :   0.9522
B( 25-C , 27-H ) :   0.9593 B( 25-C , 28-C ) :   1.0649 B( 28-C , 29-H ) :   0.9803
B( 28-C , 30-H ) :   0.9763 B( 28-C , 31-H ) :   0.9732

Dispersion correction           -0.013816716
FINAL SINGLE POINT ENERGY     -1339.835543407530

DIPOLE MOMENT
-------------
                                X             Y             Z
Electronic contribution:     18.79170     -19.30804      19.63462
Nuclear contribution   :    -19.27849      19.82184     -19.84982
                        -----------------------------------------
Total Dipole Moment    :     -0.48680       0.51379      -0.21520
                        -----------------------------------------
Magnitude (a.u.)       :      0.73977
Magnitude (Debye)      :      1.88035

Rotational constants in cm-1:     0.017930     0.008773     0.006321
Rotational constants in MHz :   537.514097   263.002140   189.495547

                             ****ORCA TERMINATED NORMALLY****
TOTAL RUN TIME: 0 days 0 hours 0 minutes 21 seconds 204 msec
