                         Program Version 4.2.1 -  RELEASE  -
|  1> ! wB97X-D3 SP def2-SVP
|  2> %pal
|  3> nprocs 24
|  4> end
|  5>
|  6> * xyz 0 1
|  7> S 	 -53.3681 	 -4.0187 	 -29.3132
|  8> C 	 -52.5758 	 -4.32489 	 -27.7918
|  9> C 	 -53.386 	 -4.96524 	 -26.8467
| 10> C 	 -54.6533 	 -5.23665 	 -27.3607
| 11> C 	 -54.8513 	 -4.68426 	 -28.6503
| 12> H 	 -55.5098 	 -5.68402 	 -26.8393
| 13> C 	 -52.979 	 -5.30413 	 -25.3663
| 14> H 	 -53.3095 	 -4.4466 	 -24.7013
| 15> H 	 -51.892 	 -5.18541 	 -25.2772
| 16> C 	 -53.3765 	 -6.64405 	 -24.8187
| 17> H 	 -54.4947 	 -6.77468 	 -24.7764
| 18> H 	 -52.9842 	 -7.3949 	 -25.5483
| 19> C 	 -52.9344 	 -6.72636 	 -23.3677
| 20> H 	 -53.4095 	 -5.96992 	 -22.7183
| 21> H 	 -53.1119 	 -7.65964 	 -22.929
| 22> H 	 -51.8956 	 -6.62619 	 -23.3464
| 23> S 	 -55.8806 	 -6.35835 	 -30.6067
| 24> C 	 -57.5695 	 -6.23746 	 -30.9685
| 25> C 	 -58.1919 	 -5.10616 	 -30.3767
| 26> C 	 -57.2622 	 -4.37113 	 -29.5486
| 27> C 	 -55.9942 	 -4.92274 	 -29.5204
| 28> H 	 -59.2468 	 -4.96392 	 -30.5297
| 29> C 	 -57.7814 	 -3.39444 	 -28.5561
| 30> H 	 -57.1206 	 -3.12439 	 -27.7572
| 31> H 	 -58.6 	 -3.87963 	 -28.1257
| 32> C 	 -58.2659 	 -2.06657 	 -29.1655
| 33> H 	 -58.9951 	 -1.57979 	 -28.4166
| 34> H 	 -58.6798 	 -2.41813 	 -30.1216
| 35> C 	 -57.0986 	 -1.03986 	 -29.5312
| 36> H 	 -56.4417 	 -0.90651 	 -28.7106
| 37> H 	 -57.381 	 -0.0456511 	 -29.7191
| 38> H 	 -56.5663 	 -1.50666 	 -30.3905
| 39> H 	 -51.6104 	 -3.90295 	 -27.623
| 40> H 	 -58.0702 	 -6.84555 	 -31.7078
| 41> *
| 42>
| 43>                          ****END OF INPUT****

CARTESIAN COORDINATES (ANGSTROEM)
---------------------------------
  S    -53.368100   -4.018700  -29.313200
  C    -52.575800   -4.324890  -27.791800
  C    -53.386000   -4.965240  -26.846700
  C    -54.653300   -5.236650  -27.360700
  C    -54.851300   -4.684260  -28.650300
  H    -55.509800   -5.684020  -26.839300
  C    -52.979000   -5.304130  -25.366300
  H    -53.309500   -4.446600  -24.701300
  H    -51.892000   -5.185410  -25.277200
  C    -53.376500   -6.644050  -24.818700
  H    -54.494700   -6.774680  -24.776400
  H    -52.984200   -7.394900  -25.548300
  C    -52.934400   -6.726360  -23.367700
  H    -53.409500   -5.969920  -22.718300
  H    -53.111900   -7.659640  -22.929000
  H    -51.895600   -6.626190  -23.346400
  S    -55.880600   -6.358350  -30.606700
  C    -57.569500   -6.237460  -30.968500
  C    -58.191900   -5.106160  -30.376700
  C    -57.262200   -4.371130  -29.548600
  C    -55.994200   -4.922740  -29.520400
  H    -59.246800   -4.963920  -30.529700
  C    -57.781400   -3.394440  -28.556100
  H    -57.120600   -3.124390  -27.757200
  H    -58.600000   -3.879630  -28.125700
  C    -58.265900   -2.066570  -29.165500
  H    -58.995100   -1.579790  -28.416600
  H    -58.679800   -2.418130  -30.121600
  C    -57.098600   -1.039860  -29.531200
  H    -56.441700   -0.906510  -28.710600
  H    -57.381000   -0.045651  -29.719100
  H    -56.566300   -1.506660  -30.390500
  H    -51.610400   -3.902950  -27.623000
  H    -58.070200   -6.845550  -31.707800

 Total Charge           Charge          ....    0
 Multiplicity           Mult            ....    1
 Number of Electrons    NEL             ....  134
 Basis Dimension        Dim             ....  322

ORBITAL ENERGIES
----------------

  NO   OCC          E(Eh)            E(eV)
   0   2.0000     -88.968947     -2420.9681
   1   2.0000     -88.963612     -2420.8229
   2   2.0000     -10.328037      -281.0402
   3   2.0000     -10.324821      -280.9527
   4   2.0000     -10.320277      -280.8290
   5   2.0000     -10.313559      -280.6462
   6   2.0000     -10.304339      -280.3953
   7   2.0000     -10.303994      -280.3859
   8   2.0000     -10.298832      -280.2455
   9   2.0000     -10.297623      -280.2126
  10   2.0000     -10.296580      -280.1842
  11   2.0000     -10.292959      -280.0856
  12   2.0000     -10.292498      -280.0731
  13   2.0000     -10.278860      -279.7020
  14   2.0000     -10.272544      -279.5301
  15   2.0000     -10.270380      -279.4712
  16   2.0000      -8.083605      -219.9661
  17   2.0000      -8.078040      -219.8146
  18   2.0000      -6.041830      -164.4066
  19   2.0000      -6.038101      -164.3051
  20   2.0000      -6.036501      -164.2616
  21   2.0000      -6.034708      -164.2128
  22   2.0000      -6.032579      -164.1548
  23   2.0000      -6.028870      -164.0539
  24   2.0000      -1.001272       -27.2460
  25   2.0000      -0.978791       -26.6342
  26   2.0000      -0.914325       -24.8801
  27   2.0000      -0.907275       -24.6882
  28   2.0000      -0.865441       -23.5498
  29   2.0000      -0.851368       -23.1669
  30   2.0000      -0.841301       -22.8930
  31   2.0000      -0.806245       -21.9391
  32   2.0000      -0.785455       -21.3733
  33   2.0000      -0.772492       -21.0206
  34   2.0000      -0.706411       -19.2224
  35   2.0000      -0.692281       -18.8379
  36   2.0000      -0.687956       -18.7202
  37   2.0000      -0.657412       -17.8891
  38   2.0000      -0.644341       -17.5334
  39   2.0000      -0.619136       -16.8475
  40   2.0000      -0.602038       -16.3823
  41   2.0000      -0.570617       -15.5273
  42   2.0000      -0.563877       -15.3439
  43   2.0000      -0.549880       -14.9630
  44   2.0000      -0.537106       -14.6154
  45   2.0000      -0.523140       -14.2354
  46   2.0000      -0.509519       -13.8647
  47   2.0000      -0.506205       -13.7745
  48   2.0000      -0.504542       -13.7293
  49   2.0000      -0.492609       -13.4046
  50   2.0000      -0.482913       -13.1407
  51   2.0000      -0.478804       -13.0289
  52   2.0000      -0.471541       -12.8313
  53   2.0000      -0.466452       -12.6928
  54   2.0000      -0.458097       -12.4655
  55   2.0000      -0.453688       -12.3455
  56   2.0000      -0.444178       -12.0867
  57   2.0000      -0.439810       -11.9678
  58   2.0000      -0.431341       -11.7374
  59   2.0000      -0.426479       -11.6051
  60   2.0000      -0.422750       -11.5036
  61   2.0000      -0.415422       -11.3042
  62   2.0000      -0.403320       -10.9749
  63   2.0000      -0.339883        -9.2487
  64   2.0000      -0.327609        -8.9147
  65   2.0000      -0.319787        -8.7018
  66   2.0000      -0.301941        -8.2162
  67   0.0000       0.039434         1.0731
  68   0.0000       0.049264         1.3405
  69   0.0000       0.114346         3.1115
  70   0.0000       0.119820         3.2605
  71   0.0000       0.123958         3.3731

MULLIKEN ATOMIC CHARGES
-----------------------
   0 S :    0.123091
   1 C :   -0.126255
   2 C :   -0.048477
   3 C :    0.032474
   4 C :   -0.194461
   5 H :    0.027490
   6 C :    0.035792
   7 H :    0.041213
   8 H :    0.012108
   9 C :   -0.104812
  10 H :    0.038557
  11 H :    0.048922
  12 C :    0.002308
  13 H :    0.036521
  14 H :    0.018260
  15 H :    0.011112
  16 S :    0.113371
  17 C :   -0.094620
  18 C :   -0.051045
  19 C :   -0.012155
  20 C :   -0.181310
  21 H :    0.024971
  22 C :    0.108672
  23 H :    0.017149
  24 H :    0.018480
  25 C :   -0.125771
  26 H :    0.044695
  27 H :    0.029046
  28 C :   -0.030377
  29 H :    0.016294
  30 H :    0.025189
  31 H :    0.044138
  32 H :    0.040616
  33 H :    0.058815
Sum of atomic charges:   -0.0000000

LOEWDIN ATOMIC CHARGES
----------------------
   0 S :    0.420322
   1 C :   -0.195355
   2 C :   -0.065477
   3 C :   -0.054974
   4 C :   -0.203973
   5 H :    0.037840
   6 C :   -0.037309
   7 H :    0.036733
   8 H :    0.027011
   9 C :   -0.048446
  10 H :    0.027001
  11 H :    0.034198
  12 C :   -0.055179
  13 H :    0.032756
  14 H :    0.019871
  15 H :    0.016937
  16 S :    0.392896
  17 C :   -0.183915
  18 C :   -0.074995
  19 C :   -0.051248
  20 C :   -0.195526
  21 H :    0.030387
  22 C :   -0.027894
  23 H :    0.025245
  24 H :    0.028097
  25 C :   -0.038985
  26 H :    0.030529
  27 H :    0.021674
  28 C :   -0.064266
  29 H :    0.017960
  30 H :    0.018685
  31 H :    0.033776
  32 H :    0.018856
  33 H :    0.026766

  Mayer bond orders larger than 0.100000
B(  0-S ,  1-C ) :   1.1668 B(  0-S ,  4-C ) :   1.1746 B(  1-C ,  2-C ) :   1.5733
B(  1-C ,  4-C ) :   0.1124 B(  1-C , 32-H ) :   0.9706 B(  2-C ,  3-C ) :   1.2801
B(  2-C ,  6-C ) :   1.0004 B(  3-C ,  4-C ) :   1.5446 B(  3-C ,  5-H ) :   0.9901
B(  4-C , 20-C ) :   1.0220 B(  6-C ,  7-H ) :   0.9387 B(  6-C ,  8-H ) :   0.9436
B(  6-C ,  9-C ) :   1.0623 B(  9-C , 10-H ) :   0.9491 B(  9-C , 11-H ) :   0.9565
B(  9-C , 12-C ) :   1.0817 B( 12-C , 13-H ) :   0.9714 B( 12-C , 14-H ) :   0.9702
B( 12-C , 15-H ) :   0.9729 B( 16-S , 17-C ) :   1.1700 B( 16-S , 20-C ) :   1.1216
B( 17-C , 18-C ) :   1.6176 B( 17-C , 33-H ) :   0.9649 B( 18-C , 19-C ) :   1.2096
B( 18-C , 21-H ) :   0.9896 B( 19-C , 20-C ) :   1.6223 B( 19-C , 22-C ) :   1.0470
B( 22-C , 23-H ) :   0.9355 B( 22-C , 24-H ) :   0.9335 B( 22-C , 25-C ) :   1.0539
B( 25-C , 26-H ) :   0.9568 B( 25-C , 27-H ) :   0.9655 B( 25-C , 28-C ) :   1.0639
B( 28-C , 29-H ) :   0.9759 B( 28-C , 30-H ) :   0.9784 B( 28-C , 31-H ) :   0.9774

Dispersion correction           -0.014094896
FINAL SINGLE POINT ENERGY     -1339.867367063133

DIPOLE MOMENT
-------------
                                X             Y             Z
Electronic contribution:      3.97607      -6.46366     -20.67499
Nuclear contribution   :     -4.16635       6.45581      21.30300
                        -----------------------------------------
Total Dipole Moment    :     -0.19028      -0.00786       0.62800
                        -----------------------------------------
Magnitude (a.u.)       :      0.65624
Magnitude (Debye)      :      1.66804

Rotational constants in cm-1:     0.018896     0.007582     0.007087
Rotational constants in MHz :   566.476067   227.306177   212.459593

                             ****ORCA TERMINATED NORMALLY****
TOTAL RUN TIME: 0 days 0 hours 0 minutes 21 seconds 197 msec
