                         Program Version 4.2.1 -  RELEASE  -
|  1> ! wB97X-D3 SP def2-SVP
|  2> %pal
|  3> nprocs 24
|  4> end
|  5>
|  6> * xyz 0 1
|  7> S 	 -41.4772 	 -3.9008 	 14.3173
|  8> C 	 -41.7994 	 -2.38839 	 15.2001
|  9> C 	 -42.6453 	 -2.57973 	 16.2389
| 10> C 	 -43.1526 	 -3.92539 	 16.2774
| 11> C 	 -42.7081 	 -4.68 	 15.2146
| 12> H 	 -43.8606 	 -4.32719 	 17.0036
| 13> C 	 -43.0237 	 -1.512 	 17.2154
| 14> H 	 -42.3982 	 -0.668182 	 16.9943
| 15> H 	 -42.6815 	 -1.87908 	 18.1663
| 16> C 	 -44.4875 	 -1.1538 	 17.3734
| 17> H 	 -44.7976 	 -0.800148 	 16.4393
| 18> H 	 -45.1844 	 -2.03711 	 17.531
| 19> C 	 -44.6786 	 -0.0499917 	 18.4491
| 20> H 	 -44.2824 	 -0.373112 	 19.3997
| 21> H 	 -44.2091 	 0.863139 	 18.1679
| 22> H 	 -45.7249 	 0.144645 	 18.6391
| 23> S 	 -42.9055 	 -7.29938 	 16.1955
| 24> C 	 -43.6117 	 -8.54884 	 15.2363
| 25> C 	 -44.0326 	 -8.03185 	 14.0303
| 26> C 	 -43.7663 	 -6.60807 	 13.8344
| 27> C 	 -43.1246 	 -6.04459 	 14.9284
| 28> H 	 -44.5626 	 -8.55765 	 13.2933
| 29> C 	 -44.0675 	 -5.93063 	 12.4895
| 30> H 	 -43.2023 	 -5.9918 	 11.8269
| 31> H 	 -44.0858 	 -4.92523 	 12.7167
| 32> C 	 -45.4358 	 -6.235 	 11.9068
| 33> H 	 -46.2292 	 -5.70977 	 12.466
| 34> H 	 -45.7232 	 -7.28456 	 11.898
| 35> C 	 -45.4708 	 -5.4223 	 10.5799
| 36> H 	 -44.5263 	 -5.69248 	 10.0536
| 37> H 	 -45.6217 	 -4.28736 	 10.7146
| 38> H 	 -46.3484 	 -5.78079 	 10.0829
| 39> H 	 -41.3186 	 -1.43948 	 15.1174
| 40> H 	 -43.6799 	 -9.57619 	 15.5247
| 41> *
| 42>
| 43>                          ****END OF INPUT****

CARTESIAN COORDINATES (ANGSTROEM)
---------------------------------
  S    -41.477200   -3.900800   14.317300
  C    -41.799400   -2.388390   15.200100
  C    -42.645300   -2.579730   16.238900
  C    -43.152600   -3.925390   16.277400
  C    -42.708100   -4.680000   15.214600
  H    -43.860600   -4.327190   17.003600
  C    -43.023700   -1.512000   17.215400
  H    -42.398200   -0.668182   16.994300
  H    -42.681500   -1.879080   18.166300
  C    -44.487500   -1.153800   17.373400
  H    -44.797600   -0.800148   16.439300
  H    -45.184400   -2.037110   17.531000
  C    -44.678600   -0.049992   18.449100
  H    -44.282400   -0.373112   19.399700
  H    -44.209100    0.863139   18.167900
  H    -45.724900    0.144645   18.639100
  S    -42.905500   -7.299380   16.195500
  C    -43.611700   -8.548840   15.236300
  C    -44.032600   -8.031850   14.030300
  C    -43.766300   -6.608070   13.834400
  C    -43.124600   -6.044590   14.928400
  H    -44.562600   -8.557650   13.293300
  C    -44.067500   -5.930630   12.489500
  H    -43.202300   -5.991800   11.826900
  H    -44.085800   -4.925230   12.716700
  C    -45.435800   -6.235000   11.906800
  H    -46.229200   -5.709770   12.466000
  H    -45.723200   -7.284560   11.898000
  C    -45.470800   -5.422300   10.579900
  H    -44.526300   -5.692480   10.053600
  H    -45.621700   -4.287360   10.714600
  H    -46.348400   -5.780790   10.082900
  H    -41.318600   -1.439480   15.117400
  H    -43.679900   -9.576190   15.524700

 Total Charge           Charge          ....    0
 Multiplicity           Mult            ....    1
 Number of Electrons    NEL             ....  134
 Basis Dimension        Dim             ....  322

ORBITAL ENERGIES
----------------

  NO   OCC          E(Eh)            E(eV)
   0   2.0000     -88.967539     -2420.9298
   1   2.0000     -88.961219     -2420.7578
   2   2.0000     -10.325891      -280.9818
   3   2.0000     -10.325713      -280.9769
   4   2.0000     -10.315824      -280.7078
   5   2.0000     -10.307951      -280.4936
   6   2.0000     -10.302444      -280.3438
   7   2.0000     -10.295682      -280.1598
   8   2.0000     -10.292100      -280.0623
   9   2.0000     -10.288887      -279.9749
  10   2.0000     -10.287519      -279.9376
  11   2.0000     -10.287518      -279.9376
  12   2.0000     -10.286667      -279.9144
  13   2.0000     -10.285039      -279.8702
  14   2.0000     -10.283263      -279.8218
  15   2.0000     -10.276511      -279.6381
  16   2.0000      -8.082206      -219.9280
  17   2.0000      -8.075710      -219.7512
  18   2.0000      -6.040760      -164.3774
  19   2.0000      -6.036845      -164.2709
  20   2.0000      -6.034370      -164.2036
  21   2.0000      -6.032794      -164.1607
  22   2.0000      -6.030126      -164.0881
  23   2.0000      -6.026451      -163.9881
  24   2.0000      -1.006089       -27.3771
  25   2.0000      -0.981370       -26.7044
  26   2.0000      -0.917205       -24.9584
  27   2.0000      -0.912436       -24.8286
  28   2.0000      -0.871154       -23.7053
  29   2.0000      -0.847121       -23.0513
  30   2.0000      -0.844432       -22.9782
  31   2.0000      -0.812169       -22.1003
  32   2.0000      -0.784023       -21.3343
  33   2.0000      -0.770865       -20.9763
  34   2.0000      -0.712071       -19.3764
  35   2.0000      -0.702769       -19.1233
  36   2.0000      -0.697232       -18.9727
  37   2.0000      -0.659667       -17.9505
  38   2.0000      -0.635321       -17.2880
  39   2.0000      -0.616869       -16.7859
  40   2.0000      -0.601926       -16.3792
  41   2.0000      -0.573279       -15.5997
  42   2.0000      -0.567067       -15.4307
  43   2.0000      -0.561338       -15.2748
  44   2.0000      -0.531592       -14.4654
  45   2.0000      -0.525182       -14.2909
  46   2.0000      -0.516546       -14.0559
  47   2.0000      -0.509796       -13.8723
  48   2.0000      -0.505477       -13.7547
  49   2.0000      -0.503041       -13.6885
  50   2.0000      -0.488654       -13.2970
  51   2.0000      -0.476441       -12.9646
  52   2.0000      -0.467800       -12.7295
  53   2.0000      -0.465561       -12.6686
  54   2.0000      -0.462644       -12.5892
  55   2.0000      -0.451846       -12.2954
  56   2.0000      -0.445467       -12.1218
  57   2.0000      -0.444508       -12.0957
  58   2.0000      -0.439279       -11.9534
  59   2.0000      -0.427244       -11.6259
  60   2.0000      -0.421568       -11.4715
  61   2.0000      -0.416525       -11.3342
  62   2.0000      -0.398579       -10.8459
  63   2.0000      -0.339878        -9.2485
  64   2.0000      -0.331392        -9.0176
  65   2.0000      -0.324638        -8.8339
  66   2.0000      -0.299304        -8.1445
  67   0.0000       0.037240         1.0134
  68   0.0000       0.070311         1.9133
  69   0.0000       0.111146         3.0244
  70   0.0000       0.123944         3.3727
  71   0.0000       0.128351         3.4926

MULLIKEN ATOMIC CHARGES
-----------------------
   0 S :    0.121148
   1 C :   -0.114074
   2 C :   -0.090070
   3 C :    0.018166
   4 C :   -0.165950
   5 H :    0.018557
   6 C :    0.104626
   7 H :    0.001013
   8 H :    0.019887
   9 C :   -0.072780
  10 H :    0.010998
  11 H :    0.038341
  12 C :   -0.018985
  13 H :    0.021417
  14 H :    0.026551
  15 H :    0.030185
  16 S :    0.098728
  17 C :   -0.074036
  18 C :   -0.011012
  19 C :   -0.037181
  20 C :   -0.169104
  21 H :   -0.007566
  22 C :    0.107304
  23 H :    0.043387
  24 H :   -0.004194
  25 C :   -0.116508
  26 H :    0.035420
  27 H :    0.041901
  28 C :   -0.064718
  29 H :    0.040267
  30 H :    0.058465
  31 H :    0.027627
  32 H :    0.026815
  33 H :    0.055377
Sum of atomic charges:   -0.0000000

LOEWDIN ATOMIC CHARGES
----------------------
   0 S :    0.410279
   1 C :   -0.192275
   2 C :   -0.058181
   3 C :   -0.062552
   4 C :   -0.204191
   5 H :    0.032319
   6 C :   -0.029121
   7 H :    0.026573
   8 H :    0.030835
   9 C :   -0.037731
  10 H :    0.015055
  11 H :    0.031620
  12 C :   -0.056056
  13 H :    0.022468
  14 H :    0.021782
  15 H :    0.026658
  16 S :    0.393480
  17 C :   -0.184660
  18 C :   -0.070338
  19 C :   -0.047517
  20 C :   -0.193331
  21 H :    0.017250
  22 C :   -0.033162
  23 H :    0.035020
  24 H :    0.022529
  25 C :   -0.041619
  26 H :    0.032470
  27 H :    0.019655
  28 C :   -0.065745
  29 H :    0.026681
  30 H :    0.038820
  31 H :    0.020289
  32 H :    0.023410
  33 H :    0.029286

  Mayer bond orders larger than 0.100000
B(  0-S ,  1-C ) :   1.1069 B(  0-S ,  4-C ) :   1.1563 B(  1-C ,  2-C ) :   1.6563
B(  1-C , 32-H ) :   0.9643 B(  2-C ,  3-C ) :   1.2087 B(  2-C ,  6-C ) :   1.0319
B(  3-C ,  4-C ) :   1.5888 B(  3-C ,  5-H ) :   0.9966 B(  4-C , 20-C ) :   1.0221
B(  6-C ,  7-H ) :   0.9345 B(  6-C ,  8-H ) :   0.9255 B(  6-C ,  9-C ) :   1.0599
B(  9-C , 10-H ) :   0.9531 B(  9-C , 11-H ) :   0.9550 B(  9-C , 12-C ) :   1.0809
B( 12-C , 13-H ) :   0.9765 B( 12-C , 14-H ) :   0.9757 B( 12-C , 15-H ) :   0.9744
B( 16-S , 17-C ) :   1.1561 B( 16-S , 20-C ) :   1.1251 B( 17-C , 18-C ) :   1.5970
B( 17-C , 33-H ) :   0.9721 B( 18-C , 19-C ) :   1.2392 B( 18-C , 21-H ) :   0.9941
B( 19-C , 20-C ) :   1.6104 B( 19-C , 22-C ) :   1.0271 B( 22-C , 23-H ) :   0.9397
B( 22-C , 24-H ) :   0.9168 B( 22-C , 25-C ) :   1.0588 B( 25-C , 26-H ) :   0.9524
B( 25-C , 27-H ) :   0.9656 B( 25-C , 28-C ) :   1.0687 B( 28-C , 29-H ) :   0.9756
B( 28-C , 30-H ) :   0.9754 B( 28-C , 31-H ) :   0.9732

Dispersion correction           -0.013477573
FINAL SINGLE POINT ENERGY     -1339.873200827637

DIPOLE MOMENT
-------------
                                X             Y             Z
Electronic contribution:     16.27290     -15.62951       3.71432
Nuclear contribution   :    -16.72637      15.92849      -3.74295
                        -----------------------------------------
Total Dipole Moment    :     -0.45347       0.29898      -0.02862
                        -----------------------------------------
Magnitude (a.u.)       :      0.54391
Magnitude (Debye)      :      1.38252

Rotational constants in cm-1:     0.017926     0.007501     0.006601
Rotational constants in MHz :   537.397054   224.887415   197.901779

                             ****ORCA TERMINATED NORMALLY****
TOTAL RUN TIME: 0 days 0 hours 0 minutes 20 seconds 911 msec
