                         Program Version 4.2.1 -  RELEASE  -
|  1> ! wB97X-D3 SP def2-SVP
|  2> %pal
|  3> nprocs 24
|  4> end
|  5>
|  6> * xyz 0 1
|  7> S 	 -119.041 	 25.3528 	 -16.963
|  8> C 	 -118.921 	 24.6861 	 -18.5454
|  9> C 	 -120.075 	 24.8153 	 -19.2865
| 10> C 	 -121.013 	 25.6919 	 -18.6176
| 11> C 	 -120.583 	 26.0176 	 -17.3739
| 12> H 	 -121.968 	 26.0739 	 -19.0683
| 13> C 	 -120.117 	 24.6485 	 -20.8176
| 14> H 	 -120.674 	 23.6685 	 -21.0365
| 15> H 	 -119.124 	 24.4256 	 -21.1789
| 16> C 	 -120.77 	 25.8354 	 -21.6588
| 17> H 	 -120.657 	 25.4814 	 -22.6252
| 18> H 	 -121.831 	 26.0673 	 -21.3647
| 19> C 	 -119.892 	 27.0815 	 -21.5356
| 20> H 	 -120.029 	 27.5095 	 -20.5198
| 21> H 	 -118.819 	 26.881 	 -21.4858
| 22> H 	 -120.028 	 27.8894 	 -22.2282
| 23> S 	 -120.379 	 28.3318 	 -16.0832
| 24> C 	 -121.601 	 28.8903 	 -14.9437
| 25> C 	 -122.696 	 28.1094 	 -15.0063
| 26> C 	 -122.463 	 26.8736 	 -15.6612
| 27> C 	 -121.247 	 26.9187 	 -16.3671
| 28> H 	 -123.567 	 28.4002 	 -14.3941
| 29> C 	 -123.468 	 25.7651 	 -15.6919
| 30> H 	 -123.344 	 25.182 	 -16.6026
| 31> H 	 -124.498 	 26.2372 	 -15.7595
| 32> C 	 -123.457 	 24.7191 	 -14.5999
| 33> H 	 -124.43 	 24.1736 	 -14.679
| 34> H 	 -123.185 	 25.3227 	 -13.7334
| 35> C 	 -122.4 	 23.6305 	 -14.9309
| 36> H 	 -121.398 	 24.1218 	 -14.8984
| 37> H 	 -122.559 	 23.0926 	 -15.9584
| 38> H 	 -122.398 	 22.9363 	 -14.0585
| 39> H 	 -117.988 	 24.2809 	 -18.9221
| 40> H 	 -121.443 	 29.6233 	 -14.1026
| 41> *
| 42>
| 43>                          ****END OF INPUT****

CARTESIAN COORDINATES (ANGSTROEM)
---------------------------------
  S    -119.041000   25.352800  -16.963000
  C    -118.921000   24.686100  -18.545400
  C    -120.075000   24.815300  -19.286500
  C    -121.013000   25.691900  -18.617600
  C    -120.583000   26.017600  -17.373900
  H    -121.968000   26.073900  -19.068300
  C    -120.117000   24.648500  -20.817600
  H    -120.674000   23.668500  -21.036500
  H    -119.124000   24.425600  -21.178900
  C    -120.770000   25.835400  -21.658800
  H    -120.657000   25.481400  -22.625200
  H    -121.831000   26.067300  -21.364700
  C    -119.892000   27.081500  -21.535600
  H    -120.029000   27.509500  -20.519800
  H    -118.819000   26.881000  -21.485800
  H    -120.028000   27.889400  -22.228200
  S    -120.379000   28.331800  -16.083200
  C    -121.601000   28.890300  -14.943700
  C    -122.696000   28.109400  -15.006300
  C    -122.463000   26.873600  -15.661200
  C    -121.247000   26.918700  -16.367100
  H    -123.567000   28.400200  -14.394100
  C    -123.468000   25.765100  -15.691900
  H    -123.344000   25.182000  -16.602600
  H    -124.498000   26.237200  -15.759500
  C    -123.457000   24.719100  -14.599900
  H    -124.430000   24.173600  -14.679000
  H    -123.185000   25.322700  -13.733400
  C    -122.400000   23.630500  -14.930900
  H    -121.398000   24.121800  -14.898400
  H    -122.559000   23.092600  -15.958400
  H    -122.398000   22.936300  -14.058500
  H    -117.988000   24.280900  -18.922100
  H    -121.443000   29.623300  -14.102600

 Total Charge           Charge          ....    0
 Multiplicity           Mult            ....    1
 Number of Electrons    NEL             ....  134
 Basis Dimension        Dim             ....  322

ORBITAL ENERGIES
----------------

  NO   OCC          E(Eh)            E(eV)
   0   2.0000     -88.967077     -2420.9173
   1   2.0000     -88.963325     -2420.8152
   2   2.0000     -10.327516      -281.0260
   3   2.0000     -10.323459      -280.9156
   4   2.0000     -10.314365      -280.6681
   5   2.0000     -10.312276      -280.6113
   6   2.0000     -10.301951      -280.3303
   7   2.0000     -10.301813      -280.3266
   8   2.0000     -10.301725      -280.3242
   9   2.0000     -10.298652      -280.2406
  10   2.0000     -10.293581      -280.1026
  11   2.0000     -10.291210      -280.0381
  12   2.0000     -10.285022      -279.8697
  13   2.0000     -10.284591      -279.8580
  14   2.0000     -10.283627      -279.8317
  15   2.0000     -10.273021      -279.5431
  16   2.0000      -8.082700      -219.9414
  17   2.0000      -8.079305      -219.8491
  18   2.0000      -6.041041      -164.3851
  19   2.0000      -6.037670      -164.2934
  20   2.0000      -6.037128      -164.2786
  21   2.0000      -6.033549      -164.1812
  22   2.0000      -6.033527      -164.1806
  23   2.0000      -6.030210      -164.0904
  24   2.0000      -1.014597       -27.6086
  25   2.0000      -0.992250       -27.0005
  26   2.0000      -0.910695       -24.7813
  27   2.0000      -0.906023       -24.6541
  28   2.0000      -0.870629       -23.6910
  29   2.0000      -0.847786       -23.0694
  30   2.0000      -0.843010       -22.9395
  31   2.0000      -0.816607       -22.2210
  32   2.0000      -0.776842       -21.1389
  33   2.0000      -0.764094       -20.7920
  34   2.0000      -0.707362       -19.2483
  35   2.0000      -0.690164       -18.7803
  36   2.0000      -0.680698       -18.5227
  37   2.0000      -0.654504       -17.8100
  38   2.0000      -0.641561       -17.4578
  39   2.0000      -0.626209       -17.0400
  40   2.0000      -0.600695       -16.3457
  41   2.0000      -0.564432       -15.3590
  42   2.0000      -0.550289       -14.9741
  43   2.0000      -0.545219       -14.8362
  44   2.0000      -0.539136       -14.6706
  45   2.0000      -0.534521       -14.5450
  46   2.0000      -0.515674       -14.0322
  47   2.0000      -0.506871       -13.7926
  48   2.0000      -0.498301       -13.5595
  49   2.0000      -0.492699       -13.4070
  50   2.0000      -0.488493       -13.2926
  51   2.0000      -0.472750       -12.8642
  52   2.0000      -0.469099       -12.7648
  53   2.0000      -0.462584       -12.5875
  54   2.0000      -0.459775       -12.5111
  55   2.0000      -0.445635       -12.1263
  56   2.0000      -0.439072       -11.9478
  57   2.0000      -0.437664       -11.9094
  58   2.0000      -0.429170       -11.6783
  59   2.0000      -0.426613       -11.6087
  60   2.0000      -0.421495       -11.4695
  61   2.0000      -0.414277       -11.2730
  62   2.0000      -0.403650       -10.9839
  63   2.0000      -0.343100        -9.3362
  64   2.0000      -0.330959        -9.0059
  65   2.0000      -0.323653        -8.8070
  66   2.0000      -0.301057        -8.1922
  67   0.0000       0.037403         1.0178
  68   0.0000       0.069833         1.9003
  69   0.0000       0.111179         3.0253
  70   0.0000       0.119873         3.2619
  71   0.0000       0.122610         3.3364

MULLIKEN ATOMIC CHARGES
-----------------------
   0 S :    0.130417
   1 C :   -0.132392
   2 C :   -0.055941
   3 C :    0.031964
   4 C :   -0.173004
   5 H :    0.036446
   6 C :   -0.006619
   7 H :    0.044131
   8 H :    0.018009
   9 C :   -0.039121
  10 H :    0.023100
  11 H :    0.050328
  12 C :   -0.061690
  13 H :    0.031010
  14 H :    0.022106
  15 H :    0.036563
  16 S :    0.116668
  17 C :   -0.120280
  18 C :   -0.045568
  19 C :   -0.033748
  20 C :   -0.169402
  21 H :    0.030449
  22 C :    0.047034
  23 H :    0.002513
  24 H :    0.031356
  25 C :   -0.045795
  26 H :    0.041404
  27 H :    0.031952
  28 C :   -0.105048
  29 H :    0.035094
  30 H :    0.059370
  31 H :    0.039614
  32 H :    0.050271
  33 H :    0.078808
Sum of atomic charges:   -0.0000000

LOEWDIN ATOMIC CHARGES
----------------------
   0 S :    0.425433
   1 C :   -0.200228
   2 C :   -0.070755
   3 C :   -0.062978
   4 C :   -0.205766
   5 H :    0.043199
   6 C :   -0.031215
   7 H :    0.037307
   8 H :    0.024211
   9 C :   -0.032045
  10 H :    0.018114
  11 H :    0.031469
  12 C :   -0.074844
  13 H :    0.030660
  14 H :    0.026148
  15 H :    0.021639
  16 S :    0.431532
  17 C :   -0.197901
  18 C :   -0.074581
  19 C :   -0.066420
  20 C :   -0.221606
  21 H :    0.037668
  22 C :   -0.043843
  23 H :    0.024400
  24 H :    0.035617
  25 C :   -0.043513
  26 H :    0.033067
  27 H :    0.026861
  28 C :   -0.080198
  29 H :    0.023815
  30 H :    0.038615
  31 H :    0.026349
  32 H :    0.025478
  33 H :    0.044309

  Mayer bond orders larger than 0.100000
B(  0-S ,  1-C ) :   1.1471 B(  0-S ,  4-C ) :   1.1610 B(  1-C ,  2-C ) :   1.6190
B(  1-C , 32-H ) :   0.9663 B(  2-C ,  3-C ) :   1.2197 B(  2-C ,  6-C ) :   1.0171
B(  3-C ,  4-C ) :   1.6262 B(  3-C ,  5-H ) :   0.9814 B(  4-C , 20-C ) :   0.9660
B(  6-C ,  7-H ) :   0.9333 B(  6-C ,  8-H ) :   0.9542 B(  6-C ,  9-C ) :   1.0724
B(  9-C , 10-H ) :   0.9527 B(  9-C , 11-H ) :   0.9527 B(  9-C , 12-C ) :   1.0699
B( 12-C , 13-H ) :   0.9700 B( 12-C , 14-H ) :   0.9735 B( 12-C , 15-H ) :   0.9771
B( 16-S , 17-C ) :   1.1456 B( 16-S , 20-C ) :   1.1870 B( 17-C , 18-C ) :   1.6221
B( 17-C , 33-H ) :   0.9578 B( 18-C , 19-C ) :   1.2481 B( 18-C , 21-H ) :   0.9815
B( 19-C , 20-C ) :   1.5728 B( 19-C , 22-C ) :   1.0523 B( 22-C , 23-H ) :   0.9265
B( 22-C , 24-H ) :   0.9355 B( 22-C , 25-C ) :   1.0627 B( 25-C , 26-H ) :   0.9513
B( 25-C , 27-H ) :   0.9540 B( 25-C , 28-C ) :   1.0836 B( 28-C , 29-H ) :   0.9731
B( 28-C , 30-H ) :   0.9693 B( 28-C , 31-H ) :   0.9738

Dispersion correction           -0.015566433
FINAL SINGLE POINT ENERGY     -1339.858301281942

DIPOLE MOMENT
-------------
                                X             Y             Z
Electronic contribution:     10.25500       9.13870      10.61500
Nuclear contribution   :    -10.48939      -9.19591     -10.86603
                        -----------------------------------------
Total Dipole Moment    :     -0.23438      -0.05721      -0.25103
                        -----------------------------------------
Magnitude (a.u.)       :      0.34817
Magnitude (Debye)      :      0.88499

Rotational constants in cm-1:     0.019600     0.009189     0.008116
Rotational constants in MHz :   587.607317   275.488669   243.326517

                             ****ORCA TERMINATED NORMALLY****
TOTAL RUN TIME: 0 days 0 hours 0 minutes 22 seconds 511 msec
