                         Program Version 4.2.1 -  RELEASE  -
|  1> ! wB97X-D3 SP def2-SVP
|  2> %pal
|  3> nprocs 24
|  4> end
|  5>
|  6> * xyz 0 1
|  7> S 	 -36.3396 	 -31.2044 	 -98.0396
|  8> C 	 -35.4676 	 -30.9438 	 -99.6476
|  9> C 	 -35.4648 	 -32.0871 	 -100.422
| 10> C 	 -36.0643 	 -33.2381 	 -99.7496
| 11> C 	 -36.4645 	 -32.9085 	 -98.4143
| 12> H 	 -36.2101 	 -34.2202 	 -100.206
| 13> C 	 -35.013 	 -32.1169 	 -101.848
| 14> H 	 -34.9003 	 -33.1998 	 -102.166
| 15> H 	 -33.9782 	 -31.6656 	 -101.931
| 16> C 	 -35.9308 	 -31.4679 	 -102.803
| 17> H 	 -35.9787 	 -30.3884 	 -102.628
| 18> H 	 -35.5526 	 -31.4523 	 -103.848
| 19> C 	 -37.3484 	 -32.0316 	 -102.733
| 20> H 	 -37.3927 	 -33.1546 	 -102.835
| 21> H 	 -37.7939 	 -31.7948 	 -101.757
| 22> H 	 -37.9171 	 -31.5814 	 -103.552
| 23> S 	 -38.0413 	 -33.2327 	 -96.1173
| 24> C 	 -38.6287 	 -34.85 	 -95.7128
| 25> C 	 -37.9325 	 -35.8057 	 -96.4186
| 26> C 	 -36.9602 	 -35.2496 	 -97.3621
| 27> C 	 -37.0348 	 -33.8525 	 -97.4267
| 28> H 	 -38.0916 	 -36.7547 	 -96.1889
| 29> C 	 -35.9543 	 -36.0567 	 -98.1847
| 30> H 	 -35.0994 	 -35.4656 	 -98.3962
| 31> H 	 -36.3135 	 -36.2885 	 -99.2061
| 32> C 	 -35.5522 	 -37.3696 	 -97.5581
| 33> H 	 -36.1972 	 -38.2528 	 -97.5093
| 34> H 	 -35.2842 	 -37.2766 	 -96.4802
| 35> C 	 -34.3065 	 -37.8685 	 -98.4111
| 36> H 	 -33.4351 	 -37.2296 	 -98.2626
| 37> H 	 -34.6908 	 -38.025 	 -99.4183
| 38> H 	 -33.9501 	 -38.8109 	 -98.0484
| 39> H 	 -34.9766 	 -30.0356 	 -99.8797
| 40> H 	 -39.3543 	 -35.0913 	 -94.957
| 41> *
| 42>
| 43>                          ****END OF INPUT****

CARTESIAN COORDINATES (ANGSTROEM)
---------------------------------
  S    -36.339600  -31.204400  -98.039600
  C    -35.467600  -30.943800  -99.647600
  C    -35.464800  -32.087100  -100.422000
  C    -36.064300  -33.238100  -99.749600
  C    -36.464500  -32.908500  -98.414300
  H    -36.210100  -34.220200  -100.206000
  C    -35.013000  -32.116900  -101.848000
  H    -34.900300  -33.199800  -102.166000
  H    -33.978200  -31.665600  -101.931000
  C    -35.930800  -31.467900  -102.803000
  H    -35.978700  -30.388400  -102.628000
  H    -35.552600  -31.452300  -103.848000
  C    -37.348400  -32.031600  -102.733000
  H    -37.392700  -33.154600  -102.835000
  H    -37.793900  -31.794800  -101.757000
  H    -37.917100  -31.581400  -103.552000
  S    -38.041300  -33.232700  -96.117300
  C    -38.628700  -34.850000  -95.712800
  C    -37.932500  -35.805700  -96.418600
  C    -36.960200  -35.249600  -97.362100
  C    -37.034800  -33.852500  -97.426700
  H    -38.091600  -36.754700  -96.188900
  C    -35.954300  -36.056700  -98.184700
  H    -35.099400  -35.465600  -98.396200
  H    -36.313500  -36.288500  -99.206100
  C    -35.552200  -37.369600  -97.558100
  H    -36.197200  -38.252800  -97.509300
  H    -35.284200  -37.276600  -96.480200
  C    -34.306500  -37.868500  -98.411100
  H    -33.435100  -37.229600  -98.262600
  H    -34.690800  -38.025000  -99.418300
  H    -33.950100  -38.810900  -98.048400
  H    -34.976600  -30.035600  -99.879700
  H    -39.354300  -35.091300  -94.957000

 Total Charge           Charge          ....    0
 Multiplicity           Mult            ....    1
 Number of Electrons    NEL             ....  134
 Basis Dimension        Dim             ....  322

ORBITAL ENERGIES
----------------

  NO   OCC          E(Eh)            E(eV)
   0   2.0000     -88.970318     -2421.0054
   1   2.0000     -88.964218     -2420.8394
   2   2.0000     -10.342428      -281.4318
   3   2.0000     -10.330799      -281.1153
   4   2.0000     -10.319826      -280.8167
   5   2.0000     -10.319242      -280.8008
   6   2.0000     -10.309563      -280.5375
   7   2.0000     -10.307542      -280.4825
   8   2.0000     -10.304991      -280.4131
   9   2.0000     -10.297093      -280.1981
  10   2.0000     -10.294103      -280.1168
  11   2.0000     -10.291037      -280.0334
  12   2.0000     -10.290176      -280.0099
  13   2.0000     -10.284304      -279.8501
  14   2.0000     -10.278980      -279.7053
  15   2.0000     -10.278141      -279.6824
  16   2.0000      -8.083627      -219.9667
  17   2.0000      -8.078632      -219.8307
  18   2.0000      -6.042283      -164.4189
  19   2.0000      -6.038559      -164.3176
  20   2.0000      -6.037290      -164.2830
  21   2.0000      -6.034103      -164.1963
  22   2.0000      -6.033273      -164.1737
  23   2.0000      -6.029190      -164.0626
  24   2.0000      -0.998225       -27.1631
  25   2.0000      -0.974490       -26.5172
  26   2.0000      -0.919621       -25.0242
  27   2.0000      -0.910520       -24.7765
  28   2.0000      -0.866361       -23.5749
  29   2.0000      -0.847777       -23.0692
  30   2.0000      -0.837528       -22.7903
  31   2.0000      -0.812128       -22.0991
  32   2.0000      -0.782251       -21.2861
  33   2.0000      -0.771499       -20.9935
  34   2.0000      -0.708310       -19.2741
  35   2.0000      -0.704242       -19.1634
  36   2.0000      -0.696356       -18.9488
  37   2.0000      -0.659563       -17.9476
  38   2.0000      -0.636530       -17.3209
  39   2.0000      -0.614245       -16.7144
  40   2.0000      -0.599640       -16.3170
  41   2.0000      -0.574621       -15.6362
  42   2.0000      -0.567662       -15.4469
  43   2.0000      -0.558230       -15.1902
  44   2.0000      -0.546198       -14.8628
  45   2.0000      -0.526895       -14.3375
  46   2.0000      -0.517779       -14.0895
  47   2.0000      -0.507494       -13.8096
  48   2.0000      -0.505292       -13.7497
  49   2.0000      -0.495476       -13.4826
  50   2.0000      -0.481450       -13.1009
  51   2.0000      -0.476299       -12.9608
  52   2.0000      -0.475178       -12.9302
  53   2.0000      -0.460261       -12.5243
  54   2.0000      -0.457372       -12.4457
  55   2.0000      -0.450976       -12.2717
  56   2.0000      -0.445740       -12.1292
  57   2.0000      -0.440889       -11.9972
  58   2.0000      -0.434669       -11.8279
  59   2.0000      -0.424487       -11.5509
  60   2.0000      -0.421180       -11.4609
  61   2.0000      -0.409929       -11.1547
  62   2.0000      -0.406558       -11.0630
  63   2.0000      -0.356527        -9.7016
  64   2.0000      -0.333856        -9.0847
  65   2.0000      -0.326493        -8.8843
  66   2.0000      -0.281420        -7.6578
  67   0.0000       0.013399         0.3646
  68   0.0000       0.076205         2.0737
  69   0.0000       0.084507         2.2996
  70   0.0000       0.115757         3.1499
  71   0.0000       0.136220         3.7067

MULLIKEN ATOMIC CHARGES
-----------------------
   0 S :    0.088048
   1 C :   -0.116838
   2 C :   -0.074831
   3 C :   -0.008921
   4 C :   -0.110742
   5 H :    0.018715
   6 C :    0.041970
   7 H :    0.028021
   8 H :    0.042731
   9 C :   -0.064967
  10 H :    0.021369
  11 H :    0.028808
  12 C :   -0.075180
  13 H :    0.030815
  14 H :    0.058769
  15 H :    0.037749
  16 S :    0.083305
  17 C :   -0.077695
  18 C :    0.029523
  19 C :   -0.047053
  20 C :   -0.119500
  21 H :   -0.040027
  22 C :    0.063143
  23 H :    0.029486
  24 H :    0.037286
  25 C :   -0.115703
  26 H :    0.035499
  27 H :    0.034355
  28 C :   -0.045482
  29 H :    0.042753
  30 H :    0.034975
  31 H :    0.015116
  32 H :    0.038320
  33 H :    0.056185
Sum of atomic charges:   -0.0000000

LOEWDIN ATOMIC CHARGES
----------------------
   0 S :    0.364802
   1 C :   -0.163617
   2 C :   -0.054940
   3 C :   -0.069695
   4 C :   -0.175105
   5 H :    0.032567
   6 C :   -0.042020
   7 H :    0.033314
   8 H :    0.039996
   9 C :   -0.051041
  10 H :    0.023255
  11 H :    0.026789
  12 C :   -0.067796
  13 H :    0.025928
  14 H :    0.031482
  15 H :    0.027660
  16 S :    0.378922
  17 C :   -0.168403
  18 C :   -0.051102
  19 C :   -0.049425
  20 C :   -0.192366
  21 H :    0.006259
  22 C :   -0.035299
  23 H :    0.031023
  24 H :    0.032873
  25 C :   -0.046156
  26 H :    0.024104
  27 H :    0.025550
  28 C :   -0.059533
  29 H :    0.027002
  30 H :    0.025752
  31 H :    0.018657
  32 H :    0.019833
  33 H :    0.030729

  Mayer bond orders larger than 0.100000
B(  0-S ,  1-C ) :   1.0959 B(  0-S ,  4-C ) :   1.1536 B(  1-C ,  2-C ) :   1.6324
B(  1-C , 32-H ) :   0.9765 B(  2-C ,  3-C ) :   1.2125 B(  2-C ,  6-C ) :   1.0215
B(  3-C ,  4-C ) :   1.5437 B(  3-C ,  5-H ) :   0.9856 B(  4-C , 20-C ) :   1.0830
B(  6-C ,  7-H ) :   0.9410 B(  6-C ,  8-H ) :   0.9346 B(  6-C ,  9-C ) :   1.0873
B(  9-C , 10-H ) :   0.9474 B(  9-C , 11-H ) :   0.9535 B(  9-C , 12-C ) :   1.0718
B( 12-C , 13-H ) :   0.9757 B( 12-C , 14-H ) :   0.9698 B( 12-C , 15-H ) :   0.9727
B( 16-S , 17-C ) :   1.1383 B( 16-S , 20-C ) :   1.1202 B( 17-C , 18-C ) :   1.6236
B( 17-C , 33-H ) :   0.9683 B( 18-C , 19-C ) :   1.2169 B( 18-C , 21-H ) :   1.0125
B( 19-C , 20-C ) :   1.5944 B( 19-C , 22-C ) :   1.0340 B( 22-C , 23-H ) :   0.9399
B( 22-C , 24-H ) :   0.9209 B( 22-C , 25-C ) :   1.0565 B( 25-C , 26-H ) :   0.9533
B( 25-C , 27-H ) :   0.9592 B( 25-C , 28-C ) :   1.0790 B( 28-C , 29-H ) :   0.9782
B( 28-C , 30-H ) :   0.9744 B( 28-C , 31-H ) :   0.9736

Dispersion correction           -0.014152692
FINAL SINGLE POINT ENERGY     -1339.865648597112

DIPOLE MOMENT
-------------
                                X             Y             Z
Electronic contribution:     -9.07750      14.95246      20.68998
Nuclear contribution   :      9.29564     -15.46569     -21.12455
                        -----------------------------------------
Total Dipole Moment    :      0.21814      -0.51323      -0.43457
                        -----------------------------------------
Magnitude (a.u.)       :      0.70699
Magnitude (Debye)      :      1.79703

Rotational constants in cm-1:     0.017471     0.008893     0.006733
Rotational constants in MHz :   523.756226   266.606918   201.850317

                             ****ORCA TERMINATED NORMALLY****
TOTAL RUN TIME: 0 days 0 hours 0 minutes 21 seconds 652 msec
