                         Program Version 4.2.1 -  RELEASE  -
|  1> ! wB97X-D3 SP def2-SVP
|  2> %pal
|  3> nprocs 24
|  4> end
|  5>
|  6> * xyz 0 1
|  7> S 	 -93.7628 	 -39.1276 	 -61.7064
|  8> C 	 -94.083 	 -40.5756 	 -60.7614
|  9> C 	 -94.5529 	 -40.3185 	 -59.4435
| 10> C 	 -94.6306 	 -38.916 	 -59.2397
| 11> C 	 -94.333 	 -38.1393 	 -60.3237
| 12> H 	 -94.7855 	 -38.3286 	 -58.2949
| 13> C 	 -94.8938 	 -41.344 	 -58.3256
| 14> H 	 -94.3077 	 -42.2824 	 -58.4919
| 15> H 	 -95.974 	 -41.6658 	 -58.3876
| 16> C 	 -94.4876 	 -40.8747 	 -56.9694
| 17> H 	 -93.4497 	 -40.5779 	 -57.0202
| 18> H 	 -95.0546 	 -39.9404 	 -56.8095
| 19> C 	 -94.6813 	 -41.943 	 -55.8574
| 20> H 	 -95.6612 	 -42.2579 	 -55.7286
| 21> H 	 -94.1305 	 -42.871 	 -55.9301
| 22> H 	 -94.3821 	 -41.4826 	 -54.9693
| 23> S 	 -92.7913 	 -35.9698 	 -61.0737
| 24> C 	 -93.3751 	 -34.316 	 -60.4819
| 25> C 	 -94.6605 	 -34.4248 	 -60.018
| 26> C 	 -95.1312 	 -35.7579 	 -59.9505
| 27> C 	 -94.2142 	 -36.7068 	 -60.3567
| 28> H 	 -95.2305 	 -33.5659 	 -59.6939
| 29> C 	 -96.6076 	 -35.9126 	 -59.5353
| 30> H 	 -96.8968 	 -37.0132 	 -59.4788
| 31> H 	 -97.1889 	 -35.4261 	 -60.3954
| 32> C 	 -97.1357 	 -35.2621 	 -58.1981
| 33> H 	 -98.2263 	 -35.4419 	 -58.3451
| 34> H 	 -96.9759 	 -34.1721 	 -58.2913
| 35> C 	 -96.4815 	 -35.7701 	 -56.9285
| 36> H 	 -96.3885 	 -36.8529 	 -56.8808
| 37> H 	 -97.0302 	 -35.5683 	 -56.0416
| 38> H 	 -95.501 	 -35.2623 	 -56.8663
| 39> H 	 -93.9181 	 -41.5737 	 -61.0394
| 40> H 	 -92.7791 	 -33.4129 	 -60.5369
| 41> *
| 42>
| 43>                          ****END OF INPUT****

CARTESIAN COORDINATES (ANGSTROEM)
---------------------------------
  S    -93.762800  -39.127600  -61.706400
  C    -94.083000  -40.575600  -60.761400
  C    -94.552900  -40.318500  -59.443500
  C    -94.630600  -38.916000  -59.239700
  C    -94.333000  -38.139300  -60.323700
  H    -94.785500  -38.328600  -58.294900
  C    -94.893800  -41.344000  -58.325600
  H    -94.307700  -42.282400  -58.491900
  H    -95.974000  -41.665800  -58.387600
  C    -94.487600  -40.874700  -56.969400
  H    -93.449700  -40.577900  -57.020200
  H    -95.054600  -39.940400  -56.809500
  C    -94.681300  -41.943000  -55.857400
  H    -95.661200  -42.257900  -55.728600
  H    -94.130500  -42.871000  -55.930100
  H    -94.382100  -41.482600  -54.969300
  S    -92.791300  -35.969800  -61.073700
  C    -93.375100  -34.316000  -60.481900
  C    -94.660500  -34.424800  -60.018000
  C    -95.131200  -35.757900  -59.950500
  C    -94.214200  -36.706800  -60.356700
  H    -95.230500  -33.565900  -59.693900
  C    -96.607600  -35.912600  -59.535300
  H    -96.896800  -37.013200  -59.478800
  H    -97.188900  -35.426100  -60.395400
  C    -97.135700  -35.262100  -58.198100
  H    -98.226300  -35.441900  -58.345100
  H    -96.975900  -34.172100  -58.291300
  C    -96.481500  -35.770100  -56.928500
  H    -96.388500  -36.852900  -56.880800
  H    -97.030200  -35.568300  -56.041600
  H    -95.501000  -35.262300  -56.866300
  H    -93.918100  -41.573700  -61.039400
  H    -92.779100  -33.412900  -60.536900

 Total Charge           Charge          ....    0
 Multiplicity           Mult            ....    1
 Number of Electrons    NEL             ....  134
 Basis Dimension        Dim             ....  322

ORBITAL ENERGIES
----------------

  NO   OCC          E(Eh)            E(eV)
   0   2.0000     -88.969800     -2420.9914
   1   2.0000     -88.964857     -2420.8568
   2   2.0000     -10.326938      -281.0103
   3   2.0000     -10.326477      -280.9977
   4   2.0000     -10.325341      -280.9668
   5   2.0000     -10.314986      -280.6851
   6   2.0000     -10.307021      -280.4683
   7   2.0000     -10.303483      -280.3720
   8   2.0000     -10.301104      -280.3073
   9   2.0000     -10.298391      -280.2335
  10   2.0000     -10.295588      -280.1572
  11   2.0000     -10.295101      -280.1439
  12   2.0000     -10.294149      -280.1180
  13   2.0000     -10.287335      -279.9326
  14   2.0000     -10.279404      -279.7168
  15   2.0000     -10.270774      -279.4820
  16   2.0000      -8.083466      -219.9623
  17   2.0000      -8.078313      -219.8221
  18   2.0000      -6.042031      -164.4120
  19   2.0000      -6.038252      -164.3092
  20   2.0000      -6.037101      -164.2779
  21   2.0000      -6.034119      -164.1967
  22   2.0000      -6.033184      -164.1713
  23   2.0000      -6.028657      -164.0481
  24   2.0000      -1.001861       -27.2620
  25   2.0000      -0.976311       -26.5668
  26   2.0000      -0.913668       -24.8622
  27   2.0000      -0.901200       -24.5229
  28   2.0000      -0.870557       -23.6890
  29   2.0000      -0.850016       -23.1301
  30   2.0000      -0.843135       -22.9429
  31   2.0000      -0.814331       -22.1591
  32   2.0000      -0.784541       -21.3484
  33   2.0000      -0.773775       -21.0555
  34   2.0000      -0.712688       -19.3932
  35   2.0000      -0.695311       -18.9204
  36   2.0000      -0.690586       -18.7918
  37   2.0000      -0.660511       -17.9734
  38   2.0000      -0.643320       -17.5056
  39   2.0000      -0.614749       -16.7282
  40   2.0000      -0.594905       -16.1882
  41   2.0000      -0.568658       -15.4740
  42   2.0000      -0.560453       -15.2507
  43   2.0000      -0.547425       -14.8962
  44   2.0000      -0.541184       -14.7264
  45   2.0000      -0.528645       -14.3852
  46   2.0000      -0.517725       -14.0880
  47   2.0000      -0.504546       -13.7294
  48   2.0000      -0.498693       -13.5701
  49   2.0000      -0.496955       -13.5228
  50   2.0000      -0.490982       -13.3603
  51   2.0000      -0.479640       -13.0517
  52   2.0000      -0.475870       -12.9491
  53   2.0000      -0.464366       -12.6360
  54   2.0000      -0.458927       -12.4880
  55   2.0000      -0.451682       -12.2909
  56   2.0000      -0.444370       -12.0919
  57   2.0000      -0.439199       -11.9512
  58   2.0000      -0.432079       -11.7575
  59   2.0000      -0.426318       -11.6007
  60   2.0000      -0.416805       -11.3419
  61   2.0000      -0.414626       -11.2826
  62   2.0000      -0.412542       -11.2258
  63   2.0000      -0.352286        -9.5862
  64   2.0000      -0.335137        -9.1195
  65   2.0000      -0.326849        -8.8940
  66   2.0000      -0.284806        -7.7500
  67   0.0000       0.024851         0.6762
  68   0.0000       0.065090         1.7712
  69   0.0000       0.094731         2.5778
  70   0.0000       0.118572         3.2265
  71   0.0000       0.125515         3.4154

MULLIKEN ATOMIC CHARGES
-----------------------
   0 S :    0.107930
   1 C :   -0.086069
   2 C :   -0.086042
   3 C :   -0.012536
   4 C :   -0.152959
   5 H :    0.035162
   6 C :    0.053397
   7 H :    0.020320
   8 H :    0.051853
   9 C :   -0.124851
  10 H :    0.036343
  11 H :    0.037310
  12 C :    0.026791
  13 H :    0.010305
  14 H :    0.026525
  15 H :    0.016802
  16 S :    0.081269
  17 C :   -0.099558
  18 C :   -0.016488
  19 C :   -0.016292
  20 C :   -0.142011
  21 H :    0.021591
  22 C :   -0.025836
  23 H :    0.041357
  24 H :    0.055555
  25 C :   -0.092390
  26 H :    0.042415
  27 H :    0.028879
  28 C :   -0.022461
  29 H :    0.026510
  30 H :    0.027983
  31 H :    0.046759
  32 H :    0.021697
  33 H :    0.060739
Sum of atomic charges:    0.0000000

LOEWDIN ATOMIC CHARGES
----------------------
   0 S :    0.385662
   1 C :   -0.185996
   2 C :   -0.059720
   3 C :   -0.071337
   4 C :   -0.177427
   5 H :    0.041507
   6 C :   -0.038032
   7 H :    0.030332
   8 H :    0.037046
   9 C :   -0.042422
  10 H :    0.027763
  11 H :    0.024136
  12 C :   -0.053026
  13 H :    0.016932
  14 H :    0.027777
  15 H :    0.022647
  16 S :    0.354655
  17 C :   -0.147670
  18 C :   -0.065626
  19 C :   -0.068536
  20 C :   -0.194336
  21 H :    0.032613
  22 C :   -0.040284
  23 H :    0.032401
  24 H :    0.043613
  25 C :   -0.047136
  26 H :    0.030838
  27 H :    0.020546
  28 C :   -0.067441
  29 H :    0.023335
  30 H :    0.024652
  31 H :    0.036638
  32 H :    0.016184
  33 H :    0.029716

  Mayer bond orders larger than 0.100000
B(  0-S ,  1-C ) :   1.1393 B(  0-S ,  4-C ) :   1.1177 B(  1-C ,  2-C ) :   1.6235
B(  1-C ,  4-C ) :   0.1004 B(  1-C , 32-H ) :   0.9708 B(  2-C ,  3-C ) :   1.2282
B(  2-C ,  6-C ) :   1.0062 B(  3-C ,  4-C ) :   1.6164 B(  3-C ,  5-H ) :   0.9721
B(  4-C , 20-C ) :   1.0630 B(  6-C ,  7-H ) :   0.9439 B(  6-C ,  8-H ) :   0.9371
B(  6-C ,  9-C ) :   1.0743 B(  9-C , 10-H ) :   0.9584 B(  9-C , 11-H ) :   0.9445
B(  9-C , 12-C ) :   1.0816 B( 12-C , 13-H ) :   0.9721 B( 12-C , 14-H ) :   0.9728
B( 12-C , 15-H ) :   0.9709 B( 16-S , 17-C ) :   1.1170 B( 16-S , 20-C ) :   1.1128
B( 17-C , 18-C ) :   1.6308 B( 17-C , 33-H ) :   0.9713 B( 18-C , 19-C ) :   1.2148
B( 18-C , 21-H ) :   0.9897 B( 19-C , 20-C ) :   1.6123 B( 19-C , 22-C ) :   1.0268
B( 22-C , 23-H ) :   0.9397 B( 22-C , 24-H ) :   0.9407 B( 22-C , 25-C ) :   1.0656
B( 25-C , 26-H ) :   0.9555 B( 25-C , 27-H ) :   0.9550 B( 25-C , 28-C ) :   1.0680
B( 28-C , 29-H ) :   0.9732 B( 28-C , 30-H ) :   0.9706 B( 28-C , 31-H ) :   0.9710

Dispersion correction           -0.014372329
FINAL SINGLE POINT ENERGY     -1339.869298666076

DIPOLE MOMENT
-------------
                                X             Y             Z
Electronic contribution:     14.57071       6.62785     -26.41879
Nuclear contribution   :    -14.97465      -6.59129      27.11484
                        -----------------------------------------
Total Dipole Moment    :     -0.40393       0.03656       0.69605
                        -----------------------------------------
Magnitude (a.u.)       :      0.80559
Magnitude (Debye)      :      2.04766

Rotational constants in cm-1:     0.016826     0.009333     0.006783
Rotational constants in MHz :   504.433946   279.800294   203.336863

                             ****ORCA TERMINATED NORMALLY****
TOTAL RUN TIME: 0 days 0 hours 0 minutes 20 seconds 699 msec
