                         Program Version 4.2.1 -  RELEASE  -
|  1> ! wB97X-D3 SP def2-SVP
|  2> %pal
|  3> nprocs 24
|  4> end
|  5>
|  6> * xyz 0 1
|  7> S 	 -111.403 	 60.614 	 -68.6314
|  8> C 	 -110.822 	 59.8499 	 -67.1859
|  9> C 	 -111.184 	 60.6242 	 -66.1094
| 10> C 	 -112.109 	 61.7252 	 -66.4695
| 11> C 	 -112.395 	 61.7941 	 -67.8263
| 12> H 	 -112.596 	 62.3916 	 -65.8448
| 13> C 	 -110.644 	 60.2719 	 -64.7543
| 14> H 	 -109.556 	 60.5307 	 -64.6391
| 15> H 	 -110.647 	 59.1787 	 -64.7585
| 16> C 	 -111.336 	 61.037 	 -63.6507
| 17> H 	 -111.192 	 62.1334 	 -63.7811
| 18> H 	 -112.468 	 60.9194 	 -63.7268
| 19> C 	 -110.9 	 60.5479 	 -62.2831
| 20> H 	 -111.078 	 59.4883 	 -62.0712
| 21> H 	 -109.774 	 60.7311 	 -62.1729
| 22> H 	 -111.455 	 61.2291 	 -61.5692
| 23> S 	 -112.184 	 63.5535 	 -69.92
| 24> C 	 -113.57 	 64.5436 	 -70.4267
| 25> C 	 -114.583 	 64.3015 	 -69.5593
| 26> C 	 -114.324 	 63.4123 	 -68.4858
| 27> C 	 -113.049 	 62.8286 	 -68.5776
| 28> H 	 -115.514 	 64.8144 	 -69.7333
| 29> C 	 -115.315 	 63.1948 	 -67.3246
| 30> H 	 -115.649 	 64.1769 	 -67.1482
| 31> H 	 -114.898 	 62.959 	 -66.3259
| 32> C 	 -116.455 	 62.2419 	 -67.6561
| 33> H 	 -117.025 	 62.7381 	 -68.471
| 34> H 	 -117.087 	 62.1413 	 -66.7922
| 35> C 	 -116.044 	 60.8845 	 -68.0713
| 36> H 	 -115.338 	 60.4134 	 -67.4561
| 37> H 	 -115.607 	 60.813 	 -69.1007
| 38> H 	 -116.895 	 60.288 	 -68.0892
| 39> H 	 -110.097 	 59.0927 	 -67.1483
| 40> H 	 -113.545 	 65.2235 	 -71.2773
| 41> *
| 42>
| 43>                          ****END OF INPUT****

CARTESIAN COORDINATES (ANGSTROEM)
---------------------------------
  S    -111.403000   60.614000  -68.631400
  C    -110.822000   59.849900  -67.185900
  C    -111.184000   60.624200  -66.109400
  C    -112.109000   61.725200  -66.469500
  C    -112.395000   61.794100  -67.826300
  H    -112.596000   62.391600  -65.844800
  C    -110.644000   60.271900  -64.754300
  H    -109.556000   60.530700  -64.639100
  H    -110.647000   59.178700  -64.758500
  C    -111.336000   61.037000  -63.650700
  H    -111.192000   62.133400  -63.781100
  H    -112.468000   60.919400  -63.726800
  C    -110.900000   60.547900  -62.283100
  H    -111.078000   59.488300  -62.071200
  H    -109.774000   60.731100  -62.172900
  H    -111.455000   61.229100  -61.569200
  S    -112.184000   63.553500  -69.920000
  C    -113.570000   64.543600  -70.426700
  C    -114.583000   64.301500  -69.559300
  C    -114.324000   63.412300  -68.485800
  C    -113.049000   62.828600  -68.577600
  H    -115.514000   64.814400  -69.733300
  C    -115.315000   63.194800  -67.324600
  H    -115.649000   64.176900  -67.148200
  H    -114.898000   62.959000  -66.325900
  C    -116.455000   62.241900  -67.656100
  H    -117.025000   62.738100  -68.471000
  H    -117.087000   62.141300  -66.792200
  C    -116.044000   60.884500  -68.071300
  H    -115.338000   60.413400  -67.456100
  H    -115.607000   60.813000  -69.100700
  H    -116.895000   60.288000  -68.089200
  H    -110.097000   59.092700  -67.148300
  H    -113.545000   65.223500  -71.277300

 Total Charge           Charge          ....    0
 Multiplicity           Mult            ....    1
 Number of Electrons    NEL             ....  134
 Basis Dimension        Dim             ....  322

ORBITAL ENERGIES
----------------

  NO   OCC          E(Eh)            E(eV)
   0   2.0000     -88.962721     -2420.7987
   1   2.0000     -88.960551     -2420.7397
   2   2.0000     -10.329771      -281.0874
   3   2.0000     -10.329336      -281.0755
   4   2.0000     -10.318803      -280.7889
   5   2.0000     -10.307344      -280.4771
   6   2.0000     -10.306013      -280.4409
   7   2.0000     -10.303464      -280.3715
   8   2.0000     -10.295842      -280.1641
   9   2.0000     -10.293201      -280.0922
  10   2.0000     -10.292869      -280.0832
  11   2.0000     -10.292493      -280.0730
  12   2.0000     -10.289059      -279.9795
  13   2.0000     -10.288589      -279.9667
  14   2.0000     -10.280247      -279.7397
  15   2.0000     -10.258586      -279.1503
  16   2.0000      -8.077099      -219.7890
  17   2.0000      -8.075856      -219.7552
  18   2.0000      -6.035654      -164.2385
  19   2.0000      -6.034431      -164.2052
  20   2.0000      -6.031549      -164.1268
  21   2.0000      -6.030101      -164.0874
  22   2.0000      -6.027909      -164.0277
  23   2.0000      -6.026665      -163.9939
  24   2.0000      -1.007886       -27.4260
  25   2.0000      -0.984299       -26.7841
  26   2.0000      -0.917532       -24.9673
  27   2.0000      -0.912199       -24.8222
  28   2.0000      -0.877387       -23.8749
  29   2.0000      -0.848665       -23.0933
  30   2.0000      -0.840233       -22.8639
  31   2.0000      -0.822340       -22.3770
  32   2.0000      -0.785205       -21.3665
  33   2.0000      -0.770203       -20.9583
  34   2.0000      -0.716175       -19.4881
  35   2.0000      -0.692987       -18.8571
  36   2.0000      -0.687238       -18.7007
  37   2.0000      -0.657716       -17.8974
  38   2.0000      -0.648454       -17.6453
  39   2.0000      -0.616842       -16.7851
  40   2.0000      -0.600916       -16.3518
  41   2.0000      -0.574679       -15.6378
  42   2.0000      -0.562942       -15.3184
  43   2.0000      -0.556057       -15.1311
  44   2.0000      -0.547417       -14.8960
  45   2.0000      -0.532778       -14.4976
  46   2.0000      -0.517189       -14.0734
  47   2.0000      -0.513216       -13.9653
  48   2.0000      -0.507325       -13.8050
  49   2.0000      -0.501824       -13.6553
  50   2.0000      -0.488231       -13.2854
  51   2.0000      -0.485518       -13.2116
  52   2.0000      -0.473713       -12.8904
  53   2.0000      -0.467740       -12.7279
  54   2.0000      -0.462624       -12.5887
  55   2.0000      -0.447996       -12.1906
  56   2.0000      -0.440287       -11.9808
  57   2.0000      -0.434475       -11.8227
  58   2.0000      -0.433567       -11.7980
  59   2.0000      -0.415471       -11.3055
  60   2.0000      -0.414997       -11.2926
  61   2.0000      -0.410640       -11.1741
  62   2.0000      -0.403804       -10.9881
  63   2.0000      -0.353981        -9.6323
  64   2.0000      -0.330329        -8.9887
  65   2.0000      -0.321146        -8.7388
  66   2.0000      -0.291271        -7.9259
  67   0.0000       0.026889         0.7317
  68   0.0000       0.070899         1.9293
  69   0.0000       0.116151         3.1606
  70   0.0000       0.124583         3.3901
  71   0.0000       0.128108         3.4860

MULLIKEN ATOMIC CHARGES
-----------------------
   0 S :    0.095301
   1 C :   -0.085910
   2 C :   -0.099766
   3 C :    0.046871
   4 C :   -0.122986
   5 H :   -0.019660
   6 C :    0.053741
   7 H :    0.041117
   8 H :    0.032512
   9 C :   -0.140980
  10 H :    0.047672
  11 H :    0.036714
  12 C :   -0.043086
  13 H :    0.044148
  14 H :    0.035210
  15 H :    0.041996
  16 S :    0.091222
  17 C :   -0.099883
  18 C :   -0.027913
  19 C :   -0.035135
  20 C :   -0.163573
  21 H :    0.015343
  22 C :    0.086529
  23 H :    0.008572
  24 H :    0.020640
  25 C :   -0.068393
  26 H :    0.025972
  27 H :    0.023603
  28 C :   -0.007058
  29 H :    0.019227
  30 H :    0.038400
  31 H :    0.012312
  32 H :    0.031475
  33 H :    0.065768
Sum of atomic charges:   -0.0000000

LOEWDIN ATOMIC CHARGES
----------------------
   0 S :    0.415031
   1 C :   -0.195507
   2 C :   -0.058139
   3 C :   -0.058181
   4 C :   -0.193356
   5 H :    0.014036
   6 C :   -0.043149
   7 H :    0.038520
   8 H :    0.034295
   9 C :   -0.056745
  10 H :    0.031296
  11 H :    0.027054
  12 C :   -0.070745
  13 H :    0.026304
  14 H :    0.029869
  15 H :    0.033423
  16 S :    0.391771
  17 C :   -0.177142
  18 C :   -0.073340
  19 C :   -0.055178
  20 C :   -0.194399
  21 H :    0.030646
  22 C :   -0.030348
  23 H :    0.025228
  24 H :    0.030011
  25 C :   -0.038861
  26 H :    0.026842
  27 H :    0.022597
  28 C :   -0.061339
  29 H :    0.019508
  30 H :    0.034222
  31 H :    0.019319
  32 H :    0.021009
  33 H :    0.035448

  Mayer bond orders larger than 0.100000
B(  0-S ,  1-C ) :   1.1352 B(  0-S ,  4-C ) :   1.1542 B(  1-C ,  2-C ) :   1.6114
B(  1-C , 32-H ) :   0.9792 B(  2-C ,  3-C ) :   1.2247 B(  2-C ,  6-C ) :   1.0198
B(  3-C ,  4-C ) :   1.5473 B(  3-C ,  5-H ) :   1.0066 B(  4-C , 20-C ) :   1.0662
B(  6-C ,  7-H ) :   0.9273 B(  6-C ,  8-H ) :   0.9449 B(  6-C ,  9-C ) :   1.0817
B(  9-C , 10-H ) :   0.9430 B(  9-C , 11-H ) :   0.9535 B(  9-C , 12-C ) :   1.0828
B( 12-C , 13-H ) :   0.9756 B( 12-C , 14-H ) :   0.9701 B( 12-C , 15-H ) :   0.9718
B( 16-S , 17-C ) :   1.1386 B( 16-S , 20-C ) :   1.1515 B( 17-C , 18-C ) :   1.6037
B( 17-C , 20-C ) :   0.1013 B( 17-C , 33-H ) :   0.9715 B( 18-C , 19-C ) :   1.2577
B( 18-C , 21-H ) :   0.9890 B( 19-C , 20-C ) :   1.5632 B( 19-C , 22-C ) :   1.0168
B( 22-C , 23-H ) :   0.9298 B( 22-C , 24-H ) :   0.9433 B( 22-C , 25-C ) :   1.0845
B( 25-C , 26-H ) :   0.9524 B( 25-C , 27-H ) :   0.9535 B( 25-C , 28-C ) :   1.0924
B( 28-C , 29-H ) :   0.9720 B( 28-C , 30-H ) :   0.9665 B( 28-C , 31-H ) :   0.9681

Dispersion correction           -0.014558046
FINAL SINGLE POINT ENERGY     -1339.872426143656

DIPOLE MOMENT
-------------
                                X             Y             Z
Electronic contribution:     10.02067       5.74853     -23.52068
Nuclear contribution   :    -10.26867      -5.63078      24.08020
                        -----------------------------------------
Total Dipole Moment    :     -0.24800       0.11775       0.55952
                        -----------------------------------------
Magnitude (a.u.)       :      0.62324
Magnitude (Debye)      :      1.58416

Rotational constants in cm-1:     0.020014     0.008360     0.007083
Rotational constants in MHz :   600.000615   250.619841   212.343732

                             ****ORCA TERMINATED NORMALLY****
TOTAL RUN TIME: 0 days 0 hours 0 minutes 20 seconds 867 msec
