                         Program Version 4.2.1 -  RELEASE  -
|  1> ! wB97X-D3 SP def2-SVP
|  2> %pal
|  3> nprocs 24
|  4> end
|  5>
|  6> * xyz 0 1
|  7> S 	 -122.855 	 65.802 	 -39.2666
|  8> C 	 -122.138 	 67.0995 	 -38.4305
|  9> C 	 -121.436 	 68.0073 	 -39.2935
| 10> C 	 -121.466 	 67.5362 	 -40.6664
| 11> C 	 -122.169 	 66.3772 	 -40.794
| 12> H 	 -121.053 	 68.0147 	 -41.5594
| 13> C 	 -120.832 	 69.3129 	 -38.9041
| 14> H 	 -119.873 	 69.2572 	 -39.3078
| 15> H 	 -120.846 	 69.2943 	 -37.8051
| 16> C 	 -121.672 	 70.5697 	 -39.224
| 17> H 	 -121.296 	 71.5097 	 -38.6899
| 18> H 	 -121.62 	 70.814 	 -40.3368
| 19> C 	 -123.128 	 70.5481 	 -38.801
| 20> H 	 -123.844 	 69.9158 	 -39.4199
| 21> H 	 -123.27 	 70.0554 	 -37.8749
| 22> H 	 -123.582 	 71.5159 	 -38.6957
| 23> S 	 -122.01 	 63.9545 	 -42.1645
| 24> C 	 -122.521 	 63.9333 	 -43.8076
| 25> C 	 -123.153 	 65.0741 	 -44.1884
| 26> C 	 -123.044 	 66.1216 	 -43.2083
| 27> C 	 -122.35 	 65.7314 	 -42.1109
| 28> H 	 -123.599 	 65.2305 	 -45.1701
| 29> C 	 -123.757 	 67.4769 	 -43.3584
| 30> H 	 -123.464 	 67.9742 	 -42.4702
| 31> H 	 -124.798 	 67.3843 	 -43.3042
| 32> C 	 -123.24 	 68.3895 	 -44.5249
| 33> H 	 -123.761 	 69.3356 	 -44.4731
| 34> H 	 -123.729 	 67.9188 	 -45.3801
| 35> C 	 -121.724 	 68.6113 	 -44.5904
| 36> H 	 -121.468 	 69.0857 	 -45.5051
| 37> H 	 -121.234 	 67.5872 	 -44.5686
| 38> H 	 -121.445 	 69.3168 	 -43.8005
| 39> H 	 -122.146 	 67.3035 	 -37.3831
| 40> H 	 -122.659 	 63.05 	 -44.4045
| 41> *
| 42>
| 43>                          ****END OF INPUT****

CARTESIAN COORDINATES (ANGSTROEM)
---------------------------------
  S    -122.855000   65.802000  -39.266600
  C    -122.138000   67.099500  -38.430500
  C    -121.436000   68.007300  -39.293500
  C    -121.466000   67.536200  -40.666400
  C    -122.169000   66.377200  -40.794000
  H    -121.053000   68.014700  -41.559400
  C    -120.832000   69.312900  -38.904100
  H    -119.873000   69.257200  -39.307800
  H    -120.846000   69.294300  -37.805100
  C    -121.672000   70.569700  -39.224000
  H    -121.296000   71.509700  -38.689900
  H    -121.620000   70.814000  -40.336800
  C    -123.128000   70.548100  -38.801000
  H    -123.844000   69.915800  -39.419900
  H    -123.270000   70.055400  -37.874900
  H    -123.582000   71.515900  -38.695700
  S    -122.010000   63.954500  -42.164500
  C    -122.521000   63.933300  -43.807600
  C    -123.153000   65.074100  -44.188400
  C    -123.044000   66.121600  -43.208300
  C    -122.350000   65.731400  -42.110900
  H    -123.599000   65.230500  -45.170100
  C    -123.757000   67.476900  -43.358400
  H    -123.464000   67.974200  -42.470200
  H    -124.798000   67.384300  -43.304200
  C    -123.240000   68.389500  -44.524900
  H    -123.761000   69.335600  -44.473100
  H    -123.729000   67.918800  -45.380100
  C    -121.724000   68.611300  -44.590400
  H    -121.468000   69.085700  -45.505100
  H    -121.234000   67.587200  -44.568600
  H    -121.445000   69.316800  -43.800500
  H    -122.146000   67.303500  -37.383100
  H    -122.659000   63.050000  -44.404500

 Total Charge           Charge          ....    0
 Multiplicity           Mult            ....    1
 Number of Electrons    NEL             ....  134
 Basis Dimension        Dim             ....  322

ORBITAL ENERGIES
----------------

  NO   OCC          E(Eh)            E(eV)
   0   2.0000     -88.971589     -2421.0400
   1   2.0000     -88.962319     -2420.7878
   2   2.0000     -10.326560      -281.0000
   3   2.0000     -10.325605      -280.9740
   4   2.0000     -10.313858      -280.6544
   5   2.0000     -10.312557      -280.6189
   6   2.0000     -10.303578      -280.3746
   7   2.0000     -10.301619      -280.3213
   8   2.0000     -10.299315      -280.2586
   9   2.0000     -10.292759      -280.0802
  10   2.0000     -10.290645      -280.0227
  11   2.0000     -10.289928      -280.0032
  12   2.0000     -10.286596      -279.9125
  13   2.0000     -10.283377      -279.8249
  14   2.0000     -10.282694      -279.8063
  15   2.0000     -10.274426      -279.5813
  16   2.0000      -8.086297      -220.0393
  17   2.0000      -8.077128      -219.7898
  18   2.0000      -6.044848      -164.4887
  19   2.0000      -6.040780      -164.3780
  20   2.0000      -6.037042      -164.2763
  21   2.0000      -6.035629      -164.2378
  22   2.0000      -6.031922      -164.1370
  23   2.0000      -6.027590      -164.0191
  24   2.0000      -1.005264       -27.3546
  25   2.0000      -0.984262       -26.7831
  26   2.0000      -0.912522       -24.8310
  27   2.0000      -0.906109       -24.6565
  28   2.0000      -0.869256       -23.6537
  29   2.0000      -0.850490       -23.1430
  30   2.0000      -0.845979       -23.0203
  31   2.0000      -0.815871       -22.2010
  32   2.0000      -0.786835       -21.4109
  33   2.0000      -0.773546       -21.0493
  34   2.0000      -0.705379       -19.1943
  35   2.0000      -0.696794       -18.9607
  36   2.0000      -0.694750       -18.9051
  37   2.0000      -0.657203       -17.8834
  38   2.0000      -0.640369       -17.4253
  39   2.0000      -0.614975       -16.7343
  40   2.0000      -0.592686       -16.1278
  41   2.0000      -0.565248       -15.3812
  42   2.0000      -0.559894       -15.2355
  43   2.0000      -0.553465       -15.0605
  44   2.0000      -0.547999       -14.9118
  45   2.0000      -0.544144       -14.8069
  46   2.0000      -0.512985       -13.9590
  47   2.0000      -0.508972       -13.8498
  48   2.0000      -0.496367       -13.5068
  49   2.0000      -0.491592       -13.3769
  50   2.0000      -0.487525       -13.2662
  51   2.0000      -0.479281       -13.0419
  52   2.0000      -0.469438       -12.7741
  53   2.0000      -0.465534       -12.6678
  54   2.0000      -0.455210       -12.3869
  55   2.0000      -0.453403       -12.3377
  56   2.0000      -0.449356       -12.2276
  57   2.0000      -0.446448       -12.1485
  58   2.0000      -0.441893       -12.0245
  59   2.0000      -0.422105       -11.4861
  60   2.0000      -0.417670       -11.3654
  61   2.0000      -0.406850       -11.0709
  62   2.0000      -0.404409       -11.0045
  63   2.0000      -0.347619        -9.4592
  64   2.0000      -0.332493        -9.0476
  65   2.0000      -0.325986        -8.8705
  66   2.0000      -0.295780        -8.0486
  67   0.0000       0.036026         0.9803
  68   0.0000       0.064571         1.7571
  69   0.0000       0.111066         3.0223
  70   0.0000       0.116363         3.1664
  71   0.0000       0.124688         3.3929

MULLIKEN ATOMIC CHARGES
-----------------------
   0 S :    0.139556
   1 C :   -0.101264
   2 C :   -0.147486
   3 C :    0.023678
   4 C :   -0.144366
   5 H :    0.016856
   6 C :    0.133688
   7 H :    0.027761
   8 H :    0.013124
   9 C :   -0.104569
  10 H :    0.044390
  11 H :    0.036395
  12 C :   -0.048709
  13 H :    0.038934
  14 H :    0.003570
  15 H :    0.033438
  16 S :    0.089784
  17 C :   -0.059040
  18 C :   -0.043259
  19 C :   -0.070860
  20 C :   -0.184424
  21 H :    0.022095
  22 C :    0.125007
  23 H :   -0.004449
  24 H :    0.029462
  25 C :   -0.095345
  26 H :    0.024029
  27 H :    0.020081
  28 C :   -0.044254
  29 H :    0.028994
  30 H :    0.064204
  31 H :    0.043189
  32 H :    0.037070
  33 H :    0.052720
Sum of atomic charges:   -0.0000000

LOEWDIN ATOMIC CHARGES
----------------------
   0 S :    0.421971
   1 C :   -0.218094
   2 C :   -0.057627
   3 C :   -0.061755
   4 C :   -0.192625
   5 H :    0.035919
   6 C :   -0.030532
   7 H :    0.028125
   8 H :    0.033095
   9 C :   -0.047544
  10 H :    0.035112
  11 H :    0.025912
  12 C :   -0.074643
  13 H :    0.032815
  14 H :    0.016458
  15 H :    0.025331
  16 S :    0.382762
  17 C :   -0.184388
  18 C :   -0.075825
  19 C :   -0.051652
  20 C :   -0.177993
  21 H :    0.031882
  22 C :   -0.021981
  23 H :    0.021455
  24 H :    0.027289
  25 C :   -0.041946
  26 H :    0.022535
  27 H :    0.017812
  28 C :   -0.066114
  29 H :    0.023883
  30 H :    0.040165
  31 H :    0.028289
  32 H :    0.022961
  33 H :    0.028949

  Mayer bond orders larger than 0.100000
B(  0-S ,  1-C ) :   1.1466 B(  0-S ,  4-C ) :   1.1418 B(  1-C ,  2-C ) :   1.5943
B(  1-C , 32-H ) :   0.9640 B(  2-C ,  3-C ) :   1.2207 B(  2-C ,  6-C ) :   1.0388
B(  3-C ,  4-C ) :   1.5883 B(  3-C ,  5-H ) :   0.9923 B(  4-C , 20-C ) :   1.0264
B(  6-C ,  7-H ) :   0.9378 B(  6-C ,  8-H ) :   0.9293 B(  6-C ,  9-C ) :   1.0635
B(  9-C , 10-H ) :   0.9603 B(  9-C , 11-H ) :   0.9550 B(  9-C , 12-C ) :   1.0719
B( 12-C , 13-H ) :   0.9665 B( 12-C , 14-H ) :   0.9711 B( 12-C , 15-H ) :   0.9752
B( 16-S , 17-C ) :   1.1510 B( 16-S , 20-C ) :   1.1120 B( 17-C , 18-C ) :   1.6426
B( 17-C , 33-H ) :   0.9618 B( 18-C , 19-C ) :   1.2094 B( 18-C , 21-H ) :   0.9890
B( 19-C , 20-C ) :   1.6492 B( 19-C , 22-C ) :   1.0255 B( 22-C , 23-H ) :   0.9225
B( 22-C , 24-H ) :   0.9391 B( 22-C , 25-C ) :   1.0608 B( 25-C , 26-H ) :   0.9553
B( 25-C , 27-H ) :   0.9614 B( 25-C , 28-C ) :   1.0741 B( 28-C , 29-H ) :   0.9700
B( 28-C , 30-H ) :   0.9686 B( 28-C , 31-H ) :   0.9695

Dispersion correction           -0.015816473
FINAL SINGLE POINT ENERGY     -1339.868975346022

DIPOLE MOMENT
-------------
                                X             Y             Z
Electronic contribution:      0.84212     -28.02827       5.21648
Nuclear contribution   :     -1.06495      28.64850      -5.43833
                        -----------------------------------------
Total Dipole Moment    :     -0.22283       0.62023      -0.22185
                        -----------------------------------------
Magnitude (a.u.)       :      0.69538
Magnitude (Debye)      :      1.76751

Rotational constants in cm-1:     0.019206     0.009889     0.007304
Rotational constants in MHz :   575.785364   296.459659   218.973754

                             ****ORCA TERMINATED NORMALLY****
TOTAL RUN TIME: 0 days 0 hours 0 minutes 22 seconds 742 msec
