                         Program Version 4.2.1 -  RELEASE  -
|  1> ! wB97X-D3 SP def2-SVP
|  2> %pal
|  3> nprocs 24
|  4> end
|  5>
|  6> * xyz 0 1
|  7> S 	 -128.231 	 69.5511 	 -52.5619
|  8> C 	 -127.769 	 70.9247 	 -53.4145
|  9> C 	 -126.478 	 71.3316 	 -53.1786
| 10> C 	 -125.833 	 70.3984 	 -52.2582
| 11> C 	 -126.634 	 69.4179 	 -51.7725
| 12> H 	 -124.811 	 70.4218 	 -51.8916
| 13> C 	 -125.636 	 72.4462 	 -53.7778
| 14> H 	 -126.105 	 72.8774 	 -54.65
| 15> H 	 -124.646 	 72.1139 	 -54.0302
| 16> C 	 -125.468 	 73.6037 	 -52.8294
| 17> H 	 -124.908 	 73.3168 	 -51.8938
| 18> H 	 -124.805 	 74.3302 	 -53.3398
| 19> C 	 -126.773 	 74.4246 	 -52.5825
| 20> H 	 -127.503 	 74.0032 	 -51.8786
| 21> H 	 -126.512 	 75.3875 	 -52.1482
| 22> H 	 -127.169 	 74.5604 	 -53.5811
| 23> S 	 -127.623 	 67.9924 	 -49.5945
| 24> C 	 -126.623 	 66.7613 	 -48.8655
| 25> C 	 -125.336 	 66.9313 	 -49.2451
| 26> C 	 -125.142 	 67.8399 	 -50.372
| 27> C 	 -126.324 	 68.4664 	 -50.7409
| 28> H 	 -124.452 	 66.5062 	 -48.8564
| 29> C 	 -123.748 	 68.0831 	 -50.9493
| 30> H 	 -123.665 	 68.5012 	 -52.0102
| 31> H 	 -123.516 	 66.9462 	 -51.1707
| 32> C 	 -122.718 	 68.6534 	 -49.9379
| 33> H 	 -121.682 	 68.5775 	 -50.4198
| 34> H 	 -122.739 	 68.0198 	 -49.0195
| 35> C 	 -123.019 	 70.1514 	 -49.5963
| 36> H 	 -123.979 	 70.3724 	 -48.9848
| 37> H 	 -123.143 	 70.8095 	 -50.4855
| 38> H 	 -122.177 	 70.5238 	 -48.9768
| 39> H 	 -128.375 	 71.4008 	 -54.1335
| 40> H 	 -126.933 	 66.122 	 -48.0548
| 41> *
| 42>
| 43>                          ****END OF INPUT****

CARTESIAN COORDINATES (ANGSTROEM)
---------------------------------
  S    -128.231000   69.551100  -52.561900
  C    -127.769000   70.924700  -53.414500
  C    -126.478000   71.331600  -53.178600
  C    -125.833000   70.398400  -52.258200
  C    -126.634000   69.417900  -51.772500
  H    -124.811000   70.421800  -51.891600
  C    -125.636000   72.446200  -53.777800
  H    -126.105000   72.877400  -54.650000
  H    -124.646000   72.113900  -54.030200
  C    -125.468000   73.603700  -52.829400
  H    -124.908000   73.316800  -51.893800
  H    -124.805000   74.330200  -53.339800
  C    -126.773000   74.424600  -52.582500
  H    -127.503000   74.003200  -51.878600
  H    -126.512000   75.387500  -52.148200
  H    -127.169000   74.560400  -53.581100
  S    -127.623000   67.992400  -49.594500
  C    -126.623000   66.761300  -48.865500
  C    -125.336000   66.931300  -49.245100
  C    -125.142000   67.839900  -50.372000
  C    -126.324000   68.466400  -50.740900
  H    -124.452000   66.506200  -48.856400
  C    -123.748000   68.083100  -50.949300
  H    -123.665000   68.501200  -52.010200
  H    -123.516000   66.946200  -51.170700
  C    -122.718000   68.653400  -49.937900
  H    -121.682000   68.577500  -50.419800
  H    -122.739000   68.019800  -49.019500
  C    -123.019000   70.151400  -49.596300
  H    -123.979000   70.372400  -48.984800
  H    -123.143000   70.809500  -50.485500
  H    -122.177000   70.523800  -48.976800
  H    -128.375000   71.400800  -54.133500
  H    -126.933000   66.122000  -48.054800

 Total Charge           Charge          ....    0
 Multiplicity           Mult            ....    1
 Number of Electrons    NEL             ....  134
 Basis Dimension        Dim             ....  322

ORBITAL ENERGIES
----------------

  NO   OCC          E(Eh)            E(eV)
   0   2.0000     -88.963724     -2420.8260
   1   2.0000     -88.961264     -2420.7591
   2   2.0000     -10.328237      -281.0456
   3   2.0000     -10.325875      -280.9813
   4   2.0000     -10.317207      -280.7455
   5   2.0000     -10.310101      -280.5521
   6   2.0000     -10.308310      -280.5034
   7   2.0000     -10.308167      -280.4995
   8   2.0000     -10.305743      -280.4335
   9   2.0000     -10.301726      -280.3242
  10   2.0000     -10.293533      -280.1013
  11   2.0000     -10.292011      -280.0598
  12   2.0000     -10.291003      -280.0324
  13   2.0000     -10.290471      -280.0180
  14   2.0000     -10.289996      -280.0050
  15   2.0000     -10.277546      -279.6662
  16   2.0000      -8.079292      -219.8487
  17   2.0000      -8.075713      -219.7513
  18   2.0000      -6.037862      -164.2986
  19   2.0000      -6.034443      -164.2056
  20   2.0000      -6.033661      -164.1843
  21   2.0000      -6.030416      -164.0960
  22   2.0000      -6.029942      -164.0831
  23   2.0000      -6.026088      -163.9782
  24   2.0000      -1.006844       -27.3976
  25   2.0000      -0.984630       -26.7931
  26   2.0000      -0.914759       -24.8919
  27   2.0000      -0.903566       -24.5873
  28   2.0000      -0.875990       -23.8369
  29   2.0000      -0.846211       -23.0266
  30   2.0000      -0.839653       -22.8481
  31   2.0000      -0.813931       -22.1482
  32   2.0000      -0.782215       -21.2852
  33   2.0000      -0.772769       -21.0281
  34   2.0000      -0.708286       -19.2734
  35   2.0000      -0.695043       -18.9131
  36   2.0000      -0.690652       -18.7936
  37   2.0000      -0.661664       -18.0048
  38   2.0000      -0.645291       -17.5593
  39   2.0000      -0.621736       -16.9183
  40   2.0000      -0.600268       -16.3341
  41   2.0000      -0.566959       -15.4277
  42   2.0000      -0.558950       -15.2098
  43   2.0000      -0.545078       -14.8323
  44   2.0000      -0.540106       -14.6970
  45   2.0000      -0.535292       -14.5660
  46   2.0000      -0.515253       -14.0207
  47   2.0000      -0.506065       -13.7707
  48   2.0000      -0.504421       -13.7260
  49   2.0000      -0.495665       -13.4877
  50   2.0000      -0.492748       -13.4083
  51   2.0000      -0.480794       -13.0831
  52   2.0000      -0.469999       -12.7893
  53   2.0000      -0.467154       -12.7119
  54   2.0000      -0.458151       -12.4669
  55   2.0000      -0.444018       -12.0823
  56   2.0000      -0.441973       -12.0267
  57   2.0000      -0.439646       -11.9634
  58   2.0000      -0.432878       -11.7792
  59   2.0000      -0.426343       -11.6014
  60   2.0000      -0.419998       -11.4287
  61   2.0000      -0.413230       -11.2446
  62   2.0000      -0.407704       -11.0942
  63   2.0000      -0.362802        -9.8724
  64   2.0000      -0.326132        -8.8745
  65   2.0000      -0.323850        -8.8124
  66   2.0000      -0.287195        -7.8150
  67   0.0000       0.027690         0.7535
  68   0.0000       0.082397         2.2421
  69   0.0000       0.099411         2.7051
  70   0.0000       0.113552         3.0899
  71   0.0000       0.129274         3.5177

MULLIKEN ATOMIC CHARGES
-----------------------
   0 S :    0.117315
   1 C :   -0.095561
   2 C :   -0.071891
   3 C :    0.008866
   4 C :   -0.130825
   5 H :   -0.023935
   6 C :    0.111481
   7 H :    0.008453
   8 H :    0.024699
   9 C :   -0.123128
  10 H :    0.037690
  11 H :    0.028112
  12 C :   -0.045551
  13 H :    0.050750
  14 H :    0.031826
  15 H :    0.019784
  16 S :    0.084954
  17 C :   -0.068925
  18 C :   -0.000256
  19 C :   -0.050373
  20 C :   -0.134675
  21 H :   -0.002284
  22 C :   -0.052750
  23 H :    0.057820
  24 H :    0.048824
  25 C :   -0.056134
  26 H :    0.051235
  27 H :    0.041401
  28 C :   -0.111267
  29 H :    0.063052
  30 H :    0.046456
  31 H :    0.045089
  32 H :    0.028687
  33 H :    0.061062
Sum of atomic charges:   -0.0000000

LOEWDIN ATOMIC CHARGES
----------------------
   0 S :    0.413359
   1 C :   -0.204903
   2 C :   -0.061370
   3 C :   -0.056980
   4 C :   -0.185063
   5 H :    0.025035
   6 C :   -0.028566
   7 H :    0.025603
   8 H :    0.031193
   9 C :   -0.045046
  10 H :    0.023710
  11 H :    0.024946
  12 C :   -0.064818
  13 H :    0.028428
  14 H :    0.026073
  15 H :    0.021853
  16 S :    0.375437
  17 C :   -0.178055
  18 C :   -0.064704
  19 C :   -0.061255
  20 C :   -0.180467
  21 H :    0.020870
  22 C :   -0.056572
  23 H :    0.039962
  24 H :    0.045632
  25 C :   -0.042632
  26 H :    0.036339
  27 H :    0.028686
  28 C :   -0.084585
  29 H :    0.040530
  30 H :    0.023739
  31 H :    0.029867
  32 H :    0.021463
  33 H :    0.032291

  Mayer bond orders larger than 0.100000
B(  0-S ,  1-C ) :   1.1480 B(  0-S ,  4-C ) :   1.1174 B(  1-C ,  2-C ) :   1.6237
B(  1-C , 32-H ) :   0.9681 B(  2-C ,  3-C ) :   1.2081 B(  2-C ,  6-C ) :   1.0297
B(  3-C ,  4-C ) :   1.6119 B(  3-C ,  5-H ) :   0.9859 B(  4-C , 20-C ) :   1.0882
B(  6-C ,  7-H ) :   0.9357 B(  6-C ,  8-H ) :   0.9385 B(  6-C ,  9-C ) :   1.0859
B(  9-C , 10-H ) :   0.9546 B(  9-C , 11-H ) :   0.9561 B(  9-C , 12-C ) :   1.0634
B( 12-C , 13-H ) :   0.9770 B( 12-C , 14-H ) :   0.9766 B( 12-C , 15-H ) :   0.9736
B( 16-S , 17-C ) :   1.1319 B( 16-S , 20-C ) :   1.1136 B( 17-C , 18-C ) :   1.6176
B( 17-C , 33-H ) :   0.9700 B( 18-C , 19-C ) :   1.2308 B( 18-C , 21-H ) :   0.9882
B( 19-C , 20-C ) :   1.6169 B( 19-C , 22-C ) :   1.0148 B( 22-C , 23-H ) :   0.9430
B( 22-C , 24-H ) :   0.9341 B( 22-C , 25-C ) :   1.0689 B( 25-C , 26-H ) :   0.9543
B( 25-C , 27-H ) :   0.9525 B( 25-C , 28-C ) :   1.0611 B( 28-C , 29-H ) :   0.9743
B( 28-C , 30-H ) :   0.9678 B( 28-C , 31-H ) :   0.9729

Dispersion correction           -0.015109385
FINAL SINGLE POINT ENERGY     -1339.876588720670

DIPOLE MOMENT
-------------
                                X             Y             Z
Electronic contribution:    -20.56613     -18.40057       1.72765
Nuclear contribution   :     21.34403      18.69504      -1.75265
                        -----------------------------------------
Total Dipole Moment    :      0.77790       0.29447      -0.02500
                        -----------------------------------------
Magnitude (a.u.)       :      0.83215
Magnitude (Debye)      :      2.11514

Rotational constants in cm-1:     0.019298     0.009418     0.007153
Rotational constants in MHz :   578.541221   282.359091   214.445337

                             ****ORCA TERMINATED NORMALLY****
TOTAL RUN TIME: 0 days 0 hours 0 minutes 22 seconds 364 msec
