                         Program Version 4.2.1 -  RELEASE  -
|  1> ! wB97X-D3 SP def2-SVP
|  2> %pal
|  3> nprocs 24
|  4> end
|  5>
|  6> * xyz 0 1
|  7> S 	 -60.1712 	 7.75154 	 -7.2959
|  8> C 	 -59.6912 	 6.04095 	 -7.03148
|  9> C 	 -59.9278 	 5.2248 	 -8.1555
| 10> C 	 -60.6018 	 5.956 	 -9.22251
| 11> C 	 -60.7331 	 7.31742 	 -8.95977
| 12> H 	 -60.9176 	 5.46976 	 -10.1074
| 13> C 	 -59.8017 	 3.70348 	 -8.17549
| 14> H 	 -60.5886 	 3.38318 	 -7.46704
| 15> H 	 -58.8521 	 3.57357 	 -7.66232
| 16> C 	 -59.7699 	 3.02656 	 -9.57534
| 17> H 	 -60.6733 	 3.26367 	 -10.1051
| 18> H 	 -59.1029 	 3.45086 	 -10.2983
| 19> C 	 -59.6288 	 1.51214 	 -9.54493
| 20> H 	 -58.761 	 1.09431 	 -9.06929
| 21> H 	 -60.472 	 1.0024 	 -9.02209
| 22> H 	 -59.741 	 1.18677 	 -10.5351
| 23> S 	 -62.7829 	 9.23621 	 -9.07136
| 24> C 	 -63.0773 	 9.97608 	 -10.6694
| 25> C 	 -62.463 	 9.32344 	 -11.6875
| 26> C 	 -61.4721 	 8.38895 	 -11.2301
| 27> C 	 -61.4457 	 8.2896 	 -9.80724
| 28> H 	 -62.574 	 9.6889 	 -12.7106
| 29> C 	 -60.3922 	 7.85718 	 -12.1322
| 30> H 	 -59.569 	 7.43269 	 -11.6324
| 31> H 	 -59.9701 	 8.75605 	 -12.5543
| 32> C 	 -60.7517 	 6.9662 	 -13.3773
| 33> H 	 -59.8459 	 6.71159 	 -13.9374
| 34> H 	 -61.4103 	 7.47692 	 -14.0673
| 35> C 	 -61.2974 	 5.61357 	 -12.9097
| 36> H 	 -60.5521 	 4.99968 	 -12.4768
| 37> H 	 -61.7141 	 4.97294 	 -13.7487
| 38> H 	 -62.0955 	 5.67961 	 -12.2808
| 39> H 	 -59.3135 	 5.59994 	 -6.1133
| 40> H 	 -63.6795 	 10.8456 	 -10.8679
| 41> *
| 42>
| 43>                          ****END OF INPUT****

CARTESIAN COORDINATES (ANGSTROEM)
---------------------------------
  S    -60.171200    7.751540   -7.295900
  C    -59.691200    6.040950   -7.031480
  C    -59.927800    5.224800   -8.155500
  C    -60.601800    5.956000   -9.222510
  C    -60.733100    7.317420   -8.959770
  H    -60.917600    5.469760  -10.107400
  C    -59.801700    3.703480   -8.175490
  H    -60.588600    3.383180   -7.467040
  H    -58.852100    3.573570   -7.662320
  C    -59.769900    3.026560   -9.575340
  H    -60.673300    3.263670  -10.105100
  H    -59.102900    3.450860  -10.298300
  C    -59.628800    1.512140   -9.544930
  H    -58.761000    1.094310   -9.069290
  H    -60.472000    1.002400   -9.022090
  H    -59.741000    1.186770  -10.535100
  S    -62.782900    9.236210   -9.071360
  C    -63.077300    9.976080  -10.669400
  C    -62.463000    9.323440  -11.687500
  C    -61.472100    8.388950  -11.230100
  C    -61.445700    8.289600   -9.807240
  H    -62.574000    9.688900  -12.710600
  C    -60.392200    7.857180  -12.132200
  H    -59.569000    7.432690  -11.632400
  H    -59.970100    8.756050  -12.554300
  C    -60.751700    6.966200  -13.377300
  H    -59.845900    6.711590  -13.937400
  H    -61.410300    7.476920  -14.067300
  C    -61.297400    5.613570  -12.909700
  H    -60.552100    4.999680  -12.476800
  H    -61.714100    4.972940  -13.748700
  H    -62.095500    5.679610  -12.280800
  H    -59.313500    5.599940   -6.113300
  H    -63.679500   10.845600  -10.867900

 Total Charge           Charge          ....    0
 Multiplicity           Mult            ....    1
 Number of Electrons    NEL             ....  134
 Basis Dimension        Dim             ....  322

ORBITAL ENERGIES
----------------

  NO   OCC          E(Eh)            E(eV)
   0   2.0000     -88.969184     -2420.9746
   1   2.0000     -88.965416     -2420.8720
   2   2.0000     -10.335254      -281.2366
   3   2.0000     -10.332085      -281.1503
   4   2.0000     -10.318031      -280.7679
   5   2.0000     -10.317482      -280.7530
   6   2.0000     -10.309851      -280.5453
   7   2.0000     -10.304767      -280.4070
   8   2.0000     -10.298252      -280.2297
   9   2.0000     -10.294876      -280.1378
  10   2.0000     -10.294578      -280.1297
  11   2.0000     -10.292234      -280.0659
  12   2.0000     -10.290909      -280.0299
  13   2.0000     -10.287654      -279.9413
  14   2.0000     -10.277301      -279.6596
  15   2.0000     -10.271598      -279.5044
  16   2.0000      -8.081854      -219.9184
  17   2.0000      -8.078951      -219.8394
  18   2.0000      -6.040562      -164.3720
  19   2.0000      -6.037579      -164.2909
  20   2.0000      -6.036774      -164.2690
  21   2.0000      -6.033843      -164.1892
  22   2.0000      -6.032412      -164.1503
  23   2.0000      -6.029432      -164.0692
  24   2.0000      -0.992651       -27.0114
  25   2.0000      -0.970211       -26.4008
  26   2.0000      -0.909562       -24.7505
  27   2.0000      -0.906749       -24.6739
  28   2.0000      -0.866756       -23.5856
  29   2.0000      -0.849780       -23.1237
  30   2.0000      -0.844951       -22.9923
  31   2.0000      -0.815957       -22.2033
  32   2.0000      -0.783182       -21.3115
  33   2.0000      -0.769885       -20.9496
  34   2.0000      -0.721313       -19.6279
  35   2.0000      -0.705077       -19.1861
  36   2.0000      -0.693055       -18.8590
  37   2.0000      -0.652478       -17.7548
  38   2.0000      -0.632974       -17.2241
  39   2.0000      -0.619999       -16.8710
  40   2.0000      -0.597518       -16.2593
  41   2.0000      -0.563317       -15.3286
  42   2.0000      -0.562195       -15.2981
  43   2.0000      -0.551984       -15.0203
  44   2.0000      -0.546768       -14.8783
  45   2.0000      -0.531240       -14.4558
  46   2.0000      -0.514852       -14.0098
  47   2.0000      -0.503481       -13.7004
  48   2.0000      -0.500429       -13.6174
  49   2.0000      -0.495615       -13.4864
  50   2.0000      -0.486890       -13.2490
  51   2.0000      -0.480411       -13.0726
  52   2.0000      -0.477559       -12.9950
  53   2.0000      -0.471125       -12.8200
  54   2.0000      -0.455798       -12.4029
  55   2.0000      -0.448780       -12.2119
  56   2.0000      -0.447722       -12.1831
  57   2.0000      -0.437495       -11.9049
  58   2.0000      -0.434359       -11.8195
  59   2.0000      -0.425134       -11.5685
  60   2.0000      -0.423467       -11.5231
  61   2.0000      -0.419156       -11.4058
  62   2.0000      -0.417158       -11.3514
  63   2.0000      -0.346419        -9.4265
  64   2.0000      -0.329391        -8.9632
  65   2.0000      -0.325396        -8.8545
  66   2.0000      -0.285174        -7.7600
  67   0.0000       0.019840         0.5399
  68   0.0000       0.072012         1.9595
  69   0.0000       0.099215         2.6998
  70   0.0000       0.115884         3.1534
  71   0.0000       0.127509         3.4697

MULLIKEN ATOMIC CHARGES
-----------------------
   0 S :    0.101769
   1 C :   -0.124319
   2 C :   -0.113711
   3 C :    0.055993
   4 C :   -0.139519
   5 H :   -0.035278
   6 C :    0.061964
   7 H :    0.058768
   8 H :    0.029096
   9 C :   -0.090687
  10 H :    0.026469
  11 H :    0.027791
  12 C :   -0.009135
  13 H :    0.033194
  14 H :    0.024423
  15 H :    0.018144
  16 S :    0.093594
  17 C :   -0.086447
  18 C :   -0.024434
  19 C :   -0.028225
  20 C :   -0.135023
  21 H :    0.026876
  22 C :    0.049884
  23 H :    0.016471
  24 H :    0.028758
  25 C :   -0.060399
  26 H :    0.031953
  27 H :    0.027998
  28 C :   -0.039522
  29 H :    0.019340
  30 H :    0.029106
  31 H :    0.028890
  32 H :    0.043696
  33 H :    0.052525
Sum of atomic charges:   -0.0000000

LOEWDIN ATOMIC CHARGES
----------------------
   0 S :    0.365435
   1 C :   -0.193628
   2 C :   -0.057457
   3 C :   -0.051950
   4 C :   -0.175838
   5 H :    0.020981
   6 C :   -0.034333
   7 H :    0.043748
   8 H :    0.032772
   9 C :   -0.043878
  10 H :    0.022825
  11 H :    0.025333
  12 C :   -0.058953
  13 H :    0.022773
  14 H :    0.030104
  15 H :    0.022008
  16 S :    0.366174
  17 C :   -0.164226
  18 C :   -0.071239
  19 C :   -0.050679
  20 C :   -0.186247
  21 H :    0.035678
  22 C :   -0.030557
  23 H :    0.025303
  24 H :    0.035503
  25 C :   -0.030968
  26 H :    0.029425
  27 H :    0.019680
  28 C :   -0.064728
  29 H :    0.017628
  30 H :    0.033957
  31 H :    0.009632
  32 H :    0.027335
  33 H :    0.028388

  Mayer bond orders larger than 0.100000
B(  0-S ,  1-C ) :   1.1178 B(  0-S ,  4-C ) :   1.1275 B(  1-C ,  2-C ) :   1.6356
B(  1-C , 32-H ) :   0.9671 B(  2-C ,  3-C ) :   1.2316 B(  2-C ,  6-C ) :   1.0020
B(  3-C ,  4-C ) :   1.5729 B(  3-C ,  5-H ) :   0.9856 B(  4-C , 20-C ) :   1.0551
B(  6-C ,  7-H ) :   0.9430 B(  6-C ,  8-H ) :   0.9390 B(  6-C ,  9-C ) :   1.0621
B(  9-C , 10-H ) :   0.9413 B(  9-C , 11-H ) :   0.9581 B(  9-C , 12-C ) :   1.0939
B( 12-C , 13-H ) :   0.9770 B( 12-C , 14-H ) :   0.9718 B( 12-C , 15-H ) :   0.9699
B( 16-S , 17-C ) :   1.1287 B( 16-S , 20-C ) :   1.1167 B( 17-C , 18-C ) :   1.6587
B( 17-C , 33-H ) :   0.9657 B( 18-C , 19-C ) :   1.2119 B( 18-C , 21-H ) :   0.9827
B( 19-C , 20-C ) :   1.5918 B( 19-C , 22-C ) :   1.0423 B( 22-C , 23-H ) :   0.9431
B( 22-C , 24-H ) :   0.9326 B( 22-C , 25-C ) :   1.0698 B( 25-C , 26-H ) :   0.9554
B( 25-C , 27-H ) :   0.9601 B( 25-C , 28-C ) :   1.0798 B( 28-C , 29-H ) :   0.9679
B( 28-C , 30-H ) :   0.9670 B( 28-C , 31-H ) :   0.9705

Dispersion correction           -0.014977605
FINAL SINGLE POINT ENERGY     -1339.861592391750

DIPOLE MOMENT
-------------
                                X             Y             Z
Electronic contribution:     -6.72069      26.21825      18.06865
Nuclear contribution   :      6.81434     -26.75929     -18.68881
                        -----------------------------------------
Total Dipole Moment    :      0.09364      -0.54104      -0.62016
                        -----------------------------------------
Magnitude (a.u.)       :      0.82830
Magnitude (Debye)      :      2.10538

Rotational constants in cm-1:     0.017314     0.009653     0.006735
Rotational constants in MHz :   519.069245   289.396260   201.917227

                             ****ORCA TERMINATED NORMALLY****
TOTAL RUN TIME: 0 days 0 hours 0 minutes 22 seconds 152 msec
