                         Program Version 4.2.1 -  RELEASE  -
|  1> ! wB97X-D3 SP def2-SVP
|  2> %pal
|  3> nprocs 24
|  4> end
|  5>
|  6> * xyz 0 1
|  7> S 	 -51.6962 	 22.4401 	 32.3269
|  8> C 	 -51.6173 	 24.2177 	 32.4718
|  9> C 	 -50.3423 	 24.7356 	 32.4263
| 10> C 	 -49.4817 	 23.6703 	 31.9543
| 11> C 	 -50.0274 	 22.5079 	 31.6786
| 12> H 	 -48.408 	 23.7886 	 31.9573
| 13> C 	 -49.9903 	 26.1842 	 32.7944
| 14> H 	 -50.5709 	 26.9826 	 32.3096
| 15> H 	 -48.9889 	 26.4333 	 32.4183
| 16> C 	 -50.3612 	 26.5326 	 34.2857
| 17> H 	 -50.3077 	 27.585 	 34.6354
| 18> H 	 -51.4315 	 26.2802 	 34.4771
| 19> C 	 -49.6258 	 25.7207 	 35.3723
| 20> H 	 -48.6039 	 26.1424 	 35.6631
| 21> H 	 -50.182 	 25.8271 	 36.3837
| 22> H 	 -49.4543 	 24.6573 	 35.1145
| 23> S 	 -49.7521 	 19.7528 	 32.0014
| 24> C 	 -48.5716 	 18.9572 	 31.0861
| 25> C 	 -47.9418 	 19.8047 	 30.128
| 26> C 	 -48.4589 	 21.1463 	 30.1698
| 27> C 	 -49.4408 	 21.2815 	 31.132
| 28> H 	 -47.2178 	 19.4235 	 29.4532
| 29> C 	 -48.0849 	 22.2352 	 29.2206
| 30> H 	 -48.4309 	 23.2744 	 29.4976
| 31> H 	 -48.7086 	 22.1393 	 28.3442
| 32> C 	 -46.554 	 22.3392 	 28.7196
| 33> H 	 -46.4206 	 21.3602 	 28.2767
| 34> H 	 -45.8344 	 22.3318 	 29.4991
| 35> C 	 -46.2972 	 23.5221 	 27.6906
| 36> H 	 -46.7066 	 23.2366 	 26.7587
| 37> H 	 -45.2849 	 23.5939 	 27.4836
| 38> H 	 -46.8023 	 24.4468 	 28.1074
| 39> H 	 -52.4795 	 24.789 	 32.7334
| 40> H 	 -48.2786 	 17.9201 	 31.1335
| 41> *
| 42>
| 43>                          ****END OF INPUT****

CARTESIAN COORDINATES (ANGSTROEM)
---------------------------------
  S    -51.696200   22.440100   32.326900
  C    -51.617300   24.217700   32.471800
  C    -50.342300   24.735600   32.426300
  C    -49.481700   23.670300   31.954300
  C    -50.027400   22.507900   31.678600
  H    -48.408000   23.788600   31.957300
  C    -49.990300   26.184200   32.794400
  H    -50.570900   26.982600   32.309600
  H    -48.988900   26.433300   32.418300
  C    -50.361200   26.532600   34.285700
  H    -50.307700   27.585000   34.635400
  H    -51.431500   26.280200   34.477100
  C    -49.625800   25.720700   35.372300
  H    -48.603900   26.142400   35.663100
  H    -50.182000   25.827100   36.383700
  H    -49.454300   24.657300   35.114500
  S    -49.752100   19.752800   32.001400
  C    -48.571600   18.957200   31.086100
  C    -47.941800   19.804700   30.128000
  C    -48.458900   21.146300   30.169800
  C    -49.440800   21.281500   31.132000
  H    -47.217800   19.423500   29.453200
  C    -48.084900   22.235200   29.220600
  H    -48.430900   23.274400   29.497600
  H    -48.708600   22.139300   28.344200
  C    -46.554000   22.339200   28.719600
  H    -46.420600   21.360200   28.276700
  H    -45.834400   22.331800   29.499100
  C    -46.297200   23.522100   27.690600
  H    -46.706600   23.236600   26.758700
  H    -45.284900   23.593900   27.483600
  H    -46.802300   24.446800   28.107400
  H    -52.479500   24.789000   32.733400
  H    -48.278600   17.920100   31.133500

 Total Charge           Charge          ....    0
 Multiplicity           Mult            ....    1
 Number of Electrons    NEL             ....  134
 Basis Dimension        Dim             ....  322

ORBITAL ENERGIES
----------------

  NO   OCC          E(Eh)            E(eV)
   0   2.0000     -88.970647     -2421.0144
   1   2.0000     -88.960709     -2420.7440
   2   2.0000     -10.325922      -280.9826
   3   2.0000     -10.325309      -280.9659
   4   2.0000     -10.319834      -280.8170
   5   2.0000     -10.313503      -280.6447
   6   2.0000     -10.306753      -280.4610
   7   2.0000     -10.306480      -280.4536
   8   2.0000     -10.305875      -280.4371
   9   2.0000     -10.297754      -280.2161
  10   2.0000     -10.296912      -280.1932
  11   2.0000     -10.295722      -280.1609
  12   2.0000     -10.291039      -280.0334
  13   2.0000     -10.289415      -279.9892
  14   2.0000     -10.284959      -279.8680
  15   2.0000     -10.281165      -279.7647
  16   2.0000      -8.085599      -220.0203
  17   2.0000      -8.075075      -219.7340
  18   2.0000      -6.043996      -164.4655
  19   2.0000      -6.040056      -164.3583
  20   2.0000      -6.036499      -164.2615
  21   2.0000      -6.033677      -164.1847
  22   2.0000      -6.030164      -164.0891
  23   2.0000      -6.025245      -163.9552
  24   2.0000      -1.006382       -27.3851
  25   2.0000      -0.982977       -26.7482
  26   2.0000      -0.904368       -24.6091
  27   2.0000      -0.901694       -24.5364
  28   2.0000      -0.864458       -23.5231
  29   2.0000      -0.852648       -23.2017
  30   2.0000      -0.839922       -22.8555
  31   2.0000      -0.813333       -22.1319
  32   2.0000      -0.784758       -21.3544
  33   2.0000      -0.771885       -21.0041
  34   2.0000      -0.711451       -19.3596
  35   2.0000      -0.699659       -19.0387
  36   2.0000      -0.692711       -18.8496
  37   2.0000      -0.659146       -17.9363
  38   2.0000      -0.641163       -17.4469
  39   2.0000      -0.620331       -16.8801
  40   2.0000      -0.600605       -16.3433
  41   2.0000      -0.571356       -15.5474
  42   2.0000      -0.554478       -15.0881
  43   2.0000      -0.542801       -14.7704
  44   2.0000      -0.530160       -14.4264
  45   2.0000      -0.527124       -14.3438
  46   2.0000      -0.518768       -14.1164
  47   2.0000      -0.510627       -13.8949
  48   2.0000      -0.505004       -13.7418
  49   2.0000      -0.498077       -13.5534
  50   2.0000      -0.485289       -13.2054
  51   2.0000      -0.474849       -12.9213
  52   2.0000      -0.467424       -12.7193
  53   2.0000      -0.466304       -12.6888
  54   2.0000      -0.456226       -12.4145
  55   2.0000      -0.453223       -12.3328
  56   2.0000      -0.442616       -12.0442
  57   2.0000      -0.439573       -11.9614
  58   2.0000      -0.432963       -11.7815
  59   2.0000      -0.429845       -11.6967
  60   2.0000      -0.416016       -11.3204
  61   2.0000      -0.409935       -11.1549
  62   2.0000      -0.409055       -11.1310
  63   2.0000      -0.352368        -9.5884
  64   2.0000      -0.333435        -9.0732
  65   2.0000      -0.327482        -8.9112
  66   2.0000      -0.284631        -7.7452
  67   0.0000       0.025961         0.7064
  68   0.0000       0.062329         1.6961
  69   0.0000       0.095971         2.6115
  70   0.0000       0.118459         3.2234
  71   0.0000       0.133708         3.6384

MULLIKEN ATOMIC CHARGES
-----------------------
   0 S :    0.074960
   1 C :   -0.114996
   2 C :   -0.079287
   3 C :   -0.002939
   4 C :   -0.115824
   5 H :    0.016707
   6 C :    0.089477
   7 H :    0.040154
   8 H :    0.025320
   9 C :   -0.096631
  10 H :    0.038141
  11 H :    0.034742
  12 C :   -0.113949
  13 H :    0.031155
  14 H :    0.039507
  15 H :    0.054594
  16 S :    0.120945
  17 C :   -0.083066
  18 C :   -0.048663
  19 C :    0.008209
  20 C :   -0.127328
  21 H :    0.008423
  22 C :    0.013597
  23 H :    0.023072
  24 H :    0.035636
  25 C :   -0.097381
  26 H :    0.021374
  27 H :    0.025571
  28 C :   -0.011835
  29 H :    0.022038
  30 H :    0.023599
  31 H :    0.049941
  32 H :    0.037921
  33 H :    0.056816
Sum of atomic charges:   -0.0000000

LOEWDIN ATOMIC CHARGES
----------------------
   0 S :    0.350619
   1 C :   -0.161701
   2 C :   -0.061846
   3 C :   -0.065243
   4 C :   -0.168882
   5 H :    0.032655
   6 C :   -0.034803
   7 H :    0.041305
   8 H :    0.030898
   9 C :   -0.049679
  10 H :    0.029386
  11 H :    0.028666
  12 C :   -0.086428
  13 H :    0.024159
  14 H :    0.033194
  15 H :    0.027240
  16 S :    0.420814
  17 C :   -0.199590
  18 C :   -0.068982
  19 C :   -0.050955
  20 C :   -0.191553
  21 H :    0.023451
  22 C :   -0.040433
  23 H :    0.032083
  24 H :    0.036045
  25 C :   -0.033845
  26 H :    0.017996
  27 H :    0.015246
  28 C :   -0.054857
  29 H :    0.021787
  30 H :    0.018949
  31 H :    0.036344
  32 H :    0.017240
  33 H :    0.030720

  Mayer bond orders larger than 0.100000
B(  0-S ,  1-C ) :   1.1272 B(  0-S ,  4-C ) :   1.0977 B(  1-C ,  2-C ) :   1.6505
B(  1-C , 32-H ) :   0.9703 B(  2-C ,  3-C ) :   1.1876 B(  2-C ,  6-C ) :   1.0157
B(  3-C ,  4-C ) :   1.6607 B(  3-C ,  5-H ) :   0.9922 B(  4-C , 20-C ) :   1.0238
B(  6-C ,  7-H ) :   0.9424 B(  6-C ,  8-H ) :   0.9488 B(  6-C ,  9-C ) :   1.0410
B(  9-C , 10-H ) :   0.9595 B(  9-C , 11-H ) :   0.9602 B(  9-C , 12-C ) :   1.0664
B( 12-C , 13-H ) :   0.9768 B( 12-C , 14-H ) :   0.9747 B( 12-C , 15-H ) :   0.9763
B( 16-S , 17-C ) :   1.1832 B( 16-S , 20-C ) :   1.1277 B( 17-C , 18-C ) :   1.5844
B( 17-C , 33-H ) :   0.9661 B( 18-C , 19-C ) :   1.2391 B( 18-C , 21-H ) :   0.9954
B( 19-C , 20-C ) :   1.6030 B( 19-C , 22-C ) :   1.0428 B( 22-C , 23-H ) :   0.9380
B( 22-C , 24-H ) :   0.9323 B( 22-C , 25-C ) :   1.0342 B( 25-C , 26-H ) :   0.9548
B( 25-C , 27-H ) :   0.9691 B( 25-C , 28-C ) :   1.0755 B( 28-C , 29-H ) :   0.9754
B( 28-C , 30-H ) :   0.9742 B( 28-C , 31-H ) :   0.9775

Dispersion correction           -0.013851312
FINAL SINGLE POINT ENERGY     -1339.848739664813

DIPOLE MOMENT
-------------
                                X             Y             Z
Electronic contribution:    -14.55061     -21.32526       3.53806
Nuclear contribution   :     15.03787      21.73418      -3.78784
                        -----------------------------------------
Total Dipole Moment    :      0.48725       0.40892      -0.24978
                        -----------------------------------------
Magnitude (a.u.)       :      0.68339
Magnitude (Debye)      :      1.73703

Rotational constants in cm-1:     0.017309     0.008541     0.006455
Rotational constants in MHz :   518.908300   256.054957   193.511407

                             ****ORCA TERMINATED NORMALLY****
TOTAL RUN TIME: 0 days 0 hours 0 minutes 21 seconds 114 msec
