                         Program Version 4.2.1 -  RELEASE  -
|  1> ! wB97X-D3 SP def2-SVP
|  2> %pal
|  3> nprocs 24
|  4> end
|  5>
|  6> * xyz 0 1
|  7> S 	 -41.1719 	 11.1981 	 27.3329
|  8> C 	 -40.1828 	 12.4003 	 28.0332
|  9> C 	 -39.232 	 11.8269 	 28.8277
| 10> C 	 -39.2056 	 10.388 	 28.7348
| 11> C 	 -40.1405 	 9.9088 	 27.8207
| 12> H 	 -38.5784 	 9.73204 	 29.2122
| 13> C 	 -38.084 	 12.4482 	 29.6319
| 14> H 	 -37.9967 	 13.3363 	 29.1207
| 15> H 	 -37.1629 	 11.9717 	 29.2792
| 16> C 	 -38.2402 	 12.7166 	 31.1338
| 17> H 	 -37.4228 	 13.3882 	 31.4375
| 18> H 	 -39.1576 	 13.2995 	 31.1936
| 19> C 	 -38.3389 	 11.4665 	 31.9752
| 20> H 	 -37.3943 	 10.9837 	 31.8229
| 21> H 	 -38.5554 	 11.7329 	 33.0005
| 22> H 	 -39.1534 	 10.8678 	 31.565
| 23> S 	 -39.3182 	 8.26831 	 25.8576
| 24> C 	 -39.5742 	 6.58756 	 26.0399
| 25> C 	 -40.3077 	 6.25296 	 27.1711
| 26> C 	 -40.665 	 7.4197 	 27.9225
| 27> C 	 -40.2446 	 8.59315 	 27.309
| 28> H 	 -40.4711 	 5.2552 	 27.3972
| 29> C 	 -41.2164 	 7.3239 	 29.3557
| 30> H 	 -40.4565 	 7.65602 	 30.1765
| 31> H 	 -41.333 	 6.31386 	 29.7293
| 32> C 	 -42.5308 	 7.86083 	 29.6536
| 33> H 	 -42.4402 	 9.00497 	 29.68
| 34> H 	 -42.8493 	 7.56318 	 30.6726
| 35> C 	 -43.6102 	 7.61846 	 28.6445
| 36> H 	 -44.3152 	 8.40796 	 28.6816
| 37> H 	 -44.1255 	 6.58485 	 28.6905
| 38> H 	 -43.1816 	 7.80016 	 27.6156
| 39> H 	 -40.3805 	 13.4353 	 27.9383
| 40> H 	 -39.1616 	 5.86589 	 25.3841
| 41> *
| 42>
| 43>                          ****END OF INPUT****

CARTESIAN COORDINATES (ANGSTROEM)
---------------------------------
  S    -41.171900   11.198100   27.332900
  C    -40.182800   12.400300   28.033200
  C    -39.232000   11.826900   28.827700
  C    -39.205600   10.388000   28.734800
  C    -40.140500    9.908800   27.820700
  H    -38.578400    9.732040   29.212200
  C    -38.084000   12.448200   29.631900
  H    -37.996700   13.336300   29.120700
  H    -37.162900   11.971700   29.279200
  C    -38.240200   12.716600   31.133800
  H    -37.422800   13.388200   31.437500
  H    -39.157600   13.299500   31.193600
  C    -38.338900   11.466500   31.975200
  H    -37.394300   10.983700   31.822900
  H    -38.555400   11.732900   33.000500
  H    -39.153400   10.867800   31.565000
  S    -39.318200    8.268310   25.857600
  C    -39.574200    6.587560   26.039900
  C    -40.307700    6.252960   27.171100
  C    -40.665000    7.419700   27.922500
  C    -40.244600    8.593150   27.309000
  H    -40.471100    5.255200   27.397200
  C    -41.216400    7.323900   29.355700
  H    -40.456500    7.656020   30.176500
  H    -41.333000    6.313860   29.729300
  C    -42.530800    7.860830   29.653600
  H    -42.440200    9.004970   29.680000
  H    -42.849300    7.563180   30.672600
  C    -43.610200    7.618460   28.644500
  H    -44.315200    8.407960   28.681600
  H    -44.125500    6.584850   28.690500
  H    -43.181600    7.800160   27.615600
  H    -40.380500   13.435300   27.938300
  H    -39.161600    5.865890   25.384100

 Total Charge           Charge          ....    0
 Multiplicity           Mult            ....    1
 Number of Electrons    NEL             ....  134
 Basis Dimension        Dim             ....  322

ORBITAL ENERGIES
----------------

  NO   OCC          E(Eh)            E(eV)
   0   2.0000     -88.967154     -2420.9193
   1   2.0000     -88.962478     -2420.7921
   2   2.0000     -10.320765      -280.8423
   3   2.0000     -10.320339      -280.8307
   4   2.0000     -10.313608      -280.6476
   5   2.0000     -10.308634      -280.5122
   6   2.0000     -10.308267      -280.5022
   7   2.0000     -10.298488      -280.2361
   8   2.0000     -10.291500      -280.0460
   9   2.0000     -10.290583      -280.0210
  10   2.0000     -10.285749      -279.8895
  11   2.0000     -10.285149      -279.8731
  12   2.0000     -10.281711      -279.7796
  13   2.0000     -10.279604      -279.7222
  14   2.0000     -10.273311      -279.5510
  15   2.0000     -10.272824      -279.5378
  16   2.0000      -8.082700      -219.9414
  17   2.0000      -8.078588      -219.8296
  18   2.0000      -6.041024      -164.3846
  19   2.0000      -6.037052      -164.2765
  20   2.0000      -6.037014      -164.2755
  21   2.0000      -6.033639      -164.1837
  22   2.0000      -6.032798      -164.1608
  23   2.0000      -6.029463      -164.0700
  24   2.0000      -1.013557       -27.5803
  25   2.0000      -0.989627       -26.9291
  26   2.0000      -0.916956       -24.9516
  27   2.0000      -0.913634       -24.8612
  28   2.0000      -0.876506       -23.8509
  29   2.0000      -0.850341       -23.1390
  30   2.0000      -0.848808       -23.0972
  31   2.0000      -0.814077       -22.1522
  32   2.0000      -0.788592       -21.4587
  33   2.0000      -0.777635       -21.1605
  34   2.0000      -0.707593       -19.2546
  35   2.0000      -0.700005       -19.0481
  36   2.0000      -0.676311       -18.4034
  37   2.0000      -0.667738       -18.1701
  38   2.0000      -0.653483       -17.7822
  39   2.0000      -0.612340       -16.6626
  40   2.0000      -0.596770       -16.2389
  41   2.0000      -0.576660       -15.6917
  42   2.0000      -0.555039       -15.1034
  43   2.0000      -0.551163       -14.9979
  44   2.0000      -0.550711       -14.9856
  45   2.0000      -0.545442       -14.8422
  46   2.0000      -0.522752       -14.2248
  47   2.0000      -0.517030       -14.0691
  48   2.0000      -0.504887       -13.7387
  49   2.0000      -0.492865       -13.4115
  50   2.0000      -0.485011       -13.1978
  51   2.0000      -0.480197       -13.0668
  52   2.0000      -0.473690       -12.8898
  53   2.0000      -0.468328       -12.7439
  54   2.0000      -0.464702       -12.6452
  55   2.0000      -0.445435       -12.1209
  56   2.0000      -0.441829       -12.0228
  57   2.0000      -0.435749       -11.8573
  58   2.0000      -0.433259       -11.7896
  59   2.0000      -0.419048       -11.4029
  60   2.0000      -0.418052       -11.3758
  61   2.0000      -0.412617       -11.2279
  62   2.0000      -0.388199       -10.5634
  63   2.0000      -0.338413        -9.2087
  64   2.0000      -0.326714        -8.8903
  65   2.0000      -0.320751        -8.7281
  66   2.0000      -0.311386        -8.4732
  67   0.0000       0.041876         1.1395
  68   0.0000       0.055057         1.4982
  69   0.0000       0.111534         3.0350
  70   0.0000       0.121212         3.2984
  71   0.0000       0.131119         3.5679

MULLIKEN ATOMIC CHARGES
-----------------------
   0 S :    0.122632
   1 C :   -0.109388
   2 C :   -0.108845
   3 C :    0.085986
   4 C :   -0.190034
   5 H :   -0.024316
   6 C :    0.079420
   7 H :   -0.016209
   8 H :    0.025517
   9 C :   -0.050492
  10 H :    0.033036
  11 H :    0.019040
  12 C :   -0.024388
  13 H :    0.027168
  14 H :    0.038964
  15 H :    0.037773
  16 S :    0.133198
  17 C :   -0.081968
  18 C :   -0.009353
  19 C :   -0.002967
  20 C :   -0.179005
  21 H :   -0.006990
  22 C :    0.074208
  23 H :    0.044326
  24 H :    0.001964
  25 C :   -0.107631
  26 H :    0.029402
  27 H :    0.028431
  28 C :   -0.051699
  29 H :    0.021029
  30 H :    0.044745
  31 H :    0.037555
  32 H :    0.033673
  33 H :    0.045216
Sum of atomic charges:    0.0000000

LOEWDIN ATOMIC CHARGES
----------------------
   0 S :    0.434275
   1 C :   -0.205166
   2 C :   -0.063093
   3 C :   -0.045067
   4 C :   -0.213146
   5 H :    0.015257
   6 C :   -0.035260
   7 H :    0.020160
   8 H :    0.031924
   9 C :   -0.036334
  10 H :    0.025941
  11 H :    0.023014
  12 C :   -0.060800
  13 H :    0.023414
  14 H :    0.026819
  15 H :    0.028561
  16 S :    0.436554
  17 C :   -0.185705
  18 C :   -0.061545
  19 C :   -0.043217
  20 C :   -0.212833
  21 H :    0.020863
  22 C :   -0.046371
  23 H :    0.045149
  24 H :    0.027486
  25 C :   -0.057932
  26 H :    0.026393
  27 H :    0.026548
  28 C :   -0.075405
  29 H :    0.021313
  30 H :    0.030905
  31 H :    0.033318
  32 H :    0.022642
  33 H :    0.021340

  Mayer bond orders larger than 0.100000
B(  0-S ,  1-C ) :   1.1500 B(  0-S ,  4-C ) :   1.1639 B(  1-C ,  2-C ) :   1.6044
B(  1-C , 32-H ) :   0.9768 B(  2-C ,  3-C ) :   1.2312 B(  2-C ,  6-C ) :   0.9963
B(  3-C ,  4-C ) :   1.5631 B(  3-C ,  5-H ) :   1.0144 B(  4-C , 20-C ) :   1.0337
B(  6-C ,  7-H ) :   0.9237 B(  6-C ,  8-H ) :   0.9449 B(  6-C ,  9-C ) :   1.0683
B(  9-C , 10-H ) :   0.9541 B(  9-C , 11-H ) :   0.9505 B(  9-C , 12-C ) :   1.0834
B( 12-C , 13-H ) :   0.9753 B( 12-C , 14-H ) :   0.9723 B( 12-C , 15-H ) :   0.9713
B( 16-S , 17-C ) :   1.1801 B( 16-S , 20-C ) :   1.1549 B( 17-C , 18-C ) :   1.5935
B( 17-C , 33-H ) :   0.9699 B( 18-C , 19-C ) :   1.2431 B( 18-C , 21-H ) :   1.0052
B( 19-C , 20-C ) :   1.5787 B( 19-C , 22-C ) :   1.0259 B( 22-C , 23-H ) :   0.9318
B( 22-C , 24-H ) :   0.9340 B( 22-C , 25-C ) :   1.0826 B( 25-C , 26-H ) :   0.9499
B( 25-C , 27-H ) :   0.9518 B( 25-C , 28-C ) :   1.0899 B( 28-C , 29-H ) :   0.9714
B( 28-C , 30-H ) :   0.9721 B( 28-C , 31-H ) :   0.9590

Dispersion correction           -0.015586271
FINAL SINGLE POINT ENERGY     -1339.856361489016

DIPOLE MOMENT
-------------
                                X             Y             Z
Electronic contribution:      1.57993      -1.11949     -22.30949
Nuclear contribution   :     -1.26033       1.04799      22.75003
                        -----------------------------------------
Total Dipole Moment    :      0.31961      -0.07150       0.44055
                        -----------------------------------------
Magnitude (a.u.)       :      0.54895
Magnitude (Debye)      :      1.39531

Rotational constants in cm-1:     0.019311     0.008961     0.008106
Rotational constants in MHz :   578.931112   268.643794   243.021992

                             ****ORCA TERMINATED NORMALLY****
TOTAL RUN TIME: 0 days 0 hours 0 minutes 21 seconds 475 msec
