                         Program Version 4.2.1 -  RELEASE  -
|  1> ! wB97X-D3 SP def2-SVP
|  2> %pal
|  3> nprocs 24
|  4> end
|  5>
|  6> * xyz 0 1
|  7> S 	 -132.831 	 65.1622 	 -59.4727
|  8> C 	 -134.256 	 66.2144 	 -59.7961
|  9> C 	 -134.618 	 66.2128 	 -61.0854
| 10> C 	 -133.699 	 65.4231 	 -61.8628
| 11> C 	 -132.72 	 64.749 	 -61.1576
| 12> H 	 -133.706 	 65.2647 	 -62.9173
| 13> C 	 -135.688 	 67.098 	 -61.7201
| 14> H 	 -136.449 	 67.3742 	 -60.987
| 15> H 	 -136.357 	 66.5288 	 -62.4322
| 16> C 	 -135.207 	 68.4053 	 -62.2632
| 17> H 	 -134.772 	 68.181 	 -63.1829
| 18> H 	 -136.004 	 69.0765 	 -62.4603
| 19> C 	 -134.224 	 69.1616 	 -61.2428
| 20> H 	 -134.608 	 69.1398 	 -60.2422
| 21> H 	 -133.293 	 68.6951 	 -61.1736
| 22> H 	 -134.268 	 70.232 	 -61.5379
| 23> S 	 -131.703 	 63.4163 	 -63.3273
| 24> C 	 -130.002 	 62.9281 	 -63.2648
| 25> C 	 -129.561 	 62.8555 	 -62.0014
| 26> C 	 -130.394 	 63.5659 	 -61.1002
| 27> C 	 -131.6 	 63.9701 	 -61.6796
| 28> H 	 -128.609 	 62.4792 	 -61.6906
| 29> C 	 -130.169 	 63.6378 	 -59.6373
| 30> H 	 -131.048 	 63.5433 	 -59.047
| 31> H 	 -129.95 	 64.6579 	 -59.4703
| 32> C 	 -129.202 	 62.709 	 -58.8764
| 33> H 	 -128.202 	 63.1736 	 -58.9413
| 34> H 	 -129.204 	 61.8328 	 -59.5486
| 35> C 	 -129.521 	 62.364 	 -57.419
| 36> H 	 -128.579 	 62.3511 	 -56.8458
| 37> H 	 -129.736 	 61.3228 	 -57.387
| 38> H 	 -130.364 	 62.9625 	 -57.0364
| 39> H 	 -134.766 	 66.7981 	 -59.0736
| 40> H 	 -129.432 	 62.594 	 -64.1275
| 41> *
| 42>
| 43>                          ****END OF INPUT****

CARTESIAN COORDINATES (ANGSTROEM)
---------------------------------
  S    -132.831000   65.162200  -59.472700
  C    -134.256000   66.214400  -59.796100
  C    -134.618000   66.212800  -61.085400
  C    -133.699000   65.423100  -61.862800
  C    -132.720000   64.749000  -61.157600
  H    -133.706000   65.264700  -62.917300
  C    -135.688000   67.098000  -61.720100
  H    -136.449000   67.374200  -60.987000
  H    -136.357000   66.528800  -62.432200
  C    -135.207000   68.405300  -62.263200
  H    -134.772000   68.181000  -63.182900
  H    -136.004000   69.076500  -62.460300
  C    -134.224000   69.161600  -61.242800
  H    -134.608000   69.139800  -60.242200
  H    -133.293000   68.695100  -61.173600
  H    -134.268000   70.232000  -61.537900
  S    -131.703000   63.416300  -63.327300
  C    -130.002000   62.928100  -63.264800
  C    -129.561000   62.855500  -62.001400
  C    -130.394000   63.565900  -61.100200
  C    -131.600000   63.970100  -61.679600
  H    -128.609000   62.479200  -61.690600
  C    -130.169000   63.637800  -59.637300
  H    -131.048000   63.543300  -59.047000
  H    -129.950000   64.657900  -59.470300
  C    -129.202000   62.709000  -58.876400
  H    -128.202000   63.173600  -58.941300
  H    -129.204000   61.832800  -59.548600
  C    -129.521000   62.364000  -57.419000
  H    -128.579000   62.351100  -56.845800
  H    -129.736000   61.322800  -57.387000
  H    -130.364000   62.962500  -57.036400
  H    -134.766000   66.798100  -59.073600
  H    -129.432000   62.594000  -64.127500

 Total Charge           Charge          ....    0
 Multiplicity           Mult            ....    1
 Number of Electrons    NEL             ....  134
 Basis Dimension        Dim             ....  322

ORBITAL ENERGIES
----------------

  NO   OCC          E(Eh)            E(eV)
   0   2.0000     -88.965994     -2420.8878
   1   2.0000     -88.965763     -2420.8815
   2   2.0000     -10.330759      -281.1142
   3   2.0000     -10.327348      -281.0214
   4   2.0000     -10.317417      -280.7512
   5   2.0000     -10.309137      -280.5259
   6   2.0000     -10.301891      -280.3287
   7   2.0000     -10.299906      -280.2747
   8   2.0000     -10.293113      -280.0898
   9   2.0000     -10.290777      -280.0263
  10   2.0000     -10.289589      -279.9940
  11   2.0000     -10.288780      -279.9719
  12   2.0000     -10.280773      -279.7541
  13   2.0000     -10.279489      -279.7191
  14   2.0000     -10.278747      -279.6989
  15   2.0000     -10.273919      -279.5676
  16   2.0000      -8.080636      -219.8853
  17   2.0000      -8.079297      -219.8488
  18   2.0000      -6.039249      -164.3363
  19   2.0000      -6.037983      -164.3019
  20   2.0000      -6.035409      -164.2318
  21   2.0000      -6.034005      -164.1936
  22   2.0000      -6.031072      -164.1138
  23   2.0000      -6.029884      -164.0815
  24   2.0000      -1.010491       -27.4969
  25   2.0000      -0.986645       -26.8480
  26   2.0000      -0.915092       -24.9009
  27   2.0000      -0.912471       -24.8296
  28   2.0000      -0.872622       -23.7452
  29   2.0000      -0.856389       -23.3035
  30   2.0000      -0.837594       -22.7921
  31   2.0000      -0.816945       -22.2302
  32   2.0000      -0.787151       -21.4195
  33   2.0000      -0.779702       -21.2168
  34   2.0000      -0.710746       -19.3404
  35   2.0000      -0.708696       -19.2846
  36   2.0000      -0.694191       -18.8899
  37   2.0000      -0.663323       -18.0499
  38   2.0000      -0.633005       -17.2249
  39   2.0000      -0.620880       -16.8950
  40   2.0000      -0.608047       -16.5458
  41   2.0000      -0.572281       -15.5725
  42   2.0000      -0.570048       -15.5118
  43   2.0000      -0.553142       -15.0517
  44   2.0000      -0.542952       -14.7745
  45   2.0000      -0.533437       -14.5156
  46   2.0000      -0.520794       -14.1715
  47   2.0000      -0.509525       -13.8649
  48   2.0000      -0.504962       -13.7407
  49   2.0000      -0.498835       -13.5740
  50   2.0000      -0.484834       -13.1930
  51   2.0000      -0.480927       -13.0867
  52   2.0000      -0.472225       -12.8499
  53   2.0000      -0.471183       -12.8215
  54   2.0000      -0.463596       -12.6151
  55   2.0000      -0.457797       -12.4573
  56   2.0000      -0.451169       -12.2769
  57   2.0000      -0.438044       -11.9198
  58   2.0000      -0.429156       -11.6779
  59   2.0000      -0.419107       -11.4045
  60   2.0000      -0.416116       -11.3231
  61   2.0000      -0.411045       -11.1851
  62   2.0000      -0.400374       -10.8947
  63   2.0000      -0.363404        -9.8887
  64   2.0000      -0.332910        -9.0589
  65   2.0000      -0.330871        -9.0035
  66   2.0000      -0.281412        -7.6576
  67   0.0000       0.019627         0.5341
  68   0.0000       0.085790         2.3345
  69   0.0000       0.107493         2.9250
  70   0.0000       0.119855         3.2614
  71   0.0000       0.132576         3.6076

MULLIKEN ATOMIC CHARGES
-----------------------
   0 S :    0.055408
   1 C :   -0.100448
   2 C :   -0.047813
   3 C :   -0.019898
   4 C :   -0.093502
   5 H :    0.001229
   6 C :    0.034505
   7 H :    0.010882
   8 H :    0.036842
   9 C :   -0.027114
  10 H :    0.016941
  11 H :    0.020470
  12 C :   -0.048778
  13 H :    0.010949
  14 H :    0.048602
  15 H :    0.040674
  16 S :    0.090566
  17 C :   -0.080573
  18 C :   -0.007496
  19 C :   -0.072438
  20 C :   -0.114988
  21 H :    0.015681
  22 C :    0.020068
  23 H :    0.034262
  24 H :    0.023094
  25 C :   -0.094644
  26 H :    0.032596
  27 H :    0.031928
  28 C :   -0.012856
  29 H :    0.034823
  30 H :    0.021174
  31 H :    0.054800
  32 H :    0.028524
  33 H :    0.056528
Sum of atomic charges:   -0.0000000

LOEWDIN ATOMIC CHARGES
----------------------
   0 S :    0.399776
   1 C :   -0.171965
   2 C :   -0.058697
   3 C :   -0.072739
   4 C :   -0.182292
   5 H :    0.017733
   6 C :   -0.038558
   7 H :    0.027096
   8 H :    0.036511
   9 C :   -0.028565
  10 H :    0.014389
  11 H :    0.021152
  12 C :   -0.056031
  13 H :    0.018481
  14 H :    0.021084
  15 H :    0.032148
  16 S :    0.399670
  17 C :   -0.168129
  18 C :   -0.069011
  19 C :   -0.055837
  20 C :   -0.190725
  21 H :    0.030558
  22 C :   -0.052481
  23 H :    0.012226
  24 H :    0.028210
  25 C :   -0.043579
  26 H :    0.023920
  27 H :    0.024752
  28 C :   -0.066853
  29 H :    0.036013
  30 H :    0.027311
  31 H :    0.033267
  32 H :    0.020030
  33 H :    0.031133

  Mayer bond orders larger than 0.100000
B(  0-S ,  1-C ) :   1.1072 B(  0-S ,  4-C ) :   1.1243 B(  1-C ,  2-C ) :   1.6575
B(  1-C , 32-H ) :   0.9660 B(  2-C ,  3-C ) :   1.2056 B(  2-C ,  6-C ) :   1.0323
B(  3-C ,  4-C ) :   1.5944 B(  3-C ,  5-H ) :   0.9905 B(  4-C , 20-C ) :   1.0832
B(  6-C ,  7-H ) :   0.9364 B(  6-C ,  8-H ) :   0.9414 B(  6-C ,  9-C ) :   1.0745
B(  9-C , 10-H ) :   0.9572 B(  9-C , 11-H ) :   0.9578 B(  9-C , 12-C ) :   1.0666
B( 12-C , 13-H ) :   0.9760 B( 12-C , 14-H ) :   0.9737 B( 12-C , 15-H ) :   0.9762
B( 16-S , 17-C ) :   1.1435 B( 16-S , 20-C ) :   1.1323 B( 17-C , 18-C ) :   1.6064
B( 17-C , 33-H ) :   0.9654 B( 18-C , 19-C ) :   1.2627 B( 18-C , 21-H ) :   0.9823
B( 19-C , 20-C ) :   1.5711 B( 19-C , 22-C ) :   1.0364 B( 22-C , 23-H ) :   0.9339
B( 22-C , 24-H ) :   0.9047 B( 22-C , 25-C ) :   1.0592 B( 25-C , 26-H ) :   0.9553
B( 25-C , 27-H ) :   0.9587 B( 25-C , 28-C ) :   1.0759 B( 28-C , 29-H ) :   0.9717
B( 28-C , 30-H ) :   0.9722 B( 28-C , 31-H ) :   0.9753

Dispersion correction           -0.014097041
FINAL SINGLE POINT ENERGY     -1339.852522698293

DIPOLE MOMENT
-------------
                                X             Y             Z
Electronic contribution:     -0.42013      -8.97215      -9.55480
Nuclear contribution   :      0.56205       9.07642       9.64175
                        -----------------------------------------
Total Dipole Moment    :      0.14193       0.10427       0.08695
                        -----------------------------------------
Magnitude (a.u.)       :      0.19641
Magnitude (Debye)      :      0.49922

Rotational constants in cm-1:     0.021666     0.008202     0.006428
Rotational constants in MHz :   649.535761   245.889233   192.706438

                             ****ORCA TERMINATED NORMALLY****
TOTAL RUN TIME: 0 days 0 hours 0 minutes 21 seconds 456 msec
