                         Program Version 4.2.1 -  RELEASE  -
|  1> ! wB97X-D3 SP def2-SVP
|  2> %pal
|  3> nprocs 24
|  4> end
|  5>
|  6> * xyz 0 1
|  7> S 	 -116.446 	 31.1423 	 -19.1946
|  8> C 	 -117.145 	 30.7339 	 -20.7224
|  9> C 	 -118.065 	 31.7214 	 -21.1003
| 10> C 	 -118.268 	 32.652 	 -20.0146
| 11> C 	 -117.499 	 32.5443 	 -18.9098
| 12> H 	 -119.024 	 33.4079 	 -20.0708
| 13> C 	 -118.779 	 31.7607 	 -22.4293
| 14> H 	 -118.091 	 31.1041 	 -23.0774
| 15> H 	 -118.727 	 32.7893 	 -22.9772
| 16> C 	 -120.228 	 31.1629 	 -22.4845
| 17> H 	 -120.887 	 31.8109 	 -21.9856
| 18> H 	 -120.684 	 31.1816 	 -23.4507
| 19> C 	 -120.41 	 29.8215 	 -21.7499
| 20> H 	 -121.141 	 29.2243 	 -22.3016
| 21> H 	 -119.346 	 29.4437 	 -21.644
| 22> H 	 -120.7 	 30.1035 	 -20.7198
| 23> S 	 -117.12 	 32.7789 	 -16.1643
| 24> C 	 -117.072 	 34.3768 	 -15.448
| 25> C 	 -117.372 	 35.3174 	 -16.3671
| 26> C 	 -117.639 	 34.8591 	 -17.6723
| 27> C 	 -117.468 	 33.4792 	 -17.7657
| 28> H 	 -117.469 	 36.3353 	 -16.038
| 29> C 	 -118.05 	 35.7802 	 -18.7374
| 30> H 	 -118.274 	 36.7635 	 -18.385
| 31> H 	 -118.937 	 35.4107 	 -19.2055
| 32> C 	 -117.075 	 36.0315 	 -19.827
| 33> H 	 -117.724 	 36.5083 	 -20.6726
| 34> H 	 -116.801 	 35.0041 	 -20.2147
| 35> C 	 -115.953 	 36.9923 	 -19.3473
| 36> H 	 -115.396 	 36.462 	 -18.5211
| 37> H 	 -116.29 	 37.9217 	 -18.884
| 38> H 	 -115.371 	 37.299 	 -20.2338
| 39> H 	 -116.821 	 29.9507 	 -21.3577
| 40> H 	 -116.752 	 34.4727 	 -14.418
| 41> *
| 42>
| 43>                          ****END OF INPUT****

CARTESIAN COORDINATES (ANGSTROEM)
---------------------------------
  S    -116.446000   31.142300  -19.194600
  C    -117.145000   30.733900  -20.722400
  C    -118.065000   31.721400  -21.100300
  C    -118.268000   32.652000  -20.014600
  C    -117.499000   32.544300  -18.909800
  H    -119.024000   33.407900  -20.070800
  C    -118.779000   31.760700  -22.429300
  H    -118.091000   31.104100  -23.077400
  H    -118.727000   32.789300  -22.977200
  C    -120.228000   31.162900  -22.484500
  H    -120.887000   31.810900  -21.985600
  H    -120.684000   31.181600  -23.450700
  C    -120.410000   29.821500  -21.749900
  H    -121.141000   29.224300  -22.301600
  H    -119.346000   29.443700  -21.644000
  H    -120.700000   30.103500  -20.719800
  S    -117.120000   32.778900  -16.164300
  C    -117.072000   34.376800  -15.448000
  C    -117.372000   35.317400  -16.367100
  C    -117.639000   34.859100  -17.672300
  C    -117.468000   33.479200  -17.765700
  H    -117.469000   36.335300  -16.038000
  C    -118.050000   35.780200  -18.737400
  H    -118.274000   36.763500  -18.385000
  H    -118.937000   35.410700  -19.205500
  C    -117.075000   36.031500  -19.827000
  H    -117.724000   36.508300  -20.672600
  H    -116.801000   35.004100  -20.214700
  C    -115.953000   36.992300  -19.347300
  H    -115.396000   36.462000  -18.521100
  H    -116.290000   37.921700  -18.884000
  H    -115.371000   37.299000  -20.233800
  H    -116.821000   29.950700  -21.357700
  H    -116.752000   34.472700  -14.418000

 Total Charge           Charge          ....    0
 Multiplicity           Mult            ....    1
 Number of Electrons    NEL             ....  134
 Basis Dimension        Dim             ....  322

ORBITAL ENERGIES
----------------

  NO   OCC          E(Eh)            E(eV)
   0   2.0000     -88.967437     -2420.9270
   1   2.0000     -88.964947     -2420.8593
   2   2.0000     -10.335514      -281.2436
   3   2.0000     -10.333802      -281.1971
   4   2.0000     -10.318477      -280.7800
   5   2.0000     -10.317662      -280.7579
   6   2.0000     -10.309795      -280.5438
   7   2.0000     -10.306915      -280.4654
   8   2.0000     -10.303739      -280.3790
   9   2.0000     -10.292547      -280.0744
  10   2.0000     -10.291257      -280.0393
  11   2.0000     -10.291029      -280.0331
  12   2.0000     -10.284110      -279.8449
  13   2.0000     -10.280123      -279.7364
  14   2.0000     -10.279777      -279.7269
  15   2.0000     -10.279538      -279.7205
  16   2.0000      -8.081980      -219.9219
  17   2.0000      -8.079585      -219.8567
  18   2.0000      -6.040593      -164.3729
  19   2.0000      -6.038051      -164.3037
  20   2.0000      -6.036405      -164.2589
  21   2.0000      -6.034134      -164.1971
  22   2.0000      -6.032709      -164.1584
  23   2.0000      -6.030380      -164.0950
  24   2.0000      -1.009124       -27.4597
  25   2.0000      -0.989537       -26.9267
  26   2.0000      -0.921658       -25.0796
  27   2.0000      -0.907454       -24.6931
  28   2.0000      -0.872708       -23.7476
  29   2.0000      -0.849435       -23.1143
  30   2.0000      -0.843280       -22.9468
  31   2.0000      -0.819652       -22.3039
  32   2.0000      -0.784760       -21.3544
  33   2.0000      -0.769981       -20.9523
  34   2.0000      -0.712833       -19.3972
  35   2.0000      -0.697760       -18.9870
  36   2.0000      -0.686289       -18.6749
  37   2.0000      -0.666559       -18.1380
  38   2.0000      -0.642786       -17.4911
  39   2.0000      -0.624298       -16.9880
  40   2.0000      -0.603558       -16.4237
  41   2.0000      -0.568200       -15.4615
  42   2.0000      -0.561174       -15.2703
  43   2.0000      -0.552556       -15.0358
  44   2.0000      -0.549028       -14.9398
  45   2.0000      -0.540637       -14.7115
  46   2.0000      -0.515074       -14.0159
  47   2.0000      -0.513174       -13.9642
  48   2.0000      -0.502203       -13.6656
  49   2.0000      -0.496091       -13.4993
  50   2.0000      -0.489665       -13.3244
  51   2.0000      -0.485069       -13.1994
  52   2.0000      -0.475543       -12.9402
  53   2.0000      -0.468649       -12.7526
  54   2.0000      -0.450764       -12.2659
  55   2.0000      -0.446788       -12.1577
  56   2.0000      -0.442305       -12.0357
  57   2.0000      -0.435019       -11.8375
  58   2.0000      -0.430698       -11.7199
  59   2.0000      -0.425646       -11.5824
  60   2.0000      -0.416434       -11.3318
  61   2.0000      -0.407832       -11.0977
  62   2.0000      -0.402074       -10.9410
  63   2.0000      -0.358618        -9.7585
  64   2.0000      -0.334845        -9.1116
  65   2.0000      -0.328792        -8.9469
  66   2.0000      -0.292561        -7.9610
  67   0.0000       0.020657         0.5621
  68   0.0000       0.074784         2.0350
  69   0.0000       0.106379         2.8947
  70   0.0000       0.113431         3.0866
  71   0.0000       0.134655         3.6641

MULLIKEN ATOMIC CHARGES
-----------------------
   0 S :    0.110395
   1 C :   -0.098766
   2 C :   -0.105808
   3 C :    0.002669
   4 C :   -0.086933
   5 H :   -0.006712
   6 C :   -0.006653
   7 H :    0.030576
   8 H :    0.056467
   9 C :   -0.046629
  10 H :    0.006290
  11 H :    0.020397
  12 C :   -0.055664
  13 H :    0.050687
  14 H :    0.028997
  15 H :    0.043036
  16 S :    0.091198
  17 C :   -0.092983
  18 C :   -0.022048
  19 C :   -0.011956
  20 C :   -0.173411
  21 H :    0.011344
  22 C :    0.088557
  23 H :   -0.004084
  24 H :    0.021891
  25 C :   -0.117067
  26 H :    0.031555
  27 H :    0.053598
  28 C :   -0.055849
  29 H :    0.053335
  30 H :    0.023494
  31 H :    0.047784
  32 H :    0.048405
  33 H :    0.063887
Sum of atomic charges:    0.0000000

LOEWDIN ATOMIC CHARGES
----------------------
   0 S :    0.404795
   1 C :   -0.192718
   2 C :   -0.069456
   3 C :   -0.068043
   4 C :   -0.189431
   5 H :    0.023352
   6 C :   -0.045331
   7 H :    0.034830
   8 H :    0.044223
   9 C :   -0.047459
  10 H :    0.014410
  11 H :    0.020478
  12 C :   -0.069432
  13 H :    0.030077
  14 H :    0.030970
  15 H :    0.032656
  16 S :    0.389725
  17 C :   -0.174243
  18 C :   -0.072362
  19 C :   -0.052222
  20 C :   -0.179246
  21 H :    0.031254
  22 C :   -0.038750
  23 H :    0.025583
  24 H :    0.027969
  25 C :   -0.045902
  26 H :    0.029603
  27 H :    0.031340
  28 C :   -0.072488
  29 H :    0.036862
  30 H :    0.022603
  31 H :    0.031199
  32 H :    0.024359
  33 H :    0.030793

  Mayer bond orders larger than 0.100000
B(  0-S ,  1-C ) :   1.1540 B(  0-S ,  4-C ) :   1.1300 B(  1-C ,  2-C ) :   1.5846
B(  1-C , 32-H ) :   0.9638 B(  2-C ,  3-C ) :   1.2416 B(  2-C ,  6-C ) :   1.0320
B(  3-C ,  4-C ) :   1.5731 B(  3-C ,  5-H ) :   1.0041 B(  4-C , 20-C ) :   1.0591
B(  6-C ,  7-H ) :   0.9413 B(  6-C ,  8-H ) :   0.9462 B(  6-C ,  9-C ) :   1.0574
B(  9-C , 10-H ) :   0.9586 B(  9-C , 11-H ) :   0.9608 B(  9-C , 12-C ) :   1.0572
B( 12-C , 13-H ) :   0.9742 B( 12-C , 14-H ) :   0.9795 B( 12-C , 15-H ) :   0.9749
B( 16-S , 17-C ) :   1.1516 B( 16-S , 20-C ) :   1.1432 B( 17-C , 18-C ) :   1.5972
B( 17-C , 20-C ) :   0.1005 B( 17-C , 33-H ) :   0.9699 B( 18-C , 19-C ) :   1.2476
B( 18-C , 21-H ) :   0.9951 B( 19-C , 20-C ) :   1.5677 B( 19-C , 22-C ) :   1.0538
B( 22-C , 23-H ) :   0.9217 B( 22-C , 24-H ) :   0.9240 B( 22-C , 25-C ) :   1.0793
B( 25-C , 26-H ) :   0.9530 B( 25-C , 27-H ) :   0.9525 B( 25-C , 28-C ) :   1.0601
B( 28-C , 29-H ) :   0.9747 B( 28-C , 30-H ) :   0.9724 B( 28-C , 31-H ) :   0.9751

Dispersion correction           -0.015081203
FINAL SINGLE POINT ENERGY     -1339.864378634542

DIPOLE MOMENT
-------------
                                X             Y             Z
Electronic contribution:      9.64627      -9.51118      19.40921
Nuclear contribution   :     -9.96373      10.05794     -19.74577
                        -----------------------------------------
Total Dipole Moment    :     -0.31746       0.54676      -0.33656
                        -----------------------------------------
Magnitude (a.u.)       :      0.71624
Magnitude (Debye)      :      1.82055

Rotational constants in cm-1:     0.020567     0.008591     0.007135
Rotational constants in MHz :   616.593972   257.563363   213.911893

                             ****ORCA TERMINATED NORMALLY****
TOTAL RUN TIME: 0 days 0 hours 0 minutes 22 seconds 423 msec
