                         Program Version 4.2.1 -  RELEASE  -
|  1> ! wB97X-D3 SP def2-SVP
|  2> %pal
|  3> nprocs 24
|  4> end
|  5>
|  6> * xyz 0 1
|  7> S 	 -72.2193 	 4.28909 	 11.9199
|  8> C 	 -70.7132 	 5.12248 	 11.5099
|  9> C 	 -69.8961 	 5.31857 	 12.6208
| 10> C 	 -70.5126 	 4.85643 	 13.8259
| 11> C 	 -71.7837 	 4.26053 	 13.6671
| 12> H 	 -70.1079 	 4.84771 	 14.8215
| 13> C 	 -68.5648 	 6.00671 	 12.6254
| 14> H 	 -68.7055 	 7.08526 	 12.8694
| 15> H 	 -68.2232 	 6.0565 	 11.5797
| 16> C 	 -67.4784 	 5.38999 	 13.5284
| 17> H 	 -66.5882 	 5.94786 	 13.5127
| 18> H 	 -67.8356 	 5.47244 	 14.539
| 19> C 	 -67.1264 	 3.92985 	 13.2123
| 20> H 	 -66.2919 	 3.67045 	 13.8486
| 21> H 	 -67.9607 	 3.18847 	 13.3476
| 22> H 	 -66.8712 	 3.62823 	 12.1917
| 23> S 	 -74.4239 	 4.25673 	 14.4783
| 24> C 	 -74.8997 	 3.54092 	 15.9587
| 25> C 	 -73.8152 	 2.98654 	 16.619
| 26> C 	 -72.5953 	 3.22615 	 15.9596
| 27> C 	 -72.7133 	 3.81134 	 14.6946
| 28> H 	 -73.9562 	 2.54229 	 17.5842
| 29> C 	 -71.3429 	 2.60676 	 16.5486
| 30> H 	 -70.615 	 2.4646 	 15.7111
| 31> H 	 -71.6673 	 1.55854 	 16.6783
| 32> C 	 -70.8136 	 3.23508 	 17.8562
| 33> H 	 -69.9143 	 2.66386 	 18.1824
| 34> H 	 -71.5936 	 3.18828 	 18.6702
| 35> C 	 -70.3652 	 4.67842 	 17.5305
| 36> H 	 -71.2367 	 5.28581 	 17.167
| 37> H 	 -69.6223 	 4.62411 	 16.7591
| 38> H 	 -69.9274 	 5.07939 	 18.4335
| 39> H 	 -70.5418 	 5.40028 	 10.511
| 40> H 	 -75.9114 	 3.31223 	 16.1753
| 41> *
| 42>
| 43>                          ****END OF INPUT****

CARTESIAN COORDINATES (ANGSTROEM)
---------------------------------
  S    -72.219300    4.289090   11.919900
  C    -70.713200    5.122480   11.509900
  C    -69.896100    5.318570   12.620800
  C    -70.512600    4.856430   13.825900
  C    -71.783700    4.260530   13.667100
  H    -70.107900    4.847710   14.821500
  C    -68.564800    6.006710   12.625400
  H    -68.705500    7.085260   12.869400
  H    -68.223200    6.056500   11.579700
  C    -67.478400    5.389990   13.528400
  H    -66.588200    5.947860   13.512700
  H    -67.835600    5.472440   14.539000
  C    -67.126400    3.929850   13.212300
  H    -66.291900    3.670450   13.848600
  H    -67.960700    3.188470   13.347600
  H    -66.871200    3.628230   12.191700
  S    -74.423900    4.256730   14.478300
  C    -74.899700    3.540920   15.958700
  C    -73.815200    2.986540   16.619000
  C    -72.595300    3.226150   15.959600
  C    -72.713300    3.811340   14.694600
  H    -73.956200    2.542290   17.584200
  C    -71.342900    2.606760   16.548600
  H    -70.615000    2.464600   15.711100
  H    -71.667300    1.558540   16.678300
  C    -70.813600    3.235080   17.856200
  H    -69.914300    2.663860   18.182400
  H    -71.593600    3.188280   18.670200
  C    -70.365200    4.678420   17.530500
  H    -71.236700    5.285810   17.167000
  H    -69.622300    4.624110   16.759100
  H    -69.927400    5.079390   18.433500
  H    -70.541800    5.400280   10.511000
  H    -75.911400    3.312230   16.175300

 Total Charge           Charge          ....    0
 Multiplicity           Mult            ....    1
 Number of Electrons    NEL             ....  134
 Basis Dimension        Dim             ....  322

ORBITAL ENERGIES
----------------

  NO   OCC          E(Eh)            E(eV)
   0   2.0000     -88.966718     -2420.9075
   1   2.0000     -88.962748     -2420.7995
   2   2.0000     -10.337625      -281.3011
   3   2.0000     -10.331037      -281.1218
   4   2.0000     -10.315935      -280.7109
   5   2.0000     -10.313119      -280.6342
   6   2.0000     -10.305341      -280.4226
   7   2.0000     -10.303341      -280.3682
   8   2.0000     -10.298457      -280.2353
   9   2.0000     -10.296435      -280.1802
  10   2.0000     -10.294914      -280.1388
  11   2.0000     -10.293441      -280.0988
  12   2.0000     -10.290718      -280.0247
  13   2.0000     -10.286782      -279.9176
  14   2.0000     -10.280480      -279.7461
  15   2.0000     -10.278771      -279.6996
  16   2.0000      -8.080264      -219.8751
  17   2.0000      -8.077914      -219.8112
  18   2.0000      -6.038840      -164.3252
  19   2.0000      -6.036342      -164.2572
  20   2.0000      -6.034935      -164.2189
  21   2.0000      -6.032239      -164.1456
  22   2.0000      -6.031041      -164.1130
  23   2.0000      -6.028847      -164.0533
  24   2.0000      -1.003270       -27.3004
  25   2.0000      -0.979931       -26.6653
  26   2.0000      -0.911459       -24.8021
  27   2.0000      -0.909431       -24.7469
  28   2.0000      -0.869125       -23.6501
  29   2.0000      -0.850920       -23.1547
  30   2.0000      -0.842684       -22.9306
  31   2.0000      -0.814050       -22.1514
  32   2.0000      -0.781335       -21.2612
  33   2.0000      -0.772378       -21.0175
  34   2.0000      -0.714841       -19.4518
  35   2.0000      -0.700003       -19.0480
  36   2.0000      -0.695934       -18.9373
  37   2.0000      -0.659362       -17.9421
  38   2.0000      -0.644033       -17.5250
  39   2.0000      -0.622689       -16.9442
  40   2.0000      -0.595661       -16.2088
  41   2.0000      -0.564781       -15.3685
  42   2.0000      -0.556889       -15.1537
  43   2.0000      -0.550662       -14.9843
  44   2.0000      -0.542535       -14.7631
  45   2.0000      -0.539275       -14.6744
  46   2.0000      -0.523003       -14.2316
  47   2.0000      -0.510664       -13.8959
  48   2.0000      -0.505899       -13.7662
  49   2.0000      -0.498814       -13.5734
  50   2.0000      -0.488222       -13.2852
  51   2.0000      -0.482456       -13.1283
  52   2.0000      -0.466987       -12.7074
  53   2.0000      -0.463022       -12.5995
  54   2.0000      -0.456490       -12.4217
  55   2.0000      -0.448309       -12.1991
  56   2.0000      -0.444361       -12.0917
  57   2.0000      -0.436692       -11.8830
  58   2.0000      -0.432810       -11.7774
  59   2.0000      -0.425516       -11.5789
  60   2.0000      -0.422291       -11.4911
  61   2.0000      -0.415790       -11.3142
  62   2.0000      -0.410818       -11.1789
  63   2.0000      -0.352053        -9.5798
  64   2.0000      -0.330584        -8.9957
  65   2.0000      -0.329550        -8.9675
  66   2.0000      -0.285318        -7.7639
  67   0.0000       0.019644         0.5345
  68   0.0000       0.074226         2.0198
  69   0.0000       0.107515         2.9256
  70   0.0000       0.117991         3.2107
  71   0.0000       0.127424         3.4674

MULLIKEN ATOMIC CHARGES
-----------------------
   0 S :    0.094781
   1 C :   -0.116452
   2 C :   -0.063207
   3 C :    0.064204
   4 C :   -0.146687
   5 H :   -0.056785
   6 C :    0.059166
   7 H :    0.049491
   8 H :    0.014789
   9 C :   -0.037581
  10 H :    0.020497
  11 H :    0.025511
  12 C :   -0.072708
  13 H :    0.033574
  14 H :    0.039686
  15 H :    0.026411
  16 S :    0.094656
  17 C :   -0.072039
  18 C :   -0.038365
  19 C :   -0.050197
  20 C :   -0.134416
  21 H :    0.017603
  22 C :   -0.000610
  23 H :    0.031555
  24 H :    0.035157
  25 C :   -0.073363
  26 H :    0.040413
  27 H :    0.042344
  28 C :   -0.053392
  29 H :    0.063824
  30 H :    0.040578
  31 H :    0.033561
  32 H :    0.034979
  33 H :    0.053023
Sum of atomic charges:   -0.0000000

LOEWDIN ATOMIC CHARGES
----------------------
   0 S :    0.376881
   1 C :   -0.178352
   2 C :   -0.062390
   3 C :   -0.058004
   4 C :   -0.176845
   5 H :    0.022571
   6 C :   -0.035828
   7 H :    0.040171
   8 H :    0.028989
   9 C :   -0.035061
  10 H :    0.022285
  11 H :    0.022601
  12 C :   -0.073699
  13 H :    0.025748
  14 H :    0.031435
  15 H :    0.025729
  16 S :    0.410953
  17 C :   -0.187324
  18 C :   -0.071880
  19 C :   -0.062413
  20 C :   -0.193935
  21 H :    0.030267
  22 C :   -0.044932
  23 H :    0.032594
  24 H :    0.035284
  25 C :   -0.039532
  26 H :    0.029725
  27 H :    0.027812
  28 C :   -0.062838
  29 H :    0.036745
  30 H :    0.017285
  31 H :    0.024848
  32 H :    0.017302
  33 H :    0.023809

  Mayer bond orders larger than 0.100000
B(  0-S ,  1-C ) :   1.1378 B(  0-S ,  4-C ) :   1.1399 B(  1-C ,  2-C ) :   1.5892
B(  1-C ,  4-C ) :   0.1003 B(  1-C , 32-H ) :   0.9762 B(  2-C ,  3-C ) :   1.2337
B(  2-C ,  6-C ) :   1.0259 B(  3-C ,  4-C ) :   1.5669 B(  3-C ,  5-H ) :   0.9866
B(  4-C , 20-C ) :   1.0688 B(  6-C ,  7-H ) :   0.9353 B(  6-C ,  8-H ) :   0.9398
B(  6-C ,  9-C ) :   1.0757 B(  9-C , 10-H ) :   0.9532 B(  9-C , 11-H ) :   0.9495
B(  9-C , 12-C ) :   1.0736 B( 12-C , 13-H ) :   0.9754 B( 12-C , 14-H ) :   0.9716
B( 12-C , 15-H ) :   0.9760 B( 16-S , 17-C ) :   1.1789 B( 16-S , 20-C ) :   1.1375
B( 17-C , 18-C ) :   1.5767 B( 17-C , 20-C ) :   0.1040 B( 17-C , 33-H ) :   0.9674
B( 18-C , 19-C ) :   1.2686 B( 18-C , 21-H ) :   0.9937 B( 19-C , 20-C ) :   1.5547
B( 19-C , 22-C ) :   1.0230 B( 22-C , 23-H ) :   0.9472 B( 22-C , 24-H ) :   0.9411
B( 22-C , 25-C ) :   1.0590 B( 25-C , 26-H ) :   0.9543 B( 25-C , 27-H ) :   0.9569
B( 25-C , 28-C ) :   1.0730 B( 28-C , 29-H ) :   0.9722 B( 28-C , 30-H ) :   0.9618
B( 28-C , 31-H ) :   0.9673

Dispersion correction           -0.015620928
FINAL SINGLE POINT ENERGY     -1339.888647668007

DIPOLE MOMENT
-------------
                                X             Y             Z
Electronic contribution:    -26.25472       0.04937     -12.76655
Nuclear contribution   :     26.80777      -0.09307      13.21443
                        -----------------------------------------
Total Dipole Moment    :      0.55305      -0.04370       0.44787
                        -----------------------------------------
Magnitude (a.u.)       :      0.71300
Magnitude (Debye)      :      1.81229

Rotational constants in cm-1:     0.018639     0.010240     0.007178
Rotational constants in MHz :   558.775975   306.998528   215.176431

                             ****ORCA TERMINATED NORMALLY****
TOTAL RUN TIME: 0 days 0 hours 0 minutes 22 seconds 906 msec
