                         Program Version 4.2.1 -  RELEASE  -
|  1> ! wB97X-D3 SP def2-SVP
|  2> %pal
|  3> nprocs 24
|  4> end
|  5>
|  6> * xyz 0 1
|  7> S 	 -145.55 	 12.7106 	 -7.87901
|  8> C 	 -144.817 	 11.2226 	 -8.36693
|  9> C 	 -145.34 	 10.7294 	 -9.56168
| 10> C 	 -146.093 	 11.7526 	 -10.1986
| 11> C 	 -146.415 	 12.8383 	 -9.41699
| 12> H 	 -146.393 	 11.7447 	 -11.2038
| 13> C 	 -144.787 	 9.44493 	 -10.1984
| 14> H 	 -145.527 	 8.67836 	 -10.0258
| 15> H 	 -143.924 	 9.14818 	 -9.54297
| 16> C 	 -144.165 	 9.49415 	 -11.6031
| 17> H 	 -143.806 	 8.4676 	 -11.7997
| 18> H 	 -144.956 	 9.74561 	 -12.2872
| 19> C 	 -142.994 	 10.4312 	 -11.7922
| 20> H 	 -143.429 	 11.4822 	 -11.8759
| 21> H 	 -142.313 	 10.2932 	 -10.9916
| 22> H 	 -142.355 	 10.205 	 -12.6944
| 23> S 	 -146.454 	 15.5634 	 -9.49048
| 24> C 	 -147.921 	 16.4446 	 -9.92674
| 25> C 	 -148.818 	 15.5091 	 -10.3941
| 26> C 	 -148.432 	 14.1575 	 -10.2523
| 27> C 	 -147.189 	 14.0193 	 -9.7182
| 28> H 	 -149.709 	 15.8321 	 -10.7837
| 29> C 	 -149.348 	 13.0381 	 -10.6668
| 30> H 	 -148.807 	 12.5085 	 -11.4366
| 31> H 	 -150.284 	 13.3524 	 -11.1003
| 32> C 	 -149.693 	 12.1103 	 -9.49208
| 33> H 	 -148.753 	 11.8777 	 -8.97989
| 34> H 	 -150.175 	 11.1772 	 -9.71767
| 35> C 	 -150.615 	 12.8564 	 -8.4911
| 36> H 	 -151.452 	 13.2406 	 -9.07274
| 37> H 	 -149.977 	 13.5569 	 -7.89711
| 38> H 	 -150.993 	 12.1808 	 -7.68688
| 39> H 	 -144.214 	 10.6112 	 -7.66397
| 40> H 	 -148.112 	 17.5092 	 -10.0754
| 41> *
| 42>
| 43>                          ****END OF INPUT****

CARTESIAN COORDINATES (ANGSTROEM)
---------------------------------
  S    -145.550000   12.710600   -7.879010
  C    -144.817000   11.222600   -8.366930
  C    -145.340000   10.729400   -9.561680
  C    -146.093000   11.752600  -10.198600
  C    -146.415000   12.838300   -9.416990
  H    -146.393000   11.744700  -11.203800
  C    -144.787000    9.444930  -10.198400
  H    -145.527000    8.678360  -10.025800
  H    -143.924000    9.148180   -9.542970
  C    -144.165000    9.494150  -11.603100
  H    -143.806000    8.467600  -11.799700
  H    -144.956000    9.745610  -12.287200
  C    -142.994000   10.431200  -11.792200
  H    -143.429000   11.482200  -11.875900
  H    -142.313000   10.293200  -10.991600
  H    -142.355000   10.205000  -12.694400
  S    -146.454000   15.563400   -9.490480
  C    -147.921000   16.444600   -9.926740
  C    -148.818000   15.509100  -10.394100
  C    -148.432000   14.157500  -10.252300
  C    -147.189000   14.019300   -9.718200
  H    -149.709000   15.832100  -10.783700
  C    -149.348000   13.038100  -10.666800
  H    -148.807000   12.508500  -11.436600
  H    -150.284000   13.352400  -11.100300
  C    -149.693000   12.110300   -9.492080
  H    -148.753000   11.877700   -8.979890
  H    -150.175000   11.177200   -9.717670
  C    -150.615000   12.856400   -8.491100
  H    -151.452000   13.240600   -9.072740
  H    -149.977000   13.556900   -7.897110
  H    -150.993000   12.180800   -7.686880
  H    -144.214000   10.611200   -7.663970
  H    -148.112000   17.509200  -10.075400

 Total Charge           Charge          ....    0
 Multiplicity           Mult            ....    1
 Number of Electrons    NEL             ....  134
 Basis Dimension        Dim             ....  322

ORBITAL ENERGIES
----------------

  NO   OCC          E(Eh)            E(eV)
   0   2.0000     -88.966417     -2420.8993
   1   2.0000     -88.964935     -2420.8590
   2   2.0000     -10.329970      -281.0928
   3   2.0000     -10.321603      -280.8651
   4   2.0000     -10.317570      -280.7553
   5   2.0000     -10.316772      -280.7336
   6   2.0000     -10.303571      -280.3744
   7   2.0000     -10.297336      -280.2048
   8   2.0000     -10.296999      -280.1956
   9   2.0000     -10.293057      -280.0883
  10   2.0000     -10.288026      -279.9514
  11   2.0000     -10.287067      -279.9253
  12   2.0000     -10.283860      -279.8381
  13   2.0000     -10.281628      -279.7773
  14   2.0000     -10.276987      -279.6510
  15   2.0000     -10.275313      -279.6055
  16   2.0000      -8.081253      -219.9021
  17   2.0000      -8.079693      -219.8596
  18   2.0000      -6.039651      -164.3473
  19   2.0000      -6.038331      -164.3113
  20   2.0000      -6.035642      -164.2382
  21   2.0000      -6.034097      -164.1961
  22   2.0000      -6.032216      -164.1449
  23   2.0000      -6.030388      -164.0952
  24   2.0000      -1.012917       -27.5629
  25   2.0000      -0.988421       -26.8963
  26   2.0000      -0.912353       -24.8264
  27   2.0000      -0.909275       -24.7426
  28   2.0000      -0.873754       -23.7761
  29   2.0000      -0.849761       -23.1232
  30   2.0000      -0.842225       -22.9181
  31   2.0000      -0.819370       -22.2962
  32   2.0000      -0.781850       -21.2752
  33   2.0000      -0.770714       -20.9722
  34   2.0000      -0.712079       -19.3767
  35   2.0000      -0.693545       -18.8723
  36   2.0000      -0.682910       -18.5829
  37   2.0000      -0.666763       -18.1435
  38   2.0000      -0.644152       -17.5283
  39   2.0000      -0.626234       -17.0407
  40   2.0000      -0.594843       -16.1865
  41   2.0000      -0.571042       -15.5388
  42   2.0000      -0.557194       -15.1620
  43   2.0000      -0.554240       -15.0816
  44   2.0000      -0.550310       -14.9747
  45   2.0000      -0.543283       -14.7835
  46   2.0000      -0.516950       -14.0669
  47   2.0000      -0.512137       -13.9360
  48   2.0000      -0.502767       -13.6810
  49   2.0000      -0.492204       -13.3936
  50   2.0000      -0.489185       -13.3114
  51   2.0000      -0.475351       -12.9350
  52   2.0000      -0.471926       -12.8418
  53   2.0000      -0.464099       -12.6288
  54   2.0000      -0.460860       -12.5406
  55   2.0000      -0.449697       -12.2369
  56   2.0000      -0.441329       -12.0092
  57   2.0000      -0.432130       -11.7588
  58   2.0000      -0.430367       -11.7109
  59   2.0000      -0.420695       -11.4477
  60   2.0000      -0.419274       -11.4090
  61   2.0000      -0.411569       -11.1994
  62   2.0000      -0.408728       -11.1221
  63   2.0000      -0.348815        -9.4917
  64   2.0000      -0.333299        -9.0695
  65   2.0000      -0.329389        -8.9631
  66   2.0000      -0.294049        -8.0015
  67   0.0000       0.026422         0.7190
  68   0.0000       0.070851         1.9280
  69   0.0000       0.114127         3.1056
  70   0.0000       0.122920         3.3448
  71   0.0000       0.130498         3.5510

MULLIKEN ATOMIC CHARGES
-----------------------
   0 S :    0.116279
   1 C :   -0.130747
   2 C :   -0.090244
   3 C :    0.045549
   4 C :   -0.183647
   5 H :   -0.006513
   6 C :    0.046132
   7 H :    0.040090
   8 H :    0.017115
   9 C :   -0.071014
  10 H :    0.032672
  11 H :    0.029164
  12 C :   -0.057276
  13 H :    0.054761
  14 H :    0.019772
  15 H :    0.043267
  16 S :    0.113234
  17 C :   -0.087596
  18 C :   -0.021220
  19 C :   -0.026443
  20 C :   -0.159881
  21 H :   -0.021874
  22 C :    0.112066
  23 H :    0.025177
  24 H :    0.008090
  25 C :   -0.082416
  26 H :    0.043393
  27 H :    0.023392
  28 C :   -0.074337
  29 H :    0.031409
  30 H :    0.049820
  31 H :    0.032436
  32 H :    0.066317
  33 H :    0.063072
Sum of atomic charges:    0.0000000

LOEWDIN ATOMIC CHARGES
----------------------
   0 S :    0.408171
   1 C :   -0.202197
   2 C :   -0.067671
   3 C :   -0.056631
   4 C :   -0.189292
   5 H :    0.021848
   6 C :   -0.033032
   7 H :    0.031788
   8 H :    0.032563
   9 C :   -0.044725
  10 H :    0.029774
  11 H :    0.018150
  12 C :   -0.068655
  13 H :    0.037917
  14 H :    0.018018
  15 H :    0.034585
  16 S :    0.415317
  17 C :   -0.185700
  18 C :   -0.060196
  19 C :   -0.056274
  20 C :   -0.212265
  21 H :    0.014382
  22 C :   -0.025047
  23 H :    0.029132
  24 H :    0.024180
  25 C :   -0.039807
  26 H :    0.025253
  27 H :    0.018123
  28 C :   -0.070299
  29 H :    0.020853
  30 H :    0.032781
  31 H :    0.027350
  32 H :    0.032912
  33 H :    0.038694

  Mayer bond orders larger than 0.100000
B(  0-S ,  1-C ) :   1.1591 B(  0-S ,  4-C ) :   1.1429 B(  1-C ,  2-C ) :   1.5974
B(  1-C ,  4-C ) :   0.1033 B(  1-C , 32-H ) :   0.9559 B(  2-C ,  3-C ) :   1.2395
B(  2-C ,  6-C ) :   1.0141 B(  3-C ,  4-C ) :   1.5842 B(  3-C ,  5-H ) :   0.9978
B(  4-C , 20-C ) :   1.0422 B(  6-C ,  7-H ) :   0.9344 B(  6-C ,  8-H ) :   0.9463
B(  6-C ,  9-C ) :   1.0726 B(  9-C , 10-H ) :   0.9518 B(  9-C , 11-H ) :   0.9553
B(  9-C , 12-C ) :   1.0788 B( 12-C , 13-H ) :   0.9722 B( 12-C , 14-H ) :   0.9742
B( 12-C , 15-H ) :   0.9736 B( 16-S , 17-C ) :   1.1439 B( 16-S , 20-C ) :   1.1543
B( 17-C , 18-C ) :   1.6008 B( 17-C , 20-C ) :   0.1010 B( 17-C , 33-H ) :   0.9659
B( 18-C , 19-C ) :   1.2566 B( 18-C , 21-H ) :   1.0013 B( 19-C , 20-C ) :   1.5769
B( 19-C , 22-C ) :   1.0337 B( 22-C , 23-H ) :   0.9277 B( 22-C , 24-H ) :   0.9403
B( 22-C , 25-C ) :   1.0667 B( 25-C , 26-H ) :   0.9583 B( 25-C , 27-H ) :   0.9587
B( 25-C , 28-C ) :   1.0671 B( 28-C , 29-H ) :   0.9770 B( 28-C , 30-H ) :   0.9764
B( 28-C , 31-H ) :   0.9749

Dispersion correction           -0.015392215
FINAL SINGLE POINT ENERGY     -1339.878508736758

DIPOLE MOMENT
-------------
                                X             Y             Z
Electronic contribution:      4.60140      17.56677       9.45445
Nuclear contribution   :     -4.75199     -18.03467      -9.88896
                        -----------------------------------------
Total Dipole Moment    :     -0.15059      -0.46791      -0.43451
                        -----------------------------------------
Magnitude (a.u.)       :      0.65606
Magnitude (Debye)      :      1.66756

Rotational constants in cm-1:     0.020817     0.008630     0.007788
Rotational constants in MHz :   624.082321   258.717515   233.473852

                             ****ORCA TERMINATED NORMALLY****
TOTAL RUN TIME: 0 days 0 hours 0 minutes 21 seconds 373 msec
