                         Program Version 4.2.1 -  RELEASE  -
|  1> ! wB97X-D3 SP def2-SVP
|  2> %pal
|  3> nprocs 24
|  4> end
|  5>
|  6> * xyz 0 1
|  7> S 	 -47.5602 	 18.6468 	 28.5056
|  8> C 	 -46.5539 	 19.3829 	 27.3231
|  9> C 	 -45.2961 	 18.823 	 27.3607
| 10> C 	 -45.1529 	 17.9402 	 28.4541
| 11> C 	 -46.2615 	 17.7718 	 29.1554
| 12> H 	 -44.2808 	 17.395 	 28.6749
| 13> C 	 -44.1445 	 19.3563 	 26.5996
| 14> H 	 -43.2024 	 19.3117 	 27.2195
| 15> H 	 -44.3007 	 20.4191 	 26.2633
| 16> C 	 -44.0105 	 18.6154 	 25.295
| 17> H 	 -44.99 	 18.8319 	 24.7409
| 18> H 	 -43.2132 	 18.9814 	 24.686
| 19> C 	 -43.8218 	 17.1311 	 25.4164
| 20> H 	 -43.7119 	 16.5787 	 24.4814
| 21> H 	 -42.8989 	 16.9101 	 26.0734
| 22> H 	 -44.7709 	 16.7001 	 25.7736
| 23> S 	 -45.5445 	 17.2837 	 31.7438
| 24> C 	 -46.125 	 15.7752 	 32.5825
| 25> C 	 -47.1479 	 15.2182 	 31.837
| 26> C 	 -47.3763 	 15.8616 	 30.5359
| 27> C 	 -46.4818 	 16.925 	 30.3349
| 28> H 	 -47.5534 	 14.3179 	 32.2183
| 29> C 	 -48.2263 	 15.2324 	 29.4517
| 30> H 	 -48.1837 	 15.7931 	 28.5031
| 31> H 	 -49.3086 	 15.1632 	 29.7036
| 32> C 	 -47.8725 	 13.8207 	 29.1117
| 33> H 	 -48.6842 	 13.5487 	 28.455
| 34> H 	 -47.8627 	 13.2536 	 30.0304
| 35> C 	 -46.5251 	 13.6912 	 28.3874
| 36> H 	 -46.728 	 13.9148 	 27.3916
| 37> H 	 -46.322 	 12.6245 	 28.5675
| 38> H 	 -45.8014 	 14.4184 	 28.8609
| 39> H 	 -46.9111 	 20.1978 	 26.7309
| 40> H 	 -45.8726 	 15.4943 	 33.5659
| 41> *
| 42>
| 43>                          ****END OF INPUT****

CARTESIAN COORDINATES (ANGSTROEM)
---------------------------------
  S    -47.560200   18.646800   28.505600
  C    -46.553900   19.382900   27.323100
  C    -45.296100   18.823000   27.360700
  C    -45.152900   17.940200   28.454100
  C    -46.261500   17.771800   29.155400
  H    -44.280800   17.395000   28.674900
  C    -44.144500   19.356300   26.599600
  H    -43.202400   19.311700   27.219500
  H    -44.300700   20.419100   26.263300
  C    -44.010500   18.615400   25.295000
  H    -44.990000   18.831900   24.740900
  H    -43.213200   18.981400   24.686000
  C    -43.821800   17.131100   25.416400
  H    -43.711900   16.578700   24.481400
  H    -42.898900   16.910100   26.073400
  H    -44.770900   16.700100   25.773600
  S    -45.544500   17.283700   31.743800
  C    -46.125000   15.775200   32.582500
  C    -47.147900   15.218200   31.837000
  C    -47.376300   15.861600   30.535900
  C    -46.481800   16.925000   30.334900
  H    -47.553400   14.317900   32.218300
  C    -48.226300   15.232400   29.451700
  H    -48.183700   15.793100   28.503100
  H    -49.308600   15.163200   29.703600
  C    -47.872500   13.820700   29.111700
  H    -48.684200   13.548700   28.455000
  H    -47.862700   13.253600   30.030400
  C    -46.525100   13.691200   28.387400
  H    -46.728000   13.914800   27.391600
  H    -46.322000   12.624500   28.567500
  H    -45.801400   14.418400   28.860900
  H    -46.911100   20.197800   26.730900
  H    -45.872600   15.494300   33.565900

 Total Charge           Charge          ....    0
 Multiplicity           Mult            ....    1
 Number of Electrons    NEL             ....  134
 Basis Dimension        Dim             ....  322

ORBITAL ENERGIES
----------------

  NO   OCC          E(Eh)            E(eV)
   0   2.0000     -88.964858     -2420.8569
   1   2.0000     -88.963020     -2420.8068
   2   2.0000     -10.329400      -281.0773
   3   2.0000     -10.320257      -280.8285
   4   2.0000     -10.319433      -280.8060
   5   2.0000     -10.310358      -280.5591
   6   2.0000     -10.308430      -280.5067
   7   2.0000     -10.299241      -280.2566
   8   2.0000     -10.296142      -280.1723
   9   2.0000     -10.293869      -280.1104
  10   2.0000     -10.286183      -279.9013
  11   2.0000     -10.283645      -279.8322
  12   2.0000     -10.282719      -279.8070
  13   2.0000     -10.278776      -279.6997
  14   2.0000     -10.273964      -279.5688
  15   2.0000     -10.269641      -279.4512
  16   2.0000      -8.079497      -219.8543
  17   2.0000      -8.078853      -219.8368
  18   2.0000      -6.037784      -164.2965
  19   2.0000      -6.037522      -164.2893
  20   2.0000      -6.033673      -164.1846
  21   2.0000      -6.033425      -164.1778
  22   2.0000      -6.030451      -164.0969
  23   2.0000      -6.029518      -164.0715
  24   2.0000      -1.019711       -27.7477
  25   2.0000      -0.983321       -26.7575
  26   2.0000      -0.921784       -25.0830
  27   2.0000      -0.914273       -24.8786
  28   2.0000      -0.872453       -23.7406
  29   2.0000      -0.852869       -23.2077
  30   2.0000      -0.839188       -22.8355
  31   2.0000      -0.822300       -22.3759
  32   2.0000      -0.783627       -21.3236
  33   2.0000      -0.771854       -21.0032
  34   2.0000      -0.701935       -19.1006
  35   2.0000      -0.695965       -18.9382
  36   2.0000      -0.687385       -18.7047
  37   2.0000      -0.658268       -17.9124
  38   2.0000      -0.648541       -17.6477
  39   2.0000      -0.619087       -16.8462
  40   2.0000      -0.604043       -16.4368
  41   2.0000      -0.581066       -15.8116
  42   2.0000      -0.554175       -15.0799
  43   2.0000      -0.549071       -14.9410
  44   2.0000      -0.546393       -14.8681
  45   2.0000      -0.542536       -14.7631
  46   2.0000      -0.527672       -14.3587
  47   2.0000      -0.518962       -14.1217
  48   2.0000      -0.499757       -13.5991
  49   2.0000      -0.498677       -13.5697
  50   2.0000      -0.491284       -13.3685
  51   2.0000      -0.478360       -13.0168
  52   2.0000      -0.473799       -12.8927
  53   2.0000      -0.464017       -12.6266
  54   2.0000      -0.461291       -12.5524
  55   2.0000      -0.441805       -12.0221
  56   2.0000      -0.439188       -11.9509
  57   2.0000      -0.432826       -11.7778
  58   2.0000      -0.422528       -11.4976
  59   2.0000      -0.419845       -11.4246
  60   2.0000      -0.416183       -11.3249
  61   2.0000      -0.413195       -11.2436
  62   2.0000      -0.408932       -11.1276
  63   2.0000      -0.347590        -9.4584
  64   2.0000      -0.336013        -9.1434
  65   2.0000      -0.325036        -8.8447
  66   2.0000      -0.299391        -8.1468
  67   0.0000       0.038118         1.0372
  68   0.0000       0.068397         1.8612
  69   0.0000       0.110055         2.9947
  70   0.0000       0.115297         3.1374
  71   0.0000       0.128015         3.4835

MULLIKEN ATOMIC CHARGES
-----------------------
   0 S :    0.124439
   1 C :   -0.130188
   2 C :   -0.060982
   3 C :    0.042279
   4 C :   -0.143734
   5 H :   -0.010569
   6 C :    0.037783
   7 H :    0.040882
   8 H :    0.036785
   9 C :   -0.078941
  10 H :    0.028270
  11 H :    0.023293
  12 C :   -0.074649
  13 H :    0.031747
  14 H :    0.042102
  15 H :    0.040419
  16 S :    0.100205
  17 C :   -0.089290
  18 C :   -0.026929
  19 C :   -0.002193
  20 C :   -0.162107
  21 H :    0.015727
  22 C :    0.037719
  23 H :    0.018666
  24 H :    0.033112
  25 C :   -0.096846
  26 H :    0.025404
  27 H :    0.020300
  28 C :   -0.029188
  29 H :    0.021813
  30 H :    0.039667
  31 H :    0.054940
  32 H :    0.044859
  33 H :    0.045206
Sum of atomic charges:   -0.0000000

LOEWDIN ATOMIC CHARGES
----------------------
   0 S :    0.446454
   1 C :   -0.195101
   2 C :   -0.065759
   3 C :   -0.057119
   4 C :   -0.210487
   5 H :    0.026561
   6 C :   -0.036249
   7 H :    0.033969
   8 H :    0.039048
   9 C :   -0.049125
  10 H :    0.029595
  11 H :    0.016155
  12 C :   -0.077449
  13 H :    0.025663
  14 H :    0.032603
  15 H :    0.027868
  16 S :    0.385969
  17 C :   -0.160359
  18 C :   -0.057912
  19 C :   -0.061468
  20 C :   -0.199262
  21 H :    0.026084
  22 C :   -0.043917
  23 H :    0.023617
  24 H :    0.035596
  25 C :   -0.040519
  26 H :    0.023791
  27 H :    0.014692
  28 C :   -0.060880
  29 H :    0.015064
  30 H :    0.032044
  31 H :    0.035919
  32 H :    0.023745
  33 H :    0.021165

  Mayer bond orders larger than 0.100000
B(  0-S ,  1-C ) :   1.1593 B(  0-S ,  4-C ) :   1.1650 B(  1-C ,  2-C ) :   1.5849
B(  1-C , 32-H ) :   0.9762 B(  2-C ,  3-C ) :   1.2307 B(  2-C ,  6-C ) :   1.0151
B(  3-C ,  4-C ) :   1.5896 B(  3-C ,  5-H ) :   1.0131 B(  4-C , 20-C ) :   0.9881
B(  6-C ,  7-H ) :   0.9495 B(  6-C ,  8-H ) :   0.9459 B(  6-C ,  9-C ) :   1.0627
B(  9-C , 10-H ) :   0.9525 B(  9-C , 11-H ) :   0.9568 B(  9-C , 12-C ) :   1.0871
B( 12-C , 13-H ) :   0.9713 B( 12-C , 14-H ) :   0.9713 B( 12-C , 15-H ) :   0.9661
B( 16-S , 17-C ) :   1.1177 B( 16-S , 20-C ) :   1.1578 B( 17-C , 18-C ) :   1.6554
B( 17-C , 33-H ) :   0.9740 B( 18-C , 19-C ) :   1.1876 B( 18-C , 21-H ) :   0.9895
B( 19-C , 20-C ) :   1.5962 B( 19-C , 22-C ) :   1.0599 B( 22-C , 23-H ) :   0.9321
B( 22-C , 24-H ) :   0.9298 B( 22-C , 25-C ) :   1.0817 B( 25-C , 26-H ) :   0.9544
B( 25-C , 27-H ) :   0.9581 B( 25-C , 28-C ) :   1.0626 B( 28-C , 29-H ) :   0.9753
B( 28-C , 30-H ) :   0.9766 B( 28-C , 31-H ) :   0.9779

Dispersion correction           -0.015566789
FINAL SINGLE POINT ENERGY     -1339.871757579597

DIPOLE MOMENT
-------------
                                X             Y             Z
Electronic contribution:     -6.13341      12.58111      18.71273
Nuclear contribution   :      6.17872     -12.80568     -19.01880
                        -----------------------------------------
Total Dipole Moment    :      0.04531      -0.22457      -0.30606
                        -----------------------------------------
Magnitude (a.u.)       :      0.38231
Magnitude (Debye)      :      0.97174

Rotational constants in cm-1:     0.020403     0.009064     0.008066
Rotational constants in MHz :   611.662603   271.729497   241.798552

                             ****ORCA TERMINATED NORMALLY****
TOTAL RUN TIME: 0 days 0 hours 0 minutes 21 seconds 583 msec
