                         Program Version 4.2.1 -  RELEASE  -
|  1> ! wB97X-D3 SP def2-SVP
|  2> %pal
|  3> nprocs 24
|  4> end
|  5>
|  6> * xyz 0 1
|  7> S 	 -54.5178 	 21.7389 	 -95.0069
|  8> C 	 -52.8604 	 22.3025 	 -94.7635
|  9> C 	 -51.9766 	 21.4582 	 -95.3414
| 10> C 	 -52.5797 	 20.2463 	 -95.6861
| 11> C 	 -53.9674 	 20.1557 	 -95.5837
| 12> H 	 -52.0656 	 19.3632 	 -96.1179
| 13> C 	 -50.4918 	 21.6575 	 -95.4351
| 14> H 	 -50.2492 	 21.7567 	 -94.3993
| 15> H 	 -50.2548 	 22.6049 	 -95.8266
| 16> C 	 -49.6988 	 20.5746 	 -96.159
| 17> H 	 -50.2127 	 20.3223 	 -97.1282
| 18> H 	 -48.7303 	 20.9409 	 -96.4163
| 19> C 	 -49.4384 	 19.4063 	 -95.2052
| 20> H 	 -48.7294 	 18.5964 	 -95.5125
| 21> H 	 -48.987 	 19.7971 	 -94.3344
| 22> H 	 -50.3783 	 18.9602 	 -94.9455
| 23> S 	 -56.4363 	 19.7878 	 -96.674
| 24> C 	 -56.8367 	 18.3096 	 -97.4655
| 25> C 	 -55.977 	 17.2513 	 -97.1082
| 26> C 	 -54.9228 	 17.7689 	 -96.2535
| 27> C 	 -54.9459 	 19.138 	 -96.0755
| 28> H 	 -56.1259 	 16.2685 	 -97.5243
| 29> C 	 -53.904 	 16.8099 	 -95.7235
| 30> H 	 -54.354 	 15.9029 	 -95.3758
| 31> H 	 -53.3008 	 17.3078 	 -94.982
| 32> C 	 -52.9122 	 16.336 	 -96.7494
| 33> H 	 -52.3604 	 17.1802 	 -97.1671
| 34> H 	 -53.3693 	 15.842 	 -97.5923
| 35> C 	 -51.8197 	 15.3857 	 -96.1893
| 36> H 	 -52.2676 	 14.5066 	 -95.7747
| 37> H 	 -51.2483 	 15.7992 	 -95.3259
| 38> H 	 -51.0857 	 15.1561 	 -96.9939
| 39> H 	 -52.6157 	 23.2989 	 -94.4752
| 40> H 	 -57.5908 	 18.2298 	 -98.2072
| 41> *
| 42>
| 43>                          ****END OF INPUT****

CARTESIAN COORDINATES (ANGSTROEM)
---------------------------------
  S    -54.517800   21.738900  -95.006900
  C    -52.860400   22.302500  -94.763500
  C    -51.976600   21.458200  -95.341400
  C    -52.579700   20.246300  -95.686100
  C    -53.967400   20.155700  -95.583700
  H    -52.065600   19.363200  -96.117900
  C    -50.491800   21.657500  -95.435100
  H    -50.249200   21.756700  -94.399300
  H    -50.254800   22.604900  -95.826600
  C    -49.698800   20.574600  -96.159000
  H    -50.212700   20.322300  -97.128200
  H    -48.730300   20.940900  -96.416300
  C    -49.438400   19.406300  -95.205200
  H    -48.729400   18.596400  -95.512500
  H    -48.987000   19.797100  -94.334400
  H    -50.378300   18.960200  -94.945500
  S    -56.436300   19.787800  -96.674000
  C    -56.836700   18.309600  -97.465500
  C    -55.977000   17.251300  -97.108200
  C    -54.922800   17.768900  -96.253500
  C    -54.945900   19.138000  -96.075500
  H    -56.125900   16.268500  -97.524300
  C    -53.904000   16.809900  -95.723500
  H    -54.354000   15.902900  -95.375800
  H    -53.300800   17.307800  -94.982000
  C    -52.912200   16.336000  -96.749400
  H    -52.360400   17.180200  -97.167100
  H    -53.369300   15.842000  -97.592300
  C    -51.819700   15.385700  -96.189300
  H    -52.267600   14.506600  -95.774700
  H    -51.248300   15.799200  -95.325900
  H    -51.085700   15.156100  -96.993900
  H    -52.615700   23.298900  -94.475200
  H    -57.590800   18.229800  -98.207200

 Total Charge           Charge          ....    0
 Multiplicity           Mult            ....    1
 Number of Electrons    NEL             ....  134
 Basis Dimension        Dim             ....  322

ORBITAL ENERGIES
----------------

  NO   OCC          E(Eh)            E(eV)
   0   2.0000     -88.965393     -2420.8714
   1   2.0000     -88.963502     -2420.8199
   2   2.0000     -10.337945      -281.3098
   3   2.0000     -10.331667      -281.1390
   4   2.0000     -10.318037      -280.7681
   5   2.0000     -10.308526      -280.5092
   6   2.0000     -10.306515      -280.4545
   7   2.0000     -10.300059      -280.2788
   8   2.0000     -10.296259      -280.1755
   9   2.0000     -10.293269      -280.0941
  10   2.0000     -10.290725      -280.0249
  11   2.0000     -10.286128      -279.8998
  12   2.0000     -10.284811      -279.8639
  13   2.0000     -10.283052      -279.8161
  14   2.0000     -10.281246      -279.7669
  15   2.0000     -10.275502      -279.6106
  16   2.0000      -8.081184      -219.9002
  17   2.0000      -8.077672      -219.8046
  18   2.0000      -6.039638      -164.3469
  19   2.0000      -6.036324      -164.2567
  20   2.0000      -6.035588      -164.2367
  21   2.0000      -6.032306      -164.1474
  22   2.0000      -6.031892      -164.1361
  23   2.0000      -6.028280      -164.0378
  24   2.0000      -1.009142       -27.4602
  25   2.0000      -0.989134       -26.9157
  26   2.0000      -0.920393       -25.0452
  27   2.0000      -0.916420       -24.9371
  28   2.0000      -0.870775       -23.6950
  29   2.0000      -0.851465       -23.1696
  30   2.0000      -0.840424       -22.8691
  31   2.0000      -0.819505       -22.2999
  32   2.0000      -0.785572       -21.3765
  33   2.0000      -0.776031       -21.1169
  34   2.0000      -0.713097       -19.4044
  35   2.0000      -0.699576       -19.0364
  36   2.0000      -0.694350       -18.8942
  37   2.0000      -0.667978       -18.1766
  38   2.0000      -0.641737       -17.4625
  39   2.0000      -0.628523       -17.1030
  40   2.0000      -0.601013       -16.3544
  41   2.0000      -0.577202       -15.7065
  42   2.0000      -0.568202       -15.4616
  43   2.0000      -0.556755       -15.1501
  44   2.0000      -0.536958       -14.6114
  45   2.0000      -0.526639       -14.3306
  46   2.0000      -0.523896       -14.2559
  47   2.0000      -0.510516       -13.8918
  48   2.0000      -0.507191       -13.8014
  49   2.0000      -0.497408       -13.5352
  50   2.0000      -0.494061       -13.4441
  51   2.0000      -0.490140       -13.3374
  52   2.0000      -0.471122       -12.8199
  53   2.0000      -0.468478       -12.7479
  54   2.0000      -0.463615       -12.6156
  55   2.0000      -0.447495       -12.1770
  56   2.0000      -0.443989       -12.0816
  57   2.0000      -0.438031       -11.9194
  58   2.0000      -0.432138       -11.7591
  59   2.0000      -0.428332       -11.6555
  60   2.0000      -0.423727       -11.5302
  61   2.0000      -0.419517       -11.4157
  62   2.0000      -0.413132       -11.2419
  63   2.0000      -0.356089        -9.6897
  64   2.0000      -0.333706        -9.0806
  65   2.0000      -0.325279        -8.8513
  66   2.0000      -0.284036        -7.7290
  67   0.0000       0.022301         0.6068
  68   0.0000       0.070256         1.9118
  69   0.0000       0.101455         2.7607
  70   0.0000       0.120306         3.2737
  71   0.0000       0.122697         3.3388

MULLIKEN ATOMIC CHARGES
-----------------------
   0 S :    0.080191
   1 C :   -0.115340
   2 C :   -0.072694
   3 C :   -0.023010
   4 C :   -0.105186
   5 H :    0.012726
   6 C :    0.087362
   7 H :    0.028170
   8 H :    0.015028
   9 C :   -0.063864
  10 H :    0.046986
  11 H :    0.018857
  12 C :   -0.036708
  13 H :    0.039750
  14 H :    0.014580
  15 H :    0.021734
  16 S :    0.101747
  17 C :   -0.079813
  18 C :   -0.035164
  19 C :   -0.057580
  20 C :   -0.117034
  21 H :    0.025124
  22 C :    0.107272
  23 H :    0.017285
  24 H :    0.014867
  25 C :   -0.098805
  26 H :    0.024273
  27 H :    0.021509
  28 C :   -0.053966
  29 H :    0.021581
  30 H :    0.029879
  31 H :    0.046281
  32 H :    0.035663
  33 H :    0.048300
Sum of atomic charges:    0.0000000

LOEWDIN ATOMIC CHARGES
----------------------
   0 S :    0.381384
   1 C :   -0.186640
   2 C :   -0.062203
   3 C :   -0.080507
   4 C :   -0.175923
   5 H :    0.031810
   6 C :   -0.025665
   7 H :    0.036309
   8 H :    0.026950
   9 C :   -0.039511
  10 H :    0.031536
  11 H :    0.022907
  12 C :   -0.063487
  13 H :    0.030307
  14 H :    0.020388
  15 H :    0.016984
  16 S :    0.420612
  17 C :   -0.179799
  18 C :   -0.066105
  19 C :   -0.052983
  20 C :   -0.200155
  21 H :    0.032894
  22 C :   -0.029424
  23 H :    0.030694
  24 H :    0.028416
  25 C :   -0.039529
  26 H :    0.019394
  27 H :    0.018925
  28 C :   -0.067974
  29 H :    0.017529
  30 H :    0.026189
  31 H :    0.032685
  32 H :    0.022702
  33 H :    0.021290

  Mayer bond orders larger than 0.100000
B(  0-S ,  1-C ) :   1.1288 B(  0-S ,  4-C ) :   1.1500 B(  1-C ,  2-C ) :   1.6178
B(  1-C ,  4-C ) :   0.1068 B(  1-C , 32-H ) :   0.9735 B(  2-C ,  3-C ) :   1.2681
B(  2-C ,  6-C ) :   0.9930 B(  3-C ,  4-C ) :   1.5655 B(  3-C ,  5-H ) :   0.9710
B(  4-C , 20-C ) :   1.0376 B(  6-C ,  7-H ) :   0.9356 B(  6-C ,  8-H ) :   0.9282
B(  6-C ,  9-C ) :   1.0868 B(  9-C , 10-H ) :   0.9537 B(  9-C , 11-H ) :   0.9510
B(  9-C , 12-C ) :   1.0616 B( 12-C , 13-H ) :   0.9734 B( 12-C , 14-H ) :   0.9687
B( 12-C , 15-H ) :   0.9783 B( 16-S , 17-C ) :   1.1765 B( 16-S , 20-C ) :   1.1285
B( 17-C , 18-C ) :   1.5981 B( 17-C , 33-H ) :   0.9728 B( 18-C , 19-C ) :   1.2111
B( 18-C , 21-H ) :   0.9976 B( 19-C , 20-C ) :   1.6078 B( 19-C , 22-C ) :   1.0690
B( 22-C , 23-H ) :   0.9266 B( 22-C , 24-H ) :   0.9311 B( 22-C , 25-C ) :   1.0719
B( 25-C , 26-H ) :   0.9499 B( 25-C , 27-H ) :   0.9516 B( 25-C , 28-C ) :   1.0837
B( 28-C , 29-H ) :   0.9730 B( 28-C , 30-H ) :   0.9736 B( 28-C , 31-H ) :   0.9744

Dispersion correction           -0.014727850
FINAL SINGLE POINT ENERGY     -1339.870914112814

DIPOLE MOMENT
-------------
                                X             Y             Z
Electronic contribution:    -27.91275      16.86102       0.71830
Nuclear contribution   :     28.55821     -17.19592      -0.99378
                        -----------------------------------------
Total Dipole Moment    :      0.64546      -0.33490      -0.27548
                        -----------------------------------------
Magnitude (a.u.)       :      0.77760
Magnitude (Debye)      :      1.97651

Rotational constants in cm-1:     0.015970     0.011211     0.006963
Rotational constants in MHz :   478.775659   336.093114   208.749378

                             ****ORCA TERMINATED NORMALLY****
TOTAL RUN TIME: 0 days 0 hours 0 minutes 22 seconds 664 msec
