                         Program Version 4.2.1 -  RELEASE  -
|  1> ! wB97X-D3 SP def2-SVP
|  2> %pal
|  3> nprocs 24
|  4> end
|  5>
|  6> * xyz 0 1
|  7> S 	 -101.594 	 26.0003 	 -116.583
|  8> C 	 -103.266 	 26.3672 	 -116.215
|  9> C 	 -103.773 	 27.2378 	 -117.203
| 10> C 	 -102.787 	 27.6236 	 -118.221
| 11> C 	 -101.545 	 27.0563 	 -117.959
| 12> H 	 -103.095 	 28.1301 	 -119.112
| 13> C 	 -105.297 	 27.6811 	 -117.221
| 14> H 	 -105.842 	 26.8862 	 -116.766
| 15> H 	 -105.652 	 27.7521 	 -118.302
| 16> C 	 -105.476 	 29.0417 	 -116.527
| 17> H 	 -105.288 	 28.8898 	 -115.461
| 18> H 	 -104.773 	 29.7368 	 -116.871
| 19> C 	 -106.937 	 29.7298 	 -116.608
| 20> H 	 -107.605 	 29.2247 	 -115.868
| 21> H 	 -106.803 	 30.744 	 -116.296
| 22> H 	 -107.41 	 29.835 	 -117.681
| 23> S 	 -98.8601 	 26.7651 	 -118.103
| 24> C 	 -98.0798 	 26.8846 	 -119.641
| 25> C 	 -98.8975 	 26.9913 	 -120.744
| 26> C 	 -100.268 	 27.0405 	 -120.306
| 27> C 	 -100.384 	 27.0469 	 -118.891
| 28> H 	 -98.4786 	 26.9071 	 -121.75
| 29> C 	 -101.445 	 27.0287 	 -121.358
| 30> H 	 -101.134 	 27.081 	 -122.374
| 31> H 	 -101.951 	 28.0222 	 -120.982
| 32> C 	 -102.36 	 25.8583 	 -121.352
| 33> H 	 -102.339 	 25.4085 	 -120.329
| 34> H 	 -101.826 	 25.0723 	 -121.931
| 35> C 	 -103.75 	 26.2205 	 -121.995
| 36> H 	 -103.629 	 26.5422 	 -123.06
| 37> H 	 -104.318 	 26.972 	 -121.469
| 38> H 	 -104.325 	 25.2804 	 -121.995
| 39> H 	 -103.909 	 25.8862 	 -115.536
| 40> H 	 -97.0248 	 26.8247 	 -119.701
| 41> *
| 42>
| 43>                          ****END OF INPUT****

CARTESIAN COORDINATES (ANGSTROEM)
---------------------------------
  S    -101.594000   26.000300  -116.583000
  C    -103.266000   26.367200  -116.215000
  C    -103.773000   27.237800  -117.203000
  C    -102.787000   27.623600  -118.221000
  C    -101.545000   27.056300  -117.959000
  H    -103.095000   28.130100  -119.112000
  C    -105.297000   27.681100  -117.221000
  H    -105.842000   26.886200  -116.766000
  H    -105.652000   27.752100  -118.302000
  C    -105.476000   29.041700  -116.527000
  H    -105.288000   28.889800  -115.461000
  H    -104.773000   29.736800  -116.871000
  C    -106.937000   29.729800  -116.608000
  H    -107.605000   29.224700  -115.868000
  H    -106.803000   30.744000  -116.296000
  H    -107.410000   29.835000  -117.681000
  S    -98.860100   26.765100  -118.103000
  C    -98.079800   26.884600  -119.641000
  C    -98.897500   26.991300  -120.744000
  C    -100.268000   27.040500  -120.306000
  C    -100.384000   27.046900  -118.891000
  H    -98.478600   26.907100  -121.750000
  C    -101.445000   27.028700  -121.358000
  H    -101.134000   27.081000  -122.374000
  H    -101.951000   28.022200  -120.982000
  C    -102.360000   25.858300  -121.352000
  H    -102.339000   25.408500  -120.329000
  H    -101.826000   25.072300  -121.931000
  C    -103.750000   26.220500  -121.995000
  H    -103.629000   26.542200  -123.060000
  H    -104.318000   26.972000  -121.469000
  H    -104.325000   25.280400  -121.995000
  H    -103.909000   25.886200  -115.536000
  H    -97.024800   26.824700  -119.701000

 Total Charge           Charge          ....    0
 Multiplicity           Mult            ....    1
 Number of Electrons    NEL             ....  134
 Basis Dimension        Dim             ....  322

ORBITAL ENERGIES
----------------

  NO   OCC          E(Eh)            E(eV)
   0   2.0000     -88.969369     -2420.9796
   1   2.0000     -88.968322     -2420.9511
   2   2.0000     -10.334660      -281.2204
   3   2.0000     -10.330994      -281.1206
   4   2.0000     -10.314124      -280.6616
   5   2.0000     -10.314061      -280.6599
   6   2.0000     -10.312764      -280.6246
   7   2.0000     -10.309779      -280.5433
   8   2.0000     -10.300190      -280.2824
   9   2.0000     -10.297784      -280.2170
  10   2.0000     -10.297388      -280.2062
  11   2.0000     -10.296936      -280.1939
  12   2.0000     -10.291608      -280.0489
  13   2.0000     -10.288601      -279.9671
  14   2.0000     -10.287619      -279.9404
  15   2.0000     -10.287074      -279.9255
  16   2.0000      -8.083964      -219.9758
  17   2.0000      -8.083806      -219.9715
  18   2.0000      -6.042619      -164.4280
  19   2.0000      -6.042099      -164.4139
  20   2.0000      -6.038412      -164.3135
  21   2.0000      -6.038395      -164.3131
  22   2.0000      -6.034660      -164.2115
  23   2.0000      -6.034585      -164.2094
  24   2.0000      -1.006041       -27.3758
  25   2.0000      -0.981281       -26.7020
  26   2.0000      -0.908874       -24.7317
  27   2.0000      -0.899357       -24.4728
  28   2.0000      -0.864777       -23.5318
  29   2.0000      -0.849163       -23.1069
  30   2.0000      -0.837995       -22.8030
  31   2.0000      -0.811814       -22.0906
  32   2.0000      -0.780305       -21.2332
  33   2.0000      -0.769596       -20.9418
  34   2.0000      -0.704741       -19.1770
  35   2.0000      -0.695766       -18.9328
  36   2.0000      -0.685853       -18.6630
  37   2.0000      -0.665480       -18.1086
  38   2.0000      -0.637595       -17.3498
  39   2.0000      -0.620602       -16.8874
  40   2.0000      -0.595551       -16.2058
  41   2.0000      -0.565684       -15.3930
  42   2.0000      -0.562116       -15.2960
  43   2.0000      -0.556153       -15.1337
  44   2.0000      -0.519879       -14.1466
  45   2.0000      -0.519405       -14.1337
  46   2.0000      -0.510758       -13.8984
  47   2.0000      -0.503905       -13.7119
  48   2.0000      -0.501077       -13.6350
  49   2.0000      -0.498905       -13.5759
  50   2.0000      -0.493619       -13.4321
  51   2.0000      -0.487890       -13.2762
  52   2.0000      -0.470284       -12.7971
  53   2.0000      -0.465388       -12.6639
  54   2.0000      -0.459385       -12.5005
  55   2.0000      -0.456036       -12.4094
  56   2.0000      -0.444501       -12.0955
  57   2.0000      -0.439279       -11.9534
  58   2.0000      -0.435196       -11.8423
  59   2.0000      -0.424225       -11.5438
  60   2.0000      -0.417476       -11.3601
  61   2.0000      -0.408829       -11.1248
  62   2.0000      -0.403542       -10.9809
  63   2.0000      -0.354609        -9.6494
  64   2.0000      -0.334887        -9.1127
  65   2.0000      -0.327967        -8.9244
  66   2.0000      -0.283903        -7.7254
  67   0.0000       0.024543         0.6679
  68   0.0000       0.074047         2.0149
  69   0.0000       0.096020         2.6128
  70   0.0000       0.113921         3.1000
  71   0.0000       0.137592         3.7441

MULLIKEN ATOMIC CHARGES
-----------------------
   0 S :    0.103973
   1 C :   -0.089623
   2 C :   -0.144752
   3 C :    0.022727
   4 C :   -0.081415
   5 H :    0.000356
   6 C :    0.062012
   7 H :    0.018175
   8 H :    0.032694
   9 C :   -0.063997
  10 H :    0.029607
  11 H :    0.024988
  12 C :   -0.087725
  13 H :    0.046814
  14 H :    0.032742
  15 H :    0.048850
  16 S :    0.108006
  17 C :   -0.076627
  18 C :   -0.027965
  19 C :   -0.056509
  20 C :   -0.160929
  21 H :    0.029321
  22 C :    0.026718
  23 H :    0.014235
  24 H :    0.052379
  25 C :   -0.078558
  26 H :    0.048691
  27 H :    0.027278
  28 C :   -0.052042
  29 H :    0.039679
  30 H :    0.034526
  31 H :    0.042031
  32 H :    0.034729
  33 H :    0.039610
Sum of atomic charges:   -0.0000000

LOEWDIN ATOMIC CHARGES
----------------------
   0 S :    0.410063
   1 C :   -0.205424
   2 C :   -0.048371
   3 C :   -0.070901
   4 C :   -0.195460
   5 H :    0.025674
   6 C :   -0.029077
   7 H :    0.022092
   8 H :    0.033215
   9 C :   -0.036615
  10 H :    0.027413
  11 H :    0.016812
  12 C :   -0.078408
  13 H :    0.028758
  14 H :    0.021400
  15 H :    0.035215
  16 S :    0.420692
  17 C :   -0.179252
  18 C :   -0.073721
  19 C :   -0.049348
  20 C :   -0.206770
  21 H :    0.039520
  22 C :   -0.037763
  23 H :    0.023608
  24 H :    0.040291
  25 C :   -0.052097
  26 H :    0.031422
  27 H :    0.028545
  28 C :   -0.062784
  29 H :    0.031162
  30 H :    0.021044
  31 H :    0.031172
  32 H :    0.021740
  33 H :    0.016153

  Mayer bond orders larger than 0.100000
B(  0-S ,  1-C ) :   1.1242 B(  0-S ,  4-C ) :   1.1632 B(  1-C ,  2-C ) :   1.6138
B(  1-C , 32-H ) :   0.9733 B(  2-C ,  3-C ) :   1.2494 B(  2-C ,  6-C ) :   1.0186
B(  3-C ,  4-C ) :   1.5522 B(  3-C ,  5-H ) :   0.9995 B(  4-C , 20-C ) :   1.0391
B(  6-C ,  7-H ) :   0.9462 B(  6-C ,  8-H ) :   0.9475 B(  6-C ,  9-C ) :   1.0565
B(  9-C , 10-H ) :   0.9557 B(  9-C , 11-H ) :   0.9639 B(  9-C , 12-C ) :   1.0685
B( 12-C , 13-H ) :   0.9785 B( 12-C , 14-H ) :   0.9764 B( 12-C , 15-H ) :   0.9754
B( 16-S , 17-C ) :   1.1720 B( 16-S , 20-C ) :   1.1473 B( 17-C , 18-C ) :   1.6063
B( 17-C , 33-H ) :   0.9693 B( 18-C , 19-C ) :   1.2516 B( 18-C , 21-H ) :   0.9914
B( 19-C , 20-C ) :   1.5731 B( 19-C , 22-C ) :   1.0074 B( 22-C , 23-H ) :   0.9436
B( 22-C , 24-H ) :   0.9460 B( 22-C , 25-C ) :   1.0509 B( 25-C , 26-H ) :   0.9619
B( 25-C , 27-H ) :   0.9510 B( 25-C , 28-C ) :   1.0616 B( 28-C , 29-H ) :   0.9730
B( 28-C , 30-H ) :   0.9799 B( 28-C , 31-H ) :   0.9748

Dispersion correction           -0.014479317
FINAL SINGLE POINT ENERGY     -1339.857620394595

DIPOLE MOMENT
-------------
                                X             Y             Z
Electronic contribution:     27.89655      -7.67935      11.19253
Nuclear contribution   :    -28.27811       7.62565     -11.68868
                        -----------------------------------------
Total Dipole Moment    :     -0.38156      -0.05370      -0.49615
                        -----------------------------------------
Magnitude (a.u.)       :      0.62820
Magnitude (Debye)      :      1.59675

Rotational constants in cm-1:     0.019254     0.008350     0.006598
Rotational constants in MHz :   577.221203   250.332189   197.806750

                             ****ORCA TERMINATED NORMALLY****
TOTAL RUN TIME: 0 days 0 hours 0 minutes 21 seconds 587 msec
