                         Program Version 4.2.1 -  RELEASE  -
|  1> ! wB97X-D3 SP def2-SVP
|  2> %pal
|  3> nprocs 24
|  4> end
|  5>
|  6> * xyz 0 1
|  7> S 	 45.3497 	 -12.0677 	 -124.656
|  8> C 	 43.9396 	 -11.2942 	 -125.194
|  9> C 	 43.0204 	 -12.1841 	 -125.781
| 10> C 	 43.4526 	 -13.5168 	 -125.59
| 11> C 	 44.7278 	 -13.6739 	 -125.147
| 12> H 	 42.7141 	 -14.2503 	 -125.781
| 13> C 	 41.7098 	 -11.8543 	 -126.44
| 14> H 	 41.5199 	 -10.8376 	 -126.206
| 15> H 	 40.9823 	 -12.3569 	 -125.881
| 16> C 	 41.5984 	 -11.9121 	 -127.917
| 17> H 	 41.9973 	 -12.7946 	 -128.341
| 18> H 	 40.5771 	 -11.9042 	 -128.161
| 19> C 	 42.1461 	 -10.6764 	 -128.639
| 20> H 	 43.1848 	 -10.6192 	 -128.367
| 21> H 	 42.2517 	 -10.8338 	 -129.678
| 22> H 	 41.6972 	 -9.72517 	 -128.326
| 23> S 	 46.6018 	 -14.6653 	 -123.477
| 24> C 	 47.0663 	 -16.4028 	 -123.411
| 25> C 	 46.3292 	 -17.0647 	 -124.38
| 26> C 	 45.3228 	 -16.2944 	 -125.09
| 27> C 	 45.4232 	 -14.9246 	 -124.688
| 28> H 	 46.4237 	 -18.1233 	 -124.544
| 29> C 	 44.4855 	 -16.8229 	 -126.262
| 30> H 	 43.465 	 -16.8688 	 -125.886
| 31> H 	 44.9173 	 -17.7335 	 -126.526
| 32> C 	 44.5863 	 -16.0226 	 -127.591
| 33> H 	 44.5261 	 -14.9245 	 -127.367
| 34> H 	 43.736 	 -16.2956 	 -128.236
| 35> C 	 45.8152 	 -16.293 	 -128.374
| 36> H 	 45.852 	 -15.9183 	 -129.451
| 37> H 	 45.9805 	 -17.3278 	 -128.619
| 38> H 	 46.813 	 -15.9299 	 -127.945
| 39> H 	 43.8107 	 -10.2676 	 -124.988
| 40> H 	 47.9513 	 -16.8284 	 -123.008
| 41> *
| 42>
| 43>                          ****END OF INPUT****

CARTESIAN COORDINATES (ANGSTROEM)
---------------------------------
  S     45.349700  -12.067700  -124.656000
  C     43.939600  -11.294200  -125.194000
  C     43.020400  -12.184100  -125.781000
  C     43.452600  -13.516800  -125.590000
  C     44.727800  -13.673900  -125.147000
  H     42.714100  -14.250300  -125.781000
  C     41.709800  -11.854300  -126.440000
  H     41.519900  -10.837600  -126.206000
  H     40.982300  -12.356900  -125.881000
  C     41.598400  -11.912100  -127.917000
  H     41.997300  -12.794600  -128.341000
  H     40.577100  -11.904200  -128.161000
  C     42.146100  -10.676400  -128.639000
  H     43.184800  -10.619200  -128.367000
  H     42.251700  -10.833800  -129.678000
  H     41.697200   -9.725170  -128.326000
  S     46.601800  -14.665300  -123.477000
  C     47.066300  -16.402800  -123.411000
  C     46.329200  -17.064700  -124.380000
  C     45.322800  -16.294400  -125.090000
  C     45.423200  -14.924600  -124.688000
  H     46.423700  -18.123300  -124.544000
  C     44.485500  -16.822900  -126.262000
  H     43.465000  -16.868800  -125.886000
  H     44.917300  -17.733500  -126.526000
  C     44.586300  -16.022600  -127.591000
  H     44.526100  -14.924500  -127.367000
  H     43.736000  -16.295600  -128.236000
  C     45.815200  -16.293000  -128.374000
  H     45.852000  -15.918300  -129.451000
  H     45.980500  -17.327800  -128.619000
  H     46.813000  -15.929900  -127.945000
  H     43.810700  -10.267600  -124.988000
  H     47.951300  -16.828400  -123.008000

 Total Charge           Charge          ....    0
 Multiplicity           Mult            ....    1
 Number of Electrons    NEL             ....  134
 Basis Dimension        Dim             ....  322

ORBITAL ENERGIES
----------------

  NO   OCC          E(Eh)            E(eV)
   0   2.0000     -88.967545     -2420.9300
   1   2.0000     -88.965373     -2420.8709
   2   2.0000     -10.334629      -281.2195
   3   2.0000     -10.333674      -281.1936
   4   2.0000     -10.316320      -280.7213
   5   2.0000     -10.313989      -280.6579
   6   2.0000     -10.307463      -280.4803
   7   2.0000     -10.299893      -280.2743
   8   2.0000     -10.296988      -280.1953
   9   2.0000     -10.291292      -280.0403
  10   2.0000     -10.290491      -280.0185
  11   2.0000     -10.285847      -279.8921
  12   2.0000     -10.281912      -279.7851
  13   2.0000     -10.278447      -279.6907
  14   2.0000     -10.277056      -279.6529
  15   2.0000     -10.271577      -279.5038
  16   2.0000      -8.082762      -219.9431
  17   2.0000      -8.079951      -219.8666
  18   2.0000      -6.041321      -164.3927
  19   2.0000      -6.038535      -164.3169
  20   2.0000      -6.037108      -164.2781
  21   2.0000      -6.034391      -164.2041
  22   2.0000      -6.033535      -164.1808
  23   2.0000      -6.030715      -164.1041
  24   2.0000      -1.007762       -27.4226
  25   2.0000      -0.982291       -26.7295
  26   2.0000      -0.923290       -25.1240
  27   2.0000      -0.908743       -24.7282
  28   2.0000      -0.868278       -23.6270
  29   2.0000      -0.858414       -23.3586
  30   2.0000      -0.843410       -22.9504
  31   2.0000      -0.819183       -22.2911
  32   2.0000      -0.784041       -21.3348
  33   2.0000      -0.771620       -20.9969
  34   2.0000      -0.711872       -19.3710
  35   2.0000      -0.704275       -19.1643
  36   2.0000      -0.686363       -18.6769
  37   2.0000      -0.664554       -18.0834
  38   2.0000      -0.644186       -17.5292
  39   2.0000      -0.634699       -17.2710
  40   2.0000      -0.588830       -16.0229
  41   2.0000      -0.572991       -15.5919
  42   2.0000      -0.565082       -15.3767
  43   2.0000      -0.561103       -15.2684
  44   2.0000      -0.544949       -14.8288
  45   2.0000      -0.541888       -14.7455
  46   2.0000      -0.516727       -14.0609
  47   2.0000      -0.505962       -13.7679
  48   2.0000      -0.502423       -13.6716
  49   2.0000      -0.496496       -13.5103
  50   2.0000      -0.486826       -13.2472
  51   2.0000      -0.477817       -13.0020
  52   2.0000      -0.472354       -12.8534
  53   2.0000      -0.466957       -12.7065
  54   2.0000      -0.459056       -12.4916
  55   2.0000      -0.453752       -12.3472
  56   2.0000      -0.450035       -12.2461
  57   2.0000      -0.443908       -12.0794
  58   2.0000      -0.429182       -11.6786
  59   2.0000      -0.425835       -11.5876
  60   2.0000      -0.414762       -11.2862
  61   2.0000      -0.411761       -11.2046
  62   2.0000      -0.406583       -11.0637
  63   2.0000      -0.357941        -9.7401
  64   2.0000      -0.336383        -9.1534
  65   2.0000      -0.323544        -8.8041
  66   2.0000      -0.283084        -7.7031
  67   0.0000       0.017533         0.4771
  68   0.0000       0.081735         2.2241
  69   0.0000       0.098407         2.6778
  70   0.0000       0.119374         3.2483
  71   0.0000       0.133458         3.6316

MULLIKEN ATOMIC CHARGES
-----------------------
   0 S :    0.098015
   1 C :   -0.100947
   2 C :   -0.146301
   3 C :    0.020326
   4 C :   -0.087859
   5 H :   -0.000446
   6 C :    0.127041
   7 H :   -0.015364
   8 H :    0.015751
   9 C :   -0.007312
  10 H :    0.012622
  11 H :    0.013517
  12 C :   -0.041852
  13 H :    0.014983
  14 H :    0.025442
  15 H :    0.035711
  16 S :    0.083116
  17 C :   -0.069813
  18 C :   -0.041593
  19 C :   -0.087409
  20 C :   -0.132822
  21 H :    0.017265
  22 C :    0.117447
  23 H :    0.045124
  24 H :   -0.003746
  25 C :   -0.074695
  26 H :    0.061578
  27 H :    0.028208
  28 C :   -0.093736
  29 H :    0.033737
  30 H :    0.013121
  31 H :    0.048056
  32 H :    0.038371
  33 H :    0.054462
Sum of atomic charges:    0.0000000

LOEWDIN ATOMIC CHARGES
----------------------
   0 S :    0.411162
   1 C :   -0.197781
   2 C :   -0.062661
   3 C :   -0.056757
   4 C :   -0.185390
   5 H :    0.027079
   6 C :   -0.028905
   7 H :    0.028024
   8 H :    0.027818
   9 C :   -0.030949
  10 H :    0.018804
  11 H :    0.021486
  12 C :   -0.061740
  13 H :    0.023835
  14 H :    0.023761
  15 H :    0.026783
  16 S :    0.404021
  17 C :   -0.185259
  18 C :   -0.061282
  19 C :   -0.066318
  20 C :   -0.196575
  21 H :    0.027598
  22 C :   -0.022145
  23 H :    0.034987
  24 H :    0.021314
  25 C :   -0.050080
  26 H :    0.033496
  27 H :    0.028321
  28 C :   -0.084264
  29 H :    0.034630
  30 H :    0.016455
  31 H :    0.033750
  32 H :    0.018958
  33 H :    0.027825

  Mayer bond orders larger than 0.100000
B(  0-S ,  1-C ) :   1.1721 B(  0-S ,  4-C ) :   1.1374 B(  1-C ,  2-C ) :   1.5641
B(  1-C , 32-H ) :   0.9734 B(  2-C ,  3-C ) :   1.2917 B(  2-C ,  6-C ) :   1.0271
B(  3-C ,  4-C ) :   1.5340 B(  3-C ,  5-H ) :   0.9944 B(  4-C , 20-C ) :   1.0517
B(  6-C ,  7-H ) :   0.9229 B(  6-C ,  8-H ) :   0.9306 B(  6-C ,  9-C ) :   1.0703
B(  9-C , 10-H ) :   0.9539 B(  9-C , 11-H ) :   0.9464 B(  9-C , 12-C ) :   1.0886
B( 12-C , 13-H ) :   0.9736 B( 12-C , 14-H ) :   0.9701 B( 12-C , 15-H ) :   0.9722
B( 16-S , 17-C ) :   1.1246 B( 16-S , 20-C ) :   1.1737 B( 17-C , 18-C ) :   1.6129
B( 17-C , 33-H ) :   0.9693 B( 18-C , 19-C ) :   1.2756 B( 18-C , 21-H ) :   0.9786
B( 19-C , 20-C ) :   1.5344 B( 19-C , 22-C ) :   1.0324 B( 22-C , 23-H ) :   0.9284
B( 22-C , 24-H ) :   0.9356 B( 22-C , 25-C ) :   1.0686 B( 25-C , 26-H ) :   0.9483
B( 25-C , 27-H ) :   0.9484 B( 25-C , 28-C ) :   1.0860 B( 28-C , 29-H ) :   0.9701
B( 28-C , 30-H ) :   0.9680 B( 28-C , 31-H ) :   0.9743

Dispersion correction           -0.014836326
FINAL SINGLE POINT ENERGY     -1339.855946556031

DIPOLE MOMENT
-------------
                                X             Y             Z
Electronic contribution:     14.18877       1.60053      24.38986
Nuclear contribution   :    -14.68643      -1.73597     -24.84585
                        -----------------------------------------
Total Dipole Moment    :     -0.49766      -0.13544      -0.45599
                        -----------------------------------------
Magnitude (a.u.)       :      0.68843
Magnitude (Debye)      :      1.74984

Rotational constants in cm-1:     0.020854     0.009189     0.007055
Rotational constants in MHz :   625.191296   275.474147   211.501681

                             ****ORCA TERMINATED NORMALLY****
TOTAL RUN TIME: 0 days 0 hours 0 minutes 22 seconds 359 msec
