                         Program Version 4.2.1 -  RELEASE  -
|  1> ! wB97X-D3 SP def2-SVP
|  2> %pal
|  3> nprocs 24
|  4> end
|  5>
|  6> * xyz 0 1
|  7> S 	 -54.0063 	 18.1067 	 25.1117
|  8> C 	 -54.1605 	 16.6535 	 26.066
|  9> C 	 -55.4754 	 16.5266 	 26.4875
| 10> C 	 -56.296 	 17.5315 	 25.8379
| 11> C 	 -55.6417 	 18.4051 	 24.9685
| 12> H 	 -57.3076 	 17.5478 	 25.8242
| 13> C 	 -55.9558 	 15.4192 	 27.3972
| 14> H 	 -56.5109 	 15.9629 	 28.2115
| 15> H 	 -55.1581 	 14.9346 	 27.9667
| 16> C 	 -56.87 	 14.4746 	 26.7278
| 17> H 	 -57.5609 	 15.1177 	 26.142
| 18> H 	 -56.329 	 13.937 	 25.9377
| 19> C 	 -57.7069 	 13.648 	 27.6225
| 20> H 	 -58.5829 	 13.2395 	 27.0694
| 21> H 	 -57.2022 	 12.8002 	 28.0519
| 22> H 	 -58.1735 	 14.1386 	 28.4539
| 23> S 	 -55.4231 	 21.1124 	 24.4874
| 24> C 	 -56.7993 	 21.9162 	 23.7741
| 25> C 	 -57.7175 	 21.0662 	 23.2721
| 26> C 	 -57.405 	 19.7212 	 23.5419
| 27> C 	 -56.2517 	 19.5478 	 24.3001
| 28> H 	 -58.6059 	 21.3684 	 22.689
| 29> C 	 -58.3275 	 18.5432 	 23.1625
| 30> H 	 -59.3445 	 18.934 	 22.9648
| 31> H 	 -58.4875 	 17.8522 	 24.0028
| 32> C 	 -57.9412 	 17.6715 	 21.9653
| 33> H 	 -57.9372 	 18.2464 	 20.9641
| 34> H 	 -58.7382 	 16.8799 	 21.7538
| 35> C 	 -56.7008 	 16.7929 	 22.2671
| 36> H 	 -56.5702 	 16.1269 	 21.4213
| 37> H 	 -56.8405 	 16.2492 	 23.1957
| 38> H 	 -55.7712 	 17.4699 	 22.239
| 39> H 	 -53.3296 	 16.0468 	 26.4335
| 40> H 	 -56.9124 	 23.0231 	 23.6623
| 41> *
| 42>
| 43>                          ****END OF INPUT****

CARTESIAN COORDINATES (ANGSTROEM)
---------------------------------
  S    -54.006300   18.106700   25.111700
  C    -54.160500   16.653500   26.066000
  C    -55.475400   16.526600   26.487500
  C    -56.296000   17.531500   25.837900
  C    -55.641700   18.405100   24.968500
  H    -57.307600   17.547800   25.824200
  C    -55.955800   15.419200   27.397200
  H    -56.510900   15.962900   28.211500
  H    -55.158100   14.934600   27.966700
  C    -56.870000   14.474600   26.727800
  H    -57.560900   15.117700   26.142000
  H    -56.329000   13.937000   25.937700
  C    -57.706900   13.648000   27.622500
  H    -58.582900   13.239500   27.069400
  H    -57.202200   12.800200   28.051900
  H    -58.173500   14.138600   28.453900
  S    -55.423100   21.112400   24.487400
  C    -56.799300   21.916200   23.774100
  C    -57.717500   21.066200   23.272100
  C    -57.405000   19.721200   23.541900
  C    -56.251700   19.547800   24.300100
  H    -58.605900   21.368400   22.689000
  C    -58.327500   18.543200   23.162500
  H    -59.344500   18.934000   22.964800
  H    -58.487500   17.852200   24.002800
  C    -57.941200   17.671500   21.965300
  H    -57.937200   18.246400   20.964100
  H    -58.738200   16.879900   21.753800
  C    -56.700800   16.792900   22.267100
  H    -56.570200   16.126900   21.421300
  H    -56.840500   16.249200   23.195700
  H    -55.771200   17.469900   22.239000
  H    -53.329600   16.046800   26.433500
  H    -56.912400   23.023100   23.662300

 Total Charge           Charge          ....    0
 Multiplicity           Mult            ....    1
 Number of Electrons    NEL             ....  134
 Basis Dimension        Dim             ....  322

ORBITAL ENERGIES
----------------

  NO   OCC          E(Eh)            E(eV)
   0   2.0000     -88.967116     -2420.9183
   1   2.0000     -88.963872     -2420.8300
   2   2.0000     -10.331873      -281.1445
   3   2.0000     -10.327033      -281.0129
   4   2.0000     -10.319226      -280.8004
   5   2.0000     -10.314082      -280.6605
   6   2.0000     -10.305552      -280.4283
   7   2.0000     -10.304521      -280.4003
   8   2.0000     -10.295884      -280.1652
   9   2.0000     -10.294722      -280.1336
  10   2.0000     -10.293405      -280.0978
  11   2.0000     -10.292768      -280.0805
  12   2.0000     -10.286715      -279.9157
  13   2.0000     -10.284235      -279.8483
  14   2.0000     -10.275435      -279.6088
  15   2.0000     -10.275299      -279.6051
  16   2.0000      -8.081712      -219.9146
  17   2.0000      -8.080081      -219.8702
  18   2.0000      -6.040285      -164.3645
  19   2.0000      -6.038451      -164.3146
  20   2.0000      -6.036340      -164.2572
  21   2.0000      -6.034245      -164.2002
  22   2.0000      -6.032300      -164.1472
  23   2.0000      -6.031012      -164.1122
  24   2.0000      -1.014014       -27.5927
  25   2.0000      -0.990466       -26.9519
  26   2.0000      -0.925895       -25.1949
  27   2.0000      -0.902611       -24.5613
  28   2.0000      -0.875813       -23.8321
  29   2.0000      -0.848564       -23.0906
  30   2.0000      -0.845725       -23.0134
  31   2.0000      -0.815741       -22.1974
  32   2.0000      -0.786643       -21.4056
  33   2.0000      -0.773515       -21.0484
  34   2.0000      -0.709339       -19.3021
  35   2.0000      -0.696686       -18.9578
  36   2.0000      -0.682236       -18.5646
  37   2.0000      -0.661279       -17.9943
  38   2.0000      -0.646209       -17.5842
  39   2.0000      -0.623577       -16.9684
  40   2.0000      -0.595626       -16.2078
  41   2.0000      -0.573764       -15.6129
  42   2.0000      -0.564758       -15.3678
  43   2.0000      -0.546480       -14.8705
  44   2.0000      -0.539972       -14.6934
  45   2.0000      -0.529060       -14.3965
  46   2.0000      -0.518625       -14.1125
  47   2.0000      -0.508849       -13.8465
  48   2.0000      -0.507457       -13.8086
  49   2.0000      -0.505583       -13.7576
  50   2.0000      -0.496572       -13.5124
  51   2.0000      -0.477690       -12.9986
  52   2.0000      -0.473177       -12.8758
  53   2.0000      -0.469623       -12.7791
  54   2.0000      -0.462546       -12.5865
  55   2.0000      -0.450751       -12.2656
  56   2.0000      -0.444869       -12.1055
  57   2.0000      -0.434681       -11.8283
  58   2.0000      -0.431208       -11.7338
  59   2.0000      -0.421324       -11.4648
  60   2.0000      -0.414765       -11.2863
  61   2.0000      -0.408236       -11.1087
  62   2.0000      -0.398840       -10.8530
  63   2.0000      -0.353522        -9.6198
  64   2.0000      -0.336005        -9.1432
  65   2.0000      -0.326506        -8.8847
  66   2.0000      -0.290560        -7.9065
  67   0.0000       0.028450         0.7742
  68   0.0000       0.072139         1.9630
  69   0.0000       0.108259         2.9459
  70   0.0000       0.116832         3.1792
  71   0.0000       0.128248         3.4898

MULLIKEN ATOMIC CHARGES
-----------------------
   0 S :    0.104236
   1 C :   -0.127258
   2 C :   -0.087232
   3 C :    0.052316
   4 C :   -0.126835
   5 H :   -0.043412
   6 C :    0.070206
   7 H :    0.029923
   8 H :    0.018184
   9 C :   -0.066533
  10 H :    0.017987
  11 H :    0.030466
  12 C :   -0.019677
  13 H :    0.030748
  14 H :    0.026216
  15 H :    0.019933
  16 S :    0.104895
  17 C :   -0.093863
  18 C :   -0.037278
  19 C :   -0.016677
  20 C :   -0.156425
  21 H :    0.028883
  22 C :    0.056434
  23 H :    0.016584
  24 H :    0.023871
  25 C :   -0.126047
  26 H :    0.040136
  27 H :    0.032057
  28 C :   -0.048387
  29 H :    0.029741
  30 H :    0.040330
  31 H :    0.051624
  32 H :    0.055156
  33 H :    0.069693
Sum of atomic charges:    0.0000000

LOEWDIN ATOMIC CHARGES
----------------------
   0 S :    0.439729
   1 C :   -0.204703
   2 C :   -0.056242
   3 C :   -0.060396
   4 C :   -0.216541
   5 H :    0.002945
   6 C :   -0.035854
   7 H :    0.038005
   8 H :    0.027409
   9 C :   -0.050096
  10 H :    0.027201
  11 H :    0.029421
  12 C :   -0.066151
  13 H :    0.033536
  14 H :    0.022671
  15 H :    0.023626
  16 S :    0.394097
  17 C :   -0.185799
  18 C :   -0.077481
  19 C :   -0.056387
  20 C :   -0.180394
  21 H :    0.040605
  22 C :   -0.037654
  23 H :    0.030301
  24 H :    0.029510
  25 C :   -0.053269
  26 H :    0.029012
  27 H :    0.027653
  28 C :   -0.069793
  29 H :    0.022432
  30 H :    0.024881
  31 H :    0.034131
  32 H :    0.033402
  33 H :    0.040196

  Mayer bond orders larger than 0.100000
B(  0-S ,  1-C ) :   1.1468 B(  0-S ,  4-C ) :   1.1735 B(  1-C ,  2-C ) :   1.5814
B(  1-C , 32-H ) :   0.9716 B(  2-C ,  3-C ) :   1.2568 B(  2-C ,  6-C ) :   1.0301
B(  3-C ,  4-C ) :   1.5315 B(  3-C ,  5-H ) :   1.0085 B(  4-C , 20-C ) :   1.0465
B(  6-C ,  7-H ) :   0.9325 B(  6-C ,  8-H ) :   0.9393 B(  6-C ,  9-C ) :   1.0673
B(  9-C , 10-H ) :   0.9542 B(  9-C , 11-H ) :   0.9474 B(  9-C , 12-C ) :   1.0871
B( 12-C , 13-H ) :   0.9711 B( 12-C , 14-H ) :   0.9721 B( 12-C , 15-H ) :   0.9707
B( 16-S , 17-C ) :   1.1509 B( 16-S , 20-C ) :   1.1288 B( 17-C , 18-C ) :   1.6206
B( 17-C , 33-H ) :   0.9577 B( 18-C , 19-C ) :   1.2590 B( 18-C , 21-H ) :   0.9849
B( 19-C , 20-C ) :   1.6020 B( 19-C , 22-C ) :   1.0215 B( 22-C , 23-H ) :   0.9318
B( 22-C , 24-H ) :   0.9423 B( 22-C , 25-C ) :   1.0784 B( 25-C , 26-H ) :   0.9539
B( 25-C , 27-H ) :   0.9541 B( 25-C , 28-C ) :   1.0745 B( 28-C , 29-H ) :   0.9731
B( 28-C , 30-H ) :   0.9702 B( 28-C , 31-H ) :   0.9691

Dispersion correction           -0.015529949
FINAL SINGLE POINT ENERGY     -1339.874412504616

DIPOLE MOMENT
-------------
                                X             Y             Z
Electronic contribution:     16.15936      24.35431      -0.28406
Nuclear contribution   :    -16.74146     -24.73277       0.35618
                        -----------------------------------------
Total Dipole Moment    :     -0.58211      -0.37846       0.07212
                        -----------------------------------------
Magnitude (a.u.)       :      0.69806
Magnitude (Debye)      :      1.77432

Rotational constants in cm-1:     0.020715     0.008893     0.007389
Rotational constants in MHz :   621.027637   266.619945   221.529003

                             ****ORCA TERMINATED NORMALLY****
TOTAL RUN TIME: 0 days 0 hours 0 minutes 22 seconds 722 msec
