                         Program Version 4.2.1 -  RELEASE  -
|  1> ! wB97X-D3 SP def2-SVP
|  2> %pal
|  3> nprocs 24
|  4> end
|  5>
|  6> * xyz 0 1
|  7> S 	 -69.4438 	 14.272 	 -77.9171
|  8> C 	 -67.856 	 14.2555 	 -78.6445
|  9> C 	 -66.9078 	 14.3395 	 -77.6495
| 10> C 	 -67.4834 	 14.6142 	 -76.3297
| 11> C 	 -68.8521 	 14.4754 	 -76.3068
| 12> H 	 -66.9309 	 14.9176 	 -75.4535
| 13> C 	 -65.458 	 14.4006 	 -77.9441
| 14> H 	 -65.2466 	 13.5485 	 -78.5528
| 15> H 	 -64.9874 	 14.2402 	 -76.9372
| 16> C 	 -65.0175 	 15.6646 	 -78.6218
| 17> H 	 -63.9538 	 15.6248 	 -78.818
| 18> H 	 -65.5182 	 15.7237 	 -79.6217
| 19> C 	 -65.338 	 16.9925 	 -77.7679
| 20> H 	 -66.3216 	 17.0174 	 -77.3855
| 21> H 	 -64.6832 	 17.16 	 -76.9231
| 22> H 	 -65.1928 	 17.8263 	 -78.43
| 23> S 	 -71.2825 	 15.4879 	 -75.5276
| 24> C 	 -71.8788 	 15.2201 	 -73.9093
| 25> C 	 -70.9377 	 14.5132 	 -73.1791
| 26> C 	 -69.7435 	 14.2173 	 -73.9114
| 27> C 	 -69.8219 	 14.6474 	 -75.2105
| 28> H 	 -71.1473 	 14.2664 	 -72.1024
| 29> C 	 -68.5705 	 13.3877 	 -73.3789
| 30> H 	 -67.6704 	 13.9912 	 -73.3966
| 31> H 	 -68.4678 	 12.5813 	 -74.1322
| 32> C 	 -68.8474 	 12.7162 	 -72.0662
| 33> H 	 -69.9061 	 12.3171 	 -72.1263
| 34> H 	 -68.9456 	 13.384 	 -71.2466
| 35> C 	 -67.8472 	 11.649 	 -71.6618
| 36> H 	 -68.1865 	 11.2595 	 -70.7087
| 37> H 	 -66.7898 	 11.9807 	 -71.618
| 38> H 	 -68.022 	 10.8383 	 -72.3562
| 39> H 	 -67.6286 	 14.0363 	 -79.7052
| 40> H 	 -72.857 	 15.5899 	 -73.5747
| 41> *
| 42>
| 43>                          ****END OF INPUT****

CARTESIAN COORDINATES (ANGSTROEM)
---------------------------------
  S    -69.443800   14.272000  -77.917100
  C    -67.856000   14.255500  -78.644500
  C    -66.907800   14.339500  -77.649500
  C    -67.483400   14.614200  -76.329700
  C    -68.852100   14.475400  -76.306800
  H    -66.930900   14.917600  -75.453500
  C    -65.458000   14.400600  -77.944100
  H    -65.246600   13.548500  -78.552800
  H    -64.987400   14.240200  -76.937200
  C    -65.017500   15.664600  -78.621800
  H    -63.953800   15.624800  -78.818000
  H    -65.518200   15.723700  -79.621700
  C    -65.338000   16.992500  -77.767900
  H    -66.321600   17.017400  -77.385500
  H    -64.683200   17.160000  -76.923100
  H    -65.192800   17.826300  -78.430000
  S    -71.282500   15.487900  -75.527600
  C    -71.878800   15.220100  -73.909300
  C    -70.937700   14.513200  -73.179100
  C    -69.743500   14.217300  -73.911400
  C    -69.821900   14.647400  -75.210500
  H    -71.147300   14.266400  -72.102400
  C    -68.570500   13.387700  -73.378900
  H    -67.670400   13.991200  -73.396600
  H    -68.467800   12.581300  -74.132200
  C    -68.847400   12.716200  -72.066200
  H    -69.906100   12.317100  -72.126300
  H    -68.945600   13.384000  -71.246600
  C    -67.847200   11.649000  -71.661800
  H    -68.186500   11.259500  -70.708700
  H    -66.789800   11.980700  -71.618000
  H    -68.022000   10.838300  -72.356200
  H    -67.628600   14.036300  -79.705200
  H    -72.857000   15.589900  -73.574700

 Total Charge           Charge          ....    0
 Multiplicity           Mult            ....    1
 Number of Electrons    NEL             ....  134
 Basis Dimension        Dim             ....  322

ORBITAL ENERGIES
----------------

  NO   OCC          E(Eh)            E(eV)
   0   2.0000     -88.964746     -2420.8538
   1   2.0000     -88.962227     -2420.7853
   2   2.0000     -10.329720      -281.0860
   3   2.0000     -10.322242      -280.8825
   4   2.0000     -10.319548      -280.8092
   5   2.0000     -10.313700      -280.6500
   6   2.0000     -10.301393      -280.3151
   7   2.0000     -10.299759      -280.2707
   8   2.0000     -10.298666      -280.2409
   9   2.0000     -10.296027      -280.1691
  10   2.0000     -10.292187      -280.0646
  11   2.0000     -10.291387      -280.0429
  12   2.0000     -10.286232      -279.9026
  13   2.0000     -10.282979      -279.8141
  14   2.0000     -10.278344      -279.6880
  15   2.0000     -10.272335      -279.5245
  16   2.0000      -8.080229      -219.8742
  17   2.0000      -8.077567      -219.8018
  18   2.0000      -6.038686      -164.3210
  19   2.0000      -6.036161      -164.2523
  20   2.0000      -6.034515      -164.2075
  21   2.0000      -6.031889      -164.1361
  22   2.0000      -6.031114      -164.1150
  23   2.0000      -6.028284      -164.0379
  24   2.0000      -1.011965       -27.5370
  25   2.0000      -0.987825       -26.8801
  26   2.0000      -0.915914       -24.9233
  27   2.0000      -0.914089       -24.8736
  28   2.0000      -0.866523       -23.5793
  29   2.0000      -0.852895       -23.2084
  30   2.0000      -0.836824       -22.7711
  31   2.0000      -0.817105       -22.2346
  32   2.0000      -0.784163       -21.3381
  33   2.0000      -0.774609       -21.0782
  34   2.0000      -0.709117       -19.2960
  35   2.0000      -0.701589       -19.0912
  36   2.0000      -0.696696       -18.9581
  37   2.0000      -0.650969       -17.7138
  38   2.0000      -0.636185       -17.3115
  39   2.0000      -0.615210       -16.7407
  40   2.0000      -0.597667       -16.2634
  41   2.0000      -0.574570       -15.6348
  42   2.0000      -0.569613       -15.4999
  43   2.0000      -0.549399       -14.9499
  44   2.0000      -0.542086       -14.7509
  45   2.0000      -0.530023       -14.4227
  46   2.0000      -0.517250       -14.0751
  47   2.0000      -0.512112       -13.9353
  48   2.0000      -0.505664       -13.7598
  49   2.0000      -0.500216       -13.6116
  50   2.0000      -0.487006       -13.2521
  51   2.0000      -0.479080       -13.0364
  52   2.0000      -0.473075       -12.8730
  53   2.0000      -0.465995       -12.6804
  54   2.0000      -0.462967       -12.5980
  55   2.0000      -0.451676       -12.2907
  56   2.0000      -0.446632       -12.1535
  57   2.0000      -0.436940       -11.8897
  58   2.0000      -0.430731       -11.7208
  59   2.0000      -0.423185       -11.5154
  60   2.0000      -0.418211       -11.3801
  61   2.0000      -0.416518       -11.3340
  62   2.0000      -0.408541       -11.1170
  63   2.0000      -0.353803        -9.6275
  64   2.0000      -0.331742        -9.0272
  65   2.0000      -0.325708        -8.8630
  66   2.0000      -0.291700        -7.9376
  67   0.0000       0.029159         0.7935
  68   0.0000       0.079539         2.1644
  69   0.0000       0.112674         3.0660
  70   0.0000       0.121545         3.3074
  71   0.0000       0.140822         3.8320

MULLIKEN ATOMIC CHARGES
-----------------------
   0 S :    0.098674
   1 C :   -0.131061
   2 C :   -0.126806
   3 C :    0.009654
   4 C :   -0.136961
   5 H :    0.014204
   6 C :    0.080011
   7 H :    0.024492
   8 H :    0.023848
   9 C :   -0.069492
  10 H :    0.032376
  11 H :    0.032445
  12 C :   -0.048404
  13 H :    0.040926
  14 H :    0.026537
  15 H :    0.028040
  16 S :    0.112564
  17 C :   -0.102748
  18 C :   -0.064845
  19 C :   -0.063024
  20 C :   -0.135721
  21 H :    0.039935
  22 C :    0.097674
  23 H :    0.032631
  24 H :    0.040618
  25 C :   -0.129853
  26 H :    0.031493
  27 H :    0.016716
  28 C :   -0.003536
  29 H :    0.024444
  30 H :    0.046444
  31 H :    0.027363
  32 H :    0.065717
  33 H :    0.065645
Sum of atomic charges:    0.0000000

LOEWDIN ATOMIC CHARGES
----------------------
   0 S :    0.411235
   1 C :   -0.206329
   2 C :   -0.063180
   3 C :   -0.070990
   4 C :   -0.191550
   5 H :    0.028604
   6 C :   -0.041786
   7 H :    0.030038
   8 H :    0.033727
   9 C :   -0.032835
  10 H :    0.022798
  11 H :    0.027240
  12 C :   -0.060248
  13 H :    0.021369
  14 H :    0.023086
  15 H :    0.025052
  16 S :    0.422706
  17 C :   -0.191823
  18 C :   -0.080939
  19 C :   -0.060178
  20 C :   -0.213388
  21 H :    0.040965
  22 C :   -0.030658
  23 H :    0.027779
  24 H :    0.041077
  25 C :   -0.051773
  26 H :    0.031448
  27 H :    0.013365
  28 C :   -0.059421
  29 H :    0.026952
  30 H :    0.030848
  31 H :    0.024974
  32 H :    0.037774
  33 H :    0.034063

  Mayer bond orders larger than 0.100000
B(  0-S ,  1-C ) :   1.1296 B(  0-S ,  4-C ) :   1.1647 B(  1-C ,  2-C ) :   1.6089
B(  1-C , 32-H ) :   0.9668 B(  2-C ,  3-C ) :   1.2259 B(  2-C ,  6-C ) :   1.0309
B(  3-C ,  4-C ) :   1.5737 B(  3-C ,  5-H ) :   0.9900 B(  4-C , 20-C ) :   1.0281
B(  6-C ,  7-H ) :   0.9296 B(  6-C ,  8-H ) :   0.9380 B(  6-C ,  9-C ) :   1.0862
B(  9-C , 10-H ) :   0.9560 B(  9-C , 11-H ) :   0.9541 B(  9-C , 12-C ) :   1.0619
B( 12-C , 13-H ) :   0.9784 B( 12-C , 14-H ) :   0.9776 B( 12-C , 15-H ) :   0.9759
B( 16-S , 17-C ) :   1.1598 B( 16-S , 20-C ) :   1.1569 B( 17-C , 18-C ) :   1.5793
B( 17-C , 33-H ) :   0.9670 B( 18-C , 19-C ) :   1.2607 B( 18-C , 21-H ) :   0.9799
B( 19-C , 20-C ) :   1.5982 B( 19-C , 22-C ) :   1.0217 B( 22-C , 23-H ) :   0.9226
B( 22-C , 24-H ) :   0.9327 B( 22-C , 25-C ) :   1.0913 B( 25-C , 26-H ) :   0.9472
B( 25-C , 27-H ) :   0.9460 B( 25-C , 28-C ) :   1.0851 B( 28-C , 29-H ) :   0.9690
B( 28-C , 30-H ) :   0.9729 B( 28-C , 31-H ) :   0.9741

Dispersion correction           -0.014135588
FINAL SINGLE POINT ENERGY     -1339.892568538211

DIPOLE MOMENT
-------------
                                X             Y             Z
Electronic contribution:    -21.96501       4.09823      -9.81818
Nuclear contribution   :     22.43493      -4.20836      10.14567
                        -----------------------------------------
Total Dipole Moment    :      0.46993      -0.11013       0.32749
                        -----------------------------------------
Magnitude (a.u.)       :      0.58327
Magnitude (Debye)      :      1.48256

Rotational constants in cm-1:     0.018579     0.008504     0.006699
Rotational constants in MHz :   556.990643   254.946420   200.834163

                             ****ORCA TERMINATED NORMALLY****
TOTAL RUN TIME: 0 days 0 hours 0 minutes 21 seconds 584 msec
