                         Program Version 4.2.1 -  RELEASE  -
|  1> ! wB97X-D3 SP def2-SVP
|  2> %pal
|  3> nprocs 24
|  4> end
|  5>
|  6> * xyz 0 1
|  7> S 	 -106.269 	 57.0577 	 -96.8046
|  8> C 	 -104.881 	 57.1092 	 -95.7492
|  9> C 	 -104.188 	 55.9464 	 -95.9025
| 10> C 	 -104.632 	 55.1121 	 -96.964
| 11> C 	 -105.79 	 55.578 	 -97.5693
| 12> H 	 -104.23 	 54.2241 	 -97.2985
| 13> C 	 -102.962 	 55.5634 	 -95.1092
| 14> H 	 -102.113 	 56.1931 	 -95.4393
| 15> H 	 -102.597 	 54.5505 	 -95.4631
| 16> C 	 -103.011 	 55.5618 	 -93.5499
| 17> H 	 -101.997 	 55.31 	 -93.2247
| 18> H 	 -103.216 	 56.5254 	 -93.1824
| 19> C 	 -104.007 	 54.57 	 -92.9483
| 20> H 	 -104.02 	 54.6758 	 -91.8831
| 21> H 	 -105.039 	 54.7931 	 -93.199
| 22> H 	 -103.86 	 53.5493 	 -93.2894
| 23> S 	 -105.289 	 54.6202 	 -100.121
| 24> C 	 -106.611 	 54.0031 	 -101.131
| 25> C 	 -107.801 	 54.0608 	 -100.44
| 26> C 	 -107.698 	 54.6115 	 -99.1071
| 27> C 	 -106.402 	 54.9868 	 -98.7914
| 28> H 	 -108.65 	 53.6375 	 -100.925
| 29> C 	 -108.776 	 54.5245 	 -98.0912
| 30> H 	 -109.798 	 54.7526 	 -98.5022
| 31> H 	 -108.579 	 55.305 	 -97.3926
| 32> C 	 -108.695 	 53.1509 	 -97.3951
| 33> H 	 -107.662 	 52.8934 	 -97.1228
| 34> H 	 -109.075 	 52.4074 	 -98.1322
| 35> C 	 -109.445 	 53.1283 	 -96.0591
| 36> H 	 -109.499 	 52.0959 	 -95.7038
| 37> H 	 -110.504 	 53.5015 	 -96.0543
| 38> H 	 -109.02 	 53.827 	 -95.3415
| 39> H 	 -104.575 	 57.9268 	 -95.1632
| 40> H 	 -106.486 	 53.7386 	 -102.154
| 41> *
| 42>
| 43>                          ****END OF INPUT****

CARTESIAN COORDINATES (ANGSTROEM)
---------------------------------
  S    -106.269000   57.057700  -96.804600
  C    -104.881000   57.109200  -95.749200
  C    -104.188000   55.946400  -95.902500
  C    -104.632000   55.112100  -96.964000
  C    -105.790000   55.578000  -97.569300
  H    -104.230000   54.224100  -97.298500
  C    -102.962000   55.563400  -95.109200
  H    -102.113000   56.193100  -95.439300
  H    -102.597000   54.550500  -95.463100
  C    -103.011000   55.561800  -93.549900
  H    -101.997000   55.310000  -93.224700
  H    -103.216000   56.525400  -93.182400
  C    -104.007000   54.570000  -92.948300
  H    -104.020000   54.675800  -91.883100
  H    -105.039000   54.793100  -93.199000
  H    -103.860000   53.549300  -93.289400
  S    -105.289000   54.620200  -100.121000
  C    -106.611000   54.003100  -101.131000
  C    -107.801000   54.060800  -100.440000
  C    -107.698000   54.611500  -99.107100
  C    -106.402000   54.986800  -98.791400
  H    -108.650000   53.637500  -100.925000
  C    -108.776000   54.524500  -98.091200
  H    -109.798000   54.752600  -98.502200
  H    -108.579000   55.305000  -97.392600
  C    -108.695000   53.150900  -97.395100
  H    -107.662000   52.893400  -97.122800
  H    -109.075000   52.407400  -98.132200
  C    -109.445000   53.128300  -96.059100
  H    -109.499000   52.095900  -95.703800
  H    -110.504000   53.501500  -96.054300
  H    -109.020000   53.827000  -95.341500
  H    -104.575000   57.926800  -95.163200
  H    -106.486000   53.738600  -102.154000

 Total Charge           Charge          ....    0
 Multiplicity           Mult            ....    1
 Number of Electrons    NEL             ....  134
 Basis Dimension        Dim             ....  322

ORBITAL ENERGIES
----------------

  NO   OCC          E(Eh)            E(eV)
   0   2.0000     -88.967135     -2420.9188
   1   2.0000     -88.964291     -2420.8414
   2   2.0000     -10.332064      -281.1498
   3   2.0000     -10.330617      -281.1104
   4   2.0000     -10.317885      -280.7639
   5   2.0000     -10.310415      -280.5607
   6   2.0000     -10.302961      -280.3578
   7   2.0000     -10.298765      -280.2436
   8   2.0000     -10.295276      -280.1487
   9   2.0000     -10.294201      -280.1194
  10   2.0000     -10.288470      -279.9635
  11   2.0000     -10.288310      -279.9591
  12   2.0000     -10.287473      -279.9364
  13   2.0000     -10.286033      -279.8972
  14   2.0000     -10.277201      -279.6569
  15   2.0000     -10.271559      -279.5033
  16   2.0000      -8.081846      -219.9182
  17   2.0000      -8.078300      -219.8217
  18   2.0000      -6.040416      -164.3681
  19   2.0000      -6.036948      -164.2737
  20   2.0000      -6.036144      -164.2518
  21   2.0000      -6.032865      -164.1626
  22   2.0000      -6.032746      -164.1594
  23   2.0000      -6.028998      -164.0574
  24   2.0000      -1.007603       -27.4183
  25   2.0000      -0.984591       -26.7921
  26   2.0000      -0.909343       -24.7445
  27   2.0000      -0.906761       -24.6742
  28   2.0000      -0.869337       -23.6559
  29   2.0000      -0.851443       -23.1689
  30   2.0000      -0.844560       -22.9816
  31   2.0000      -0.816799       -22.2262
  32   2.0000      -0.781418       -21.2635
  33   2.0000      -0.770039       -20.9538
  34   2.0000      -0.708192       -19.2709
  35   2.0000      -0.701605       -19.0916
  36   2.0000      -0.694990       -18.9116
  37   2.0000      -0.665321       -18.1043
  38   2.0000      -0.648012       -17.6333
  39   2.0000      -0.609066       -16.5735
  40   2.0000      -0.593092       -16.1389
  41   2.0000      -0.578049       -15.7295
  42   2.0000      -0.563276       -15.3275
  43   2.0000      -0.549658       -14.9569
  44   2.0000      -0.542497       -14.7621
  45   2.0000      -0.526346       -14.3226
  46   2.0000      -0.521215       -14.1830
  47   2.0000      -0.515973       -14.0403
  48   2.0000      -0.511524       -13.9193
  49   2.0000      -0.497194       -13.5293
  50   2.0000      -0.487853       -13.2751
  51   2.0000      -0.479139       -13.0380
  52   2.0000      -0.471923       -12.8417
  53   2.0000      -0.463314       -12.6074
  54   2.0000      -0.460016       -12.5177
  55   2.0000      -0.440480       -11.9861
  56   2.0000      -0.439721       -11.9654
  57   2.0000      -0.437443       -11.9034
  58   2.0000      -0.431382       -11.7385
  59   2.0000      -0.422744       -11.5035
  60   2.0000      -0.420128       -11.4323
  61   2.0000      -0.417424       -11.3587
  62   2.0000      -0.412247       -11.2178
  63   2.0000      -0.348914        -9.4944
  64   2.0000      -0.331330        -9.0160
  65   2.0000      -0.328332        -8.9344
  66   2.0000      -0.293237        -7.9794
  67   0.0000       0.030963         0.8425
  68   0.0000       0.066074         1.7980
  69   0.0000       0.106760         2.9051
  70   0.0000       0.122594         3.3360
  71   0.0000       0.130848         3.5605

MULLIKEN ATOMIC CHARGES
-----------------------
   0 S :    0.113050
   1 C :   -0.118857
   2 C :   -0.046618
   3 C :    0.028257
   4 C :   -0.124677
   5 H :   -0.019901
   6 C :    0.016155
   7 H :    0.041255
   8 H :    0.019298
   9 C :   -0.035016
  10 H :    0.026325
  11 H :    0.013232
  12 C :   -0.038302
  13 H :    0.027768
  14 H :    0.027012
  15 H :    0.029095
  16 S :    0.094420
  17 C :   -0.093644
  18 C :   -0.022829
  19 C :   -0.042246
  20 C :   -0.161858
  21 H :    0.011456
  22 C :    0.086892
  23 H :    0.034777
  24 H :   -0.001430
  25 C :   -0.069898
  26 H :    0.040704
  27 H :    0.033780
  28 C :   -0.055372
  29 H :    0.039389
  30 H :    0.023143
  31 H :    0.035373
  32 H :    0.035820
  33 H :    0.053445
Sum of atomic charges:   -0.0000000

LOEWDIN ATOMIC CHARGES
----------------------
   0 S :    0.420677
   1 C :   -0.192729
   2 C :   -0.065633
   3 C :   -0.060490
   4 C :   -0.195599
   5 H :    0.015976
   6 C :   -0.039708
   7 H :    0.036187
   8 H :    0.031424
   9 C :   -0.032641
  10 H :    0.026949
  11 H :    0.014185
  12 C :   -0.064618
  13 H :    0.024511
  14 H :    0.025811
  15 H :    0.024429
  16 S :    0.387776
  17 C :   -0.171156
  18 C :   -0.066669
  19 C :   -0.057421
  20 C :   -0.186452
  21 H :    0.028284
  22 C :   -0.034331
  23 H :    0.035936
  24 H :    0.017240
  25 C :   -0.035348
  26 H :    0.031039
  27 H :    0.027296
  28 C :   -0.073912
  29 H :    0.027685
  30 H :    0.025440
  31 H :    0.026361
  32 H :    0.024065
  33 H :    0.025436

  Mayer bond orders larger than 0.100000
B(  0-S ,  1-C ) :   1.1356 B(  0-S ,  4-C ) :   1.1645 B(  1-C ,  2-C ) :   1.5866
B(  1-C , 32-H ) :   0.9843 B(  2-C ,  3-C ) :   1.2415 B(  2-C ,  6-C ) :   1.0147
B(  3-C ,  4-C ) :   1.5436 B(  3-C ,  5-H ) :   1.0146 B(  4-C , 20-C ) :   1.0246
B(  6-C ,  7-H ) :   0.9371 B(  6-C ,  8-H ) :   0.9470 B(  6-C ,  9-C ) :   1.0767
B(  9-C , 10-H ) :   0.9536 B(  9-C , 11-H ) :   0.9554 B(  9-C , 12-C ) :   1.0810
B( 12-C , 13-H ) :   0.9731 B( 12-C , 14-H ) :   0.9723 B( 12-C , 15-H ) :   0.9764
B( 16-S , 17-C ) :   1.1418 B( 16-S , 20-C ) :   1.1344 B( 17-C , 18-C ) :   1.6223
B( 17-C , 33-H ) :   0.9717 B( 18-C , 19-C ) :   1.2130 B( 18-C , 21-H ) :   0.9965
B( 19-C , 20-C ) :   1.5991 B( 19-C , 22-C ) :   1.0684 B( 22-C , 23-H ) :   0.9303
B( 22-C , 24-H ) :   0.9211 B( 22-C , 25-C ) :   1.0549 B( 25-C , 26-H ) :   0.9573
B( 25-C , 27-H ) :   0.9555 B( 25-C , 28-C ) :   1.0792 B( 28-C , 29-H ) :   0.9739
B( 28-C , 30-H ) :   0.9726 B( 28-C , 31-H ) :   0.9745

Dispersion correction           -0.014620994
FINAL SINGLE POINT ENERGY     -1339.888998862748

DIPOLE MOMENT
-------------
                                X             Y             Z
Electronic contribution:      2.79306      10.50769     -21.17561
Nuclear contribution   :     -2.78112     -10.75942      21.42711
                        -----------------------------------------
Total Dipole Moment    :      0.01194      -0.25173       0.25150
                        -----------------------------------------
Magnitude (a.u.)       :      0.35604
Magnitude (Debye)      :      0.90498

Rotational constants in cm-1:     0.019553     0.008521     0.007171
Rotational constants in MHz :   586.181704   255.446682   214.969459

                             ****ORCA TERMINATED NORMALLY****
TOTAL RUN TIME: 0 days 0 hours 0 minutes 21 seconds 542 msec
