                         Program Version 4.2.1 -  RELEASE  -
|  1> ! wB97X-D3 SP def2-SVP
|  2> %pal
|  3> nprocs 24
|  4> end
|  5>
|  6> * xyz 0 1
|  7> S 	 -58.2512 	 -53.6224 	 -84.1631
|  8> C 	 -58.5494 	 -52.2344 	 -83.114
|  9> C 	 -59.3606 	 -52.4733 	 -82.0193
| 10> C 	 -59.8398 	 -53.8493 	 -82.079
| 11> C 	 -59.4644 	 -54.5511 	 -83.2194
| 12> H 	 -60.4214 	 -54.359 	 -81.3495
| 13> C 	 -59.7451 	 -51.5519 	 -80.8663
| 14> H 	 -60.7633 	 -51.3007 	 -81.1852
| 15> H 	 -59.2288 	 -50.5731 	 -80.8861
| 16> C 	 -59.7204 	 -52.1334 	 -79.4695
| 17> H 	 -60.1332 	 -53.1128 	 -79.3827
| 18> H 	 -58.6596 	 -52.354 	 -79.2505
| 19> C 	 -60.4125 	 -51.1575 	 -78.5389
| 20> H 	 -60.2451 	 -50.0827 	 -78.854
| 21> H 	 -61.4679 	 -51.173 	 -78.4667
| 22> H 	 -60.0344 	 -51.285 	 -77.5469
| 23> S 	 -59.5032 	 -57.1247 	 -82.3543
| 24> C 	 -59.7874 	 -58.4138 	 -83.4619
| 25> C 	 -60.0898 	 -57.8927 	 -84.6836
| 26> C 	 -60.2448 	 -56.481 	 -84.7733
| 27> C 	 -59.8781 	 -55.9067 	 -83.5288
| 28> H 	 -60.3442 	 -58.6702 	 -85.3656
| 29> C 	 -60.4548 	 -55.7143 	 -86.044
| 30> H 	 -59.5166 	 -55.5704 	 -86.6032
| 31> H 	 -60.8066 	 -54.7069 	 -85.757
| 32> C 	 -61.461 	 -56.3041 	 -86.9453
| 33> H 	 -62.2478 	 -56.6411 	 -86.291
| 34> H 	 -61.0616 	 -57.1895 	 -87.4969
| 35> C 	 -62.033 	 -55.311 	 -87.9813
| 36> H 	 -62.58 	 -54.4638 	 -87.5794
| 37> H 	 -62.6203 	 -55.6632 	 -88.7503
| 38> H 	 -61.1241 	 -54.868 	 -88.5053
| 39> H 	 -58.1144 	 -51.2603 	 -83.2389
| 40> H 	 -59.7239 	 -59.4363 	 -83.214
| 41> *
| 42>
| 43>                          ****END OF INPUT****

CARTESIAN COORDINATES (ANGSTROEM)
---------------------------------
  S    -58.251200  -53.622400  -84.163100
  C    -58.549400  -52.234400  -83.114000
  C    -59.360600  -52.473300  -82.019300
  C    -59.839800  -53.849300  -82.079000
  C    -59.464400  -54.551100  -83.219400
  H    -60.421400  -54.359000  -81.349500
  C    -59.745100  -51.551900  -80.866300
  H    -60.763300  -51.300700  -81.185200
  H    -59.228800  -50.573100  -80.886100
  C    -59.720400  -52.133400  -79.469500
  H    -60.133200  -53.112800  -79.382700
  H    -58.659600  -52.354000  -79.250500
  C    -60.412500  -51.157500  -78.538900
  H    -60.245100  -50.082700  -78.854000
  H    -61.467900  -51.173000  -78.466700
  H    -60.034400  -51.285000  -77.546900
  S    -59.503200  -57.124700  -82.354300
  C    -59.787400  -58.413800  -83.461900
  C    -60.089800  -57.892700  -84.683600
  C    -60.244800  -56.481000  -84.773300
  C    -59.878100  -55.906700  -83.528800
  H    -60.344200  -58.670200  -85.365600
  C    -60.454800  -55.714300  -86.044000
  H    -59.516600  -55.570400  -86.603200
  H    -60.806600  -54.706900  -85.757000
  C    -61.461000  -56.304100  -86.945300
  H    -62.247800  -56.641100  -86.291000
  H    -61.061600  -57.189500  -87.496900
  C    -62.033000  -55.311000  -87.981300
  H    -62.580000  -54.463800  -87.579400
  H    -62.620300  -55.663200  -88.750300
  H    -61.124100  -54.868000  -88.505300
  H    -58.114400  -51.260300  -83.238900
  H    -59.723900  -59.436300  -83.214000

 Total Charge           Charge          ....    0
 Multiplicity           Mult            ....    1
 Number of Electrons    NEL             ....  134
 Basis Dimension        Dim             ....  322

ORBITAL ENERGIES
----------------

  NO   OCC          E(Eh)            E(eV)
   0   2.0000     -88.967834     -2420.9378
   1   2.0000     -88.962774     -2420.8001
   2   2.0000     -10.329779      -281.0876
   3   2.0000     -10.324572      -280.9459
   4   2.0000     -10.311909      -280.6013
   5   2.0000     -10.309942      -280.5478
   6   2.0000     -10.304819      -280.4084
   7   2.0000     -10.304037      -280.3871
   8   2.0000     -10.295799      -280.1629
   9   2.0000     -10.293322      -280.0955
  10   2.0000     -10.287745      -279.9438
  11   2.0000     -10.287557      -279.9387
  12   2.0000     -10.286454      -279.9087
  13   2.0000     -10.281884      -279.7843
  14   2.0000     -10.278187      -279.6837
  15   2.0000     -10.273919      -279.5676
  16   2.0000      -8.081102      -219.8980
  17   2.0000      -8.078396      -219.8243
  18   2.0000      -6.039787      -164.3509
  19   2.0000      -6.036817      -164.2701
  20   2.0000      -6.035997      -164.2478
  21   2.0000      -6.032598      -164.1553
  22   2.0000      -6.031582      -164.1277
  23   2.0000      -6.029364      -164.0673
  24   2.0000      -1.005913       -27.3723
  25   2.0000      -0.978721       -26.6324
  26   2.0000      -0.917229       -24.9591
  27   2.0000      -0.915927       -24.9236
  28   2.0000      -0.872238       -23.7348
  29   2.0000      -0.850237       -23.1361
  30   2.0000      -0.844382       -22.9768
  31   2.0000      -0.812912       -22.1205
  32   2.0000      -0.783711       -21.3259
  33   2.0000      -0.772904       -21.0318
  34   2.0000      -0.714703       -19.4480
  35   2.0000      -0.702442       -19.1144
  36   2.0000      -0.696558       -18.9543
  37   2.0000      -0.654590       -17.8123
  38   2.0000      -0.633590       -17.2409
  39   2.0000      -0.621741       -16.9184
  40   2.0000      -0.602823       -16.4037
  41   2.0000      -0.575749       -15.6669
  42   2.0000      -0.566695       -15.4206
  43   2.0000      -0.560896       -15.2628
  44   2.0000      -0.529857       -14.4181
  45   2.0000      -0.526795       -14.3348
  46   2.0000      -0.517205       -14.0739
  47   2.0000      -0.511314       -13.9136
  48   2.0000      -0.503874       -13.7111
  49   2.0000      -0.497457       -13.5365
  50   2.0000      -0.485912       -13.2223
  51   2.0000      -0.479146       -13.0382
  52   2.0000      -0.474428       -12.9099
  53   2.0000      -0.464486       -12.6393
  54   2.0000      -0.456454       -12.4208
  55   2.0000      -0.454570       -12.3695
  56   2.0000      -0.442366       -12.0374
  57   2.0000      -0.441974       -12.0267
  58   2.0000      -0.426909       -11.6168
  59   2.0000      -0.422389       -11.4938
  60   2.0000      -0.420905       -11.4534
  61   2.0000      -0.417800       -11.3689
  62   2.0000      -0.414895       -11.2899
  63   2.0000      -0.344717        -9.3802
  64   2.0000      -0.329995        -8.9796
  65   2.0000      -0.323754        -8.8098
  66   2.0000      -0.291874        -7.9423
  67   0.0000       0.028547         0.7768
  68   0.0000       0.070936         1.9303
  69   0.0000       0.105513         2.8711
  70   0.0000       0.121536         3.3072
  71   0.0000       0.128765         3.5039

MULLIKEN ATOMIC CHARGES
-----------------------
   0 S :    0.117537
   1 C :   -0.124111
   2 C :   -0.059782
   3 C :    0.004792
   4 C :   -0.142794
   5 H :    0.001279
   6 C :    0.045213
   7 H :    0.038887
   8 H :    0.025700
   9 C :   -0.054489
  10 H :    0.025441
  11 H :    0.037218
  12 C :   -0.035888
  13 H :    0.026698
  14 H :    0.029463
  15 H :    0.028829
  16 S :    0.108150
  17 C :   -0.089517
  18 C :   -0.034782
  19 C :   -0.042981
  20 C :   -0.156647
  21 H :    0.012290
  22 C :    0.079496
  23 H :    0.043925
  24 H :    0.028460
  25 C :   -0.096235
  26 H :    0.027625
  27 H :    0.038347
  28 C :   -0.031185
  29 H :    0.032063
  30 H :    0.016890
  31 H :    0.023340
  32 H :    0.032606
  33 H :    0.044165
Sum of atomic charges:   -0.0000000

LOEWDIN ATOMIC CHARGES
----------------------
   0 S :    0.381732
   1 C :   -0.194539
   2 C :   -0.058295
   3 C :   -0.056738
   4 C :   -0.182765
   5 H :    0.021337
   6 C :   -0.035167
   7 H :    0.036522
   8 H :    0.032063
   9 C :   -0.040553
  10 H :    0.021743
  11 H :    0.032397
  12 C :   -0.061731
  13 H :    0.031376
  14 H :    0.022390
  15 H :    0.025012
  16 S :    0.428056
  17 C :   -0.186010
  18 C :   -0.073064
  19 C :   -0.055081
  20 C :   -0.205253
  21 H :    0.027512
  22 C :   -0.039539
  23 H :    0.034950
  24 H :    0.034656
  25 C :   -0.044822
  26 H :    0.022342
  27 H :    0.028200
  28 C :   -0.063478
  29 H :    0.025203
  30 H :    0.013501
  31 H :    0.031928
  32 H :    0.022869
  33 H :    0.023244

  Mayer bond orders larger than 0.100000
B(  0-S ,  1-C ) :   1.1221 B(  0-S ,  4-C ) :   1.1142 B(  1-C ,  2-C ) :   1.6539
B(  1-C , 32-H ) :   0.9622 B(  2-C ,  3-C ) :   1.1992 B(  2-C ,  6-C ) :   1.0041
B(  3-C ,  4-C ) :   1.5993 B(  3-C ,  5-H ) :   0.9964 B(  4-C , 20-C ) :   1.0606
B(  6-C ,  7-H ) :   0.9389 B(  6-C ,  8-H ) :   0.9406 B(  6-C ,  9-C ) :   1.0621
B(  9-C , 10-H ) :   0.9509 B(  9-C , 11-H ) :   0.9562 B(  9-C , 12-C ) :   1.0719
B( 12-C , 13-H ) :   0.9734 B( 12-C , 14-H ) :   0.9754 B( 12-C , 15-H ) :   0.9727
B( 16-S , 17-C ) :   1.1598 B( 16-S , 20-C ) :   1.1672 B( 17-C , 18-C ) :   1.6041
B( 17-C , 33-H ) :   0.9746 B( 18-C , 19-C ) :   1.2347 B( 18-C , 21-H ) :   0.9911
B( 19-C , 20-C ) :   1.5371 B( 19-C , 22-C ) :   1.0588 B( 22-C , 23-H ) :   0.9214
B( 22-C , 24-H ) :   0.9285 B( 22-C , 25-C ) :   1.0686 B( 25-C , 26-H ) :   0.9618
B( 25-C , 27-H ) :   0.9455 B( 25-C , 28-C ) :   1.0874 B( 28-C , 29-H ) :   0.9746
B( 28-C , 30-H ) :   0.9755 B( 28-C , 31-H ) :   0.9698

Dispersion correction           -0.013571461
FINAL SINGLE POINT ENERGY     -1339.871987730111

DIPOLE MOMENT
-------------
                                X             Y             Z
Electronic contribution:     11.73324     -11.70752       0.14973
Nuclear contribution   :    -11.97800      11.81736      -0.03823
                        -----------------------------------------
Total Dipole Moment    :     -0.24476       0.10984       0.11150
                        -----------------------------------------
Magnitude (a.u.)       :      0.29052
Magnitude (Debye)      :      0.73845

Rotational constants in cm-1:     0.020549     0.007327     0.006215
Rotational constants in MHz :   616.030561   219.647391   186.326334

                             ****ORCA TERMINATED NORMALLY****
TOTAL RUN TIME: 0 days 0 hours 0 minutes 19 seconds 838 msec
