                         Program Version 4.2.1 -  RELEASE  -
|  1> ! wB97X-D3 SP def2-SVP
|  2> %pal
|  3> nprocs 24
|  4> end
|  5>
|  6> * xyz 0 1
|  7> S 	 -42.3703 	 17.7076 	 24.7895
|  8> C 	 -42.4208 	 18.1432 	 26.5783
|  9> C 	 -41.8839 	 17.0911 	 27.2727
| 10> C 	 -41.1111 	 16.1804 	 26.477
| 11> C 	 -41.2502 	 16.3838 	 25.1501
| 12> H 	 -40.4034 	 15.4088 	 26.7864
| 13> C 	 -41.9394 	 17.0421 	 28.7623
| 14> H 	 -42.1765 	 16.0743 	 29.1625
| 15> H 	 -42.624 	 17.8014 	 29.1955
| 16> C 	 -40.5648 	 17.2632 	 29.4371
| 17> H 	 -39.8199 	 16.4431 	 29.2082
| 18> H 	 -40.1641 	 18.0864 	 28.9046
| 19> C 	 -40.4746 	 17.5509 	 30.9151
| 20> H 	 -39.4275 	 17.3732 	 31.2739
| 21> H 	 -40.8064 	 18.5642 	 31.1354
| 22> H 	 -41.0914 	 16.9399 	 31.4521
| 23> S 	 -41.7329 	 14.7586 	 23.0085
| 24> C 	 -40.4568 	 14.1132 	 21.9742
| 25> C 	 -39.2229 	 14.5816 	 22.4388
| 26> C 	 -39.2806 	 15.5076 	 23.5531
| 27> C 	 -40.5976 	 15.6932 	 24.0362
| 28> H 	 -38.2723 	 14.2355 	 22.0136
| 29> C 	 -38.1535 	 16.2986 	 24.2069
| 30> H 	 -38.4438 	 16.493 	 25.2462
| 31> H 	 -38.1207 	 17.3411 	 23.7512
| 32> C 	 -36.7267 	 15.6181 	 24.1705
| 33> H 	 -36.5252 	 15.4015 	 23.0835
| 34> H 	 -36.7252 	 14.6365 	 24.7766
| 35> C 	 -35.6507 	 16.4934 	 24.8283
| 36> H 	 -34.6668 	 16.2077 	 24.6238
| 37> H 	 -35.6507 	 16.455 	 25.885
| 38> H 	 -35.6825 	 17.5309 	 24.5246
| 39> H 	 -43.0789 	 18.8525 	 26.974
| 40> H 	 -40.6193 	 13.2728 	 21.2449
| 41> *
| 42>
| 43>                          ****END OF INPUT****

CARTESIAN COORDINATES (ANGSTROEM)
---------------------------------
  S    -42.370300   17.707600   24.789500
  C    -42.420800   18.143200   26.578300
  C    -41.883900   17.091100   27.272700
  C    -41.111100   16.180400   26.477000
  C    -41.250200   16.383800   25.150100
  H    -40.403400   15.408800   26.786400
  C    -41.939400   17.042100   28.762300
  H    -42.176500   16.074300   29.162500
  H    -42.624000   17.801400   29.195500
  C    -40.564800   17.263200   29.437100
  H    -39.819900   16.443100   29.208200
  H    -40.164100   18.086400   28.904600
  C    -40.474600   17.550900   30.915100
  H    -39.427500   17.373200   31.273900
  H    -40.806400   18.564200   31.135400
  H    -41.091400   16.939900   31.452100
  S    -41.732900   14.758600   23.008500
  C    -40.456800   14.113200   21.974200
  C    -39.222900   14.581600   22.438800
  C    -39.280600   15.507600   23.553100
  C    -40.597600   15.693200   24.036200
  H    -38.272300   14.235500   22.013600
  C    -38.153500   16.298600   24.206900
  H    -38.443800   16.493000   25.246200
  H    -38.120700   17.341100   23.751200
  C    -36.726700   15.618100   24.170500
  H    -36.525200   15.401500   23.083500
  H    -36.725200   14.636500   24.776600
  C    -35.650700   16.493400   24.828300
  H    -34.666800   16.207700   24.623800
  H    -35.650700   16.455000   25.885000
  H    -35.682500   17.530900   24.524600
  H    -43.078900   18.852500   26.974000
  H    -40.619300   13.272800   21.244900

 Total Charge           Charge          ....    0
 Multiplicity           Mult            ....    1
 Number of Electrons    NEL             ....  134
 Basis Dimension        Dim             ....  322

ORBITAL ENERGIES
----------------

  NO   OCC          E(Eh)            E(eV)
   0   2.0000     -88.962966     -2420.8054
   1   2.0000     -88.961863     -2420.7754
   2   2.0000     -10.333015      -281.1756
   3   2.0000     -10.331998      -281.1480
   4   2.0000     -10.327614      -281.0287
   5   2.0000     -10.317448      -280.7520
   6   2.0000     -10.313270      -280.6383
   7   2.0000     -10.306829      -280.4631
   8   2.0000     -10.303150      -280.3630
   9   2.0000     -10.302703      -280.3508
  10   2.0000     -10.300410      -280.2884
  11   2.0000     -10.297211      -280.2014
  12   2.0000     -10.293338      -280.0960
  13   2.0000     -10.282761      -279.8081
  14   2.0000     -10.275007      -279.5971
  15   2.0000     -10.270681      -279.4794
  16   2.0000      -8.076916      -219.7841
  17   2.0000      -8.075470      -219.7447
  18   2.0000      -6.035440      -164.2327
  19   2.0000      -6.034192      -164.1987
  20   2.0000      -6.031361      -164.1217
  21   2.0000      -6.030352      -164.0942
  22   2.0000      -6.027849      -164.0261
  23   2.0000      -6.025811      -163.9707
  24   2.0000      -1.000911       -27.2362
  25   2.0000      -0.976376       -26.5685
  26   2.0000      -0.915087       -24.9008
  27   2.0000      -0.900050       -24.4916
  28   2.0000      -0.871279       -23.7087
  29   2.0000      -0.849214       -23.1083
  30   2.0000      -0.841923       -22.9099
  31   2.0000      -0.819557       -22.3013
  32   2.0000      -0.784095       -21.3363
  33   2.0000      -0.772018       -21.0077
  34   2.0000      -0.708175       -19.2704
  35   2.0000      -0.699696       -19.0397
  36   2.0000      -0.695359       -18.9217
  37   2.0000      -0.650564       -17.7027
  38   2.0000      -0.648383       -17.6434
  39   2.0000      -0.618140       -16.8204
  40   2.0000      -0.593228       -16.1426
  41   2.0000      -0.575509       -15.6604
  42   2.0000      -0.562948       -15.3186
  43   2.0000      -0.556956       -15.1555
  44   2.0000      -0.526862       -14.3366
  45   2.0000      -0.523549       -14.2465
  46   2.0000      -0.520425       -14.1615
  47   2.0000      -0.512863       -13.9557
  48   2.0000      -0.506496       -13.7825
  49   2.0000      -0.499414       -13.5898
  50   2.0000      -0.492126       -13.3914
  51   2.0000      -0.484488       -13.1836
  52   2.0000      -0.475075       -12.9274
  53   2.0000      -0.469931       -12.7875
  54   2.0000      -0.461035       -12.5454
  55   2.0000      -0.449106       -12.2208
  56   2.0000      -0.445192       -12.1143
  57   2.0000      -0.429172       -11.6784
  58   2.0000      -0.427597       -11.6355
  59   2.0000      -0.423872       -11.5341
  60   2.0000      -0.422316       -11.4918
  61   2.0000      -0.412188       -11.2162
  62   2.0000      -0.408377       -11.1125
  63   2.0000      -0.339729        -9.2445
  64   2.0000      -0.329844        -8.9755
  65   2.0000      -0.327237        -8.9046
  66   2.0000      -0.300694        -8.1823
  67   0.0000       0.033120         0.9012
  68   0.0000       0.051784         1.4091
  69   0.0000       0.101103         2.7511
  70   0.0000       0.123468         3.3597
  71   0.0000       0.126017         3.4291

MULLIKEN ATOMIC CHARGES
-----------------------
   0 S :    0.084758
   1 C :   -0.101624
   2 C :   -0.069336
   3 C :    0.049237
   4 C :   -0.151738
   5 H :    0.023961
   6 C :    0.092619
   7 H :    0.023805
   8 H :    0.022371
   9 C :   -0.137678
  10 H :    0.028872
  11 H :    0.015646
  12 C :    0.007195
  13 H :    0.041713
  14 H :    0.027063
  15 H :    0.002239
  16 S :    0.087676
  17 C :   -0.107377
  18 C :   -0.051127
  19 C :   -0.009487
  20 C :   -0.173491
  21 H :    0.029128
  22 C :    0.033483
  23 H :    0.025508
  24 H :    0.057221
  25 C :   -0.133181
  26 H :    0.046672
  27 H :    0.048933
  28 C :    0.008006
  29 H :    0.010363
  30 H :    0.020355
  31 H :    0.022374
  32 H :    0.037736
  33 H :    0.088106
Sum of atomic charges:    0.0000000

LOEWDIN ATOMIC CHARGES
----------------------
   0 S :    0.352517
   1 C :   -0.156591
   2 C :   -0.052690
   3 C :   -0.062142
   4 C :   -0.180319
   5 H :    0.038871
   6 C :   -0.030964
   7 H :    0.029146
   8 H :    0.032704
   9 C :   -0.049224
  10 H :    0.024856
  11 H :    0.015181
  12 C :   -0.057360
  13 H :    0.037943
  14 H :    0.025752
  15 H :    0.009206
  16 S :    0.386227
  17 C :   -0.191092
  18 C :   -0.078624
  19 C :   -0.054699
  20 C :   -0.188460
  21 H :    0.032333
  22 C :   -0.038663
  23 H :    0.029716
  24 H :    0.044176
  25 C :   -0.046103
  26 H :    0.026179
  27 H :    0.035537
  28 C :   -0.064529
  29 H :    0.020371
  30 H :    0.022618
  31 H :    0.024895
  32 H :    0.017586
  33 H :    0.045650

  Mayer bond orders larger than 0.100000
B(  0-S ,  1-C ) :   1.0941 B(  0-S ,  4-C ) :   1.1308 B(  1-C ,  2-C ) :   1.6556
B(  1-C , 32-H ) :   0.9750 B(  2-C ,  3-C ) :   1.1533 B(  2-C ,  6-C ) :   1.0611
B(  3-C ,  4-C ) :   1.6520 B(  3-C ,  5-H ) :   0.9919 B(  4-C , 20-C ) :   1.0034
B(  6-C ,  7-H ) :   0.9284 B(  6-C ,  8-H ) :   0.9435 B(  6-C ,  9-C ) :   1.0427
B(  9-C , 10-H ) :   0.9551 B(  9-C , 11-H ) :   0.9573 B(  9-C , 12-C ) :   1.0909
B( 12-C , 13-H ) :   0.9724 B( 12-C , 14-H ) :   0.9721 B( 12-C , 15-H ) :   0.9718
B( 16-S , 17-C ) :   1.1582 B( 16-S , 20-C ) :   1.1469 B( 17-C , 18-C ) :   1.5915
B( 17-C , 20-C ) :   0.1097 B( 17-C , 33-H ) :   0.9603 B( 18-C , 19-C ) :   1.2448
B( 18-C , 21-H ) :   0.9838 B( 19-C , 20-C ) :   1.5864 B( 19-C , 22-C ) :   1.0373
B( 22-C , 23-H ) :   0.9394 B( 22-C , 24-H ) :   0.9320 B( 22-C , 25-C ) :   1.0521
B( 25-C , 26-H ) :   0.9546 B( 25-C , 27-H ) :   0.9595 B( 25-C , 28-C ) :   1.0832
B( 28-C , 29-H ) :   0.9695 B( 28-C , 30-H ) :   0.9727 B( 28-C , 31-H ) :   0.9724

Dispersion correction           -0.013470699
FINAL SINGLE POINT ENERGY     -1339.862933985558

DIPOLE MOMENT
-------------
                                X             Y             Z
Electronic contribution:    -21.82615      -3.85344     -21.77597
Nuclear contribution   :     22.41147       3.72166      22.35037
                        -----------------------------------------
Total Dipole Moment    :      0.58532      -0.13178       0.57440
                        -----------------------------------------
Magnitude (a.u.)       :      0.83060
Magnitude (Debye)      :      2.11121

Rotational constants in cm-1:     0.016246     0.008541     0.006245
Rotational constants in MHz :   487.034593   256.048551   187.208711

                             ****ORCA TERMINATED NORMALLY****
TOTAL RUN TIME: 0 days 0 hours 0 minutes 20 seconds 673 msec
