                         Program Version 4.2.1 -  RELEASE  -
|  1> ! wB97X-D3 SP def2-SVP
|  2> %pal
|  3> nprocs 24
|  4> end
|  5>
|  6> * xyz 0 1
|  7> S 	 -77.9214 	 -2.7485 	 4.7234
|  8> C 	 -77.7183 	 -2.05654 	 3.12256
|  9> C 	 -78.0621 	 -3.04776 	 2.17659
| 10> C 	 -78.2926 	 -4.32077 	 2.73076
| 11> C 	 -77.9852 	 -4.35024 	 4.05828
| 12> H 	 -78.5049 	 -5.2444 	 2.13779
| 13> C 	 -78.2238 	 -2.81485 	 0.657652
| 14> H 	 -79.0246 	 -2.0144 	 0.564601
| 15> H 	 -78.5497 	 -3.73855 	 0.105446
| 16> C 	 -76.9025 	 -2.37574 	 -0.0820696
| 17> H 	 -77.107 	 -1.8407 	 -1.00392
| 18> H 	 -76.3262 	 -1.56699 	 0.371342
| 19> C 	 -75.8684 	 -3.50536 	 -0.409547
| 20> H 	 -76.4313 	 -4.20558 	 -1.02966
| 21> H 	 -75.0412 	 -3.00008 	 -0.997764
| 22> H 	 -75.334 	 -3.94543 	 0.426154
| 23> S 	 -79.6368 	 -5.53622 	 5.86867
| 24> C 	 -79.4706 	 -7.23954 	 6.14873
| 25> C 	 -78.5208 	 -7.81842 	 5.41875
| 26> C 	 -77.8314 	 -6.89853 	 4.56632
| 27> C 	 -78.249 	 -5.58701 	 4.80908
| 28> H 	 -78.3494 	 -8.86731 	 5.4633
| 29> C 	 -76.8125 	 -7.37068 	 3.54986
| 30> H 	 -76.7682 	 -6.51219 	 2.91538
| 31> H 	 -77.3034 	 -8.14893 	 3.03538
| 32> C 	 -75.5654 	 -7.72983 	 4.22271
| 33> H 	 -75.867 	 -8.60065 	 4.8163
| 34> H 	 -75.0603 	 -6.98974 	 4.85971
| 35> C 	 -74.4945 	 -8.39602 	 3.37039
| 36> H 	 -75.0106 	 -9.12076 	 2.78129
| 37> H 	 -73.7816 	 -8.89722 	 3.97007
| 38> H 	 -74.0769 	 -7.71694 	 2.69422
| 39> H 	 -77.7602 	 -1.02443 	 2.92595
| 40> H 	 -80.0686 	 -7.86434 	 6.81717
| 41> *
| 42>
| 43>                          ****END OF INPUT****

CARTESIAN COORDINATES (ANGSTROEM)
---------------------------------
  S    -77.921400   -2.748500    4.723400
  C    -77.718300   -2.056540    3.122560
  C    -78.062100   -3.047760    2.176590
  C    -78.292600   -4.320770    2.730760
  C    -77.985200   -4.350240    4.058280
  H    -78.504900   -5.244400    2.137790
  C    -78.223800   -2.814850    0.657652
  H    -79.024600   -2.014400    0.564601
  H    -78.549700   -3.738550    0.105446
  C    -76.902500   -2.375740   -0.082070
  H    -77.107000   -1.840700   -1.003920
  H    -76.326200   -1.566990    0.371342
  C    -75.868400   -3.505360   -0.409547
  H    -76.431300   -4.205580   -1.029660
  H    -75.041200   -3.000080   -0.997764
  H    -75.334000   -3.945430    0.426154
  S    -79.636800   -5.536220    5.868670
  C    -79.470600   -7.239540    6.148730
  C    -78.520800   -7.818420    5.418750
  C    -77.831400   -6.898530    4.566320
  C    -78.249000   -5.587010    4.809080
  H    -78.349400   -8.867310    5.463300
  C    -76.812500   -7.370680    3.549860
  H    -76.768200   -6.512190    2.915380
  H    -77.303400   -8.148930    3.035380
  C    -75.565400   -7.729830    4.222710
  H    -75.867000   -8.600650    4.816300
  H    -75.060300   -6.989740    4.859710
  C    -74.494500   -8.396020    3.370390
  H    -75.010600   -9.120760    2.781290
  H    -73.781600   -8.897220    3.970070
  H    -74.076900   -7.716940    2.694220
  H    -77.760200   -1.024430    2.925950
  H    -80.068600   -7.864340    6.817170

 Total Charge           Charge          ....    0
 Multiplicity           Mult            ....    1
 Number of Electrons    NEL             ....  134
 Basis Dimension        Dim             ....  322

ORBITAL ENERGIES
----------------

  NO   OCC          E(Eh)            E(eV)
   0   2.0000     -88.969645     -2420.9871
   1   2.0000     -88.962179     -2420.7840
   2   2.0000     -10.325580      -280.9733
   3   2.0000     -10.323262      -280.9102
   4   2.0000     -10.313601      -280.6473
   5   2.0000     -10.307992      -280.4947
   6   2.0000     -10.306905      -280.4651
   7   2.0000     -10.304519      -280.4002
   8   2.0000     -10.298653      -280.2406
   9   2.0000     -10.292412      -280.0708
  10   2.0000     -10.289389      -279.9885
  11   2.0000     -10.283821      -279.8370
  12   2.0000     -10.282651      -279.8052
  13   2.0000     -10.281534      -279.7748
  14   2.0000     -10.278846      -279.7016
  15   2.0000     -10.263010      -279.2707
  16   2.0000      -8.084270      -219.9842
  17   2.0000      -8.077520      -219.8005
  18   2.0000      -6.042781      -164.4324
  19   2.0000      -6.038936      -164.3278
  20   2.0000      -6.036059      -164.2495
  21   2.0000      -6.034890      -164.2177
  22   2.0000      -6.032082      -164.1413
  23   2.0000      -6.028073      -164.0322
  24   2.0000      -1.011632       -27.5279
  25   2.0000      -0.988148       -26.8889
  26   2.0000      -0.923140       -25.1199
  27   2.0000      -0.900250       -24.4971
  28   2.0000      -0.870260       -23.6810
  29   2.0000      -0.855288       -23.2736
  30   2.0000      -0.847165       -23.0525
  31   2.0000      -0.816365       -22.2144
  32   2.0000      -0.783413       -21.3177
  33   2.0000      -0.770003       -20.9528
  34   2.0000      -0.704797       -19.1785
  35   2.0000      -0.700663       -19.0660
  36   2.0000      -0.692994       -18.8573
  37   2.0000      -0.660202       -17.9650
  38   2.0000      -0.639649       -17.4057
  39   2.0000      -0.613679       -16.6991
  40   2.0000      -0.593306       -16.1447
  41   2.0000      -0.577992       -15.7280
  42   2.0000      -0.568703       -15.4752
  43   2.0000      -0.545936       -14.8557
  44   2.0000      -0.540197       -14.6995
  45   2.0000      -0.537864       -14.6360
  46   2.0000      -0.515388       -14.0244
  47   2.0000      -0.514986       -14.0135
  48   2.0000      -0.504292       -13.7225
  49   2.0000      -0.499077       -13.5806
  50   2.0000      -0.490768       -13.3545
  51   2.0000      -0.479031       -13.0351
  52   2.0000      -0.469300       -12.7703
  53   2.0000      -0.465690       -12.6721
  54   2.0000      -0.457691       -12.4544
  55   2.0000      -0.453382       -12.3371
  56   2.0000      -0.445464       -12.1217
  57   2.0000      -0.440377       -11.9833
  58   2.0000      -0.429022       -11.6743
  59   2.0000      -0.425611       -11.5815
  60   2.0000      -0.421061       -11.4576
  61   2.0000      -0.411640       -11.2013
  62   2.0000      -0.403638       -10.9836
  63   2.0000      -0.348175        -9.4743
  64   2.0000      -0.330202        -8.9852
  65   2.0000      -0.324943        -8.8421
  66   2.0000      -0.294214        -8.0060
  67   0.0000       0.029216         0.7950
  68   0.0000       0.068698         1.8694
  69   0.0000       0.107243         2.9182
  70   0.0000       0.121298         3.3007
  71   0.0000       0.136967         3.7271

MULLIKEN ATOMIC CHARGES
-----------------------
   0 S :    0.109806
   1 C :   -0.085072
   2 C :   -0.096501
   3 C :    0.017067
   4 C :   -0.157885
   5 H :    0.043699
   6 C :    0.036187
   7 H :    0.050639
   8 H :    0.032805
   9 C :   -0.083097
  10 H :    0.019193
  11 H :    0.017709
  12 C :   -0.070277
  13 H :    0.033656
  14 H :    0.038177
  15 H :    0.048854
  16 S :    0.104449
  17 C :   -0.070478
  18 C :   -0.026926
  19 C :   -0.113807
  20 C :   -0.144226
  21 H :    0.004480
  22 C :    0.170149
  23 H :   -0.000645
  24 H :    0.013300
  25 C :   -0.108888
  26 H :    0.014593
  27 H :    0.043509
  28 C :    0.030780
  29 H :   -0.000582
  30 H :    0.028254
  31 H :    0.015228
  32 H :    0.038948
  33 H :    0.046905
Sum of atomic charges:    0.0000000

LOEWDIN ATOMIC CHARGES
----------------------
   0 S :    0.416878
   1 C :   -0.197676
   2 C :   -0.058695
   3 C :   -0.067129
   4 C :   -0.203434
   5 H :    0.042101
   6 C :   -0.035580
   7 H :    0.040304
   8 H :    0.032928
   9 C :   -0.051048
  10 H :    0.022827
  11 H :    0.020806
  12 C :   -0.067494
  13 H :    0.021811
  14 H :    0.034968
  15 H :    0.025063
  16 S :    0.404583
  17 C :   -0.187429
  18 C :   -0.073449
  19 C :   -0.047981
  20 C :   -0.197473
  21 H :    0.027092
  22 C :   -0.026016
  23 H :    0.022658
  24 H :    0.028683
  25 C :   -0.041046
  26 H :    0.026590
  27 H :    0.031357
  28 C :   -0.050571
  29 H :    0.018564
  30 H :    0.022514
  31 H :    0.014154
  32 H :    0.019146
  33 H :    0.031995

  Mayer bond orders larger than 0.100000
B(  0-S ,  1-C ) :   1.1369 B(  0-S ,  4-C ) :   1.1751 B(  1-C ,  2-C ) :   1.5752
B(  1-C ,  4-C ) :   0.1033 B(  1-C , 32-H ) :   0.9747 B(  2-C ,  3-C ) :   1.2864
B(  2-C ,  6-C ) :   1.0119 B(  3-C ,  4-C ) :   1.5269 B(  3-C ,  5-H ) :   0.9819
B(  4-C , 20-C ) :   1.0202 B(  6-C ,  7-H ) :   0.9397 B(  6-C ,  8-H ) :   0.9534
B(  6-C ,  9-C ) :   1.0559 B(  9-C , 10-H ) :   0.9562 B(  9-C , 11-H ) :   0.9586
B(  9-C , 12-C ) :   1.0710 B( 12-C , 13-H ) :   0.9779 B( 12-C , 14-H ) :   0.9731
B( 12-C , 15-H ) :   0.9792 B( 16-S , 17-C ) :   1.1382 B( 16-S , 20-C ) :   1.1430
B( 17-C , 18-C ) :   1.6576 B( 17-C , 33-H ) :   0.9581 B( 18-C , 19-C ) :   1.2192
B( 18-C , 21-H ) :   0.9927 B( 19-C , 20-C ) :   1.6327 B( 19-C , 22-C ) :   1.0216
B( 22-C , 23-H ) :   0.9129 B( 22-C , 24-H ) :   0.9204 B( 22-C , 25-C ) :   1.0867
B( 25-C , 26-H ) :   0.9548 B( 25-C , 27-H ) :   0.9559 B( 25-C , 28-C ) :   1.0864
B( 28-C , 29-H ) :   0.9693 B( 28-C , 30-H ) :   0.9746 B( 28-C , 31-H ) :   0.9722

Dispersion correction           -0.013916095
FINAL SINGLE POINT ENERGY     -1339.851636146499

DIPOLE MOMENT
-------------
                                X             Y             Z
Electronic contribution:    -17.49079       8.69781      22.74989
Nuclear contribution   :     17.51509      -9.00492     -23.35964
                        -----------------------------------------
Total Dipole Moment    :      0.02431      -0.30711      -0.60975
                        -----------------------------------------
Magnitude (a.u.)       :      0.68315
Magnitude (Debye)      :      1.73644

Rotational constants in cm-1:     0.016695     0.009553     0.006844
Rotational constants in MHz :   500.492049   286.391987   205.183566

                             ****ORCA TERMINATED NORMALLY****
TOTAL RUN TIME: 0 days 0 hours 0 minutes 21 seconds 702 msec
