                         Program Version 4.2.1 -  RELEASE  -
|  1> ! wB97X-D3 SP def2-SVP
|  2> %pal
|  3> nprocs 24
|  4> end
|  5>
|  6> * xyz 0 1
|  7> S 	 -79.1917 	 -5.56987 	 3.22682
|  8> C 	 -77.8568 	 -4.64327 	 2.72191
|  9> C 	 -77.239 	 -5.12446 	 1.55279
| 10> C 	 -77.7176 	 -6.49641 	 1.30423
| 11> C 	 -78.6407 	 -6.90951 	 2.23675
| 12> H 	 -77.407 	 -7.23682 	 0.578868
| 13> C 	 -76.1197 	 -4.42572 	 0.695874
| 14> H 	 -76.5377 	 -3.45335 	 0.312308
| 15> H 	 -75.9995 	 -4.99273 	 -0.256584
| 16> C 	 -74.7689 	 -4.21193 	 1.3724
| 17> H 	 -74.027 	 -3.94249 	 0.639824
| 18> H 	 -74.9696 	 -3.41537 	 2.10666
| 19> C 	 -74.1974 	 -5.54825 	 1.96892
| 20> H 	 -73.1227 	 -5.58519 	 2.18266
| 21> H 	 -74.61 	 -5.67419 	 2.95834
| 22> H 	 -74.3861 	 -6.3806 	 1.31508
| 23> S 	 -81.0263 	 -8.34665 	 2.15478
| 24> C 	 -81.0178 	 -10.0811 	 2.44828
| 25> C 	 -79.7111 	 -10.4823 	 2.73321
| 26> C 	 -78.7284 	 -9.49444 	 2.51621
| 27> C 	 -79.264 	 -8.23291 	 2.33464
| 28> H 	 -79.4388 	 -11.5362 	 2.84658
| 29> C 	 -77.2412 	 -9.65322 	 2.49633
| 30> H 	 -77.0293 	 -10.054 	 3.55224
| 31> H 	 -76.8119 	 -8.63328 	 2.32812
| 32> C 	 -76.7573 	 -10.6067 	 1.45107
| 33> H 	 -77.1796 	 -10.2162 	 0.475208
| 34> H 	 -77.1408 	 -11.6223 	 1.70735
| 35> C 	 -75.2454 	 -10.6011 	 1.38623
| 36> H 	 -74.8043 	 -11.0987 	 0.51886
| 37> H 	 -74.9154 	 -11.2836 	 2.23764
| 38> H 	 -74.7644 	 -9.67468 	 1.60924
| 39> H 	 -77.729 	 -3.58199 	 2.97399
| 40> H 	 -81.948 	 -10.6352 	 2.42296
| 41> *
| 42>
| 43>                          ****END OF INPUT****

CARTESIAN COORDINATES (ANGSTROEM)
---------------------------------
  S    -79.191700   -5.569870    3.226820
  C    -77.856800   -4.643270    2.721910
  C    -77.239000   -5.124460    1.552790
  C    -77.717600   -6.496410    1.304230
  C    -78.640700   -6.909510    2.236750
  H    -77.407000   -7.236820    0.578868
  C    -76.119700   -4.425720    0.695874
  H    -76.537700   -3.453350    0.312308
  H    -75.999500   -4.992730   -0.256584
  C    -74.768900   -4.211930    1.372400
  H    -74.027000   -3.942490    0.639824
  H    -74.969600   -3.415370    2.106660
  C    -74.197400   -5.548250    1.968920
  H    -73.122700   -5.585190    2.182660
  H    -74.610000   -5.674190    2.958340
  H    -74.386100   -6.380600    1.315080
  S    -81.026300   -8.346650    2.154780
  C    -81.017800  -10.081100    2.448280
  C    -79.711100  -10.482300    2.733210
  C    -78.728400   -9.494440    2.516210
  C    -79.264000   -8.232910    2.334640
  H    -79.438800  -11.536200    2.846580
  C    -77.241200   -9.653220    2.496330
  H    -77.029300  -10.054000    3.552240
  H    -76.811900   -8.633280    2.328120
  C    -76.757300  -10.606700    1.451070
  H    -77.179600  -10.216200    0.475208
  H    -77.140800  -11.622300    1.707350
  C    -75.245400  -10.601100    1.386230
  H    -74.804300  -11.098700    0.518860
  H    -74.915400  -11.283600    2.237640
  H    -74.764400   -9.674680    1.609240
  H    -77.729000   -3.581990    2.973990
  H    -81.948000  -10.635200    2.422960

 Total Charge           Charge          ....    0
 Multiplicity           Mult            ....    1
 Number of Electrons    NEL             ....  134
 Basis Dimension        Dim             ....  322

ORBITAL ENERGIES
----------------

  NO   OCC          E(Eh)            E(eV)
   0   2.0000     -88.968021     -2420.9429
   1   2.0000     -88.961615     -2420.7686
   2   2.0000     -10.328140      -281.0430
   3   2.0000     -10.323569      -280.9186
   4   2.0000     -10.323515      -280.9171
   5   2.0000     -10.314614      -280.6749
   6   2.0000     -10.313456      -280.6434
   7   2.0000     -10.304074      -280.3881
   8   2.0000     -10.299225      -280.2562
   9   2.0000     -10.297896      -280.2200
  10   2.0000     -10.297245      -280.2023
  11   2.0000     -10.292218      -280.0655
  12   2.0000     -10.292092      -280.0621
  13   2.0000     -10.291858      -280.0557
  14   2.0000     -10.279548      -279.7207
  15   2.0000     -10.276178      -279.6290
  16   2.0000      -8.083540      -219.9643
  17   2.0000      -8.076144      -219.7630
  18   2.0000      -6.041988      -164.4108
  19   2.0000      -6.038149      -164.3064
  20   2.0000      -6.034604      -164.2099
  21   2.0000      -6.034095      -164.1961
  22   2.0000      -6.030651      -164.1023
  23   2.0000      -6.027007      -164.0032
  24   2.0000      -1.006678       -27.3931
  25   2.0000      -0.984053       -26.7774
  26   2.0000      -0.916617       -24.9424
  27   2.0000      -0.906306       -24.6618
  28   2.0000      -0.868347       -23.6289
  29   2.0000      -0.851537       -23.1715
  30   2.0000      -0.843612       -22.9558
  31   2.0000      -0.810408       -22.0523
  32   2.0000      -0.781978       -21.2787
  33   2.0000      -0.770574       -20.9684
  34   2.0000      -0.702191       -19.1076
  35   2.0000      -0.696058       -18.9407
  36   2.0000      -0.694802       -18.9065
  37   2.0000      -0.658288       -17.9129
  38   2.0000      -0.642541       -17.4844
  39   2.0000      -0.607339       -16.5265
  40   2.0000      -0.594953       -16.1895
  41   2.0000      -0.575437       -15.6584
  42   2.0000      -0.571411       -15.5489
  43   2.0000      -0.547767       -14.9055
  44   2.0000      -0.540925       -14.7193
  45   2.0000      -0.530804       -14.4439
  46   2.0000      -0.516692       -14.0599
  47   2.0000      -0.506533       -13.7835
  48   2.0000      -0.504234       -13.7209
  49   2.0000      -0.497142       -13.5279
  50   2.0000      -0.485465       -13.2102
  51   2.0000      -0.478586       -13.0230
  52   2.0000      -0.470897       -12.8137
  53   2.0000      -0.467076       -12.7098
  54   2.0000      -0.453050       -12.3281
  55   2.0000      -0.448940       -12.2163
  56   2.0000      -0.444360       -12.0916
  57   2.0000      -0.440160       -11.9774
  58   2.0000      -0.434767       -11.8306
  59   2.0000      -0.425089       -11.5673
  60   2.0000      -0.419504       -11.4153
  61   2.0000      -0.413063       -11.2400
  62   2.0000      -0.407054       -11.0765
  63   2.0000      -0.345295        -9.3960
  64   2.0000      -0.329450        -8.9648
  65   2.0000      -0.327396        -8.9089
  66   2.0000      -0.292925        -7.9709
  67   0.0000       0.032075         0.8728
  68   0.0000       0.058677         1.5967
  69   0.0000       0.108037         2.9398
  70   0.0000       0.120388         3.2759
  71   0.0000       0.125433         3.4132

MULLIKEN ATOMIC CHARGES
-----------------------
   0 S :    0.134515
   1 C :   -0.108692
   2 C :   -0.112342
   3 C :    0.044057
   4 C :   -0.179947
   5 H :    0.014692
   6 C :    0.023852
   7 H :    0.042247
   8 H :    0.026291
   9 C :   -0.054001
  10 H :    0.036020
  11 H :    0.039012
  12 C :   -0.060571
  13 H :    0.030583
  14 H :    0.039579
  15 H :    0.029274
  16 S :    0.088022
  17 C :   -0.104508
  18 C :   -0.016246
  19 C :   -0.034836
  20 C :   -0.169023
  21 H :    0.022985
  22 C :    0.017774
  23 H :    0.041762
  24 H :    0.039293
  25 C :   -0.090901
  26 H :    0.036513
  27 H :    0.037814
  28 C :   -0.027250
  29 H :    0.039355
  30 H :    0.021477
  31 H :    0.027777
  32 H :    0.055911
  33 H :    0.069513
Sum of atomic charges:   -0.0000000

LOEWDIN ATOMIC CHARGES
----------------------
   0 S :    0.427512
   1 C :   -0.219484
   2 C :   -0.057642
   3 C :   -0.060383
   4 C :   -0.195551
   5 H :    0.030866
   6 C :   -0.039278
   7 H :    0.035862
   8 H :    0.030420
   9 C :   -0.037957
  10 H :    0.025686
  11 H :    0.026887
  12 C :   -0.068389
  13 H :    0.026549
  14 H :    0.027506
  15 H :    0.021673
  16 S :    0.385614
  17 C :   -0.174261
  18 C :   -0.076084
  19 C :   -0.059742
  20 C :   -0.196817
  21 H :    0.031955
  22 C :   -0.039029
  23 H :    0.039136
  24 H :    0.035228
  25 C :   -0.046618
  26 H :    0.027392
  27 H :    0.028092
  28 C :   -0.070832
  29 H :    0.026736
  30 H :    0.033478
  31 H :    0.020605
  32 H :    0.029962
  33 H :    0.030905

  Mayer bond orders larger than 0.100000
B(  0-S ,  1-C ) :   1.1542 B(  0-S ,  4-C ) :   1.1491 B(  1-C ,  2-C ) :   1.6196
B(  1-C , 32-H ) :   0.9611 B(  2-C ,  3-C ) :   1.2131 B(  2-C ,  6-C ) :   1.0089
B(  3-C ,  4-C ) :   1.5863 B(  3-C ,  5-H ) :   0.9928 B(  4-C , 20-C ) :   1.0309
B(  6-C ,  7-H ) :   0.9438 B(  6-C ,  8-H ) :   0.9452 B(  6-C ,  9-C ) :   1.0757
B(  9-C , 10-H ) :   0.9574 B(  9-C , 11-H ) :   0.9605 B(  9-C , 12-C ) :   1.0624
B( 12-C , 13-H ) :   0.9774 B( 12-C , 14-H ) :   0.9730 B( 12-C , 15-H ) :   0.9781
B( 16-S , 17-C ) :   1.1651 B( 16-S , 20-C ) :   1.1385 B( 17-C , 18-C ) :   1.5715
B( 17-C , 20-C ) :   0.1092 B( 17-C , 33-H ) :   0.9729 B( 18-C , 19-C ) :   1.2588
B( 18-C , 21-H ) :   0.9837 B( 19-C , 20-C ) :   1.5956 B( 19-C , 22-C ) :   1.0424
B( 22-C , 23-H ) :   0.9252 B( 22-C , 24-H ) :   0.9340 B( 22-C , 25-C ) :   1.0643
B( 25-C , 26-H ) :   0.9530 B( 25-C , 27-H ) :   0.9527 B( 25-C , 28-C ) :   1.0854
B( 28-C , 29-H ) :   0.9745 B( 28-C , 30-H ) :   0.9681 B( 28-C , 31-H ) :   0.9732

Dispersion correction           -0.014972396
FINAL SINGLE POINT ENERGY     -1339.871444846407

DIPOLE MOMENT
-------------
                                X             Y             Z
Electronic contribution:    -29.72947       4.48684       6.88158
Nuclear contribution   :     30.29963      -4.64232      -7.16548
                        -----------------------------------------
Total Dipole Moment    :      0.57016      -0.15548      -0.28390
                        -----------------------------------------
Magnitude (a.u.)       :      0.65563
Magnitude (Debye)      :      1.66648

Rotational constants in cm-1:     0.017893     0.009908     0.006842
Rotational constants in MHz :   536.408298   297.031845   205.106446

                             ****ORCA TERMINATED NORMALLY****
TOTAL RUN TIME: 0 days 0 hours 0 minutes 22 seconds 339 msec
