                         Program Version 4.2.1 -  RELEASE  -
|  1> ! wB97X-D3 SP def2-SVP
|  2> %pal
|  3> nprocs 24
|  4> end
|  5>
|  6> * xyz 0 1
|  7> S 	 -104.718 	 49.5752 	 -97.5328
|  8> C 	 -104.482 	 49.4091 	 -95.8264
|  9> C 	 -105.658 	 49.0194 	 -95.2509
| 10> C 	 -106.667 	 48.6241 	 -96.2424
| 11> C 	 -106.24 	 48.6718 	 -97.5613
| 12> H 	 -107.72 	 48.3146 	 -96
| 13> C 	 -105.892 	 48.938 	 -93.7411
| 14> H 	 -106.841 	 49.3997 	 -93.6621
| 15> H 	 -105.136 	 49.4614 	 -93.091
| 16> C 	 -105.981 	 47.4898 	 -93.247
| 17> H 	 -106.298 	 47.5801 	 -92.1989
| 18> H 	 -106.779 	 46.9099 	 -93.8227
| 19> C 	 -104.611 	 46.7307 	 -93.4138
| 20> H 	 -104.44 	 46.2534 	 -94.4088
| 21> H 	 -103.8 	 47.3748 	 -93.186
| 22> H 	 -104.445 	 46.0059 	 -92.6754
| 23> S 	 -107.983 	 46.9283 	 -98.7841
| 24> C 	 -108.56 	 47.3195 	 -100.352
| 25> C 	 -108.052 	 48.5551 	 -100.817
| 26> C 	 -107.122 	 49.1415 	 -99.9194
| 27> C 	 -107.109 	 48.4705 	 -98.7227
| 28> H 	 -108.374 	 48.9829 	 -101.796
| 29> C 	 -106.387 	 50.4136 	 -100.286
| 30> H 	 -105.325 	 50.1875 	 -100.436
| 31> H 	 -106.31 	 51.0383 	 -99.3951
| 32> C 	 -107.088 	 51.3672 	 -101.237
| 33> H 	 -108.097 	 51.7713 	 -100.954
| 34> H 	 -107.208 	 50.8173 	 -102.145
| 35> C 	 -106.273 	 52.613 	 -101.427
| 36> H 	 -106.215 	 53.2187 	 -100.541
| 37> H 	 -106.853 	 53.2093 	 -102.182
| 38> H 	 -105.284 	 52.3652 	 -101.825
| 39> H 	 -103.521 	 49.5306 	 -95.4066
| 40> H 	 -109.366 	 46.8075 	 -100.831
| 41> *
| 42>
| 43>                          ****END OF INPUT****

CARTESIAN COORDINATES (ANGSTROEM)
---------------------------------
  S    -104.718000   49.575200  -97.532800
  C    -104.482000   49.409100  -95.826400
  C    -105.658000   49.019400  -95.250900
  C    -106.667000   48.624100  -96.242400
  C    -106.240000   48.671800  -97.561300
  H    -107.720000   48.314600  -96.000000
  C    -105.892000   48.938000  -93.741100
  H    -106.841000   49.399700  -93.662100
  H    -105.136000   49.461400  -93.091000
  C    -105.981000   47.489800  -93.247000
  H    -106.298000   47.580100  -92.198900
  H    -106.779000   46.909900  -93.822700
  C    -104.611000   46.730700  -93.413800
  H    -104.440000   46.253400  -94.408800
  H    -103.800000   47.374800  -93.186000
  H    -104.445000   46.005900  -92.675400
  S    -107.983000   46.928300  -98.784100
  C    -108.560000   47.319500  -100.352000
  C    -108.052000   48.555100  -100.817000
  C    -107.122000   49.141500  -99.919400
  C    -107.109000   48.470500  -98.722700
  H    -108.374000   48.982900  -101.796000
  C    -106.387000   50.413600  -100.286000
  H    -105.325000   50.187500  -100.436000
  H    -106.310000   51.038300  -99.395100
  C    -107.088000   51.367200  -101.237000
  H    -108.097000   51.771300  -100.954000
  H    -107.208000   50.817300  -102.145000
  C    -106.273000   52.613000  -101.427000
  H    -106.215000   53.218700  -100.541000
  H    -106.853000   53.209300  -102.182000
  H    -105.284000   52.365200  -101.825000
  H    -103.521000   49.530600  -95.406600
  H    -109.366000   46.807500  -100.831000

 Total Charge           Charge          ....    0
 Multiplicity           Mult            ....    1
 Number of Electrons    NEL             ....  134
 Basis Dimension        Dim             ....  322

ORBITAL ENERGIES
----------------

  NO   OCC          E(Eh)            E(eV)
   0   2.0000     -88.969122     -2420.9729
   1   2.0000     -88.958909     -2420.6950
   2   2.0000     -10.331157      -281.1251
   3   2.0000     -10.326067      -280.9866
   4   2.0000     -10.315434      -280.6972
   5   2.0000     -10.309101      -280.5249
   6   2.0000     -10.303620      -280.3757
   7   2.0000     -10.300688      -280.2960
   8   2.0000     -10.300433      -280.2890
   9   2.0000     -10.297368      -280.2056
  10   2.0000     -10.293900      -280.1113
  11   2.0000     -10.292566      -280.0750
  12   2.0000     -10.289412      -279.9891
  13   2.0000     -10.285840      -279.8919
  14   2.0000     -10.277838      -279.6742
  15   2.0000     -10.272252      -279.5222
  16   2.0000      -8.083829      -219.9722
  17   2.0000      -8.073706      -219.6967
  18   2.0000      -6.042311      -164.4197
  19   2.0000      -6.038356      -164.3120
  20   2.0000      -6.034613      -164.2102
  21   2.0000      -6.032405      -164.1501
  22   2.0000      -6.028235      -164.0366
  23   2.0000      -6.024226      -163.9275
  24   2.0000      -1.006228       -27.3809
  25   2.0000      -0.984674       -26.7943
  26   2.0000      -0.917682       -24.9714
  27   2.0000      -0.907160       -24.6851
  28   2.0000      -0.868362       -23.6293
  29   2.0000      -0.857902       -23.3447
  30   2.0000      -0.835046       -22.7228
  31   2.0000      -0.808378       -21.9971
  32   2.0000      -0.783257       -21.3135
  33   2.0000      -0.776172       -21.1207
  34   2.0000      -0.704509       -19.1707
  35   2.0000      -0.701256       -19.0821
  36   2.0000      -0.690087       -18.7782
  37   2.0000      -0.659131       -17.9359
  38   2.0000      -0.634916       -17.2770
  39   2.0000      -0.615159       -16.7393
  40   2.0000      -0.601619       -16.3709
  41   2.0000      -0.573139       -15.5959
  42   2.0000      -0.567459       -15.4413
  43   2.0000      -0.549081       -14.9413
  44   2.0000      -0.537694       -14.6314
  45   2.0000      -0.530343       -14.4314
  46   2.0000      -0.519008       -14.1229
  47   2.0000      -0.514851       -14.0098
  48   2.0000      -0.499596       -13.5947
  49   2.0000      -0.493405       -13.4262
  50   2.0000      -0.484100       -13.1730
  51   2.0000      -0.479169       -13.0388
  52   2.0000      -0.473302       -12.8792
  53   2.0000      -0.464380       -12.6364
  54   2.0000      -0.460378       -12.5275
  55   2.0000      -0.448685       -12.2093
  56   2.0000      -0.443418       -12.0660
  57   2.0000      -0.438067       -11.9204
  58   2.0000      -0.431139       -11.7319
  59   2.0000      -0.427119       -11.6225
  60   2.0000      -0.423819       -11.5327
  61   2.0000      -0.409339       -11.1387
  62   2.0000      -0.399571       -10.8729
  63   2.0000      -0.356050        -9.6886
  64   2.0000      -0.334038        -9.0896
  65   2.0000      -0.319144        -8.6844
  66   2.0000      -0.286199        -7.7879
  67   0.0000       0.025875         0.7041
  68   0.0000       0.074246         2.0203
  69   0.0000       0.105270         2.8645
  70   0.0000       0.114489         3.1154
  71   0.0000       0.137021         3.7285

MULLIKEN ATOMIC CHARGES
-----------------------
   0 S :    0.060283
   1 C :   -0.112372
   2 C :   -0.065497
   3 C :   -0.033412
   4 C :   -0.094945
   5 H :    0.035898
   6 C :    0.066223
   7 H :    0.023851
   8 H :    0.037766
   9 C :   -0.102759
  10 H :    0.035702
  11 H :    0.044673
  12 C :   -0.028199
  13 H :    0.056331
  14 H :    0.002945
  15 H :    0.015454
  16 S :    0.115496
  17 C :   -0.082071
  18 C :   -0.071490
  19 C :   -0.037791
  20 C :   -0.144578
  21 H :    0.035926
  22 C :    0.031675
  23 H :    0.047354
  24 H :    0.022197
  25 C :   -0.084630
  26 H :    0.042640
  27 H :    0.024695
  28 C :   -0.038312
  29 H :    0.035686
  30 H :    0.033394
  31 H :    0.032456
  32 H :    0.043084
  33 H :    0.052324
Sum of atomic charges:   -0.0000000

LOEWDIN ATOMIC CHARGES
----------------------
   0 S :    0.395339
   1 C :   -0.191734
   2 C :   -0.060444
   3 C :   -0.074431
   4 C :   -0.184756
   5 H :    0.035066
   6 C :   -0.032571
   7 H :    0.028117
   8 H :    0.035055
   9 C :   -0.041514
  10 H :    0.024246
  11 H :    0.030321
  12 C :   -0.068577
  13 H :    0.037104
  14 H :    0.016885
  15 H :    0.019549
  16 S :    0.420098
  17 C :   -0.197422
  18 C :   -0.072306
  19 C :   -0.059025
  20 C :   -0.188104
  21 H :    0.037117
  22 C :   -0.046675
  23 H :    0.036309
  24 H :    0.027903
  25 C :   -0.042826
  26 H :    0.035092
  27 H :    0.014701
  28 C :   -0.059284
  29 H :    0.022901
  30 H :    0.032377
  31 H :    0.024386
  32 H :    0.023184
  33 H :    0.023920

  Mayer bond orders larger than 0.100000
B(  0-S ,  1-C ) :   1.1335 B(  0-S ,  4-C ) :   1.1346 B(  1-C ,  2-C ) :   1.5968
B(  1-C , 32-H ) :   0.9846 B(  2-C ,  3-C ) :   1.2297 B(  2-C ,  6-C ) :   1.0172
B(  3-C ,  4-C ) :   1.5553 B(  3-C ,  5-H ) :   0.9844 B(  4-C , 20-C ) :   1.0435
B(  6-C ,  7-H ) :   0.9322 B(  6-C ,  8-H ) :   0.9498 B(  6-C ,  9-C ) :   1.0813
B(  9-C , 10-H ) :   0.9587 B(  9-C , 11-H ) :   0.9579 B(  9-C , 12-C ) :   1.0570
B( 12-C , 13-H ) :   0.9757 B( 12-C , 14-H ) :   0.9741 B( 12-C , 15-H ) :   0.9734
B( 16-S , 17-C ) :   1.1688 B( 16-S , 20-C ) :   1.1384 B( 17-C , 18-C ) :   1.5861
B( 17-C , 20-C ) :   0.1013 B( 17-C , 33-H ) :   0.9654 B( 18-C , 19-C ) :   1.2546
B( 18-C , 21-H ) :   0.9805 B( 19-C , 20-C ) :   1.6003 B( 19-C , 22-C ) :   1.0222
B( 22-C , 23-H ) :   0.9251 B( 22-C , 24-H ) :   0.9355 B( 22-C , 25-C ) :   1.0644
B( 25-C , 26-H ) :   0.9575 B( 25-C , 27-H ) :   0.9445 B( 25-C , 28-C ) :   1.0939
B( 28-C , 29-H ) :   0.9739 B( 28-C , 30-H ) :   0.9724 B( 28-C , 31-H ) :   0.9724

Dispersion correction           -0.014041004
FINAL SINGLE POINT ENERGY     -1339.866147900241

DIPOLE MOMENT
-------------
                                X             Y             Z
Electronic contribution:     -3.11478      -8.67126      -5.54517
Nuclear contribution   :      2.98013       8.94337       5.71855
                        -----------------------------------------
Total Dipole Moment    :     -0.13465       0.27211       0.17338
                        -----------------------------------------
Magnitude (a.u.)       :      0.34962
Magnitude (Debye)      :      0.88867

Rotational constants in cm-1:     0.022279     0.007906     0.006236
Rotational constants in MHz :   667.915085   237.004050   186.948327

                             ****ORCA TERMINATED NORMALLY****
TOTAL RUN TIME: 0 days 0 hours 0 minutes 21 seconds 122 msec
