                         Program Version 4.2.1 -  RELEASE  -
|  1> ! wB97X-D3 SP def2-SVP
|  2> %pal
|  3> nprocs 24
|  4> end
|  5>
|  6> * xyz 0 1
|  7> S 	 -34.522 	 -12.3973 	 15.7573
|  8> C 	 -34.939 	 -10.8131 	 16.3638
|  9> C 	 -35.3804 	 -10.0068 	 15.3681
| 10> C 	 -35.247 	 -10.6654 	 14.0659
| 11> C 	 -34.9003 	 -12.0056 	 14.1136
| 12> H 	 -35.4436 	 -10.2195 	 13.1138
| 13> C 	 -35.6877 	 -8.52179 	 15.5263
| 14> H 	 -35.352 	 -8.2826 	 14.5244
| 15> H 	 -35.0298 	 -8.06659 	 16.304
| 16> C 	 -37.1402 	 -8.27203 	 15.8578
| 17> H 	 -37.434 	 -7.23221 	 15.8672
| 18> H 	 -37.6628 	 -8.73977 	 15.0098
| 19> C 	 -37.5228 	 -8.92031 	 17.1996
| 20> H 	 -37.3277 	 -10.0044 	 17.3206
| 21> H 	 -36.9965 	 -8.45851 	 18.0161
| 22> H 	 -38.5834 	 -8.8511 	 17.4364
| 23> S 	 -34.6126 	 -14.6451 	 13.3451
| 24> C 	 -34.1496 	 -15.0569 	 11.6864
| 25> C 	 -34.2943 	 -13.9096 	 10.9306
| 26> C 	 -34.5522 	 -12.717 	 11.652
| 27> C 	 -34.7577 	 -12.9378 	 12.9734
| 28> H 	 -34.2362 	 -13.9606 	 9.83125
| 29> C 	 -34.5642 	 -11.3605 	 10.939
| 30> H 	 -35.4897 	 -10.8875 	 11.1694
| 31> H 	 -34.6691 	 -11.6668 	 9.85417
| 32> C 	 -33.2853 	 -10.4923 	 11.1942
| 33> H 	 -32.4177 	 -11.1258 	 11.2271
| 34> H 	 -33.1389 	 -10.0761 	 12.2318
| 35> C 	 -33.3734 	 -9.32532 	 10.2852
| 36> H 	 -32.6806 	 -8.48044 	 10.5653
| 37> H 	 -34.403 	 -8.97305 	 10.199
| 38> H 	 -33.1768 	 -9.53355 	 9.20606
| 39> H 	 -34.8081 	 -10.6404 	 17.4814
| 40> H 	 -33.8245 	 -16.0703 	 11.2456
| 41> *
| 42>
| 43>                          ****END OF INPUT****

CARTESIAN COORDINATES (ANGSTROEM)
---------------------------------
  S    -34.522000  -12.397300   15.757300
  C    -34.939000  -10.813100   16.363800
  C    -35.380400  -10.006800   15.368100
  C    -35.247000  -10.665400   14.065900
  C    -34.900300  -12.005600   14.113600
  H    -35.443600  -10.219500   13.113800
  C    -35.687700   -8.521790   15.526300
  H    -35.352000   -8.282600   14.524400
  H    -35.029800   -8.066590   16.304000
  C    -37.140200   -8.272030   15.857800
  H    -37.434000   -7.232210   15.867200
  H    -37.662800   -8.739770   15.009800
  C    -37.522800   -8.920310   17.199600
  H    -37.327700  -10.004400   17.320600
  H    -36.996500   -8.458510   18.016100
  H    -38.583400   -8.851100   17.436400
  S    -34.612600  -14.645100   13.345100
  C    -34.149600  -15.056900   11.686400
  C    -34.294300  -13.909600   10.930600
  C    -34.552200  -12.717000   11.652000
  C    -34.757700  -12.937800   12.973400
  H    -34.236200  -13.960600    9.831250
  C    -34.564200  -11.360500   10.939000
  H    -35.489700  -10.887500   11.169400
  H    -34.669100  -11.666800    9.854170
  C    -33.285300  -10.492300   11.194200
  H    -32.417700  -11.125800   11.227100
  H    -33.138900  -10.076100   12.231800
  C    -33.373400   -9.325320   10.285200
  H    -32.680600   -8.480440   10.565300
  H    -34.403000   -8.973050   10.199000
  H    -33.176800   -9.533550    9.206060
  H    -34.808100  -10.640400   17.481400
  H    -33.824500  -16.070300   11.245600

 Total Charge           Charge          ....    0
 Multiplicity           Mult            ....    1
 Number of Electrons    NEL             ....  134
 Basis Dimension        Dim             ....  322

ORBITAL ENERGIES
----------------

  NO   OCC          E(Eh)            E(eV)
   0   2.0000     -88.965565     -2420.8761
   1   2.0000     -88.961615     -2420.7686
   2   2.0000     -10.332233      -281.1544
   3   2.0000     -10.328652      -281.0569
   4   2.0000     -10.327345      -281.0213
   5   2.0000     -10.317118      -280.7431
   6   2.0000     -10.302159      -280.3360
   7   2.0000     -10.300596      -280.2935
   8   2.0000     -10.298811      -280.2449
   9   2.0000     -10.295746      -280.1615
  10   2.0000     -10.294947      -280.1398
  11   2.0000     -10.293283      -280.0945
  12   2.0000     -10.290346      -280.0145
  13   2.0000     -10.287627      -279.9406
  14   2.0000     -10.282841      -279.8103
  15   2.0000     -10.275340      -279.6062
  16   2.0000      -8.079943      -219.8664
  17   2.0000      -8.076994      -219.7862
  18   2.0000      -6.038607      -164.3188
  19   2.0000      -6.035628      -164.2378
  20   2.0000      -6.034490      -164.2068
  21   2.0000      -6.031283      -164.1195
  22   2.0000      -6.030552      -164.0997
  23   2.0000      -6.027722      -164.0227
  24   2.0000      -1.009709       -27.4756
  25   2.0000      -0.987698       -26.8766
  26   2.0000      -0.916586       -24.9416
  27   2.0000      -0.911729       -24.8094
  28   2.0000      -0.868187       -23.6246
  29   2.0000      -0.855246       -23.2724
  30   2.0000      -0.841815       -22.9070
  31   2.0000      -0.813353       -22.1325
  32   2.0000      -0.781647       -21.2697
  33   2.0000      -0.772949       -21.0330
  34   2.0000      -0.710946       -19.3458
  35   2.0000      -0.704239       -19.1633
  36   2.0000      -0.692821       -18.8526
  37   2.0000      -0.665981       -18.1223
  38   2.0000      -0.638520       -17.3750
  39   2.0000      -0.620391       -16.8817
  40   2.0000      -0.593154       -16.1405
  41   2.0000      -0.568476       -15.4690
  42   2.0000      -0.560062       -15.2401
  43   2.0000      -0.548261       -14.9189
  44   2.0000      -0.543409       -14.7869
  45   2.0000      -0.529536       -14.4094
  46   2.0000      -0.519215       -14.1286
  47   2.0000      -0.509424       -13.8621
  48   2.0000      -0.501126       -13.6363
  49   2.0000      -0.497561       -13.5393
  50   2.0000      -0.493777       -13.4363
  51   2.0000      -0.484092       -13.1728
  52   2.0000      -0.472394       -12.8545
  53   2.0000      -0.463978       -12.6255
  54   2.0000      -0.459525       -12.5043
  55   2.0000      -0.455800       -12.4030
  56   2.0000      -0.443275       -12.0621
  57   2.0000      -0.440317       -11.9816
  58   2.0000      -0.432577       -11.7710
  59   2.0000      -0.423362       -11.5203
  60   2.0000      -0.417461       -11.3597
  61   2.0000      -0.406627       -11.0649
  62   2.0000      -0.403557       -10.9813
  63   2.0000      -0.361218        -9.8292
  64   2.0000      -0.332880        -9.0581
  65   2.0000      -0.326952        -8.8968
  66   2.0000      -0.288785        -7.8583
  67   0.0000       0.022761         0.6194
  68   0.0000       0.087684         2.3860
  69   0.0000       0.101683         2.7669
  70   0.0000       0.114827         3.1246
  71   0.0000       0.138888         3.7793

MULLIKEN ATOMIC CHARGES
-----------------------
   0 S :    0.091264
   1 C :   -0.164972
   2 C :   -0.083208
   3 C :   -0.010311
   4 C :   -0.100961
   5 H :   -0.009019
   6 C :    0.060976
   7 H :    0.022693
   8 H :    0.037200
   9 C :   -0.026656
  10 H :    0.035027
  11 H :    0.026000
  12 C :   -0.072938
  13 H :    0.044215
  14 H :    0.018238
  15 H :    0.032634
  16 S :    0.091388
  17 C :   -0.124395
  18 C :   -0.038110
  19 C :   -0.084493
  20 C :   -0.102170
  21 H :    0.025959
  22 C :    0.026375
  23 H :    0.033193
  24 H :    0.027644
  25 C :   -0.047965
  26 H :    0.026734
  27 H :    0.040946
  28 C :   -0.044344
  29 H :    0.044220
  30 H :    0.023467
  31 H :    0.028064
  32 H :    0.082313
  33 H :    0.090990
Sum of atomic charges:   -0.0000000

LOEWDIN ATOMIC CHARGES
----------------------
   0 S :    0.402267
   1 C :   -0.200887
   2 C :   -0.066270
   3 C :   -0.070643
   4 C :   -0.192205
   5 H :    0.021852
   6 C :   -0.029925
   7 H :    0.031231
   8 H :    0.032086
   9 C :   -0.038969
  10 H :    0.024327
  11 H :    0.027907
  12 C :   -0.071372
  13 H :    0.030427
  14 H :    0.019928
  15 H :    0.027022
  16 S :    0.392134
  17 C :   -0.195304
  18 C :   -0.077984
  19 C :   -0.068750
  20 C :   -0.186776
  21 H :    0.033389
  22 C :   -0.026352
  23 H :    0.021765
  24 H :    0.038697
  25 C :   -0.047973
  26 H :    0.026453
  27 H :    0.036117
  28 C :   -0.074259
  29 H :    0.031634
  30 H :    0.026168
  31 H :    0.026097
  32 H :    0.043334
  33 H :    0.054833

  Mayer bond orders larger than 0.100000
B(  0-S ,  1-C ) :   1.1361 B(  0-S ,  4-C ) :   1.1475 B(  1-C ,  2-C ) :   1.6117
B(  1-C , 32-H ) :   0.9614 B(  2-C ,  3-C ) :   1.2408 B(  2-C ,  6-C ) :   0.9823
B(  3-C ,  4-C ) :   1.5797 B(  3-C ,  5-H ) :   0.9882 B(  4-C , 20-C ) :   1.0590
B(  6-C ,  7-H ) :   0.9456 B(  6-C ,  8-H ) :   0.9527 B(  6-C ,  9-C ) :   1.0634
B(  9-C , 10-H ) :   0.9579 B(  9-C , 11-H ) :   0.9513 B(  9-C , 12-C ) :   1.0758
B( 12-C , 13-H ) :   0.9702 B( 12-C , 14-H ) :   0.9742 B( 12-C , 15-H ) :   0.9733
B( 16-S , 17-C ) :   1.1443 B( 16-S , 20-C ) :   1.1270 B( 17-C , 18-C ) :   1.6077
B( 17-C , 33-H ) :   0.9568 B( 18-C , 19-C ) :   1.2644 B( 18-C , 21-H ) :   0.9787
B( 19-C , 20-C ) :   1.6128 B( 19-C , 22-C ) :   1.0241 B( 22-C , 23-H ) :   0.9317
B( 22-C , 24-H ) :   0.9394 B( 22-C , 25-C ) :   1.0438 B( 25-C , 26-H ) :   0.9544
B( 25-C , 27-H ) :   0.9518 B( 25-C , 28-C ) :   1.0722 B( 28-C , 29-H ) :   0.9733
B( 28-C , 30-H ) :   0.9659 B( 28-C , 31-H ) :   0.9726

Dispersion correction           -0.014680704
FINAL SINGLE POINT ENERGY     -1339.870665003273

DIPOLE MOMENT
-------------
                                X             Y             Z
Electronic contribution:      4.39806     -25.84337       5.62190
Nuclear contribution   :     -4.38372      26.38408      -5.99541
                        -----------------------------------------
Total Dipole Moment    :      0.01434       0.54071      -0.37351
                        -----------------------------------------
Magnitude (a.u.)       :      0.65733
Magnitude (Debye)      :      1.67080

Rotational constants in cm-1:     0.019393     0.009047     0.006733
Rotational constants in MHz :   581.395984   271.231581   201.840219

                             ****ORCA TERMINATED NORMALLY****
TOTAL RUN TIME: 0 days 0 hours 0 minutes 22 seconds 282 msec
