                         Program Version 4.2.1 -  RELEASE  -
|  1> ! wB97X-D3 SP def2-SVP
|  2> %pal
|  3> nprocs 24
|  4> end
|  5>
|  6> * xyz 0 1
|  7> S 	 -101.371 	 -4.2535 	 -109.822
|  8> C 	 -102.329 	 -5.61886 	 -109.32
|  9> C 	 -102.678 	 -5.49419 	 -107.962
| 10> C 	 -102.345 	 -4.15546 	 -107.451
| 11> C 	 -101.727 	 -3.38576 	 -108.419
| 12> H 	 -102.514 	 -3.76125 	 -106.411
| 13> C 	 -103.38 	 -6.54557 	 -107.116
| 14> H 	 -104.157 	 -5.99743 	 -106.592
| 15> H 	 -102.743 	 -6.97999 	 -106.315
| 16> C 	 -103.888 	 -7.80124 	 -107.985
| 17> H 	 -103.121 	 -8.27565 	 -108.565
| 18> H 	 -104.289 	 -8.52826 	 -107.321
| 19> C 	 -105.062 	 -7.46431 	 -108.878
| 20> H 	 -105.997 	 -7.23447 	 -108.426
| 21> H 	 -104.791 	 -6.61929 	 -109.483
| 22> H 	 -105.391 	 -8.21576 	 -109.644
| 23> S 	 -101.369 	 -0.887024 	 -109.641
| 24> C 	 -100.768 	 0.447444 	 -108.699
| 25> C 	 -100.653 	 0.0804583 	 -107.367
| 26> C 	 -100.906 	 -1.31201 	 -107.133
| 27> C 	 -101.371 	 -1.96743 	 -108.226
| 28> H 	 -100.306 	 0.738478 	 -106.557
| 29> C 	 -100.561 	 -1.85687 	 -105.79
| 30> H 	 -99.5685 	 -1.53399 	 -105.629
| 31> H 	 -100.559 	 -2.92362 	 -105.864
| 32> C 	 -101.41 	 -1.31787 	 -104.669
| 33> H 	 -102.411 	 -1.47729 	 -104.916
| 34> H 	 -101.424 	 -0.310022 	 -104.523
| 35> C 	 -101.054 	 -1.98639 	 -103.323
| 36> H 	 -101.145 	 -3.08002 	 -103.367
| 37> H 	 -101.647 	 -1.69062 	 -102.504
| 38> H 	 -100.043 	 -1.58899 	 -103.208
| 39> H 	 -102.475 	 -6.59802 	 -109.909
| 40> H 	 -100.659 	 1.50337 	 -109.054
| 41> *
| 42>
| 43>                          ****END OF INPUT****

CARTESIAN COORDINATES (ANGSTROEM)
---------------------------------
  S    -101.371000   -4.253500  -109.822000
  C    -102.329000   -5.618860  -109.320000
  C    -102.678000   -5.494190  -107.962000
  C    -102.345000   -4.155460  -107.451000
  C    -101.727000   -3.385760  -108.419000
  H    -102.514000   -3.761250  -106.411000
  C    -103.380000   -6.545570  -107.116000
  H    -104.157000   -5.997430  -106.592000
  H    -102.743000   -6.979990  -106.315000
  C    -103.888000   -7.801240  -107.985000
  H    -103.121000   -8.275650  -108.565000
  H    -104.289000   -8.528260  -107.321000
  C    -105.062000   -7.464310  -108.878000
  H    -105.997000   -7.234470  -108.426000
  H    -104.791000   -6.619290  -109.483000
  H    -105.391000   -8.215760  -109.644000
  S    -101.369000   -0.887024  -109.641000
  C    -100.768000    0.447444  -108.699000
  C    -100.653000    0.080458  -107.367000
  C    -100.906000   -1.312010  -107.133000
  C    -101.371000   -1.967430  -108.226000
  H    -100.306000    0.738478  -106.557000
  C    -100.561000   -1.856870  -105.790000
  H    -99.568500   -1.533990  -105.629000
  H    -100.559000   -2.923620  -105.864000
  C    -101.410000   -1.317870  -104.669000
  H    -102.411000   -1.477290  -104.916000
  H    -101.424000   -0.310022  -104.523000
  C    -101.054000   -1.986390  -103.323000
  H    -101.145000   -3.080020  -103.367000
  H    -101.647000   -1.690620  -102.504000
  H    -100.043000   -1.588990  -103.208000
  H    -102.475000   -6.598020  -109.909000
  H    -100.659000    1.503370  -109.054000

 Total Charge           Charge          ....    0
 Multiplicity           Mult            ....    1
 Number of Electrons    NEL             ....  134
 Basis Dimension        Dim             ....  322

ORBITAL ENERGIES
----------------

  NO   OCC          E(Eh)            E(eV)
   0   2.0000     -88.968382     -2420.9528
   1   2.0000     -88.964283     -2420.8412
   2   2.0000     -10.327457      -281.0244
   3   2.0000     -10.326603      -281.0012
   4   2.0000     -10.322737      -280.8960
   5   2.0000     -10.320209      -280.8272
   6   2.0000     -10.309690      -280.5409
   7   2.0000     -10.302369      -280.3417
   8   2.0000     -10.299601      -280.2664
   9   2.0000     -10.296409      -280.1795
  10   2.0000     -10.294736      -280.1340
  11   2.0000     -10.289284      -279.9856
  12   2.0000     -10.283487      -279.8279
  13   2.0000     -10.277599      -279.6677
  14   2.0000     -10.274121      -279.5730
  15   2.0000     -10.269806      -279.4556
  16   2.0000      -8.084075      -219.9789
  17   2.0000      -8.078801      -219.8354
  18   2.0000      -6.042590      -164.4272
  19   2.0000      -6.038479      -164.3154
  20   2.0000      -6.037468      -164.2879
  21   2.0000      -6.034732      -164.2134
  22   2.0000      -6.033333      -164.1753
  23   2.0000      -6.029410      -164.0686
  24   2.0000      -1.010159       -27.4878
  25   2.0000      -0.986312       -26.8389
  26   2.0000      -0.921536       -25.0763
  27   2.0000      -0.908376       -24.7182
  28   2.0000      -0.865531       -23.5523
  29   2.0000      -0.856222       -23.2990
  30   2.0000      -0.846573       -23.0364
  31   2.0000      -0.808906       -22.0115
  32   2.0000      -0.783377       -21.3168
  33   2.0000      -0.775112       -21.0919
  34   2.0000      -0.715310       -19.4646
  35   2.0000      -0.710652       -19.3378
  36   2.0000      -0.691052       -18.8045
  37   2.0000      -0.666124       -18.1262
  38   2.0000      -0.632233       -17.2039
  39   2.0000      -0.610663       -16.6170
  40   2.0000      -0.596173       -16.2227
  41   2.0000      -0.577889       -15.7251
  42   2.0000      -0.576242       -15.6803
  43   2.0000      -0.546354       -14.8670
  44   2.0000      -0.537321       -14.6212
  45   2.0000      -0.532504       -14.4902
  46   2.0000      -0.523393       -14.2422
  47   2.0000      -0.509851       -13.8738
  48   2.0000      -0.506560       -13.7842
  49   2.0000      -0.496708       -13.5161
  50   2.0000      -0.485731       -13.2174
  51   2.0000      -0.483235       -13.1495
  52   2.0000      -0.470963       -12.8156
  53   2.0000      -0.465419       -12.6647
  54   2.0000      -0.463481       -12.6120
  55   2.0000      -0.452509       -12.3134
  56   2.0000      -0.446851       -12.1594
  57   2.0000      -0.444295       -12.0899
  58   2.0000      -0.435097       -11.8396
  59   2.0000      -0.425807       -11.5868
  60   2.0000      -0.423259       -11.5175
  61   2.0000      -0.417242       -11.3537
  62   2.0000      -0.411651       -11.2016
  63   2.0000      -0.354909        -9.6576
  64   2.0000      -0.328642        -8.9428
  65   2.0000      -0.326262        -8.8780
  66   2.0000      -0.290335        -7.9004
  67   0.0000       0.029407         0.8002
  68   0.0000       0.081312         2.2126
  69   0.0000       0.103880         2.8267
  70   0.0000       0.120157         3.2696
  71   0.0000       0.126957         3.4547

MULLIKEN ATOMIC CHARGES
-----------------------
   0 S :    0.133114
   1 C :   -0.160920
   2 C :   -0.107083
   3 C :   -0.018004
   4 C :   -0.130833
   5 H :    0.033512
   6 C :    0.055455
   7 H :    0.033989
   8 H :    0.051405
   9 C :   -0.057225
  10 H :    0.033429
  11 H :    0.023258
  12 C :   -0.066228
  13 H :    0.021969
  14 H :    0.022668
  15 H :    0.030056
  16 S :    0.096241
  17 C :   -0.098728
  18 C :   -0.040278
  19 C :   -0.066805
  20 C :   -0.136854
  21 H :    0.025931
  22 C :    0.105849
  23 H :    0.012721
  24 H :    0.011952
  25 C :   -0.036970
  26 H :    0.001094
  27 H :    0.001528
  28 C :   -0.026580
  29 H :    0.034044
  30 H :    0.025124
  31 H :    0.029424
  32 H :    0.085189
  33 H :    0.078555
Sum of atomic charges:    0.0000000

LOEWDIN ATOMIC CHARGES
----------------------
   0 S :    0.437246
   1 C :   -0.230088
   2 C :   -0.058105
   3 C :   -0.077889
   4 C :   -0.208613
   5 H :    0.039729
   6 C :   -0.028687
   7 H :    0.033108
   8 H :    0.039572
   9 C :   -0.035971
  10 H :    0.023056
  11 H :    0.023110
  12 C :   -0.076239
  13 H :    0.019944
  14 H :    0.019523
  15 H :    0.030889
  16 S :    0.389249
  17 C :   -0.191612
  18 C :   -0.073857
  19 C :   -0.057089
  20 C :   -0.187350
  21 H :    0.032902
  22 C :   -0.021246
  23 H :    0.028122
  24 H :    0.026127
  25 C :   -0.031357
  26 H :    0.013316
  27 H :    0.012578
  28 C :   -0.055247
  29 H :    0.026162
  30 H :    0.018728
  31 H :    0.028999
  32 H :    0.048129
  33 H :    0.042864

  Mayer bond orders larger than 0.100000
B(  0-S ,  1-C ) :   1.1253 B(  0-S ,  4-C ) :   1.1753 B(  1-C ,  2-C ) :   1.6141
B(  1-C , 32-H ) :   0.9479 B(  2-C ,  3-C ) :   1.2376 B(  2-C ,  6-C ) :   1.0121
B(  3-C ,  4-C ) :   1.5606 B(  3-C ,  5-H ) :   0.9845 B(  4-C , 20-C ) :   1.0390
B(  6-C ,  7-H ) :   0.9450 B(  6-C ,  8-H ) :   0.9399 B(  6-C ,  9-C ) :   1.0715
B(  9-C , 10-H ) :   0.9560 B(  9-C , 11-H ) :   0.9560 B(  9-C , 12-C ) :   1.0701
B( 12-C , 13-H ) :   0.9748 B( 12-C , 14-H ) :   0.9754 B( 12-C , 15-H ) :   0.9722
B( 16-S , 17-C ) :   1.1511 B( 16-S , 20-C ) :   1.1118 B( 17-C , 18-C ) :   1.6124
B( 17-C , 33-H ) :   0.9609 B( 18-C , 19-C ) :   1.2335 B( 18-C , 21-H ) :   0.9829
B( 19-C , 20-C ) :   1.6280 B( 19-C , 22-C ) :   1.0455 B( 22-C , 23-H ) :   0.9188
B( 22-C , 24-H ) :   0.9314 B( 22-C , 25-C ) :   1.0618 B( 25-C , 26-H ) :   0.9475
B( 25-C , 27-H ) :   0.9497 B( 25-C , 28-C ) :   1.0817 B( 28-C , 29-H ) :   0.9771
B( 28-C , 30-H ) :   0.9746 B( 28-C , 31-H ) :   0.9766

Dispersion correction           -0.014009139
FINAL SINGLE POINT ENERGY     -1339.867074428301

DIPOLE MOMENT
-------------
                                X             Y             Z
Electronic contribution:      8.88511      12.78827     -21.41178
Nuclear contribution   :     -8.94708     -12.89477      22.14305
                        -----------------------------------------
Total Dipole Moment    :     -0.06197      -0.10649       0.73127
                        -----------------------------------------
Magnitude (a.u.)       :      0.74158
Magnitude (Debye)      :      1.88494

Rotational constants in cm-1:     0.019457     0.008360     0.006205
Rotational constants in MHz :   583.307204   250.632334   186.016712

                             ****ORCA TERMINATED NORMALLY****
TOTAL RUN TIME: 0 days 0 hours 0 minutes 21 seconds 575 msec
