                         Program Version 4.2.1 -  RELEASE  -
|  1> ! wB97X-D3 SP def2-SVP
|  2> %pal
|  3> nprocs 24
|  4> end
|  5>
|  6> * xyz 0 1
|  7> S 	 -51.4332 	 20.959 	 -89.5014
|  8> C 	 -52.1071 	 22.2667 	 -88.5598
|  9> C 	 -53.232 	 22.8247 	 -89.1414
| 10> C 	 -53.6977 	 21.9799 	 -90.1882
| 11> C 	 -52.8068 	 20.9541 	 -90.5863
| 12> H 	 -54.5815 	 22.1241 	 -90.7577
| 13> C 	 -53.8774 	 24.1807 	 -88.7962
| 14> H 	 -53.7794 	 24.4595 	 -87.6957
| 15> H 	 -54.9869 	 24.0616 	 -89.0108
| 16> C 	 -53.3216 	 25.3315 	 -89.6456
| 17> H 	 -53.8377 	 25.0852 	 -90.611
| 18> H 	 -53.6433 	 26.3917 	 -89.3764
| 19> C 	 -51.8128 	 25.4228 	 -89.7237
| 20> H 	 -51.3764 	 25.3964 	 -88.6954
| 21> H 	 -51.3614 	 24.606 	 -90.2419
| 22> H 	 -51.449 	 26.3467 	 -90.0718
| 23> S 	 -53.6024 	 18.4281 	 -91.2931
| 24> C 	 -53.9328 	 18.1926 	 -92.9859
| 25> C 	 -53.5258 	 19.2003 	 -93.7926
| 26> C 	 -53.0107 	 20.298 	 -93.0404
| 27> C 	 -52.9994 	 20.0288 	 -91.6896
| 28> H 	 -53.8603 	 19.1332 	 -94.8499
| 29> C 	 -52.6915 	 21.6868 	 -93.7184
| 30> H 	 -51.6957 	 22.0242 	 -93.3602
| 31> H 	 -53.3864 	 22.286 	 -93.1257
| 32> C 	 -52.8779 	 22.0313 	 -95.1661
| 33> H 	 -53.8778 	 21.7945 	 -95.5501
| 34> H 	 -52.1628 	 21.3508 	 -95.5746
| 35> C 	 -52.485 	 23.4597 	 -95.439
| 36> H 	 -53.118 	 24.1356 	 -94.776
| 37> H 	 -52.6218 	 23.7273 	 -96.4775
| 38> H 	 -51.3459 	 23.7135 	 -95.2644
| 39> H 	 -51.5378 	 22.7939 	 -87.8397
| 40> H 	 -54.4342 	 17.3792 	 -93.3894
| 41> *
| 42>
| 43>                          ****END OF INPUT****

CARTESIAN COORDINATES (ANGSTROEM)
---------------------------------
  S    -51.433200   20.959000  -89.501400
  C    -52.107100   22.266700  -88.559800
  C    -53.232000   22.824700  -89.141400
  C    -53.697700   21.979900  -90.188200
  C    -52.806800   20.954100  -90.586300
  H    -54.581500   22.124100  -90.757700
  C    -53.877400   24.180700  -88.796200
  H    -53.779400   24.459500  -87.695700
  H    -54.986900   24.061600  -89.010800
  C    -53.321600   25.331500  -89.645600
  H    -53.837700   25.085200  -90.611000
  H    -53.643300   26.391700  -89.376400
  C    -51.812800   25.422800  -89.723700
  H    -51.376400   25.396400  -88.695400
  H    -51.361400   24.606000  -90.241900
  H    -51.449000   26.346700  -90.071800
  S    -53.602400   18.428100  -91.293100
  C    -53.932800   18.192600  -92.985900
  C    -53.525800   19.200300  -93.792600
  C    -53.010700   20.298000  -93.040400
  C    -52.999400   20.028800  -91.689600
  H    -53.860300   19.133200  -94.849900
  C    -52.691500   21.686800  -93.718400
  H    -51.695700   22.024200  -93.360200
  H    -53.386400   22.286000  -93.125700
  C    -52.877900   22.031300  -95.166100
  H    -53.877800   21.794500  -95.550100
  H    -52.162800   21.350800  -95.574600
  C    -52.485000   23.459700  -95.439000
  H    -53.118000   24.135600  -94.776000
  H    -52.621800   23.727300  -96.477500
  H    -51.345900   23.713500  -95.264400
  H    -51.537800   22.793900  -87.839700
  H    -54.434200   17.379200  -93.389400

 Total Charge           Charge          ....    0
 Multiplicity           Mult            ....    1
 Number of Electrons    NEL             ....  134
 Basis Dimension        Dim             ....  322

ORBITAL ENERGIES
----------------

  NO   OCC          E(Eh)            E(eV)
   0   2.0000     -88.967024     -2420.9158
   1   2.0000     -88.965832     -2420.8834
   2   2.0000     -10.329170      -281.0710
   3   2.0000     -10.322005      -280.8760
   4   2.0000     -10.310113      -280.5524
   5   2.0000     -10.309948      -280.5479
   6   2.0000     -10.308844      -280.5179
   7   2.0000     -10.305802      -280.4351
   8   2.0000     -10.303412      -280.3701
   9   2.0000     -10.294440      -280.1259
  10   2.0000     -10.293672      -280.1051
  11   2.0000     -10.293585      -280.1027
  12   2.0000     -10.293424      -280.0983
  13   2.0000     -10.291891      -280.0566
  14   2.0000     -10.287382      -279.9339
  15   2.0000     -10.271591      -279.5042
  16   2.0000      -8.081540      -219.9099
  17   2.0000      -8.080878      -219.8919
  18   2.0000      -6.039934      -164.3550
  19   2.0000      -6.039265      -164.3367
  20   2.0000      -6.035959      -164.2468
  21   2.0000      -6.035513      -164.2347
  22   2.0000      -6.032565      -164.1544
  23   2.0000      -6.031571      -164.1274
  24   2.0000      -1.006622       -27.3916
  25   2.0000      -0.984809       -26.7980
  26   2.0000      -0.915058       -24.9000
  27   2.0000      -0.910200       -24.7678
  28   2.0000      -0.869664       -23.6648
  29   2.0000      -0.852605       -23.2006
  30   2.0000      -0.845822       -23.0160
  31   2.0000      -0.811205       -22.0740
  32   2.0000      -0.785617       -21.3777
  33   2.0000      -0.774067       -21.0634
  34   2.0000      -0.706636       -19.2285
  35   2.0000      -0.700432       -19.0597
  36   2.0000      -0.689683       -18.7672
  37   2.0000      -0.650577       -17.7031
  38   2.0000      -0.642135       -17.4734
  39   2.0000      -0.615355       -16.7446
  40   2.0000      -0.596943       -16.2436
  41   2.0000      -0.576816       -15.6960
  42   2.0000      -0.569417       -15.4946
  43   2.0000      -0.553293       -15.0559
  44   2.0000      -0.545399       -14.8411
  45   2.0000      -0.524815       -14.2809
  46   2.0000      -0.516421       -14.0525
  47   2.0000      -0.507257       -13.8032
  48   2.0000      -0.497466       -13.5367
  49   2.0000      -0.491242       -13.3674
  50   2.0000      -0.483992       -13.1701
  51   2.0000      -0.482674       -13.1342
  52   2.0000      -0.472810       -12.8658
  53   2.0000      -0.464978       -12.6527
  54   2.0000      -0.460970       -12.5436
  55   2.0000      -0.452406       -12.3106
  56   2.0000      -0.443364       -12.0645
  57   2.0000      -0.440539       -11.9877
  58   2.0000      -0.434952       -11.8356
  59   2.0000      -0.428612       -11.6631
  60   2.0000      -0.418353       -11.3840
  61   2.0000      -0.410135       -11.1603
  62   2.0000      -0.406130       -11.0514
  63   2.0000      -0.339113        -9.2277
  64   2.0000      -0.330526        -8.9941
  65   2.0000      -0.322920        -8.7871
  66   2.0000      -0.303808        -8.2670
  67   0.0000       0.041340         1.1249
  68   0.0000       0.053821         1.4645
  69   0.0000       0.115383         3.1397
  70   0.0000       0.120026         3.2661
  71   0.0000       0.124403         3.3852

MULLIKEN ATOMIC CHARGES
-----------------------
   0 S :    0.116880
   1 C :   -0.097275
   2 C :   -0.100506
   3 C :    0.065124
   4 C :   -0.204528
   5 H :    0.000093
   6 C :    0.024278
   7 H :    0.042352
   8 H :    0.044058
   9 C :   -0.093299
  10 H :    0.028580
  11 H :    0.042199
  12 C :   -0.023070
  13 H :    0.014970
  14 H :    0.043518
  15 H :    0.021204
  16 S :    0.124560
  17 C :   -0.060011
  18 C :   -0.071342
  19 C :   -0.004618
  20 C :   -0.180777
  21 H :    0.036428
  22 C :    0.035355
  23 H :    0.035524
  24 H :    0.012525
  25 C :   -0.019182
  26 H :    0.035009
  27 H :    0.026512
  28 C :   -0.080640
  29 H :    0.041431
  30 H :    0.036026
  31 H :    0.048458
  32 H :    0.036712
  33 H :    0.023451
Sum of atomic charges:    0.0000000

LOEWDIN ATOMIC CHARGES
----------------------
   0 S :    0.413074
   1 C :   -0.191798
   2 C :   -0.064424
   3 C :   -0.054049
   4 C :   -0.203907
   5 H :    0.022770
   6 C :   -0.037466
   7 H :    0.033155
   8 H :    0.038014
   9 C :   -0.051991
  10 H :    0.025612
  11 H :    0.032681
  12 C :   -0.065267
  13 H :    0.027963
  14 H :    0.023777
  15 H :    0.020115
  16 S :    0.410322
  17 C :   -0.168976
  18 C :   -0.086072
  19 C :   -0.039438
  20 C :   -0.215972
  21 H :    0.041675
  22 C :   -0.035987
  23 H :    0.036587
  24 H :    0.027999
  25 C :   -0.048872
  26 H :    0.027672
  27 H :    0.025311
  28 C :   -0.069132
  29 H :    0.031652
  30 H :    0.023924
  31 H :    0.039197
  32 H :    0.017437
  33 H :    0.014410

  Mayer bond orders larger than 0.100000
B(  0-S ,  1-C ) :   1.1563 B(  0-S ,  4-C ) :   1.1599 B(  1-C ,  2-C ) :   1.5969
B(  1-C ,  4-C ) :   0.1038 B(  1-C , 32-H ) :   0.9666 B(  2-C ,  3-C ) :   1.2590
B(  2-C ,  6-C ) :   1.0154 B(  3-C ,  4-C ) :   1.5621 B(  3-C ,  5-H ) :   0.9899
B(  4-C , 20-C ) :   1.0283 B(  6-C ,  7-H ) :   0.9463 B(  6-C ,  8-H ) :   0.9495
B(  6-C ,  9-C ) :   1.0527 B(  9-C , 10-H ) :   0.9566 B(  9-C , 11-H ) :   0.9598
B(  9-C , 12-C ) :   1.0816 B( 12-C , 13-H ) :   0.9688 B( 12-C , 14-H ) :   0.9695
B( 12-C , 15-H ) :   0.9727 B( 16-S , 17-C ) :   1.1571 B( 16-S , 20-C ) :   1.1363
B( 17-C , 18-C ) :   1.6536 B( 17-C , 33-H ) :   0.9655 B( 18-C , 19-C ) :   1.2159
B( 18-C , 21-H ) :   0.9803 B( 19-C , 20-C ) :   1.6421 B( 19-C , 22-C ) :   0.9985
B( 22-C , 23-H ) :   0.9375 B( 22-C , 24-H ) :   0.9255 B( 22-C , 25-C ) :   1.0690
B( 25-C , 26-H ) :   0.9457 B( 25-C , 27-H ) :   0.9459 B( 25-C , 28-C ) :   1.0884
B( 28-C , 29-H ) :   0.9731 B( 28-C , 30-H ) :   0.9715 B( 28-C , 31-H ) :   0.9709

Dispersion correction           -0.014873077
FINAL SINGLE POINT ENERGY     -1339.862466484835

DIPOLE MOMENT
-------------
                                X             Y             Z
Electronic contribution:      0.71631     -27.68703      11.52880
Nuclear contribution   :     -0.97885      28.30033     -12.04215
                        -----------------------------------------
Total Dipole Moment    :     -0.26253       0.61330      -0.51335
                        -----------------------------------------
Magnitude (a.u.)       :      0.84178
Magnitude (Debye)      :      2.13963

Rotational constants in cm-1:     0.016539     0.009833     0.006977
Rotational constants in MHz :   495.837775   294.797661   209.161278

                             ****ORCA TERMINATED NORMALLY****
TOTAL RUN TIME: 0 days 0 hours 0 minutes 22 seconds 27 msec
