                         Program Version 4.2.1 -  RELEASE  -
|  1> ! wB97X-D3 SP def2-SVP
|  2> %pal
|  3> nprocs 24
|  4> end
|  5>
|  6> * xyz 0 1
|  7> S 	 -110.397 	 56.4705 	 -92.7955
|  8> C 	 -109.629 	 57.1893 	 -91.381
|  9> C 	 -108.821 	 58.2696 	 -91.6014
| 10> C 	 -108.848 	 58.4348 	 -92.9892
| 11> C 	 -109.638 	 57.6761 	 -93.7858
| 12> H 	 -108.313 	 59.211 	 -93.5299
| 13> C 	 -108.12 	 59.0975 	 -90.6436
| 14> H 	 -107.094 	 58.7305 	 -90.6494
| 15> H 	 -108.469 	 58.8552 	 -89.6254
| 16> C 	 -108.085 	 60.6431 	 -90.913
| 17> H 	 -107.504 	 61.1034 	 -90.0973
| 18> H 	 -107.508 	 60.9103 	 -91.7612
| 19> C 	 -109.437 	 61.3359 	 -90.9708
| 20> H 	 -109.982 	 61.1898 	 -90.0588
| 21> H 	 -109.342 	 62.4095 	 -91.0671
| 22> H 	 -109.98 	 61.0305 	 -91.8836
| 23> S 	 -110.095 	 59.2244 	 -95.9257
| 24> C 	 -110.062 	 58.4693 	 -97.5434
| 25> C 	 -109.753 	 57.1055 	 -97.4702
| 26> C 	 -109.573 	 56.6431 	 -96.1413
| 27> C 	 -109.778 	 57.6701 	 -95.213
| 28> H 	 -109.615 	 56.5783 	 -98.3561
| 29> C 	 -108.908 	 55.2636 	 -95.891
| 30> H 	 -109.147 	 54.6078 	 -96.6369
| 31> H 	 -109.282 	 54.7426 	 -94.97
| 32> C 	 -107.374 	 55.252 	 -95.7821
| 33> H 	 -107.159 	 55.9566 	 -95.05
| 34> H 	 -106.859 	 55.646 	 -96.7159
| 35> C 	 -106.865 	 53.8311 	 -95.2273
| 36> H 	 -105.779 	 53.7936 	 -95.426
| 37> H 	 -107.28 	 52.998 	 -95.8456
| 38> H 	 -107.145 	 53.5166 	 -94.1819
| 39> H 	 -109.951 	 56.944 	 -90.3818
| 40> H 	 -110.272 	 58.9047 	 -98.4496
| 41> *
| 42>
| 43>                          ****END OF INPUT****

CARTESIAN COORDINATES (ANGSTROEM)
---------------------------------
  S    -110.397000   56.470500  -92.795500
  C    -109.629000   57.189300  -91.381000
  C    -108.821000   58.269600  -91.601400
  C    -108.848000   58.434800  -92.989200
  C    -109.638000   57.676100  -93.785800
  H    -108.313000   59.211000  -93.529900
  C    -108.120000   59.097500  -90.643600
  H    -107.094000   58.730500  -90.649400
  H    -108.469000   58.855200  -89.625400
  C    -108.085000   60.643100  -90.913000
  H    -107.504000   61.103400  -90.097300
  H    -107.508000   60.910300  -91.761200
  C    -109.437000   61.335900  -90.970800
  H    -109.982000   61.189800  -90.058800
  H    -109.342000   62.409500  -91.067100
  H    -109.980000   61.030500  -91.883600
  S    -110.095000   59.224400  -95.925700
  C    -110.062000   58.469300  -97.543400
  C    -109.753000   57.105500  -97.470200
  C    -109.573000   56.643100  -96.141300
  C    -109.778000   57.670100  -95.213000
  H    -109.615000   56.578300  -98.356100
  C    -108.908000   55.263600  -95.891000
  H    -109.147000   54.607800  -96.636900
  H    -109.282000   54.742600  -94.970000
  C    -107.374000   55.252000  -95.782100
  H    -107.159000   55.956600  -95.050000
  H    -106.859000   55.646000  -96.715900
  C    -106.865000   53.831100  -95.227300
  H    -105.779000   53.793600  -95.426000
  H    -107.280000   52.998000  -95.845600
  H    -107.145000   53.516600  -94.181900
  H    -109.951000   56.944000  -90.381800
  H    -110.272000   58.904700  -98.449600

 Total Charge           Charge          ....    0
 Multiplicity           Mult            ....    1
 Number of Electrons    NEL             ....  134
 Basis Dimension        Dim             ....  322

ORBITAL ENERGIES
----------------

  NO   OCC          E(Eh)            E(eV)
   0   2.0000     -88.971331     -2421.0330
   1   2.0000     -88.963507     -2420.8201
   2   2.0000     -10.326437      -280.9966
   3   2.0000     -10.319897      -280.8187
   4   2.0000     -10.314487      -280.6715
   5   2.0000     -10.308672      -280.5132
   6   2.0000     -10.304955      -280.4121
   7   2.0000     -10.296607      -280.1849
   8   2.0000     -10.294356      -280.1237
   9   2.0000     -10.291381      -280.0427
  10   2.0000     -10.289243      -279.9845
  11   2.0000     -10.288946      -279.9765
  12   2.0000     -10.287250      -279.9303
  13   2.0000     -10.286424      -279.9078
  14   2.0000     -10.284255      -279.8488
  15   2.0000     -10.274198      -279.5752
  16   2.0000      -8.085266      -220.0113
  17   2.0000      -8.078311      -219.8220
  18   2.0000      -6.043817      -164.4606
  19   2.0000      -6.039892      -164.3538
  20   2.0000      -6.036768      -164.2688
  21   2.0000      -6.036042      -164.2490
  22   2.0000      -6.032912      -164.1639
  23   2.0000      -6.029020      -164.0580
  24   2.0000      -1.011902       -27.5352
  25   2.0000      -0.985052       -26.8046
  26   2.0000      -0.917492       -24.9662
  27   2.0000      -0.900264       -24.4974
  28   2.0000      -0.873481       -23.7686
  29   2.0000      -0.852535       -23.1987
  30   2.0000      -0.839622       -22.8473
  31   2.0000      -0.815195       -22.1826
  32   2.0000      -0.787689       -21.4341
  33   2.0000      -0.770420       -20.9642
  34   2.0000      -0.714574       -19.4446
  35   2.0000      -0.701246       -19.0819
  36   2.0000      -0.692002       -18.8303
  37   2.0000      -0.673355       -18.3229
  38   2.0000      -0.638054       -17.3623
  39   2.0000      -0.624759       -17.0006
  40   2.0000      -0.595911       -16.2156
  41   2.0000      -0.569063       -15.4850
  42   2.0000      -0.558926       -15.2092
  43   2.0000      -0.557023       -15.1574
  44   2.0000      -0.539336       -14.6761
  45   2.0000      -0.517518       -14.0824
  46   2.0000      -0.513693       -13.9783
  47   2.0000      -0.512225       -13.9384
  48   2.0000      -0.506663       -13.7870
  49   2.0000      -0.494133       -13.4461
  50   2.0000      -0.490706       -13.3528
  51   2.0000      -0.472745       -12.8641
  52   2.0000      -0.471014       -12.8169
  53   2.0000      -0.466669       -12.6987
  54   2.0000      -0.457998       -12.4628
  55   2.0000      -0.445826       -12.1315
  56   2.0000      -0.444355       -12.0915
  57   2.0000      -0.437463       -11.9040
  58   2.0000      -0.431269       -11.7354
  59   2.0000      -0.427699       -11.6383
  60   2.0000      -0.421788       -11.4774
  61   2.0000      -0.419343       -11.4109
  62   2.0000      -0.415930       -11.3180
  63   2.0000      -0.346377        -9.4254
  64   2.0000      -0.335090        -9.1183
  65   2.0000      -0.330866        -9.0033
  66   2.0000      -0.287149        -7.8137
  67   0.0000       0.030112         0.8194
  68   0.0000       0.071306         1.9403
  69   0.0000       0.104715         2.8494
  70   0.0000       0.118427         3.2226
  71   0.0000       0.132181         3.5968

MULLIKEN ATOMIC CHARGES
-----------------------
   0 S :    0.113075
   1 C :   -0.131436
   2 C :   -0.055850
   3 C :   -0.001509
   4 C :   -0.144767
   5 H :   -0.007516
   6 C :    0.096424
   7 H :    0.043221
   8 H :    0.016348
   9 C :   -0.081014
  10 H :    0.025985
  11 H :    0.025100
  12 C :   -0.037711
  13 H :    0.028781
  14 H :    0.026919
  15 H :    0.044683
  16 S :    0.117972
  17 C :   -0.061635
  18 C :   -0.022739
  19 C :   -0.006626
  20 C :   -0.173507
  21 H :   -0.001853
  22 C :    0.075775
  23 H :   -0.005612
  24 H :    0.023242
  25 C :   -0.050699
  26 H :    0.020356
  27 H :    0.038038
  28 C :   -0.093281
  29 H :    0.043085
  30 H :    0.028032
  31 H :    0.055846
  32 H :    0.031060
  33 H :    0.021813
Sum of atomic charges:    0.0000000

LOEWDIN ATOMIC CHARGES
----------------------
   0 S :    0.408405
   1 C :   -0.183415
   2 C :   -0.068591
   3 C :   -0.069773
   4 C :   -0.204319
   5 H :    0.020782
   6 C :   -0.030177
   7 H :    0.043589
   8 H :    0.034167
   9 C :   -0.038796
  10 H :    0.028819
  11 H :    0.019251
  12 C :   -0.065038
  13 H :    0.023012
  14 H :    0.026536
  15 H :    0.030724
  16 S :    0.411915
  17 C :   -0.167559
  18 C :   -0.052780
  19 C :   -0.057656
  20 C :   -0.197586
  21 H :    0.022553
  22 C :   -0.029642
  23 H :    0.012405
  24 H :    0.029675
  25 C :   -0.034363
  26 H :    0.015570
  27 H :    0.031261
  28 C :   -0.076828
  29 H :    0.029553
  30 H :    0.024326
  31 H :    0.035025
  32 H :    0.018006
  33 H :    0.010947

  Mayer bond orders larger than 0.100000
B(  0-S ,  1-C ) :   1.1487 B(  0-S ,  4-C ) :   1.1319 B(  1-C ,  2-C ) :   1.6113
B(  1-C , 32-H ) :   0.9560 B(  2-C ,  3-C ) :   1.2266 B(  2-C ,  6-C ) :   1.0310
B(  3-C ,  4-C ) :   1.6072 B(  3-C ,  5-H ) :   0.9848 B(  4-C , 20-C ) :   1.0348
B(  6-C ,  7-H ) :   0.9204 B(  6-C ,  8-H ) :   0.9333 B(  6-C ,  9-C ) :   1.0758
B(  9-C , 10-H ) :   0.9528 B(  9-C , 11-H ) :   0.9505 B(  9-C , 12-C ) :   1.0860
B( 12-C , 13-H ) :   0.9752 B( 12-C , 14-H ) :   0.9712 B( 12-C , 15-H ) :   0.9713
B( 16-S , 17-C ) :   1.1390 B( 16-S , 20-C ) :   1.1573 B( 17-C , 18-C ) :   1.6132
B( 17-C , 20-C ) :   0.1063 B( 17-C , 33-H ) :   0.9770 B( 18-C , 19-C ) :   1.2451
B( 18-C , 21-H ) :   0.9967 B( 19-C , 20-C ) :   1.5634 B( 19-C , 22-C ) :   1.0495
B( 22-C , 23-H ) :   0.9303 B( 22-C , 24-H ) :   0.9335 B( 22-C , 25-C ) :   1.0570
B( 25-C , 26-H ) :   0.9568 B( 25-C , 27-H ) :   0.9570 B( 25-C , 28-C ) :   1.0602
B( 28-C , 29-H ) :   0.9758 B( 28-C , 30-H ) :   0.9780 B( 28-C , 31-H ) :   0.9748

Dispersion correction           -0.014779361
FINAL SINGLE POINT ENERGY     -1339.865303411325

DIPOLE MOMENT
-------------
                                X             Y             Z
Electronic contribution:    -13.93347       1.30959      -7.50067
Nuclear contribution   :     14.39863      -1.18304       7.57995
                        -----------------------------------------
Total Dipole Moment    :      0.46515       0.12655       0.07927
                        -----------------------------------------
Magnitude (a.u.)       :      0.48854
Magnitude (Debye)      :      1.24176

Rotational constants in cm-1:     0.018470     0.009277     0.007319
Rotational constants in MHz :   553.721034   278.108641   219.432025

                             ****ORCA TERMINATED NORMALLY****
TOTAL RUN TIME: 0 days 0 hours 0 minutes 22 seconds 6 msec
