                         Program Version 4.2.1 -  RELEASE  -
|  1> ! wB97X-D3 SP def2-SVP
|  2> %pal
|  3> nprocs 24
|  4> end
|  5>
|  6> * xyz 0 1
|  7> S 	 -45.7546 	 12.0696 	 -19.5485
|  8> C 	 -44.9079 	 10.6587 	 -18.9391
|  9> C 	 -43.7444 	 10.9942 	 -18.2183
| 10> C 	 -43.4187 	 12.3591 	 -18.3783
| 11> C 	 -44.3271 	 13.0898 	 -19.0933
| 12> H 	 -42.5831 	 12.9309 	 -17.9091
| 13> C 	 -43.0409 	 10.0416 	 -17.2418
| 14> H 	 -42.0034 	 10.0533 	 -17.4248
| 15> H 	 -43.4044 	 9.05299 	 -17.386
| 16> C 	 -43.2985 	 10.3221 	 -15.7253
| 17> H 	 -42.9044 	 11.3041 	 -15.4251
| 18> H 	 -44.3896 	 10.4657 	 -15.7524
| 19> C 	 -43.0408 	 9.11895 	 -14.7847
| 20> H 	 -43.3467 	 9.34268 	 -13.7703
| 21> H 	 -43.4464 	 8.15757 	 -15.049
| 22> H 	 -41.9767 	 8.9935 	 -14.6722
| 23> S 	 -44.644 	 14.6603 	 -21.1386
| 24> C 	 -44.5607 	 16.3747 	 -21.012
| 25> C 	 -44.125 	 16.7654 	 -19.7175
| 26> C 	 -44.0507 	 15.6302 	 -18.8262
| 27> C 	 -44.2859 	 14.4678 	 -19.5006
| 28> H 	 -43.9006 	 17.8318 	 -19.5303
| 29> C 	 -43.5664 	 15.7522 	 -17.3676
| 30> H 	 -44.0324 	 14.8795 	 -16.9268
| 31> H 	 -44.0056 	 16.6303 	 -17.0539
| 32> C 	 -42.0729 	 15.9357 	 -17.1009
| 33> H 	 -41.5884 	 15.1107 	 -17.5077
| 34> H 	 -41.7993 	 15.9699 	 -16.0276
| 35> C 	 -41.3751 	 17.2326 	 -17.6241
| 36> H 	 -41.7229 	 18.0921 	 -17.0358
| 37> H 	 -41.4158 	 17.3888 	 -18.7009
| 38> H 	 -40.3161 	 17.1982 	 -17.3928
| 39> H 	 -45.3257 	 9.65774 	 -18.8288
| 40> H 	 -44.4643 	 16.949 	 -21.9432
| 41> *
| 42>
| 43>                          ****END OF INPUT****

CARTESIAN COORDINATES (ANGSTROEM)
---------------------------------
  S    -45.754600   12.069600  -19.548500
  C    -44.907900   10.658700  -18.939100
  C    -43.744400   10.994200  -18.218300
  C    -43.418700   12.359100  -18.378300
  C    -44.327100   13.089800  -19.093300
  H    -42.583100   12.930900  -17.909100
  C    -43.040900   10.041600  -17.241800
  H    -42.003400   10.053300  -17.424800
  H    -43.404400    9.052990  -17.386000
  C    -43.298500   10.322100  -15.725300
  H    -42.904400   11.304100  -15.425100
  H    -44.389600   10.465700  -15.752400
  C    -43.040800    9.118950  -14.784700
  H    -43.346700    9.342680  -13.770300
  H    -43.446400    8.157570  -15.049000
  H    -41.976700    8.993500  -14.672200
  S    -44.644000   14.660300  -21.138600
  C    -44.560700   16.374700  -21.012000
  C    -44.125000   16.765400  -19.717500
  C    -44.050700   15.630200  -18.826200
  C    -44.285900   14.467800  -19.500600
  H    -43.900600   17.831800  -19.530300
  C    -43.566400   15.752200  -17.367600
  H    -44.032400   14.879500  -16.926800
  H    -44.005600   16.630300  -17.053900
  C    -42.072900   15.935700  -17.100900
  H    -41.588400   15.110700  -17.507700
  H    -41.799300   15.969900  -16.027600
  C    -41.375100   17.232600  -17.624100
  H    -41.722900   18.092100  -17.035800
  H    -41.415800   17.388800  -18.700900
  H    -40.316100   17.198200  -17.392800
  H    -45.325700    9.657740  -18.828800
  H    -44.464300   16.949000  -21.943200

 Total Charge           Charge          ....    0
 Multiplicity           Mult            ....    1
 Number of Electrons    NEL             ....  134
 Basis Dimension        Dim             ....  322

ORBITAL ENERGIES
----------------

  NO   OCC          E(Eh)            E(eV)
   0   2.0000     -88.968171     -2420.9470
   1   2.0000     -88.963375     -2420.8165
   2   2.0000     -10.329578      -281.0821
   3   2.0000     -10.317397      -280.7507
   4   2.0000     -10.316948      -280.7384
   5   2.0000     -10.316567      -280.7281
   6   2.0000     -10.303930      -280.3842
   7   2.0000     -10.303614      -280.3756
   8   2.0000     -10.302847      -280.3547
   9   2.0000     -10.296045      -280.1696
  10   2.0000     -10.291735      -280.0524
  11   2.0000     -10.288406      -279.9618
  12   2.0000     -10.288198      -279.9561
  13   2.0000     -10.287420      -279.9349
  14   2.0000     -10.281467      -279.7729
  15   2.0000     -10.280001      -279.7330
  16   2.0000      -8.081764      -219.9160
  17   2.0000      -8.080083      -219.8702
  18   2.0000      -6.040288      -164.3646
  19   2.0000      -6.038284      -164.3101
  20   2.0000      -6.036657      -164.2658
  21   2.0000      -6.034257      -164.2005
  22   2.0000      -6.032331      -164.1481
  23   2.0000      -6.031063      -164.1136
  24   2.0000      -1.014018       -27.5928
  25   2.0000      -0.981718       -26.7139
  26   2.0000      -0.911236       -24.7960
  27   2.0000      -0.906433       -24.6653
  28   2.0000      -0.868725       -23.6392
  29   2.0000      -0.853927       -23.2365
  30   2.0000      -0.845486       -23.0068
  31   2.0000      -0.814860       -22.1735
  32   2.0000      -0.789141       -21.4736
  33   2.0000      -0.772752       -21.0277
  34   2.0000      -0.709328       -19.3018
  35   2.0000      -0.702078       -19.1045
  36   2.0000      -0.692359       -18.8401
  37   2.0000      -0.670481       -18.2447
  38   2.0000      -0.639889       -17.4123
  39   2.0000      -0.616325       -16.7710
  40   2.0000      -0.589808       -16.0495
  41   2.0000      -0.568794       -15.4777
  42   2.0000      -0.565584       -15.3903
  43   2.0000      -0.552698       -15.0397
  44   2.0000      -0.549220       -14.9450
  45   2.0000      -0.521975       -14.2037
  46   2.0000      -0.513521       -13.9736
  47   2.0000      -0.508728       -13.8432
  48   2.0000      -0.500544       -13.6205
  49   2.0000      -0.496347       -13.5063
  50   2.0000      -0.493911       -13.4400
  51   2.0000      -0.478419       -13.0184
  52   2.0000      -0.473896       -12.8954
  53   2.0000      -0.472946       -12.8695
  54   2.0000      -0.460663       -12.5353
  55   2.0000      -0.451878       -12.2962
  56   2.0000      -0.444083       -12.0841
  57   2.0000      -0.441647       -12.0178
  58   2.0000      -0.437164       -11.8958
  59   2.0000      -0.427040       -11.6204
  60   2.0000      -0.424906       -11.5623
  61   2.0000      -0.415650       -11.3104
  62   2.0000      -0.411153       -11.1881
  63   2.0000      -0.349439        -9.5087
  64   2.0000      -0.333655        -9.0792
  65   2.0000      -0.327144        -8.9020
  66   2.0000      -0.290256        -7.8983
  67   0.0000       0.029852         0.8123
  68   0.0000       0.063999         1.7415
  69   0.0000       0.105335         2.8663
  70   0.0000       0.115153         3.1335
  71   0.0000       0.130391         3.5481

MULLIKEN ATOMIC CHARGES
-----------------------
   0 S :    0.112866
   1 C :   -0.111930
   2 C :   -0.111066
   3 C :    0.023061
   4 C :   -0.158184
   5 H :    0.021029
   6 C :    0.114110
   7 H :    0.019931
   8 H :   -0.002081
   9 C :   -0.097281
  10 H :    0.033330
  11 H :    0.027517
  12 C :   -0.026544
  13 H :    0.030868
  14 H :    0.033311
  15 H :    0.022593
  16 S :    0.122557
  17 C :   -0.112432
  18 C :   -0.067196
  19 C :   -0.065431
  20 C :   -0.169518
  21 H :    0.038964
  22 C :    0.142656
  23 H :    0.033516
  24 H :   -0.004723
  25 C :   -0.046965
  26 H :    0.010327
  27 H :    0.036117
  28 C :   -0.077170
  29 H :    0.031495
  30 H :    0.044293
  31 H :    0.028547
  32 H :    0.051130
  33 H :    0.072304
Sum of atomic charges:    0.0000000

LOEWDIN ATOMIC CHARGES
----------------------
   0 S :    0.379607
   1 C :   -0.199150
   2 C :   -0.060669
   3 C :   -0.069508
   4 C :   -0.174922
   5 H :    0.038847
   6 C :   -0.022416
   7 H :    0.020485
   8 H :    0.023481
   9 C :   -0.040602
  10 H :    0.024132
  11 H :    0.025608
  12 C :   -0.063927
  13 H :    0.029110
  14 H :    0.025287
  15 H :    0.023103
  16 S :    0.453041
  17 C :   -0.207764
  18 C :   -0.069150
  19 C :   -0.057243
  20 C :   -0.223187
  21 H :    0.036717
  22 C :   -0.022391
  23 H :    0.034514
  24 H :    0.019673
  25 C :   -0.033956
  26 H :    0.009468
  27 H :    0.032904
  28 C :   -0.067842
  29 H :    0.025542
  30 H :    0.023867
  31 H :    0.028232
  32 H :    0.028622
  33 H :    0.030487

  Mayer bond orders larger than 0.100000
B(  0-S ,  1-C ) :   1.1350 B(  0-S ,  4-C ) :   1.1309 B(  1-C ,  2-C ) :   1.6136
B(  1-C ,  4-C ) :   0.1025 B(  1-C , 32-H ) :   0.9595 B(  2-C ,  3-C ) :   1.2292
B(  2-C ,  6-C ) :   1.0435 B(  3-C ,  4-C ) :   1.5998 B(  3-C ,  5-H ) :   0.9854
B(  4-C , 20-C ) :   1.0323 B(  6-C ,  7-H ) :   0.9358 B(  6-C ,  8-H ) :   0.9365
B(  6-C ,  9-C ) :   1.0481 B(  9-C , 10-H ) :   0.9571 B(  9-C , 11-H ) :   0.9585
B(  9-C , 12-C ) :   1.0812 B( 12-C , 13-H ) :   0.9732 B( 12-C , 14-H ) :   0.9740
B( 12-C , 15-H ) :   0.9754 B( 16-S , 17-C ) :   1.1748 B( 16-S , 20-C ) :   1.1786
B( 17-C , 18-C ) :   1.5797 B( 17-C , 33-H ) :   0.9642 B( 18-C , 19-C ) :   1.2424
B( 18-C , 21-H ) :   0.9845 B( 19-C , 20-C ) :   1.5813 B( 19-C , 22-C ) :   1.0350
B( 22-C , 23-H ) :   0.9302 B( 22-C , 24-H ) :   0.9220 B( 22-C , 25-C ) :   1.0657
B( 25-C , 26-H ) :   0.9533 B( 25-C , 27-H ) :   0.9548 B( 25-C , 28-C ) :   1.0857
B( 28-C , 29-H ) :   0.9755 B( 28-C , 30-H ) :   0.9729 B( 28-C , 31-H ) :   0.9715

Dispersion correction           -0.014386192
FINAL SINGLE POINT ENERGY     -1339.867121265297

DIPOLE MOMENT
-------------
                                X             Y             Z
Electronic contribution:    -16.60399       1.89051     -24.51623
Nuclear contribution   :     17.10888      -1.80648      25.10308
                        -----------------------------------------
Total Dipole Moment    :      0.50489       0.08403       0.58684
                        -----------------------------------------
Magnitude (a.u.)       :      0.77869
Magnitude (Debye)      :      1.97927

Rotational constants in cm-1:     0.018987     0.008710     0.006302
Rotational constants in MHz :   569.223246   261.111582   188.931822

                             ****ORCA TERMINATED NORMALLY****
TOTAL RUN TIME: 0 days 0 hours 0 minutes 21 seconds 576 msec
