                         Program Version 4.2.1 -  RELEASE  -
|  1> ! wB97X-D3 SP def2-SVP
|  2> %pal
|  3> nprocs 24
|  4> end
|  5>
|  6> * xyz 0 1
|  7> S 	 -126.218 	 66.3725 	 -37.2765
|  8> C 	 -126.211 	 65.0773 	 -38.4496
|  9> C 	 -124.948 	 64.442 	 -38.4693
| 10> C 	 -124.097 	 64.9679 	 -37.4294
| 11> C 	 -124.643 	 65.9787 	 -36.6822
| 12> H 	 -123.107 	 64.7915 	 -37.2154
| 13> C 	 -124.46 	 63.3197 	 -39.3665
| 14> H 	 -125.288 	 62.632 	 -39.3056
| 15> H 	 -123.659 	 62.7404 	 -38.8518
| 16> C 	 -124.172 	 63.7716 	 -40.8574
| 17> H 	 -124.156 	 62.8036 	 -41.4517
| 18> H 	 -125.05 	 64.3607 	 -41.1534
| 19> C 	 -122.917 	 64.6488 	 -40.9837
| 20> H 	 -122.068 	 64.058 	 -40.6574
| 21> H 	 -122.775 	 64.927 	 -42.0765
| 22> H 	 -122.876 	 65.5535 	 -40.4217
| 23> S 	 -124.119 	 66.3911 	 -34.0025
| 24> C 	 -122.965 	 67.6669 	 -33.7232
| 25> C 	 -122.494 	 68.3148 	 -34.8137
| 26> C 	 -123.008 	 67.7673 	 -36.0023
| 27> C 	 -123.882 	 66.7318 	 -35.7434
| 28> H 	 -121.815 	 69.1056 	 -34.6062
| 29> C 	 -122.663 	 68.3486 	 -37.4023
| 30> H 	 -122.182 	 67.5649 	 -37.9886
| 31> H 	 -121.928 	 69.1172 	 -37.2607
| 32> C 	 -123.765 	 69.0294 	 -38.2573
| 33> H 	 -124.368 	 69.6804 	 -37.6305
| 34> H 	 -124.511 	 68.2773 	 -38.6625
| 35> C 	 -123.127 	 69.8925 	 -39.3561
| 36> H 	 -122.536 	 69.3614 	 -40.0228
| 37> H 	 -122.548 	 70.7479 	 -38.9792
| 38> H 	 -123.998 	 70.3066 	 -39.9215
| 39> H 	 -126.948 	 64.8451 	 -39.1563
| 40> H 	 -122.689 	 68.0843 	 -32.7389
| 41> *
| 42>
| 43>                          ****END OF INPUT****

CARTESIAN COORDINATES (ANGSTROEM)
---------------------------------
  S    -126.218000   66.372500  -37.276500
  C    -126.211000   65.077300  -38.449600
  C    -124.948000   64.442000  -38.469300
  C    -124.097000   64.967900  -37.429400
  C    -124.643000   65.978700  -36.682200
  H    -123.107000   64.791500  -37.215400
  C    -124.460000   63.319700  -39.366500
  H    -125.288000   62.632000  -39.305600
  H    -123.659000   62.740400  -38.851800
  C    -124.172000   63.771600  -40.857400
  H    -124.156000   62.803600  -41.451700
  H    -125.050000   64.360700  -41.153400
  C    -122.917000   64.648800  -40.983700
  H    -122.068000   64.058000  -40.657400
  H    -122.775000   64.927000  -42.076500
  H    -122.876000   65.553500  -40.421700
  S    -124.119000   66.391100  -34.002500
  C    -122.965000   67.666900  -33.723200
  C    -122.494000   68.314800  -34.813700
  C    -123.008000   67.767300  -36.002300
  C    -123.882000   66.731800  -35.743400
  H    -121.815000   69.105600  -34.606200
  C    -122.663000   68.348600  -37.402300
  H    -122.182000   67.564900  -37.988600
  H    -121.928000   69.117200  -37.260700
  C    -123.765000   69.029400  -38.257300
  H    -124.368000   69.680400  -37.630500
  H    -124.511000   68.277300  -38.662500
  C    -123.127000   69.892500  -39.356100
  H    -122.536000   69.361400  -40.022800
  H    -122.548000   70.747900  -38.979200
  H    -123.998000   70.306600  -39.921500
  H    -126.948000   64.845100  -39.156300
  H    -122.689000   68.084300  -32.738900

 Total Charge           Charge          ....    0
 Multiplicity           Mult            ....    1
 Number of Electrons    NEL             ....  134
 Basis Dimension        Dim             ....  322

ORBITAL ENERGIES
----------------

  NO   OCC          E(Eh)            E(eV)
   0   2.0000     -88.967240     -2420.9217
   1   2.0000     -88.966676     -2420.9063
   2   2.0000     -10.320452      -280.8338
   3   2.0000     -10.316095      -280.7152
   4   2.0000     -10.313401      -280.6419
   5   2.0000     -10.312394      -280.6145
   6   2.0000     -10.303764      -280.3797
   7   2.0000     -10.303527      -280.3732
   8   2.0000     -10.299243      -280.2566
   9   2.0000     -10.294278      -280.1215
  10   2.0000     -10.291200      -280.0378
  11   2.0000     -10.286939      -279.9218
  12   2.0000     -10.285172      -279.8737
  13   2.0000     -10.281756      -279.7808
  14   2.0000     -10.280986      -279.7598
  15   2.0000     -10.275276      -279.6045
  16   2.0000      -8.081640      -219.9126
  17   2.0000      -8.080943      -219.8936
  18   2.0000      -6.039966      -164.3558
  19   2.0000      -6.039444      -164.3416
  20   2.0000      -6.036479      -164.2609
  21   2.0000      -6.035313      -164.2292
  22   2.0000      -6.032334      -164.1481
  23   2.0000      -6.031939      -164.1374
  24   2.0000      -1.007354       -27.4115
  25   2.0000      -0.983024       -26.7494
  26   2.0000      -0.905971       -24.6527
  27   2.0000      -0.901961       -24.5436
  28   2.0000      -0.871152       -23.7052
  29   2.0000      -0.852449       -23.1963
  30   2.0000      -0.845259       -23.0007
  31   2.0000      -0.813810       -22.1449
  32   2.0000      -0.783234       -21.3129
  33   2.0000      -0.769972       -20.9520
  34   2.0000      -0.707703       -19.2576
  35   2.0000      -0.702794       -19.1240
  36   2.0000      -0.690331       -18.7849
  37   2.0000      -0.655659       -17.8414
  38   2.0000      -0.648314       -17.6415
  39   2.0000      -0.608375       -16.5547
  40   2.0000      -0.593247       -16.1431
  41   2.0000      -0.573697       -15.6111
  42   2.0000      -0.562763       -15.3136
  43   2.0000      -0.542851       -14.7717
  44   2.0000      -0.538876       -14.6635
  45   2.0000      -0.521237       -14.1836
  46   2.0000      -0.513399       -13.9703
  47   2.0000      -0.511512       -13.9190
  48   2.0000      -0.499973       -13.6050
  49   2.0000      -0.495885       -13.4937
  50   2.0000      -0.489158       -13.3107
  51   2.0000      -0.476189       -12.9578
  52   2.0000      -0.474872       -12.9219
  53   2.0000      -0.464789       -12.6475
  54   2.0000      -0.464009       -12.6263
  55   2.0000      -0.453958       -12.3528
  56   2.0000      -0.438335       -11.9277
  57   2.0000      -0.436300       -11.8723
  58   2.0000      -0.430561       -11.7161
  59   2.0000      -0.424121       -11.5409
  60   2.0000      -0.421197       -11.4614
  61   2.0000      -0.416438       -11.3319
  62   2.0000      -0.413983       -11.2650
  63   2.0000      -0.338751        -9.2179
  64   2.0000      -0.328837        -8.9481
  65   2.0000      -0.316772        -8.6198
  66   2.0000      -0.308627        -8.3982
  67   0.0000       0.043628         1.1872
  68   0.0000       0.053935         1.4677
  69   0.0000       0.110169         2.9979
  70   0.0000       0.122473         3.3326
  71   0.0000       0.127022         3.4564

MULLIKEN ATOMIC CHARGES
-----------------------
   0 S :    0.119756
   1 C :   -0.098388
   2 C :   -0.098644
   3 C :    0.073433
   4 C :   -0.169604
   5 H :   -0.025887
   6 C :    0.041592
   7 H :    0.024797
   8 H :    0.033396
   9 C :   -0.069998
  10 H :    0.048005
  11 H :    0.029820
  12 C :   -0.050339
  13 H :    0.026527
  14 H :    0.044615
  15 H :    0.037129
  16 S :    0.122208
  17 C :   -0.086481
  18 C :   -0.044665
  19 C :    0.009298
  20 C :   -0.220914
  21 H :    0.006610
  22 C :    0.109182
  23 H :    0.029472
  24 H :   -0.000210
  25 C :   -0.092202
  26 H :    0.024457
  27 H :    0.050691
  28 C :   -0.044419
  29 H :    0.019629
  30 H :    0.035720
  31 H :    0.037285
  32 H :    0.026990
  33 H :    0.051137
Sum of atomic charges:   -0.0000000

LOEWDIN ATOMIC CHARGES
----------------------
   0 S :    0.427157
   1 C :   -0.199425
   2 C :   -0.056985
   3 C :   -0.052069
   4 C :   -0.212867
   5 H :    0.017132
   6 C :   -0.041162
   7 H :    0.030779
   8 H :    0.033480
   9 C :   -0.037845
  10 H :    0.033292
  11 H :    0.023725
  12 C :   -0.068856
  13 H :    0.024067
  14 H :    0.035394
  15 H :    0.022507
  16 S :    0.393692
  17 C :   -0.182883
  18 C :   -0.074971
  19 C :   -0.043845
  20 C :   -0.194060
  21 H :    0.031254
  22 C :   -0.028238
  23 H :    0.031724
  24 H :    0.024158
  25 C :   -0.042943
  26 H :    0.022064
  27 H :    0.025340
  28 C :   -0.062581
  29 H :    0.012363
  30 H :    0.026610
  31 H :    0.034949
  32 H :    0.017685
  33 H :    0.031362

  Mayer bond orders larger than 0.100000
B(  0-S ,  1-C ) :   1.1466 B(  0-S ,  4-C ) :   1.1487 B(  1-C ,  2-C ) :   1.5875
B(  1-C , 32-H ) :   0.9756 B(  2-C ,  3-C ) :   1.2322 B(  2-C ,  6-C ) :   1.0075
B(  3-C ,  4-C ) :   1.5864 B(  3-C ,  5-H ) :   1.0048 B(  4-C , 20-C ) :   1.0416
B(  6-C ,  7-H ) :   0.9374 B(  6-C ,  8-H ) :   0.9517 B(  6-C ,  9-C ) :   1.0549
B(  9-C , 10-H ) :   0.9573 B(  9-C , 11-H ) :   0.9581 B(  9-C , 12-C ) :   1.0694
B( 12-C , 13-H ) :   0.9754 B( 12-C , 14-H ) :   0.9731 B( 12-C , 15-H ) :   0.9761
B( 16-S , 17-C ) :   1.1453 B( 16-S , 20-C ) :   1.1272 B( 17-C , 18-C ) :   1.6665
B( 17-C , 33-H ) :   0.9538 B( 18-C , 19-C ) :   1.2120 B( 18-C , 21-H ) :   0.9952
B( 19-C , 20-C ) :   1.6277 B( 19-C , 22-C ) :   1.0310 B( 22-C , 23-H ) :   0.9255
B( 22-C , 24-H ) :   0.9356 B( 22-C , 25-C ) :   1.0628 B( 25-C , 26-H ) :   0.9557
B( 25-C , 27-H ) :   0.9490 B( 25-C , 28-C ) :   1.0855 B( 28-C , 29-H ) :   0.9772
B( 28-C , 30-H ) :   0.9729 B( 28-C , 31-H ) :   0.9727

Dispersion correction           -0.015655609
FINAL SINGLE POINT ENERGY     -1339.874101542296

DIPOLE MOMENT
-------------
                                X             Y             Z
Electronic contribution:    -10.84805      -2.95131      25.71421
Nuclear contribution   :     11.23284       3.06164     -26.18519
                        -----------------------------------------
Total Dipole Moment    :      0.38480       0.11033      -0.47098
                        -----------------------------------------
Magnitude (a.u.)       :      0.61811
Magnitude (Debye)      :      1.57112

Rotational constants in cm-1:     0.018004     0.009680     0.007824
Rotational constants in MHz :   539.750751   290.203887   234.567550

                             ****ORCA TERMINATED NORMALLY****
TOTAL RUN TIME: 0 days 0 hours 0 minutes 21 seconds 446 msec
