                         Program Version 4.2.1 -  RELEASE  -
|  1> ! wB97X-D3 SP def2-SVP
|  2> %pal
|  3> nprocs 24
|  4> end
|  5>
|  6> * xyz 0 1
|  7> S 	 -118.707 	 20.9098 	 -109.881
|  8> C 	 -119.52 	 21.8688 	 -111.136
|  9> C 	 -120.299 	 21.0402 	 -111.894
| 10> C 	 -120.23 	 19.677 	 -111.501
| 11> C 	 -119.466 	 19.4053 	 -110.364
| 12> H 	 -120.747 	 18.8722 	 -112.03
| 13> C 	 -121.108 	 21.4707 	 -113.074
| 14> H 	 -121.07 	 22.5551 	 -113.091
| 15> H 	 -122.176 	 21.223 	 -112.99
| 16> C 	 -120.569 	 20.999 	 -114.435
| 17> H 	 -119.635 	 21.4947 	 -114.664
| 18> H 	 -120.385 	 19.9546 	 -114.505
| 19> C 	 -121.576 	 21.3475 	 -115.517
| 20> H 	 -121.216 	 20.9408 	 -116.452
| 21> H 	 -122.549 	 20.8914 	 -115.318
| 22> H 	 -121.697 	 22.4215 	 -115.542
| 23> S 	 -117.969 	 17.0549 	 -109.826
| 24> C 	 -118.574 	 15.9779 	 -108.627
| 25> C 	 -119.836 	 16.3692 	 -108.248
| 26> C 	 -120.31 	 17.5872 	 -108.865
| 27> C 	 -119.367 	 18.1605 	 -109.656
| 28> H 	 -120.296 	 15.8346 	 -107.456
| 29> C 	 -121.622 	 18.19 	 -108.495
| 30> H 	 -121.543 	 19.2892 	 -108.627
| 31> H 	 -121.756 	 17.9655 	 -107.447
| 32> C 	 -122.814 	 17.6387 	 -109.386
| 33> H 	 -122.965 	 16.6568 	 -108.954
| 34> H 	 -122.736 	 17.5241 	 -110.478
| 35> C 	 -124.05 	 18.3875 	 -108.998
| 36> H 	 -124.246 	 18.3381 	 -107.963
| 37> H 	 -124.904 	 17.7902 	 -109.462
| 38> H 	 -124.095 	 19.4435 	 -109.366
| 39> H 	 -119.249 	 22.8809 	 -111.393
| 40> H 	 -118.184 	 14.9978 	 -108.498
| 41> *
| 42>
| 43>                          ****END OF INPUT****

CARTESIAN COORDINATES (ANGSTROEM)
---------------------------------
  S    -118.707000   20.909800  -109.881000
  C    -119.520000   21.868800  -111.136000
  C    -120.299000   21.040200  -111.894000
  C    -120.230000   19.677000  -111.501000
  C    -119.466000   19.405300  -110.364000
  H    -120.747000   18.872200  -112.030000
  C    -121.108000   21.470700  -113.074000
  H    -121.070000   22.555100  -113.091000
  H    -122.176000   21.223000  -112.990000
  C    -120.569000   20.999000  -114.435000
  H    -119.635000   21.494700  -114.664000
  H    -120.385000   19.954600  -114.505000
  C    -121.576000   21.347500  -115.517000
  H    -121.216000   20.940800  -116.452000
  H    -122.549000   20.891400  -115.318000
  H    -121.697000   22.421500  -115.542000
  S    -117.969000   17.054900  -109.826000
  C    -118.574000   15.977900  -108.627000
  C    -119.836000   16.369200  -108.248000
  C    -120.310000   17.587200  -108.865000
  C    -119.367000   18.160500  -109.656000
  H    -120.296000   15.834600  -107.456000
  C    -121.622000   18.190000  -108.495000
  H    -121.543000   19.289200  -108.627000
  H    -121.756000   17.965500  -107.447000
  C    -122.814000   17.638700  -109.386000
  H    -122.965000   16.656800  -108.954000
  H    -122.736000   17.524100  -110.478000
  C    -124.050000   18.387500  -108.998000
  H    -124.246000   18.338100  -107.963000
  H    -124.904000   17.790200  -109.462000
  H    -124.095000   19.443500  -109.366000
  H    -119.249000   22.880900  -111.393000
  H    -118.184000   14.997800  -108.498000

 Total Charge           Charge          ....    0
 Multiplicity           Mult            ....    1
 Number of Electrons    NEL             ....  134
 Basis Dimension        Dim             ....  322

ORBITAL ENERGIES
----------------

  NO   OCC          E(Eh)            E(eV)
   0   2.0000     -88.963222     -2420.8123
   1   2.0000     -88.960151     -2420.7288
   2   2.0000     -10.329089      -281.0688
   3   2.0000     -10.322067      -280.8777
   4   2.0000     -10.315577      -280.7011
   5   2.0000     -10.313387      -280.6415
   6   2.0000     -10.299375      -280.2603
   7   2.0000     -10.297064      -280.1973
   8   2.0000     -10.293877      -280.1106
   9   2.0000     -10.291714      -280.0518
  10   2.0000     -10.290701      -280.0242
  11   2.0000     -10.289777      -279.9991
  12   2.0000     -10.287864      -279.9470
  13   2.0000     -10.280733      -279.7530
  14   2.0000     -10.277485      -279.6646
  15   2.0000     -10.275046      -279.5982
  16   2.0000      -8.077454      -219.7987
  17   2.0000      -8.075142      -219.7358
  18   2.0000      -6.036046      -164.2492
  19   2.0000      -6.033658      -164.1842
  20   2.0000      -6.031840      -164.1347
  21   2.0000      -6.029572      -164.0730
  22   2.0000      -6.028322      -164.0390
  23   2.0000      -6.025912      -163.9734
  24   2.0000      -1.005669       -27.3656
  25   2.0000      -0.984684       -26.7946
  26   2.0000      -0.916713       -24.9450
  27   2.0000      -0.910600       -24.7787
  28   2.0000      -0.875548       -23.8249
  29   2.0000      -0.853873       -23.2351
  30   2.0000      -0.844833       -22.9891
  31   2.0000      -0.813683       -22.1414
  32   2.0000      -0.779612       -21.2143
  33   2.0000      -0.769140       -20.9294
  34   2.0000      -0.709309       -19.3013
  35   2.0000      -0.699187       -19.0258
  36   2.0000      -0.695326       -18.9208
  37   2.0000      -0.662347       -18.0234
  38   2.0000      -0.642519       -17.4838
  39   2.0000      -0.620236       -16.8775
  40   2.0000      -0.594128       -16.1670
  41   2.0000      -0.574293       -15.6273
  42   2.0000      -0.570265       -15.5177
  43   2.0000      -0.565098       -15.3771
  44   2.0000      -0.533345       -14.5131
  45   2.0000      -0.525671       -14.3042
  46   2.0000      -0.517846       -14.0913
  47   2.0000      -0.514013       -13.9870
  48   2.0000      -0.510284       -13.8855
  49   2.0000      -0.503279       -13.6949
  50   2.0000      -0.492719       -13.4076
  51   2.0000      -0.477381       -12.9902
  52   2.0000      -0.469782       -12.7834
  53   2.0000      -0.462066       -12.5734
  54   2.0000      -0.458516       -12.4769
  55   2.0000      -0.450613       -12.2618
  56   2.0000      -0.444022       -12.0824
  57   2.0000      -0.439763       -11.9666
  58   2.0000      -0.432964       -11.7816
  59   2.0000      -0.426135       -11.5957
  60   2.0000      -0.421405       -11.4670
  61   2.0000      -0.413545       -11.2531
  62   2.0000      -0.406202       -11.0533
  63   2.0000      -0.330603        -8.9962
  64   2.0000      -0.327959        -8.9242
  65   2.0000      -0.324298        -8.8246
  66   2.0000      -0.310942        -8.4612
  67   0.0000       0.039299         1.0694
  68   0.0000       0.056679         1.5423
  69   0.0000       0.121334         3.3017
  70   0.0000       0.126102         3.4314
  71   0.0000       0.129146         3.5142

MULLIKEN ATOMIC CHARGES
-----------------------
   0 S :    0.104232
   1 C :   -0.122694
   2 C :   -0.069230
   3 C :    0.042291
   4 C :   -0.183477
   5 H :    0.014225
   6 C :    0.052790
   7 H :    0.007479
   8 H :    0.032725
   9 C :   -0.065680
  10 H :    0.024799
  11 H :    0.022777
  12 C :   -0.029698
  13 H :    0.030564
  14 H :    0.025173
  15 H :    0.026279
  16 S :    0.099074
  17 C :   -0.075200
  18 C :   -0.039263
  19 C :    0.004692
  20 C :   -0.179966
  21 H :    0.007332
  22 C :    0.053747
  23 H :    0.041542
  24 H :    0.027538
  25 C :   -0.077250
  26 H :    0.019313
  27 H :    0.046490
  28 C :   -0.043716
  29 H :    0.018682
  30 H :    0.029859
  31 H :    0.046430
  32 H :    0.050062
  33 H :    0.058081
Sum of atomic charges:    0.0000000

LOEWDIN ATOMIC CHARGES
----------------------
   0 S :    0.396442
   1 C :   -0.186593
   2 C :   -0.069984
   3 C :   -0.057832
   4 C :   -0.195588
   5 H :    0.030914
   6 C :   -0.032027
   7 H :    0.028048
   8 H :    0.032267
   9 C :   -0.033855
  10 H :    0.024542
  11 H :    0.017158
  12 C :   -0.058289
  13 H :    0.024788
  14 H :    0.022797
  15 H :    0.022123
  16 S :    0.394226
  17 C :   -0.183754
  18 C :   -0.073215
  19 C :   -0.046844
  20 C :   -0.199476
  21 H :    0.023717
  22 C :   -0.026764
  23 H :    0.033813
  24 H :    0.031798
  25 C :   -0.038147
  26 H :    0.024466
  27 H :    0.028808
  28 C :   -0.067669
  29 H :    0.016773
  30 H :    0.031607
  31 H :    0.028361
  32 H :    0.029797
  33 H :    0.027594

  Mayer bond orders larger than 0.100000
B(  0-S ,  1-C ) :   1.1363 B(  0-S ,  4-C ) :   1.1483 B(  1-C ,  2-C ) :   1.6041
B(  1-C ,  4-C ) :   0.1000 B(  1-C , 32-H ) :   0.9674 B(  2-C ,  3-C ) :   1.2484
B(  2-C ,  6-C ) :   1.0339 B(  3-C ,  4-C ) :   1.5689 B(  3-C ,  5-H ) :   0.9937
B(  4-C , 20-C ) :   1.0440 B(  6-C ,  7-H ) :   0.9355 B(  6-C ,  8-H ) :   0.9425
B(  6-C ,  9-C ) :   1.0610 B(  9-C , 10-H ) :   0.9513 B(  9-C , 11-H ) :   0.9599
B(  9-C , 12-C ) :   1.0896 B( 12-C , 13-H ) :   0.9728 B( 12-C , 14-H ) :   0.9744
B( 12-C , 15-H ) :   0.9745 B( 16-S , 17-C ) :   1.1618 B( 16-S , 20-C ) :   1.1213
B( 17-C , 18-C ) :   1.6175 B( 17-C , 33-H ) :   0.9660 B( 18-C , 19-C ) :   1.2220
B( 18-C , 21-H ) :   0.9942 B( 19-C , 20-C ) :   1.6190 B( 19-C , 22-C ) :   1.0475
B( 22-C , 23-H ) :   0.9345 B( 22-C , 24-H ) :   0.9355 B( 22-C , 25-C ) :   1.0483
B( 25-C , 26-H ) :   0.9495 B( 25-C , 27-H ) :   0.9623 B( 25-C , 28-C ) :   1.0965
B( 28-C , 29-H ) :   0.9687 B( 28-C , 30-H ) :   0.9717 B( 28-C , 31-H ) :   0.9740

Dispersion correction           -0.014207949
FINAL SINGLE POINT ENERGY     -1339.884339821413

DIPOLE MOMENT
-------------
                                X             Y             Z
Electronic contribution:     24.70817      -4.64971      13.26103
Nuclear contribution   :    -25.35146       4.52368     -13.50544
                        -----------------------------------------
Total Dipole Moment    :     -0.64328      -0.12604      -0.24442
                        -----------------------------------------
Magnitude (a.u.)       :      0.69960
Magnitude (Debye)      :      1.77824

Rotational constants in cm-1:     0.017618     0.008436     0.007069
Rotational constants in MHz :   528.161187   252.894288   211.935871

                             ****ORCA TERMINATED NORMALLY****
TOTAL RUN TIME: 0 days 0 hours 0 minutes 21 seconds 603 msec
