                         Program Version 4.2.1 -  RELEASE  -
|  1> ! wB97X-D3 SP def2-SVP
|  2> %pal
|  3> nprocs 24
|  4> end
|  5>
|  6> * xyz 0 1
|  7> S 	 -90.4947 	 -29.8725 	 -56.0425
|  8> C 	 -89.0478 	 -29.9809 	 -56.9447
|  9> C 	 -87.9266 	 -29.9674 	 -56.0785
| 10> C 	 -88.3587 	 -29.8538 	 -54.7163
| 11> C 	 -89.7056 	 -29.795 	 -54.4965
| 12> H 	 -87.6488 	 -29.8135 	 -53.8812
| 13> C 	 -86.4799 	 -30.1404 	 -56.4751
| 14> H 	 -85.8864 	 -30.2101 	 -55.4936
| 15> H 	 -86.1516 	 -29.1677 	 -56.9401
| 16> C 	 -86.2779 	 -31.3576 	 -57.4114
| 17> H 	 -86.3641 	 -32.3895 	 -56.9044
| 18> H 	 -87.008 	 -31.5092 	 -58.1389
| 19> C 	 -84.8659 	 -31.2564 	 -58.0831
| 20> H 	 -84.6836 	 -32.0349 	 -58.8636
| 21> H 	 -84.7424 	 -30.2309 	 -58.5376
| 22> H 	 -84.1269 	 -31.4915 	 -57.2661
| 23> S 	 -91.7432 	 -28.3598 	 -53.5469
| 24> C 	 -92.0101 	 -28.1463 	 -51.848
| 25> C 	 -91.1426 	 -28.9104 	 -51.0767
| 26> C 	 -90.1844 	 -29.6151 	 -51.8798
| 27> C 	 -90.3927 	 -29.3536 	 -53.2746
| 28> H 	 -91.1479 	 -29.0137 	 -50.0484
| 29> C 	 -89.1584 	 -30.5557 	 -51.2752
| 30> H 	 -89.0855 	 -30.2913 	 -50.2089
| 31> H 	 -88.2033 	 -30.2184 	 -51.6833
| 32> C 	 -89.2395 	 -32.0549 	 -51.5166
| 33> H 	 -88.3277 	 -32.4837 	 -51.0766
| 34> H 	 -89.3688 	 -32.416 	 -52.5766
| 35> C 	 -90.3208 	 -32.6439 	 -50.6406
| 36> H 	 -90.3108 	 -33.7223 	 -50.7698
| 37> H 	 -91.3097 	 -32.1613 	 -50.8466
| 38> H 	 -90.1902 	 -32.4858 	 -49.5615
| 39> H 	 -88.8923 	 -30.1009 	 -57.9598
| 40> H 	 -92.8845 	 -27.6486 	 -51.488
| 41> *
| 42>
| 43>                          ****END OF INPUT****

CARTESIAN COORDINATES (ANGSTROEM)
---------------------------------
  S    -90.494700  -29.872500  -56.042500
  C    -89.047800  -29.980900  -56.944700
  C    -87.926600  -29.967400  -56.078500
  C    -88.358700  -29.853800  -54.716300
  C    -89.705600  -29.795000  -54.496500
  H    -87.648800  -29.813500  -53.881200
  C    -86.479900  -30.140400  -56.475100
  H    -85.886400  -30.210100  -55.493600
  H    -86.151600  -29.167700  -56.940100
  C    -86.277900  -31.357600  -57.411400
  H    -86.364100  -32.389500  -56.904400
  H    -87.008000  -31.509200  -58.138900
  C    -84.865900  -31.256400  -58.083100
  H    -84.683600  -32.034900  -58.863600
  H    -84.742400  -30.230900  -58.537600
  H    -84.126900  -31.491500  -57.266100
  S    -91.743200  -28.359800  -53.546900
  C    -92.010100  -28.146300  -51.848000
  C    -91.142600  -28.910400  -51.076700
  C    -90.184400  -29.615100  -51.879800
  C    -90.392700  -29.353600  -53.274600
  H    -91.147900  -29.013700  -50.048400
  C    -89.158400  -30.555700  -51.275200
  H    -89.085500  -30.291300  -50.208900
  H    -88.203300  -30.218400  -51.683300
  C    -89.239500  -32.054900  -51.516600
  H    -88.327700  -32.483700  -51.076600
  H    -89.368800  -32.416000  -52.576600
  C    -90.320800  -32.643900  -50.640600
  H    -90.310800  -33.722300  -50.769800
  H    -91.309700  -32.161300  -50.846600
  H    -90.190200  -32.485800  -49.561500
  H    -88.892300  -30.100900  -57.959800
  H    -92.884500  -27.648600  -51.488000

 Total Charge           Charge          ....    0
 Multiplicity           Mult            ....    1
 Number of Electrons    NEL             ....  134
 Basis Dimension        Dim             ....  322

ORBITAL ENERGIES
----------------

  NO   OCC          E(Eh)            E(eV)
   0   2.0000     -88.968122     -2420.9457
   1   2.0000     -88.967532     -2420.9296
   2   2.0000     -10.328523      -281.0534
   3   2.0000     -10.327409      -281.0231
   4   2.0000     -10.313658      -280.6489
   5   2.0000     -10.309808      -280.5441
   6   2.0000     -10.306485      -280.4537
   7   2.0000     -10.305564      -280.4287
   8   2.0000     -10.301543      -280.3192
   9   2.0000     -10.294252      -280.1208
  10   2.0000     -10.292721      -280.0792
  11   2.0000     -10.292127      -280.0630
  12   2.0000     -10.291217      -280.0383
  13   2.0000     -10.290777      -280.0263
  14   2.0000     -10.288209      -279.9564
  15   2.0000     -10.273412      -279.5538
  16   2.0000      -8.083421      -219.9611
  17   2.0000      -8.083391      -219.9603
  18   2.0000      -6.041985      -164.4108
  19   2.0000      -6.041661      -164.4020
  20   2.0000      -6.037673      -164.2934
  21   2.0000      -6.037654      -164.2929
  22   2.0000      -6.034436      -164.2053
  23   2.0000      -6.034229      -164.1997
  24   2.0000      -1.012209       -27.5436
  25   2.0000      -0.987590       -26.8737
  26   2.0000      -0.913086       -24.8463
  27   2.0000      -0.908456       -24.7203
  28   2.0000      -0.869325       -23.6555
  29   2.0000      -0.853827       -23.2338
  30   2.0000      -0.845583       -23.0095
  31   2.0000      -0.814221       -22.1561
  32   2.0000      -0.778430       -21.1821
  33   2.0000      -0.765910       -20.8415
  34   2.0000      -0.710530       -19.3345
  35   2.0000      -0.701066       -19.0770
  36   2.0000      -0.684779       -18.6338
  37   2.0000      -0.672161       -18.2904
  38   2.0000      -0.639902       -17.4126
  39   2.0000      -0.617613       -16.8061
  40   2.0000      -0.595761       -16.2115
  41   2.0000      -0.571416       -15.5490
  42   2.0000      -0.555709       -15.1216
  43   2.0000      -0.552696       -15.0396
  44   2.0000      -0.546621       -14.8743
  45   2.0000      -0.524094       -14.2613
  46   2.0000      -0.523431       -14.2433
  47   2.0000      -0.511650       -13.9227
  48   2.0000      -0.504119       -13.7178
  49   2.0000      -0.496342       -13.5062
  50   2.0000      -0.488762       -13.2999
  51   2.0000      -0.477689       -12.9986
  52   2.0000      -0.475224       -12.9315
  53   2.0000      -0.464432       -12.6378
  54   2.0000      -0.457411       -12.4468
  55   2.0000      -0.447746       -12.1838
  56   2.0000      -0.444311       -12.0903
  57   2.0000      -0.438250       -11.9254
  58   2.0000      -0.434726       -11.8295
  59   2.0000      -0.425110       -11.5678
  60   2.0000      -0.418765       -11.3952
  61   2.0000      -0.414079       -11.2677
  62   2.0000      -0.408931       -11.1276
  63   2.0000      -0.357293        -9.7224
  64   2.0000      -0.334276        -9.0961
  65   2.0000      -0.324473        -8.8294
  66   2.0000      -0.281925        -7.6716
  67   0.0000       0.024652         0.6708
  68   0.0000       0.076882         2.0921
  69   0.0000       0.111561         3.0357
  70   0.0000       0.120610         3.2820
  71   0.0000       0.135624         3.6905

MULLIKEN ATOMIC CHARGES
-----------------------
   0 S :    0.111008
   1 C :   -0.078727
   2 C :   -0.115583
   3 C :    0.005508
   4 C :   -0.111718
   5 H :    0.007071
   6 C :    0.044532
   7 H :    0.041326
   8 H :    0.052310
   9 C :   -0.081401
  10 H :    0.040287
  11 H :    0.015457
  12 C :   -0.092776
  13 H :    0.040928
  14 H :    0.046924
  15 H :    0.044028
  16 S :    0.115787
  17 C :   -0.084329
  18 C :    0.006354
  19 C :   -0.070955
  20 C :   -0.148941
  21 H :   -0.012545
  22 C :    0.060931
  23 H :    0.013739
  24 H :    0.020682
  25 C :   -0.043423
  26 H :    0.025466
  27 H :    0.058767
  28 C :   -0.074306
  29 H :    0.033858
  30 H :    0.040260
  31 H :    0.018617
  32 H :    0.018159
  33 H :    0.052705
Sum of atomic charges:   -0.0000000

LOEWDIN ATOMIC CHARGES
----------------------
   0 S :    0.429560
   1 C :   -0.204760
   2 C :   -0.063696
   3 C :   -0.069981
   4 C :   -0.206604
   5 H :    0.028211
   6 C :   -0.037777
   7 H :    0.040801
   8 H :    0.040339
   9 C :   -0.045564
  10 H :    0.037674
  11 H :    0.010401
  12 C :   -0.076320
  13 H :    0.026886
  14 H :    0.029165
  15 H :    0.030990
  16 S :    0.446089
  17 C :   -0.194281
  18 C :   -0.058491
  19 C :   -0.058844
  20 C :   -0.209660
  21 H :    0.018952
  22 C :   -0.037212
  23 H :    0.033190
  24 H :    0.029100
  25 C :   -0.042415
  26 H :    0.028626
  27 H :    0.037769
  28 C :   -0.072759
  29 H :    0.023881
  30 H :    0.028086
  31 H :    0.021045
  32 H :    0.014634
  33 H :    0.022965

  Mayer bond orders larger than 0.100000
B(  0-S ,  1-C ) :   1.1576 B(  0-S ,  4-C ) :   1.1538 B(  1-C ,  2-C ) :   1.5599
B(  1-C , 32-H ) :   0.9773 B(  2-C ,  3-C ) :   1.3046 B(  2-C ,  6-C ) :   1.0136
B(  3-C ,  4-C ) :   1.5443 B(  3-C ,  5-H ) :   0.9842 B(  4-C , 20-C ) :   1.0515
B(  6-C ,  7-H ) :   0.9459 B(  6-C ,  8-H ) :   0.9400 B(  6-C ,  9-C ) :   1.0422
B(  9-C , 10-H ) :   0.9526 B(  9-C , 11-H ) :   0.9659 B(  9-C , 12-C ) :   1.0692
B( 12-C , 13-H ) :   0.9755 B( 12-C , 14-H ) :   0.9771 B( 12-C , 15-H ) :   0.9771
B( 16-S , 17-C ) :   1.1720 B( 16-S , 20-C ) :   1.1827 B( 17-C , 18-C ) :   1.5455
B( 17-C , 33-H ) :   0.9728 B( 18-C , 19-C ) :   1.3020 B( 18-C , 21-H ) :   1.0006
B( 19-C , 20-C ) :   1.5181 B( 19-C , 22-C ) :   1.0403 B( 22-C , 23-H ) :   0.9302
B( 22-C , 24-H ) :   0.9267 B( 22-C , 25-C ) :   1.0738 B( 25-C , 26-H ) :   0.9474
B( 25-C , 27-H ) :   0.9548 B( 25-C , 28-C ) :   1.0778 B( 28-C , 29-H ) :   0.9738
B( 28-C , 30-H ) :   0.9768 B( 28-C , 31-H ) :   0.9735

Dispersion correction           -0.013970335
FINAL SINGLE POINT ENERGY     -1339.874595247587

DIPOLE MOMENT
-------------
                                X             Y             Z
Electronic contribution:    -21.66089      15.80924      -2.85142
Nuclear contribution   :     22.17344     -16.06482       3.02890
                        -----------------------------------------
Total Dipole Moment    :      0.51255      -0.25558       0.17747
                        -----------------------------------------
Magnitude (a.u.)       :      0.59960
Magnitude (Debye)      :      1.52407

Rotational constants in cm-1:     0.021535     0.007732     0.006275
Rotational constants in MHz :   645.598827   231.801923   188.118927

                             ****ORCA TERMINATED NORMALLY****
TOTAL RUN TIME: 0 days 0 hours 0 minutes 21 seconds 394 msec
