                         Program Version 4.2.1 -  RELEASE  -
|  1> ! wB97X-D3 SP def2-SVP
|  2> %pal
|  3> nprocs 24
|  4> end
|  5>
|  6> * xyz 0 1
|  7> S 	 -106.011 	 26.7063 	 -118.537
|  8> C 	 -105.774 	 28.3683 	 -118.259
|  9> C 	 -106.94 	 29.1169 	 -118.268
| 10> C 	 -108.138 	 28.2674 	 -118.251
| 11> C 	 -107.745 	 26.9355 	 -118.346
| 12> H 	 -109.196 	 28.4415 	 -118.192
| 13> C 	 -107.091 	 30.6434 	 -118.202
| 14> H 	 -108.103 	 30.7448 	 -118.536
| 15> H 	 -106.383 	 30.9052 	 -118.97
| 16> C 	 -106.95 	 31.2844 	 -116.803
| 17> H 	 -105.899 	 31.1499 	 -116.526
| 18> H 	 -107.178 	 32.3711 	 -116.772
| 19> C 	 -107.731 	 30.7149 	 -115.682
| 20> H 	 -107.205 	 29.8173 	 -115.258
| 21> H 	 -107.737 	 31.4594 	 -114.877
| 22> H 	 -108.779 	 30.4781 	 -115.913
| 23> S 	 -108.349 	 24.5366 	 -119.535
| 24> C 	 -109.407 	 23.421 	 -118.711
| 25> C 	 -110.043 	 24.0359 	 -117.719
| 26> C 	 -109.555 	 25.3255 	 -117.437
| 27> C 	 -108.594 	 25.749 	 -118.288
| 28> H 	 -110.795 	 23.5174 	 -117.081
| 29> C 	 -110.124 	 26.2198 	 -116.318
| 30> H 	 -111.19 	 26.0335 	 -116.22
| 31> H 	 -110.122 	 27.3242 	 -116.513
| 32> C 	 -109.536 	 25.977 	 -114.904
| 33> H 	 -110.082 	 25.0976 	 -114.439
| 34> H 	 -109.832 	 26.6332 	 -114.133
| 35> C 	 -108.001 	 25.8256 	 -114.881
| 36> H 	 -107.448 	 26.8357 	 -115.195
| 37> H 	 -107.557 	 24.8458 	 -115.328
| 38> H 	 -107.536 	 25.5475 	 -113.965
| 39> H 	 -104.849 	 28.8751 	 -118.439
| 40> H 	 -109.66 	 22.4516 	 -119.127
| 41> *
| 42>
| 43>                          ****END OF INPUT****

CARTESIAN COORDINATES (ANGSTROEM)
---------------------------------
  S    -106.011000   26.706300  -118.537000
  C    -105.774000   28.368300  -118.259000
  C    -106.940000   29.116900  -118.268000
  C    -108.138000   28.267400  -118.251000
  C    -107.745000   26.935500  -118.346000
  H    -109.196000   28.441500  -118.192000
  C    -107.091000   30.643400  -118.202000
  H    -108.103000   30.744800  -118.536000
  H    -106.383000   30.905200  -118.970000
  C    -106.950000   31.284400  -116.803000
  H    -105.899000   31.149900  -116.526000
  H    -107.178000   32.371100  -116.772000
  C    -107.731000   30.714900  -115.682000
  H    -107.205000   29.817300  -115.258000
  H    -107.737000   31.459400  -114.877000
  H    -108.779000   30.478100  -115.913000
  S    -108.349000   24.536600  -119.535000
  C    -109.407000   23.421000  -118.711000
  C    -110.043000   24.035900  -117.719000
  C    -109.555000   25.325500  -117.437000
  C    -108.594000   25.749000  -118.288000
  H    -110.795000   23.517400  -117.081000
  C    -110.124000   26.219800  -116.318000
  H    -111.190000   26.033500  -116.220000
  H    -110.122000   27.324200  -116.513000
  C    -109.536000   25.977000  -114.904000
  H    -110.082000   25.097600  -114.439000
  H    -109.832000   26.633200  -114.133000
  C    -108.001000   25.825600  -114.881000
  H    -107.448000   26.835700  -115.195000
  H    -107.557000   24.845800  -115.328000
  H    -107.536000   25.547500  -113.965000
  H    -104.849000   28.875100  -118.439000
  H    -109.660000   22.451600  -119.127000

 Total Charge           Charge          ....    0
 Multiplicity           Mult            ....    1
 Number of Electrons    NEL             ....  134
 Basis Dimension        Dim             ....  322

ORBITAL ENERGIES
----------------

  NO   OCC          E(Eh)            E(eV)
   0   2.0000     -88.966658     -2420.9058
   1   2.0000     -88.958316     -2420.6788
   2   2.0000     -10.327914      -281.0368
   3   2.0000     -10.320283      -280.8292
   4   2.0000     -10.311321      -280.5853
   5   2.0000     -10.307145      -280.4717
   6   2.0000     -10.304914      -280.4110
   7   2.0000     -10.297741      -280.2158
   8   2.0000     -10.297278      -280.2032
   9   2.0000     -10.296111      -280.1714
  10   2.0000     -10.290379      -280.0154
  11   2.0000     -10.289952      -280.0038
  12   2.0000     -10.287916      -279.9484
  13   2.0000     -10.287591      -279.9396
  14   2.0000     -10.283575      -279.8303
  15   2.0000     -10.278464      -279.6912
  16   2.0000      -8.082009      -219.9226
  17   2.0000      -8.073798      -219.6992
  18   2.0000      -6.040411      -164.3680
  19   2.0000      -6.036562      -164.2632
  20   2.0000      -6.032692      -164.1579
  21   2.0000      -6.032334      -164.1481
  22   2.0000      -6.028234      -164.0366
  23   2.0000      -6.024449      -163.9336
  24   2.0000      -1.011498       -27.5243
  25   2.0000      -0.988258       -26.8919
  26   2.0000      -0.913472       -24.8568
  27   2.0000      -0.899795       -24.4847
  28   2.0000      -0.872477       -23.7413
  29   2.0000      -0.853302       -23.2195
  30   2.0000      -0.840269       -22.8649
  31   2.0000      -0.817345       -22.2411
  32   2.0000      -0.781713       -21.2715
  33   2.0000      -0.772848       -21.0303
  34   2.0000      -0.703500       -19.1432
  35   2.0000      -0.697912       -18.9911
  36   2.0000      -0.691807       -18.8250
  37   2.0000      -0.662689       -18.0327
  38   2.0000      -0.643465       -17.5096
  39   2.0000      -0.606040       -16.4912
  40   2.0000      -0.592399       -16.1200
  41   2.0000      -0.573728       -15.6119
  42   2.0000      -0.554510       -15.0890
  43   2.0000      -0.551531       -15.0079
  44   2.0000      -0.549630       -14.9562
  45   2.0000      -0.533423       -14.5152
  46   2.0000      -0.517268       -14.0756
  47   2.0000      -0.505070       -13.7436
  48   2.0000      -0.501137       -13.6366
  49   2.0000      -0.495545       -13.4845
  50   2.0000      -0.481070       -13.0906
  51   2.0000      -0.478650       -13.0247
  52   2.0000      -0.468914       -12.7598
  53   2.0000      -0.462553       -12.5867
  54   2.0000      -0.456168       -12.4130
  55   2.0000      -0.449896       -12.2423
  56   2.0000      -0.443885       -12.0787
  57   2.0000      -0.440261       -11.9801
  58   2.0000      -0.422858       -11.5066
  59   2.0000      -0.416007       -11.3201
  60   2.0000      -0.409508       -11.1433
  61   2.0000      -0.408777       -11.1234
  62   2.0000      -0.399664       -10.8754
  63   2.0000      -0.349867        -9.5204
  64   2.0000      -0.331548        -9.0219
  65   2.0000      -0.329267        -8.9598
  66   2.0000      -0.293430        -7.9846
  67   0.0000       0.032290         0.8787
  68   0.0000       0.072883         1.9832
  69   0.0000       0.108682         2.9574
  70   0.0000       0.121399         3.3034
  71   0.0000       0.126362         3.4385

MULLIKEN ATOMIC CHARGES
-----------------------
   0 S :    0.130947
   1 C :   -0.096320
   2 C :   -0.157118
   3 C :    0.029346
   4 C :   -0.145112
   5 H :    0.017012
   6 C :    0.122977
   7 H :    0.011871
   8 H :    0.033909
   9 C :   -0.067394
  10 H :    0.024886
  11 H :    0.038897
  12 C :   -0.066062
  13 H :    0.047969
  14 H :    0.029547
  15 H :    0.029376
  16 S :    0.083138
  17 C :   -0.085762
  18 C :   -0.030870
  19 C :   -0.010138
  20 C :   -0.173100
  21 H :    0.029285
  22 C :    0.055875
  23 H :    0.018514
  24 H :    0.028255
  25 C :   -0.054373
  26 H :    0.016038
  27 H :    0.016761
  28 C :   -0.097111
  29 H :    0.067047
  30 H :    0.043530
  31 H :    0.012189
  32 H :    0.038554
  33 H :    0.057437
Sum of atomic charges:    0.0000000

LOEWDIN ATOMIC CHARGES
----------------------
   0 S :    0.426542
   1 C :   -0.222003
   2 C :   -0.054943
   3 C :   -0.061040
   4 C :   -0.182937
   5 H :    0.031023
   6 C :   -0.028228
   7 H :    0.026211
   8 H :    0.033508
   9 C :   -0.047279
  10 H :    0.026775
  11 H :    0.028919
  12 C :   -0.069840
  13 H :    0.032324
  14 H :    0.028973
  15 H :    0.021779
  16 S :    0.389451
  17 C :   -0.179397
  18 C :   -0.075590
  19 C :   -0.061430
  20 C :   -0.189040
  21 H :    0.039572
  22 C :   -0.032307
  23 H :    0.030416
  24 H :    0.030799
  25 C :   -0.050450
  26 H :    0.027201
  27 H :    0.020223
  28 C :   -0.097087
  29 H :    0.043992
  30 H :    0.041954
  31 H :    0.017915
  32 H :    0.023062
  33 H :    0.030928

  Mayer bond orders larger than 0.100000
B(  0-S ,  1-C ) :   1.1401 B(  0-S ,  4-C ) :   1.1563 B(  1-C ,  2-C ) :   1.6359
B(  1-C , 32-H ) :   0.9615 B(  2-C ,  3-C ) :   1.1952 B(  2-C ,  6-C ) :   0.9963
B(  3-C ,  4-C ) :   1.5977 B(  3-C ,  5-H ) :   0.9909 B(  4-C , 20-C ) :   1.0254
B(  6-C ,  7-H ) :   0.9379 B(  6-C ,  8-H ) :   0.9421 B(  6-C ,  9-C ) :   1.0647
B(  9-C , 10-H ) :   0.9543 B(  9-C , 11-H ) :   0.9621 B(  9-C , 12-C ) :   1.0867
B( 12-C , 13-H ) :   0.9695 B( 12-C , 14-H ) :   0.9707 B( 12-C , 15-H ) :   0.9746
B( 16-S , 17-C ) :   1.1394 B( 16-S , 20-C ) :   1.1373 B( 17-C , 18-C ) :   1.6265
B( 17-C , 33-H ) :   0.9667 B( 18-C , 19-C ) :   1.2360 B( 18-C , 21-H ) :   0.9829
B( 19-C , 20-C ) :   1.6353 B( 19-C , 22-C ) :   1.0272 B( 22-C , 23-H ) :   0.9356
B( 22-C , 24-H ) :   0.9484 B( 22-C , 25-C ) :   1.0635 B( 25-C , 26-H ) :   0.9517
B( 25-C , 27-H ) :   0.9552 B( 25-C , 28-C ) :   1.0781 B( 28-C , 29-H ) :   0.9691
B( 28-C , 30-H ) :   0.9632 B( 28-C , 31-H ) :   0.9677

Dispersion correction           -0.016392768
FINAL SINGLE POINT ENERGY     -1339.853833178608

DIPOLE MOMENT
-------------
                                X             Y             Z
Electronic contribution:      5.13855     -16.94079     -20.90895
Nuclear contribution   :     -5.48346      17.27190      21.32931
                        -----------------------------------------
Total Dipole Moment    :     -0.34491       0.33111       0.42036
                        -----------------------------------------
Magnitude (a.u.)       :      0.63663
Magnitude (Debye)      :      1.61818

Rotational constants in cm-1:     0.021353     0.009777     0.007782
Rotational constants in MHz :   640.145223   293.096078   233.311476

                             ****ORCA TERMINATED NORMALLY****
TOTAL RUN TIME: 0 days 0 hours 0 minutes 23 seconds 451 msec
