                         Program Version 4.2.1 -  RELEASE  -
|  1> ! wB97X-D3 SP def2-SVP
|  2> %pal
|  3> nprocs 24
|  4> end
|  5>
|  6> * xyz 0 1
|  7> S 	 -4.10578 	 -26.1819 	 -108.616
|  8> C 	 -4.38835 	 -24.8826 	 -109.694
|  9> C 	 -4.83243 	 -25.3452 	 -110.937
| 10> C 	 -4.83628 	 -26.7291 	 -111.041
| 11> C 	 -4.44642 	 -27.3834 	 -109.86
| 12> H 	 -5.14036 	 -27.3933 	 -111.897
| 13> C 	 -5.44996 	 -24.4871 	 -112.028
| 14> H 	 -4.92372 	 -24.7025 	 -112.983
| 15> H 	 -5.14923 	 -23.4641 	 -111.86
| 16> C 	 -7.02078 	 -24.6874 	 -112.092
| 17> H 	 -7.35767 	 -24.7191 	 -111.065
| 18> H 	 -7.52649 	 -23.8648 	 -112.484
| 19> C 	 -7.55335 	 -25.8365 	 -112.936
| 20> H 	 -7.84878 	 -26.6826 	 -112.208
| 21> H 	 -8.45818 	 -25.6126 	 -113.496
| 22> H 	 -6.84289 	 -26.289 	 -113.626
| 23> S 	 -2.98706 	 -29.5646 	 -108.924
| 24> C 	 -3.84866 	 -31.0333 	 -108.745
| 25> C 	 -5.17146 	 -30.9134 	 -109.068
| 26> C 	 -5.52654 	 -29.5975 	 -109.418
| 27> C 	 -4.41692 	 -28.7925 	 -109.553
| 28> H 	 -5.97335 	 -31.6538 	 -108.992
| 29> C 	 -6.89232 	 -29.1418 	 -109.706
| 30> H 	 -6.84361 	 -28.0777 	 -109.774
| 31> H 	 -7.67642 	 -29.2637 	 -108.956
| 32> C 	 -7.65096 	 -29.6866 	 -110.943
| 33> H 	 -7.03715 	 -29.4631 	 -111.849
| 34> H 	 -8.67247 	 -29.2073 	 -110.782
| 35> C 	 -7.91949 	 -31.2233 	 -110.955
| 36> H 	 -7.04177 	 -31.8278 	 -111.148
| 37> H 	 -8.71153 	 -31.506 	 -111.634
| 38> H 	 -8.47878 	 -31.6184 	 -110.012
| 39> H 	 -4.33858 	 -23.8124 	 -109.426
| 40> H 	 -3.4528 	 -32.0212 	 -108.647
| 41> *
| 42>
| 43>                          ****END OF INPUT****

CARTESIAN COORDINATES (ANGSTROEM)
---------------------------------
  S     -4.105780  -26.181900  -108.616000
  C     -4.388350  -24.882600  -109.694000
  C     -4.832430  -25.345200  -110.937000
  C     -4.836280  -26.729100  -111.041000
  C     -4.446420  -27.383400  -109.860000
  H     -5.140360  -27.393300  -111.897000
  C     -5.449960  -24.487100  -112.028000
  H     -4.923720  -24.702500  -112.983000
  H     -5.149230  -23.464100  -111.860000
  C     -7.020780  -24.687400  -112.092000
  H     -7.357670  -24.719100  -111.065000
  H     -7.526490  -23.864800  -112.484000
  C     -7.553350  -25.836500  -112.936000
  H     -7.848780  -26.682600  -112.208000
  H     -8.458180  -25.612600  -113.496000
  H     -6.842890  -26.289000  -113.626000
  S     -2.987060  -29.564600  -108.924000
  C     -3.848660  -31.033300  -108.745000
  C     -5.171460  -30.913400  -109.068000
  C     -5.526540  -29.597500  -109.418000
  C     -4.416920  -28.792500  -109.553000
  H     -5.973350  -31.653800  -108.992000
  C     -6.892320  -29.141800  -109.706000
  H     -6.843610  -28.077700  -109.774000
  H     -7.676420  -29.263700  -108.956000
  C     -7.650960  -29.686600  -110.943000
  H     -7.037150  -29.463100  -111.849000
  H     -8.672470  -29.207300  -110.782000
  C     -7.919490  -31.223300  -110.955000
  H     -7.041770  -31.827800  -111.148000
  H     -8.711530  -31.506000  -111.634000
  H     -8.478780  -31.618400  -110.012000
  H     -4.338580  -23.812400  -109.426000
  H     -3.452800  -32.021200  -108.647000

 Total Charge           Charge          ....    0
 Multiplicity           Mult            ....    1
 Number of Electrons    NEL             ....  134
 Basis Dimension        Dim             ....  322

ORBITAL ENERGIES
----------------

  NO   OCC          E(Eh)            E(eV)
   0   2.0000     -88.968745     -2420.9626
   1   2.0000     -88.966039     -2420.8890
   2   2.0000     -10.326330      -280.9937
   3   2.0000     -10.320145      -280.8254
   4   2.0000     -10.313102      -280.6338
   5   2.0000     -10.311868      -280.6002
   6   2.0000     -10.300286      -280.2850
   7   2.0000     -10.296625      -280.1854
   8   2.0000     -10.294887      -280.1381
   9   2.0000     -10.294809      -280.1360
  10   2.0000     -10.294022      -280.1146
  11   2.0000     -10.288006      -279.9509
  12   2.0000     -10.286217      -279.9022
  13   2.0000     -10.283184      -279.8197
  14   2.0000     -10.282302      -279.7957
  15   2.0000     -10.281779      -279.7814
  16   2.0000      -8.084170      -219.9815
  17   2.0000      -8.081031      -219.8960
  18   2.0000      -6.042647      -164.4288
  19   2.0000      -6.039397      -164.3404
  20   2.0000      -6.038588      -164.3183
  21   2.0000      -6.035358      -164.2305
  22   2.0000      -6.034916      -164.2184
  23   2.0000      -6.032068      -164.1409
  24   2.0000      -1.013538       -27.5798
  25   2.0000      -0.989914       -26.9369
  26   2.0000      -0.911303       -24.7978
  27   2.0000      -0.906152       -24.6577
  28   2.0000      -0.870544       -23.6887
  29   2.0000      -0.851575       -23.1725
  30   2.0000      -0.847210       -23.0538
  31   2.0000      -0.814624       -22.1670
  32   2.0000      -0.788393       -21.4533
  33   2.0000      -0.769067       -20.9274
  34   2.0000      -0.706548       -19.2262
  35   2.0000      -0.701106       -19.0781
  36   2.0000      -0.690789       -18.7973
  37   2.0000      -0.661255       -17.9937
  38   2.0000      -0.641897       -17.4669
  39   2.0000      -0.616337       -16.7714
  40   2.0000      -0.606103       -16.4929
  41   2.0000      -0.568200       -15.4615
  42   2.0000      -0.556963       -15.1557
  43   2.0000      -0.545564       -14.8455
  44   2.0000      -0.538517       -14.6538
  45   2.0000      -0.533606       -14.5201
  46   2.0000      -0.510055       -13.8793
  47   2.0000      -0.505648       -13.7594
  48   2.0000      -0.503478       -13.7003
  49   2.0000      -0.498359       -13.5610
  50   2.0000      -0.492834       -13.4107
  51   2.0000      -0.483723       -13.1628
  52   2.0000      -0.474665       -12.9163
  53   2.0000      -0.466484       -12.6937
  54   2.0000      -0.457351       -12.4452
  55   2.0000      -0.448817       -12.2129
  56   2.0000      -0.444082       -12.0841
  57   2.0000      -0.436269       -11.8715
  58   2.0000      -0.428477       -11.6595
  59   2.0000      -0.426977       -11.6186
  60   2.0000      -0.423081       -11.5126
  61   2.0000      -0.411752       -11.2043
  62   2.0000      -0.406666       -11.0659
  63   2.0000      -0.340117        -9.2551
  64   2.0000      -0.332182        -9.0391
  65   2.0000      -0.330821        -9.0021
  66   2.0000      -0.293671        -7.9912
  67   0.0000       0.035388         0.9630
  68   0.0000       0.061304         1.6682
  69   0.0000       0.116039         3.1576
  70   0.0000       0.122249         3.3266
  71   0.0000       0.131800         3.5865

MULLIKEN ATOMIC CHARGES
-----------------------
   0 S :    0.125952
   1 C :   -0.128922
   2 C :   -0.097807
   3 C :    0.014009
   4 C :   -0.194874
   5 H :    0.031845
   6 C :    0.069568
   7 H :    0.034901
   8 H :    0.008127
   9 C :   -0.028004
  10 H :    0.031158
  11 H :    0.013637
  12 C :   -0.086519
  13 H :    0.040682
  14 H :    0.037514
  15 H :    0.034789
  16 S :    0.130277
  17 C :   -0.059979
  18 C :   -0.032035
  19 C :   -0.018657
  20 C :   -0.180923
  21 H :    0.020210
  22 C :    0.067258
  23 H :    0.019062
  24 H :    0.017399
  25 C :   -0.084032
  26 H :    0.041993
  27 H :    0.047363
  28 C :   -0.091460
  29 H :    0.049846
  30 H :    0.032511
  31 H :    0.026178
  32 H :    0.058016
  33 H :    0.050919
Sum of atomic charges:   -0.0000000

LOEWDIN ATOMIC CHARGES
----------------------
   0 S :    0.423479
   1 C :   -0.219390
   2 C :   -0.073293
   3 C :   -0.067567
   4 C :   -0.194051
   5 H :    0.042895
   6 C :   -0.027602
   7 H :    0.032833
   8 H :    0.025365
   9 C :   -0.037676
  10 H :    0.027931
  11 H :    0.018076
  12 C :   -0.074627
  13 H :    0.035656
  14 H :    0.026585
  15 H :    0.022676
  16 S :    0.430437
  17 C :   -0.193965
  18 C :   -0.069015
  19 C :   -0.052904
  20 C :   -0.213315
  21 H :    0.034163
  22 C :   -0.043671
  23 H :    0.028350
  24 H :    0.032365
  25 C :   -0.036644
  26 H :    0.026426
  27 H :    0.037482
  28 C :   -0.085426
  29 H :    0.022970
  30 H :    0.026254
  31 H :    0.031102
  32 H :    0.034820
  33 H :    0.029282

  Mayer bond orders larger than 0.100000
B(  0-S ,  1-C ) :   1.1610 B(  0-S ,  4-C ) :   1.1720 B(  1-C ,  2-C ) :   1.5703
B(  1-C ,  4-C ) :   0.1099 B(  1-C , 32-H ) :   0.9648 B(  2-C ,  3-C ) :   1.2751
B(  2-C ,  6-C ) :   1.0334 B(  3-C ,  4-C ) :   1.5408 B(  3-C ,  5-H ) :   0.9895
B(  4-C , 20-C ) :   1.0422 B(  6-C ,  7-H ) :   0.9461 B(  6-C ,  8-H ) :   0.9386
B(  6-C ,  9-C ) :   1.0483 B(  9-C , 10-H ) :   0.9605 B(  9-C , 11-H ) :   0.9625
B(  9-C , 12-C ) :   1.0602 B( 12-C , 13-H ) :   0.9760 B( 12-C , 14-H ) :   0.9764
B( 12-C , 15-H ) :   0.9770 B( 16-S , 17-C ) :   1.1640 B( 16-S , 20-C ) :   1.1441
B( 17-C , 18-C ) :   1.5890 B( 17-C , 33-H ) :   0.9607 B( 18-C , 19-C ) :   1.2738
B( 18-C , 21-H ) :   0.9804 B( 19-C , 20-C ) :   1.5679 B( 19-C , 22-C ) :   1.0613
B( 22-C , 23-H ) :   0.9145 B( 22-C , 24-H ) :   0.9289 B( 22-C , 25-C ) :   1.0710
B( 25-C , 26-H ) :   0.9488 B( 25-C , 27-H ) :   0.9518 B( 25-C , 28-C ) :   1.0798
B( 28-C , 29-H ) :   0.9702 B( 28-C , 30-H ) :   0.9700 B( 28-C , 31-H ) :   0.9675

Dispersion correction           -0.016117318
FINAL SINGLE POINT ENERGY     -1339.866379926938

DIPOLE MOMENT
-------------
                                X             Y             Z
Electronic contribution:     25.02672      -0.08438      17.54141
Nuclear contribution   :    -25.70896       0.07712     -17.87947
                        -----------------------------------------
Total Dipole Moment    :     -0.68224      -0.00727      -0.33805
                        -----------------------------------------
Magnitude (a.u.)       :      0.76143
Magnitude (Debye)      :      1.93541

Rotational constants in cm-1:     0.017727     0.010806     0.007284
Rotational constants in MHz :   531.453460   323.963810   218.354126

                             ****ORCA TERMINATED NORMALLY****
TOTAL RUN TIME: 0 days 0 hours 0 minutes 21 seconds 988 msec
