                         Program Version 4.2.1 -  RELEASE  -
|  1> ! wB97X-D3 SP def2-SVP
|  2> %pal
|  3> nprocs 24
|  4> end
|  5>
|  6> * xyz 0 1
|  7> S 	 -102.232 	 -5.69836 	 -106.889
|  8> C 	 -103.549 	 -5.42472 	 -105.807
|  9> C 	 -103.154 	 -4.77986 	 -104.594
| 10> C 	 -101.748 	 -4.51215 	 -104.695
| 11> C 	 -101.186 	 -4.88328 	 -105.877
| 12> H 	 -101.192 	 -3.902 	 -104.059
| 13> C 	 -104 	 -4.3057 	 -103.518
| 14> H 	 -103.32 	 -4.07112 	 -102.708
| 15> H 	 -104.511 	 -5.22767 	 -103.191
| 16> C 	 -104.899 	 -3.12857 	 -103.895
| 17> H 	 -104.258 	 -2.12801 	 -103.822
| 18> H 	 -105.342 	 -3.17088 	 -104.901
| 19> C 	 -106.115 	 -2.9408 	 -102.986
| 20> H 	 -106.619 	 -1.92366 	 -103.039
| 21> H 	 -106.922 	 -3.73324 	 -103.135
| 22> H 	 -105.863 	 -3.1071 	 -101.93
| 23> S 	 -98.8461 	 -6.28103 	 -106.338
| 24> C 	 -97.3891 	 -5.47326 	 -106.626
| 25> C 	 -97.5722 	 -4.09865 	 -106.696
| 26> C 	 -98.9347 	 -3.7069 	 -106.44
| 27> C 	 -99.7417 	 -4.77293 	 -106.206
| 28> H 	 -96.6649 	 -3.4565 	 -106.764
| 29> C 	 -99.2793 	 -2.24699 	 -106.336
| 30> H 	 -100.375 	 -2.23839 	 -106.507
| 31> H 	 -98.9579 	 -1.73485 	 -107.145
| 32> C 	 -98.9416 	 -1.6924 	 -104.938
| 33> H 	 -97.8895 	 -1.55525 	 -104.903
| 34> H 	 -99.1687 	 -2.42758 	 -104.134
| 35> C 	 -99.4392 	 -0.339779 	 -104.525
| 36> H 	 -99.3595 	 0.443243 	 -105.284
| 37> H 	 -98.7424 	 0.0473938 	 -103.779
| 38> H 	 -100.426 	 -0.292372 	 -104.021
| 39> H 	 -104.524 	 -5.80021 	 -105.924
| 40> H 	 -96.4449 	 -5.93387 	 -106.879
| 41> *
| 42>
| 43>                          ****END OF INPUT****

CARTESIAN COORDINATES (ANGSTROEM)
---------------------------------
  S    -102.232000   -5.698360  -106.889000
  C    -103.549000   -5.424720  -105.807000
  C    -103.154000   -4.779860  -104.594000
  C    -101.748000   -4.512150  -104.695000
  C    -101.186000   -4.883280  -105.877000
  H    -101.192000   -3.902000  -104.059000
  C    -104.000000   -4.305700  -103.518000
  H    -103.320000   -4.071120  -102.708000
  H    -104.511000   -5.227670  -103.191000
  C    -104.899000   -3.128570  -103.895000
  H    -104.258000   -2.128010  -103.822000
  H    -105.342000   -3.170880  -104.901000
  C    -106.115000   -2.940800  -102.986000
  H    -106.619000   -1.923660  -103.039000
  H    -106.922000   -3.733240  -103.135000
  H    -105.863000   -3.107100  -101.930000
  S    -98.846100   -6.281030  -106.338000
  C    -97.389100   -5.473260  -106.626000
  C    -97.572200   -4.098650  -106.696000
  C    -98.934700   -3.706900  -106.440000
  C    -99.741700   -4.772930  -106.206000
  H    -96.664900   -3.456500  -106.764000
  C    -99.279300   -2.246990  -106.336000
  H    -100.375000   -2.238390  -106.507000
  H    -98.957900   -1.734850  -107.145000
  C    -98.941600   -1.692400  -104.938000
  H    -97.889500   -1.555250  -104.903000
  H    -99.168700   -2.427580  -104.134000
  C    -99.439200   -0.339779  -104.525000
  H    -99.359500    0.443243  -105.284000
  H    -98.742400    0.047394  -103.779000
  H    -100.426000   -0.292372  -104.021000
  H    -104.524000   -5.800210  -105.924000
  H    -96.444900   -5.933870  -106.879000

 Total Charge           Charge          ....    0
 Multiplicity           Mult            ....    1
 Number of Electrons    NEL             ....  134
 Basis Dimension        Dim             ....  322

ORBITAL ENERGIES
----------------

  NO   OCC          E(Eh)            E(eV)
   0   2.0000     -88.968087     -2420.9447
   1   2.0000     -88.961384     -2420.7623
   2   2.0000     -10.321031      -280.8495
   3   2.0000     -10.317992      -280.7668
   4   2.0000     -10.310401      -280.5603
   5   2.0000     -10.308474      -280.5078
   6   2.0000     -10.301190      -280.3096
   7   2.0000     -10.299684      -280.2686
   8   2.0000     -10.297748      -280.2160
   9   2.0000     -10.292122      -280.0629
  10   2.0000     -10.291364      -280.0423
  11   2.0000     -10.287775      -279.9446
  12   2.0000     -10.285486      -279.8823
  13   2.0000     -10.282942      -279.8131
  14   2.0000     -10.282044      -279.7886
  15   2.0000     -10.277839      -279.6742
  16   2.0000      -8.084464      -219.9894
  17   2.0000      -8.077262      -219.7935
  18   2.0000      -6.042724      -164.4309
  19   2.0000      -6.038565      -164.3177
  20   2.0000      -6.035673      -164.2390
  21   2.0000      -6.035578      -164.2364
  22   2.0000      -6.031556      -164.1270
  23   2.0000      -6.028110      -164.0332
  24   2.0000      -1.014280       -27.6000
  25   2.0000      -0.990679       -26.9578
  26   2.0000      -0.919810       -25.0293
  27   2.0000      -0.912585       -24.8327
  28   2.0000      -0.864440       -23.5226
  29   2.0000      -0.856811       -23.3150
  30   2.0000      -0.851044       -23.1581
  31   2.0000      -0.813588       -22.1388
  32   2.0000      -0.786622       -21.4051
  33   2.0000      -0.773896       -21.0588
  34   2.0000      -0.703039       -19.1307
  35   2.0000      -0.700834       -19.0707
  36   2.0000      -0.691512       -18.8170
  37   2.0000      -0.660305       -17.9678
  38   2.0000      -0.646585       -17.5945
  39   2.0000      -0.617612       -16.8061
  40   2.0000      -0.594358       -16.1733
  41   2.0000      -0.573588       -15.6081
  42   2.0000      -0.566143       -15.4055
  43   2.0000      -0.552177       -15.0255
  44   2.0000      -0.532557       -14.4916
  45   2.0000      -0.529203       -14.4003
  46   2.0000      -0.520916       -14.1749
  47   2.0000      -0.511636       -13.9223
  48   2.0000      -0.507849       -13.8193
  49   2.0000      -0.502783       -13.6814
  50   2.0000      -0.492468       -13.4007
  51   2.0000      -0.480821       -13.0838
  52   2.0000      -0.474749       -12.9186
  53   2.0000      -0.464730       -12.6459
  54   2.0000      -0.456157       -12.4127
  55   2.0000      -0.443010       -12.0549
  56   2.0000      -0.439754       -11.9663
  57   2.0000      -0.438790       -11.9401
  58   2.0000      -0.434118       -11.8130
  59   2.0000      -0.430851       -11.7241
  60   2.0000      -0.421187       -11.4611
  61   2.0000      -0.413354       -11.2479
  62   2.0000      -0.409107       -11.1324
  63   2.0000      -0.337518        -9.1843
  64   2.0000      -0.331146        -9.0110
  65   2.0000      -0.324020        -8.8170
  66   2.0000      -0.300931        -8.1888
  67   0.0000       0.045491         1.2379
  68   0.0000       0.066447         1.8081
  69   0.0000       0.121016         3.2930
  70   0.0000       0.127765         3.4767
  71   0.0000       0.129433         3.5220

MULLIKEN ATOMIC CHARGES
-----------------------
   0 S :    0.143882
   1 C :   -0.105313
   2 C :   -0.118667
   3 C :    0.067453
   4 C :   -0.167950
   5 H :   -0.029159
   6 C :    0.092899
   7 H :    0.021379
   8 H :    0.036176
   9 C :   -0.081399
  10 H :    0.048548
  11 H :    0.045698
  12 C :   -0.093366
  13 H :    0.050785
  14 H :    0.036560
  15 H :    0.024940
  16 S :    0.116341
  17 C :   -0.090295
  18 C :   -0.062942
  19 C :   -0.058291
  20 C :   -0.179090
  21 H :    0.032707
  22 C :    0.151433
  23 H :    0.019143
  24 H :   -0.006043
  25 C :   -0.071487
  26 H :    0.014764
  27 H :    0.038436
  28 C :   -0.038757
  29 H :    0.024344
  30 H :    0.020598
  31 H :    0.038674
  32 H :    0.023034
  33 H :    0.054966
Sum of atomic charges:   -0.0000000

LOEWDIN ATOMIC CHARGES
----------------------
   0 S :    0.463269
   1 C :   -0.206622
   2 C :   -0.053931
   3 C :   -0.059282
   4 C :   -0.226262
   5 H :    0.017700
   6 C :   -0.042383
   7 H :    0.035042
   8 H :    0.040185
   9 C :   -0.045040
  10 H :    0.040192
  11 H :    0.028809
  12 C :   -0.083902
  13 H :    0.033950
  14 H :    0.028484
  15 H :    0.020579
  16 S :    0.422879
  17 C :   -0.203865
  18 C :   -0.082848
  19 C :   -0.054966
  20 C :   -0.199921
  21 H :    0.036345
  22 C :   -0.023386
  23 H :    0.034662
  24 H :    0.015426
  25 C :   -0.040609
  26 H :    0.021810
  27 H :    0.031572
  28 C :   -0.071541
  29 H :    0.025382
  30 H :    0.028770
  31 H :    0.026133
  32 H :    0.013544
  33 H :    0.029823

  Mayer bond orders larger than 0.100000
B(  0-S ,  1-C ) :   1.1674 B(  0-S ,  4-C ) :   1.1906 B(  1-C ,  2-C ) :   1.5572
B(  1-C , 32-H ) :   0.9741 B(  2-C ,  3-C ) :   1.2758 B(  2-C ,  6-C ) :   1.0347
B(  3-C ,  4-C ) :   1.5661 B(  3-C ,  5-H ) :   0.9980 B(  4-C , 20-C ) :   0.9742
B(  6-C ,  7-H ) :   0.9280 B(  6-C ,  8-H ) :   0.9304 B(  6-C ,  9-C ) :   1.0496
B(  9-C , 10-H ) :   0.9519 B(  9-C , 11-H ) :   0.9653 B(  9-C , 12-C ) :   1.0693
B( 12-C , 13-H ) :   0.9748 B( 12-C , 14-H ) :   0.9750 B( 12-C , 15-H ) :   0.9737
B( 16-S , 17-C ) :   1.1738 B( 16-S , 20-C ) :   1.1447 B( 17-C , 18-C ) :   1.6132
B( 17-C , 33-H ) :   0.9651 B( 18-C , 19-C ) :   1.2260 B( 18-C , 21-H ) :   0.9846
B( 19-C , 20-C ) :   1.6420 B( 19-C , 22-C ) :   1.0508 B( 22-C , 23-H ) :   0.9256
B( 22-C , 24-H ) :   0.9223 B( 22-C , 25-C ) :   1.0527 B( 25-C , 26-H ) :   0.9546
B( 25-C , 27-H ) :   0.9527 B( 25-C , 28-C ) :   1.0937 B( 28-C , 29-H ) :   0.9687
B( 28-C , 30-H ) :   0.9722 B( 28-C , 31-H ) :   0.9753

Dispersion correction           -0.014250235
FINAL SINGLE POINT ENERGY     -1339.868053350439

DIPOLE MOMENT
-------------
                                X             Y             Z
Electronic contribution:     11.36287     -24.15065     -16.08726
Nuclear contribution   :    -11.38982      24.67230      16.43472
                        -----------------------------------------
Total Dipole Moment    :     -0.02695       0.52165       0.34745
                        -----------------------------------------
Magnitude (a.u.)       :      0.62735
Magnitude (Debye)      :      1.59461

Rotational constants in cm-1:     0.018961     0.008678     0.006429
Rotational constants in MHz :   568.449129   260.174489   192.744751

                             ****ORCA TERMINATED NORMALLY****
TOTAL RUN TIME: 0 days 0 hours 0 minutes 21 seconds 587 msec
