                         Program Version 4.2.1 -  RELEASE  -
|  1> ! wB97X-D3 SP def2-SVP
|  2> %pal
|  3> nprocs 24
|  4> end
|  5>
|  6> * xyz 0 1
|  7> S 	 -144.846 	 1.55416 	 13.2325
|  8> C 	 -144.587 	 1.08336 	 11.5385
|  9> C 	 -143.874 	 2.06574 	 10.8148
| 10> C 	 -143.427 	 3.10725 	 11.6917
| 11> C 	 -143.821 	 2.97272 	 13.0358
| 12> H 	 -142.761 	 3.94931 	 11.3938
| 13> C 	 -143.408 	 1.90754 	 9.30578
| 14> H 	 -143.157 	 2.88619 	 8.88056
| 15> H 	 -144.337 	 1.6556 	 8.86731
| 16> C 	 -142.144 	 0.979327 	 9.05623
| 17> H 	 -141.372 	 1.30011 	 9.69478
| 18> H 	 -142.304 	 0.0154754 	 9.49437
| 19> C 	 -141.783 	 0.811664 	 7.59175
| 20> H 	 -140.94 	 0.19359 	 7.471
| 21> H 	 -142.615 	 0.345853 	 7.03463
| 22> H 	 -141.525 	 1.77428 	 7.11209
| 23> S 	 -141.921 	 3.81408 	 14.8599
| 24> C 	 -142.379 	 4.98413 	 16.0849
| 25> C 	 -143.716 	 5.40997 	 15.9229
| 26> C 	 -144.383 	 4.69124 	 14.8663
| 27> C 	 -143.589 	 3.81917 	 14.2155
| 28> H 	 -144.162 	 6.1319 	 16.5633
| 29> C 	 -145.808 	 5.03522 	 14.4473
| 30> H 	 -146.458 	 5.20655 	 15.2817
| 31> H 	 -146.195 	 4.07581 	 14.0795
| 32> C 	 -146.174 	 6.21768 	 13.5502
| 33> H 	 -145.692 	 5.98296 	 12.5902
| 34> H 	 -145.708 	 7.06786 	 14.0027
| 35> C 	 -147.746 	 6.37254 	 13.384
| 36> H 	 -148.274 	 6.29451 	 14.3415
| 37> H 	 -148.096 	 5.61806 	 12.757
| 38> H 	 -148.04 	 7.28378 	 12.8028
| 39> H 	 -145.041 	 0.220437 	 11.1388
| 40> H 	 -141.604 	 5.41407 	 16.667
| 41> *
| 42>
| 43>                          ****END OF INPUT****

CARTESIAN COORDINATES (ANGSTROEM)
---------------------------------
  S    -144.846000    1.554160   13.232500
  C    -144.587000    1.083360   11.538500
  C    -143.874000    2.065740   10.814800
  C    -143.427000    3.107250   11.691700
  C    -143.821000    2.972720   13.035800
  H    -142.761000    3.949310   11.393800
  C    -143.408000    1.907540    9.305780
  H    -143.157000    2.886190    8.880560
  H    -144.337000    1.655600    8.867310
  C    -142.144000    0.979327    9.056230
  H    -141.372000    1.300110    9.694780
  H    -142.304000    0.015475    9.494370
  C    -141.783000    0.811664    7.591750
  H    -140.940000    0.193590    7.471000
  H    -142.615000    0.345853    7.034630
  H    -141.525000    1.774280    7.112090
  S    -141.921000    3.814080   14.859900
  C    -142.379000    4.984130   16.084900
  C    -143.716000    5.409970   15.922900
  C    -144.383000    4.691240   14.866300
  C    -143.589000    3.819170   14.215500
  H    -144.162000    6.131900   16.563300
  C    -145.808000    5.035220   14.447300
  H    -146.458000    5.206550   15.281700
  H    -146.195000    4.075810   14.079500
  C    -146.174000    6.217680   13.550200
  H    -145.692000    5.982960   12.590200
  H    -145.708000    7.067860   14.002700
  C    -147.746000    6.372540   13.384000
  H    -148.274000    6.294510   14.341500
  H    -148.096000    5.618060   12.757000
  H    -148.040000    7.283780   12.802800
  H    -145.041000    0.220437   11.138800
  H    -141.604000    5.414070   16.667000

 Total Charge           Charge          ....    0
 Multiplicity           Mult            ....    1
 Number of Electrons    NEL             ....  134
 Basis Dimension        Dim             ....  322

ORBITAL ENERGIES
----------------

  NO   OCC          E(Eh)            E(eV)
   0   2.0000     -88.968048     -2420.9437
   1   2.0000     -88.963497     -2420.8198
   2   2.0000     -10.332839      -281.1708
   3   2.0000     -10.325654      -280.9753
   4   2.0000     -10.320933      -280.8469
   5   2.0000     -10.318110      -280.7700
   6   2.0000     -10.310949      -280.5752
   7   2.0000     -10.302946      -280.3574
   8   2.0000     -10.302235      -280.3381
   9   2.0000     -10.299274      -280.2575
  10   2.0000     -10.298037      -280.2238
  11   2.0000     -10.286775      -279.9174
  12   2.0000     -10.285401      -279.8800
  13   2.0000     -10.283418      -279.8260
  14   2.0000     -10.280617      -279.7498
  15   2.0000     -10.279461      -279.7184
  16   2.0000      -8.081764      -219.9160
  17   2.0000      -8.077967      -219.8127
  18   2.0000      -6.040211      -164.3625
  19   2.0000      -6.036386      -164.2584
  20   2.0000      -6.036291      -164.2558
  21   2.0000      -6.032773      -164.1601
  22   2.0000      -6.032603      -164.1555
  23   2.0000      -6.028743      -164.0504
  24   2.0000      -0.999852       -27.2074
  25   2.0000      -0.975859       -26.5545
  26   2.0000      -0.904063       -24.6008
  27   2.0000      -0.902396       -24.5554
  28   2.0000      -0.865236       -23.5443
  29   2.0000      -0.847279       -23.0556
  30   2.0000      -0.844528       -22.9808
  31   2.0000      -0.809138       -22.0178
  32   2.0000      -0.782739       -21.2994
  33   2.0000      -0.772338       -21.0164
  34   2.0000      -0.711404       -19.3583
  35   2.0000      -0.704520       -19.1710
  36   2.0000      -0.692236       -18.8367
  37   2.0000      -0.669715       -18.2239
  38   2.0000      -0.642263       -17.4769
  39   2.0000      -0.611096       -16.6288
  40   2.0000      -0.595588       -16.2068
  41   2.0000      -0.567700       -15.4479
  42   2.0000      -0.564925       -15.3724
  43   2.0000      -0.552625       -15.0377
  44   2.0000      -0.529116       -14.3980
  45   2.0000      -0.519479       -14.1357
  46   2.0000      -0.513693       -13.9783
  47   2.0000      -0.508802       -13.8452
  48   2.0000      -0.504127       -13.7180
  49   2.0000      -0.501377       -13.6432
  50   2.0000      -0.483182       -13.1480
  51   2.0000      -0.478565       -13.0224
  52   2.0000      -0.468702       -12.7540
  53   2.0000      -0.465001       -12.6533
  54   2.0000      -0.458736       -12.4828
  55   2.0000      -0.447928       -12.1887
  56   2.0000      -0.447705       -12.1827
  57   2.0000      -0.438343       -11.9279
  58   2.0000      -0.431539       -11.7428
  59   2.0000      -0.424096       -11.5402
  60   2.0000      -0.419167       -11.4061
  61   2.0000      -0.417642       -11.3646
  62   2.0000      -0.414037       -11.2665
  63   2.0000      -0.336182        -9.1480
  64   2.0000      -0.330462        -8.9923
  65   2.0000      -0.327832        -8.9208
  66   2.0000      -0.303579        -8.2608
  67   0.0000       0.036451         0.9919
  68   0.0000       0.055148         1.5007
  69   0.0000       0.107116         2.9148
  70   0.0000       0.112904         3.0723
  71   0.0000       0.126483         3.4418

MULLIKEN ATOMIC CHARGES
-----------------------
   0 S :    0.112866
   1 C :   -0.116642
   2 C :   -0.105920
   3 C :    0.041929
   4 C :   -0.185483
   5 H :    0.028248
   6 C :    0.066777
   7 H :    0.018716
   8 H :    0.022590
   9 C :   -0.029874
  10 H :    0.016345
  11 H :    0.012980
  12 C :   -0.031310
  13 H :    0.026557
  14 H :    0.036856
  15 H :    0.032087
  16 S :    0.097654
  17 C :   -0.088212
  18 C :   -0.016891
  19 C :   -0.008254
  20 C :   -0.173201
  21 H :    0.012880
  22 C :    0.057610
  23 H :   -0.002564
  24 H :    0.005868
  25 C :   -0.030257
  26 H :    0.032541
  27 H :    0.022324
  28 C :   -0.051991
  29 H :    0.037368
  30 H :    0.022025
  31 H :    0.042484
  32 H :    0.037223
  33 H :    0.056668
Sum of atomic charges:   -0.0000000

LOEWDIN ATOMIC CHARGES
----------------------
   0 S :    0.403604
   1 C :   -0.182510
   2 C :   -0.060982
   3 C :   -0.067146
   4 C :   -0.196008
   5 H :    0.038907
   6 C :   -0.022488
   7 H :    0.028318
   8 H :    0.024052
   9 C :   -0.035693
  10 H :    0.021528
  11 H :    0.021751
  12 C :   -0.061675
  13 H :    0.021879
  14 H :    0.030740
  15 H :    0.026954
  16 S :    0.389046
  17 C :   -0.170722
  18 C :   -0.061948
  19 C :   -0.054694
  20 C :   -0.194031
  21 H :    0.027116
  22 C :   -0.039638
  23 H :    0.022102
  24 H :    0.022737
  25 C :   -0.029665
  26 H :    0.026636
  27 H :    0.018346
  28 C :   -0.063566
  29 H :    0.026552
  30 H :    0.019069
  31 H :    0.034762
  32 H :    0.016354
  33 H :    0.020312

  Mayer bond orders larger than 0.100000
B(  0-S ,  1-C ) :   1.1534 B(  0-S ,  4-C ) :   1.1576 B(  1-C ,  2-C ) :   1.5874
B(  1-C ,  4-C ) :   0.1101 B(  1-C , 32-H ) :   0.9779 B(  2-C ,  3-C ) :   1.2533
B(  2-C ,  6-C ) :   1.0071 B(  3-C ,  4-C ) :   1.5797 B(  3-C ,  5-H ) :   0.9863
B(  4-C , 20-C ) :   1.0006 B(  6-C ,  7-H ) :   0.9481 B(  6-C ,  8-H ) :   0.9444
B(  6-C ,  9-C ) :   1.0455 B(  9-C , 10-H ) :   0.9541 B(  9-C , 11-H ) :   0.9539
B(  9-C , 12-C ) :   1.0840 B( 12-C , 13-H ) :   0.9722 B( 12-C , 14-H ) :   0.9748
B( 12-C , 15-H ) :   0.9753 B( 16-S , 17-C ) :   1.1634 B( 16-S , 20-C ) :   1.1278
B( 17-C , 18-C ) :   1.5939 B( 17-C , 33-H ) :   0.9727 B( 18-C , 19-C ) :   1.2201
B( 18-C , 21-H ) :   0.9984 B( 19-C , 20-C ) :   1.6465 B( 19-C , 22-C ) :   1.0455
B( 22-C , 23-H ) :   0.9292 B( 22-C , 24-H ) :   0.9219 B( 22-C , 25-C ) :   1.0602
B( 25-C , 26-H ) :   0.9559 B( 25-C , 27-H ) :   0.9566 B( 25-C , 28-C ) :   1.0680
B( 28-C , 29-H ) :   0.9762 B( 28-C , 30-H ) :   0.9767 B( 28-C , 31-H ) :   0.9750

Dispersion correction           -0.013821660
FINAL SINGLE POINT ENERGY     -1339.871871847380

DIPOLE MOMENT
-------------
                                X             Y             Z
Electronic contribution:      7.41428      -5.08388      19.64024
Nuclear contribution   :     -7.48226       5.29694     -20.06642
                        -----------------------------------------
Total Dipole Moment    :     -0.06798       0.21306      -0.42618
                        -----------------------------------------
Magnitude (a.u.)       :      0.48129
Magnitude (Debye)      :      1.22334

Rotational constants in cm-1:     0.018906     0.007409     0.006253
Rotational constants in MHz :   566.774982   222.130461   187.460555

                             ****ORCA TERMINATED NORMALLY****
TOTAL RUN TIME: 0 days 0 hours 0 minutes 20 seconds 670 msec
