                         Program Version 4.2.1 -  RELEASE  -
|  1> ! wB97X-D3 SP def2-SVP
|  2> %pal
|  3> nprocs 24
|  4> end
|  5>
|  6> * xyz 0 1
|  7> S 	 -55.5824 	 15.2854 	 -94.332
|  8> C 	 -53.8665 	 15.7423 	 -94.52
|  9> C 	 -53.3096 	 15.0766 	 -95.5639
| 10> C 	 -54.2831 	 14.3965 	 -96.3717
| 11> C 	 -55.5506 	 14.5418 	 -95.8335
| 12> H 	 -54.1534 	 13.8809 	 -97.3297
| 13> C 	 -51.8189 	 14.9491 	 -95.8055
| 14> H 	 -51.5918 	 14.6314 	 -96.8217
| 15> H 	 -51.4727 	 14.1085 	 -95.1352
| 16> C 	 -51.0038 	 16.2149 	 -95.5098
| 17> H 	 -50.9261 	 16.3878 	 -94.4533
| 18> H 	 -50.034 	 15.916 	 -95.8478
| 19> C 	 -51.3989 	 17.4817 	 -96.2989
| 20> H 	 -50.6959 	 18.2654 	 -96.1024
| 21> H 	 -51.5115 	 17.3521 	 -97.4314
| 22> H 	 -52.376 	 17.8476 	 -95.9736
| 23> S 	 -57.9873 	 15.2146 	 -96.8715
| 24> C 	 -59.0568 	 13.9862 	 -97.502
| 25> C 	 -58.4229 	 12.7555 	 -97.5716
| 26> C 	 -57.1356 	 12.7797 	 -96.9368
| 27> C 	 -56.7496 	 14.0411 	 -96.5407
| 28> H 	 -58.9727 	 11.8748 	 -97.8089
| 29> C 	 -56.3617 	 11.5493 	 -96.5101
| 30> H 	 -56.7947 	 11.239 	 -95.5486
| 31> H 	 -55.291 	 11.832 	 -96.3626
| 32> C 	 -56.4752 	 10.4357 	 -97.4321
| 33> H 	 -56.0881 	 10.7975 	 -98.3557
| 34> H 	 -57.5348 	 10.2965 	 -97.651
| 35> C 	 -55.6921 	 9.21636 	 -96.9757
| 36> H 	 -55.6949 	 8.34407 	 -97.6487
| 37> H 	 -56.0168 	 8.90345 	 -95.9555
| 38> H 	 -54.6273 	 9.32893 	 -96.9124
| 39> H 	 -53.247 	 16.2034 	 -93.7159
| 40> H 	 -60.0839 	 14.0225 	 -97.686
| 41> *
| 42>
| 43>                          ****END OF INPUT****

CARTESIAN COORDINATES (ANGSTROEM)
---------------------------------
  S    -55.582400   15.285400  -94.332000
  C    -53.866500   15.742300  -94.520000
  C    -53.309600   15.076600  -95.563900
  C    -54.283100   14.396500  -96.371700
  C    -55.550600   14.541800  -95.833500
  H    -54.153400   13.880900  -97.329700
  C    -51.818900   14.949100  -95.805500
  H    -51.591800   14.631400  -96.821700
  H    -51.472700   14.108500  -95.135200
  C    -51.003800   16.214900  -95.509800
  H    -50.926100   16.387800  -94.453300
  H    -50.034000   15.916000  -95.847800
  C    -51.398900   17.481700  -96.298900
  H    -50.695900   18.265400  -96.102400
  H    -51.511500   17.352100  -97.431400
  H    -52.376000   17.847600  -95.973600
  S    -57.987300   15.214600  -96.871500
  C    -59.056800   13.986200  -97.502000
  C    -58.422900   12.755500  -97.571600
  C    -57.135600   12.779700  -96.936800
  C    -56.749600   14.041100  -96.540700
  H    -58.972700   11.874800  -97.808900
  C    -56.361700   11.549300  -96.510100
  H    -56.794700   11.239000  -95.548600
  H    -55.291000   11.832000  -96.362600
  C    -56.475200   10.435700  -97.432100
  H    -56.088100   10.797500  -98.355700
  H    -57.534800   10.296500  -97.651000
  C    -55.692100    9.216360  -96.975700
  H    -55.694900    8.344070  -97.648700
  H    -56.016800    8.903450  -95.955500
  H    -54.627300    9.328930  -96.912400
  H    -53.247000   16.203400  -93.715900
  H    -60.083900   14.022500  -97.686000

 Total Charge           Charge          ....    0
 Multiplicity           Mult            ....    1
 Number of Electrons    NEL             ....  134
 Basis Dimension        Dim             ....  322

ORBITAL ENERGIES
----------------

  NO   OCC          E(Eh)            E(eV)
   0   2.0000     -88.967969     -2420.9415
   1   2.0000     -88.964023     -2420.8341
   2   2.0000     -10.324640      -280.9477
   3   2.0000     -10.320683      -280.8401
   4   2.0000     -10.312955      -280.6298
   5   2.0000     -10.312668      -280.6220
   6   2.0000     -10.299386      -280.2605
   7   2.0000     -10.299127      -280.2535
   8   2.0000     -10.296093      -280.1709
   9   2.0000     -10.292198      -280.0649
  10   2.0000     -10.292104      -280.0624
  11   2.0000     -10.285423      -279.8806
  12   2.0000     -10.284139      -279.8456
  13   2.0000     -10.280107      -279.7359
  14   2.0000     -10.279503      -279.7195
  15   2.0000     -10.276437      -279.6361
  16   2.0000      -8.083490      -219.9630
  17   2.0000      -8.078995      -219.8406
  18   2.0000      -6.041897      -164.4084
  19   2.0000      -6.038071      -164.3043
  20   2.0000      -6.037528      -164.2895
  21   2.0000      -6.034110      -164.1965
  22   2.0000      -6.033351      -164.1758
  23   2.0000      -6.029826      -164.0799
  24   2.0000      -1.011704       -27.5299
  25   2.0000      -0.987645       -26.8752
  26   2.0000      -0.922514       -25.1029
  27   2.0000      -0.913750       -24.8644
  28   2.0000      -0.866536       -23.5796
  29   2.0000      -0.850669       -23.1479
  30   2.0000      -0.845056       -22.9951
  31   2.0000      -0.812544       -22.1105
  32   2.0000      -0.785013       -21.3613
  33   2.0000      -0.775426       -21.1004
  34   2.0000      -0.706319       -19.2199
  35   2.0000      -0.704954       -19.1828
  36   2.0000      -0.696535       -18.9537
  37   2.0000      -0.656308       -17.8590
  38   2.0000      -0.635744       -17.2995
  39   2.0000      -0.607913       -16.5422
  40   2.0000      -0.597707       -16.2644
  41   2.0000      -0.581332       -15.8189
  42   2.0000      -0.575319       -15.6552
  43   2.0000      -0.553780       -15.0691
  44   2.0000      -0.536031       -14.5862
  45   2.0000      -0.524975       -14.2853
  46   2.0000      -0.516903       -14.0657
  47   2.0000      -0.510291       -13.8857
  48   2.0000      -0.504508       -13.7284
  49   2.0000      -0.490197       -13.3389
  50   2.0000      -0.485714       -13.2170
  51   2.0000      -0.482965       -13.1421
  52   2.0000      -0.476572       -12.9682
  53   2.0000      -0.467308       -12.7161
  54   2.0000      -0.461026       -12.5452
  55   2.0000      -0.450350       -12.2546
  56   2.0000      -0.446123       -12.1396
  57   2.0000      -0.436323       -11.8730
  58   2.0000      -0.431610       -11.7447
  59   2.0000      -0.428641       -11.6639
  60   2.0000      -0.421501       -11.4696
  61   2.0000      -0.414858       -11.2889
  62   2.0000      -0.412227       -11.2173
  63   2.0000      -0.338583        -9.2133
  64   2.0000      -0.333209        -9.0671
  65   2.0000      -0.327218        -8.9040
  66   2.0000      -0.297681        -8.1003
  67   0.0000       0.033976         0.9245
  68   0.0000       0.071345         1.9414
  69   0.0000       0.106077         2.8865
  70   0.0000       0.125676         3.4198
  71   0.0000       0.128572         3.4986

MULLIKEN ATOMIC CHARGES
-----------------------
   0 S :    0.128122
   1 C :   -0.144900
   2 C :   -0.083721
   3 C :    0.024531
   4 C :   -0.160260
   5 H :    0.024063
   6 C :    0.052903
   7 H :    0.017582
   8 H :    0.053417
   9 C :   -0.062546
  10 H :    0.025917
  11 H :    0.019076
  12 C :   -0.058656
  13 H :    0.033848
  14 H :    0.041485
  15 H :    0.034085
  16 S :    0.116086
  17 C :   -0.065743
  18 C :   -0.045777
  19 C :   -0.046772
  20 C :   -0.172262
  21 H :    0.016678
  22 C :    0.075439
  23 H :    0.032431
  24 H :    0.025583
  25 C :   -0.058765
  26 H :    0.008223
  27 H :    0.021283
  28 C :   -0.023055
  29 H :    0.029752
  30 H :    0.027807
  31 H :    0.018661
  32 H :    0.060102
  33 H :    0.035384
Sum of atomic charges:    0.0000000

LOEWDIN ATOMIC CHARGES
----------------------
   0 S :    0.426449
   1 C :   -0.204423
   2 C :   -0.062146
   3 C :   -0.067545
   4 C :   -0.215301
   5 H :    0.035648
   6 C :   -0.031233
   7 H :    0.026151
   8 H :    0.044493
   9 C :   -0.040856
  10 H :    0.019786
  11 H :    0.023532
  12 C :   -0.068420
  13 H :    0.023392
  14 H :    0.034934
  15 H :    0.024528
  16 S :    0.415187
  17 C :   -0.176919
  18 C :   -0.071816
  19 C :   -0.057784
  20 C :   -0.204586
  21 H :    0.026155
  22 C :   -0.031345
  23 H :    0.033166
  24 H :    0.032972
  25 C :   -0.047522
  26 H :    0.021063
  27 H :    0.022997
  28 C :   -0.066984
  29 H :    0.028621
  30 H :    0.028054
  31 H :    0.023784
  32 H :    0.035142
  33 H :    0.020828

  Mayer bond orders larger than 0.100000
B(  0-S ,  1-C ) :   1.1080 B(  0-S ,  4-C ) :   1.1882 B(  1-C ,  2-C ) :   1.6370
B(  1-C , 32-H ) :   0.9618 B(  2-C ,  3-C ) :   1.2280 B(  2-C ,  6-C ) :   1.0147
B(  3-C ,  4-C ) :   1.5621 B(  3-C ,  5-H ) :   0.9925 B(  4-C , 20-C ) :   1.0005
B(  6-C ,  7-H ) :   0.9450 B(  6-C ,  8-H ) :   0.9327 B(  6-C ,  9-C ) :   1.0861
B(  9-C , 10-H ) :   0.9500 B(  9-C , 11-H ) :   0.9537 B(  9-C , 12-C ) :   1.0762
B( 12-C , 13-H ) :   0.9746 B( 12-C , 14-H ) :   0.9751 B( 12-C , 15-H ) :   0.9724
B( 16-S , 17-C ) :   1.1618 B( 16-S , 20-C ) :   1.1409 B( 17-C , 18-C ) :   1.6205
B( 17-C , 33-H ) :   0.9681 B( 18-C , 19-C ) :   1.2360 B( 18-C , 21-H ) :   0.9848
B( 19-C , 20-C ) :   1.6193 B( 19-C , 22-C ) :   1.0400 B( 22-C , 23-H ) :   0.9227
B( 22-C , 24-H ) :   0.9312 B( 22-C , 25-C ) :   1.0743 B( 25-C , 26-H ) :   0.9523
B( 25-C , 27-H ) :   0.9455 B( 25-C , 28-C ) :   1.0833 B( 28-C , 29-H ) :   0.9720
B( 28-C , 30-H ) :   0.9722 B( 28-C , 31-H ) :   0.9698

Dispersion correction           -0.014012388
FINAL SINGLE POINT ENERGY     -1339.877896795301

DIPOLE MOMENT
-------------
                                X             Y             Z
Electronic contribution:    -19.47946      12.06598       5.00873
Nuclear contribution   :     19.92053     -12.54482      -5.01063
                        -----------------------------------------
Total Dipole Moment    :      0.44107      -0.47883      -0.00190
                        -----------------------------------------
Magnitude (a.u.)       :      0.65102
Magnitude (Debye)      :      1.65476

Rotational constants in cm-1:     0.019657     0.008047     0.006448
Rotational constants in MHz :   589.288136   241.238905   193.310915

                             ****ORCA TERMINATED NORMALLY****
TOTAL RUN TIME: 0 days 0 hours 0 minutes 21 seconds 459 msec
