                         Program Version 4.2.1 -  RELEASE  -
|  1> ! wB97X-D3 SP def2-SVP
|  2> %pal
|  3> nprocs 24
|  4> end
|  5>
|  6> * xyz 0 1
|  7> S 	 -115.406 	 59.116 	 -72.6427
|  8> C 	 -113.805 	 58.4534 	 -72.6042
|  9> C 	 -113.032 	 58.9906 	 -71.5724
| 10> C 	 -113.795 	 60.0683 	 -70.9805
| 11> C 	 -115.075 	 60.2736 	 -71.4255
| 12> H 	 -113.539 	 60.8489 	 -70.2912
| 13> C 	 -111.668 	 58.461 	 -71.1363
| 14> H 	 -110.936 	 59.1107 	 -71.7462
| 15> H 	 -111.39 	 57.5562 	 -71.6692
| 16> C 	 -111.189 	 58.5516 	 -69.6256
| 17> H 	 -110.062 	 58.7092 	 -69.5271
| 18> H 	 -111.611 	 59.5658 	 -69.3708
| 19> C 	 -111.65 	 57.4035 	 -68.7605
| 20> H 	 -112.751 	 57.2677 	 -68.7521
| 21> H 	 -111.158 	 56.5864 	 -69.1551
| 22> H 	 -111.302 	 57.5298 	 -67.7214
| 23> S 	 -115.86 	 61.9278 	 -69.4141
| 24> C 	 -117.026 	 63.1468 	 -69.7813
| 25> C 	 -117.471 	 63.1544 	 -71.0661
| 26> C 	 -116.849 	 62.1 	 -71.8294
| 27> C 	 -116.018 	 61.3017 	 -71.0735
| 28> H 	 -118.171 	 63.9112 	 -71.4024
| 29> C 	 -117.102 	 61.965 	 -73.2898
| 30> H 	 -116.202 	 61.688 	 -73.8561
| 31> H 	 -117.316 	 63.0157 	 -73.6621
| 32> C 	 -118.293 	 61.1082 	 -73.6466
| 33> H 	 -118.015 	 60.1443 	 -73.4391
| 34> H 	 -118.343 	 61.1787 	 -74.7377
| 35> C 	 -119.621 	 61.4931 	 -72.9554
| 36> H 	 -119.817 	 62.5398 	 -72.9708
| 37> H 	 -119.489 	 61.1433 	 -71.9845
| 38> H 	 -120.438 	 60.9043 	 -73.4385
| 39> H 	 -113.382 	 57.803 	 -73.3601
| 40> H 	 -117.428 	 64.0101 	 -69.2307
| 41> *
| 42>
| 43>                          ****END OF INPUT****

CARTESIAN COORDINATES (ANGSTROEM)
---------------------------------
  S    -115.406000   59.116000  -72.642700
  C    -113.805000   58.453400  -72.604200
  C    -113.032000   58.990600  -71.572400
  C    -113.795000   60.068300  -70.980500
  C    -115.075000   60.273600  -71.425500
  H    -113.539000   60.848900  -70.291200
  C    -111.668000   58.461000  -71.136300
  H    -110.936000   59.110700  -71.746200
  H    -111.390000   57.556200  -71.669200
  C    -111.189000   58.551600  -69.625600
  H    -110.062000   58.709200  -69.527100
  H    -111.611000   59.565800  -69.370800
  C    -111.650000   57.403500  -68.760500
  H    -112.751000   57.267700  -68.752100
  H    -111.158000   56.586400  -69.155100
  H    -111.302000   57.529800  -67.721400
  S    -115.860000   61.927800  -69.414100
  C    -117.026000   63.146800  -69.781300
  C    -117.471000   63.154400  -71.066100
  C    -116.849000   62.100000  -71.829400
  C    -116.018000   61.301700  -71.073500
  H    -118.171000   63.911200  -71.402400
  C    -117.102000   61.965000  -73.289800
  H    -116.202000   61.688000  -73.856100
  H    -117.316000   63.015700  -73.662100
  C    -118.293000   61.108200  -73.646600
  H    -118.015000   60.144300  -73.439100
  H    -118.343000   61.178700  -74.737700
  C    -119.621000   61.493100  -72.955400
  H    -119.817000   62.539800  -72.970800
  H    -119.489000   61.143300  -71.984500
  H    -120.438000   60.904300  -73.438500
  H    -113.382000   57.803000  -73.360100
  H    -117.428000   64.010100  -69.230700

 Total Charge           Charge          ....    0
 Multiplicity           Mult            ....    1
 Number of Electrons    NEL             ....  134
 Basis Dimension        Dim             ....  322

ORBITAL ENERGIES
----------------

  NO   OCC          E(Eh)            E(eV)
   0   2.0000     -88.969461     -2420.9821
   1   2.0000     -88.964409     -2420.8446
   2   2.0000     -10.327456      -281.0244
   3   2.0000     -10.323683      -280.9217
   4   2.0000     -10.315481      -280.6985
   5   2.0000     -10.312151      -280.6079
   6   2.0000     -10.311584      -280.5925
   7   2.0000     -10.303471      -280.3717
   8   2.0000     -10.302970      -280.3581
   9   2.0000     -10.300951      -280.3031
  10   2.0000     -10.292335      -280.0687
  11   2.0000     -10.290624      -280.0221
  12   2.0000     -10.288251      -279.9575
  13   2.0000     -10.274107      -279.5727
  14   2.0000     -10.273763      -279.5633
  15   2.0000     -10.271183      -279.4931
  16   2.0000      -8.083902      -219.9742
  17   2.0000      -8.079610      -219.8574
  18   2.0000      -6.042529      -164.4256
  19   2.0000      -6.038590      -164.3184
  20   2.0000      -6.038011      -164.3026
  21   2.0000      -6.034418      -164.2049
  22   2.0000      -6.034009      -164.1937
  23   2.0000      -6.030508      -164.0985
  24   2.0000      -1.012796       -27.5596
  25   2.0000      -0.988042       -26.8860
  26   2.0000      -0.915050       -24.8998
  27   2.0000      -0.905925       -24.6515
  28   2.0000      -0.875598       -23.8262
  29   2.0000      -0.852089       -23.1865
  30   2.0000      -0.844067       -22.9682
  31   2.0000      -0.818288       -22.2668
  32   2.0000      -0.788050       -21.4439
  33   2.0000      -0.775627       -21.1059
  34   2.0000      -0.715371       -19.4662
  35   2.0000      -0.695602       -18.9283
  36   2.0000      -0.685963       -18.6660
  37   2.0000      -0.668856       -18.2005
  38   2.0000      -0.637042       -17.3348
  39   2.0000      -0.616847       -16.7853
  40   2.0000      -0.594663       -16.1816
  41   2.0000      -0.569922       -15.5084
  42   2.0000      -0.553076       -15.0500
  43   2.0000      -0.547829       -14.9072
  44   2.0000      -0.544589       -14.8190
  45   2.0000      -0.535155       -14.5623
  46   2.0000      -0.523375       -14.2418
  47   2.0000      -0.514824       -14.0091
  48   2.0000      -0.501266       -13.6401
  49   2.0000      -0.491362       -13.3706
  50   2.0000      -0.485859       -13.2209
  51   2.0000      -0.479826       -13.0567
  52   2.0000      -0.476851       -12.9758
  53   2.0000      -0.470988       -12.8162
  54   2.0000      -0.467335       -12.7168
  55   2.0000      -0.452589       -12.3156
  56   2.0000      -0.438218       -11.9245
  57   2.0000      -0.436254       -11.8711
  58   2.0000      -0.431711       -11.7475
  59   2.0000      -0.418544       -11.3892
  60   2.0000      -0.416764       -11.3407
  61   2.0000      -0.415336       -11.3019
  62   2.0000      -0.411373       -11.1940
  63   2.0000      -0.355114        -9.6631
  64   2.0000      -0.333827        -9.0839
  65   2.0000      -0.323945        -8.8150
  66   2.0000      -0.287248        -7.8164
  67   0.0000       0.027120         0.7380
  68   0.0000       0.079578         2.1654
  69   0.0000       0.102921         2.8006
  70   0.0000       0.123165         3.3515
  71   0.0000       0.130409         3.5486

MULLIKEN ATOMIC CHARGES
-----------------------
   0 S :    0.098624
   1 C :   -0.123313
   2 C :   -0.057082
   3 C :   -0.010819
   4 C :   -0.151811
   5 H :    0.004896
   6 C :    0.030624
   7 H :    0.040697
   8 H :    0.007374
   9 C :   -0.097797
  10 H :    0.042636
  11 H :    0.034350
  12 C :   -0.003035
  13 H :    0.050022
  14 H :    0.014022
  15 H :    0.036969
  16 S :    0.102556
  17 C :   -0.060989
  18 C :   -0.057662
  19 C :   -0.057529
  20 C :   -0.121069
  21 H :    0.022092
  22 C :    0.016600
  23 H :    0.037243
  24 H :    0.020880
  25 C :   -0.025838
  26 H :    0.001156
  27 H :    0.025020
  28 C :   -0.025523
  29 H :    0.024548
  30 H :    0.034572
  31 H :    0.042571
  32 H :    0.051079
  33 H :    0.053936
Sum of atomic charges:    0.0000000

LOEWDIN ATOMIC CHARGES
----------------------
   0 S :    0.435888
   1 C :   -0.207779
   2 C :   -0.056880
   3 C :   -0.082208
   4 C :   -0.204637
   5 H :    0.018537
   6 C :   -0.047948
   7 H :    0.047470
   8 H :    0.025148
   9 C :   -0.044835
  10 H :    0.034269
  11 H :    0.027085
  12 C :   -0.062068
  13 H :    0.034739
  14 H :    0.015987
  15 H :    0.030619
  16 S :    0.406351
  17 C :   -0.194145
  18 C :   -0.072791
  19 C :   -0.050723
  20 C :   -0.188539
  21 H :    0.033540
  22 C :   -0.043859
  23 H :    0.029201
  24 H :    0.032631
  25 C :   -0.030816
  26 H :    0.002038
  27 H :    0.024193
  28 C :   -0.054057
  29 H :    0.018023
  30 H :    0.020969
  31 H :    0.035416
  32 H :    0.028797
  33 H :    0.040384

  Mayer bond orders larger than 0.100000
B(  0-S ,  1-C ) :   1.1528 B(  0-S ,  4-C ) :   1.1456 B(  1-C ,  2-C ) :   1.6003
B(  1-C , 32-H ) :   0.9659 B(  2-C ,  3-C ) :   1.2182 B(  2-C ,  6-C ) :   1.0251
B(  3-C ,  4-C ) :   1.6027 B(  3-C ,  5-H ) :   0.9794 B(  4-C , 20-C ) :   1.0529
B(  6-C ,  7-H ) :   0.9265 B(  6-C ,  8-H ) :   0.9417 B(  6-C ,  9-C ) :   1.0501
B(  9-C , 10-H ) :   0.9566 B(  9-C , 11-H ) :   0.9533 B(  9-C , 12-C ) :   1.0725
B( 12-C , 13-H ) :   0.9762 B( 12-C , 14-H ) :   0.9723 B( 12-C , 15-H ) :   0.9714
B( 16-S , 17-C ) :   1.1435 B( 16-S , 20-C ) :   1.1069 B( 17-C , 18-C ) :   1.6611
B( 17-C , 33-H ) :   0.9526 B( 18-C , 19-C ) :   1.2151 B( 18-C , 21-H ) :   0.9864
B( 19-C , 20-C ) :   1.6008 B( 19-C , 22-C ) :   1.0477 B( 22-C , 23-H ) :   0.9304
B( 22-C , 24-H ) :   0.9307 B( 22-C , 25-C ) :   1.0757 B( 25-C , 26-H ) :   0.9507
B( 25-C , 27-H ) :   0.9525 B( 25-C , 28-C ) :   1.0753 B( 28-C , 29-H ) :   0.9769
B( 28-C , 30-H ) :   0.9700 B( 28-C , 31-H ) :   0.9721

Dispersion correction           -0.014544767
FINAL SINGLE POINT ENERGY     -1339.860799441176

DIPOLE MOMENT
-------------
                                X             Y             Z
Electronic contribution:     -3.44375       4.64773       2.28134
Nuclear contribution   :      3.68313      -4.44478      -2.47468
                        -----------------------------------------
Total Dipole Moment    :      0.23939       0.20295      -0.19334
                        -----------------------------------------
Magnitude (a.u.)       :      0.36861
Magnitude (Debye)      :      0.93694

Rotational constants in cm-1:     0.024685     0.008050     0.006464
Rotational constants in MHz :   740.034044   241.335321   193.776174

                             ****ORCA TERMINATED NORMALLY****
TOTAL RUN TIME: 0 days 0 hours 0 minutes 20 seconds 500 msec
