                         Program Version 4.2.1 -  RELEASE  -
|  1> ! wB97X-D3 SP def2-SVP
|  2> %pal
|  3> nprocs 24
|  4> end
|  5>
|  6> * xyz 0 1
|  7> S 	 -67.5028 	 9.31023 	 -73.0039
|  8> C 	 -67.3697 	 9.49018 	 -71.2346
|  9> C 	 -68.5607 	 9.13129 	 -70.6312
| 10> C 	 -69.5787 	 8.83318 	 -71.5835
| 11> C 	 -69.2035 	 8.98308 	 -72.9247
| 12> H 	 -70.5502 	 8.49696 	 -71.4228
| 13> C 	 -68.7618 	 9.08297 	 -69.0981
| 14> H 	 -69.7693 	 9.45327 	 -68.8767
| 15> H 	 -68.0813 	 9.86187 	 -68.7289
| 16> C 	 -68.4666 	 7.77686 	 -68.39
| 17> H 	 -68.7282 	 7.77748 	 -67.3061
| 18> H 	 -69.1934 	 6.9944 	 -68.7764
| 19> C 	 -67.0255 	 7.36062 	 -68.6148
| 20> H 	 -66.8369 	 6.33346 	 -68.1003
| 21> H 	 -66.8306 	 7.24907 	 -69.6867
| 22> H 	 -66.3202 	 8.18557 	 -68.2562
| 23> S 	 -69.7149 	 10.1625 	 -75.2889
| 24> C 	 -71.169 	 9.7338 	 -76.154
| 25> C 	 -71.8158 	 8.63574 	 -75.6537
| 26> C 	 -71.1582 	 8.13848 	 -74.4855
| 27> C 	 -70.0952 	 8.94721 	 -74.1164
| 28> H 	 -72.7021 	 8.26346 	 -76.1821
| 29> C 	 -71.8013 	 7.04648 	 -73.5633
| 30> H 	 -70.9657 	 6.7188 	 -72.9522
| 31> H 	 -72.0884 	 6.16617 	 -74.1238
| 32> C 	 -73.0493 	 7.52717 	 -72.6233
| 33> H 	 -73.9412 	 7.51025 	 -73.275
| 34> H 	 -72.8504 	 8.53345 	 -72.3158
| 35> C 	 -73.3155 	 6.55459 	 -71.4496
| 36> H 	 -74.1283 	 6.92635 	 -70.8604
| 37> H 	 -72.438 	 6.49603 	 -70.8426
| 38> H 	 -73.4847 	 5.53809 	 -71.7499
| 39> H 	 -66.4366 	 9.68234 	 -70.6624
| 40> H 	 -71.6639 	 10.2899 	 -76.8904
| 41> *
| 42>
| 43>                          ****END OF INPUT****

CARTESIAN COORDINATES (ANGSTROEM)
---------------------------------
  S    -67.502800    9.310230  -73.003900
  C    -67.369700    9.490180  -71.234600
  C    -68.560700    9.131290  -70.631200
  C    -69.578700    8.833180  -71.583500
  C    -69.203500    8.983080  -72.924700
  H    -70.550200    8.496960  -71.422800
  C    -68.761800    9.082970  -69.098100
  H    -69.769300    9.453270  -68.876700
  H    -68.081300    9.861870  -68.728900
  C    -68.466600    7.776860  -68.390000
  H    -68.728200    7.777480  -67.306100
  H    -69.193400    6.994400  -68.776400
  C    -67.025500    7.360620  -68.614800
  H    -66.836900    6.333460  -68.100300
  H    -66.830600    7.249070  -69.686700
  H    -66.320200    8.185570  -68.256200
  S    -69.714900   10.162500  -75.288900
  C    -71.169000    9.733800  -76.154000
  C    -71.815800    8.635740  -75.653700
  C    -71.158200    8.138480  -74.485500
  C    -70.095200    8.947210  -74.116400
  H    -72.702100    8.263460  -76.182100
  C    -71.801300    7.046480  -73.563300
  H    -70.965700    6.718800  -72.952200
  H    -72.088400    6.166170  -74.123800
  C    -73.049300    7.527170  -72.623300
  H    -73.941200    7.510250  -73.275000
  H    -72.850400    8.533450  -72.315800
  C    -73.315500    6.554590  -71.449600
  H    -74.128300    6.926350  -70.860400
  H    -72.438000    6.496030  -70.842600
  H    -73.484700    5.538090  -71.749900
  H    -66.436600    9.682340  -70.662400
  H    -71.663900   10.289900  -76.890400

 Total Charge           Charge          ....    0
 Multiplicity           Mult            ....    1
 Number of Electrons    NEL             ....  134
 Basis Dimension        Dim             ....  322

ORBITAL ENERGIES
----------------

  NO   OCC          E(Eh)            E(eV)
   0   2.0000     -88.968462     -2420.9549
   1   2.0000     -88.968405     -2420.9534
   2   2.0000     -10.333443      -281.1873
   3   2.0000     -10.330467      -281.1063
   4   2.0000     -10.319457      -280.8067
   5   2.0000     -10.310223      -280.5554
   6   2.0000     -10.308139      -280.4987
   7   2.0000     -10.305036      -280.4143
   8   2.0000     -10.298363      -280.2327
   9   2.0000     -10.296421      -280.1798
  10   2.0000     -10.295308      -280.1496
  11   2.0000     -10.294712      -280.1334
  12   2.0000     -10.292975      -280.0861
  13   2.0000     -10.289985      -280.0047
  14   2.0000     -10.288282      -279.9584
  15   2.0000     -10.277381      -279.6618
  16   2.0000      -8.083665      -219.9677
  17   2.0000      -8.082718      -219.9419
  18   2.0000      -6.042089      -164.4136
  19   2.0000      -6.041322      -164.3927
  20   2.0000      -6.038232      -164.3087
  21   2.0000      -6.037288      -164.2830
  22   2.0000      -6.034331      -164.2025
  23   2.0000      -6.033407      -164.1773
  24   2.0000      -1.008883       -27.4531
  25   2.0000      -0.984886       -26.8001
  26   2.0000      -0.913102       -24.8468
  27   2.0000      -0.896719       -24.4010
  28   2.0000      -0.868215       -23.6253
  29   2.0000      -0.853106       -23.2142
  30   2.0000      -0.842670       -22.9302
  31   2.0000      -0.814862       -22.1735
  32   2.0000      -0.780659       -21.2428
  33   2.0000      -0.772989       -21.0341
  34   2.0000      -0.708602       -19.2820
  35   2.0000      -0.700347       -19.0574
  36   2.0000      -0.689798       -18.7704
  37   2.0000      -0.662403       -18.0249
  38   2.0000      -0.640389       -17.4259
  39   2.0000      -0.618585       -16.8325
  40   2.0000      -0.589944       -16.0532
  41   2.0000      -0.567351       -15.4384
  42   2.0000      -0.561738       -15.2857
  43   2.0000      -0.548407       -14.9229
  44   2.0000      -0.543057       -14.7773
  45   2.0000      -0.527808       -14.3624
  46   2.0000      -0.521191       -14.1823
  47   2.0000      -0.512871       -13.9559
  48   2.0000      -0.498747       -13.5716
  49   2.0000      -0.495793       -13.4912
  50   2.0000      -0.487538       -13.2666
  51   2.0000      -0.478762       -13.0278
  52   2.0000      -0.474342       -12.9075
  53   2.0000      -0.464427       -12.6377
  54   2.0000      -0.456111       -12.4114
  55   2.0000      -0.453126       -12.3302
  56   2.0000      -0.444152       -12.0860
  57   2.0000      -0.434531       -11.8242
  58   2.0000      -0.432976       -11.7819
  59   2.0000      -0.430800       -11.7227
  60   2.0000      -0.423095       -11.5130
  61   2.0000      -0.420440       -11.4407
  62   2.0000      -0.410727       -11.1765
  63   2.0000      -0.352517        -9.5925
  64   2.0000      -0.333653        -9.0792
  65   2.0000      -0.332572        -9.0497
  66   2.0000      -0.288945        -7.8626
  67   0.0000       0.026692         0.7263
  68   0.0000       0.071361         1.9418
  69   0.0000       0.106426         2.8960
  70   0.0000       0.119872         3.2619
  71   0.0000       0.125799         3.4232

MULLIKEN ATOMIC CHARGES
-----------------------
   0 S :    0.105857
   1 C :   -0.142694
   2 C :   -0.088592
   3 C :    0.056898
   4 C :   -0.136383
   5 H :   -0.045299
   6 C :    0.066155
   7 H :    0.028501
   8 H :    0.022181
   9 C :   -0.062543
  10 H :    0.039733
  11 H :    0.030407
  12 C :   -0.103957
  13 H :    0.052782
  14 H :    0.052338
  15 H :    0.037366
  16 S :    0.117549
  17 C :   -0.061768
  18 C :   -0.052083
  19 C :   -0.030179
  20 C :   -0.154934
  21 H :    0.029543
  22 C :    0.030272
  23 H :    0.023617
  24 H :    0.027117
  25 C :   -0.076582
  26 H :    0.034604
  27 H :    0.038732
  28 C :   -0.019292
  29 H :    0.038036
  30 H :    0.017976
  31 H :    0.027776
  32 H :    0.063659
  33 H :    0.033204
Sum of atomic charges:   -0.0000000

LOEWDIN ATOMIC CHARGES
----------------------
   0 S :    0.397435
   1 C :   -0.197674
   2 C :   -0.060918
   3 C :   -0.064510
   4 C :   -0.193292
   5 H :    0.016315
   6 C :   -0.031958
   7 H :    0.031103
   8 H :    0.030149
   9 C :   -0.053300
  10 H :    0.028747
  11 H :    0.028137
  12 C :   -0.078924
  13 H :    0.037641
  14 H :    0.026093
  15 H :    0.028852
  16 S :    0.417779
  17 C :   -0.179786
  18 C :   -0.067654
  19 C :   -0.058989
  20 C :   -0.196435
  21 H :    0.038362
  22 C :   -0.031817
  23 H :    0.024906
  24 H :    0.027361
  25 C :   -0.030957
  26 H :    0.025878
  27 H :    0.018960
  28 C :   -0.059461
  29 H :    0.027191
  30 H :    0.019629
  31 H :    0.024728
  32 H :    0.037344
  33 H :    0.019067

  Mayer bond orders larger than 0.100000
B(  0-S ,  1-C ) :   1.1268 B(  0-S ,  4-C ) :   1.1613 B(  1-C ,  2-C ) :   1.6039
B(  1-C , 32-H ) :   0.9625 B(  2-C ,  3-C ) :   1.2462 B(  2-C ,  6-C ) :   1.0075
B(  3-C ,  4-C ) :   1.5554 B(  3-C ,  5-H ) :   1.0100 B(  4-C , 20-C ) :   1.0260
B(  6-C ,  7-H ) :   0.9417 B(  6-C ,  8-H ) :   0.9437 B(  6-C ,  9-C ) :   1.0708
B(  9-C , 10-H ) :   0.9547 B(  9-C , 11-H ) :   0.9505 B(  9-C , 12-C ) :   1.0705
B( 12-C , 13-H ) :   0.9700 B( 12-C , 14-H ) :   0.9714 B( 12-C , 15-H ) :   0.9723
B( 16-S , 17-C ) :   1.1428 B( 16-S , 20-C ) :   1.1469 B( 17-C , 18-C ) :   1.6492
B( 17-C , 33-H ) :   0.9684 B( 18-C , 19-C ) :   1.2111 B( 18-C , 21-H ) :   0.9891
B( 19-C , 20-C ) :   1.6010 B( 19-C , 22-C ) :   1.0534 B( 22-C , 23-H ) :   0.9419
B( 22-C , 24-H ) :   0.9385 B( 22-C , 25-C ) :   1.0336 B( 25-C , 26-H ) :   0.9573
B( 25-C , 27-H ) :   0.9614 B( 25-C , 28-C ) :   1.0775 B( 28-C , 29-H ) :   0.9731
B( 28-C , 30-H ) :   0.9768 B( 28-C , 31-H ) :   0.9742

Dispersion correction           -0.014731801
FINAL SINGLE POINT ENERGY     -1339.877993647782

DIPOLE MOMENT
-------------
                                X             Y             Z
Electronic contribution:     10.49573      14.60822     -24.05022
Nuclear contribution   :    -11.06996     -14.88047      24.45872
                        -----------------------------------------
Total Dipole Moment    :     -0.57423      -0.27225       0.40851
                        -----------------------------------------
Magnitude (a.u.)       :      0.75547
Magnitude (Debye)      :      1.92026

Rotational constants in cm-1:     0.018446     0.009381     0.006606
Rotational constants in MHz :   552.993291   281.234040   198.043021

                             ****ORCA TERMINATED NORMALLY****
TOTAL RUN TIME: 0 days 0 hours 0 minutes 21 seconds 790 msec
