                         Program Version 4.2.1 -  RELEASE  -
|  1> ! wB97X-D3 SP def2-SVP
|  2> %pal
|  3> nprocs 24
|  4> end
|  5>
|  6> * xyz 0 1
|  7> S 	 -83.2066 	 -41.9893 	 -84.9178
|  8> C 	 -82.9063 	 -40.9266 	 -83.5844
|  9> C 	 -82.9782 	 -41.6603 	 -82.4217
| 10> C 	 -82.8395 	 -43.0426 	 -82.6293
| 11> C 	 -82.8774 	 -43.3982 	 -83.9494
| 12> H 	 -82.8754 	 -43.9259 	 -82.0101
| 13> C 	 -83.1499 	 -41.0603 	 -81.0354
| 14> H 	 -83.5195 	 -40.0279 	 -81.0644
| 15> H 	 -82.1335 	 -41.0322 	 -80.6678
| 16> C 	 -84.0734 	 -41.8444 	 -79.9989
| 17> H 	 -85.1172 	 -41.9602 	 -80.3142
| 18> H 	 -83.8086 	 -42.9714 	 -79.907
| 19> C 	 -84.0523 	 -41.191 	 -78.6007
| 20> H 	 -83.0732 	 -40.8928 	 -78.1465
| 21> H 	 -84.6763 	 -40.2763 	 -78.5567
| 22> H 	 -84.4718 	 -41.9845 	 -77.996
| 23> S 	 -84.5775 	 -45.0444 	 -85.3345
| 24> C 	 -84.5419 	 -46.7453 	 -85.1315
| 25> C 	 -83.4081 	 -47.053 	 -84.4709
| 26> C 	 -82.6046 	 -45.9697 	 -84.0221
| 27> C 	 -83.1266 	 -44.7421 	 -84.3762
| 28> H 	 -83.1538 	 -48.1239 	 -84.3525
| 29> C 	 -81.3895 	 -46.1549 	 -83.1942
| 30> H 	 -81.0853 	 -45.168 	 -82.9391
| 31> H 	 -80.5895 	 -46.6195 	 -83.7743
| 32> C 	 -81.6599 	 -47.0521 	 -81.9857
| 33> H 	 -80.6888 	 -47.4181 	 -81.6277
| 34> H 	 -82.178 	 -47.9392 	 -82.3261
| 35> C 	 -82.5364 	 -46.3733 	 -80.8687
| 36> H 	 -83.6377 	 -46.2891 	 -81.0584
| 37> H 	 -82.2152 	 -45.342 	 -80.5427
| 38> H 	 -82.3767 	 -46.9854 	 -79.9286
| 39> H 	 -83.0704 	 -39.8802 	 -83.6801
| 40> H 	 -85.2464 	 -47.4618 	 -85.4757
| 41> *
| 42>
| 43>                          ****END OF INPUT****

CARTESIAN COORDINATES (ANGSTROEM)
---------------------------------
  S    -83.206600  -41.989300  -84.917800
  C    -82.906300  -40.926600  -83.584400
  C    -82.978200  -41.660300  -82.421700
  C    -82.839500  -43.042600  -82.629300
  C    -82.877400  -43.398200  -83.949400
  H    -82.875400  -43.925900  -82.010100
  C    -83.149900  -41.060300  -81.035400
  H    -83.519500  -40.027900  -81.064400
  H    -82.133500  -41.032200  -80.667800
  C    -84.073400  -41.844400  -79.998900
  H    -85.117200  -41.960200  -80.314200
  H    -83.808600  -42.971400  -79.907000
  C    -84.052300  -41.191000  -78.600700
  H    -83.073200  -40.892800  -78.146500
  H    -84.676300  -40.276300  -78.556700
  H    -84.471800  -41.984500  -77.996000
  S    -84.577500  -45.044400  -85.334500
  C    -84.541900  -46.745300  -85.131500
  C    -83.408100  -47.053000  -84.470900
  C    -82.604600  -45.969700  -84.022100
  C    -83.126600  -44.742100  -84.376200
  H    -83.153800  -48.123900  -84.352500
  C    -81.389500  -46.154900  -83.194200
  H    -81.085300  -45.168000  -82.939100
  H    -80.589500  -46.619500  -83.774300
  C    -81.659900  -47.052100  -81.985700
  H    -80.688800  -47.418100  -81.627700
  H    -82.178000  -47.939200  -82.326100
  C    -82.536400  -46.373300  -80.868700
  H    -83.637700  -46.289100  -81.058400
  H    -82.215200  -45.342000  -80.542700
  H    -82.376700  -46.985400  -79.928600
  H    -83.070400  -39.880200  -83.680100
  H    -85.246400  -47.461800  -85.475700

 Total Charge           Charge          ....    0
 Multiplicity           Mult            ....    1
 Number of Electrons    NEL             ....  134
 Basis Dimension        Dim             ....  322

ORBITAL ENERGIES
----------------

  NO   OCC          E(Eh)            E(eV)
   0   2.0000     -88.963224     -2420.8124
   1   2.0000     -88.958306     -2420.6786
   2   2.0000     -10.324445      -280.9424
   3   2.0000     -10.324206      -280.9359
   4   2.0000     -10.309961      -280.5483
   5   2.0000     -10.309167      -280.5267
   6   2.0000     -10.302696      -280.3506
   7   2.0000     -10.301786      -280.3258
   8   2.0000     -10.296225      -280.1745
   9   2.0000     -10.296023      -280.1690
  10   2.0000     -10.293603      -280.1032
  11   2.0000     -10.292043      -280.0607
  12   2.0000     -10.288296      -279.9588
  13   2.0000     -10.288284      -279.9584
  14   2.0000     -10.284975      -279.8684
  15   2.0000     -10.283596      -279.8309
  16   2.0000      -8.078595      -219.8297
  17   2.0000      -8.073922      -219.7026
  18   2.0000      -6.037052      -164.2765
  19   2.0000      -6.033197      -164.1716
  20   2.0000      -6.032490      -164.1524
  21   2.0000      -6.029179      -164.0623
  22   2.0000      -6.028246      -164.0369
  23   2.0000      -6.024596      -163.9376
  24   2.0000      -1.016632       -27.6640
  25   2.0000      -0.993025       -27.0216
  26   2.0000      -0.913422       -24.8555
  27   2.0000      -0.904428       -24.6107
  28   2.0000      -0.878063       -23.8933
  29   2.0000      -0.850874       -23.1535
  30   2.0000      -0.839787       -22.8518
  31   2.0000      -0.819888       -22.3103
  32   2.0000      -0.780805       -21.2468
  33   2.0000      -0.772309       -21.0156
  34   2.0000      -0.712900       -19.3990
  35   2.0000      -0.706192       -19.2165
  36   2.0000      -0.695316       -18.9205
  37   2.0000      -0.655311       -17.8319
  38   2.0000      -0.647389       -17.6163
  39   2.0000      -0.618417       -16.8280
  40   2.0000      -0.602117       -16.3844
  41   2.0000      -0.566543       -15.4164
  42   2.0000      -0.556107       -15.1324
  43   2.0000      -0.552028       -15.0215
  44   2.0000      -0.536354       -14.5949
  45   2.0000      -0.526265       -14.3204
  46   2.0000      -0.524376       -14.2690
  47   2.0000      -0.513231       -13.9657
  48   2.0000      -0.509108       -13.8535
  49   2.0000      -0.500397       -13.6165
  50   2.0000      -0.490670       -13.3518
  51   2.0000      -0.485346       -13.2069
  52   2.0000      -0.473282       -12.8786
  53   2.0000      -0.467580       -12.7235
  54   2.0000      -0.464348       -12.6355
  55   2.0000      -0.449160       -12.2223
  56   2.0000      -0.442394       -12.0381
  57   2.0000      -0.439529       -11.9602
  58   2.0000      -0.429458       -11.6862
  59   2.0000      -0.426383       -11.6025
  60   2.0000      -0.417989       -11.3740
  61   2.0000      -0.412067       -11.2129
  62   2.0000      -0.406449       -11.0600
  63   2.0000      -0.357859        -9.7378
  64   2.0000      -0.328343        -8.9347
  65   2.0000      -0.323587        -8.8053
  66   2.0000      -0.288233        -7.8432
  67   0.0000       0.028281         0.7696
  68   0.0000       0.071686         1.9507
  69   0.0000       0.111006         3.0206
  70   0.0000       0.127087         3.4582
  71   0.0000       0.129263         3.5174

MULLIKEN ATOMIC CHARGES
-----------------------
   0 S :    0.096062
   1 C :   -0.096144
   2 C :   -0.073342
   3 C :    0.047888
   4 C :   -0.148937
   5 H :   -0.029019
   6 C :    0.077077
   7 H :    0.024139
   8 H :    0.041803
   9 C :   -0.130504
  10 H :    0.039734
  11 H :    0.039455
  12 C :   -0.062505
  13 H :    0.039471
  14 H :    0.041864
  15 H :    0.035727
  16 S :    0.087266
  17 C :   -0.072377
  18 C :   -0.057362
  19 C :   -0.069611
  20 C :   -0.135073
  21 H :    0.027362
  22 C :    0.103912
  23 H :    0.009221
  24 H :    0.033771
  25 C :   -0.058489
  26 H :    0.028344
  27 H :    0.026569
  28 C :   -0.109647
  29 H :    0.061263
  30 H :    0.048031
  31 H :    0.042912
  32 H :    0.043897
  33 H :    0.047240
Sum of atomic charges:    0.0000000

LOEWDIN ATOMIC CHARGES
----------------------
   0 S :    0.414301
   1 C :   -0.199532
   2 C :   -0.059410
   3 C :   -0.063760
   4 C :   -0.194761
   5 H :    0.030295
   6 C :   -0.031763
   7 H :    0.029844
   8 H :    0.035270
   9 C :   -0.047202
  10 H :    0.027831
  11 H :    0.028657
  12 C :   -0.072608
  13 H :    0.028617
  14 H :    0.027744
  15 H :    0.029187
  16 S :    0.404154
  17 C :   -0.189671
  18 C :   -0.082099
  19 C :   -0.066636
  20 C :   -0.187159
  21 H :    0.033230
  22 C :   -0.030298
  23 H :    0.023445
  24 H :    0.036262
  25 C :   -0.034372
  26 H :    0.025315
  27 H :    0.022610
  28 C :   -0.084625
  29 H :    0.033549
  30 H :    0.025153
  31 H :    0.035464
  32 H :    0.022748
  33 H :    0.030219

  Mayer bond orders larger than 0.100000
B(  0-S ,  1-C ) :   1.1388 B(  0-S ,  4-C ) :   1.1577 B(  1-C ,  2-C ) :   1.5891
B(  1-C , 32-H ) :   0.9750 B(  2-C ,  3-C ) :   1.2424 B(  2-C ,  6-C ) :   1.0190
B(  3-C ,  4-C ) :   1.5563 B(  3-C ,  5-H ) :   0.9836 B(  4-C , 20-C ) :   1.0598
B(  6-C ,  7-H ) :   0.9472 B(  6-C ,  8-H ) :   0.9408 B(  6-C ,  9-C ) :   1.0489
B(  9-C , 10-H ) :   0.9559 B(  9-C , 11-H ) :   0.9576 B(  9-C , 12-C ) :   1.0731
B( 12-C , 13-H ) :   0.9777 B( 12-C , 14-H ) :   0.9756 B( 12-C , 15-H ) :   0.9747
B( 16-S , 17-C ) :   1.1534 B( 16-S , 20-C ) :   1.1307 B( 17-C , 18-C ) :   1.6152
B( 17-C , 33-H ) :   0.9724 B( 18-C , 19-C ) :   1.2362 B( 18-C , 21-H ) :   0.9823
B( 19-C , 20-C ) :   1.5895 B( 19-C , 22-C ) :   1.0531 B( 22-C , 23-H ) :   0.9354
B( 22-C , 24-H ) :   0.9239 B( 22-C , 25-C ) :   1.0778 B( 25-C , 26-H ) :   0.9575
B( 25-C , 27-H ) :   0.9532 B( 25-C , 28-C ) :   1.0631 B( 28-C , 29-H ) :   0.9704
B( 28-C , 30-H ) :   0.9629 B( 28-C , 31-H ) :   0.9698

Dispersion correction           -0.015048859
FINAL SINGLE POINT ENERGY     -1339.867412170883

DIPOLE MOMENT
-------------
                                X             Y             Z
Electronic contribution:     -4.11718       2.86144     -29.70513
Nuclear contribution   :      4.08386      -3.13078      30.45187
                        -----------------------------------------
Total Dipole Moment    :     -0.03332      -0.26934       0.74674
                        -----------------------------------------
Magnitude (a.u.)       :      0.79453
Magnitude (Debye)      :      2.01953

Rotational constants in cm-1:     0.017558     0.009849     0.007360
Rotational constants in MHz :   526.373863   295.262347   220.651740

                             ****ORCA TERMINATED NORMALLY****
TOTAL RUN TIME: 0 days 0 hours 0 minutes 21 seconds 476 msec
