                         Program Version 4.2.1 -  RELEASE  -
|  1> ! wB97X-D3 SP def2-SVP
|  2> %pal
|  3> nprocs 24
|  4> end
|  5>
|  6> * xyz 0 1
|  7> S 	 -139.431 	 23.9801 	 -19.3221
|  8> C 	 -140.702 	 23.2405 	 -18.3354
|  9> C 	 -140.243 	 23.0082 	 -17.023
| 10> C 	 -138.968 	 23.6089 	 -16.8115
| 11> C 	 -138.349 	 24.0781 	 -17.9651
| 12> H 	 -138.513 	 23.5931 	 -15.8075
| 13> C 	 -140.931 	 22.295 	 -15.8975
| 14> H 	 -140.127 	 21.925 	 -15.2909
| 15> H 	 -141.397 	 21.4919 	 -16.4203
| 16> C 	 -141.926 	 23.0651 	 -15.0586
| 17> H 	 -142.245 	 22.4419 	 -14.197
| 18> H 	 -141.438 	 23.9531 	 -14.6704
| 19> C 	 -143.115 	 23.5046 	 -15.8969
| 20> H 	 -143.909 	 22.7825 	 -15.859
| 21> H 	 -143.493 	 24.454 	 -15.398
| 22> H 	 -143.047 	 23.8767 	 -16.9056
| 23> S 	 -136.336 	 25.7855 	 -17.2141
| 24> C 	 -134.782 	 25.6527 	 -17.9557
| 25> C 	 -134.687 	 24.5646 	 -18.8245
| 26> C 	 -135.937 	 23.9115 	 -19.0373
| 27> C 	 -136.937 	 24.3843 	 -18.1034
| 28> H 	 -133.691 	 24.4486 	 -19.2238
| 29> C 	 -136.165 	 22.9381 	 -20.1869
| 30> H 	 -135.827 	 23.4576 	 -21.1513
| 31> H 	 -137.261 	 22.7559 	 -20.2476
| 32> C 	 -135.473 	 21.5646 	 -19.9406
| 33> H 	 -135.932 	 21.0885 	 -19.0097
| 34> H 	 -134.433 	 21.6852 	 -19.7706
| 35> C 	 -135.627 	 20.5234 	 -21.1195
| 36> H 	 -135.424 	 20.9497 	 -22.0608
| 37> H 	 -136.65 	 20.1568 	 -21.285
| 38> H 	 -134.987 	 19.6199 	 -20.9847
| 39> H 	 -141.671 	 23.0378 	 -18.7653
| 40> H 	 -133.925 	 26.2312 	 -17.6974
| 41> *
| 42>
| 43>                          ****END OF INPUT****

CARTESIAN COORDINATES (ANGSTROEM)
---------------------------------
  S    -139.431000   23.980100  -19.322100
  C    -140.702000   23.240500  -18.335400
  C    -140.243000   23.008200  -17.023000
  C    -138.968000   23.608900  -16.811500
  C    -138.349000   24.078100  -17.965100
  H    -138.513000   23.593100  -15.807500
  C    -140.931000   22.295000  -15.897500
  H    -140.127000   21.925000  -15.290900
  H    -141.397000   21.491900  -16.420300
  C    -141.926000   23.065100  -15.058600
  H    -142.245000   22.441900  -14.197000
  H    -141.438000   23.953100  -14.670400
  C    -143.115000   23.504600  -15.896900
  H    -143.909000   22.782500  -15.859000
  H    -143.493000   24.454000  -15.398000
  H    -143.047000   23.876700  -16.905600
  S    -136.336000   25.785500  -17.214100
  C    -134.782000   25.652700  -17.955700
  C    -134.687000   24.564600  -18.824500
  C    -135.937000   23.911500  -19.037300
  C    -136.937000   24.384300  -18.103400
  H    -133.691000   24.448600  -19.223800
  C    -136.165000   22.938100  -20.186900
  H    -135.827000   23.457600  -21.151300
  H    -137.261000   22.755900  -20.247600
  C    -135.473000   21.564600  -19.940600
  H    -135.932000   21.088500  -19.009700
  H    -134.433000   21.685200  -19.770600
  C    -135.627000   20.523400  -21.119500
  H    -135.424000   20.949700  -22.060800
  H    -136.650000   20.156800  -21.285000
  H    -134.987000   19.619900  -20.984700
  H    -141.671000   23.037800  -18.765300
  H    -133.925000   26.231200  -17.697400

 Total Charge           Charge          ....    0
 Multiplicity           Mult            ....    1
 Number of Electrons    NEL             ....  134
 Basis Dimension        Dim             ....  322

ORBITAL ENERGIES
----------------

  NO   OCC          E(Eh)            E(eV)
   0   2.0000     -88.968570     -2420.9579
   1   2.0000     -88.966698     -2420.9069
   2   2.0000     -10.330818      -281.1158
   3   2.0000     -10.328927      -281.0644
   4   2.0000     -10.318731      -280.7870
   5   2.0000     -10.312437      -280.6157
   6   2.0000     -10.311392      -280.5872
   7   2.0000     -10.302341      -280.3410
   8   2.0000     -10.298785      -280.2442
   9   2.0000     -10.294564      -280.1293
  10   2.0000     -10.293366      -280.0967
  11   2.0000     -10.290958      -280.0312
  12   2.0000     -10.289639      -279.9953
  13   2.0000     -10.284266      -279.8491
  14   2.0000     -10.276484      -279.6373
  15   2.0000     -10.276132      -279.6278
  16   2.0000      -8.082620      -219.9393
  17   2.0000      -8.081277      -219.9027
  18   2.0000      -6.041106      -164.3869
  19   2.0000      -6.039681      -164.3481
  20   2.0000      -6.037078      -164.2772
  21   2.0000      -6.035737      -164.2408
  22   2.0000      -6.033591      -164.1824
  23   2.0000      -6.032239      -164.1456
  24   2.0000      -1.002328       -27.2747
  25   2.0000      -0.979860       -26.6633
  26   2.0000      -0.918664       -24.9981
  27   2.0000      -0.897960       -24.4347
  28   2.0000      -0.865963       -23.5641
  29   2.0000      -0.850644       -23.1472
  30   2.0000      -0.842307       -22.9203
  31   2.0000      -0.809067       -22.0158
  32   2.0000      -0.784773       -21.3548
  33   2.0000      -0.768815       -20.9205
  34   2.0000      -0.708525       -19.2800
  35   2.0000      -0.702555       -19.1175
  36   2.0000      -0.690907       -18.8005
  37   2.0000      -0.655735       -17.8435
  38   2.0000      -0.636908       -17.3311
  39   2.0000      -0.621266       -16.9055
  40   2.0000      -0.589057       -16.0291
  41   2.0000      -0.570458       -15.5230
  42   2.0000      -0.555370       -15.1124
  43   2.0000      -0.551488       -15.0067
  44   2.0000      -0.542992       -14.7756
  45   2.0000      -0.525139       -14.2898
  46   2.0000      -0.517752       -14.0888
  47   2.0000      -0.512034       -13.9332
  48   2.0000      -0.500350       -13.6152
  49   2.0000      -0.492693       -13.4069
  50   2.0000      -0.489295       -13.3144
  51   2.0000      -0.479620       -13.0511
  52   2.0000      -0.467740       -12.7278
  53   2.0000      -0.461445       -12.5566
  54   2.0000      -0.458200       -12.4683
  55   2.0000      -0.452834       -12.3222
  56   2.0000      -0.441240       -12.0068
  57   2.0000      -0.435832       -11.8596
  58   2.0000      -0.427325       -11.6281
  59   2.0000      -0.423202       -11.5159
  60   2.0000      -0.418824       -11.3968
  61   2.0000      -0.417452       -11.3594
  62   2.0000      -0.414127       -11.2690
  63   2.0000      -0.341945        -9.3048
  64   2.0000      -0.331629        -9.0241
  65   2.0000      -0.326272        -8.8783
  66   2.0000      -0.287050        -7.8110
  67   0.0000       0.028842         0.7848
  68   0.0000       0.065893         1.7930
  69   0.0000       0.110181         2.9982
  70   0.0000       0.111862         3.0439
  71   0.0000       0.130173         3.5422

MULLIKEN ATOMIC CHARGES
-----------------------
   0 S :    0.113203
   1 C :   -0.142674
   2 C :   -0.121276
   3 C :    0.019861
   4 C :   -0.132186
   5 H :    0.022961
   6 C :    0.098435
   7 H :    0.015677
   8 H :    0.018274
   9 C :   -0.022853
  10 H :    0.042631
  11 H :    0.024653
  12 C :   -0.080835
  13 H :    0.029511
  14 H :    0.028514
  15 H :    0.033406
  16 S :    0.116633
  17 C :   -0.098205
  18 C :   -0.043063
  19 C :   -0.029315
  20 C :   -0.160278
  21 H :    0.019410
  22 C :    0.044270
  23 H :    0.052389
  24 H :    0.027308
  25 C :   -0.091111
  26 H :    0.046812
  27 H :    0.026397
  28 C :   -0.040076
  29 H :    0.011776
  30 H :    0.026378
  31 H :    0.041142
  32 H :    0.053657
  33 H :    0.048576
Sum of atomic charges:   -0.0000000

LOEWDIN ATOMIC CHARGES
----------------------
   0 S :    0.420743
   1 C :   -0.196592
   2 C :   -0.057620
   3 C :   -0.063539
   4 C :   -0.206727
   5 H :    0.034892
   6 C :   -0.031775
   7 H :    0.028560
   8 H :    0.029237
   9 C :   -0.034682
  10 H :    0.033761
  11 H :    0.023915
  12 C :   -0.074372
  13 H :    0.021453
  14 H :    0.035964
  15 H :    0.024019
  16 S :    0.418749
  17 C :   -0.193481
  18 C :   -0.073284
  19 C :   -0.051736
  20 C :   -0.200959
  21 H :    0.033484
  22 C :   -0.041748
  23 H :    0.040995
  24 H :    0.020437
  25 C :   -0.037639
  26 H :    0.036314
  27 H :    0.015396
  28 C :   -0.071540
  29 H :    0.014801
  30 H :    0.025458
  31 H :    0.031256
  32 H :    0.022841
  33 H :    0.023420

  Mayer bond orders larger than 0.100000
B(  0-S ,  1-C ) :   1.1444 B(  0-S ,  4-C ) :   1.1580 B(  1-C ,  2-C ) :   1.5665
B(  1-C , 32-H ) :   0.9728 B(  2-C ,  3-C ) :   1.2861 B(  2-C ,  6-C ) :   1.0164
B(  3-C ,  4-C ) :   1.5331 B(  3-C ,  5-H ) :   0.9844 B(  4-C , 20-C ) :   1.0346
B(  6-C ,  7-H ) :   0.9329 B(  6-C ,  8-H ) :   0.9340 B(  6-C ,  9-C ) :   1.0801
B(  9-C , 10-H ) :   0.9522 B(  9-C , 11-H ) :   0.9586 B(  9-C , 12-C ) :   1.0681
B( 12-C , 13-H ) :   0.9771 B( 12-C , 14-H ) :   0.9739 B( 12-C , 15-H ) :   0.9758
B( 16-S , 17-C ) :   1.1678 B( 16-S , 20-C ) :   1.1572 B( 17-C , 18-C ) :   1.6116
B( 17-C , 20-C ) :   0.1066 B( 17-C , 33-H ) :   0.9661 B( 18-C , 19-C ) :   1.2370
B( 18-C , 21-H ) :   0.9935 B( 19-C , 20-C ) :   1.5475 B( 19-C , 22-C ) :   1.0436
B( 22-C , 23-H ) :   0.9383 B( 22-C , 24-H ) :   0.9275 B( 22-C , 25-C ) :   1.0540
B( 25-C , 26-H ) :   0.9557 B( 25-C , 27-H ) :   0.9642 B( 25-C , 28-C ) :   1.0736
B( 28-C , 29-H ) :   0.9743 B( 28-C , 30-H ) :   0.9756 B( 28-C , 31-H ) :   0.9771

Dispersion correction           -0.014032162
FINAL SINGLE POINT ENERGY     -1339.873425682009

DIPOLE MOMENT
-------------
                                X             Y             Z
Electronic contribution:      7.65431      16.65961      -0.52374
Nuclear contribution   :     -7.70014     -16.99187       0.64827
                        -----------------------------------------
Total Dipole Moment    :     -0.04582      -0.33226       0.12452
                        -----------------------------------------
Magnitude (a.u.)       :      0.35778
Magnitude (Debye)      :      0.90939

Rotational constants in cm-1:     0.020087     0.007872     0.006404
Rotational constants in MHz :   602.199628   235.988796   191.996578

                             ****ORCA TERMINATED NORMALLY****
TOTAL RUN TIME: 0 days 0 hours 0 minutes 21 seconds 204 msec
