                         Program Version 4.2.1 -  RELEASE  -
|  1> ! wB97X-D3 SP def2-SVP
|  2> %pal
|  3> nprocs 24
|  4> end
|  5>
|  6> * xyz 0 1
|  7> S 	 -79.677 	 -1.03209 	 -59.9589
|  8> C 	 -79.2741 	 -0.400159 	 -61.4761
|  9> C 	 -78.7089 	 -1.29829 	 -62.3572
| 10> C 	 -78.7654 	 -2.59354 	 -61.7884
| 11> C 	 -79.2519 	 -2.60283 	 -60.5605
| 12> H 	 -78.4209 	 -3.52983 	 -62.2452
| 13> C 	 -78.3569 	 -1.1635 	 -63.7891
| 14> H 	 -77.813 	 -0.251382 	 -63.9419
| 15> H 	 -79.2614 	 -0.905588 	 -64.2883
| 16> C 	 -77.3175 	 -2.20233 	 -64.3482
| 17> H 	 -76.44 	 -2.06795 	 -63.7103
| 18> H 	 -77.7998 	 -3.11232 	 -64.1911
| 19> C 	 -77.1328 	 -1.91531 	 -65.8789
| 20> H 	 -76.5215 	 -0.941793 	 -66.0139
| 21> H 	 -76.6726 	 -2.7617 	 -66.2747
| 22> H 	 -78.0098 	 -1.79601 	 -66.392
| 23> S 	 -78.4446 	 -3.64561 	 -58.1519
| 24> C 	 -78.7953 	 -5.3449 	 -57.7908
| 25> C 	 -79.5289 	 -5.92278 	 -58.775
| 26> C 	 -79.8767 	 -4.98823 	 -59.8602
| 27> C 	 -79.3309 	 -3.75016 	 -59.7079
| 28> H 	 -79.6921 	 -6.9703 	 -58.8433
| 29> C 	 -80.6511 	 -5.42413 	 -61.0092
| 30> H 	 -79.984 	 -5.56807 	 -61.8826
| 31> H 	 -81.0874 	 -4.51688 	 -61.4158
| 32> C 	 -81.7833 	 -6.425 	 -60.7401
| 33> H 	 -81.4157 	 -7.2796 	 -60.1041
| 34> H 	 -81.9678 	 -6.98753 	 -61.6634
| 35> C 	 -83.1226 	 -5.87372 	 -60.2149
| 36> H 	 -82.9349 	 -5.63714 	 -59.185
| 37> H 	 -83.9107 	 -6.61701 	 -60.117
| 38> H 	 -83.5637 	 -5.14197 	 -60.8503
| 39> H 	 -79.2173 	 0.655353 	 -61.6868
| 40> H 	 -78.3217 	 -5.93628 	 -56.9771
| 41> *
| 42>
| 43>                          ****END OF INPUT****

CARTESIAN COORDINATES (ANGSTROEM)
---------------------------------
  S    -79.677000   -1.032090  -59.958900
  C    -79.274100   -0.400159  -61.476100
  C    -78.708900   -1.298290  -62.357200
  C    -78.765400   -2.593540  -61.788400
  C    -79.251900   -2.602830  -60.560500
  H    -78.420900   -3.529830  -62.245200
  C    -78.356900   -1.163500  -63.789100
  H    -77.813000   -0.251382  -63.941900
  H    -79.261400   -0.905588  -64.288300
  C    -77.317500   -2.202330  -64.348200
  H    -76.440000   -2.067950  -63.710300
  H    -77.799800   -3.112320  -64.191100
  C    -77.132800   -1.915310  -65.878900
  H    -76.521500   -0.941793  -66.013900
  H    -76.672600   -2.761700  -66.274700
  H    -78.009800   -1.796010  -66.392000
  S    -78.444600   -3.645610  -58.151900
  C    -78.795300   -5.344900  -57.790800
  C    -79.528900   -5.922780  -58.775000
  C    -79.876700   -4.988230  -59.860200
  C    -79.330900   -3.750160  -59.707900
  H    -79.692100   -6.970300  -58.843300
  C    -80.651100   -5.424130  -61.009200
  H    -79.984000   -5.568070  -61.882600
  H    -81.087400   -4.516880  -61.415800
  C    -81.783300   -6.425000  -60.740100
  H    -81.415700   -7.279600  -60.104100
  H    -81.967800   -6.987530  -61.663400
  C    -83.122600   -5.873720  -60.214900
  H    -82.934900   -5.637140  -59.185000
  H    -83.910700   -6.617010  -60.117000
  H    -83.563700   -5.141970  -60.850300
  H    -79.217300    0.655353  -61.686800
  H    -78.321700   -5.936280  -56.977100

 Total Charge           Charge          ....    0
 Multiplicity           Mult            ....    1
 Number of Electrons    NEL             ....  134
 Basis Dimension        Dim             ....  322

ORBITAL ENERGIES
----------------

  NO   OCC          E(Eh)            E(eV)
   0   2.0000     -88.965608     -2420.8773
   1   2.0000     -88.956740     -2420.6359
   2   2.0000     -10.317833      -280.7625
   3   2.0000     -10.317057      -280.7414
   4   2.0000     -10.315254      -280.6923
   5   2.0000     -10.304881      -280.4101
   6   2.0000     -10.295856      -280.1645
   7   2.0000     -10.293148      -280.0908
   8   2.0000     -10.291748      -280.0527
   9   2.0000     -10.291182      -280.0373
  10   2.0000     -10.289032      -279.9788
  11   2.0000     -10.286010      -279.8966
  12   2.0000     -10.284175      -279.8466
  13   2.0000     -10.282997      -279.8146
  14   2.0000     -10.279914      -279.7307
  15   2.0000     -10.273249      -279.5493
  16   2.0000      -8.081831      -219.9178
  17   2.0000      -8.070953      -219.6218
  18   2.0000      -6.040143      -164.3607
  19   2.0000      -6.036272      -164.2553
  20   2.0000      -6.032580      -164.1548
  21   2.0000      -6.029713      -164.0768
  22   2.0000      -6.025623      -163.9655
  23   2.0000      -6.021383      -163.8502
  24   2.0000      -1.016435       -27.6586
  25   2.0000      -0.982577       -26.7373
  26   2.0000      -0.916024       -24.9263
  27   2.0000      -0.908299       -24.7161
  28   2.0000      -0.874917       -23.8077
  29   2.0000      -0.856802       -23.3148
  30   2.0000      -0.844104       -22.9692
  31   2.0000      -0.818797       -22.2806
  32   2.0000      -0.784107       -21.3366
  33   2.0000      -0.772434       -21.0190
  34   2.0000      -0.720729       -19.6120
  35   2.0000      -0.704838       -19.1796
  36   2.0000      -0.692532       -18.8448
  37   2.0000      -0.653858       -17.7924
  38   2.0000      -0.645712       -17.5707
  39   2.0000      -0.627643       -17.0790
  40   2.0000      -0.598778       -16.2936
  41   2.0000      -0.573781       -15.6134
  42   2.0000      -0.562969       -15.3192
  43   2.0000      -0.552007       -15.0209
  44   2.0000      -0.537422       -14.6240
  45   2.0000      -0.532286       -14.4842
  46   2.0000      -0.518836       -14.1182
  47   2.0000      -0.510064       -13.8795
  48   2.0000      -0.501386       -13.6434
  49   2.0000      -0.494829       -13.4650
  50   2.0000      -0.489870       -13.3301
  51   2.0000      -0.482496       -13.1294
  52   2.0000      -0.472353       -12.8534
  53   2.0000      -0.467068       -12.7096
  54   2.0000      -0.460514       -12.5312
  55   2.0000      -0.455921       -12.4062
  56   2.0000      -0.447885       -12.1876
  57   2.0000      -0.442678       -12.0459
  58   2.0000      -0.433839       -11.8054
  59   2.0000      -0.426417       -11.6034
  60   2.0000      -0.415672       -11.3110
  61   2.0000      -0.411488       -11.1972
  62   2.0000      -0.405453       -11.0329
  63   2.0000      -0.350379        -9.5343
  64   2.0000      -0.329088        -8.9549
  65   2.0000      -0.320949        -8.7335
  66   2.0000      -0.292962        -7.9719
  67   0.0000       0.039065         1.0630
  68   0.0000       0.069839         1.9004
  69   0.0000       0.113950         3.1007
  70   0.0000       0.123714         3.3664
  71   0.0000       0.139285         3.7901

MULLIKEN ATOMIC CHARGES
-----------------------
   0 S :    0.136305
   1 C :   -0.115404
   2 C :   -0.061636
   3 C :   -0.020082
   4 C :   -0.150998
   5 H :    0.019073
   6 C :    0.043619
   7 H :   -0.001143
   8 H :    0.033612
   9 C :   -0.089067
  10 H :    0.051322
  11 H :    0.029607
  12 C :    0.004890
  13 H :    0.045942
  14 H :    0.023957
  15 H :    0.012811
  16 S :    0.076243
  17 C :   -0.091334
  18 C :   -0.026781
  19 C :   -0.051293
  20 C :   -0.145122
  21 H :    0.012989
  22 C :    0.069806
  23 H :    0.036128
  24 H :    0.011174
  25 C :   -0.088986
  26 H :    0.025947
  27 H :    0.017506
  28 C :   -0.007572
  29 H :    0.035271
  30 H :    0.022318
  31 H :    0.034308
  32 H :    0.036476
  33 H :    0.070113
Sum of atomic charges:    0.0000000

LOEWDIN ATOMIC CHARGES
----------------------
   0 S :    0.436204
   1 C :   -0.213611
   2 C :   -0.064517
   3 C :   -0.063064
   4 C :   -0.201941
   5 H :    0.035821
   6 C :   -0.041257
   7 H :    0.026076
   8 H :    0.032632
   9 C :   -0.022290
  10 H :    0.034037
  11 H :    0.010092
  12 C :   -0.050925
  13 H :    0.039046
  14 H :    0.019538
  15 H :    0.013961
  16 S :    0.359669
  17 C :   -0.177969
  18 C :   -0.071248
  19 C :   -0.058274
  20 C :   -0.182616
  21 H :    0.025028
  22 C :   -0.049396
  23 H :    0.040355
  24 H :    0.035774
  25 C :   -0.044705
  26 H :    0.025990
  27 H :    0.023760
  28 C :   -0.060123
  29 H :    0.028745
  30 H :    0.028319
  31 H :    0.024048
  32 H :    0.023220
  33 H :    0.039622

  Mayer bond orders larger than 0.100000
B(  0-S ,  1-C ) :   1.1472 B(  0-S ,  4-C ) :   1.1436 B(  1-C ,  2-C ) :   1.6251
B(  1-C , 32-H ) :   0.9654 B(  2-C ,  3-C ) :   1.2245 B(  2-C ,  6-C ) :   1.0172
B(  3-C ,  4-C ) :   1.6152 B(  3-C ,  5-H ) :   0.9885 B(  4-C , 20-C ) :   1.0285
B(  6-C ,  7-H ) :   0.9275 B(  6-C ,  8-H ) :   0.9410 B(  6-C ,  9-C ) :   1.0436
B(  9-C , 10-H ) :   0.9629 B(  9-C , 11-H ) :   0.9523 B(  9-C , 12-C ) :   1.0809
B( 12-C , 13-H ) :   0.9745 B( 12-C , 14-H ) :   0.9737 B( 12-C , 15-H ) :   0.9744
B( 16-S , 17-C ) :   1.1280 B( 16-S , 20-C ) :   1.0990 B( 17-C , 18-C ) :   1.6661
B( 17-C , 33-H ) :   0.9580 B( 18-C , 19-C ) :   1.1767 B( 18-C , 21-H ) :   0.9888
B( 19-C , 20-C ) :   1.6592 B( 19-C , 22-C ) :   1.0700 B( 22-C , 23-H ) :   0.9163
B( 22-C , 24-H ) :   0.9154 B( 22-C , 25-C ) :   1.0542 B( 25-C , 26-H ) :   0.9558
B( 25-C , 27-H ) :   0.9496 B( 25-C , 28-C ) :   1.0842 B( 28-C , 29-H ) :   0.9745
B( 28-C , 30-H ) :   0.9710 B( 28-C , 31-H ) :   0.9730

Dispersion correction           -0.013931539
FINAL SINGLE POINT ENERGY     -1339.848703272858

DIPOLE MOMENT
-------------
                                X             Y             Z
Electronic contribution:      4.58047       9.54900      23.20036
Nuclear contribution   :     -4.57964      -9.88159     -23.98457
                        -----------------------------------------
Total Dipole Moment    :      0.00083      -0.33259      -0.78421
                        -----------------------------------------
Magnitude (a.u.)       :      0.85183
Magnitude (Debye)      :      2.16517

Rotational constants in cm-1:     0.018136     0.008171     0.007016
Rotational constants in MHz :   543.712900   244.962263   210.332584

                             ****ORCA TERMINATED NORMALLY****
TOTAL RUN TIME: 0 days 0 hours 0 minutes 20 seconds 469 msec
