                         Program Version 4.2.1 -  RELEASE  -
|  1> ! wB97X-D3 SP def2-SVP
|  2> %pal
|  3> nprocs 24
|  4> end
|  5>
|  6> * xyz 0 1
|  7> S 	 -31.4373 	 14.5266 	 6.49602
|  8> C 	 -33.2157 	 14.5475 	 6.35903
|  9> C 	 -33.9038 	 14.7964 	 7.54654
| 10> C 	 -32.9891 	 15.2676 	 8.54784
| 11> C 	 -31.6863 	 15.2062 	 8.11149
| 12> H 	 -33.3413 	 15.7095 	 9.4202
| 13> C 	 -35.4469 	 14.8024 	 7.72399
| 14> H 	 -35.9744 	 15.0282 	 6.75458
| 15> H 	 -35.7645 	 15.6624 	 8.29829
| 16> C 	 -35.9677 	 13.5644 	 8.42459
| 17> H 	 -35.6817 	 12.6357 	 7.84711
| 18> H 	 -35.3561 	 13.3064 	 9.32742
| 19> C 	 -37.4086 	 13.7275 	 8.64015
| 20> H 	 -37.9607 	 13.7609 	 7.73918
| 21> H 	 -37.7552 	 12.8428 	 9.21072
| 22> H 	 -37.7631 	 14.6221 	 9.1706
| 23> S 	 -29.3427 	 16.641 	 7.77017
| 24> C 	 -28.478 	 17.1643 	 9.24833
| 25> C 	 -29.1355 	 16.748 	 10.384
| 26> C 	 -30.2706 	 15.9995 	 10.1393
| 27> C 	 -30.5625 	 15.8569 	 8.76146
| 28> H 	 -28.639 	 16.9983 	 11.4003
| 29> C 	 -30.9948 	 15.3653 	 11.3275
| 30> H 	 -31.7952 	 14.8089 	 10.847
| 31> H 	 -31.421 	 16.2174 	 11.8838
| 32> C 	 -30.1864 	 14.5079 	 12.2205
| 33> H 	 -29.3933 	 15.1784 	 12.6571
| 34> H 	 -29.6062 	 13.8403 	 11.6089
| 35> C 	 -30.9802 	 13.717 	 13.2779
| 36> H 	 -31.0114 	 14.4142 	 14.1639
| 37> H 	 -30.3245 	 12.8515 	 13.5011
| 38> H 	 -31.9149 	 13.3619 	 12.9391
| 39> H 	 -33.7289 	 14.2155 	 5.48771
| 40> H 	 -27.6112 	 17.7424 	 9.10123
| 41> *
| 42>
| 43>                          ****END OF INPUT****

CARTESIAN COORDINATES (ANGSTROEM)
---------------------------------
  S    -31.437300   14.526600    6.496020
  C    -33.215700   14.547500    6.359030
  C    -33.903800   14.796400    7.546540
  C    -32.989100   15.267600    8.547840
  C    -31.686300   15.206200    8.111490
  H    -33.341300   15.709500    9.420200
  C    -35.446900   14.802400    7.723990
  H    -35.974400   15.028200    6.754580
  H    -35.764500   15.662400    8.298290
  C    -35.967700   13.564400    8.424590
  H    -35.681700   12.635700    7.847110
  H    -35.356100   13.306400    9.327420
  C    -37.408600   13.727500    8.640150
  H    -37.960700   13.760900    7.739180
  H    -37.755200   12.842800    9.210720
  H    -37.763100   14.622100    9.170600
  S    -29.342700   16.641000    7.770170
  C    -28.478000   17.164300    9.248330
  C    -29.135500   16.748000   10.384000
  C    -30.270600   15.999500   10.139300
  C    -30.562500   15.856900    8.761460
  H    -28.639000   16.998300   11.400300
  C    -30.994800   15.365300   11.327500
  H    -31.795200   14.808900   10.847000
  H    -31.421000   16.217400   11.883800
  C    -30.186400   14.507900   12.220500
  H    -29.393300   15.178400   12.657100
  H    -29.606200   13.840300   11.608900
  C    -30.980200   13.717000   13.277900
  H    -31.011400   14.414200   14.163900
  H    -30.324500   12.851500   13.501100
  H    -31.914900   13.361900   12.939100
  H    -33.728900   14.215500    5.487710
  H    -27.611200   17.742400    9.101230

 Total Charge           Charge          ....    0
 Multiplicity           Mult            ....    1
 Number of Electrons    NEL             ....  134
 Basis Dimension        Dim             ....  322

ORBITAL ENERGIES
----------------

  NO   OCC          E(Eh)            E(eV)
   0   2.0000     -88.970357     -2421.0065
   1   2.0000     -88.963917     -2420.8313
   2   2.0000     -10.329904      -281.0910
   3   2.0000     -10.326327      -280.9936
   4   2.0000     -10.314864      -280.6817
   5   2.0000     -10.313406      -280.6420
   6   2.0000     -10.304562      -280.4014
   7   2.0000     -10.298050      -280.2242
   8   2.0000     -10.297621      -280.2125
   9   2.0000     -10.296663      -280.1864
  10   2.0000     -10.291041      -280.0335
  11   2.0000     -10.289825      -280.0004
  12   2.0000     -10.285125      -279.8725
  13   2.0000     -10.282220      -279.7934
  14   2.0000     -10.282069      -279.7893
  15   2.0000     -10.275894      -279.6213
  16   2.0000      -8.084312      -219.9853
  17   2.0000      -8.078048      -219.8149
  18   2.0000      -6.042795      -164.4328
  19   2.0000      -6.039336      -164.3387
  20   2.0000      -6.036438      -164.2598
  21   2.0000      -6.034746      -164.2138
  22   2.0000      -6.032655      -164.1569
  23   2.0000      -6.028968      -164.0566
  24   2.0000      -1.003090       -27.2955
  25   2.0000      -0.978373       -26.6229
  26   2.0000      -0.918819       -25.0023
  27   2.0000      -0.912699       -24.8358
  28   2.0000      -0.868643       -23.6370
  29   2.0000      -0.854650       -23.2562
  30   2.0000      -0.846616       -23.0376
  31   2.0000      -0.810731       -22.0611
  32   2.0000      -0.782389       -21.2899
  33   2.0000      -0.769757       -20.9462
  34   2.0000      -0.704580       -19.1726
  35   2.0000      -0.700690       -19.0667
  36   2.0000      -0.696764       -18.9599
  37   2.0000      -0.656042       -17.8518
  38   2.0000      -0.638241       -17.3674
  39   2.0000      -0.626607       -17.0508
  40   2.0000      -0.598641       -16.2899
  41   2.0000      -0.570143       -15.5144
  42   2.0000      -0.564234       -15.3536
  43   2.0000      -0.553307       -15.0562
  44   2.0000      -0.531841       -14.4721
  45   2.0000      -0.530124       -14.4254
  46   2.0000      -0.521969       -14.2035
  47   2.0000      -0.512828       -13.9547
  48   2.0000      -0.499549       -13.5934
  49   2.0000      -0.490307       -13.3419
  50   2.0000      -0.486815       -13.2469
  51   2.0000      -0.485976       -13.2241
  52   2.0000      -0.475094       -12.9280
  53   2.0000      -0.465012       -12.6536
  54   2.0000      -0.459628       -12.5071
  55   2.0000      -0.451147       -12.2763
  56   2.0000      -0.449479       -12.2310
  57   2.0000      -0.440793       -11.9946
  58   2.0000      -0.432888       -11.7795
  59   2.0000      -0.418668       -11.3925
  60   2.0000      -0.416819       -11.3422
  61   2.0000      -0.409403       -11.1404
  62   2.0000      -0.406172       -11.0525
  63   2.0000      -0.353102        -9.6084
  64   2.0000      -0.335347        -9.1252
  65   2.0000      -0.332045        -9.0354
  66   2.0000      -0.278598        -7.5810
  67   0.0000       0.020863         0.5677
  68   0.0000       0.075998         2.0680
  69   0.0000       0.095231         2.5914
  70   0.0000       0.121045         3.2938
  71   0.0000       0.132919         3.6169

MULLIKEN ATOMIC CHARGES
-----------------------
   0 S :    0.105659
   1 C :   -0.116082
   2 C :   -0.067554
   3 C :    0.031300
   4 C :   -0.123064
   5 H :   -0.003045
   6 C :    0.033478
   7 H :    0.030870
   8 H :    0.016234
   9 C :   -0.088361
  10 H :    0.031300
  11 H :    0.030189
  12 C :   -0.009236
  13 H :    0.018641
  14 H :    0.034940
  15 H :    0.029680
  16 S :    0.088656
  17 C :   -0.103928
  18 C :   -0.047081
  19 C :   -0.059515
  20 C :   -0.135447
  21 H :    0.054916
  22 C :    0.097792
  23 H :    0.006034
  24 H :    0.031092
  25 C :   -0.105689
  26 H :    0.024066
  27 H :    0.021679
  28 C :   -0.018082
  29 H :    0.044869
  30 H :    0.039903
  31 H :    0.030336
  32 H :    0.031328
  33 H :    0.044121
Sum of atomic charges:    0.0000000

LOEWDIN ATOMIC CHARGES
----------------------
   0 S :    0.378435
   1 C :   -0.181202
   2 C :   -0.052284
   3 C :   -0.052631
   4 C :   -0.174561
   5 H :    0.022573
   6 C :   -0.033579
   7 H :    0.035499
   8 H :    0.026226
   9 C :   -0.054526
  10 H :    0.032139
  11 H :    0.028817
  12 C :   -0.066887
  13 H :    0.021933
  14 H :    0.032595
  15 H :    0.027900
  16 S :    0.383849
  17 C :   -0.165137
  18 C :   -0.078943
  19 C :   -0.063196
  20 C :   -0.197316
  21 H :    0.049495
  22 C :   -0.034889
  23 H :    0.023891
  24 H :    0.032584
  25 C :   -0.048618
  26 H :    0.025074
  27 H :    0.020271
  28 C :   -0.057997
  29 H :    0.035503
  30 H :    0.034346
  31 H :    0.018611
  32 H :    0.016114
  33 H :    0.015910

  Mayer bond orders larger than 0.100000
B(  0-S ,  1-C ) :   1.1135 B(  0-S ,  4-C ) :   1.1295 B(  1-C ,  2-C ) :   1.6482
B(  1-C , 32-H ) :   0.9669 B(  2-C ,  3-C ) :   1.2213 B(  2-C ,  6-C ) :   1.0119
B(  3-C ,  4-C ) :   1.5794 B(  3-C ,  5-H ) :   0.9954 B(  4-C , 20-C ) :   1.0677
B(  6-C ,  7-H ) :   0.9474 B(  6-C ,  8-H ) :   0.9468 B(  6-C ,  9-C ) :   1.0512
B(  9-C , 10-H ) :   0.9472 B(  9-C , 11-H ) :   0.9545 B(  9-C , 12-C ) :   1.0845
B( 12-C , 13-H ) :   0.9675 B( 12-C , 14-H ) :   0.9685 B( 12-C , 15-H ) :   0.9715
B( 16-S , 17-C ) :   1.1509 B( 16-S , 20-C ) :   1.1458 B( 17-C , 18-C ) :   1.5792
B( 17-C , 20-C ) :   0.1098 B( 17-C , 33-H ) :   0.9791 B( 18-C , 19-C ) :   1.2707
B( 18-C , 21-H ) :   0.9746 B( 19-C , 20-C ) :   1.5606 B( 19-C , 22-C ) :   1.0295
B( 22-C , 23-H ) :   0.9234 B( 22-C , 24-H ) :   0.9272 B( 22-C , 25-C ) :   1.0784
B( 25-C , 26-H ) :   0.9476 B( 25-C , 27-H ) :   0.9574 B( 25-C , 28-C ) :   1.0750
B( 28-C , 29-H ) :   0.9766 B( 28-C , 30-H ) :   0.9770 B( 28-C , 31-H ) :   0.9766

Dispersion correction           -0.013390673
FINAL SINGLE POINT ENERGY     -1339.865744949850

DIPOLE MOMENT
-------------
                                X             Y             Z
Electronic contribution:     20.55809       9.45314     -20.72275
Nuclear contribution   :    -21.00221      -9.49710      21.19896
                        -----------------------------------------
Total Dipole Moment    :     -0.44412      -0.04396       0.47621
                        -----------------------------------------
Magnitude (a.u.)       :      0.65265
Magnitude (Debye)      :      1.65890

Rotational constants in cm-1:     0.017039     0.008589     0.006183
Rotational constants in MHz :   510.830948   257.489491   185.370713

                             ****ORCA TERMINATED NORMALLY****
TOTAL RUN TIME: 0 days 0 hours 0 minutes 21 seconds 95 msec
