                         Program Version 4.2.1 -  RELEASE  -
|  1> ! wB97X-D3 SP def2-SVP
|  2> %pal
|  3> nprocs 24
|  4> end
|  5>
|  6> * xyz 0 1
|  7> S 	 -64.7225 	 11.8473 	 -101.353
|  8> C 	 -64.269 	 12.8294 	 -99.9909
|  9> C 	 -64.325 	 12.1504 	 -98.7864
| 10> C 	 -64.7915 	 10.7754 	 -98.9554
| 11> C 	 -65.0346 	 10.4311 	 -100.289
| 12> H 	 -64.9963 	 10.0392 	 -98.2224
| 13> C 	 -63.9296 	 12.6276 	 -97.4458
| 14> H 	 -64.3719 	 12.0246 	 -96.6669
| 15> H 	 -64.3988 	 13.5918 	 -97.2871
| 16> C 	 -62.4365 	 12.8863 	 -97.1394
| 17> H 	 -61.8952 	 13.2937 	 -97.9558
| 18> H 	 -62.2787 	 13.6389 	 -96.3459
| 19> C 	 -61.7503 	 11.5582 	 -96.5808
| 20> H 	 -60.7008 	 11.7612 	 -96.4921
| 21> H 	 -62.0211 	 11.423 	 -95.5644
| 22> H 	 -61.8523 	 10.7392 	 -97.2575
| 23> S 	 -66.0982 	 7.93046 	 -99.8504
| 24> C 	 -65.7296 	 6.63603 	 -100.875
| 25> C 	 -65.0907 	 7.09085 	 -102.032
| 26> C 	 -64.8007 	 8.49114 	 -102.043
| 27> C 	 -65.1351 	 9.06221 	 -100.793
| 28> H 	 -64.94 	 6.42602 	 -102.835
| 29> C 	 -64.1158 	 9.10963 	 -103.297
| 30> H 	 -63.1899 	 9.50966 	 -102.997
| 31> H 	 -64.8428 	 9.88393 	 -103.53
| 32> C 	 -64.0675 	 8.16399 	 -104.499
| 33> H 	 -64.9743 	 7.57569 	 -104.774
| 34> H 	 -63.2341 	 7.51933 	 -104.302
| 35> C 	 -63.5605 	 8.79819 	 -105.881
| 36> H 	 -64.1663 	 9.70571 	 -105.997
| 37> H 	 -63.8767 	 8.11206 	 -106.687
| 38> H 	 -62.5152 	 8.96702 	 -105.945
| 39> H 	 -63.7964 	 13.8106 	 -100.116
| 40> H 	 -66.0245 	 5.66367 	 -100.589
| 41> *
| 42>
| 43>                          ****END OF INPUT****

CARTESIAN COORDINATES (ANGSTROEM)
---------------------------------
  S    -64.722500   11.847300  -101.353000
  C    -64.269000   12.829400  -99.990900
  C    -64.325000   12.150400  -98.786400
  C    -64.791500   10.775400  -98.955400
  C    -65.034600   10.431100  -100.289000
  H    -64.996300   10.039200  -98.222400
  C    -63.929600   12.627600  -97.445800
  H    -64.371900   12.024600  -96.666900
  H    -64.398800   13.591800  -97.287100
  C    -62.436500   12.886300  -97.139400
  H    -61.895200   13.293700  -97.955800
  H    -62.278700   13.638900  -96.345900
  C    -61.750300   11.558200  -96.580800
  H    -60.700800   11.761200  -96.492100
  H    -62.021100   11.423000  -95.564400
  H    -61.852300   10.739200  -97.257500
  S    -66.098200    7.930460  -99.850400
  C    -65.729600    6.636030  -100.875000
  C    -65.090700    7.090850  -102.032000
  C    -64.800700    8.491140  -102.043000
  C    -65.135100    9.062210  -100.793000
  H    -64.940000    6.426020  -102.835000
  C    -64.115800    9.109630  -103.297000
  H    -63.189900    9.509660  -102.997000
  H    -64.842800    9.883930  -103.530000
  C    -64.067500    8.163990  -104.499000
  H    -64.974300    7.575690  -104.774000
  H    -63.234100    7.519330  -104.302000
  C    -63.560500    8.798190  -105.881000
  H    -64.166300    9.705710  -105.997000
  H    -63.876700    8.112060  -106.687000
  H    -62.515200    8.967020  -105.945000
  H    -63.796400   13.810600  -100.116000
  H    -66.024500    5.663670  -100.589000

 Total Charge           Charge          ....    0
 Multiplicity           Mult            ....    1
 Number of Electrons    NEL             ....  134
 Basis Dimension        Dim             ....  322

ORBITAL ENERGIES
----------------

  NO   OCC          E(Eh)            E(eV)
   0   2.0000     -88.967302     -2420.9234
   1   2.0000     -88.963778     -2420.8275
   2   2.0000     -10.333251      -281.1821
   3   2.0000     -10.329516      -281.0804
   4   2.0000     -10.314770      -280.6792
   5   2.0000     -10.310923      -280.5745
   6   2.0000     -10.307697      -280.4867
   7   2.0000     -10.303648      -280.3765
   8   2.0000     -10.294836      -280.1367
   9   2.0000     -10.294437      -280.1259
  10   2.0000     -10.291937      -280.0579
  11   2.0000     -10.288600      -279.9670
  12   2.0000     -10.288339      -279.9599
  13   2.0000     -10.286147      -279.9003
  14   2.0000     -10.281142      -279.7641
  15   2.0000     -10.270067      -279.4627
  16   2.0000      -8.081020      -219.8957
  17   2.0000      -8.079490      -219.8541
  18   2.0000      -6.039703      -164.3487
  19   2.0000      -6.037925      -164.3003
  20   2.0000      -6.035640      -164.2381
  21   2.0000      -6.033788      -164.1877
  22   2.0000      -6.031710      -164.1312
  23   2.0000      -6.030376      -164.0949
  24   2.0000      -1.003203       -27.2985
  25   2.0000      -0.980656       -26.6850
  26   2.0000      -0.908357       -24.7176
  27   2.0000      -0.906774       -24.6746
  28   2.0000      -0.866680       -23.5835
  29   2.0000      -0.849839       -23.1253
  30   2.0000      -0.842680       -22.9305
  31   2.0000      -0.808741       -22.0070
  32   2.0000      -0.785777       -21.3821
  33   2.0000      -0.772290       -21.0151
  34   2.0000      -0.710348       -19.3295
  35   2.0000      -0.703486       -19.1428
  36   2.0000      -0.694680       -18.9032
  37   2.0000      -0.657898       -17.9023
  38   2.0000      -0.636410       -17.3176
  39   2.0000      -0.610181       -16.6039
  40   2.0000      -0.599833       -16.3223
  41   2.0000      -0.578681       -15.7467
  42   2.0000      -0.571213       -15.5435
  43   2.0000      -0.550593       -14.9824
  44   2.0000      -0.535278       -14.5657
  45   2.0000      -0.529871       -14.4185
  46   2.0000      -0.516783       -14.0624
  47   2.0000      -0.512225       -13.9383
  48   2.0000      -0.505432       -13.7535
  49   2.0000      -0.496699       -13.5159
  50   2.0000      -0.493072       -13.4172
  51   2.0000      -0.474596       -12.9144
  52   2.0000      -0.468266       -12.7422
  53   2.0000      -0.462215       -12.5775
  54   2.0000      -0.457486       -12.4488
  55   2.0000      -0.451441       -12.2843
  56   2.0000      -0.447008       -12.1637
  57   2.0000      -0.443446       -12.0668
  58   2.0000      -0.435252       -11.8438
  59   2.0000      -0.431821       -11.7505
  60   2.0000      -0.419426       -11.4132
  61   2.0000      -0.409912       -11.1543
  62   2.0000      -0.400346       -10.8940
  63   2.0000      -0.355490        -9.6734
  64   2.0000      -0.330260        -8.9868
  65   2.0000      -0.326011        -8.8712
  66   2.0000      -0.279309        -7.6004
  67   0.0000       0.019753         0.5375
  68   0.0000       0.082511         2.2453
  69   0.0000       0.108977         2.9654
  70   0.0000       0.116910         3.1813
  71   0.0000       0.126001         3.4287

MULLIKEN ATOMIC CHARGES
-----------------------
   0 S :    0.084495
   1 C :   -0.120496
   2 C :   -0.068160
   3 C :    0.005104
   4 C :   -0.115674
   5 H :    0.007113
   6 C :    0.083234
   7 H :    0.015237
   8 H :    0.023809
   9 C :   -0.075799
  10 H :    0.019187
  11 H :    0.025093
  12 C :   -0.038447
  13 H :    0.016259
  14 H :    0.026258
  15 H :    0.043539
  16 S :    0.098875
  17 C :   -0.066511
  18 C :   -0.029683
  19 C :   -0.098832
  20 C :   -0.150339
  21 H :    0.003831
  22 C :    0.137292
  23 H :    0.040853
  24 H :    0.033532
  25 C :   -0.157557
  26 H :    0.057201
  27 H :    0.032708
  28 C :   -0.035406
  29 H :    0.029895
  30 H :    0.034494
  31 H :    0.038656
  32 H :    0.056672
  33 H :    0.043565
Sum of atomic charges:    0.0000000

LOEWDIN ATOMIC CHARGES
----------------------
   0 S :    0.392483
   1 C :   -0.203489
   2 C :   -0.059782
   3 C :   -0.057699
   4 C :   -0.178169
   5 H :    0.021216
   6 C :   -0.038408
   7 H :    0.030583
   8 H :    0.035376
   9 C :   -0.030846
  10 H :    0.015914
  11 H :    0.025715
  12 C :   -0.060406
  13 H :    0.022706
  14 H :    0.020777
  15 H :    0.023405
  16 S :    0.431169
  17 C :   -0.195902
  18 C :   -0.071538
  19 C :   -0.053549
  20 C :   -0.197970
  21 H :    0.022267
  22 C :   -0.025656
  23 H :    0.029459
  24 H :    0.029027
  25 C :   -0.048016
  26 H :    0.033457
  27 H :    0.023003
  28 C :   -0.059153
  29 H :    0.024024
  30 H :    0.030138
  31 H :    0.018633
  32 H :    0.032256
  33 H :    0.018975

  Mayer bond orders larger than 0.100000
B(  0-S ,  1-C ) :   1.1315 B(  0-S ,  4-C ) :   1.1305 B(  1-C ,  2-C ) :   1.6167
B(  1-C , 32-H ) :   0.9629 B(  2-C ,  3-C ) :   1.2289 B(  2-C ,  6-C ) :   1.0417
B(  3-C ,  4-C ) :   1.5583 B(  3-C ,  5-H ) :   0.9949 B(  4-C , 20-C ) :   1.0691
B(  6-C ,  7-H ) :   0.9421 B(  6-C ,  8-H ) :   0.9289 B(  6-C ,  9-C ) :   1.0606
B(  9-C , 10-H ) :   0.9620 B(  9-C , 11-H ) :   0.9582 B(  9-C , 12-C ) :   1.0765
B( 12-C , 13-H ) :   0.9732 B( 12-C , 14-H ) :   0.9773 B( 12-C , 15-H ) :   0.9811
B( 16-S , 17-C ) :   1.1818 B( 16-S , 20-C ) :   1.1585 B( 17-C , 18-C ) :   1.5352
B( 17-C , 20-C ) :   0.1021 B( 17-C , 33-H ) :   0.9753 B( 18-C , 19-C ) :   1.2928
B( 18-C , 21-H ) :   0.9936 B( 19-C , 20-C ) :   1.5499 B( 19-C , 22-C ) :   0.9925
B( 22-C , 23-H ) :   0.9367 B( 22-C , 24-H ) :   0.9261 B( 22-C , 25-C ) :   1.0899
B( 25-C , 26-H ) :   0.9565 B( 25-C , 27-H ) :   0.9481 B( 25-C , 28-C ) :   1.0703
B( 28-C , 29-H ) :   0.9775 B( 28-C , 30-H ) :   0.9766 B( 28-C , 31-H ) :   0.9807

Dispersion correction           -0.013491293
FINAL SINGLE POINT ENERGY     -1339.860811288610

DIPOLE MOMENT
-------------
                                X             Y             Z
Electronic contribution:    -15.12226      -3.23160       2.20738
Nuclear contribution   :     15.50799       3.20033      -2.23089
                        -----------------------------------------
Total Dipole Moment    :      0.38573      -0.03128      -0.02350
                        -----------------------------------------
Magnitude (a.u.)       :      0.38771
Magnitude (Debye)      :      0.98547

Rotational constants in cm-1:     0.020157     0.007509     0.006259
Rotational constants in MHz :   604.286024   225.113982   187.652977

                             ****ORCA TERMINATED NORMALLY****
TOTAL RUN TIME: 0 days 0 hours 0 minutes 20 seconds 750 msec
