                         Program Version 4.2.1 -  RELEASE  -
|  1> ! wB97X-D3 SP def2-SVP
|  2> %pal
|  3> nprocs 24
|  4> end
|  5>
|  6> * xyz 0 1
|  7> S 	 -100.142 	 1.37599 	 -106.092
|  8> C 	 -100.813 	 2.94224 	 -106.302
|  9> C 	 -100.159 	 3.92918 	 -105.498
| 10> C 	 -99.2484 	 3.3655 	 -104.564
| 11> C 	 -99.1243 	 1.99732 	 -104.873
| 12> H 	 -98.7842 	 3.85084 	 -103.712
| 13> C 	 -100.429 	 5.40472 	 -105.537
| 14> H 	 -100.861 	 5.5383 	 -104.538
| 15> H 	 -101.186 	 5.71548 	 -106.32
| 16> C 	 -99.2171 	 6.36354 	 -105.712
| 17> H 	 -98.5957 	 6.30456 	 -104.854
| 18> H 	 -98.6825 	 5.89226 	 -106.573
| 19> C 	 -99.4741 	 7.80206 	 -105.945
| 20> H 	 -99.8825 	 8.27301 	 -105.026
| 21> H 	 -98.5384 	 8.26882 	 -106.313
| 22> H 	 -100.251 	 8.01919 	 -106.72
| 23> S 	 -99.3151 	 0.050771 	 -102.991
| 24> C 	 -97.7979 	 -0.396616 	 -102.094
| 25> C 	 -96.6981 	 0.436445 	 -102.343
| 26> C 	 -97.0714 	 1.27708 	 -103.447
| 27> C 	 -98.3735 	 1.1635 	 -103.91
| 28> H 	 -95.8056 	 0.271817 	 -101.797
| 29> C 	 -96.0146 	 2.07006 	 -104.175
| 30> H 	 -95.1786 	 2.35029 	 -103.501
| 31> H 	 -96.4625 	 3.01847 	 -104.544
| 32> C 	 -95.3606 	 1.45013 	 -105.48
| 33> H 	 -96.1711 	 1.01937 	 -105.987
| 34> H 	 -94.8753 	 0.589303 	 -105.069
| 35> C 	 -94.3418 	 2.26735 	 -106.219
| 36> H 	 -93.9373 	 1.69631 	 -107.021
| 37> H 	 -93.5508 	 2.44011 	 -105.447
| 38> H 	 -94.7194 	 3.14455 	 -106.674
| 39> H 	 -101.429 	 3.22213 	 -107.159
| 40> H 	 -97.7944 	 -1.17017 	 -101.308
| 41> *
| 42>
| 43>                          ****END OF INPUT****

CARTESIAN COORDINATES (ANGSTROEM)
---------------------------------
  S    -100.142000    1.375990  -106.092000
  C    -100.813000    2.942240  -106.302000
  C    -100.159000    3.929180  -105.498000
  C    -99.248400    3.365500  -104.564000
  C    -99.124300    1.997320  -104.873000
  H    -98.784200    3.850840  -103.712000
  C    -100.429000    5.404720  -105.537000
  H    -100.861000    5.538300  -104.538000
  H    -101.186000    5.715480  -106.320000
  C    -99.217100    6.363540  -105.712000
  H    -98.595700    6.304560  -104.854000
  H    -98.682500    5.892260  -106.573000
  C    -99.474100    7.802060  -105.945000
  H    -99.882500    8.273010  -105.026000
  H    -98.538400    8.268820  -106.313000
  H    -100.251000    8.019190  -106.720000
  S    -99.315100    0.050771  -102.991000
  C    -97.797900   -0.396616  -102.094000
  C    -96.698100    0.436445  -102.343000
  C    -97.071400    1.277080  -103.447000
  C    -98.373500    1.163500  -103.910000
  H    -95.805600    0.271817  -101.797000
  C    -96.014600    2.070060  -104.175000
  H    -95.178600    2.350290  -103.501000
  H    -96.462500    3.018470  -104.544000
  C    -95.360600    1.450130  -105.480000
  H    -96.171100    1.019370  -105.987000
  H    -94.875300    0.589303  -105.069000
  C    -94.341800    2.267350  -106.219000
  H    -93.937300    1.696310  -107.021000
  H    -93.550800    2.440110  -105.447000
  H    -94.719400    3.144550  -106.674000
  H    -101.429000    3.222130  -107.159000
  H    -97.794400   -1.170170  -101.308000

 Total Charge           Charge          ....    0
 Multiplicity           Mult            ....    1
 Number of Electrons    NEL             ....  134
 Basis Dimension        Dim             ....  322

ORBITAL ENERGIES
----------------

  NO   OCC          E(Eh)            E(eV)
   0   2.0000     -88.976754     -2421.1806
   1   2.0000     -88.965560     -2420.8760
   2   2.0000     -10.328751      -281.0596
   3   2.0000     -10.322547      -280.8908
   4   2.0000     -10.321746      -280.8690
   5   2.0000     -10.313563      -280.6463
   6   2.0000     -10.305834      -280.4360
   7   2.0000     -10.301530      -280.3189
   8   2.0000     -10.298157      -280.2271
   9   2.0000     -10.297043      -280.1968
  10   2.0000     -10.294942      -280.1396
  11   2.0000     -10.286388      -279.9069
  12   2.0000     -10.284736      -279.8619
  13   2.0000     -10.284390      -279.8525
  14   2.0000     -10.273226      -279.5487
  15   2.0000     -10.271781      -279.5094
  16   2.0000      -8.092097      -220.1972
  17   2.0000      -8.079837      -219.8635
  18   2.0000      -6.050317      -164.6375
  19   2.0000      -6.046524      -164.5343
  20   2.0000      -6.043141      -164.4422
  21   2.0000      -6.038262      -164.3095
  22   2.0000      -6.034530      -164.2079
  23   2.0000      -6.030595      -164.1008
  24   2.0000      -1.009869       -27.4799
  25   2.0000      -0.981268       -26.7016
  26   2.0000      -0.914499       -24.8848
  27   2.0000      -0.900500       -24.5039
  28   2.0000      -0.868285       -23.6272
  29   2.0000      -0.861789       -23.4505
  30   2.0000      -0.849300       -23.1106
  31   2.0000      -0.812432       -22.1074
  32   2.0000      -0.778899       -21.1949
  33   2.0000      -0.763128       -20.7658
  34   2.0000      -0.703149       -19.1337
  35   2.0000      -0.693807       -18.8794
  36   2.0000      -0.685052       -18.6412
  37   2.0000      -0.664638       -18.0857
  38   2.0000      -0.641802       -17.4643
  39   2.0000      -0.618079       -16.8188
  40   2.0000      -0.586949       -15.9717
  41   2.0000      -0.572421       -15.5764
  42   2.0000      -0.570233       -15.5168
  43   2.0000      -0.558859       -15.2073
  44   2.0000      -0.528174       -14.3723
  45   2.0000      -0.525059       -14.2876
  46   2.0000      -0.515696       -14.0328
  47   2.0000      -0.510095       -13.8804
  48   2.0000      -0.504002       -13.7146
  49   2.0000      -0.491367       -13.3708
  50   2.0000      -0.488525       -13.2934
  51   2.0000      -0.480056       -13.0630
  52   2.0000      -0.475790       -12.9469
  53   2.0000      -0.469425       -12.7737
  54   2.0000      -0.458866       -12.4864
  55   2.0000      -0.448250       -12.1975
  56   2.0000      -0.446697       -12.1553
  57   2.0000      -0.438695       -11.9375
  58   2.0000      -0.427768       -11.6401
  59   2.0000      -0.420009       -11.4290
  60   2.0000      -0.417873       -11.3709
  61   2.0000      -0.415315       -11.3013
  62   2.0000      -0.408265       -11.1094
  63   2.0000      -0.346456        -9.4276
  64   2.0000      -0.330999        -9.0070
  65   2.0000      -0.322118        -8.7653
  66   2.0000      -0.288833        -7.8595
  67   0.0000       0.031553         0.8586
  68   0.0000       0.065081         1.7709
  69   0.0000       0.103812         2.8249
  70   0.0000       0.116413         3.1678
  71   0.0000       0.124415         3.3855

MULLIKEN ATOMIC CHARGES
-----------------------
   0 S :    0.146344
   1 C :   -0.125223
   2 C :   -0.090828
   3 C :    0.025208
   4 C :   -0.166070
   5 H :    0.038595
   6 C :    0.036643
   7 H :    0.036522
   8 H :    0.024807
   9 C :   -0.080102
  10 H :    0.021048
  11 H :    0.035830
  12 C :   -0.052666
  13 H :    0.036460
  14 H :    0.047472
  15 H :    0.027872
  16 S :    0.103236
  17 C :   -0.115527
  18 C :   -0.007793
  19 C :   -0.046396
  20 C :   -0.134545
  21 H :    0.017959
  22 C :    0.017707
  23 H :    0.014157
  24 H :    0.014931
  25 C :   -0.036416
  26 H :    0.004558
  27 H :    0.002978
  28 C :    0.000342
  29 H :    0.028831
  30 H :    0.034076
  31 H :    0.028198
  32 H :    0.054136
  33 H :    0.057658
Sum of atomic charges:    0.0000000

LOEWDIN ATOMIC CHARGES
----------------------
   0 S :    0.453322
   1 C :   -0.229401
   2 C :   -0.054417
   3 C :   -0.051508
   4 C :   -0.212126
   5 H :    0.039107
   6 C :   -0.041148
   7 H :    0.034573
   8 H :    0.032225
   9 C :   -0.048416
  10 H :    0.018458
  11 H :    0.029645
  12 C :   -0.070250
  13 H :    0.029193
  14 H :    0.035664
  15 H :    0.025513
  16 S :    0.389135
  17 C :   -0.163826
  18 C :   -0.057862
  19 C :   -0.066154
  20 C :   -0.206526
  21 H :    0.033404
  22 C :   -0.039574
  23 H :    0.023701
  24 H :    0.024175
  25 C :   -0.037548
  26 H :    0.012905
  27 H :    0.018415
  28 C :   -0.056065
  29 H :    0.027589
  30 H :    0.035092
  31 H :    0.019793
  32 H :    0.027671
  33 H :    0.025241

  Mayer bond orders larger than 0.100000
B(  0-S ,  1-C ) :   1.1439 B(  0-S ,  4-C ) :   1.1977 B(  1-C ,  2-C ) :   1.5722
B(  1-C , 32-H ) :   0.9627 B(  2-C ,  3-C ) :   1.2618 B(  2-C ,  6-C ) :   1.0344
B(  3-C ,  4-C ) :   1.5238 B(  3-C ,  5-H ) :   0.9894 B(  4-C , 20-C ) :   1.0013
B(  6-C ,  7-H ) :   0.9305 B(  6-C ,  8-H ) :   0.9459 B(  6-C ,  9-C ) :   1.0558
B(  9-C , 10-H ) :   0.9471 B(  9-C , 11-H ) :   0.9584 B(  9-C , 12-C ) :   1.0998
B( 12-C , 13-H ) :   0.9714 B( 12-C , 14-H ) :   0.9703 B( 12-C , 15-H ) :   0.9716
B( 16-S , 17-C ) :   1.1448 B( 16-S , 20-C ) :   1.1395 B( 17-C , 18-C ) :   1.6297
B( 17-C , 33-H ) :   0.9625 B( 18-C , 19-C ) :   1.2041 B( 18-C , 21-H ) :   1.0025
B( 19-C , 20-C ) :   1.6215 B( 19-C , 22-C ) :   1.0660 B( 22-C , 23-H ) :   0.9379
B( 22-C , 24-H ) :   0.9278 B( 22-C , 25-C ) :   1.0527 B( 25-C , 26-H ) :   0.9537
B( 25-C , 27-H ) :   0.9516 B( 25-C , 28-C ) :   1.0802 B( 28-C , 29-H ) :   0.9691
B( 28-C , 30-H ) :   0.9719 B( 28-C , 31-H ) :   0.9763

Dispersion correction           -0.014095931
FINAL SINGLE POINT ENERGY     -1339.858945323842

DIPOLE MOMENT
-------------
                                X             Y             Z
Electronic contribution:    -15.30141     -23.64610       7.38948
Nuclear contribution   :     15.61176      24.11479      -7.38209
                        -----------------------------------------
Total Dipole Moment    :      0.31035       0.46869       0.00739
                        -----------------------------------------
Magnitude (a.u.)       :      0.56218
Magnitude (Debye)      :      1.42894

Rotational constants in cm-1:     0.016785     0.008828     0.007103
Rotational constants in MHz :   503.205747   264.664003   212.945862

                             ****ORCA TERMINATED NORMALLY****
TOTAL RUN TIME: 0 days 0 hours 0 minutes 20 seconds 337 msec
