                         Program Version 4.2.1 -  RELEASE  -
|  1> ! wB97X-D3 SP def2-SVP
|  2> %pal
|  3> nprocs 24
|  4> end
|  5>
|  6> * xyz 0 1
|  7> S 	 -101.226 	 45.4387 	 -87.0689
|  8> C 	 -101.076 	 44.0597 	 -88.221
|  9> C 	 -102.261 	 43.4601 	 -88.4718
| 10> C 	 -103.339 	 43.9168 	 -87.673
| 11> C 	 -102.919 	 44.8922 	 -86.7386
| 12> H 	 -104.408 	 43.7025 	 -87.5495
| 13> C 	 -102.41 	 42.383 	 -89.5138
| 14> H 	 -102.09 	 42.9436 	 -90.4524
| 15> H 	 -103.535 	 42.2347 	 -89.5616
| 16> C 	 -101.748 	 41.0661 	 -89.1018
| 17> H 	 -101.692 	 40.4185 	 -89.9748
| 18> H 	 -100.637 	 41.2215 	 -88.928
| 19> C 	 -102.431 	 40.4479 	 -87.8553
| 20> H 	 -102.076 	 39.4141 	 -87.5901
| 21> H 	 -101.982 	 41.0498 	 -87.1056
| 22> H 	 -103.509 	 40.4358 	 -87.8926
| 23> S 	 -104.539 	 47.029 	 -86.6046
| 24> C 	 -105.515 	 47.2093 	 -85.1566
| 25> C 	 -105.275 	 46.2307 	 -84.2121
| 26> C 	 -104.282 	 45.3169 	 -84.6945
| 27> C 	 -103.796 	 45.6399 	 -85.9173
| 28> H 	 -105.861 	 46.2061 	 -83.31
| 29> C 	 -103.849 	 44.1492 	 -83.8543
| 30> H 	 -102.805 	 44.3255 	 -83.6921
| 31> H 	 -103.982 	 43.2432 	 -84.4643
| 32> C 	 -104.711 	 43.7939 	 -82.6328
| 33> H 	 -105.767 	 43.7551 	 -82.9111
| 34> H 	 -104.644 	 44.4741 	 -81.7811
| 35> C 	 -104.318 	 42.4128 	 -82.0916
| 36> H 	 -104.907 	 42.1909 	 -81.1867
| 37> H 	 -103.348 	 42.3517 	 -81.7032
| 38> H 	 -104.5 	 41.6565 	 -82.8544
| 39> H 	 -100.054 	 43.8876 	 -88.7039
| 40> H 	 -106.255 	 48.0162 	 -84.9972
| 41> *
| 42>
| 43>                          ****END OF INPUT****

CARTESIAN COORDINATES (ANGSTROEM)
---------------------------------
  S    -101.226000   45.438700  -87.068900
  C    -101.076000   44.059700  -88.221000
  C    -102.261000   43.460100  -88.471800
  C    -103.339000   43.916800  -87.673000
  C    -102.919000   44.892200  -86.738600
  H    -104.408000   43.702500  -87.549500
  C    -102.410000   42.383000  -89.513800
  H    -102.090000   42.943600  -90.452400
  H    -103.535000   42.234700  -89.561600
  C    -101.748000   41.066100  -89.101800
  H    -101.692000   40.418500  -89.974800
  H    -100.637000   41.221500  -88.928000
  C    -102.431000   40.447900  -87.855300
  H    -102.076000   39.414100  -87.590100
  H    -101.982000   41.049800  -87.105600
  H    -103.509000   40.435800  -87.892600
  S    -104.539000   47.029000  -86.604600
  C    -105.515000   47.209300  -85.156600
  C    -105.275000   46.230700  -84.212100
  C    -104.282000   45.316900  -84.694500
  C    -103.796000   45.639900  -85.917300
  H    -105.861000   46.206100  -83.310000
  C    -103.849000   44.149200  -83.854300
  H    -102.805000   44.325500  -83.692100
  H    -103.982000   43.243200  -84.464300
  C    -104.711000   43.793900  -82.632800
  H    -105.767000   43.755100  -82.911100
  H    -104.644000   44.474100  -81.781100
  C    -104.318000   42.412800  -82.091600
  H    -104.907000   42.190900  -81.186700
  H    -103.348000   42.351700  -81.703200
  H    -104.500000   41.656500  -82.854400
  H    -100.054000   43.887600  -88.703900
  H    -106.255000   48.016200  -84.997200

 Total Charge           Charge          ....    0
 Multiplicity           Mult            ....    1
 Number of Electrons    NEL             ....  134
 Basis Dimension        Dim             ....  322

ORBITAL ENERGIES
----------------

  NO   OCC          E(Eh)            E(eV)
   0   2.0000     -88.962963     -2420.8053
   1   2.0000     -88.962552     -2420.7941
   2   2.0000     -10.326483      -280.9979
   3   2.0000     -10.318530      -280.7815
   4   2.0000     -10.316532      -280.7271
   5   2.0000     -10.309284      -280.5299
   6   2.0000     -10.299078      -280.2522
   7   2.0000     -10.298893      -280.2471
   8   2.0000     -10.298309      -280.2312
   9   2.0000     -10.295630      -280.1583
  10   2.0000     -10.293918      -280.1118
  11   2.0000     -10.289945      -280.0036
  12   2.0000     -10.287926      -279.9487
  13   2.0000     -10.286116      -279.8995
  14   2.0000     -10.279717      -279.7253
  15   2.0000     -10.273534      -279.5571
  16   2.0000      -8.078372      -219.8237
  17   2.0000      -8.075869      -219.7556
  18   2.0000      -6.036822      -164.2703
  19   2.0000      -6.034262      -164.2006
  20   2.0000      -6.032829      -164.1616
  21   2.0000      -6.030809      -164.1066
  22   2.0000      -6.029093      -164.0600
  23   2.0000      -6.026610      -163.9924
  24   2.0000      -1.007818       -27.4241
  25   2.0000      -0.978899       -26.6372
  26   2.0000      -0.911828       -24.8121
  27   2.0000      -0.909821       -24.7575
  28   2.0000      -0.869729       -23.6665
  29   2.0000      -0.852450       -23.1963
  30   2.0000      -0.842072       -22.9139
  31   2.0000      -0.811586       -22.0844
  32   2.0000      -0.780825       -21.2473
  33   2.0000      -0.766649       -20.8616
  34   2.0000      -0.706599       -19.2275
  35   2.0000      -0.704122       -19.1601
  36   2.0000      -0.697084       -18.9686
  37   2.0000      -0.653581       -17.7848
  38   2.0000      -0.639500       -17.4017
  39   2.0000      -0.602402       -16.3922
  40   2.0000      -0.591660       -16.0999
  41   2.0000      -0.577023       -15.7016
  42   2.0000      -0.570614       -15.5272
  43   2.0000      -0.554989       -15.1020
  44   2.0000      -0.535630       -14.5752
  45   2.0000      -0.521925       -14.2023
  46   2.0000      -0.521202       -14.1826
  47   2.0000      -0.510080       -13.8800
  48   2.0000      -0.508419       -13.8348
  49   2.0000      -0.490359       -13.3433
  50   2.0000      -0.478519       -13.0212
  51   2.0000      -0.476364       -12.9625
  52   2.0000      -0.466815       -12.7027
  53   2.0000      -0.464660       -12.6440
  54   2.0000      -0.452698       -12.3185
  55   2.0000      -0.450790       -12.2666
  56   2.0000      -0.440197       -11.9784
  57   2.0000      -0.437479       -11.9044
  58   2.0000      -0.431479       -11.7411
  59   2.0000      -0.424817       -11.5598
  60   2.0000      -0.423733       -11.5304
  61   2.0000      -0.419531       -11.4160
  62   2.0000      -0.406654       -11.0656
  63   2.0000      -0.337907        -9.1949
  64   2.0000      -0.327783        -8.9194
  65   2.0000      -0.316532        -8.6133
  66   2.0000      -0.305667        -8.3176
  67   0.0000       0.039081         1.0634
  68   0.0000       0.053703         1.4613
  69   0.0000       0.105272         2.8646
  70   0.0000       0.124891         3.3984
  71   0.0000       0.136117         3.7039

MULLIKEN ATOMIC CHARGES
-----------------------
   0 S :    0.084401
   1 C :   -0.165050
   2 C :   -0.064409
   3 C :    0.039049
   4 C :   -0.209922
   5 H :    0.028559
   6 C :    0.034576
   7 H :    0.058082
   8 H :    0.030120
   9 C :   -0.075482
  10 H :    0.027112
  11 H :    0.031707
  12 C :   -0.044602
  13 H :    0.037757
  14 H :    0.043138
  15 H :    0.039300
  16 S :    0.127985
  17 C :   -0.096927
  18 C :   -0.043434
  19 C :   -0.045478
  20 C :   -0.184727
  21 H :    0.019083
  22 C :    0.116391
  23 H :    0.039856
  24 H :    0.021500
  25 C :   -0.105447
  26 H :    0.033918
  27 H :    0.030132
  28 C :   -0.022576
  29 H :    0.024628
  30 H :    0.020728
  31 H :    0.033559
  32 H :    0.077473
  33 H :    0.058998
Sum of atomic charges:   -0.0000000

LOEWDIN ATOMIC CHARGES
----------------------
   0 S :    0.352251
   1 C :   -0.187325
   2 C :   -0.077316
   3 C :   -0.057878
   4 C :   -0.175604
   5 H :    0.041531
   6 C :   -0.038726
   7 H :    0.044423
   8 H :    0.033527
   9 C :   -0.044418
  10 H :    0.017911
  11 H :    0.028487
  12 C :   -0.062636
  13 H :    0.033321
  14 H :    0.028965
  15 H :    0.023491
  16 S :    0.418605
  17 C :   -0.182953
  18 C :   -0.074592
  19 C :   -0.051829
  20 C :   -0.233068
  21 H :    0.032478
  22 C :   -0.031099
  23 H :    0.035479
  24 H :    0.037129
  25 C :   -0.042366
  26 H :    0.026485
  27 H :    0.021063
  28 C :   -0.059181
  29 H :    0.028761
  30 H :    0.017776
  31 H :    0.023976
  32 H :    0.041320
  33 H :    0.032012

  Mayer bond orders larger than 0.100000
B(  0-S ,  1-C ) :   1.1221 B(  0-S ,  4-C ) :   1.1347 B(  1-C ,  2-C ) :   1.6314
B(  1-C ,  4-C ) :   0.1041 B(  1-C , 32-H ) :   0.9616 B(  2-C ,  3-C ) :   1.1992
B(  2-C ,  6-C ) :   0.9895 B(  3-C ,  4-C ) :   1.6004 B(  3-C ,  5-H ) :   0.9915
B(  4-C , 20-C ) :   1.0477 B(  6-C ,  7-H ) :   0.9424 B(  6-C ,  8-H ) :   0.9482
B(  6-C ,  9-C ) :   1.0630 B(  9-C , 10-H ) :   0.9597 B(  9-C , 11-H ) :   0.9602
B(  9-C , 12-C ) :   1.0475 B( 12-C , 13-H ) :   0.9734 B( 12-C , 14-H ) :   0.9756
B( 12-C , 15-H ) :   0.9793 B( 16-S , 17-C ) :   1.1591 B( 16-S , 20-C ) :   1.1362
B( 17-C , 18-C ) :   1.6162 B( 17-C , 33-H ) :   0.9579 B( 18-C , 19-C ) :   1.2316
B( 18-C , 21-H ) :   0.9916 B( 19-C , 20-C ) :   1.6338 B( 19-C , 22-C ) :   1.0286
B( 22-C , 23-H ) :   0.9243 B( 22-C , 24-H ) :   0.9247 B( 22-C , 25-C ) :   1.0784
B( 25-C , 26-H ) :   0.9519 B( 25-C , 27-H ) :   0.9464 B( 25-C , 28-C ) :   1.0947
B( 28-C , 29-H ) :   0.9707 B( 28-C , 30-H ) :   0.9734 B( 28-C , 31-H ) :   0.9744

Dispersion correction           -0.014426074
FINAL SINGLE POINT ENERGY     -1339.864283639888

DIPOLE MOMENT
-------------
                                X             Y             Z
Electronic contribution:      2.49478      26.22392      -8.13872
Nuclear contribution   :     -2.73519     -26.75087       8.28557
                        -----------------------------------------
Total Dipole Moment    :     -0.24041      -0.52695       0.14685
                        -----------------------------------------
Magnitude (a.u.)       :      0.59752
Magnitude (Debye)      :      1.51879

Rotational constants in cm-1:     0.017132     0.009215     0.006946
Rotational constants in MHz :   513.600047   276.263055   208.243950

                             ****ORCA TERMINATED NORMALLY****
TOTAL RUN TIME: 0 days 0 hours 0 minutes 21 seconds 829 msec
