                         Program Version 4.2.1 -  RELEASE  -
|  1> ! wB97X-D3 SP def2-SVP
|  2> %pal
|  3> nprocs 24
|  4> end
|  5>
|  6> * xyz 0 1
|  7> S 	 -41.8745 	 -2.304 	 -19.0693
|  8> C 	 -43.1434 	 -3.46278 	 -18.734
|  9> C 	 -42.563 	 -4.69053 	 -18.3465
| 10> C 	 -41.1362 	 -4.62161 	 -18.2427
| 11> C 	 -40.7097 	 -3.34486 	 -18.3808
| 12> H 	 -40.4699 	 -5.45113 	 -18.1115
| 13> C 	 -43.3811 	 -5.98069 	 -18.2028
| 14> H 	 -44.35 	 -5.65394 	 -17.8647
| 15> H 	 -42.877 	 -6.61739 	 -17.4359
| 16> C 	 -43.5882 	 -6.80186 	 -19.5455
| 17> H 	 -44.381 	 -7.50074 	 -19.4573
| 18> H 	 -43.9509 	 -6.05769 	 -20.2531
| 19> C 	 -42.4819 	 -7.68579 	 -20.1341
| 20> H 	 -41.5589 	 -7.14836 	 -20.39
| 21> H 	 -42.3256 	 -8.49794 	 -19.4385
| 22> H 	 -42.863 	 -8.19089 	 -21.0524
| 23> S 	 -38.5573 	 -2.41328 	 -19.8044
| 24> C 	 -37.0427 	 -2.02635 	 -19.0063
| 25> C 	 -37.1565 	 -2.32153 	 -17.6784
| 26> C 	 -38.4268 	 -2.79425 	 -17.2595
| 27> C 	 -39.3693 	 -2.8235 	 -18.2809
| 28> H 	 -36.2953 	 -2.27765 	 -16.9708
| 29> C 	 -38.7354 	 -3.27145 	 -15.8323
| 30> H 	 -37.8069 	 -3.52073 	 -15.2827
| 31> H 	 -39.2005 	 -4.23498 	 -15.949
| 32> C 	 -39.5519 	 -2.31942 	 -14.9867
| 33> H 	 -40.4754 	 -2.09673 	 -15.515
| 34> H 	 -39.0233 	 -1.36489 	 -14.9293
| 35> C 	 -39.6703 	 -2.84865 	 -13.5544
| 36> H 	 -40.2065 	 -3.84203 	 -13.5444
| 37> H 	 -40.2245 	 -2.22567 	 -12.8047
| 38> H 	 -38.6673 	 -2.9928 	 -13.0868
| 39> H 	 -44.208 	 -3.3908 	 -18.9618
| 40> H 	 -36.208 	 -1.42465 	 -19.3967
| 41> *
| 42>
| 43>                          ****END OF INPUT****

CARTESIAN COORDINATES (ANGSTROEM)
---------------------------------
  S    -41.874500   -2.304000  -19.069300
  C    -43.143400   -3.462780  -18.734000
  C    -42.563000   -4.690530  -18.346500
  C    -41.136200   -4.621610  -18.242700
  C    -40.709700   -3.344860  -18.380800
  H    -40.469900   -5.451130  -18.111500
  C    -43.381100   -5.980690  -18.202800
  H    -44.350000   -5.653940  -17.864700
  H    -42.877000   -6.617390  -17.435900
  C    -43.588200   -6.801860  -19.545500
  H    -44.381000   -7.500740  -19.457300
  H    -43.950900   -6.057690  -20.253100
  C    -42.481900   -7.685790  -20.134100
  H    -41.558900   -7.148360  -20.390000
  H    -42.325600   -8.497940  -19.438500
  H    -42.863000   -8.190890  -21.052400
  S    -38.557300   -2.413280  -19.804400
  C    -37.042700   -2.026350  -19.006300
  C    -37.156500   -2.321530  -17.678400
  C    -38.426800   -2.794250  -17.259500
  C    -39.369300   -2.823500  -18.280900
  H    -36.295300   -2.277650  -16.970800
  C    -38.735400   -3.271450  -15.832300
  H    -37.806900   -3.520730  -15.282700
  H    -39.200500   -4.234980  -15.949000
  C    -39.551900   -2.319420  -14.986700
  H    -40.475400   -2.096730  -15.515000
  H    -39.023300   -1.364890  -14.929300
  C    -39.670300   -2.848650  -13.554400
  H    -40.206500   -3.842030  -13.544400
  H    -40.224500   -2.225670  -12.804700
  H    -38.667300   -2.992800  -13.086800
  H    -44.208000   -3.390800  -18.961800
  H    -36.208000   -1.424650  -19.396700

 Total Charge           Charge          ....    0
 Multiplicity           Mult            ....    1
 Number of Electrons    NEL             ....  134
 Basis Dimension        Dim             ....  322

ORBITAL ENERGIES
----------------

  NO   OCC          E(Eh)            E(eV)
   0   2.0000     -88.968478     -2420.9554
   1   2.0000     -88.962652     -2420.7968
   2   2.0000     -10.324614      -280.9470
   3   2.0000     -10.323755      -280.9237
   4   2.0000     -10.316985      -280.7394
   5   2.0000     -10.316706      -280.7318
   6   2.0000     -10.305333      -280.4224
   7   2.0000     -10.301934      -280.3299
   8   2.0000     -10.299496      -280.2635
   9   2.0000     -10.293825      -280.1092
  10   2.0000     -10.293291      -280.0947
  11   2.0000     -10.288289      -279.9586
  12   2.0000     -10.286226      -279.9024
  13   2.0000     -10.285175      -279.8738
  14   2.0000     -10.282012      -279.7878
  15   2.0000     -10.281385      -279.7707
  16   2.0000      -8.083897      -219.9740
  17   2.0000      -8.076986      -219.7860
  18   2.0000      -6.042381      -164.4215
  19   2.0000      -6.038343      -164.3117
  20   2.0000      -6.035628      -164.2378
  21   2.0000      -6.034582      -164.2093
  22   2.0000      -6.031456      -164.1243
  23   2.0000      -6.027723      -164.0227
  24   2.0000      -1.013285       -27.5729
  25   2.0000      -0.984969       -26.8024
  26   2.0000      -0.907829       -24.7033
  27   2.0000      -0.905849       -24.6494
  28   2.0000      -0.869607       -23.6632
  29   2.0000      -0.852291       -23.1920
  30   2.0000      -0.842889       -22.9362
  31   2.0000      -0.817651       -22.2494
  32   2.0000      -0.781143       -21.2560
  33   2.0000      -0.766612       -20.8606
  34   2.0000      -0.705751       -19.2045
  35   2.0000      -0.699763       -19.0415
  36   2.0000      -0.692650       -18.8480
  37   2.0000      -0.658591       -17.9212
  38   2.0000      -0.642450       -17.4819
  39   2.0000      -0.618110       -16.8196
  40   2.0000      -0.592934       -16.1346
  41   2.0000      -0.569036       -15.4842
  42   2.0000      -0.561779       -15.2868
  43   2.0000      -0.549114       -14.9422
  44   2.0000      -0.541172       -14.7260
  45   2.0000      -0.520197       -14.1553
  46   2.0000      -0.516705       -14.0603
  47   2.0000      -0.509127       -13.8541
  48   2.0000      -0.506013       -13.7693
  49   2.0000      -0.495933       -13.4950
  50   2.0000      -0.493021       -13.4158
  51   2.0000      -0.478531       -13.0215
  52   2.0000      -0.473316       -12.8796
  53   2.0000      -0.463042       -12.6000
  54   2.0000      -0.457280       -12.4432
  55   2.0000      -0.451839       -12.2952
  56   2.0000      -0.445851       -12.1322
  57   2.0000      -0.435054       -11.8384
  58   2.0000      -0.430425       -11.7125
  59   2.0000      -0.423426       -11.5220
  60   2.0000      -0.418215       -11.3802
  61   2.0000      -0.416609       -11.3365
  62   2.0000      -0.411959       -11.2100
  63   2.0000      -0.340205        -9.2574
  64   2.0000      -0.329002        -8.9526
  65   2.0000      -0.328090        -8.9278
  66   2.0000      -0.300063        -8.1651
  67   0.0000       0.029929         0.8144
  68   0.0000       0.059607         1.6220
  69   0.0000       0.109372         2.9762
  70   0.0000       0.119726         3.2579
  71   0.0000       0.127586         3.4718

MULLIKEN ATOMIC CHARGES
-----------------------
   0 S :    0.127368
   1 C :   -0.110594
   2 C :   -0.126131
   3 C :    0.064583
   4 C :   -0.177141
   5 H :    0.016959
   6 C :    0.068628
   7 H :    0.021656
   8 H :    0.030475
   9 C :   -0.062486
  10 H :    0.019345
  11 H :    0.019116
  12 C :   -0.056881
  13 H :    0.045918
  14 H :    0.027437
  15 H :    0.037628
  16 S :    0.094667
  17 C :   -0.092824
  18 C :   -0.053378
  19 C :   -0.038899
  20 C :   -0.158061
  21 H :    0.029934
  22 C :    0.069456
  23 H :    0.007975
  24 H :    0.013945
  25 C :   -0.032598
  26 H :    0.037566
  27 H :    0.024660
  28 C :   -0.083666
  29 H :    0.035640
  30 H :    0.042319
  31 H :    0.033727
  32 H :    0.051496
  33 H :    0.072161
Sum of atomic charges:    0.0000000

LOEWDIN ATOMIC CHARGES
----------------------
   0 S :    0.434498
   1 C :   -0.207346
   2 C :   -0.058434
   3 C :   -0.056375
   4 C :   -0.210024
   5 H :    0.033231
   6 C :   -0.029357
   7 H :    0.030337
   8 H :    0.030557
   9 C :   -0.040721
  10 H :    0.019979
  11 H :    0.021225
  12 C :   -0.067027
  13 H :    0.025083
  14 H :    0.022773
  15 H :    0.034378
  16 S :    0.391680
  17 C :   -0.193639
  18 C :   -0.078933
  19 C :   -0.056938
  20 C :   -0.197793
  21 H :    0.036963
  22 C :   -0.030847
  23 H :    0.028240
  24 H :    0.025835
  25 C :   -0.040675
  26 H :    0.026745
  27 H :    0.026353
  28 C :   -0.076845
  29 H :    0.028793
  30 H :    0.029187
  31 H :    0.027591
  32 H :    0.030656
  33 H :    0.040849

  Mayer bond orders larger than 0.100000
B(  0-S ,  1-C ) :   1.1379 B(  0-S ,  4-C ) :   1.1724 B(  1-C ,  2-C ) :   1.5960
B(  1-C ,  4-C ) :   0.1023 B(  1-C , 32-H ) :   0.9678 B(  2-C ,  3-C ) :   1.2377
B(  2-C ,  6-C ) :   1.0297 B(  3-C ,  4-C ) :   1.5701 B(  3-C ,  5-H ) :   0.9997
B(  4-C , 20-C ) :   1.0041 B(  6-C ,  7-H ) :   0.9349 B(  6-C ,  8-H ) :   0.9463
B(  6-C ,  9-C ) :   1.0584 B(  9-C , 10-H ) :   0.9581 B(  9-C , 11-H ) :   0.9550
B(  9-C , 12-C ) :   1.0827 B( 12-C , 13-H ) :   0.9768 B( 12-C , 14-H ) :   0.9747
B( 12-C , 15-H ) :   0.9705 B( 16-S , 17-C ) :   1.1483 B( 16-S , 20-C ) :   1.1444
B( 17-C , 18-C ) :   1.6022 B( 17-C , 20-C ) :   0.1080 B( 17-C , 33-H ) :   0.9608
B( 18-C , 19-C ) :   1.2743 B( 18-C , 21-H ) :   0.9792 B( 19-C , 20-C ) :   1.5982
B( 19-C , 22-C ) :   1.0314 B( 22-C , 23-H ) :   0.9353 B( 22-C , 24-H ) :   0.9281
B( 22-C , 25-C ) :   1.0672 B( 25-C , 26-H ) :   0.9556 B( 25-C , 27-H ) :   0.9511
B( 25-C , 28-C ) :   1.0755 B( 28-C , 29-H ) :   0.9746 B( 28-C , 30-H ) :   0.9751
B( 28-C , 31-H ) :   0.9722

Dispersion correction           -0.014293136
FINAL SINGLE POINT ENERGY     -1339.881595021489

DIPOLE MOMENT
-------------
                                X             Y             Z
Electronic contribution:      6.49589      16.62768     -14.71028
Nuclear contribution   :     -6.57856     -17.11055      14.99437
                        -----------------------------------------
Total Dipole Moment    :     -0.08267      -0.48287       0.28408
                        -----------------------------------------
Magnitude (a.u.)       :      0.56630
Magnitude (Debye)      :      1.43943

Rotational constants in cm-1:     0.017771     0.008657     0.007233
Rotational constants in MHz :   532.760789   259.528128   216.840360

                             ****ORCA TERMINATED NORMALLY****
TOTAL RUN TIME: 0 days 0 hours 0 minutes 20 seconds 341 msec
