                         Program Version 4.2.1 -  RELEASE  -
|  1> ! wB97X-D3 SP def2-SVP
|  2> %pal
|  3> nprocs 24
|  4> end
|  5>
|  6> * xyz 0 1
|  7> S 	 -99.3884 	 2.57221 	 -105.795
|  8> C 	 -99.4024 	 3.9762 	 -106.833
|  9> C 	 -98.1082 	 4.22433 	 -107.357
| 10> C 	 -97.0916 	 3.55623 	 -106.617
| 11> C 	 -97.6575 	 2.68105 	 -105.692
| 12> H 	 -96.0268 	 3.63809 	 -106.605
| 13> C 	 -97.7131 	 5.22317 	 -108.415
| 14> H 	 -98.5324 	 5.81471 	 -108.821
| 15> H 	 -97.3311 	 4.71498 	 -109.306
| 16> C 	 -96.6193 	 6.21106 	 -107.871
| 17> H 	 -96.8257 	 6.55873 	 -106.832
| 18> H 	 -95.6209 	 5.67811 	 -107.854
| 19> C 	 -96.4358 	 7.43344 	 -108.796
| 20> H 	 -96.0457 	 7.21779 	 -109.792
| 21> H 	 -97.2815 	 8.03046 	 -108.955
| 22> H 	 -95.6615 	 8.188 	 -108.47
| 23> S 	 -97.5375 	 0.114521 	 -104.757
| 24> C 	 -96.3252 	 -0.318641 	 -103.62
| 25> C 	 -95.5798 	 0.833369 	 -103.249
| 26> C 	 -95.9085 	 2.00813 	 -103.977
| 27> C 	 -96.9607 	 1.78586 	 -104.839
| 28> H 	 -94.8853 	 0.719349 	 -102.386
| 29> C 	 -95.2882 	 3.41653 	 -103.681
| 30> H 	 -95.3121 	 4.01625 	 -104.566
| 31> H 	 -94.1924 	 3.36614 	 -103.557
| 32> C 	 -95.9845 	 4.26971 	 -102.645
| 33> H 	 -95.9608 	 3.72391 	 -101.728
| 34> H 	 -97.0243 	 4.44069 	 -102.986
| 35> C 	 -95.3566 	 5.61086 	 -102.226
| 36> H 	 -94.3376 	 5.46414 	 -101.983
| 37> H 	 -95.9392 	 6.03072 	 -101.393
| 38> H 	 -95.3908 	 6.43107 	 -102.997
| 39> H 	 -100.292 	 4.38171 	 -107.237
| 40> H 	 -96.2442 	 -1.22457 	 -103.037
| 41> *
| 42>
| 43>                          ****END OF INPUT****

CARTESIAN COORDINATES (ANGSTROEM)
---------------------------------
  S    -99.388400    2.572210  -105.795000
  C    -99.402400    3.976200  -106.833000
  C    -98.108200    4.224330  -107.357000
  C    -97.091600    3.556230  -106.617000
  C    -97.657500    2.681050  -105.692000
  H    -96.026800    3.638090  -106.605000
  C    -97.713100    5.223170  -108.415000
  H    -98.532400    5.814710  -108.821000
  H    -97.331100    4.714980  -109.306000
  C    -96.619300    6.211060  -107.871000
  H    -96.825700    6.558730  -106.832000
  H    -95.620900    5.678110  -107.854000
  C    -96.435800    7.433440  -108.796000
  H    -96.045700    7.217790  -109.792000
  H    -97.281500    8.030460  -108.955000
  H    -95.661500    8.188000  -108.470000
  S    -97.537500    0.114521  -104.757000
  C    -96.325200   -0.318641  -103.620000
  C    -95.579800    0.833369  -103.249000
  C    -95.908500    2.008130  -103.977000
  C    -96.960700    1.785860  -104.839000
  H    -94.885300    0.719349  -102.386000
  C    -95.288200    3.416530  -103.681000
  H    -95.312100    4.016250  -104.566000
  H    -94.192400    3.366140  -103.557000
  C    -95.984500    4.269710  -102.645000
  H    -95.960800    3.723910  -101.728000
  H    -97.024300    4.440690  -102.986000
  C    -95.356600    5.610860  -102.226000
  H    -94.337600    5.464140  -101.983000
  H    -95.939200    6.030720  -101.393000
  H    -95.390800    6.431070  -102.997000
  H    -100.292000    4.381710  -107.237000
  H    -96.244200   -1.224570  -103.037000

 Total Charge           Charge          ....    0
 Multiplicity           Mult            ....    1
 Number of Electrons    NEL             ....  134
 Basis Dimension        Dim             ....  322

ORBITAL ENERGIES
----------------

  NO   OCC          E(Eh)            E(eV)
   0   2.0000     -88.968345     -2420.9518
   1   2.0000     -88.967751     -2420.9356
   2   2.0000     -10.325319      -280.9662
   3   2.0000     -10.324149      -280.9344
   4   2.0000     -10.316430      -280.7243
   5   2.0000     -10.314070      -280.6601
   6   2.0000     -10.308288      -280.5028
   7   2.0000     -10.306083      -280.4428
   8   2.0000     -10.299669      -280.2682
   9   2.0000     -10.298909      -280.2476
  10   2.0000     -10.295920      -280.1662
  11   2.0000     -10.293862      -280.1102
  12   2.0000     -10.292171      -280.0642
  13   2.0000     -10.281876      -279.7841
  14   2.0000     -10.279359      -279.7156
  15   2.0000     -10.278653      -279.6964
  16   2.0000      -8.083382      -219.9600
  17   2.0000      -8.082615      -219.9391
  18   2.0000      -6.041750      -164.4044
  19   2.0000      -6.041115      -164.3871
  20   2.0000      -6.038027      -164.3031
  21   2.0000      -6.037061      -164.2768
  22   2.0000      -6.034096      -164.1961
  23   2.0000      -6.033417      -164.1776
  24   2.0000      -1.010740       -27.5036
  25   2.0000      -0.982989       -26.7485
  26   2.0000      -0.909161       -24.7395
  27   2.0000      -0.907234       -24.6871
  28   2.0000      -0.869446       -23.6588
  29   2.0000      -0.854706       -23.2577
  30   2.0000      -0.845707       -23.0129
  31   2.0000      -0.809749       -22.0344
  32   2.0000      -0.786040       -21.3892
  33   2.0000      -0.772187       -21.0123
  34   2.0000      -0.710372       -19.3302
  35   2.0000      -0.697515       -18.9803
  36   2.0000      -0.692475       -18.8432
  37   2.0000      -0.660792       -17.9811
  38   2.0000      -0.645468       -17.5641
  39   2.0000      -0.622429       -16.9372
  40   2.0000      -0.595173       -16.1955
  41   2.0000      -0.566605       -15.4181
  42   2.0000      -0.565375       -15.3846
  43   2.0000      -0.553828       -15.0704
  44   2.0000      -0.526319       -14.3219
  45   2.0000      -0.519860       -14.1461
  46   2.0000      -0.514606       -14.0032
  47   2.0000      -0.512862       -13.9557
  48   2.0000      -0.503748       -13.7077
  49   2.0000      -0.499081       -13.5807
  50   2.0000      -0.488965       -13.3054
  51   2.0000      -0.486621       -13.2416
  52   2.0000      -0.476513       -12.9666
  53   2.0000      -0.466775       -12.7016
  54   2.0000      -0.457239       -12.4421
  55   2.0000      -0.447496       -12.1770
  56   2.0000      -0.445078       -12.1112
  57   2.0000      -0.436385       -11.8746
  58   2.0000      -0.432978       -11.7819
  59   2.0000      -0.428661       -11.6645
  60   2.0000      -0.421184       -11.4610
  61   2.0000      -0.417308       -11.3555
  62   2.0000      -0.409391       -11.1401
  63   2.0000      -0.351164        -9.5557
  64   2.0000      -0.334216        -9.0945
  65   2.0000      -0.331033        -9.0079
  66   2.0000      -0.281955        -7.6724
  67   0.0000       0.023351         0.6354
  68   0.0000       0.065071         1.7707
  69   0.0000       0.109038         2.9671
  70   0.0000       0.119796         3.2598
  71   0.0000       0.129094         3.5128

MULLIKEN ATOMIC CHARGES
-----------------------
   0 S :    0.113877
   1 C :   -0.095998
   2 C :   -0.066194
   3 C :    0.022433
   4 C :   -0.149426
   5 H :    0.015381
   6 C :    0.075530
   7 H :    0.015152
   8 H :    0.040642
   9 C :   -0.119015
  10 H :    0.051351
  11 H :    0.045462
  12 C :   -0.051857
  13 H :    0.021690
  14 H :    0.020361
  15 H :    0.031541
  16 S :    0.113841
  17 C :   -0.096109
  18 C :   -0.076347
  19 C :   -0.016123
  20 C :   -0.161713
  21 H :    0.032864
  22 C :    0.088814
  23 H :   -0.013465
  24 H :    0.019043
  25 C :   -0.061227
  26 H :    0.019854
  27 H :    0.042453
  28 C :   -0.051544
  29 H :    0.023834
  30 H :    0.041194
  31 H :    0.029284
  32 H :    0.034289
  33 H :    0.060128
Sum of atomic charges:    0.0000000

LOEWDIN ATOMIC CHARGES
----------------------
   0 S :    0.414031
   1 C :   -0.199367
   2 C :   -0.050651
   3 C :   -0.056386
   4 C :   -0.190495
   5 H :    0.029626
   6 C :   -0.033909
   7 H :    0.026986
   8 H :    0.037558
   9 C :   -0.042303
  10 H :    0.030211
  11 H :    0.029913
  12 C :   -0.076481
  13 H :    0.024229
  14 H :    0.014601
  15 H :    0.033398
  16 S :    0.413139
  17 C :   -0.208236
  18 C :   -0.072078
  19 C :   -0.059168
  20 C :   -0.190433
  21 H :    0.036171
  22 C :   -0.034042
  23 H :    0.021204
  24 H :    0.030278
  25 C :   -0.040112
  26 H :    0.020264
  27 H :    0.031972
  28 C :   -0.063784
  29 H :    0.017442
  30 H :    0.032556
  31 H :    0.024849
  32 H :    0.017400
  33 H :    0.031617

  Mayer bond orders larger than 0.100000
B(  0-S ,  1-C ) :   1.1358 B(  0-S ,  4-C ) :   1.1534 B(  1-C ,  2-C ) :   1.5917
B(  1-C ,  4-C ) :   0.1034 B(  1-C , 32-H ) :   0.9741 B(  2-C ,  3-C ) :   1.2167
B(  2-C ,  6-C ) :   1.0432 B(  3-C ,  4-C ) :   1.5576 B(  3-C ,  5-H ) :   0.9938
B(  4-C , 20-C ) :   1.0790 B(  6-C ,  7-H ) :   0.9504 B(  6-C ,  8-H ) :   0.9296
B(  6-C ,  9-C ) :   1.0463 B(  9-C , 10-H ) :   0.9642 B(  9-C , 11-H ) :   0.9487
B(  9-C , 12-C ) :   1.0807 B( 12-C , 13-H ) :   0.9730 B( 12-C , 14-H ) :   0.9769
B( 12-C , 15-H ) :   0.9732 B( 16-S , 17-C ) :   1.1574 B( 16-S , 20-C ) :   1.1431
B( 17-C , 18-C ) :   1.5962 B( 17-C , 20-C ) :   0.1087 B( 17-C , 33-H ) :   0.9674
B( 18-C , 19-C ) :   1.2559 B( 18-C , 21-H ) :   0.9836 B( 19-C , 20-C ) :   1.5789
B( 19-C , 22-C ) :   1.0439 B( 22-C , 23-H ) :   0.9232 B( 22-C , 24-H ) :   0.9321
B( 22-C , 25-C ) :   1.0699 B( 25-C , 26-H ) :   0.9562 B( 25-C , 27-H ) :   0.9521
B( 25-C , 28-C ) :   1.0833 B( 28-C , 29-H ) :   0.9739 B( 28-C , 30-H ) :   0.9738
B( 28-C , 31-H ) :   0.9755

Dispersion correction           -0.014203319
FINAL SINGLE POINT ENERGY     -1339.873538298416

DIPOLE MOMENT
-------------
                                X             Y             Z
Electronic contribution:    -14.58280     -28.42333       1.47389
Nuclear contribution   :     14.90718      28.93142      -1.50146
                        -----------------------------------------
Total Dipole Moment    :      0.32439       0.50808      -0.02758
                        -----------------------------------------
Magnitude (a.u.)       :      0.60343
Magnitude (Debye)      :      1.53381

Rotational constants in cm-1:     0.017298     0.009263     0.006938
Rotational constants in MHz :   518.595764   277.704477   207.995460

                             ****ORCA TERMINATED NORMALLY****
TOTAL RUN TIME: 0 days 0 hours 0 minutes 21 seconds 921 msec
