                         Program Version 4.2.1 -  RELEASE  -
|  1> ! wB97X-D3 SP def2-SVP
|  2> %pal
|  3> nprocs 24
|  4> end
|  5>
|  6> * xyz 0 1
|  7> S 	 -134.531 	 23.5827 	 -21.3005
|  8> C 	 -135.513 	 22.1582 	 -21.6448
|  9> C 	 -135.005 	 21.3815 	 -22.6739
| 10> C 	 -133.705 	 21.9013 	 -23.0934
| 11> C 	 -133.407 	 23.1271 	 -22.5668
| 12> H 	 -133.063 	 21.5653 	 -23.868
| 13> C 	 -135.547 	 19.9873 	 -23.1452
| 14> H 	 -135.864 	 19.9231 	 -24.193
| 15> H 	 -136.434 	 19.9786 	 -22.5269
| 16> C 	 -134.816 	 18.7371 	 -22.6719
| 17> H 	 -133.735 	 18.6646 	 -22.9013
| 18> H 	 -134.773 	 18.959 	 -21.5607
| 19> C 	 -135.688 	 17.5058 	 -22.9251
| 20> H 	 -135.865 	 17.292 	 -24
| 21> H 	 -135.216 	 16.5655 	 -22.635
| 22> H 	 -136.697 	 17.6362 	 -22.4815
| 23> S 	 -132.367 	 25.5061 	 -22.7509
| 24> C 	 -130.618 	 25.698 	 -22.5408
| 25> C 	 -129.993 	 24.5001 	 -22.8152
| 26> C 	 -130.85 	 23.4079 	 -22.93
| 27> C 	 -132.142 	 23.815 	 -22.7483
| 28> H 	 -128.868 	 24.4765 	 -22.8269
| 29> C 	 -130.304 	 21.9796 	 -22.7807
| 30> H 	 -131.121 	 21.4471 	 -22.4801
| 31> H 	 -129.559 	 22.0136 	 -22.0029
| 32> C 	 -129.814 	 21.5146 	 -24.1859
| 33> H 	 -129.131 	 20.6651 	 -24.1342
| 34> H 	 -129.234 	 22.248 	 -24.6676
| 35> C 	 -131 	 20.9641 	 -25.0538
| 36> H 	 -131.624 	 21.6789 	 -25.4761
| 37> H 	 -131.599 	 20.2512 	 -24.6245
| 38> H 	 -130.579 	 20.3689 	 -25.8045
| 39> H 	 -136.503 	 22.0073 	 -21.1758
| 40> H 	 -130.089 	 26.6904 	 -22.4041
| 41> *
| 42>
| 43>                          ****END OF INPUT****

CARTESIAN COORDINATES (ANGSTROEM)
---------------------------------
  S    -134.531000   23.582700  -21.300500
  C    -135.513000   22.158200  -21.644800
  C    -135.005000   21.381500  -22.673900
  C    -133.705000   21.901300  -23.093400
  C    -133.407000   23.127100  -22.566800
  H    -133.063000   21.565300  -23.868000
  C    -135.547000   19.987300  -23.145200
  H    -135.864000   19.923100  -24.193000
  H    -136.434000   19.978600  -22.526900
  C    -134.816000   18.737100  -22.671900
  H    -133.735000   18.664600  -22.901300
  H    -134.773000   18.959000  -21.560700
  C    -135.688000   17.505800  -22.925100
  H    -135.865000   17.292000  -24.000000
  H    -135.216000   16.565500  -22.635000
  H    -136.697000   17.636200  -22.481500
  S    -132.367000   25.506100  -22.750900
  C    -130.618000   25.698000  -22.540800
  C    -129.993000   24.500100  -22.815200
  C    -130.850000   23.407900  -22.930000
  C    -132.142000   23.815000  -22.748300
  H    -128.868000   24.476500  -22.826900
  C    -130.304000   21.979600  -22.780700
  H    -131.121000   21.447100  -22.480100
  H    -129.559000   22.013600  -22.002900
  C    -129.814000   21.514600  -24.185900
  H    -129.131000   20.665100  -24.134200
  H    -129.234000   22.248000  -24.667600
  C    -131.000000   20.964100  -25.053800
  H    -131.624000   21.678900  -25.476100
  H    -131.599000   20.251200  -24.624500
  H    -130.579000   20.368900  -25.804500
  H    -136.503000   22.007300  -21.175800
  H    -130.089000   26.690400  -22.404100

 Total Charge           Charge          ....    0
 Multiplicity           Mult            ....    1
 Number of Electrons    NEL             ....  134
 Basis Dimension        Dim             ....  322

ORBITAL ENERGIES
----------------

  NO   OCC          E(Eh)            E(eV)
   0   2.0000     -88.966489     -2420.9012
   1   2.0000     -88.961951     -2420.7778
   2   2.0000     -10.323063      -280.9048
   3   2.0000     -10.319405      -280.8053
   4   2.0000     -10.318868      -280.7907
   5   2.0000     -10.317894      -280.7642
   6   2.0000     -10.309128      -280.5256
   7   2.0000     -10.295525      -280.1555
   8   2.0000     -10.295518      -280.1553
   9   2.0000     -10.294467      -280.1267
  10   2.0000     -10.293442      -280.0988
  11   2.0000     -10.289410      -279.9891
  12   2.0000     -10.287040      -279.9246
  13   2.0000     -10.286211      -279.9020
  14   2.0000     -10.286046      -279.8976
  15   2.0000     -10.265825      -279.3473
  16   2.0000      -8.080904      -219.8926
  17   2.0000      -8.077570      -219.8019
  18   2.0000      -6.039471      -164.3424
  19   2.0000      -6.035917      -164.2457
  20   2.0000      -6.035568      -164.2362
  21   2.0000      -6.032135      -164.1427
  22   2.0000      -6.031485      -164.1251
  23   2.0000      -6.028253      -164.0371
  24   2.0000      -1.013622       -27.5821
  25   2.0000      -0.982954       -26.7476
  26   2.0000      -0.912733       -24.8367
  27   2.0000      -0.909442       -24.7472
  28   2.0000      -0.870991       -23.7009
  29   2.0000      -0.853326       -23.2202
  30   2.0000      -0.843506       -22.9530
  31   2.0000      -0.814341       -22.1593
  32   2.0000      -0.785688       -21.3797
  33   2.0000      -0.772973       -21.0337
  34   2.0000      -0.718289       -19.5456
  35   2.0000      -0.700794       -19.0696
  36   2.0000      -0.691292       -18.8110
  37   2.0000      -0.663467       -18.0539
  38   2.0000      -0.641523       -17.4567
  39   2.0000      -0.615991       -16.7620
  40   2.0000      -0.593347       -16.1458
  41   2.0000      -0.568814       -15.4782
  42   2.0000      -0.562093       -15.2953
  43   2.0000      -0.553628       -15.0650
  44   2.0000      -0.543397       -14.7866
  45   2.0000      -0.522674       -14.2227
  46   2.0000      -0.518636       -14.1128
  47   2.0000      -0.505631       -13.7589
  48   2.0000      -0.504714       -13.7340
  49   2.0000      -0.491006       -13.3610
  50   2.0000      -0.489882       -13.3304
  51   2.0000      -0.480623       -13.0784
  52   2.0000      -0.477069       -12.9817
  53   2.0000      -0.470330       -12.7983
  54   2.0000      -0.460267       -12.5245
  55   2.0000      -0.452067       -12.3014
  56   2.0000      -0.444152       -12.0860
  57   2.0000      -0.440276       -11.9805
  58   2.0000      -0.432286       -11.7631
  59   2.0000      -0.430703       -11.7200
  60   2.0000      -0.422724       -11.5029
  61   2.0000      -0.414286       -11.2733
  62   2.0000      -0.407332       -11.0841
  63   2.0000      -0.349730        -9.5166
  64   2.0000      -0.334185        -9.0936
  65   2.0000      -0.329941        -8.9781
  66   2.0000      -0.289434        -7.8759
  67   0.0000       0.027892         0.7590
  68   0.0000       0.077615         2.1120
  69   0.0000       0.105663         2.8752
  70   0.0000       0.116037         3.1575
  71   0.0000       0.129370         3.5203

MULLIKEN ATOMIC CHARGES
-----------------------
   0 S :    0.112591
   1 C :   -0.142527
   2 C :   -0.074418
   3 C :    0.034083
   4 C :   -0.102585
   5 H :   -0.054083
   6 C :    0.061724
   7 H :    0.041908
   8 H :    0.004123
   9 C :   -0.092277
  10 H :    0.040666
  11 H :    0.035096
  12 C :   -0.053040
  13 H :    0.029353
  14 H :    0.036056
  15 H :    0.039266
  16 S :    0.098651
  17 C :   -0.115057
  18 C :   -0.060825
  19 C :   -0.044409
  20 C :   -0.172710
  21 H :    0.033881
  22 C :    0.126688
  23 H :   -0.008106
  24 H :    0.032258
  25 C :   -0.054260
  26 H :    0.020530
  27 H :    0.020941
  28 C :    0.005640
  29 H :    0.043510
  30 H :    0.011780
  31 H :    0.008011
  32 H :    0.064586
  33 H :    0.072951
Sum of atomic charges:    0.0000000

LOEWDIN ATOMIC CHARGES
----------------------
   0 S :    0.396101
   1 C :   -0.197346
   2 C :   -0.057803
   3 C :   -0.063614
   4 C :   -0.196640
   5 H :    0.023620
   6 C :   -0.033015
   7 H :    0.028406
   8 H :    0.028546
   9 C :   -0.051586
  10 H :    0.023264
  11 H :    0.033831
  12 C :   -0.070705
  13 H :    0.027409
  14 H :    0.028098
  15 H :    0.031343
  16 S :    0.408525
  17 C :   -0.192592
  18 C :   -0.073352
  19 C :   -0.067016
  20 C :   -0.198931
  21 H :    0.038911
  22 C :   -0.006929
  23 H :    0.014496
  24 H :    0.030305
  25 C :   -0.023385
  26 H :    0.022762
  27 H :    0.017630
  28 C :   -0.053699
  29 H :    0.018769
  30 H :    0.015569
  31 H :    0.025970
  32 H :    0.033246
  33 H :    0.039813

  Mayer bond orders larger than 0.100000
B(  0-S ,  1-C ) :   1.1320 B(  0-S ,  4-C ) :   1.1262 B(  1-C ,  2-C ) :   1.6366
B(  1-C , 32-H ) :   0.9554 B(  2-C ,  3-C ) :   1.1999 B(  2-C ,  6-C ) :   1.0180
B(  3-C ,  4-C ) :   1.6197 B(  3-C ,  5-H ) :   0.9877 B(  4-C , 20-C ) :   1.0282
B(  6-C ,  7-H ) :   0.9440 B(  6-C ,  8-H ) :   0.9441 B(  6-C ,  9-C ) :   1.0423
B(  9-C , 10-H ) :   0.9585 B(  9-C , 11-H ) :   0.9539 B(  9-C , 12-C ) :   1.0748
B( 12-C , 13-H ) :   0.9742 B( 12-C , 14-H ) :   0.9727 B( 12-C , 15-H ) :   0.9726
B( 16-S , 17-C ) :   1.1268 B( 16-S , 20-C ) :   1.1626 B( 17-C , 18-C ) :   1.6317
B( 17-C , 33-H ) :   0.9630 B( 18-C , 19-C ) :   1.2336 B( 18-C , 21-H ) :   0.9768
B( 19-C , 20-C ) :   1.5944 B( 19-C , 22-C ) :   1.0159 B( 22-C , 23-H ) :   0.9412
B( 22-C , 24-H ) :   0.9480 B( 22-C , 25-C ) :   1.0537 B( 25-C , 26-H ) :   0.9593
B( 25-C , 27-H ) :   0.9637 B( 25-C , 28-C ) :   1.0789 B( 28-C , 29-H ) :   0.9651
B( 28-C , 30-H ) :   0.9618 B( 28-C , 31-H ) :   0.9584

Dispersion correction           -0.014902994
FINAL SINGLE POINT ENERGY     -1339.847442896830

DIPOLE MOMENT
-------------
                                X             Y             Z
Electronic contribution:     -2.28803      29.88827       9.28458
Nuclear contribution   :      2.57830     -30.55913      -9.45220
                        -----------------------------------------
Total Dipole Moment    :      0.29027      -0.67086      -0.16762
                        -----------------------------------------
Magnitude (a.u.)       :      0.74993
Magnitude (Debye)      :      1.90618

Rotational constants in cm-1:     0.020186     0.009228     0.006722
Rotational constants in MHz :   605.171535   276.656475   201.519907

                             ****ORCA TERMINATED NORMALLY****
TOTAL RUN TIME: 0 days 0 hours 0 minutes 21 seconds 259 msec
