                         Program Version 4.2.1 -  RELEASE  -
|  1> ! wB97X-D3 SP def2-SVP
|  2> %pal
|  3> nprocs 24
|  4> end
|  5>
|  6> * xyz 0 1
|  7> S 	 27.0564 	 -4.38629 	 -117.985
|  8> C 	 25.5874 	 -5.24453 	 -118.359
|  9> C 	 25.6561 	 -6.59685 	 -118.216
| 10> C 	 27.0363 	 -6.95584 	 -117.971
| 11> C 	 27.9441 	 -5.8633 	 -117.828
| 12> H 	 27.3558 	 -7.94321 	 -117.767
| 13> C 	 24.474 	 -7.57 	 -118.278
| 14> H 	 23.5676 	 -7.085 	 -118.445
| 15> H 	 24.3484 	 -8.1243 	 -117.334
| 16> C 	 24.6287 	 -8.55728 	 -119.446
| 17> H 	 25.4497 	 -9.26176 	 -119.285
| 18> H 	 23.8802 	 -9.32565 	 -119.516
| 19> C 	 24.7172 	 -7.89669 	 -120.88
| 20> H 	 25.7916 	 -7.61803 	 -121.131
| 21> H 	 24.4413 	 -8.74779 	 -121.539
| 22> H 	 24.0255 	 -7.06748 	 -121.053
| 23> S 	 30.3335 	 -5.09474 	 -119.05
| 24> C 	 31.802 	 -5.47452 	 -118.156
| 25> C 	 31.6066 	 -6.38732 	 -117.098
| 26> C 	 30.2147 	 -6.5718 	 -116.863
| 27> C 	 29.3867 	 -5.94122 	 -117.796
| 28> H 	 32.4664 	 -6.57477 	 -116.472
| 29> C 	 29.7608 	 -7.29129 	 -115.599
| 30> H 	 30.6229 	 -7.68078 	 -115.09
| 31> H 	 29.2418 	 -8.18176 	 -115.897
| 32> C 	 28.9491 	 -6.41725 	 -114.553
| 33> H 	 28.2046 	 -5.83526 	 -115.102
| 34> H 	 29.65 	 -5.81534 	 -114.128
| 35> C 	 28.257 	 -7.18565 	 -113.427
| 36> H 	 28.0148 	 -6.40591 	 -112.667
| 37> H 	 28.886 	 -8.00254 	 -112.984
| 38> H 	 27.3775 	 -7.59815 	 -113.759
| 39> H 	 24.6682 	 -4.75813 	 -118.292
| 40> H 	 32.7388 	 -4.98331 	 -118.289
| 41> *
| 42>
| 43>                          ****END OF INPUT****

CARTESIAN COORDINATES (ANGSTROEM)
---------------------------------
  S     27.056400   -4.386290  -117.985000
  C     25.587400   -5.244530  -118.359000
  C     25.656100   -6.596850  -118.216000
  C     27.036300   -6.955840  -117.971000
  C     27.944100   -5.863300  -117.828000
  H     27.355800   -7.943210  -117.767000
  C     24.474000   -7.570000  -118.278000
  H     23.567600   -7.085000  -118.445000
  H     24.348400   -8.124300  -117.334000
  C     24.628700   -8.557280  -119.446000
  H     25.449700   -9.261760  -119.285000
  H     23.880200   -9.325650  -119.516000
  C     24.717200   -7.896690  -120.880000
  H     25.791600   -7.618030  -121.131000
  H     24.441300   -8.747790  -121.539000
  H     24.025500   -7.067480  -121.053000
  S     30.333500   -5.094740  -119.050000
  C     31.802000   -5.474520  -118.156000
  C     31.606600   -6.387320  -117.098000
  C     30.214700   -6.571800  -116.863000
  C     29.386700   -5.941220  -117.796000
  H     32.466400   -6.574770  -116.472000
  C     29.760800   -7.291290  -115.599000
  H     30.622900   -7.680780  -115.090000
  H     29.241800   -8.181760  -115.897000
  C     28.949100   -6.417250  -114.553000
  H     28.204600   -5.835260  -115.102000
  H     29.650000   -5.815340  -114.128000
  C     28.257000   -7.185650  -113.427000
  H     28.014800   -6.405910  -112.667000
  H     28.886000   -8.002540  -112.984000
  H     27.377500   -7.598150  -113.759000
  H     24.668200   -4.758130  -118.292000
  H     32.738800   -4.983310  -118.289000

 Total Charge           Charge          ....    0
 Multiplicity           Mult            ....    1
 Number of Electrons    NEL             ....  134
 Basis Dimension        Dim             ....  322

ORBITAL ENERGIES
----------------

  NO   OCC          E(Eh)            E(eV)
   0   2.0000     -88.968121     -2420.9457
   1   2.0000     -88.967296     -2420.9232
   2   2.0000     -10.330706      -281.1128
   3   2.0000     -10.325999      -280.9847
   4   2.0000     -10.317631      -280.7570
   5   2.0000     -10.306655      -280.4583
   6   2.0000     -10.304940      -280.4117
   7   2.0000     -10.304199      -280.3915
   8   2.0000     -10.296601      -280.1848
   9   2.0000     -10.295837      -280.1640
  10   2.0000     -10.295317      -280.1498
  11   2.0000     -10.287681      -279.9420
  12   2.0000     -10.286658      -279.9142
  13   2.0000     -10.284621      -279.8588
  14   2.0000     -10.276333      -279.6332
  15   2.0000     -10.274140      -279.5736
  16   2.0000      -8.082370      -219.9325
  17   2.0000      -8.081921      -219.9202
  18   2.0000      -6.040800      -164.3785
  19   2.0000      -6.040414      -164.3680
  20   2.0000      -6.036799      -164.2696
  21   2.0000      -6.036619      -164.2647
  22   2.0000      -6.033221      -164.1723
  23   2.0000      -6.032698      -164.1580
  24   2.0000      -1.003373       -27.3032
  25   2.0000      -0.979772       -26.6609
  26   2.0000      -0.910000       -24.7624
  27   2.0000      -0.901260       -24.5245
  28   2.0000      -0.866422       -23.5765
  29   2.0000      -0.851694       -23.1758
  30   2.0000      -0.840953       -22.8835
  31   2.0000      -0.809481       -22.0271
  32   2.0000      -0.785300       -21.3691
  33   2.0000      -0.772456       -21.0196
  34   2.0000      -0.711351       -19.3568
  35   2.0000      -0.699099       -19.0234
  36   2.0000      -0.690502       -18.7895
  37   2.0000      -0.661304       -17.9950
  38   2.0000      -0.643404       -17.5079
  39   2.0000      -0.620515       -16.8851
  40   2.0000      -0.588705       -16.0195
  41   2.0000      -0.569256       -15.4902
  42   2.0000      -0.563915       -15.3449
  43   2.0000      -0.552410       -15.0318
  44   2.0000      -0.538433       -14.6515
  45   2.0000      -0.520871       -14.1736
  46   2.0000      -0.517781       -14.0895
  47   2.0000      -0.505891       -13.7660
  48   2.0000      -0.498199       -13.5567
  49   2.0000      -0.495829       -13.4922
  50   2.0000      -0.487447       -13.2641
  51   2.0000      -0.484192       -13.1755
  52   2.0000      -0.474215       -12.9041
  53   2.0000      -0.462090       -12.5741
  54   2.0000      -0.459676       -12.5084
  55   2.0000      -0.445928       -12.1343
  56   2.0000      -0.442251       -12.0343
  57   2.0000      -0.433928       -11.8078
  58   2.0000      -0.430105       -11.7037
  59   2.0000      -0.427523       -11.6335
  60   2.0000      -0.423458       -11.5229
  61   2.0000      -0.415552       -11.3078
  62   2.0000      -0.411998       -11.2110
  63   2.0000      -0.338530        -9.2119
  64   2.0000      -0.335400        -9.1267
  65   2.0000      -0.328799        -8.9471
  66   2.0000      -0.289935        -7.8895
  67   0.0000       0.023916         0.6508
  68   0.0000       0.066809         1.8180
  69   0.0000       0.109732         2.9860
  70   0.0000       0.113105         3.0777
  71   0.0000       0.136378         3.7110

MULLIKEN ATOMIC CHARGES
-----------------------
   0 S :    0.118008
   1 C :   -0.100434
   2 C :   -0.097569
   3 C :    0.051201
   4 C :   -0.197360
   5 H :   -0.005913
   6 C :    0.137120
   7 H :    0.001372
   8 H :    0.039286
   9 C :   -0.103273
  10 H :    0.020719
  11 H :    0.014192
  12 C :   -0.080188
  13 H :    0.059631
  14 H :    0.035684
  15 H :    0.041691
  16 S :    0.118922
  17 C :   -0.105726
  18 C :   -0.032214
  19 C :   -0.039558
  20 C :   -0.148007
  21 H :    0.026990
  22 C :    0.090735
  23 H :    0.001562
  24 H :    0.017275
  25 C :   -0.049130
  26 H :    0.042328
  27 H :    0.009639
  28 C :   -0.038964
  29 H :    0.039575
  30 H :    0.034865
  31 H :    0.016208
  32 H :    0.029944
  33 H :    0.051388
Sum of atomic charges:    0.0000000

LOEWDIN ATOMIC CHARGES
----------------------
   0 S :    0.420073
   1 C :   -0.190706
   2 C :   -0.056441
   3 C :   -0.047848
   4 C :   -0.208235
   5 H :    0.019026
   6 C :   -0.021344
   7 H :    0.020424
   8 H :    0.037670
   9 C :   -0.048573
  10 H :    0.023198
  11 H :    0.018866
  12 C :   -0.071177
  13 H :    0.036224
  14 H :    0.030270
  15 H :    0.024396
  16 S :    0.392331
  17 C :   -0.174214
  18 C :   -0.071625
  19 C :   -0.048868
  20 C :   -0.199882
  21 H :    0.034280
  22 C :   -0.028553
  23 H :    0.024146
  24 H :    0.023993
  25 C :   -0.025555
  26 H :    0.026865
  27 H :    0.009873
  28 C :   -0.059517
  29 H :    0.035067
  30 H :    0.028603
  31 H :    0.010839
  32 H :    0.013873
  33 H :    0.022524

  Mayer bond orders larger than 0.100000
B(  0-S ,  1-C ) :   1.1525 B(  0-S ,  4-C ) :   1.1543 B(  1-C ,  2-C ) :   1.6176
B(  1-C , 32-H ) :   0.9594 B(  2-C ,  3-C ) :   1.2491 B(  2-C ,  6-C ) :   1.0232
B(  3-C ,  4-C ) :   1.5445 B(  3-C ,  5-H ) :   0.9968 B(  4-C , 20-C ) :   1.0658
B(  6-C ,  7-H ) :   0.9394 B(  6-C ,  8-H ) :   0.9393 B(  6-C ,  9-C ) :   1.0698
B(  9-C , 10-H ) :   0.9534 B(  9-C , 11-H ) :   0.9626 B(  9-C , 12-C ) :   1.0566
B( 12-C , 13-H ) :   0.9761 B( 12-C , 14-H ) :   0.9773 B( 12-C , 15-H ) :   0.9795
B( 16-S , 17-C ) :   1.1637 B( 16-S , 20-C ) :   1.1218 B( 17-C , 18-C ) :   1.6144
B( 17-C , 33-H ) :   0.9665 B( 18-C , 19-C ) :   1.2461 B( 18-C , 21-H ) :   0.9858
B( 19-C , 20-C ) :   1.5947 B( 19-C , 22-C ) :   1.0419 B( 22-C , 23-H ) :   0.9320
B( 22-C , 24-H ) :   0.9303 B( 22-C , 25-C ) :   1.0487 B( 25-C , 26-H ) :   0.9587
B( 25-C , 27-H ) :   0.9591 B( 25-C , 28-C ) :   1.0861 B( 28-C , 29-H ) :   0.9738
B( 28-C , 30-H ) :   0.9742 B( 28-C , 31-H ) :   0.9771

Dispersion correction           -0.014796552
FINAL SINGLE POINT ENERGY     -1339.862444551226

DIPOLE MOMENT
-------------
                                X             Y             Z
Electronic contribution:     12.75293      17.06407      -9.01888
Nuclear contribution   :    -12.98691     -17.49376       9.45589
                        -----------------------------------------
Total Dipole Moment    :     -0.23399      -0.42969       0.43701
                        -----------------------------------------
Magnitude (a.u.)       :      0.65602
Magnitude (Debye)      :      1.66747

Rotational constants in cm-1:     0.017820     0.009037     0.007436
Rotational constants in MHz :   534.234393   270.915077   222.926138

                             ****ORCA TERMINATED NORMALLY****
TOTAL RUN TIME: 0 days 0 hours 0 minutes 21 seconds 964 msec
