                         Program Version 4.2.1 -  RELEASE  -
|  1> ! wB97X-D3 SP def2-SVP
|  2> %pal
|  3> nprocs 24
|  4> end
|  5>
|  6> * xyz 0 1
|  7> S 	 -75.6182 	 -1.07139 	 5.11891
|  8> C 	 -76.0646 	 0.155276 	 6.28661
|  9> C 	 -77.0428 	 1.00353 	 5.83814
| 10> C 	 -77.3277 	 0.747478 	 4.4289
| 11> C 	 -76.6292 	 -0.348898 	 3.91708
| 12> H 	 -78.0895 	 1.11543 	 3.85819
| 13> C 	 -77.8086 	 2.0261 	 6.60626
| 14> H 	 -77.599 	 2.92795 	 6.1669
| 15> H 	 -77.3093 	 1.94656 	 7.6008
| 16> C 	 -79.2798 	 1.8122 	 6.69806
| 17> H 	 -79.5861 	 2.65023 	 7.30344
| 18> H 	 -79.7585 	 1.89129 	 5.74411
| 19> C 	 -79.7359 	 0.483743 	 7.31253
| 20> H 	 -80.7829 	 0.481875 	 7.21275
| 21> H 	 -79.2356 	 -0.387592 	 6.84977
| 22> H 	 -79.6154 	 0.487066 	 8.40894
| 23> S 	 -77.1474 	 0.391968 	 1.46789
| 24> C 	 -77.4148 	 -0.671246 	 0.15853
| 25> C 	 -77.2513 	 -2.01323 	 0.529241
| 26> C 	 -76.9219 	 -2.12522 	 1.94555
| 27> C 	 -76.8694 	 -0.853606 	 2.56651
| 28> H 	 -77.3481 	 -2.87592 	 -0.117738
| 29> C 	 -76.7463 	 -3.43107 	 2.66079
| 30> H 	 -75.9071 	 -3.33773 	 3.33803
| 31> H 	 -76.4451 	 -4.17266 	 1.88294
| 32> C 	 -77.9804 	 -4.08423 	 3.41481
| 33> H 	 -78.7787 	 -4.4309 	 2.71425
| 34> H 	 -78.488 	 -3.38927 	 3.97361
| 35> C 	 -77.5336 	 -5.20944 	 4.36348
| 36> H 	 -78.2877 	 -5.87968 	 4.69319
| 37> H 	 -77.157 	 -4.77367 	 5.29577
| 38> H 	 -76.869 	 -5.87665 	 3.82813
| 39> H 	 -75.8955 	 0.042279 	 7.3548
| 40> H 	 -77.6545 	 -0.407618 	 -0.885861
| 41> *
| 42>
| 43>                          ****END OF INPUT****

CARTESIAN COORDINATES (ANGSTROEM)
---------------------------------
  S    -75.618200   -1.071390    5.118910
  C    -76.064600    0.155276    6.286610
  C    -77.042800    1.003530    5.838140
  C    -77.327700    0.747478    4.428900
  C    -76.629200   -0.348898    3.917080
  H    -78.089500    1.115430    3.858190
  C    -77.808600    2.026100    6.606260
  H    -77.599000    2.927950    6.166900
  H    -77.309300    1.946560    7.600800
  C    -79.279800    1.812200    6.698060
  H    -79.586100    2.650230    7.303440
  H    -79.758500    1.891290    5.744110
  C    -79.735900    0.483743    7.312530
  H    -80.782900    0.481875    7.212750
  H    -79.235600   -0.387592    6.849770
  H    -79.615400    0.487066    8.408940
  S    -77.147400    0.391968    1.467890
  C    -77.414800   -0.671246    0.158530
  C    -77.251300   -2.013230    0.529241
  C    -76.921900   -2.125220    1.945550
  C    -76.869400   -0.853606    2.566510
  H    -77.348100   -2.875920   -0.117738
  C    -76.746300   -3.431070    2.660790
  H    -75.907100   -3.337730    3.338030
  H    -76.445100   -4.172660    1.882940
  C    -77.980400   -4.084230    3.414810
  H    -78.778700   -4.430900    2.714250
  H    -78.488000   -3.389270    3.973610
  C    -77.533600   -5.209440    4.363480
  H    -78.287700   -5.879680    4.693190
  H    -77.157000   -4.773670    5.295770
  H    -76.869000   -5.876650    3.828130
  H    -75.895500    0.042279    7.354800
  H    -77.654500   -0.407618   -0.885861

 Total Charge           Charge          ....    0
 Multiplicity           Mult            ....    1
 Number of Electrons    NEL             ....  134
 Basis Dimension        Dim             ....  322

ORBITAL ENERGIES
----------------

  NO   OCC          E(Eh)            E(eV)
   0   2.0000     -88.968471     -2420.9552
   1   2.0000     -88.967584     -2420.9310
   2   2.0000     -10.331331      -281.1298
   3   2.0000     -10.323872      -280.9268
   4   2.0000     -10.316919      -280.7376
   5   2.0000     -10.310490      -280.5627
   6   2.0000     -10.305510      -280.4272
   7   2.0000     -10.300007      -280.2774
   8   2.0000     -10.298454      -280.2352
   9   2.0000     -10.293995      -280.1139
  10   2.0000     -10.286676      -279.9147
  11   2.0000     -10.283751      -279.8351
  12   2.0000     -10.282592      -279.8035
  13   2.0000     -10.281909      -279.7850
  14   2.0000     -10.275127      -279.6004
  15   2.0000     -10.272392      -279.5260
  16   2.0000      -8.083881      -219.9736
  17   2.0000      -8.083099      -219.9523
  18   2.0000      -6.042296      -164.4192
  19   2.0000      -6.041715      -164.4034
  20   2.0000      -6.037915      -164.3000
  21   2.0000      -6.037685      -164.2938
  22   2.0000      -6.034880      -164.2174
  23   2.0000      -6.033716      -164.1858
  24   2.0000      -1.013272       -27.5725
  25   2.0000      -0.986910       -26.8552
  26   2.0000      -0.922700       -25.1079
  27   2.0000      -0.903275       -24.5794
  28   2.0000      -0.873486       -23.7688
  29   2.0000      -0.854586       -23.2545
  30   2.0000      -0.845920       -23.0186
  31   2.0000      -0.812222       -22.1017
  32   2.0000      -0.788936       -21.4680
  33   2.0000      -0.770925       -20.9779
  34   2.0000      -0.710333       -19.3292
  35   2.0000      -0.703387       -19.1401
  36   2.0000      -0.689760       -18.7693
  37   2.0000      -0.669580       -18.2202
  38   2.0000      -0.639297       -17.3962
  39   2.0000      -0.615831       -16.7576
  40   2.0000      -0.594618       -16.1804
  41   2.0000      -0.573773       -15.6132
  42   2.0000      -0.563550       -15.3350
  43   2.0000      -0.558133       -15.1876
  44   2.0000      -0.547386       -14.8951
  45   2.0000      -0.523392       -14.2422
  46   2.0000      -0.519655       -14.1405
  47   2.0000      -0.511324       -13.9138
  48   2.0000      -0.507205       -13.8018
  49   2.0000      -0.495580       -13.4854
  50   2.0000      -0.486764       -13.2455
  51   2.0000      -0.482109       -13.1189
  52   2.0000      -0.472409       -12.8549
  53   2.0000      -0.466291       -12.6884
  54   2.0000      -0.457248       -12.4423
  55   2.0000      -0.450785       -12.2665
  56   2.0000      -0.444400       -12.0927
  57   2.0000      -0.441539       -12.0149
  58   2.0000      -0.431497       -11.7416
  59   2.0000      -0.428863       -11.6700
  60   2.0000      -0.425230       -11.5711
  61   2.0000      -0.416865       -11.3435
  62   2.0000      -0.413786       -11.2597
  63   2.0000      -0.355082        -9.6623
  64   2.0000      -0.329628        -8.9696
  65   2.0000      -0.329375        -8.9627
  66   2.0000      -0.285957        -7.7813
  67   0.0000       0.026145         0.7114
  68   0.0000       0.084288         2.2936
  69   0.0000       0.107355         2.9213
  70   0.0000       0.125593         3.4175
  71   0.0000       0.127004         3.4559

MULLIKEN ATOMIC CHARGES
-----------------------
   0 S :    0.102748
   1 C :   -0.116523
   2 C :   -0.125526
   3 C :    0.007760
   4 C :   -0.103620
   5 H :   -0.013160
   6 C :    0.141467
   7 H :    0.016258
   8 H :    0.010958
   9 C :   -0.078055
  10 H :    0.027100
  11 H :    0.027662
  12 C :   -0.042029
  13 H :    0.021997
  14 H :    0.059304
  15 H :    0.024541
  16 S :    0.122259
  17 C :   -0.095135
  18 C :   -0.033177
  19 C :   -0.065825
  20 C :   -0.150996
  21 H :    0.017439
  22 C :    0.031556
  23 H :    0.026614
  24 H :    0.023547
  25 C :   -0.024251
  26 H :    0.026054
  27 H :    0.006137
  28 C :   -0.043745
  29 H :    0.018432
  30 H :    0.039966
  31 H :    0.025643
  32 H :    0.049555
  33 H :    0.065046
Sum of atomic charges:   -0.0000000

LOEWDIN ATOMIC CHARGES
----------------------
   0 S :    0.411195
   1 C :   -0.209927
   2 C :   -0.052596
   3 C :   -0.070902
   4 C :   -0.194286
   5 H :    0.004657
   6 C :   -0.025981
   7 H :    0.024726
   8 H :    0.034356
   9 C :   -0.037310
  10 H :    0.028130
  11 H :    0.021400
  12 C :   -0.061888
  13 H :    0.021568
  14 H :    0.033366
  15 H :    0.026128
  16 S :    0.475181
  17 C :   -0.214192
  18 C :   -0.066772
  19 C :   -0.063226
  20 C :   -0.214997
  21 H :    0.030969
  22 C :   -0.037612
  23 H :    0.022910
  24 H :    0.035110
  25 C :   -0.031890
  26 H :    0.027259
  27 H :    0.010097
  28 C :   -0.064940
  29 H :    0.021826
  30 H :    0.029929
  31 H :    0.023590
  32 H :    0.028134
  33 H :    0.035986

  Mayer bond orders larger than 0.100000
B(  0-S ,  1-C ) :   1.1152 B(  0-S ,  4-C ) :   1.1489 B(  1-C ,  2-C ) :   1.6538
B(  1-C , 32-H ) :   0.9531 B(  2-C ,  3-C ) :   1.2092 B(  2-C ,  6-C ) :   1.0210
B(  3-C ,  4-C ) :   1.5630 B(  3-C ,  5-H ) :   0.9975 B(  4-C , 20-C ) :   1.0472
B(  6-C ,  7-H ) :   0.9241 B(  6-C ,  8-H ) :   0.9331 B(  6-C ,  9-C ) :   1.0878
B(  9-C , 10-H ) :   0.9505 B(  9-C , 11-H ) :   0.9536 B(  9-C , 12-C ) :   1.0802
B( 12-C , 13-H ) :   0.9722 B( 12-C , 14-H ) :   0.9734 B( 12-C , 15-H ) :   0.9735
B( 16-S , 17-C ) :   1.1754 B( 16-S , 20-C ) :   1.1823 B( 17-C , 18-C ) :   1.5639
B( 17-C , 33-H ) :   0.9656 B( 18-C , 19-C ) :   1.2836 B( 18-C , 21-H ) :   0.9890
B( 19-C , 20-C ) :   1.5266 B( 19-C , 22-C ) :   1.0579 B( 22-C , 23-H ) :   0.9416
B( 22-C , 24-H ) :   0.9253 B( 22-C , 25-C ) :   1.0470 B( 25-C , 26-H ) :   0.9549
B( 25-C , 27-H ) :   0.9599 B( 25-C , 28-C ) :   1.0791 B( 28-C , 29-H ) :   0.9718
B( 28-C , 30-H ) :   0.9759 B( 28-C , 31-H ) :   0.9759

Dispersion correction           -0.014625749
FINAL SINGLE POINT ENERGY     -1339.873784516254

DIPOLE MOMENT
-------------
                                X             Y             Z
Electronic contribution:     13.17801       9.21448     -13.84018
Nuclear contribution   :    -13.73303      -9.30041      14.00825
                        -----------------------------------------
Total Dipole Moment    :     -0.55502      -0.08593       0.16806
                        -----------------------------------------
Magnitude (a.u.)       :      0.58624
Magnitude (Debye)      :      1.49009

Rotational constants in cm-1:     0.017533     0.009489     0.007651
Rotational constants in MHz :   525.629475   284.486715   229.356355

                             ****ORCA TERMINATED NORMALLY****
TOTAL RUN TIME: 0 days 0 hours 0 minutes 22 seconds 979 msec
