                         Program Version 4.2.1 -  RELEASE  -
|  1> ! wB97X-D3 SP def2-SVP
|  2> %pal
|  3> nprocs 24
|  4> end
|  5>
|  6> * xyz 0 1
|  7> S 	 -134.685 	 66.9958 	 -62.2014
|  8> C 	 -136.419 	 67.1624 	 -62.2804
|  9> C 	 -137.029 	 67.0524 	 -61.0211
| 10> C 	 -136.041 	 67.0012 	 -59.9383
| 11> C 	 -134.761 	 67.147 	 -60.4287
| 12> H 	 -136.317 	 66.9088 	 -58.8741
| 13> C 	 -138.527 	 66.9575 	 -60.7261
| 14> H 	 -138.66 	 66.3628 	 -59.8124
| 15> H 	 -138.942 	 66.3535 	 -61.5253
| 16> C 	 -139.31 	 68.269 	 -60.4661
| 17> H 	 -139.24 	 68.9877 	 -61.2964
| 18> H 	 -140.375 	 68.2088 	 -60.2544
| 19> C 	 -138.753 	 69.0881 	 -59.2504
| 20> H 	 -139.214 	 70.0592 	 -59.1572
| 21> H 	 -139.164 	 68.526 	 -58.4625
| 22> H 	 -137.699 	 69.2697 	 -59.2517
| 23> S 	 -132.359 	 65.7429 	 -59.9418
| 24> C 	 -131.317 	 66.2337 	 -58.6606
| 25> C 	 -131.8 	 67.3277 	 -58.0339
| 26> C 	 -133.102 	 67.6717 	 -58.4139
| 27> C 	 -133.534 	 67.0535 	 -59.6049
| 28> H 	 -131.317 	 67.82 	 -57.2689
| 29> C 	 -133.88 	 68.6571 	 -57.5848
| 30> H 	 -134.762 	 69.1069 	 -58.0682
| 31> H 	 -133.135 	 69.4631 	 -57.4253
| 32> C 	 -134.279 	 68.0511 	 -56.1909
| 33> H 	 -134.548 	 68.7942 	 -55.5047
| 34> H 	 -133.369 	 67.6924 	 -55.6255
| 35> C 	 -135.314 	 66.8899 	 -56.1645
| 36> H 	 -136.284 	 67.364 	 -56.4094
| 37> H 	 -135.202 	 66.4417 	 -55.138
| 38> H 	 -134.987 	 66.1532 	 -56.9135
| 39> H 	 -136.897 	 67.2268 	 -63.245
| 40> H 	 -130.318 	 65.7487 	 -58.4597
| 41> *
| 42>
| 43>                          ****END OF INPUT****

CARTESIAN COORDINATES (ANGSTROEM)
---------------------------------
  S    -134.685000   66.995800  -62.201400
  C    -136.419000   67.162400  -62.280400
  C    -137.029000   67.052400  -61.021100
  C    -136.041000   67.001200  -59.938300
  C    -134.761000   67.147000  -60.428700
  H    -136.317000   66.908800  -58.874100
  C    -138.527000   66.957500  -60.726100
  H    -138.660000   66.362800  -59.812400
  H    -138.942000   66.353500  -61.525300
  C    -139.310000   68.269000  -60.466100
  H    -139.240000   68.987700  -61.296400
  H    -140.375000   68.208800  -60.254400
  C    -138.753000   69.088100  -59.250400
  H    -139.214000   70.059200  -59.157200
  H    -139.164000   68.526000  -58.462500
  H    -137.699000   69.269700  -59.251700
  S    -132.359000   65.742900  -59.941800
  C    -131.317000   66.233700  -58.660600
  C    -131.800000   67.327700  -58.033900
  C    -133.102000   67.671700  -58.413900
  C    -133.534000   67.053500  -59.604900
  H    -131.317000   67.820000  -57.268900
  C    -133.880000   68.657100  -57.584800
  H    -134.762000   69.106900  -58.068200
  H    -133.135000   69.463100  -57.425300
  C    -134.279000   68.051100  -56.190900
  H    -134.548000   68.794200  -55.504700
  H    -133.369000   67.692400  -55.625500
  C    -135.314000   66.889900  -56.164500
  H    -136.284000   67.364000  -56.409400
  H    -135.202000   66.441700  -55.138000
  H    -134.987000   66.153200  -56.913500
  H    -136.897000   67.226800  -63.245000
  H    -130.318000   65.748700  -58.459700

 Total Charge           Charge          ....    0
 Multiplicity           Mult            ....    1
 Number of Electrons    NEL             ....  134
 Basis Dimension        Dim             ....  322

ORBITAL ENERGIES
----------------

  NO   OCC          E(Eh)            E(eV)
   0   2.0000     -88.968882     -2420.9664
   1   2.0000     -88.960851     -2420.7478
   2   2.0000     -10.334747      -281.2228
   3   2.0000     -10.329540      -281.0811
   4   2.0000     -10.318850      -280.7902
   5   2.0000     -10.316851      -280.7358
   6   2.0000     -10.309720      -280.5417
   7   2.0000     -10.301552      -280.3195
   8   2.0000     -10.300669      -280.2954
   9   2.0000     -10.297812      -280.2177
  10   2.0000     -10.296474      -280.1813
  11   2.0000     -10.290098      -280.0078
  12   2.0000     -10.287359      -279.9333
  13   2.0000     -10.286842      -279.9192
  14   2.0000     -10.281524      -279.7745
  15   2.0000     -10.270037      -279.4619
  16   2.0000      -8.083310      -219.9580
  17   2.0000      -8.075669      -219.7501
  18   2.0000      -6.041878      -164.4079
  19   2.0000      -6.038073      -164.3043
  20   2.0000      -6.034185      -164.1985
  21   2.0000      -6.033821      -164.1886
  22   2.0000      -6.030159      -164.0890
  23   2.0000      -6.026414      -163.9871
  24   2.0000      -1.003291       -27.3009
  25   2.0000      -0.983325       -26.7576
  26   2.0000      -0.906562       -24.6688
  27   2.0000      -0.904294       -24.6071
  28   2.0000      -0.866802       -23.5869
  29   2.0000      -0.849268       -23.1098
  30   2.0000      -0.845714       -23.0130
  31   2.0000      -0.814529       -22.1645
  32   2.0000      -0.782536       -21.2939
  33   2.0000      -0.770144       -20.9567
  34   2.0000      -0.702573       -19.1180
  35   2.0000      -0.701135       -19.0789
  36   2.0000      -0.689480       -18.7617
  37   2.0000      -0.660280       -17.9671
  38   2.0000      -0.641949       -17.4683
  39   2.0000      -0.615468       -16.7477
  40   2.0000      -0.594581       -16.1794
  41   2.0000      -0.573120       -15.5954
  42   2.0000      -0.553586       -15.0638
  43   2.0000      -0.552255       -15.0276
  44   2.0000      -0.548837       -14.9346
  45   2.0000      -0.538115       -14.6428
  46   2.0000      -0.515535       -14.0284
  47   2.0000      -0.508877       -13.8472
  48   2.0000      -0.498188       -13.5564
  49   2.0000      -0.496242       -13.5034
  50   2.0000      -0.490035       -13.3345
  51   2.0000      -0.477344       -12.9892
  52   2.0000      -0.468892       -12.7592
  53   2.0000      -0.465557       -12.6684
  54   2.0000      -0.458659       -12.4808
  55   2.0000      -0.448618       -12.2075
  56   2.0000      -0.445191       -12.1143
  57   2.0000      -0.442851       -12.0506
  58   2.0000      -0.434789       -11.8312
  59   2.0000      -0.424205       -11.5432
  60   2.0000      -0.415951       -11.3186
  61   2.0000      -0.412417       -11.2224
  62   2.0000      -0.406771       -11.0688
  63   2.0000      -0.349733        -9.5167
  64   2.0000      -0.329338        -8.9617
  65   2.0000      -0.326291        -8.8788
  66   2.0000      -0.289882        -7.8881
  67   0.0000       0.029170         0.7938
  68   0.0000       0.064523         1.7558
  69   0.0000       0.106257         2.8914
  70   0.0000       0.122322         3.3285
  71   0.0000       0.125764         3.4222

MULLIKEN ATOMIC CHARGES
-----------------------
   0 S :    0.107370
   1 C :   -0.116654
   2 C :   -0.104245
   3 C :    0.026484
   4 C :   -0.135560
   5 H :    0.015602
   6 C :    0.084429
   7 H :    0.023420
   8 H :    0.031461
   9 C :   -0.071656
  10 H :    0.024677
  11 H :    0.033263
  12 C :   -0.064297
  13 H :    0.025067
  14 H :    0.015463
  15 H :    0.048083
  16 S :    0.086599
  17 C :   -0.101532
  18 C :    0.011077
  19 C :   -0.065976
  20 C :   -0.141086
  21 H :   -0.014667
  22 C :    0.061817
  23 H :    0.033883
  24 H :    0.032392
  25 C :   -0.104684
  26 H :    0.013965
  27 H :    0.017942
  28 C :   -0.065405
  29 H :    0.052253
  30 H :    0.051207
  31 H :    0.058203
  32 H :    0.051513
  33 H :    0.079593
Sum of atomic charges:   -0.0000000

LOEWDIN ATOMIC CHARGES
----------------------
   0 S :    0.396997
   1 C :   -0.191871
   2 C :   -0.058714
   3 C :   -0.056050
   4 C :   -0.184457
   5 H :    0.037208
   6 C :   -0.032955
   7 H :    0.032764
   8 H :    0.032004
   9 C :   -0.039036
  10 H :    0.019983
  11 H :    0.025642
  12 C :   -0.063876
  13 H :    0.025880
  14 H :    0.016886
  15 H :    0.021310
  16 S :    0.391198
  17 C :   -0.193353
  18 C :   -0.069572
  19 C :   -0.058511
  20 C :   -0.190949
  21 H :    0.018881
  22 C :   -0.032866
  23 H :    0.030234
  24 H :    0.037928
  25 C :   -0.046438
  26 H :    0.013157
  27 H :    0.024454
  28 C :   -0.070070
  29 H :    0.026481
  30 H :    0.038583
  31 H :    0.029447
  32 H :    0.025842
  33 H :    0.043836

  Mayer bond orders larger than 0.100000
B(  0-S ,  1-C ) :   1.1385 B(  0-S ,  4-C ) :   1.1427 B(  1-C ,  2-C ) :   1.6146
B(  1-C , 32-H ) :   0.9725 B(  2-C ,  3-C ) :   1.2214 B(  2-C ,  6-C ) :   1.0198
B(  3-C ,  4-C ) :   1.5771 B(  3-C ,  5-H ) :   0.9841 B(  4-C , 20-C ) :   1.0367
B(  6-C ,  7-H ) :   0.9443 B(  6-C ,  8-H ) :   0.9414 B(  6-C ,  9-C ) :   1.0566
B(  9-C , 10-H ) :   0.9618 B(  9-C , 11-H ) :   0.9629 B(  9-C , 12-C ) :   1.0675
B( 12-C , 13-H ) :   0.9722 B( 12-C , 14-H ) :   0.9816 B( 12-C , 15-H ) :   0.9758
B( 16-S , 17-C ) :   1.1615 B( 16-S , 20-C ) :   1.1313 B( 17-C , 18-C ) :   1.5883
B( 17-C , 33-H ) :   0.9578 B( 18-C , 19-C ) :   1.2600 B( 18-C , 21-H ) :   1.0006
B( 19-C , 20-C ) :   1.5801 B( 19-C , 22-C ) :   1.0472 B( 22-C , 23-H ) :   0.9445
B( 22-C , 24-H ) :   0.9304 B( 22-C , 25-C ) :   1.0626 B( 25-C , 26-H ) :   0.9566
B( 25-C , 27-H ) :   0.9563 B( 25-C , 28-C ) :   1.0657 B( 28-C , 29-H ) :   0.9692
B( 28-C , 30-H ) :   0.9692 B( 28-C , 31-H ) :   0.9715

Dispersion correction           -0.015599222
FINAL SINGLE POINT ENERGY     -1339.867944963908

DIPOLE MOMENT
-------------
                                X             Y             Z
Electronic contribution:     20.56341      -9.85806     -18.83614
Nuclear contribution   :    -20.95543      10.06744      19.38022
                        -----------------------------------------
Total Dipole Moment    :     -0.39202       0.20938       0.54407
                        -----------------------------------------
Magnitude (a.u.)       :      0.70252
Magnitude (Debye)      :      1.78567

Rotational constants in cm-1:     0.018851     0.009996     0.007129
Rotational constants in MHz :   565.139017   299.658174   213.711726

                             ****ORCA TERMINATED NORMALLY****
TOTAL RUN TIME: 0 days 0 hours 0 minutes 22 seconds 667 msec
