                         Program Version 4.2.1 -  RELEASE  -
|  1> ! wB97X-D3 SP def2-SVP
|  2> %pal
|  3> nprocs 24
|  4> end
|  5>
|  6> * xyz 0 1
|  7> S 	 -137.425 	 67.5884 	 -55.1788
|  8> C 	 -135.889 	 66.7876 	 -55.6599
|  9> C 	 -135.011 	 66.6607 	 -54.5542
| 10> C 	 -135.627 	 67.2627 	 -53.3721
| 11> C 	 -136.86 	 67.8524 	 -53.5573
| 12> H 	 -135.157 	 67.3291 	 -52.3859
| 13> C 	 -133.613 	 65.9306 	 -54.5257
| 14> H 	 -133.405 	 65.6444 	 -53.4873
| 15> H 	 -132.815 	 66.6745 	 -54.8067
| 16> C 	 -133.408 	 64.6514 	 -55.3897
| 17> H 	 -133.457 	 64.9797 	 -56.4934
| 18> H 	 -132.41 	 64.3729 	 -55.1875
| 19> C 	 -134.53 	 63.4182 	 -55.1652
| 20> H 	 -135.444 	 63.6709 	 -55.5112
| 21> H 	 -134.202 	 62.4972 	 -55.6672
| 22> H 	 -134.569 	 63.2533 	 -54.1199
| 23> S 	 -137.272 	 70.2608 	 -52.2318
| 24> C 	 -138.267 	 70.3223 	 -50.8756
| 25> C 	 -138.842 	 69.0814 	 -50.6555
| 26> C 	 -138.485 	 68.0317 	 -51.5941
| 27> C 	 -137.563 	 68.5528 	 -52.5262
| 28> H 	 -139.624 	 68.9629 	 -49.9883
| 29> C 	 -139.084 	 66.6608 	 -51.5714
| 30> H 	 -138.549 	 66.2306 	 -50.7188
| 31> H 	 -138.665 	 66.1949 	 -52.4736
| 32> C 	 -140.514 	 66.5038 	 -51.2544
| 33> H 	 -141.045 	 67.2292 	 -51.8991
| 34> H 	 -140.549 	 66.7066 	 -50.18
| 35> C 	 -141.043 	 65.1184 	 -51.5151
| 36> H 	 -141.646 	 65.0482 	 -52.3774
| 37> H 	 -141.722 	 64.8738 	 -50.6746
| 38> H 	 -140.308 	 64.2846 	 -51.6249
| 39> H 	 -135.642 	 66.4636 	 -56.6869
| 40> H 	 -138.521 	 71.1353 	 -50.2743
| 41> *
| 42>
| 43>                          ****END OF INPUT****

CARTESIAN COORDINATES (ANGSTROEM)
---------------------------------
  S    -137.425000   67.588400  -55.178800
  C    -135.889000   66.787600  -55.659900
  C    -135.011000   66.660700  -54.554200
  C    -135.627000   67.262700  -53.372100
  C    -136.860000   67.852400  -53.557300
  H    -135.157000   67.329100  -52.385900
  C    -133.613000   65.930600  -54.525700
  H    -133.405000   65.644400  -53.487300
  H    -132.815000   66.674500  -54.806700
  C    -133.408000   64.651400  -55.389700
  H    -133.457000   64.979700  -56.493400
  H    -132.410000   64.372900  -55.187500
  C    -134.530000   63.418200  -55.165200
  H    -135.444000   63.670900  -55.511200
  H    -134.202000   62.497200  -55.667200
  H    -134.569000   63.253300  -54.119900
  S    -137.272000   70.260800  -52.231800
  C    -138.267000   70.322300  -50.875600
  C    -138.842000   69.081400  -50.655500
  C    -138.485000   68.031700  -51.594100
  C    -137.563000   68.552800  -52.526200
  H    -139.624000   68.962900  -49.988300
  C    -139.084000   66.660800  -51.571400
  H    -138.549000   66.230600  -50.718800
  H    -138.665000   66.194900  -52.473600
  C    -140.514000   66.503800  -51.254400
  H    -141.045000   67.229200  -51.899100
  H    -140.549000   66.706600  -50.180000
  C    -141.043000   65.118400  -51.515100
  H    -141.646000   65.048200  -52.377400
  H    -141.722000   64.873800  -50.674600
  H    -140.308000   64.284600  -51.624900
  H    -135.642000   66.463600  -56.686900
  H    -138.521000   71.135300  -50.274300

 Total Charge           Charge          ....    0
 Multiplicity           Mult            ....    1
 Number of Electrons    NEL             ....  134
 Basis Dimension        Dim             ....  322

ORBITAL ENERGIES
----------------

  NO   OCC          E(Eh)            E(eV)
   0   2.0000     -88.967199     -2420.9206
   1   2.0000     -88.963685     -2420.8249
   2   2.0000     -10.323823      -280.9255
   3   2.0000     -10.323350      -280.9126
   4   2.0000     -10.320655      -280.8393
   5   2.0000     -10.313007      -280.6312
   6   2.0000     -10.308756      -280.5155
   7   2.0000     -10.305555      -280.4284
   8   2.0000     -10.302532      -280.3461
   9   2.0000     -10.301815      -280.3266
  10   2.0000     -10.295646      -280.1588
  11   2.0000     -10.285589      -279.8851
  12   2.0000     -10.283712      -279.8340
  13   2.0000     -10.283434      -279.8265
  14   2.0000     -10.277272      -279.6588
  15   2.0000     -10.276280      -279.6318
  16   2.0000      -8.081015      -219.8956
  17   2.0000      -8.079284      -219.8485
  18   2.0000      -6.039563      -164.3449
  19   2.0000      -6.037702      -164.2942
  20   2.0000      -6.035620      -164.2376
  21   2.0000      -6.033490      -164.1796
  22   2.0000      -6.031815      -164.1340
  23   2.0000      -6.030263      -164.0918
  24   2.0000      -1.003853       -27.3162
  25   2.0000      -0.977488       -26.5988
  26   2.0000      -0.922796       -25.1106
  27   2.0000      -0.896059       -24.3830
  28   2.0000      -0.865674       -23.5562
  29   2.0000      -0.851192       -23.1621
  30   2.0000      -0.836282       -22.7564
  31   2.0000      -0.806642       -21.9498
  32   2.0000      -0.787699       -21.4344
  33   2.0000      -0.776991       -21.1430
  34   2.0000      -0.705392       -19.1947
  35   2.0000      -0.704167       -19.1614
  36   2.0000      -0.697946       -18.9921
  37   2.0000      -0.650998       -17.7146
  38   2.0000      -0.635494       -17.2927
  39   2.0000      -0.605194       -16.4682
  40   2.0000      -0.594568       -16.1790
  41   2.0000      -0.581823       -15.8322
  42   2.0000      -0.569238       -15.4897
  43   2.0000      -0.543915       -14.8007
  44   2.0000      -0.534290       -14.5388
  45   2.0000      -0.529558       -14.4100
  46   2.0000      -0.520386       -14.1604
  47   2.0000      -0.508573       -13.8390
  48   2.0000      -0.502748       -13.6805
  49   2.0000      -0.499205       -13.5841
  50   2.0000      -0.488309       -13.2876
  51   2.0000      -0.480317       -13.0701
  52   2.0000      -0.475742       -12.9456
  53   2.0000      -0.465916       -12.6782
  54   2.0000      -0.456206       -12.4140
  55   2.0000      -0.448063       -12.1924
  56   2.0000      -0.442635       -12.0447
  57   2.0000      -0.435343       -11.8463
  58   2.0000      -0.428819       -11.6688
  59   2.0000      -0.421298       -11.4641
  60   2.0000      -0.420589       -11.4448
  61   2.0000      -0.415453       -11.3050
  62   2.0000      -0.412800       -11.2329
  63   2.0000      -0.331008        -9.0072
  64   2.0000      -0.323072        -8.7912
  65   2.0000      -0.316873        -8.6226
  66   2.0000      -0.311306        -8.4711
  67   0.0000       0.046507         1.2655
  68   0.0000       0.054953         1.4954
  69   0.0000       0.112078         3.0498
  70   0.0000       0.123054         3.3485
  71   0.0000       0.125841         3.4243

MULLIKEN ATOMIC CHARGES
-----------------------
   0 S :    0.114784
   1 C :   -0.147103
   2 C :   -0.076739
   3 C :    0.034330
   4 C :   -0.193759
   5 H :    0.020267
   6 C :    0.029844
   7 H :    0.028138
   8 H :    0.057635
   9 C :   -0.103185
  10 H :    0.038411
  11 H :    0.029765
  12 C :   -0.013874
  13 H :    0.019586
  14 H :    0.039476
  15 H :    0.026328
  16 S :    0.133918
  17 C :   -0.056849
  18 C :   -0.028900
  19 C :   -0.042733
  20 C :   -0.204021
  21 H :   -0.013020
  22 C :    0.088813
  23 H :    0.029523
  24 H :    0.026731
  25 C :   -0.078705
  26 H :    0.043781
  27 H :    0.038212
  28 C :   -0.033212
  29 H :    0.025607
  30 H :    0.030793
  31 H :    0.037501
  32 H :    0.063125
  33 H :    0.035529
Sum of atomic charges:    0.0000000

LOEWDIN ATOMIC CHARGES
----------------------
   0 S :    0.395148
   1 C :   -0.192876
   2 C :   -0.060495
   3 C :   -0.058208
   4 C :   -0.214060
   5 H :    0.033779
   6 C :   -0.037523
   7 H :    0.028376
   8 H :    0.043260
   9 C :   -0.037454
  10 H :    0.026482
  11 H :    0.018134
  12 C :   -0.046625
  13 H :    0.008636
  14 H :    0.030508
  15 H :    0.020978
  16 S :    0.438701
  17 C :   -0.197552
  18 C :   -0.073735
  19 C :   -0.039398
  20 C :   -0.218725
  21 H :    0.012422
  22 C :   -0.041457
  23 H :    0.039889
  24 H :    0.029606
  25 C :   -0.044831
  26 H :    0.032475
  27 H :    0.029329
  28 C :   -0.065954
  29 H :    0.021896
  30 H :    0.032119
  31 H :    0.031219
  32 H :    0.032945
  33 H :    0.022992

  Mayer bond orders larger than 0.100000
B(  0-S ,  1-C ) :   1.1377 B(  0-S ,  4-C ) :   1.1312 B(  1-C ,  2-C ) :   1.6114
B(  1-C , 32-H ) :   0.9646 B(  2-C ,  3-C ) :   1.2358 B(  2-C ,  6-C ) :   0.9991
B(  3-C ,  4-C ) :   1.6054 B(  3-C ,  5-H ) :   0.9864 B(  4-C , 20-C ) :   1.0353
B(  6-C ,  7-H ) :   0.9499 B(  6-C ,  8-H ) :   0.9391 B(  6-C ,  9-C ) :   1.0748
B(  9-C , 10-H ) :   0.9581 B(  9-C , 11-H ) :   0.9593 B(  9-C , 12-C ) :   1.0489
B( 12-C , 13-H ) :   0.9799 B( 12-C , 14-H ) :   0.9802 B( 12-C , 15-H ) :   0.9815
B( 16-S , 17-C ) :   1.1777 B( 16-S , 20-C ) :   1.1505 B( 17-C , 18-C ) :   1.5843
B( 17-C , 33-H ) :   0.9734 B( 18-C , 19-C ) :   1.2600 B( 18-C , 21-H ) :   0.9911
B( 19-C , 20-C ) :   1.5664 B( 19-C , 22-C ) :   1.0454 B( 22-C , 23-H ) :   0.9130
B( 22-C , 24-H ) :   0.9298 B( 22-C , 25-C ) :   1.0673 B( 25-C , 26-H ) :   0.9640
B( 25-C , 27-H ) :   0.9466 B( 25-C , 28-C ) :   1.0790 B( 28-C , 29-H ) :   0.9753
B( 28-C , 30-H ) :   0.9762 B( 28-C , 31-H ) :   0.9743

Dispersion correction           -0.014056532
FINAL SINGLE POINT ENERGY     -1339.854246163732

DIPOLE MOMENT
-------------
                                X             Y             Z
Electronic contribution:     -0.54108      24.76399      -2.47906
Nuclear contribution   :      0.61017     -25.26321       2.76994
                        -----------------------------------------
Total Dipole Moment    :      0.06909      -0.49922       0.29088
                        -----------------------------------------
Magnitude (a.u.)       :      0.58190
Magnitude (Debye)      :      1.47906

Rotational constants in cm-1:     0.018573     0.007972     0.006434
Rotational constants in MHz :   556.793616   239.000774   192.900830

                             ****ORCA TERMINATED NORMALLY****
TOTAL RUN TIME: 0 days 0 hours 0 minutes 19 seconds 816 msec
