                         Program Version 4.2.1 -  RELEASE  -
|  1> ! wB97X-D3 SP def2-SVP
|  2> %pal
|  3> nprocs 24
|  4> end
|  5>
|  6> * xyz 0 1
|  7> S 	 -35.3709 	 -11.8017 	 17.6052
|  8> C 	 -35.6029 	 -10.0916 	 17.4986
|  9> C 	 -34.6487 	 -9.62416 	 16.6247
| 10> C 	 -33.8739 	 -10.6384 	 15.975
| 11> C 	 -34.2732 	 -11.931 	 16.2606
| 12> H 	 -33.0647 	 -10.3244 	 15.3
| 13> C 	 -34.4732 	 -8.12674 	 16.3718
| 14> H 	 -33.4725 	 -8.05819 	 16.8342
| 15> H 	 -35.0324 	 -7.48154 	 16.9798
| 16> C 	 -34.4778 	 -7.47912 	 14.9119
| 17> H 	 -34.3592 	 -6.43935 	 15.0811
| 18> H 	 -33.7171 	 -7.90639 	 14.3231
| 19> C 	 -35.7704 	 -7.72421 	 14.13
| 20> H 	 -36.0084 	 -8.78268 	 14.2155
| 21> H 	 -36.5757 	 -7.13298 	 14.5155
| 22> H 	 -35.7057 	 -7.47083 	 13.1227
| 23> S 	 -33.472 	 -14.3925 	 17.1364
| 24> C 	 -32.5203 	 -15.4687 	 16.1861
| 25> C 	 -32.3947 	 -14.9902 	 14.8577
| 26> C 	 -32.9166 	 -13.7023 	 14.7498
| 27> C 	 -33.5606 	 -13.1786 	 15.8734
| 28> H 	 -31.997 	 -15.5656 	 14.0903
| 29> C 	 -32.6896 	 -12.9021 	 13.4631
| 30> H 	 -31.7204 	 -13.114 	 13.1125
| 31> H 	 -32.815 	 -11.8547 	 13.8058
| 32> C 	 -33.5501 	 -13.05 	 12.2103
| 33> H 	 -34.5734 	 -13.0245 	 12.4606
| 34> H 	 -33.1837 	 -13.8718 	 11.6181
| 35> C 	 -33.4988 	 -11.7847 	 11.3259
| 36> H 	 -34.2525 	 -11.9001 	 10.6035
| 37> H 	 -32.5486 	 -11.6818 	 10.749
| 38> H 	 -33.763 	 -10.8213 	 11.7667
| 39> H 	 -36.23 	 -9.41607 	 18.1142
| 40> H 	 -32.1574 	 -16.4476 	 16.4373
| 41> *
| 42>
| 43>                          ****END OF INPUT****

CARTESIAN COORDINATES (ANGSTROEM)
---------------------------------
  S    -35.370900  -11.801700   17.605200
  C    -35.602900  -10.091600   17.498600
  C    -34.648700   -9.624160   16.624700
  C    -33.873900  -10.638400   15.975000
  C    -34.273200  -11.931000   16.260600
  H    -33.064700  -10.324400   15.300000
  C    -34.473200   -8.126740   16.371800
  H    -33.472500   -8.058190   16.834200
  H    -35.032400   -7.481540   16.979800
  C    -34.477800   -7.479120   14.911900
  H    -34.359200   -6.439350   15.081100
  H    -33.717100   -7.906390   14.323100
  C    -35.770400   -7.724210   14.130000
  H    -36.008400   -8.782680   14.215500
  H    -36.575700   -7.132980   14.515500
  H    -35.705700   -7.470830   13.122700
  S    -33.472000  -14.392500   17.136400
  C    -32.520300  -15.468700   16.186100
  C    -32.394700  -14.990200   14.857700
  C    -32.916600  -13.702300   14.749800
  C    -33.560600  -13.178600   15.873400
  H    -31.997000  -15.565600   14.090300
  C    -32.689600  -12.902100   13.463100
  H    -31.720400  -13.114000   13.112500
  H    -32.815000  -11.854700   13.805800
  C    -33.550100  -13.050000   12.210300
  H    -34.573400  -13.024500   12.460600
  H    -33.183700  -13.871800   11.618100
  C    -33.498800  -11.784700   11.325900
  H    -34.252500  -11.900100   10.603500
  H    -32.548600  -11.681800   10.749000
  H    -33.763000  -10.821300   11.766700
  H    -36.230000   -9.416070   18.114200
  H    -32.157400  -16.447600   16.437300

 Total Charge           Charge          ....    0
 Multiplicity           Mult            ....    1
 Number of Electrons    NEL             ....  134
 Basis Dimension        Dim             ....  322

ORBITAL ENERGIES
----------------

  NO   OCC          E(Eh)            E(eV)
   0   2.0000     -88.967700     -2420.9342
   1   2.0000     -88.965982     -2420.8874
   2   2.0000     -10.339536      -281.3531
   3   2.0000     -10.333499      -281.1888
   4   2.0000     -10.319480      -280.8073
   5   2.0000     -10.315267      -280.6927
   6   2.0000     -10.303096      -280.3615
   7   2.0000     -10.301956      -280.3305
   8   2.0000     -10.297250      -280.2024
   9   2.0000     -10.291704      -280.0515
  10   2.0000     -10.290208      -280.0108
  11   2.0000     -10.285084      -279.8714
  12   2.0000     -10.284538      -279.8565
  13   2.0000     -10.281341      -279.7695
  14   2.0000     -10.275153      -279.6011
  15   2.0000     -10.266875      -279.3759
  16   2.0000      -8.082659      -219.9403
  17   2.0000      -8.081063      -219.8969
  18   2.0000      -6.041118      -164.3872
  19   2.0000      -6.039736      -164.3496
  20   2.0000      -6.036899      -164.2724
  21   2.0000      -6.035461      -164.2333
  22   2.0000      -6.033701      -164.1853
  23   2.0000      -6.031652      -164.1296
  24   2.0000      -1.011935       -27.5362
  25   2.0000      -0.990586       -26.9552
  26   2.0000      -0.910816       -24.7846
  27   2.0000      -0.906492       -24.6669
  28   2.0000      -0.871950       -23.7270
  29   2.0000      -0.856379       -23.3033
  30   2.0000      -0.846133       -23.0244
  31   2.0000      -0.818697       -22.2779
  32   2.0000      -0.783399       -21.3174
  33   2.0000      -0.774912       -21.0864
  34   2.0000      -0.711299       -19.3554
  35   2.0000      -0.698742       -19.0137
  36   2.0000      -0.694512       -18.8986
  37   2.0000      -0.668662       -18.1952
  38   2.0000      -0.635360       -17.2890
  39   2.0000      -0.629124       -17.1193
  40   2.0000      -0.593813       -16.1585
  41   2.0000      -0.581958       -15.8359
  42   2.0000      -0.574524       -15.6336
  43   2.0000      -0.550198       -14.9716
  44   2.0000      -0.548318       -14.9205
  45   2.0000      -0.523312       -14.2400
  46   2.0000      -0.517634       -14.0855
  47   2.0000      -0.514684       -14.0053
  48   2.0000      -0.506248       -13.7757
  49   2.0000      -0.500374       -13.6159
  50   2.0000      -0.489165       -13.3109
  51   2.0000      -0.485970       -13.2239
  52   2.0000      -0.473124       -12.8744
  53   2.0000      -0.468162       -12.7393
  54   2.0000      -0.467869       -12.7314
  55   2.0000      -0.449202       -12.2234
  56   2.0000      -0.443296       -12.0627
  57   2.0000      -0.441402       -12.0112
  58   2.0000      -0.433536       -11.7971
  59   2.0000      -0.427524       -11.6335
  60   2.0000      -0.421445       -11.4681
  61   2.0000      -0.407879       -11.0990
  62   2.0000      -0.399751       -10.8778
  63   2.0000      -0.359422        -9.7804
  64   2.0000      -0.333977        -9.0880
  65   2.0000      -0.322885        -8.7861
  66   2.0000      -0.286848        -7.8055
  67   0.0000       0.021951         0.5973
  68   0.0000       0.076497         2.0816
  69   0.0000       0.107499         2.9252
  70   0.0000       0.116482         3.1696
  71   0.0000       0.128948         3.5089

MULLIKEN ATOMIC CHARGES
-----------------------
   0 S :    0.092197
   1 C :   -0.117291
   2 C :   -0.110921
   3 C :   -0.008347
   4 C :   -0.078160
   5 H :    0.035644
   6 C :    0.038882
   7 H :    0.039430
   8 H :   -0.001472
   9 C :   -0.031760
  10 H :    0.026816
  11 H :    0.017497
  12 C :   -0.031408
  13 H :    0.038836
  14 H :    0.017941
  15 H :    0.020648
  16 S :    0.104769
  17 C :   -0.079843
  18 C :   -0.022384
  19 C :   -0.040271
  20 C :   -0.145247
  21 H :   -0.003937
  22 C :    0.069053
  23 H :    0.010653
  24 H :    0.001873
  25 C :   -0.018692
  26 H :    0.022627
  27 H :    0.029414
  28 C :   -0.070651
  29 H :    0.015563
  30 H :    0.031095
  31 H :    0.030619
  32 H :    0.063884
  33 H :    0.052942
Sum of atomic charges:   -0.0000000

LOEWDIN ATOMIC CHARGES
----------------------
   0 S :    0.414120
   1 C :   -0.213477
   2 C :   -0.068496
   3 C :   -0.076636
   4 C :   -0.191262
   5 H :    0.032973
   6 C :   -0.034894
   7 H :    0.042228
   8 H :    0.018355
   9 C :   -0.025664
  10 H :    0.022060
  11 H :    0.014969
  12 C :   -0.059038
  13 H :    0.029052
  14 H :    0.020888
  15 H :    0.017116
  16 S :    0.426028
  17 C :   -0.188604
  18 C :   -0.063911
  19 C :   -0.058131
  20 C :   -0.195172
  21 H :    0.022383
  22 C :   -0.030944
  23 H :    0.023128
  24 H :    0.030584
  25 C :   -0.029572
  26 H :    0.023151
  27 H :    0.024390
  28 C :   -0.065137
  29 H :    0.019325
  30 H :    0.024635
  31 H :    0.024285
  32 H :    0.043435
  33 H :    0.027836

  Mayer bond orders larger than 0.100000
B(  0-S ,  1-C ) :   1.1323 B(  0-S ,  4-C ) :   1.1630 B(  1-C ,  2-C ) :   1.5857
B(  1-C , 32-H ) :   0.9676 B(  2-C ,  3-C ) :   1.2768 B(  2-C ,  6-C ) :   1.0120
B(  3-C ,  4-C ) :   1.5215 B(  3-C ,  5-H ) :   0.9813 B(  4-C , 20-C ) :   1.0486
B(  6-C ,  7-H ) :   0.9343 B(  6-C ,  8-H ) :   0.9495 B(  6-C ,  9-C ) :   1.0656
B(  9-C , 10-H ) :   0.9563 B(  9-C , 11-H ) :   0.9581 B(  9-C , 12-C ) :   1.0824
B( 12-C , 13-H ) :   0.9751 B( 12-C , 14-H ) :   0.9749 B( 12-C , 15-H ) :   0.9750
B( 16-S , 17-C ) :   1.1928 B( 16-S , 20-C ) :   1.1406 B( 17-C , 18-C ) :   1.5423
B( 17-C , 20-C ) :   0.1075 B( 17-C , 33-H ) :   0.9691 B( 18-C , 19-C ) :   1.2987
B( 18-C , 21-H ) :   1.0042 B( 19-C , 20-C ) :   1.5626 B( 19-C , 22-C ) :   1.0338
B( 22-C , 23-H ) :   0.9334 B( 22-C , 24-H ) :   0.9375 B( 22-C , 25-C ) :   1.0843
B( 25-C , 26-H ) :   0.9528 B( 25-C , 27-H ) :   0.9533 B( 25-C , 28-C ) :   1.0888
B( 28-C , 29-H ) :   0.9746 B( 28-C , 30-H ) :   0.9761 B( 28-C , 31-H ) :   0.9718

Dispersion correction           -0.013861771
FINAL SINGLE POINT ENERGY     -1339.846848409134

DIPOLE MOMENT
-------------
                                X             Y             Z
Electronic contribution:     -0.89120     -19.99976      24.89638
Nuclear contribution   :      1.14518      20.39707     -25.39203
                        -----------------------------------------
Total Dipole Moment    :      0.25398       0.39732      -0.49565
                        -----------------------------------------
Magnitude (a.u.)       :      0.68413
Magnitude (Debye)      :      1.73892

Rotational constants in cm-1:     0.017015     0.009817     0.006648
Rotational constants in MHz :   510.090425   294.310993   199.312463

                             ****ORCA TERMINATED NORMALLY****
TOTAL RUN TIME: 0 days 0 hours 0 minutes 21 seconds 807 msec
