                         Program Version 4.2.1 -  RELEASE  -
|  1> ! wB97X-D3 SP def2-SVP
|  2> %pal
|  3> nprocs 24
|  4> end
|  5>
|  6> * xyz 0 1
|  7> S 	 -120.966 	 52.6156 	 -37.6888
|  8> C 	 -120.925 	 53.4463 	 -39.2251
|  9> C 	 -122.154 	 54.0186 	 -39.5181
| 10> C 	 -123.158 	 53.6446 	 -38.513
| 11> C 	 -122.685 	 52.7873 	 -37.5353
| 12> H 	 -124.178 	 53.802 	 -38.4648
| 13> C 	 -122.601 	 54.712 	 -40.7525
| 14> H 	 -121.767 	 55.2769 	 -41.2511
| 15> H 	 -123.409 	 55.4054 	 -40.508
| 16> C 	 -123.138 	 53.7111 	 -41.8221
| 17> H 	 -123.204 	 54.3253 	 -42.7228
| 18> H 	 -122.421 	 52.8603 	 -41.8891
| 19> C 	 -124.548 	 53.099 	 -41.3843
| 20> H 	 -125.291 	 53.7994 	 -40.9027
| 21> H 	 -125.076 	 52.8839 	 -42.3542
| 22> H 	 -124.392 	 52.308 	 -40.6725
| 23> S 	 -122.445 	 52.2165 	 -34.8355
| 24> C 	 -123.766 	 51.5759 	 -33.9846
| 25> C 	 -124.905 	 51.47 	 -34.7538
| 26> C 	 -124.685 	 51.7997 	 -36.1058
| 27> C 	 -123.399 	 52.2595 	 -36.327
| 28> H 	 -125.787 	 51.0528 	 -34.2865
| 29> C 	 -125.805 	 51.6704 	 -37.1639
| 30> H 	 -126.213 	 50.7012 	 -37.0647
| 31> H 	 -125.329 	 51.7626 	 -38.1747
| 32> C 	 -126.992 	 52.6189 	 -37.066
| 33> H 	 -126.534 	 53.5828 	 -36.9021
| 34> H 	 -127.668 	 52.3994 	 -36.1946
| 35> C 	 -127.75 	 52.6261 	 -38.4214
| 36> H 	 -127.231 	 53.0131 	 -39.3101
| 37> H 	 -128.631 	 53.2934 	 -38.4577
| 38> H 	 -128.137 	 51.6158 	 -38.5161
| 39> H 	 -120.088 	 53.6046 	 -39.8781
| 40> H 	 -123.485 	 51.3118 	 -32.9862
| 41> *
| 42>
| 43>                          ****END OF INPUT****

CARTESIAN COORDINATES (ANGSTROEM)
---------------------------------
  S    -120.966000   52.615600  -37.688800
  C    -120.925000   53.446300  -39.225100
  C    -122.154000   54.018600  -39.518100
  C    -123.158000   53.644600  -38.513000
  C    -122.685000   52.787300  -37.535300
  H    -124.178000   53.802000  -38.464800
  C    -122.601000   54.712000  -40.752500
  H    -121.767000   55.276900  -41.251100
  H    -123.409000   55.405400  -40.508000
  C    -123.138000   53.711100  -41.822100
  H    -123.204000   54.325300  -42.722800
  H    -122.421000   52.860300  -41.889100
  C    -124.548000   53.099000  -41.384300
  H    -125.291000   53.799400  -40.902700
  H    -125.076000   52.883900  -42.354200
  H    -124.392000   52.308000  -40.672500
  S    -122.445000   52.216500  -34.835500
  C    -123.766000   51.575900  -33.984600
  C    -124.905000   51.470000  -34.753800
  C    -124.685000   51.799700  -36.105800
  C    -123.399000   52.259500  -36.327000
  H    -125.787000   51.052800  -34.286500
  C    -125.805000   51.670400  -37.163900
  H    -126.213000   50.701200  -37.064700
  H    -125.329000   51.762600  -38.174700
  C    -126.992000   52.618900  -37.066000
  H    -126.534000   53.582800  -36.902100
  H    -127.668000   52.399400  -36.194600
  C    -127.750000   52.626100  -38.421400
  H    -127.231000   53.013100  -39.310100
  H    -128.631000   53.293400  -38.457700
  H    -128.137000   51.615800  -38.516100
  H    -120.088000   53.604600  -39.878100
  H    -123.485000   51.311800  -32.986200

 Total Charge           Charge          ....    0
 Multiplicity           Mult            ....    1
 Number of Electrons    NEL             ....  134
 Basis Dimension        Dim             ....  322

ORBITAL ENERGIES
----------------

  NO   OCC          E(Eh)            E(eV)
   0   2.0000     -88.964708     -2420.8528
   1   2.0000     -88.963080     -2420.8085
   2   2.0000     -10.330910      -281.1184
   3   2.0000     -10.330702      -281.1127
   4   2.0000     -10.314273      -280.6656
   5   2.0000     -10.313850      -280.6541
   6   2.0000     -10.306167      -280.4451
   7   2.0000     -10.304057      -280.3876
   8   2.0000     -10.296673      -280.1867
   9   2.0000     -10.294654      -280.1318
  10   2.0000     -10.293992      -280.1138
  11   2.0000     -10.293252      -280.0936
  12   2.0000     -10.292367      -280.0696
  13   2.0000     -10.289707      -279.9972
  14   2.0000     -10.288235      -279.9571
  15   2.0000     -10.284418      -279.8532
  16   2.0000      -8.079730      -219.8606
  17   2.0000      -8.079178      -219.8456
  18   2.0000      -6.038371      -164.3124
  19   2.0000      -6.037483      -164.2883
  20   2.0000      -6.034180      -164.1984
  21   2.0000      -6.033478      -164.1793
  22   2.0000      -6.030342      -164.0939
  23   2.0000      -6.030089      -164.0871
  24   2.0000      -1.009008       -27.4565
  25   2.0000      -0.987357       -26.8673
  26   2.0000      -0.912689       -24.8355
  27   2.0000      -0.909631       -24.7523
  28   2.0000      -0.864521       -23.5248
  29   2.0000      -0.855513       -23.2797
  30   2.0000      -0.837573       -22.7915
  31   2.0000      -0.813920       -22.1479
  32   2.0000      -0.784159       -21.3381
  33   2.0000      -0.774135       -21.0653
  34   2.0000      -0.703261       -19.1367
  35   2.0000      -0.701730       -19.0950
  36   2.0000      -0.691314       -18.8116
  37   2.0000      -0.666446       -18.1349
  38   2.0000      -0.644198       -17.5295
  39   2.0000      -0.615437       -16.7469
  40   2.0000      -0.601806       -16.3760
  41   2.0000      -0.577291       -15.7089
  42   2.0000      -0.574534       -15.6339
  43   2.0000      -0.544804       -14.8249
  44   2.0000      -0.537559       -14.6277
  45   2.0000      -0.521563       -14.1924
  46   2.0000      -0.515940       -14.0394
  47   2.0000      -0.512639       -13.9496
  48   2.0000      -0.505312       -13.7503
  49   2.0000      -0.494971       -13.4688
  50   2.0000      -0.493337       -13.4244
  51   2.0000      -0.481227       -13.0949
  52   2.0000      -0.471416       -12.8279
  53   2.0000      -0.468684       -12.7535
  54   2.0000      -0.463174       -12.6036
  55   2.0000      -0.448381       -12.2011
  56   2.0000      -0.443556       -12.0698
  57   2.0000      -0.436190       -11.8693
  58   2.0000      -0.430280       -11.7085
  59   2.0000      -0.426560       -11.6073
  60   2.0000      -0.421247       -11.4627
  61   2.0000      -0.415929       -11.3180
  62   2.0000      -0.413605       -11.2548
  63   2.0000      -0.353542        -9.6204
  64   2.0000      -0.335812        -9.1379
  65   2.0000      -0.324686        -8.8352
  66   2.0000      -0.289599        -7.8804
  67   0.0000       0.028907         0.7866
  68   0.0000       0.077362         2.1051
  69   0.0000       0.105366         2.8672
  70   0.0000       0.117840         3.2066
  71   0.0000       0.127247         3.4626

MULLIKEN ATOMIC CHARGES
-----------------------
   0 S :    0.100761
   1 C :   -0.098708
   2 C :   -0.079605
   3 C :    0.045417
   4 C :   -0.134660
   5 H :   -0.037077
   6 C :    0.034759
   7 H :    0.030240
   8 H :    0.033225
   9 C :   -0.066515
  10 H :    0.038802
  11 H :    0.043675
  12 C :   -0.107771
  13 H :    0.032908
  14 H :    0.047494
  15 H :    0.064465
  16 S :    0.093653
  17 C :   -0.096084
  18 C :   -0.023541
  19 C :   -0.039628
  20 C :   -0.144993
  21 H :    0.020357
  22 C :    0.063765
  23 H :    0.015914
  24 H :    0.029232
  25 C :   -0.067250
  26 H :    0.025557
  27 H :    0.044187
  28 C :   -0.064409
  29 H :    0.037366
  30 H :    0.029574
  31 H :    0.033610
  32 H :    0.039871
  33 H :    0.055411
Sum of atomic charges:    0.0000000

LOEWDIN ATOMIC CHARGES
----------------------
   0 S :    0.405490
   1 C :   -0.199806
   2 C :   -0.058165
   3 C :   -0.060651
   4 C :   -0.191120
   5 H :    0.013802
   6 C :   -0.040511
   7 H :    0.032018
   8 H :    0.031269
   9 C :   -0.031010
  10 H :    0.023629
  11 H :    0.031308
  12 C :   -0.078955
  13 H :    0.022990
  14 H :    0.035175
  15 H :    0.024296
  16 S :    0.415606
  17 C :   -0.186806
  18 C :   -0.075133
  19 C :   -0.057081
  20 C :   -0.189610
  21 H :    0.033484
  22 C :   -0.029235
  23 H :    0.024189
  24 H :    0.034420
  25 C :   -0.040914
  26 H :    0.018919
  27 H :    0.031574
  28 C :   -0.071072
  29 H :    0.028234
  30 H :    0.027855
  31 H :    0.025989
  32 H :    0.028437
  33 H :    0.021384

  Mayer bond orders larger than 0.100000
B(  0-S ,  1-C ) :   1.1277 B(  0-S ,  4-C ) :   1.1511 B(  1-C ,  2-C ) :   1.6245
B(  1-C , 32-H ) :   0.9701 B(  2-C ,  3-C ) :   1.2001 B(  2-C ,  6-C ) :   1.0511
B(  3-C ,  4-C ) :   1.5925 B(  3-C ,  5-H ) :   0.9993 B(  4-C , 20-C ) :   1.0187
B(  6-C ,  7-H ) :   0.9391 B(  6-C ,  8-H ) :   0.9406 B(  6-C ,  9-C ) :   1.0603
B(  9-C , 10-H ) :   0.9615 B(  9-C , 11-H ) :   0.9552 B(  9-C , 12-C ) :   1.0651
B( 12-C , 13-H ) :   0.9738 B( 12-C , 14-H ) :   0.9728 B( 12-C , 15-H ) :   0.9711
B( 16-S , 17-C ) :   1.1878 B( 16-S , 20-C ) :   1.1476 B( 17-C , 18-C ) :   1.5633
B( 17-C , 33-H ) :   0.9755 B( 18-C , 19-C ) :   1.2433 B( 18-C , 21-H ) :   1.0009
B( 19-C , 20-C ) :   1.6076 B( 19-C , 22-C ) :   1.0406 B( 22-C , 23-H ) :   0.9241
B( 22-C , 24-H ) :   0.9394 B( 22-C , 25-C ) :   1.0571 B( 25-C , 26-H ) :   0.9573
B( 25-C , 27-H ) :   0.9510 B( 25-C , 28-C ) :   1.0802 B( 28-C , 29-H ) :   0.9740
B( 28-C , 30-H ) :   0.9723 B( 28-C , 31-H ) :   0.9745

Dispersion correction           -0.015522524
FINAL SINGLE POINT ENERGY     -1339.875510679955

DIPOLE MOMENT
-------------
                                X             Y             Z
Electronic contribution:     23.69701      -3.67883      21.18077
Nuclear contribution   :    -24.26674       3.74549     -21.52036
                        -----------------------------------------
Total Dipole Moment    :     -0.56972       0.06666      -0.33959
                        -----------------------------------------
Magnitude (a.u.)       :      0.66660
Magnitude (Debye)      :      1.69435

Rotational constants in cm-1:     0.016674     0.011070     0.006948
Rotational constants in MHz :   499.878395   331.865269   208.302904

                             ****ORCA TERMINATED NORMALLY****
TOTAL RUN TIME: 0 days 0 hours 0 minutes 22 seconds 685 msec
