                         Program Version 4.2.1 -  RELEASE  -
|  1> ! wB97X-D3 SP def2-SVP
|  2> %pal
|  3> nprocs 24
|  4> end
|  5>
|  6> * xyz 0 1
|  7> S 	 -135.551 	 7.57352 	 -13.6481
|  8> C 	 -136.446 	 7.77335 	 -12.1379
|  9> C 	 -136.155 	 9.00926 	 -11.5965
| 10> C 	 -135.159 	 9.69158 	 -12.3863
| 11> C 	 -134.645 	 8.96271 	 -13.458
| 12> H 	 -134.778 	 10.7165 	 -12.3125
| 13> C 	 -136.698 	 9.52708 	 -10.2953
| 14> H 	 -136.337 	 8.90323 	 -9.55049
| 15> H 	 -137.839 	 9.49911 	 -10.2205
| 16> C 	 -136.191 	 10.9691 	 -9.79746
| 17> H 	 -136.446 	 11.0401 	 -8.70686
| 18> H 	 -135.09 	 11.0606 	 -9.86922
| 19> C 	 -136.742 	 12.3236 	 -10.4462
| 20> H 	 -136.672 	 12.3683 	 -11.5551
| 21> H 	 -137.872 	 12.4715 	 -10.3906
| 22> H 	 -136.311 	 13.1297 	 -9.93434
| 23> S 	 -134.09 	 11.0414 	 -15.1453
| 24> C 	 -132.664 	 11.012 	 -16.1139
| 25> C 	 -131.978 	 9.87379 	 -15.8321
| 26> C 	 -132.571 	 8.95965 	 -14.9678
| 27> C 	 -133.752 	 9.4671 	 -14.5125
| 28> H 	 -131.122 	 9.76937 	 -16.401
| 29> C 	 -131.982 	 7.55642 	 -14.6666
| 30> H 	 -132.356 	 7.15645 	 -13.6928
| 31> H 	 -131.012 	 7.74449 	 -14.441
| 32> C 	 -132.245 	 6.45845 	 -15.6915
| 33> H 	 -131.677 	 6.61098 	 -16.5774
| 34> H 	 -133.266 	 6.43942 	 -15.9723
| 35> C 	 -131.896 	 5.07724 	 -14.988
| 36> H 	 -130.79 	 4.83876 	 -14.758
| 37> H 	 -132.249 	 4.1803 	 -15.5216
| 38> H 	 -132.433 	 4.91948 	 -13.9755
| 39> H 	 -137.321 	 7.25468 	 -11.8097
| 40> H 	 -132.296 	 11.8087 	 -16.7924
| 41> *
| 42>
| 43>                          ****END OF INPUT****

CARTESIAN COORDINATES (ANGSTROEM)
---------------------------------
  S    -135.551000    7.573520  -13.648100
  C    -136.446000    7.773350  -12.137900
  C    -136.155000    9.009260  -11.596500
  C    -135.159000    9.691580  -12.386300
  C    -134.645000    8.962710  -13.458000
  H    -134.778000   10.716500  -12.312500
  C    -136.698000    9.527080  -10.295300
  H    -136.337000    8.903230   -9.550490
  H    -137.839000    9.499110  -10.220500
  C    -136.191000   10.969100   -9.797460
  H    -136.446000   11.040100   -8.706860
  H    -135.090000   11.060600   -9.869220
  C    -136.742000   12.323600  -10.446200
  H    -136.672000   12.368300  -11.555100
  H    -137.872000   12.471500  -10.390600
  H    -136.311000   13.129700   -9.934340
  S    -134.090000   11.041400  -15.145300
  C    -132.664000   11.012000  -16.113900
  C    -131.978000    9.873790  -15.832100
  C    -132.571000    8.959650  -14.967800
  C    -133.752000    9.467100  -14.512500
  H    -131.122000    9.769370  -16.401000
  C    -131.982000    7.556420  -14.666600
  H    -132.356000    7.156450  -13.692800
  H    -131.012000    7.744490  -14.441000
  C    -132.245000    6.458450  -15.691500
  H    -131.677000    6.610980  -16.577400
  H    -133.266000    6.439420  -15.972300
  C    -131.896000    5.077240  -14.988000
  H    -130.790000    4.838760  -14.758000
  H    -132.249000    4.180300  -15.521600
  H    -132.433000    4.919480  -13.975500
  H    -137.321000    7.254680  -11.809700
  H    -132.296000   11.808700  -16.792400

 Total Charge           Charge          ....    0
 Multiplicity           Mult            ....    1
 Number of Electrons    NEL             ....  134
 Basis Dimension        Dim             ....  322

ORBITAL ENERGIES
----------------

  NO   OCC          E(Eh)            E(eV)
   0   2.0000     -88.965786     -2420.8821
   1   2.0000     -88.965327     -2420.8696
   2   2.0000     -10.323001      -280.9032
   3   2.0000     -10.322739      -280.8960
   4   2.0000     -10.314119      -280.6614
   5   2.0000     -10.309672      -280.5404
   6   2.0000     -10.303811      -280.3809
   7   2.0000     -10.301795      -280.3261
   8   2.0000     -10.299160      -280.2544
   9   2.0000     -10.298242      -280.2294
  10   2.0000     -10.291931      -280.0577
  11   2.0000     -10.291470      -280.0451
  12   2.0000     -10.287095      -279.9261
  13   2.0000     -10.286124      -279.8997
  14   2.0000     -10.283305      -279.8229
  15   2.0000     -10.281039      -279.7613
  16   2.0000      -8.081179      -219.9001
  17   2.0000      -8.080759      -219.8886
  18   2.0000      -6.039526      -164.3439
  19   2.0000      -6.039132      -164.3331
  20   2.0000      -6.035506      -164.2345
  21   2.0000      -6.035075      -164.2227
  22   2.0000      -6.032140      -164.1429
  23   2.0000      -6.031713      -164.1313
  24   2.0000      -1.016771       -27.6677
  25   2.0000      -0.993151       -27.0250
  26   2.0000      -0.907014       -24.6811
  27   2.0000      -0.903345       -24.5813
  28   2.0000      -0.867707       -23.6115
  29   2.0000      -0.849124       -23.1058
  30   2.0000      -0.838466       -22.8158
  31   2.0000      -0.813663       -22.1409
  32   2.0000      -0.785422       -21.3724
  33   2.0000      -0.772541       -21.0219
  34   2.0000      -0.710835       -19.3428
  35   2.0000      -0.704685       -19.1754
  36   2.0000      -0.690397       -18.7867
  37   2.0000      -0.666138       -18.1265
  38   2.0000      -0.633521       -17.2390
  39   2.0000      -0.617361       -16.7992
  40   2.0000      -0.599860       -16.3230
  41   2.0000      -0.571490       -15.5510
  42   2.0000      -0.562516       -15.3068
  43   2.0000      -0.547948       -14.9104
  44   2.0000      -0.527225       -14.3465
  45   2.0000      -0.520971       -14.1763
  46   2.0000      -0.515010       -14.0141
  47   2.0000      -0.513691       -13.9782
  48   2.0000      -0.504661       -13.7325
  49   2.0000      -0.500804       -13.6276
  50   2.0000      -0.491810       -13.3828
  51   2.0000      -0.481095       -13.0913
  52   2.0000      -0.471276       -12.8241
  53   2.0000      -0.460904       -12.5418
  54   2.0000      -0.452305       -12.3078
  55   2.0000      -0.442112       -12.0305
  56   2.0000      -0.438264       -11.9258
  57   2.0000      -0.434756       -11.8303
  58   2.0000      -0.431865       -11.7516
  59   2.0000      -0.427780       -11.6405
  60   2.0000      -0.418085       -11.3767
  61   2.0000      -0.417673       -11.3655
  62   2.0000      -0.414486       -11.2787
  63   2.0000      -0.344621        -9.3776
  64   2.0000      -0.336271        -9.1504
  65   2.0000      -0.326201        -8.8764
  66   2.0000      -0.298147        -8.1130
  67   0.0000       0.036249         0.9864
  68   0.0000       0.070768         1.9257
  69   0.0000       0.112895         3.0720
  70   0.0000       0.125068         3.4033
  71   0.0000       0.141058         3.8384

MULLIKEN ATOMIC CHARGES
-----------------------
   0 S :    0.114688
   1 C :   -0.112227
   2 C :   -0.081145
   3 C :   -0.023558
   4 C :   -0.129667
   5 H :    0.017058
   6 C :    0.072711
   7 H :    0.033154
   8 H :    0.047275
   9 C :   -0.129352
  10 H :    0.039788
  11 H :    0.044287
  12 C :   -0.069411
  13 H :    0.040150
  14 H :    0.027409
  15 H :    0.035878
  16 S :    0.116707
  17 C :   -0.113960
  18 C :   -0.017958
  19 C :   -0.016353
  20 C :   -0.171368
  21 H :   -0.017234
  22 C :    0.106591
  23 H :    0.017585
  24 H :   -0.001079
  25 C :    0.013420
  26 H :    0.026891
  27 H :    0.025479
  28 C :   -0.134810
  29 H :    0.046762
  30 H :    0.034745
  31 H :    0.043894
  32 H :    0.043830
  33 H :    0.069819
Sum of atomic charges:    0.0000000

LOEWDIN ATOMIC CHARGES
----------------------
   0 S :    0.444140
   1 C :   -0.203339
   2 C :   -0.059572
   3 C :   -0.080814
   4 C :   -0.220105
   5 H :    0.027299
   6 C :   -0.032679
   7 H :    0.030137
   8 H :    0.041567
   9 C :   -0.044539
  10 H :    0.030960
  11 H :    0.027065
  12 C :   -0.076959
  13 H :    0.027616
  14 H :    0.029192
  15 H :    0.019363
  16 S :    0.429424
  17 C :   -0.198810
  18 C :   -0.069878
  19 C :   -0.057081
  20 C :   -0.202114
  21 H :    0.018589
  22 C :   -0.021612
  23 H :    0.033286
  24 H :    0.016626
  25 C :   -0.024264
  26 H :    0.021646
  27 H :    0.022939
  28 C :   -0.086945
  29 H :    0.032285
  30 H :    0.023600
  31 H :    0.033874
  32 H :    0.027784
  33 H :    0.041319

  Mayer bond orders larger than 0.100000
B(  0-S ,  1-C ) :   1.1428 B(  0-S ,  4-C ) :   1.1961 B(  1-C ,  2-C ) :   1.5968
B(  1-C , 32-H ) :   0.9737 B(  2-C ,  3-C ) :   1.2615 B(  2-C ,  6-C ) :   1.0092
B(  3-C ,  4-C ) :   1.5475 B(  3-C ,  5-H ) :   0.9911 B(  4-C , 20-C ) :   0.9964
B(  6-C ,  7-H ) :   0.9370 B(  6-C ,  8-H ) :   0.9396 B(  6-C ,  9-C ) :   1.0790
B(  9-C , 10-H ) :   0.9585 B(  9-C , 11-H ) :   0.9532 B(  9-C , 12-C ) :   1.0649
B( 12-C , 13-H ) :   0.9773 B( 12-C , 14-H ) :   0.9746 B( 12-C , 15-H ) :   0.9770
B( 16-S , 17-C ) :   1.1539 B( 16-S , 20-C ) :   1.1635 B( 17-C , 18-C ) :   1.6063
B( 17-C , 33-H ) :   0.9638 B( 18-C , 19-C ) :   1.2522 B( 18-C , 21-H ) :   1.0037
B( 19-C , 20-C ) :   1.5825 B( 19-C , 22-C ) :   1.0304 B( 22-C , 23-H ) :   0.9343
B( 22-C , 24-H ) :   0.9255 B( 22-C , 25-C ) :   1.0616 B( 25-C , 26-H ) :   0.9555
B( 25-C , 27-H ) :   0.9523 B( 25-C , 28-C ) :   1.0651 B( 28-C , 29-H ) :   0.9775
B( 28-C , 30-H ) :   0.9768 B( 28-C , 31-H ) :   0.9738

Dispersion correction           -0.014321762
FINAL SINGLE POINT ENERGY     -1339.854753196776

DIPOLE MOMENT
-------------
                                X             Y             Z
Electronic contribution:     -2.60015       3.75928     -11.19928
Nuclear contribution   :      2.73889      -3.69427      11.36864
                        -----------------------------------------
Total Dipole Moment    :      0.13874       0.06500       0.16935
                        -----------------------------------------
Magnitude (a.u.)       :      0.22837
Magnitude (Debye)      :      0.58048

Rotational constants in cm-1:     0.019668     0.008793     0.006669
Rotational constants in MHz :   589.642869   263.618161   199.928735

                             ****ORCA TERMINATED NORMALLY****
TOTAL RUN TIME: 0 days 0 hours 0 minutes 20 seconds 88 msec
