                         Program Version 4.2.1 -  RELEASE  -
|  1> ! wB97X-D3 SP def2-SVP
|  2> %pal
|  3> nprocs 24
|  4> end
|  5>
|  6> * xyz 0 1
|  7> S 	 -144.679 	 3.98286 	 1.98498
|  8> C 	 -143.789 	 4.5507 	 0.650339
|  9> C 	 -142.766 	 5.43423 	 1.03221
| 10> C 	 -142.716 	 5.5728 	 2.429
| 11> C 	 -143.705 	 4.83207 	 3.12155
| 12> H 	 -142.086 	 6.33871 	 2.99343
| 13> C 	 -141.821 	 6.12822 	 0.118022
| 14> H 	 -141.443 	 6.92604 	 0.721979
| 15> H 	 -142.45 	 6.51547 	 -0.615684
| 16> C 	 -140.725 	 5.2797 	 -0.472979
| 17> H 	 -140.082 	 5.11601 	 0.395245
| 18> H 	 -141.098 	 4.25076 	 -0.730262
| 19> C 	 -140.024 	 5.86302 	 -1.70343
| 20> H 	 -139.396 	 6.72053 	 -1.36232
| 21> H 	 -139.429 	 4.99392 	 -2.18884
| 22> H 	 -140.712 	 6.42001 	 -2.42728
| 23> S 	 -143.962 	 3.11376 	 5.22633
| 24> C 	 -144.312 	 3.72464 	 6.82895
| 25> C 	 -144.276 	 5.0554 	 6.77414
| 26> C 	 -144.045 	 5.69099 	 5.55133
| 27> C 	 -143.838 	 4.75759 	 4.57094
| 28> H 	 -144.507 	 5.55709 	 7.76439
| 29> C 	 -143.848 	 7.17432 	 5.36681
| 30> H 	 -144.667 	 7.5459 	 4.85349
| 31> H 	 -142.986 	 7.34679 	 4.72221
| 32> C 	 -143.686 	 8.11153 	 6.61134
| 33> H 	 -142.986 	 7.66941 	 7.34834
| 34> H 	 -144.618 	 8.19296 	 7.19643
| 35> C 	 -143.201 	 9.41384 	 6.2439
| 36> H 	 -142.209 	 9.55701 	 5.97306
| 37> H 	 -143.051 	 10.0889 	 7.10707
| 38> H 	 -143.957 	 9.84857 	 5.5219
| 39> H 	 -143.972 	 4.2716 	 -0.387557
| 40> H 	 -144.558 	 3.22151 	 7.72286
| 41> *
| 42>
| 43>                          ****END OF INPUT****

CARTESIAN COORDINATES (ANGSTROEM)
---------------------------------
  S    -144.679000    3.982860    1.984980
  C    -143.789000    4.550700    0.650339
  C    -142.766000    5.434230    1.032210
  C    -142.716000    5.572800    2.429000
  C    -143.705000    4.832070    3.121550
  H    -142.086000    6.338710    2.993430
  C    -141.821000    6.128220    0.118022
  H    -141.443000    6.926040    0.721979
  H    -142.450000    6.515470   -0.615684
  C    -140.725000    5.279700   -0.472979
  H    -140.082000    5.116010    0.395245
  H    -141.098000    4.250760   -0.730262
  C    -140.024000    5.863020   -1.703430
  H    -139.396000    6.720530   -1.362320
  H    -139.429000    4.993920   -2.188840
  H    -140.712000    6.420010   -2.427280
  S    -143.962000    3.113760    5.226330
  C    -144.312000    3.724640    6.828950
  C    -144.276000    5.055400    6.774140
  C    -144.045000    5.690990    5.551330
  C    -143.838000    4.757590    4.570940
  H    -144.507000    5.557090    7.764390
  C    -143.848000    7.174320    5.366810
  H    -144.667000    7.545900    4.853490
  H    -142.986000    7.346790    4.722210
  C    -143.686000    8.111530    6.611340
  H    -142.986000    7.669410    7.348340
  H    -144.618000    8.192960    7.196430
  C    -143.201000    9.413840    6.243900
  H    -142.209000    9.557010    5.973060
  H    -143.051000   10.088900    7.107070
  H    -143.957000    9.848570    5.521900
  H    -143.972000    4.271600   -0.387557
  H    -144.558000    3.221510    7.722860

 Total Charge           Charge          ....    0
 Multiplicity           Mult            ....    1
 Number of Electrons    NEL             ....  134
 Basis Dimension        Dim             ....  322

ORBITAL ENERGIES
----------------

  NO   OCC          E(Eh)            E(eV)
   0   2.0000     -88.971506     -2421.0378
   1   2.0000     -88.960228     -2420.7309
   2   2.0000     -10.327182      -281.0169
   3   2.0000     -10.324826      -280.9528
   4   2.0000     -10.311039      -280.5776
   5   2.0000     -10.306600      -280.4568
   6   2.0000     -10.298741      -280.2430
   7   2.0000     -10.297303      -280.2039
   8   2.0000     -10.296123      -280.1718
   9   2.0000     -10.294844      -280.1369
  10   2.0000     -10.287894      -279.9478
  11   2.0000     -10.287493      -279.9369
  12   2.0000     -10.287099      -279.9262
  13   2.0000     -10.286402      -279.9072
  14   2.0000     -10.279612      -279.7225
  15   2.0000     -10.274673      -279.5881
  16   2.0000      -8.086838      -220.0540
  17   2.0000      -8.074818      -219.7270
  18   2.0000      -6.045176      -164.4976
  19   2.0000      -6.040980      -164.3834
  20   2.0000      -6.038030      -164.3032
  21   2.0000      -6.033385      -164.1767
  22   2.0000      -6.029341      -164.0667
  23   2.0000      -6.025520      -163.9627
  24   2.0000      -1.011470       -27.5235
  25   2.0000      -0.991094       -26.9690
  26   2.0000      -0.919471       -25.0201
  27   2.0000      -0.917366       -24.9628
  28   2.0000      -0.871827       -23.7236
  29   2.0000      -0.859207       -23.3802
  30   2.0000      -0.850090       -23.1321
  31   2.0000      -0.813257       -22.1299
  32   2.0000      -0.784434       -21.3455
  33   2.0000      -0.774256       -21.0686
  34   2.0000      -0.705689       -19.2028
  35   2.0000      -0.704830       -19.1794
  36   2.0000      -0.699211       -19.0265
  37   2.0000      -0.651181       -17.7195
  38   2.0000      -0.636827       -17.3290
  39   2.0000      -0.619546       -16.8587
  40   2.0000      -0.604019       -16.4362
  41   2.0000      -0.575681       -15.6651
  42   2.0000      -0.572506       -15.5787
  43   2.0000      -0.556893       -15.1538
  44   2.0000      -0.538581       -14.6555
  45   2.0000      -0.528137       -14.3713
  46   2.0000      -0.520012       -14.1502
  47   2.0000      -0.514763       -14.0074
  48   2.0000      -0.503193       -13.6926
  49   2.0000      -0.498606       -13.5678
  50   2.0000      -0.496829       -13.5194
  51   2.0000      -0.482331       -13.1249
  52   2.0000      -0.472168       -12.8483
  53   2.0000      -0.466958       -12.7066
  54   2.0000      -0.460426       -12.5288
  55   2.0000      -0.453771       -12.3477
  56   2.0000      -0.440660       -11.9910
  57   2.0000      -0.436252       -11.8710
  58   2.0000      -0.430267       -11.7081
  59   2.0000      -0.422184       -11.4882
  60   2.0000      -0.417913       -11.3720
  61   2.0000      -0.410289       -11.1645
  62   2.0000      -0.407655       -11.0929
  63   2.0000      -0.344789        -9.3822
  64   2.0000      -0.332248        -9.0409
  65   2.0000      -0.330354        -8.9894
  66   2.0000      -0.290234        -7.8977
  67   0.0000       0.030309         0.8247
  68   0.0000       0.072608         1.9758
  69   0.0000       0.118038         3.2120
  70   0.0000       0.125488         3.4147
  71   0.0000       0.140971         3.8360

MULLIKEN ATOMIC CHARGES
-----------------------
   0 S :    0.153628
   1 C :   -0.137304
   2 C :   -0.122334
   3 C :   -0.007524
   4 C :   -0.164178
   5 H :    0.039009
   6 C :    0.141985
   7 H :    0.008240
   8 H :    0.004366
   9 C :   -0.083605
  10 H :    0.029542
  11 H :    0.032407
  12 C :   -0.080309
  13 H :    0.035734
  14 H :    0.064105
  15 H :    0.041769
  16 S :    0.089915
  17 C :   -0.055996
  18 C :   -0.086623
  19 C :    0.018064
  20 C :   -0.192097
  21 H :    0.030672
  22 C :    0.101571
  23 H :    0.015041
  24 H :    0.021341
  25 C :   -0.080677
  26 H :    0.023838
  27 H :    0.034015
  28 C :   -0.028654
  29 H :    0.014013
  30 H :    0.018580
  31 H :    0.039505
  32 H :    0.049199
  33 H :    0.032764
Sum of atomic charges:    0.0000000

LOEWDIN ATOMIC CHARGES
----------------------
   0 S :    0.459577
   1 C :   -0.221015
   2 C :   -0.064277
   3 C :   -0.072404
   4 C :   -0.219851
   5 H :    0.039164
   6 C :   -0.028429
   7 H :    0.027741
   8 H :    0.021952
   9 C :   -0.048720
  10 H :    0.028431
  11 H :    0.026438
  12 C :   -0.081682
  13 H :    0.028256
  14 H :    0.042511
  15 H :    0.031950
  16 S :    0.389356
  17 C :   -0.182678
  18 C :   -0.083947
  19 C :   -0.059439
  20 C :   -0.182839
  21 H :    0.039298
  22 C :   -0.022358
  23 H :    0.026976
  24 H :    0.031612
  25 C :   -0.047182
  26 H :    0.024166
  27 H :    0.026900
  28 C :   -0.074314
  29 H :    0.018469
  30 H :    0.034841
  31 H :    0.034440
  32 H :    0.029763
  33 H :    0.027291

  Mayer bond orders larger than 0.100000
B(  0-S ,  1-C ) :   1.1774 B(  0-S ,  4-C ) :   1.1907 B(  1-C ,  2-C ) :   1.5329
B(  1-C ,  4-C ) :   0.1078 B(  1-C , 32-H ) :   0.9683 B(  2-C ,  3-C ) :   1.3306
B(  2-C ,  6-C ) :   1.0163 B(  3-C ,  4-C ) :   1.5021 B(  3-C ,  5-H ) :   0.9736
B(  4-C , 20-C ) :   1.0450 B(  6-C ,  7-H ) :   0.9333 B(  6-C ,  8-H ) :   0.9239
B(  6-C ,  9-C ) :   1.0615 B(  9-C , 10-H ) :   0.9506 B(  9-C , 11-H ) :   0.9640
B(  9-C , 12-C ) :   1.0662 B( 12-C , 13-H ) :   0.9724 B( 12-C , 14-H ) :   0.9732
B( 12-C , 15-H ) :   0.9750 B( 16-S , 17-C ) :   1.1299 B( 16-S , 20-C ) :   1.1437
B( 17-C , 18-C ) :   1.6440 B( 17-C , 33-H ) :   0.9656 B( 18-C , 19-C ) :   1.2458
B( 18-C , 21-H ) :   0.9716 B( 19-C , 20-C ) :   1.6035 B( 19-C , 22-C ) :   1.0207
B( 22-C , 23-H ) :   0.9026 B( 22-C , 24-H ) :   0.9455 B( 22-C , 25-C ) :   1.0734
B( 25-C , 26-H ) :   0.9482 B( 25-C , 27-H ) :   0.9452 B( 25-C , 28-C ) :   1.1144
B( 28-C , 29-H ) :   0.9634 B( 28-C , 30-H ) :   0.9570 B( 28-C , 31-H ) :   0.9684

Dispersion correction           -0.013290784
FINAL SINGLE POINT ENERGY     -1339.856617678693

DIPOLE MOMENT
-------------
                                X             Y             Z
Electronic contribution:    -14.68115     -22.95163       6.27306
Nuclear contribution   :     14.89788      23.60390      -6.24987
                        -----------------------------------------
Total Dipole Moment    :      0.21674       0.65227       0.02319
                        -----------------------------------------
Magnitude (a.u.)       :      0.68773
Magnitude (Debye)      :      1.74807

Rotational constants in cm-1:     0.018355     0.007690     0.005963
Rotational constants in MHz :   550.283557   230.542175   178.767257

                             ****ORCA TERMINATED NORMALLY****
TOTAL RUN TIME: 0 days 0 hours 0 minutes 21 seconds 39 msec
