                         Program Version 4.2.1 -  RELEASE  -
|  1> ! wB97X-D3 SP def2-SVP
|  2> %pal
|  3> nprocs 24
|  4> end
|  5>
|  6> * xyz 0 1
|  7> S 	 -52.2873 	 -52.1682 	 -82.3382
|  8> C 	 -53.4371 	 -50.8083 	 -82.6644
|  9> C 	 -54.5113 	 -51.1562 	 -83.4675
| 10> C 	 -54.509 	 -52.5522 	 -83.7012
| 11> C 	 -53.3664 	 -53.2328 	 -83.2506
| 12> H 	 -55.2046 	 -53.1467 	 -84.21
| 13> C 	 -55.5191 	 -50.1624 	 -84.0532
| 14> H 	 -55.5725 	 -49.3338 	 -83.3534
| 15> H 	 -56.5865 	 -50.4673 	 -84.0646
| 16> C 	 -55.2055 	 -49.7012 	 -85.4854
| 17> H 	 -54.2083 	 -49.2843 	 -85.543
| 18> H 	 -55.072 	 -50.5765 	 -86.1339
| 19> C 	 -56.2477 	 -48.7767 	 -86.1806
| 20> H 	 -57.2518 	 -49.1043 	 -85.8962
| 21> H 	 -56.2077 	 -47.7072 	 -85.8714
| 22> H 	 -56.1215 	 -49.0308 	 -87.2226
| 23> S 	 -52.4114 	 -55.37 	 -81.9066
| 24> C 	 -52.6274 	 -57.0535 	 -82.4363
| 25> C 	 -53.218 	 -56.9527 	 -83.7019
| 26> C 	 -53.5569 	 -55.6492 	 -84.1907
| 27> C 	 -53.1534 	 -54.6792 	 -83.3274
| 28> H 	 -53.4881 	 -57.8402 	 -84.1935
| 29> C 	 -54.007 	 -55.4412 	 -85.6277
| 30> H 	 -54.4282 	 -54.4688 	 -85.8024
| 31> H 	 -54.9771 	 -56.0391 	 -85.7154
| 32> C 	 -52.9558 	 -55.7441 	 -86.6674
| 33> H 	 -53.3799 	 -55.5392 	 -87.6762
| 34> H 	 -52.649 	 -56.7863 	 -86.7222
| 35> C 	 -51.7327 	 -54.7829 	 -86.5496
| 36> H 	 -51.9835 	 -53.6896 	 -86.4234
| 37> H 	 -51.0078 	 -54.8633 	 -87.3965
| 38> H 	 -51.1804 	 -54.9443 	 -85.5752
| 39> H 	 -53.4493 	 -49.8345 	 -82.1787
| 40> H 	 -52.2224 	 -57.9188 	 -81.9373
| 41> *
| 42>
| 43>                          ****END OF INPUT****

CARTESIAN COORDINATES (ANGSTROEM)
---------------------------------
  S    -52.287300  -52.168200  -82.338200
  C    -53.437100  -50.808300  -82.664400
  C    -54.511300  -51.156200  -83.467500
  C    -54.509000  -52.552200  -83.701200
  C    -53.366400  -53.232800  -83.250600
  H    -55.204600  -53.146700  -84.210000
  C    -55.519100  -50.162400  -84.053200
  H    -55.572500  -49.333800  -83.353400
  H    -56.586500  -50.467300  -84.064600
  C    -55.205500  -49.701200  -85.485400
  H    -54.208300  -49.284300  -85.543000
  H    -55.072000  -50.576500  -86.133900
  C    -56.247700  -48.776700  -86.180600
  H    -57.251800  -49.104300  -85.896200
  H    -56.207700  -47.707200  -85.871400
  H    -56.121500  -49.030800  -87.222600
  S    -52.411400  -55.370000  -81.906600
  C    -52.627400  -57.053500  -82.436300
  C    -53.218000  -56.952700  -83.701900
  C    -53.556900  -55.649200  -84.190700
  C    -53.153400  -54.679200  -83.327400
  H    -53.488100  -57.840200  -84.193500
  C    -54.007000  -55.441200  -85.627700
  H    -54.428200  -54.468800  -85.802400
  H    -54.977100  -56.039100  -85.715400
  C    -52.955800  -55.744100  -86.667400
  H    -53.379900  -55.539200  -87.676200
  H    -52.649000  -56.786300  -86.722200
  C    -51.732700  -54.782900  -86.549600
  H    -51.983500  -53.689600  -86.423400
  H    -51.007800  -54.863300  -87.396500
  H    -51.180400  -54.944300  -85.575200
  H    -53.449300  -49.834500  -82.178700
  H    -52.222400  -57.918800  -81.937300

 Total Charge           Charge          ....    0
 Multiplicity           Mult            ....    1
 Number of Electrons    NEL             ....  134
 Basis Dimension        Dim             ....  322

ORBITAL ENERGIES
----------------

  NO   OCC          E(Eh)            E(eV)
   0   2.0000     -88.973277     -2421.0859
   1   2.0000     -88.960852     -2420.7478
   2   2.0000     -10.334818      -281.2247
   3   2.0000     -10.327880      -281.0359
   4   2.0000     -10.323263      -280.9103
   5   2.0000     -10.319679      -280.8127
   6   2.0000     -10.306831      -280.4631
   7   2.0000     -10.301824      -280.3269
   8   2.0000     -10.298717      -280.2423
   9   2.0000     -10.297257      -280.2026
  10   2.0000     -10.294653      -280.1317
  11   2.0000     -10.293001      -280.0868
  12   2.0000     -10.291995      -280.0594
  13   2.0000     -10.288012      -279.9510
  14   2.0000     -10.285016      -279.8695
  15   2.0000     -10.283510      -279.8285
  16   2.0000      -8.086347      -220.0407
  17   2.0000      -8.075650      -219.7496
  18   2.0000      -6.045033      -164.4937
  19   2.0000      -6.041172      -164.3887
  20   2.0000      -6.036926      -164.2731
  21   2.0000      -6.034299      -164.2016
  22   2.0000      -6.029988      -164.0843
  23   2.0000      -6.026391      -163.9864
  24   2.0000      -1.006068       -27.3765
  25   2.0000      -0.979717       -26.6594
  26   2.0000      -0.910273       -24.7698
  27   2.0000      -0.907648       -24.6984
  28   2.0000      -0.868965       -23.6457
  29   2.0000      -0.849884       -23.1265
  30   2.0000      -0.838626       -22.8202
  31   2.0000      -0.813724       -22.1425
  32   2.0000      -0.781350       -21.2616
  33   2.0000      -0.774644       -21.0791
  34   2.0000      -0.706978       -19.2378
  35   2.0000      -0.699757       -19.0413
  36   2.0000      -0.698255       -19.0005
  37   2.0000      -0.666458       -18.1352
  38   2.0000      -0.642665       -17.4878
  39   2.0000      -0.619609       -16.8604
  40   2.0000      -0.600420       -16.3383
  41   2.0000      -0.569799       -15.5050
  42   2.0000      -0.554939       -15.1007
  43   2.0000      -0.553142       -15.0518
  44   2.0000      -0.536789       -14.6068
  45   2.0000      -0.528158       -14.3719
  46   2.0000      -0.521984       -14.2039
  47   2.0000      -0.504757       -13.7351
  48   2.0000      -0.501000       -13.6329
  49   2.0000      -0.496160       -13.5012
  50   2.0000      -0.491780       -13.3820
  51   2.0000      -0.477825       -13.0023
  52   2.0000      -0.469106       -12.7650
  53   2.0000      -0.463623       -12.6158
  54   2.0000      -0.455841       -12.4041
  55   2.0000      -0.448738       -12.2108
  56   2.0000      -0.443653       -12.0724
  57   2.0000      -0.441707       -12.0195
  58   2.0000      -0.432763       -11.7761
  59   2.0000      -0.425605       -11.5813
  60   2.0000      -0.419110       -11.4046
  61   2.0000      -0.413834       -11.2610
  62   2.0000      -0.403990       -10.9931
  63   2.0000      -0.352881        -9.6024
  64   2.0000      -0.337343        -9.1796
  65   2.0000      -0.328818        -8.9476
  66   2.0000      -0.287406        -7.8207
  67   0.0000       0.018909         0.5146
  68   0.0000       0.076221         2.0741
  69   0.0000       0.095178         2.5899
  70   0.0000       0.116141         3.1604
  71   0.0000       0.133915         3.6440

MULLIKEN ATOMIC CHARGES
-----------------------
   0 S :    0.110291
   1 C :   -0.120396
   2 C :   -0.066411
   3 C :    0.033916
   4 C :   -0.134845
   5 H :   -0.009618
   6 C :    0.072455
   7 H :    0.012721
   8 H :    0.023612
   9 C :   -0.088919
  10 H :    0.024204
  11 H :    0.020697
  12 C :   -0.034692
  13 H :    0.018202
  14 H :    0.052131
  15 H :    0.041565
  16 S :    0.072904
  17 C :   -0.090313
  18 C :   -0.021394
  19 C :   -0.068879
  20 C :   -0.120416
  21 H :    0.001210
  22 C :    0.057476
  23 H :    0.004207
  24 H :    0.033929
  25 C :   -0.030484
  26 H :    0.030393
  27 H :    0.034300
  28 C :   -0.112501
  29 H :    0.038818
  30 H :    0.046429
  31 H :    0.051247
  32 H :    0.050505
  33 H :    0.067657
Sum of atomic charges:   -0.0000000

LOEWDIN ATOMIC CHARGES
----------------------
   0 S :    0.377726
   1 C :   -0.180364
   2 C :   -0.056794
   3 C :   -0.053885
   4 C :   -0.181772
   5 H :    0.020046
   6 C :   -0.034531
   7 H :    0.026780
   8 H :    0.031756
   9 C :   -0.044566
  10 H :    0.022941
  11 H :    0.024137
  12 C :   -0.065675
  13 H :    0.022285
  14 H :    0.032043
  15 H :    0.031664
  16 S :    0.388718
  17 C :   -0.176857
  18 C :   -0.058991
  19 C :   -0.071205
  20 C :   -0.188662
  21 H :    0.019860
  22 C :   -0.036577
  23 H :    0.023574
  24 H :    0.039839
  25 C :   -0.040142
  26 H :    0.029652
  27 H :    0.024301
  28 C :   -0.081437
  29 H :    0.031173
  30 H :    0.028803
  31 H :    0.032212
  32 H :    0.030253
  33 H :    0.033696

  Mayer bond orders larger than 0.100000
B(  0-S ,  1-C ) :   1.1205 B(  0-S ,  4-C ) :   1.1330 B(  1-C ,  2-C ) :   1.6301
B(  1-C , 32-H ) :   0.9593 B(  2-C ,  3-C ) :   1.2298 B(  2-C ,  6-C ) :   1.0257
B(  3-C ,  4-C ) :   1.5795 B(  3-C ,  5-H ) :   0.9957 B(  4-C , 20-C ) :   1.0514
B(  6-C ,  7-H ) :   0.9363 B(  6-C ,  8-H ) :   0.9416 B(  6-C ,  9-C ) :   1.0567
B(  9-C , 10-H ) :   0.9517 B(  9-C , 11-H ) :   0.9608 B(  9-C , 12-C ) :   1.0705
B( 12-C , 13-H ) :   0.9733 B( 12-C , 14-H ) :   0.9766 B( 12-C , 15-H ) :   0.9766
B( 16-S , 17-C ) :   1.1388 B( 16-S , 20-C ) :   1.1416 B( 17-C , 18-C ) :   1.5913
B( 17-C , 33-H ) :   0.9759 B( 18-C , 19-C ) :   1.2380 B( 18-C , 21-H ) :   0.9946
B( 19-C , 20-C ) :   1.5982 B( 19-C , 22-C ) :   1.0476 B( 22-C , 23-H ) :   0.9353
B( 22-C , 24-H ) :   0.9268 B( 22-C , 25-C ) :   1.0756 B( 25-C , 26-H ) :   0.9525
B( 25-C , 27-H ) :   0.9568 B( 25-C , 28-C ) :   1.0592 B( 28-C , 29-H ) :   0.9743
B( 28-C , 30-H ) :   0.9762 B( 28-C , 31-H ) :   0.9730

Dispersion correction           -0.014688790
FINAL SINGLE POINT ENERGY     -1339.874402277308

DIPOLE MOMENT
-------------
                                X             Y             Z
Electronic contribution:     10.93761     -10.12355      24.19336
Nuclear contribution   :    -11.38783      10.12780     -24.73553
                        -----------------------------------------
Total Dipole Moment    :     -0.45022       0.00425      -0.54217
                        -----------------------------------------
Magnitude (a.u.)       :      0.70474
Magnitude (Debye)      :      1.79132

Rotational constants in cm-1:     0.020417     0.008414     0.006737
Rotational constants in MHz :   612.099450   252.258671   201.961199

                             ****ORCA TERMINATED NORMALLY****
TOTAL RUN TIME: 0 days 0 hours 0 minutes 20 seconds 754 msec
