                         Program Version 4.2.1 -  RELEASE  -
|  1> ! wB97X-D3 SP def2-SVP
|  2> %pal
|  3> nprocs 24
|  4> end
|  5>
|  6> * xyz 0 1
|  7> S 	 -133.085 	 4.33887 	 7.48598
|  8> C 	 -132.526 	 4.87446 	 5.95945
|  9> C 	 -131.661 	 3.98835 	 5.32469
| 10> C 	 -131.461 	 2.78642 	 6.12586
| 11> C 	 -132.11 	 2.88855 	 7.36684
| 12> H 	 -130.839 	 1.88454 	 5.94805
| 13> C 	 -131.184 	 4.13433 	 3.96962
| 14> H 	 -131.176 	 5.19675 	 3.88487
| 15> H 	 -131.987 	 3.77244 	 3.30989
| 16> C 	 -129.763 	 3.53691 	 3.64357
| 17> H 	 -129.015 	 3.81018 	 4.34777
| 18> H 	 -129.909 	 2.45372 	 3.69644
| 19> C 	 -129.3 	 3.98395 	 2.25487
| 20> H 	 -128.308 	 3.53489 	 2.02921
| 21> H 	 -130.075 	 3.80554 	 1.58235
| 22> H 	 -129.048 	 5.08283 	 2.26129
| 23> S 	 -131.958 	 2.53734 	 10.1219
| 24> C 	 -132.026 	 0.859734 	 10.6361
| 25> C 	 -132.028 	 -0.0519522 	 9.62093
| 26> C 	 -132.05 	 0.56642 	 8.3635
| 27> C 	 -132.018 	 1.93563 	 8.43931
| 28> H 	 -132.032 	 -1.15219 	 9.74499
| 29> C 	 -132.149 	 -0.357289 	 7.10616
| 30> H 	 -132.194 	 0.147898 	 6.13869
| 31> H 	 -133.142 	 -0.869443 	 7.13958
| 32> C 	 -131.057 	 -1.44159 	 6.94243
| 33> H 	 -131.319 	 -2.11425 	 6.13419
| 34> H 	 -131.072 	 -2.06182 	 7.85668
| 35> C 	 -129.675 	 -0.874545 	 6.58704
| 36> H 	 -129.862 	 -0.112105 	 5.78819
| 37> H 	 -128.969 	 -1.60792 	 6.2235
| 38> H 	 -129.265 	 -0.271804 	 7.42155
| 39> H 	 -132.949 	 5.75222 	 5.42538
| 40> H 	 -131.954 	 0.579256 	 11.6901
| 41> *
| 42>
| 43>                          ****END OF INPUT****

CARTESIAN COORDINATES (ANGSTROEM)
---------------------------------
  S    -133.085000    4.338870    7.485980
  C    -132.526000    4.874460    5.959450
  C    -131.661000    3.988350    5.324690
  C    -131.461000    2.786420    6.125860
  C    -132.110000    2.888550    7.366840
  H    -130.839000    1.884540    5.948050
  C    -131.184000    4.134330    3.969620
  H    -131.176000    5.196750    3.884870
  H    -131.987000    3.772440    3.309890
  C    -129.763000    3.536910    3.643570
  H    -129.015000    3.810180    4.347770
  H    -129.909000    2.453720    3.696440
  C    -129.300000    3.983950    2.254870
  H    -128.308000    3.534890    2.029210
  H    -130.075000    3.805540    1.582350
  H    -129.048000    5.082830    2.261290
  S    -131.958000    2.537340   10.121900
  C    -132.026000    0.859734   10.636100
  C    -132.028000   -0.051952    9.620930
  C    -132.050000    0.566420    8.363500
  C    -132.018000    1.935630    8.439310
  H    -132.032000   -1.152190    9.744990
  C    -132.149000   -0.357289    7.106160
  H    -132.194000    0.147898    6.138690
  H    -133.142000   -0.869443    7.139580
  C    -131.057000   -1.441590    6.942430
  H    -131.319000   -2.114250    6.134190
  H    -131.072000   -2.061820    7.856680
  C    -129.675000   -0.874545    6.587040
  H    -129.862000   -0.112105    5.788190
  H    -128.969000   -1.607920    6.223500
  H    -129.265000   -0.271804    7.421550
  H    -132.949000    5.752220    5.425380
  H    -131.954000    0.579256   11.690100

 Total Charge           Charge          ....    0
 Multiplicity           Mult            ....    1
 Number of Electrons    NEL             ....  134
 Basis Dimension        Dim             ....  322

ORBITAL ENERGIES
----------------

  NO   OCC          E(Eh)            E(eV)
   0   2.0000     -88.968693     -2420.9612
   1   2.0000     -88.966089     -2420.8904
   2   2.0000     -10.325448      -280.9697
   3   2.0000     -10.325221      -280.9636
   4   2.0000     -10.317142      -280.7437
   5   2.0000     -10.309140      -280.5260
   6   2.0000     -10.301842      -280.3274
   7   2.0000     -10.298791      -280.2444
   8   2.0000     -10.298001      -280.2228
   9   2.0000     -10.295350      -280.1507
  10   2.0000     -10.292676      -280.0779
  11   2.0000     -10.290795      -280.0268
  12   2.0000     -10.287961      -279.9496
  13   2.0000     -10.285711      -279.8884
  14   2.0000     -10.283294      -279.8227
  15   2.0000     -10.279893      -279.7301
  16   2.0000      -8.082867      -219.9460
  17   2.0000      -8.081247      -219.9019
  18   2.0000      -6.041387      -164.3945
  19   2.0000      -6.039652      -164.3473
  20   2.0000      -6.037704      -164.2943
  21   2.0000      -6.035705      -164.2399
  22   2.0000      -6.033401      -164.1772
  23   2.0000      -6.032106      -164.1419
  24   2.0000      -1.006429       -27.3863
  25   2.0000      -0.983911       -26.7736
  26   2.0000      -0.915341       -24.9077
  27   2.0000      -0.906384       -24.6640
  28   2.0000      -0.870682       -23.6925
  29   2.0000      -0.853548       -23.2262
  30   2.0000      -0.848330       -23.0842
  31   2.0000      -0.810998       -22.0684
  32   2.0000      -0.783073       -21.3085
  33   2.0000      -0.766933       -20.8693
  34   2.0000      -0.714228       -19.4351
  35   2.0000      -0.696129       -18.9426
  36   2.0000      -0.689594       -18.7648
  37   2.0000      -0.658786       -17.9265
  38   2.0000      -0.636397       -17.3173
  39   2.0000      -0.614791       -16.7293
  40   2.0000      -0.599245       -16.3063
  41   2.0000      -0.578339       -15.7374
  42   2.0000      -0.555479       -15.1153
  43   2.0000      -0.553318       -15.0565
  44   2.0000      -0.541712       -14.7407
  45   2.0000      -0.530098       -14.4247
  46   2.0000      -0.510353       -13.8874
  47   2.0000      -0.507775       -13.8173
  48   2.0000      -0.502693       -13.6790
  49   2.0000      -0.492817       -13.4102
  50   2.0000      -0.489168       -13.3109
  51   2.0000      -0.480208       -13.0671
  52   2.0000      -0.466651       -12.6982
  53   2.0000      -0.462128       -12.5751
  54   2.0000      -0.458847       -12.4859
  55   2.0000      -0.456474       -12.4213
  56   2.0000      -0.447035       -12.1644
  57   2.0000      -0.441877       -12.0241
  58   2.0000      -0.439038       -11.9468
  59   2.0000      -0.429986       -11.7005
  60   2.0000      -0.420021       -11.4294
  61   2.0000      -0.416566       -11.3353
  62   2.0000      -0.411792       -11.2054
  63   2.0000      -0.352936        -9.6039
  64   2.0000      -0.337587        -9.1862
  65   2.0000      -0.324927        -8.8417
  66   2.0000      -0.281450        -7.6586
  67   0.0000       0.028164         0.7664
  68   0.0000       0.074970         2.0400
  69   0.0000       0.104795         2.8516
  70   0.0000       0.116941         3.1821
  71   0.0000       0.126522         3.4429

MULLIKEN ATOMIC CHARGES
-----------------------
   0 S :    0.121661
   1 C :   -0.135590
   2 C :   -0.085605
   3 C :    0.009401
   4 C :   -0.152814
   5 H :    0.003809
   6 C :    0.051006
   7 H :    0.009277
   8 H :    0.051092
   9 C :   -0.088153
  10 H :    0.031676
  11 H :    0.036083
  12 C :   -0.029555
  13 H :    0.039151
  14 H :    0.025410
  15 H :    0.034076
  16 S :    0.111262
  17 C :   -0.093563
  18 C :   -0.035582
  19 C :   -0.014868
  20 C :   -0.163074
  21 H :    0.031409
  22 C :    0.029462
  23 H :    0.017582
  24 H :    0.042921
  25 C :   -0.076221
  26 H :    0.029231
  27 H :    0.026475
  28 C :   -0.060978
  29 H :    0.027571
  30 H :    0.044169
  31 H :    0.048992
  32 H :    0.055964
  33 H :    0.058323
Sum of atomic charges:    0.0000000

LOEWDIN ATOMIC CHARGES
----------------------
   0 S :    0.418999
   1 C :   -0.225597
   2 C :   -0.062416
   3 C :   -0.069446
   4 C :   -0.189861
   5 H :    0.031736
   6 C :   -0.039970
   7 H :    0.027337
   8 H :    0.041006
   9 C :   -0.033385
  10 H :    0.022826
  11 H :    0.022498
  12 C :   -0.061369
  13 H :    0.031120
  14 H :    0.015346
  15 H :    0.031395
  16 S :    0.385099
  17 C :   -0.177824
  18 C :   -0.072379
  19 C :   -0.058661
  20 C :   -0.186686
  21 H :    0.038751
  22 C :   -0.032255
  23 H :    0.025138
  24 H :    0.039395
  25 C :   -0.042521
  26 H :    0.025504
  27 H :    0.018880
  28 C :   -0.069144
  29 H :    0.024846
  30 H :    0.026718
  31 H :    0.031654
  32 H :    0.034188
  33 H :    0.029081

  Mayer bond orders larger than 0.100000
B(  0-S ,  1-C ) :   1.1341 B(  0-S ,  4-C ) :   1.1562 B(  1-C ,  2-C ) :   1.6092
B(  1-C , 32-H ) :   0.9616 B(  2-C ,  3-C ) :   1.2207 B(  2-C ,  6-C ) :   1.0370
B(  3-C ,  4-C ) :   1.5661 B(  3-C ,  5-H ) :   0.9812 B(  4-C , 20-C ) :   1.0764
B(  6-C ,  7-H ) :   0.9344 B(  6-C ,  8-H ) :   0.9247 B(  6-C ,  9-C ) :   1.0616
B(  9-C , 10-H ) :   0.9623 B(  9-C , 11-H ) :   0.9483 B(  9-C , 12-C ) :   1.0922
B( 12-C , 13-H ) :   0.9724 B( 12-C , 14-H ) :   0.9742 B( 12-C , 15-H ) :   0.9744
B( 16-S , 17-C ) :   1.1418 B( 16-S , 20-C ) :   1.1212 B( 17-C , 18-C ) :   1.6254
B( 17-C , 33-H ) :   0.9634 B( 18-C , 19-C ) :   1.2385 B( 18-C , 21-H ) :   0.9837
B( 19-C , 20-C ) :   1.6223 B( 19-C , 22-C ) :   1.0187 B( 22-C , 23-H ) :   0.9409
B( 22-C , 24-H ) :   0.9370 B( 22-C , 25-C ) :   1.0800 B( 25-C , 26-H ) :   0.9527
B( 25-C , 27-H ) :   0.9534 B( 25-C , 28-C ) :   1.0689 B( 28-C , 29-H ) :   0.9663
B( 28-C , 30-H ) :   0.9723 B( 28-C , 31-H ) :   0.9760

Dispersion correction           -0.014545266
FINAL SINGLE POINT ENERGY     -1339.885667324973

DIPOLE MOMENT
-------------
                                X             Y             Z
Electronic contribution:    -14.75818      11.96943      24.88478
Nuclear contribution   :     14.93900     -12.44619     -25.39874
                        -----------------------------------------
Total Dipole Moment    :      0.18082      -0.47676      -0.51396
                        -----------------------------------------
Magnitude (a.u.)       :      0.72398
Magnitude (Debye)      :      1.84022

Rotational constants in cm-1:     0.017971     0.009361     0.006684
Rotational constants in MHz :   538.751112   280.646974   200.386064

                             ****ORCA TERMINATED NORMALLY****
TOTAL RUN TIME: 0 days 0 hours 0 minutes 21 seconds 19 msec
