                         Program Version 4.2.1 -  RELEASE  -
|  1> ! wB97X-D3 SP def2-SVP
|  2> %pal
|  3> nprocs 24
|  4> end
|  5>
|  6> * xyz 0 1
|  7> S 	 -135.557 	 11.6527 	 -4.0637
|  8> C 	 -134.198 	 12.5531 	 -3.52208
|  9> C 	 -134.268 	 12.8239 	 -2.11976
| 10> C 	 -135.447 	 12.1883 	 -1.56836
| 11> C 	 -136.178 	 11.4554 	 -2.47098
| 12> H 	 -135.677 	 12.2317 	 -0.510829
| 13> C 	 -133.409 	 13.699 	 -1.23826
| 14> H 	 -133.673 	 13.4204 	 -0.173683
| 15> H 	 -133.811 	 14.7399 	 -1.54518
| 16> C 	 -131.916 	 13.7818 	 -1.40213
| 17> H 	 -131.525 	 12.7484 	 -1.48673
| 18> H 	 -131.713 	 14.1883 	 -2.38112
| 19> C 	 -131.23 	 14.6945 	 -0.259488
| 20> H 	 -131.4 	 14.4646 	 0.822029
| 21> H 	 -130.172 	 14.4757 	 -0.433811
| 22> H 	 -131.317 	 15.778 	 -0.32074
| 23> S 	 -138.607 	 10.6532 	 -3.3308
| 24> C 	 -139.34 	 9.2597 	 -2.57703
| 25> C 	 -138.578 	 8.7625 	 -1.5586
| 26> C 	 -137.378 	 9.50732 	 -1.39641
| 27> C 	 -137.287 	 10.5793 	 -2.25182
| 28> H 	 -138.894 	 8.01081 	 -0.870261
| 29> C 	 -136.347 	 9.29891 	 -0.270812
| 30> H 	 -135.45 	 9.86482 	 -0.544452
| 31> H 	 -135.885 	 8.2351 	 -0.244563
| 32> C 	 -136.851 	 9.80289 	 1.06604
| 33> H 	 -137.686 	 9.13187 	 1.32331
| 34> H 	 -137.327 	 10.8226 	 0.971236
| 35> C 	 -135.898 	 9.6565 	 2.24124
| 36> H 	 -136.404 	 9.82314 	 3.14453
| 37> H 	 -135.037 	 10.4293 	 2.18229
| 38> H 	 -135.362 	 8.65217 	 2.21755
| 39> H 	 -133.46 	 12.9244 	 -4.15743
| 40> H 	 -140.285 	 8.74746 	 -2.8321
| 41> *
| 42>
| 43>                          ****END OF INPUT****

CARTESIAN COORDINATES (ANGSTROEM)
---------------------------------
  S    -135.557000   11.652700   -4.063700
  C    -134.198000   12.553100   -3.522080
  C    -134.268000   12.823900   -2.119760
  C    -135.447000   12.188300   -1.568360
  C    -136.178000   11.455400   -2.470980
  H    -135.677000   12.231700   -0.510829
  C    -133.409000   13.699000   -1.238260
  H    -133.673000   13.420400   -0.173683
  H    -133.811000   14.739900   -1.545180
  C    -131.916000   13.781800   -1.402130
  H    -131.525000   12.748400   -1.486730
  H    -131.713000   14.188300   -2.381120
  C    -131.230000   14.694500   -0.259488
  H    -131.400000   14.464600    0.822029
  H    -130.172000   14.475700   -0.433811
  H    -131.317000   15.778000   -0.320740
  S    -138.607000   10.653200   -3.330800
  C    -139.340000    9.259700   -2.577030
  C    -138.578000    8.762500   -1.558600
  C    -137.378000    9.507320   -1.396410
  C    -137.287000   10.579300   -2.251820
  H    -138.894000    8.010810   -0.870261
  C    -136.347000    9.298910   -0.270812
  H    -135.450000    9.864820   -0.544452
  H    -135.885000    8.235100   -0.244563
  C    -136.851000    9.802890    1.066040
  H    -137.686000    9.131870    1.323310
  H    -137.327000   10.822600    0.971236
  C    -135.898000    9.656500    2.241240
  H    -136.404000    9.823140    3.144530
  H    -135.037000   10.429300    2.182290
  H    -135.362000    8.652170    2.217550
  H    -133.460000   12.924400   -4.157430
  H    -140.285000    8.747460   -2.832100

 Total Charge           Charge          ....    0
 Multiplicity           Mult            ....    1
 Number of Electrons    NEL             ....  134
 Basis Dimension        Dim             ....  322

ORBITAL ENERGIES
----------------

  NO   OCC          E(Eh)            E(eV)
   0   2.0000     -88.967277     -2420.9227
   1   2.0000     -88.965686     -2420.8794
   2   2.0000     -10.322318      -280.8846
   3   2.0000     -10.317882      -280.7638
   4   2.0000     -10.316771      -280.7336
   5   2.0000     -10.309996      -280.5492
   6   2.0000     -10.306290      -280.4484
   7   2.0000     -10.301025      -280.3052
   8   2.0000     -10.298104      -280.2257
   9   2.0000     -10.297378      -280.2059
  10   2.0000     -10.293411      -280.0980
  11   2.0000     -10.291877      -280.0562
  12   2.0000     -10.290657      -280.0230
  13   2.0000     -10.289796      -279.9996
  14   2.0000     -10.289193      -279.9832
  15   2.0000     -10.285920      -279.8941
  16   2.0000      -8.082835      -219.9451
  17   2.0000      -8.081302      -219.9034
  18   2.0000      -6.041309      -164.3924
  19   2.0000      -6.039701      -164.3486
  20   2.0000      -6.037178      -164.2800
  21   2.0000      -6.035587      -164.2367
  22   2.0000      -6.033633      -164.1835
  23   2.0000      -6.032226      -164.1452
  24   2.0000      -1.015892       -27.6438
  25   2.0000      -0.987362       -26.8675
  26   2.0000      -0.910257       -24.7694
  27   2.0000      -0.908085       -24.7102
  28   2.0000      -0.871852       -23.7243
  29   2.0000      -0.853363       -23.2212
  30   2.0000      -0.845768       -23.0145
  31   2.0000      -0.813181       -22.1278
  32   2.0000      -0.781543       -21.2669
  33   2.0000      -0.768544       -20.9131
  34   2.0000      -0.712047       -19.3758
  35   2.0000      -0.698697       -19.0125
  36   2.0000      -0.690450       -18.7881
  37   2.0000      -0.663561       -18.0564
  38   2.0000      -0.642491       -17.4831
  39   2.0000      -0.615808       -16.7570
  40   2.0000      -0.595210       -16.1965
  41   2.0000      -0.568877       -15.4799
  42   2.0000      -0.563491       -15.3334
  43   2.0000      -0.553863       -15.0714
  44   2.0000      -0.529902       -14.4194
  45   2.0000      -0.521024       -14.1778
  46   2.0000      -0.519309       -14.1311
  47   2.0000      -0.513063       -13.9611
  48   2.0000      -0.504771       -13.7355
  49   2.0000      -0.498473       -13.5641
  50   2.0000      -0.490455       -13.3460
  51   2.0000      -0.475879       -12.9493
  52   2.0000      -0.474063       -12.8999
  53   2.0000      -0.466234       -12.6869
  54   2.0000      -0.456960       -12.4345
  55   2.0000      -0.453531       -12.3412
  56   2.0000      -0.445588       -12.1251
  57   2.0000      -0.440365       -11.9829
  58   2.0000      -0.431585       -11.7440
  59   2.0000      -0.425297       -11.5729
  60   2.0000      -0.421918       -11.4810
  61   2.0000      -0.417346       -11.3566
  62   2.0000      -0.402370       -10.9490
  63   2.0000      -0.347972        -9.4688
  64   2.0000      -0.334341        -9.0979
  65   2.0000      -0.325832        -8.8663
  66   2.0000      -0.288877        -7.8608
  67   0.0000       0.034673         0.9435
  68   0.0000       0.071727         1.9518
  69   0.0000       0.111600         3.0368
  70   0.0000       0.124794         3.3958
  71   0.0000       0.128203         3.4886

MULLIKEN ATOMIC CHARGES
-----------------------
   0 S :    0.128049
   1 C :   -0.110898
   2 C :   -0.088571
   3 C :    0.006117
   4 C :   -0.131135
   5 H :    0.008361
   6 C :    0.016942
   7 H :    0.036258
   8 H :    0.059135
   9 C :   -0.066340
  10 H :    0.037078
  11 H :    0.024728
  12 C :   -0.076402
  13 H :    0.043433
  14 H :    0.035403
  15 H :    0.042275
  16 S :    0.115844
  17 C :   -0.092591
  18 C :   -0.018647
  19 C :   -0.038098
  20 C :   -0.155530
  21 H :    0.012692
  22 C :    0.027713
  23 H :    0.024006
  24 H :    0.037296
  25 C :   -0.094906
  26 H :    0.021529
  27 H :    0.044995
  28 C :   -0.039122
  29 H :    0.033056
  30 H :    0.030859
  31 H :    0.040233
  32 H :    0.023207
  33 H :    0.063032
Sum of atomic charges:   -0.0000000

LOEWDIN ATOMIC CHARGES
----------------------
   0 S :    0.437470
   1 C :   -0.213470
   2 C :   -0.058755
   3 C :   -0.066238
   4 C :   -0.203735
   5 H :    0.028972
   6 C :   -0.048606
   7 H :    0.034363
   8 H :    0.050219
   9 C :   -0.040424
  10 H :    0.028526
  11 H :    0.023102
  12 C :   -0.073433
  13 H :    0.031027
  14 H :    0.030450
  15 H :    0.027002
  16 S :    0.425382
  17 C :   -0.190754
  18 C :   -0.067166
  19 C :   -0.053526
  20 C :   -0.215872
  21 H :    0.029853
  22 C :   -0.042970
  23 H :    0.026591
  24 H :    0.037623
  25 C :   -0.053888
  26 H :    0.023738
  27 H :    0.031556
  28 C :   -0.067888
  29 H :    0.018883
  30 H :    0.027746
  31 H :    0.034100
  32 H :    0.012207
  33 H :    0.037912

  Mayer bond orders larger than 0.100000
B(  0-S ,  1-C ) :   1.1561 B(  0-S ,  4-C ) :   1.1688 B(  1-C ,  2-C ) :   1.5594
B(  1-C , 32-H ) :   0.9824 B(  2-C ,  3-C ) :   1.2649 B(  2-C ,  6-C ) :   1.0155
B(  3-C ,  4-C ) :   1.5436 B(  3-C ,  5-H ) :   0.9994 B(  4-C , 20-C ) :   1.0351
B(  6-C ,  7-H ) :   0.9479 B(  6-C ,  8-H ) :   0.9308 B(  6-C ,  9-C ) :   1.0704
B(  9-C , 10-H ) :   0.9631 B(  9-C , 11-H ) :   0.9474 B(  9-C , 12-C ) :   1.0598
B( 12-C , 13-H ) :   0.9792 B( 12-C , 14-H ) :   0.9769 B( 12-C , 15-H ) :   0.9787
B( 16-S , 17-C ) :   1.1506 B( 16-S , 20-C ) :   1.1434 B( 17-C , 18-C ) :   1.6097
B( 17-C , 33-H ) :   0.9617 B( 18-C , 19-C ) :   1.2547 B( 18-C , 21-H ) :   0.9930
B( 19-C , 20-C ) :   1.5948 B( 19-C , 22-C ) :   1.0441 B( 22-C , 23-H ) :   0.9310
B( 22-C , 24-H ) :   0.9321 B( 22-C , 25-C ) :   1.0562 B( 25-C , 26-H ) :   0.9529
B( 25-C , 27-H ) :   0.9483 B( 25-C , 28-C ) :   1.0822 B( 28-C , 29-H ) :   0.9739
B( 28-C , 30-H ) :   0.9733 B( 28-C , 31-H ) :   0.9699

Dispersion correction           -0.014150766
FINAL SINGLE POINT ENERGY     -1339.873662559903

DIPOLE MOMENT
-------------
                                X             Y             Z
Electronic contribution:    -19.77588      -5.31426     -25.36291
Nuclear contribution   :     20.09642       5.35610      25.92073
                        -----------------------------------------
Total Dipole Moment    :      0.32054       0.04184       0.55782
                        -----------------------------------------
Magnitude (a.u.)       :      0.64472
Magnitude (Debye)      :      1.63874

Rotational constants in cm-1:     0.019289     0.008495     0.006182
Rotational constants in MHz :   578.276444   254.668659   185.321838

                             ****ORCA TERMINATED NORMALLY****
TOTAL RUN TIME: 0 days 0 hours 0 minutes 20 seconds 418 msec
