                         Program Version 4.2.1 -  RELEASE  -
|  1> ! wB97X-D3 SP def2-SVP
|  2> %pal
|  3> nprocs 24
|  4> end
|  5>
|  6> * xyz 0 1
|  7> S 	 -44.4772 	 11.3905 	 24.9467
|  8> C 	 -44.2802 	 13.0954 	 25.2635
|  9> C 	 -45.4114 	 13.5206 	 25.995
| 10> C 	 -46.4591 	 12.5868 	 25.9582
| 11> C 	 -46.1443 	 11.3458 	 25.5889
| 12> H 	 -47.4719 	 12.7792 	 26.3653
| 13> C 	 -45.6672 	 14.8829 	 26.5665
| 14> H 	 -46.7198 	 14.978 	 26.6834
| 15> H 	 -45.3917 	 15.5793 	 25.8285
| 16> C 	 -44.9351 	 15.1285 	 27.8858
| 17> H 	 -43.8485 	 15.1437 	 27.5775
| 18> H 	 -45.139 	 16.0886 	 28.3455
| 19> C 	 -45.0859 	 13.9092 	 28.8767
| 20> H 	 -44.4811 	 14.0563 	 29.7799
| 21> H 	 -46.1143 	 13.9115 	 29.1316
| 22> H 	 -44.9309 	 12.987 	 28.3535
| 23> S 	 -46.5362 	 8.8512 	 26.6707
| 24> C 	 -47.8333 	 7.8691 	 26.2259
| 25> C 	 -48.761 	 8.55824 	 25.4698
| 26> C 	 -48.2599 	 9.8596 	 25.0544
| 27> C 	 -46.9861 	 10.1739 	 25.6038
| 28> H 	 -49.7648 	 8.27625 	 25.297
| 29> C 	 -49.0975 	 10.7229 	 24.114
| 30> H 	 -49.2283 	 10.2145 	 23.1148
| 31> H 	 -48.4345 	 11.5487 	 23.9196
| 32> C 	 -50.3006 	 11.3732 	 24.7414
| 33> H 	 -50.0261 	 11.9342 	 25.6697
| 34> H 	 -50.9333 	 10.5105 	 25.0709
| 35> C 	 -51.1277 	 12.3596 	 23.8269
| 36> H 	 -50.6626 	 13.2928 	 23.7625
| 37> H 	 -52.1729 	 12.6256 	 24.0801
| 38> H 	 -51.1075 	 12.0073 	 22.7764
| 39> H 	 -43.2779 	 13.5818 	 25.1399
| 40> H 	 -48.0085 	 6.89569 	 26.6273
| 41> *
| 42>
| 43>                          ****END OF INPUT****

CARTESIAN COORDINATES (ANGSTROEM)
---------------------------------
  S    -44.477200   11.390500   24.946700
  C    -44.280200   13.095400   25.263500
  C    -45.411400   13.520600   25.995000
  C    -46.459100   12.586800   25.958200
  C    -46.144300   11.345800   25.588900
  H    -47.471900   12.779200   26.365300
  C    -45.667200   14.882900   26.566500
  H    -46.719800   14.978000   26.683400
  H    -45.391700   15.579300   25.828500
  C    -44.935100   15.128500   27.885800
  H    -43.848500   15.143700   27.577500
  H    -45.139000   16.088600   28.345500
  C    -45.085900   13.909200   28.876700
  H    -44.481100   14.056300   29.779900
  H    -46.114300   13.911500   29.131600
  H    -44.930900   12.987000   28.353500
  S    -46.536200    8.851200   26.670700
  C    -47.833300    7.869100   26.225900
  C    -48.761000    8.558240   25.469800
  C    -48.259900    9.859600   25.054400
  C    -46.986100   10.173900   25.603800
  H    -49.764800    8.276250   25.297000
  C    -49.097500   10.722900   24.114000
  H    -49.228300   10.214500   23.114800
  H    -48.434500   11.548700   23.919600
  C    -50.300600   11.373200   24.741400
  H    -50.026100   11.934200   25.669700
  H    -50.933300   10.510500   25.070900
  C    -51.127700   12.359600   23.826900
  H    -50.662600   13.292800   23.762500
  H    -52.172900   12.625600   24.080100
  H    -51.107500   12.007300   22.776400
  H    -43.277900   13.581800   25.139900
  H    -48.008500    6.895690   26.627300

 Total Charge           Charge          ....    0
 Multiplicity           Mult            ....    1
 Number of Electrons    NEL             ....  134
 Basis Dimension        Dim             ....  322

ORBITAL ENERGIES
----------------

  NO   OCC          E(Eh)            E(eV)
   0   2.0000     -88.965465     -2420.8734
   1   2.0000     -88.964311     -2420.8420
   2   2.0000     -10.330644      -281.1111
   3   2.0000     -10.328020      -281.0397
   4   2.0000     -10.324299      -280.9385
   5   2.0000     -10.314295      -280.6662
   6   2.0000     -10.310378      -280.5596
   7   2.0000     -10.302428      -280.3433
   8   2.0000     -10.296942      -280.1940
   9   2.0000     -10.291918      -280.0573
  10   2.0000     -10.291694      -280.0512
  11   2.0000     -10.291279      -280.0399
  12   2.0000     -10.289721      -279.9976
  13   2.0000     -10.282617      -279.8042
  14   2.0000     -10.280817      -279.7552
  15   2.0000     -10.271159      -279.4924
  16   2.0000      -8.081278      -219.9027
  17   2.0000      -8.078742      -219.8337
  18   2.0000      -6.039684      -164.3481
  19   2.0000      -6.037266      -164.2824
  20   2.0000      -6.035521      -164.2349
  21   2.0000      -6.033202      -164.1718
  22   2.0000      -6.032181      -164.1440
  23   2.0000      -6.029553      -164.0725
  24   2.0000      -1.010003       -27.4836
  25   2.0000      -0.989392       -26.9227
  26   2.0000      -0.913700       -24.8630
  27   2.0000      -0.909397       -24.7459
  28   2.0000      -0.872215       -23.7342
  29   2.0000      -0.846834       -23.0435
  30   2.0000      -0.843495       -22.9527
  31   2.0000      -0.815964       -22.2035
  32   2.0000      -0.785364       -21.3708
  33   2.0000      -0.772655       -21.0250
  34   2.0000      -0.705910       -19.2088
  35   2.0000      -0.703115       -19.1327
  36   2.0000      -0.694905       -18.9093
  37   2.0000      -0.660727       -17.9793
  38   2.0000      -0.644056       -17.5256
  39   2.0000      -0.618200       -16.8221
  40   2.0000      -0.597958       -16.2713
  41   2.0000      -0.574934       -15.6447
  42   2.0000      -0.562933       -15.3182
  43   2.0000      -0.554147       -15.0791
  44   2.0000      -0.546183       -14.8624
  45   2.0000      -0.519339       -14.1319
  46   2.0000      -0.515914       -14.0387
  47   2.0000      -0.515187       -14.0190
  48   2.0000      -0.506163       -13.7734
  49   2.0000      -0.500018       -13.6062
  50   2.0000      -0.490254       -13.3405
  51   2.0000      -0.477029       -12.9806
  52   2.0000      -0.474218       -12.9041
  53   2.0000      -0.466552       -12.6955
  54   2.0000      -0.463029       -12.5996
  55   2.0000      -0.455552       -12.3962
  56   2.0000      -0.446721       -12.1559
  57   2.0000      -0.437873       -11.9151
  58   2.0000      -0.433035       -11.7835
  59   2.0000      -0.419549       -11.4165
  60   2.0000      -0.418213       -11.3802
  61   2.0000      -0.408407       -11.1133
  62   2.0000      -0.405761       -11.0413
  63   2.0000      -0.345786        -9.4093
  64   2.0000      -0.330159        -8.9841
  65   2.0000      -0.326912        -8.8957
  66   2.0000      -0.300258        -8.1704
  67   0.0000       0.030762         0.8371
  68   0.0000       0.060613         1.6494
  69   0.0000       0.111784         3.0418
  70   0.0000       0.117721         3.2034
  71   0.0000       0.130749         3.5579

MULLIKEN ATOMIC CHARGES
-----------------------
   0 S :    0.104128
   1 C :   -0.133311
   2 C :   -0.150280
   3 C :    0.021709
   4 C :   -0.146383
   5 H :    0.021895
   6 C :    0.123269
   7 H :    0.005972
   8 H :    0.022752
   9 C :   -0.100075
  10 H :    0.025867
  11 H :    0.034446
  12 C :   -0.035597
  13 H :    0.044570
  14 H :    0.014191
  15 H :    0.051510
  16 S :    0.118666
  17 C :   -0.067726
  18 C :   -0.020310
  19 C :   -0.067254
  20 C :   -0.165579
  21 H :    0.009551
  22 C :    0.065456
  23 H :    0.053293
  24 H :    0.010048
  25 C :   -0.096142
  26 H :    0.039457
  27 H :    0.028466
  28 C :   -0.038396
  29 H :    0.018132
  30 H :    0.042907
  31 H :    0.028166
  32 H :    0.082048
  33 H :    0.054554
Sum of atomic charges:    0.0000000

LOEWDIN ATOMIC CHARGES
----------------------
   0 S :    0.395843
   1 C :   -0.202325
   2 C :   -0.066645
   3 C :   -0.065292
   4 C :   -0.193776
   5 H :    0.037054
   6 C :   -0.027945
   7 H :    0.021849
   8 H :    0.028271
   9 C :   -0.037523
  10 H :    0.023777
  11 H :    0.020872
  12 C :   -0.059323
  13 H :    0.029335
  14 H :    0.017727
  15 H :    0.027376
  16 S :    0.437671
  17 C :   -0.196482
  18 C :   -0.071220
  19 C :   -0.045111
  20 C :   -0.206377
  21 H :    0.024052
  22 C :   -0.043473
  23 H :    0.041088
  24 H :    0.026826
  25 C :   -0.042871
  26 H :    0.029118
  27 H :    0.022186
  28 C :   -0.071568
  29 H :    0.017100
  30 H :    0.032501
  31 H :    0.028625
  32 H :    0.041514
  33 H :    0.027146

  Mayer bond orders larger than 0.100000
B(  0-S ,  1-C ) :   1.1561 B(  0-S ,  4-C ) :   1.1357 B(  1-C ,  2-C ) :   1.5662
B(  1-C ,  4-C ) :   0.1077 B(  1-C , 32-H ) :   0.9640 B(  2-C ,  3-C ) :   1.2542
B(  2-C ,  6-C ) :   1.0156 B(  3-C ,  4-C ) :   1.5972 B(  3-C ,  5-H ) :   0.9851
B(  4-C , 20-C ) :   1.0363 B(  6-C ,  7-H ) :   0.9416 B(  6-C ,  8-H ) :   0.9389
B(  6-C ,  9-C ) :   1.0585 B(  9-C , 10-H ) :   0.9587 B(  9-C , 11-H ) :   0.9621
B(  9-C , 12-C ) :   1.0694 B( 12-C , 13-H ) :   0.9758 B( 12-C , 14-H ) :   0.9776
B( 12-C , 15-H ) :   0.9684 B( 16-S , 17-C ) :   1.1861 B( 16-S , 20-C ) :   1.1564
B( 17-C , 18-C ) :   1.5645 B( 17-C , 33-H ) :   0.9697 B( 18-C , 19-C ) :   1.2658
B( 18-C , 21-H ) :   0.9953 B( 19-C , 20-C ) :   1.5664 B( 19-C , 22-C ) :   1.0480
B( 22-C , 23-H ) :   0.9358 B( 22-C , 24-H ) :   0.9271 B( 22-C , 25-C ) :   1.0567
B( 25-C , 26-H ) :   0.9542 B( 25-C , 27-H ) :   0.9608 B( 25-C , 28-C ) :   1.0633
B( 28-C , 29-H ) :   0.9758 B( 28-C , 30-H ) :   0.9773 B( 28-C , 31-H ) :   0.9752

Dispersion correction           -0.014780639
FINAL SINGLE POINT ENERGY     -1339.867629092535

DIPOLE MOMENT
-------------
                                X             Y             Z
Electronic contribution:     14.37015     -18.92903      -2.59186
Nuclear contribution   :    -14.82091      19.37863       2.70429
                        -----------------------------------------
Total Dipole Moment    :     -0.45076       0.44960       0.11243
                        -----------------------------------------
Magnitude (a.u.)       :      0.64650
Magnitude (Debye)      :      1.64328

Rotational constants in cm-1:     0.017246     0.009009     0.007274
Rotational constants in MHz :   517.018037   270.088907   218.070146

                             ****ORCA TERMINATED NORMALLY****
TOTAL RUN TIME: 0 days 0 hours 0 minutes 20 seconds 728 msec
