                         Program Version 4.2.1 -  RELEASE  -
|  1> ! wB97X-D3 SP def2-SVP
|  2> %pal
|  3> nprocs 24
|  4> end
|  5>
|  6> * xyz 0 1
|  7> S 	 -115.937 	 45.88 	 -114.687
|  8> C 	 -116.604 	 44.3603 	 -115.276
|  9> C 	 -116.553 	 43.4183 	 -114.279
| 10> C 	 -116.15 	 43.9413 	 -112.997
| 11> C 	 -115.807 	 45.2912 	 -113.087
| 12> H 	 -116.103 	 43.3631 	 -112.056
| 13> C 	 -117.035 	 42.0487 	 -114.424
| 14> H 	 -117.934 	 42.0613 	 -115.124
| 15> H 	 -117.392 	 41.7729 	 -113.474
| 16> C 	 -115.994 	 41.0922 	 -115.159
| 17> H 	 -115.68 	 41.5386 	 -116.082
| 18> H 	 -115.115 	 41.0038 	 -114.486
| 19> C 	 -116.453 	 39.6522 	 -115.45
| 20> H 	 -116.335 	 39.0391 	 -114.579
| 21> H 	 -117.449 	 39.6309 	 -115.862
| 22> H 	 -115.787 	 39.0695 	 -116.11
| 23> S 	 -116.143 	 47.3815 	 -111.451
| 24> C 	 -114.847 	 47.9939 	 -110.34
| 25> C 	 -113.714 	 47.169 	 -110.518
| 26> C 	 -113.951 	 45.9961 	 -111.3
| 27> C 	 -115.152 	 46.1149 	 -112.047
| 28> H 	 -112.877 	 47.3534 	 -109.84
| 29> C 	 -112.938 	 44.8488 	 -111.394
| 30> H 	 -113.189 	 44.082 	 -112.169
| 31> H 	 -112.984 	 44.3057 	 -110.452
| 32> C 	 -111.403 	 45.3006 	 -111.462
| 33> H 	 -110.934 	 44.3974 	 -111.125
| 34> H 	 -111.241 	 46.0869 	 -110.806
| 35> C 	 -111.044 	 45.5088 	 -112.954
| 36> H 	 -110.832 	 46.5279 	 -113.192
| 37> H 	 -111.688 	 45.0734 	 -113.726
| 38> H 	 -110.116 	 44.9169 	 -113.095
| 39> H 	 -116.882 	 44.2491 	 -116.291
| 40> H 	 -114.947 	 48.7958 	 -109.586
| 41> *
| 42>
| 43>                          ****END OF INPUT****

CARTESIAN COORDINATES (ANGSTROEM)
---------------------------------
  S    -115.937000   45.880000  -114.687000
  C    -116.604000   44.360300  -115.276000
  C    -116.553000   43.418300  -114.279000
  C    -116.150000   43.941300  -112.997000
  C    -115.807000   45.291200  -113.087000
  H    -116.103000   43.363100  -112.056000
  C    -117.035000   42.048700  -114.424000
  H    -117.934000   42.061300  -115.124000
  H    -117.392000   41.772900  -113.474000
  C    -115.994000   41.092200  -115.159000
  H    -115.680000   41.538600  -116.082000
  H    -115.115000   41.003800  -114.486000
  C    -116.453000   39.652200  -115.450000
  H    -116.335000   39.039100  -114.579000
  H    -117.449000   39.630900  -115.862000
  H    -115.787000   39.069500  -116.110000
  S    -116.143000   47.381500  -111.451000
  C    -114.847000   47.993900  -110.340000
  C    -113.714000   47.169000  -110.518000
  C    -113.951000   45.996100  -111.300000
  C    -115.152000   46.114900  -112.047000
  H    -112.877000   47.353400  -109.840000
  C    -112.938000   44.848800  -111.394000
  H    -113.189000   44.082000  -112.169000
  H    -112.984000   44.305700  -110.452000
  C    -111.403000   45.300600  -111.462000
  H    -110.934000   44.397400  -111.125000
  H    -111.241000   46.086900  -110.806000
  C    -111.044000   45.508800  -112.954000
  H    -110.832000   46.527900  -113.192000
  H    -111.688000   45.073400  -113.726000
  H    -110.116000   44.916900  -113.095000
  H    -116.882000   44.249100  -116.291000
  H    -114.947000   48.795800  -109.586000

 Total Charge           Charge          ....    0
 Multiplicity           Mult            ....    1
 Number of Electrons    NEL             ....  134
 Basis Dimension        Dim             ....  322

ORBITAL ENERGIES
----------------

  NO   OCC          E(Eh)            E(eV)
   0   2.0000     -88.964365     -2420.8434
   1   2.0000     -88.963621     -2420.8232
   2   2.0000     -10.328709      -281.0585
   3   2.0000     -10.326463      -280.9973
   4   2.0000     -10.326386      -280.9952
   5   2.0000     -10.310509      -280.5632
   6   2.0000     -10.309533      -280.5366
   7   2.0000     -10.299755      -280.2706
   8   2.0000     -10.297817      -280.2178
   9   2.0000     -10.297600      -280.2119
  10   2.0000     -10.295139      -280.1450
  11   2.0000     -10.292067      -280.0614
  12   2.0000     -10.291679      -280.0508
  13   2.0000     -10.284640      -279.8593
  14   2.0000     -10.276828      -279.6467
  15   2.0000     -10.272914      -279.5402
  16   2.0000      -8.079754      -219.8613
  17   2.0000      -8.077862      -219.8098
  18   2.0000      -6.038156      -164.3066
  19   2.0000      -6.036370      -164.2580
  20   2.0000      -6.034075      -164.1955
  21   2.0000      -6.032264      -164.1462
  22   2.0000      -6.030672      -164.1029
  23   2.0000      -6.028811      -164.0523
  24   2.0000      -1.005630       -27.3646
  25   2.0000      -0.979969       -26.6663
  26   2.0000      -0.910741       -24.7825
  27   2.0000      -0.899810       -24.4851
  28   2.0000      -0.865477       -23.5508
  29   2.0000      -0.849338       -23.1117
  30   2.0000      -0.840995       -22.8846
  31   2.0000      -0.812883       -22.1197
  32   2.0000      -0.779489       -21.2110
  33   2.0000      -0.767535       -20.8857
  34   2.0000      -0.705985       -19.2108
  35   2.0000      -0.705170       -19.1887
  36   2.0000      -0.693764       -18.8783
  37   2.0000      -0.653473       -17.7819
  38   2.0000      -0.644786       -17.5455
  39   2.0000      -0.615707       -16.7542
  40   2.0000      -0.596487       -16.2312
  41   2.0000      -0.568373       -15.4662
  42   2.0000      -0.560931       -15.2637
  43   2.0000      -0.539436       -14.6788
  44   2.0000      -0.538700       -14.6588
  45   2.0000      -0.525321       -14.2947
  46   2.0000      -0.519377       -14.1330
  47   2.0000      -0.515102       -14.0166
  48   2.0000      -0.505016       -13.7422
  49   2.0000      -0.496351       -13.5064
  50   2.0000      -0.490680       -13.3521
  51   2.0000      -0.477169       -12.9844
  52   2.0000      -0.471186       -12.8216
  53   2.0000      -0.465006       -12.6534
  54   2.0000      -0.460455       -12.5296
  55   2.0000      -0.446692       -12.1551
  56   2.0000      -0.445572       -12.1246
  57   2.0000      -0.437163       -11.8958
  58   2.0000      -0.426757       -11.6126
  59   2.0000      -0.424961       -11.5638
  60   2.0000      -0.417999       -11.3743
  61   2.0000      -0.417038       -11.3482
  62   2.0000      -0.403927       -10.9914
  63   2.0000      -0.338318        -9.2061
  64   2.0000      -0.328548        -8.9402
  65   2.0000      -0.320457        -8.7201
  66   2.0000      -0.297070        -8.0837
  67   0.0000       0.036096         0.9822
  68   0.0000       0.060965         1.6589
  69   0.0000       0.114685         3.1207
  70   0.0000       0.119316         3.2467
  71   0.0000       0.125775         3.4225

MULLIKEN ATOMIC CHARGES
-----------------------
   0 S :    0.119957
   1 C :   -0.114926
   2 C :   -0.083720
   3 C :    0.031462
   4 C :   -0.150393
   5 H :    0.028316
   6 C :    0.058372
   7 H :    0.031519
   8 H :    0.010236
   9 C :   -0.076797
  10 H :    0.026964
  11 H :    0.028728
  12 C :   -0.030057
  13 H :    0.021820
  14 H :    0.032191
  15 H :    0.028325
  16 S :    0.104794
  17 C :   -0.118165
  18 C :   -0.051651
  19 C :    0.003599
  20 C :   -0.181373
  21 H :    0.033379
  22 C :    0.004884
  23 H :    0.039861
  24 H :    0.027897
  25 C :   -0.037738
  26 H :    0.024617
  27 H :    0.020826
  28 C :   -0.046004
  29 H :    0.036472
  30 H :    0.040292
  31 H :    0.023461
  32 H :    0.038391
  33 H :    0.074464
Sum of atomic charges:   -0.0000000

LOEWDIN ATOMIC CHARGES
----------------------
   0 S :    0.426998
   1 C :   -0.188278
   2 C :   -0.065178
   3 C :   -0.068233
   4 C :   -0.213454
   5 H :    0.038650
   6 C :   -0.032053
   7 H :    0.037644
   8 H :    0.021836
   9 C :   -0.033668
  10 H :    0.020157
  11 H :    0.025772
  12 C :   -0.070872
  13 H :    0.023044
  14 H :    0.021938
  15 H :    0.030698
  16 S :    0.406669
  17 C :   -0.179366
  18 C :   -0.076193
  19 C :   -0.055825
  20 C :   -0.217669
  21 H :    0.032437
  22 C :   -0.031899
  23 H :    0.033193
  24 H :    0.028889
  25 C :   -0.023449
  26 H :    0.023145
  27 H :    0.012828
  28 C :   -0.067949
  29 H :    0.022874
  30 H :    0.029428
  31 H :    0.029666
  32 H :    0.020796
  33 H :    0.037423

  Mayer bond orders larger than 0.100000
B(  0-S ,  1-C ) :   1.1360 B(  0-S ,  4-C ) :   1.1939 B(  1-C ,  2-C ) :   1.5850
B(  1-C , 32-H ) :   0.9808 B(  2-C ,  3-C ) :   1.2433 B(  2-C ,  6-C ) :   1.0386
B(  3-C ,  4-C ) :   1.5500 B(  3-C ,  5-H ) :   0.9959 B(  4-C , 20-C ) :   0.9841
B(  6-C ,  7-H ) :   0.9417 B(  6-C ,  8-H ) :   0.9428 B(  6-C ,  9-C ) :   1.0421
B(  9-C , 10-H ) :   0.9618 B(  9-C , 11-H ) :   0.9593 B(  9-C , 12-C ) :   1.0824
B( 12-C , 13-H ) :   0.9751 B( 12-C , 14-H ) :   0.9746 B( 12-C , 15-H ) :   0.9721
B( 16-S , 17-C ) :   1.1509 B( 16-S , 20-C ) :   1.1746 B( 17-C , 18-C ) :   1.5986
B( 17-C , 20-C ) :   0.1150 B( 17-C , 33-H ) :   0.9660 B( 18-C , 19-C ) :   1.2559
B( 18-C , 21-H ) :   0.9757 B( 19-C , 20-C ) :   1.5580 B( 19-C , 22-C ) :   1.0408
B( 22-C , 23-H ) :   0.9474 B( 22-C , 24-H ) :   0.9311 B( 22-C , 25-C ) :   1.0725
B( 25-C , 26-H ) :   0.9647 B( 25-C , 27-H ) :   0.9598 B( 25-C , 28-C ) :   1.0532
B( 28-C , 29-H ) :   0.9806 B( 28-C , 30-H ) :   0.9808 B( 28-C , 31-H ) :   0.9792

Dispersion correction           -0.013818301
FINAL SINGLE POINT ENERGY     -1339.858152005879

DIPOLE MOMENT
-------------
                                X             Y             Z
Electronic contribution:    -13.17402      23.88925       4.47388
Nuclear contribution   :     13.53428     -24.52707      -4.28813
                        -----------------------------------------
Total Dipole Moment    :      0.36027      -0.63781       0.18575
                        -----------------------------------------
Magnitude (a.u.)       :      0.75571
Magnitude (Debye)      :      1.92087

Rotational constants in cm-1:     0.019660     0.007841     0.006492
Rotational constants in MHz :   589.395969   235.066375   194.623220

                             ****ORCA TERMINATED NORMALLY****
TOTAL RUN TIME: 0 days 0 hours 0 minutes 21 seconds 207 msec
