                         Program Version 4.2.1 -  RELEASE  -
|  1> ! wB97X-D3 SP def2-SVP
|  2> %pal
|  3> nprocs 24
|  4> end
|  5>
|  6> * xyz 0 1
|  7> S 	 -135.162 	 31.1994 	 -20.3609
|  8> C 	 -133.943 	 30.4686 	 -19.2306
|  9> C 	 -133.965 	 29.0622 	 -19.2673
| 10> C 	 -135.044 	 28.5929 	 -20.1385
| 11> C 	 -135.587 	 29.6461 	 -20.8542
| 12> H 	 -135.234 	 27.5422 	 -20.4182
| 13> C 	 -133.132 	 28.1117 	 -18.3615
| 14> H 	 -133.604 	 27.9352 	 -17.3688
| 15> H 	 -132.195 	 28.745 	 -18.2155
| 16> C 	 -132.742 	 26.7261 	 -18.9687
| 17> H 	 -131.908 	 26.18 	 -18.3486
| 18> H 	 -133.686 	 26.1871 	 -18.9453
| 19> C 	 -132.111 	 26.658 	 -20.3456
| 20> H 	 -131.802 	 25.6997 	 -20.6376
| 21> H 	 -132.808 	 27.0254 	 -21.0991
| 22> H 	 -131.327 	 27.3591 	 -20.4121
| 23> S 	 -138.153 	 28.9518 	 -21.5419
| 24> C 	 -138.614 	 29.0192 	 -23.2035
| 25> C 	 -137.609 	 29.407 	 -24.0128
| 26> C 	 -136.415 	 29.6536 	 -23.2985
| 27> C 	 -136.516 	 29.4022 	 -21.9451
| 28> H 	 -137.825 	 29.1979 	 -25.0348
| 29> C 	 -135.191 	 30.1653 	 -23.9667
| 30> H 	 -135.291 	 29.853 	 -25.0159
| 31> H 	 -134.263 	 29.6664 	 -23.5637
| 32> C 	 -134.985 	 31.7052 	 -23.8069
| 33> H 	 -135.132 	 32.0948 	 -22.8182
| 34> H 	 -135.805 	 32.1471 	 -24.3738
| 35> C 	 -133.72 	 32.279 	 -24.3917
| 36> H 	 -133.668 	 33.3259 	 -24.1489
| 37> H 	 -133.721 	 32.1552 	 -25.48
| 38> H 	 -132.835 	 31.7309 	 -24.0192
| 39> H 	 -133.296 	 30.9927 	 -18.5686
| 40> H 	 -139.589 	 28.6095 	 -23.5268
| 41> *
| 42>
| 43>                          ****END OF INPUT****

CARTESIAN COORDINATES (ANGSTROEM)
---------------------------------
  S    -135.162000   31.199400  -20.360900
  C    -133.943000   30.468600  -19.230600
  C    -133.965000   29.062200  -19.267300
  C    -135.044000   28.592900  -20.138500
  C    -135.587000   29.646100  -20.854200
  H    -135.234000   27.542200  -20.418200
  C    -133.132000   28.111700  -18.361500
  H    -133.604000   27.935200  -17.368800
  H    -132.195000   28.745000  -18.215500
  C    -132.742000   26.726100  -18.968700
  H    -131.908000   26.180000  -18.348600
  H    -133.686000   26.187100  -18.945300
  C    -132.111000   26.658000  -20.345600
  H    -131.802000   25.699700  -20.637600
  H    -132.808000   27.025400  -21.099100
  H    -131.327000   27.359100  -20.412100
  S    -138.153000   28.951800  -21.541900
  C    -138.614000   29.019200  -23.203500
  C    -137.609000   29.407000  -24.012800
  C    -136.415000   29.653600  -23.298500
  C    -136.516000   29.402200  -21.945100
  H    -137.825000   29.197900  -25.034800
  C    -135.191000   30.165300  -23.966700
  H    -135.291000   29.853000  -25.015900
  H    -134.263000   29.666400  -23.563700
  C    -134.985000   31.705200  -23.806900
  H    -135.132000   32.094800  -22.818200
  H    -135.805000   32.147100  -24.373800
  C    -133.720000   32.279000  -24.391700
  H    -133.668000   33.325900  -24.148900
  H    -133.721000   32.155200  -25.480000
  H    -132.835000   31.730900  -24.019200
  H    -133.296000   30.992700  -18.568600
  H    -139.589000   28.609500  -23.526800

 Total Charge           Charge          ....    0
 Multiplicity           Mult            ....    1
 Number of Electrons    NEL             ....  134
 Basis Dimension        Dim             ....  322

ORBITAL ENERGIES
----------------

  NO   OCC          E(Eh)            E(eV)
   0   2.0000     -88.974226     -2421.1118
   1   2.0000     -88.960354     -2420.7343
   2   2.0000     -10.325551      -280.9725
   3   2.0000     -10.319723      -280.8139
   4   2.0000     -10.318702      -280.7862
   5   2.0000     -10.312431      -280.6155
   6   2.0000     -10.311222      -280.5826
   7   2.0000     -10.307401      -280.4786
   8   2.0000     -10.297916      -280.2206
   9   2.0000     -10.297786      -280.2170
  10   2.0000     -10.296980      -280.1951
  11   2.0000     -10.290388      -280.0157
  12   2.0000     -10.285168      -279.8737
  13   2.0000     -10.275955      -279.6229
  14   2.0000     -10.271872      -279.5118
  15   2.0000     -10.267509      -279.3931
  16   2.0000      -8.088389      -220.0963
  17   2.0000      -8.075986      -219.7588
  18   2.0000      -6.046853      -164.5432
  19   2.0000      -6.043038      -164.4394
  20   2.0000      -6.039149      -164.3336
  21   2.0000      -6.034354      -164.2031
  22   2.0000      -6.030324      -164.0935
  23   2.0000      -6.026899      -164.0002
  24   2.0000      -1.011630       -27.5279
  25   2.0000      -0.985137       -26.8069
  26   2.0000      -0.908416       -24.7192
  27   2.0000      -0.905190       -24.6315
  28   2.0000      -0.870418       -23.6853
  29   2.0000      -0.852885       -23.2082
  30   2.0000      -0.847703       -23.0672
  31   2.0000      -0.814977       -22.1766
  32   2.0000      -0.787025       -21.4161
  33   2.0000      -0.769046       -20.9268
  34   2.0000      -0.705651       -19.2018
  35   2.0000      -0.691321       -18.8118
  36   2.0000      -0.690067       -18.7777
  37   2.0000      -0.660665       -17.9776
  38   2.0000      -0.633498       -17.2383
  39   2.0000      -0.616773       -16.7832
  40   2.0000      -0.594376       -16.1738
  41   2.0000      -0.568216       -15.4619
  42   2.0000      -0.558622       -15.2009
  43   2.0000      -0.555712       -15.1217
  44   2.0000      -0.542947       -14.7743
  45   2.0000      -0.525146       -14.2899
  46   2.0000      -0.518305       -14.1038
  47   2.0000      -0.511941       -13.9306
  48   2.0000      -0.505051       -13.7431
  49   2.0000      -0.498133       -13.5549
  50   2.0000      -0.488753       -13.2996
  51   2.0000      -0.482016       -13.1163
  52   2.0000      -0.468121       -12.7382
  53   2.0000      -0.460597       -12.5335
  54   2.0000      -0.453499       -12.3403
  55   2.0000      -0.451844       -12.2953
  56   2.0000      -0.447432       -12.1752
  57   2.0000      -0.442066       -12.0292
  58   2.0000      -0.433133       -11.7862
  59   2.0000      -0.422353       -11.4928
  60   2.0000      -0.417131       -11.3507
  61   2.0000      -0.408707       -11.1215
  62   2.0000      -0.404002       -10.9935
  63   2.0000      -0.338168        -9.2020
  64   2.0000      -0.333545        -9.0762
  65   2.0000      -0.323836        -8.8120
  66   2.0000      -0.303590        -8.2611
  67   0.0000       0.037928         1.0321
  68   0.0000       0.064566         1.7569
  69   0.0000       0.105926         2.8824
  70   0.0000       0.111679         3.0389
  71   0.0000       0.131242         3.5713

MULLIKEN ATOMIC CHARGES
-----------------------
   0 S :    0.136129
   1 C :   -0.113280
   2 C :   -0.098156
   3 C :    0.014557
   4 C :   -0.144663
   5 H :    0.035607
   6 C :    0.047605
   7 H :    0.066242
   8 H :    0.030893
   9 C :   -0.141702
  10 H :    0.051344
  11 H :    0.037696
  12 C :    0.002013
  13 H :    0.028836
  14 H :    0.017220
  15 H :    0.015524
  16 S :    0.108149
  17 C :   -0.121789
  18 C :   -0.018382
  19 C :   -0.027154
  20 C :   -0.181677
  21 H :    0.017331
  22 C :    0.061300
  23 H :    0.019563
  24 H :    0.035342
  25 C :   -0.074776
  26 H :    0.020463
  27 H :    0.013826
  28 C :   -0.022757
  29 H :    0.034776
  30 H :    0.025475
  31 H :    0.028831
  32 H :    0.031433
  33 H :    0.064182
Sum of atomic charges:    0.0000000

LOEWDIN ATOMIC CHARGES
----------------------
   0 S :    0.438204
   1 C :   -0.183449
   2 C :   -0.055106
   3 C :   -0.067364
   4 C :   -0.214426
   5 H :    0.036870
   6 C :   -0.038328
   7 H :    0.042414
   8 H :    0.034461
   9 C :   -0.052062
  10 H :    0.041014
  11 H :    0.020918
  12 C :   -0.061208
  13 H :    0.021299
  14 H :    0.023619
  15 H :    0.020934
  16 S :    0.413485
  17 C :   -0.188094
  18 C :   -0.080685
  19 C :   -0.058916
  20 C :   -0.204247
  21 H :    0.034258
  22 C :   -0.034441
  23 H :    0.031011
  24 H :    0.033926
  25 C :   -0.046119
  26 H :    0.004083
  27 H :    0.023121
  28 C :   -0.062521
  29 H :    0.026936
  30 H :    0.023730
  31 H :    0.024897
  32 H :    0.019426
  33 H :    0.032359

  Mayer bond orders larger than 0.100000
B(  0-S ,  1-C ) :   1.1158 B(  0-S ,  4-C ) :   1.1733 B(  1-C ,  2-C ) :   1.6448
B(  1-C , 32-H ) :   0.9709 B(  2-C ,  3-C ) :   1.2164 B(  2-C ,  6-C ) :   1.0007
B(  3-C ,  4-C ) :   1.5828 B(  3-C ,  5-H ) :   0.9781 B(  4-C , 20-C ) :   1.0071
B(  6-C ,  7-H ) :   0.9465 B(  6-C ,  8-H ) :   0.9403 B(  6-C ,  9-C ) :   1.0613
B(  9-C , 10-H ) :   0.9595 B(  9-C , 11-H ) :   0.9529 B(  9-C , 12-C ) :   1.0839
B( 12-C , 13-H ) :   0.9741 B( 12-C , 14-H ) :   0.9649 B( 12-C , 15-H ) :   0.9713
B( 16-S , 17-C ) :   1.1692 B( 16-S , 20-C ) :   1.1465 B( 17-C , 18-C ) :   1.6237
B( 17-C , 33-H ) :   0.9583 B( 18-C , 19-C ) :   1.2270 B( 18-C , 21-H ) :   0.9924
B( 19-C , 20-C ) :   1.6089 B( 19-C , 22-C ) :   1.0591 B( 22-C , 23-H ) :   0.9316
B( 22-C , 24-H ) :   0.9309 B( 22-C , 25-C ) :   1.0534 B( 25-C , 26-H ) :   0.9527
B( 25-C , 27-H ) :   0.9464 B( 25-C , 28-C ) :   1.0935 B( 28-C , 29-H ) :   0.9716
B( 28-C , 30-H ) :   0.9747 B( 28-C , 31-H ) :   0.9733

Dispersion correction           -0.015014660
FINAL SINGLE POINT ENERGY     -1339.870195397662

DIPOLE MOMENT
-------------
                                X             Y             Z
Electronic contribution:    -20.51780       4.52119       5.95593
Nuclear contribution   :     20.83107      -4.77923      -6.10470
                        -----------------------------------------
Total Dipole Moment    :      0.31327      -0.25804      -0.14877
                        -----------------------------------------
Magnitude (a.u.)       :      0.43227
Magnitude (Debye)      :      1.09873

Rotational constants in cm-1:     0.017551     0.009350     0.007947
Rotational constants in MHz :   526.171496   280.297573   238.232162

                             ****ORCA TERMINATED NORMALLY****
TOTAL RUN TIME: 0 days 0 hours 0 minutes 20 seconds 965 msec
