                         Program Version 4.2.1 -  RELEASE  -
|  1> ! wB97X-D3 SP def2-SVP
|  2> %pal
|  3> nprocs 24
|  4> end
|  5>
|  6> * xyz 0 1
|  7> S 	 -68.7851 	 17.2705 	 -71.1236
|  8> C 	 -67.3364 	 16.2326 	 -71.3303
|  9> C 	 -67.1587 	 15.9787 	 -72.6803
| 10> C 	 -68.0664 	 16.5996 	 -73.5453
| 11> C 	 -68.9839 	 17.3708 	 -72.8458
| 12> H 	 -68.0899 	 16.5176 	 -74.5862
| 13> C 	 -66.0621 	 15.0917 	 -73.1889
| 14> H 	 -66.4216 	 14.7637 	 -74.1523
| 15> H 	 -66.1033 	 14.2357 	 -72.4934
| 16> C 	 -64.6404 	 15.6855 	 -73.0172
| 17> H 	 -64.5394 	 16.5074 	 -73.7471
| 18> H 	 -64.5868 	 16.0439 	 -72.0507
| 19> C 	 -63.4653 	 14.7977 	 -73.3643
| 20> H 	 -62.6092 	 15.4357 	 -73.4226
| 21> H 	 -63.0567 	 14.0068 	 -72.738
| 22> H 	 -63.5949 	 14.4036 	 -74.3812
| 23> S 	 -71.3373 	 17.2318 	 -74.1568
| 24> C 	 -72.2867 	 18.6339 	 -74.3805
| 25> C 	 -71.4647 	 19.773 	 -74.228
| 26> C 	 -70.1667 	 19.5112 	 -73.6296
| 27> C 	 -70.0079 	 18.161 	 -73.4163
| 28> H 	 -71.8737 	 20.7283 	 -74.4949
| 29> C 	 -69.2252 	 20.6309 	 -73.3574
| 30> H 	 -68.5665 	 20.2302 	 -72.5852
| 31> H 	 -69.7757 	 21.4948 	 -72.8095
| 32> C 	 -68.3695 	 21.1041 	 -74.4841
| 33> H 	 -67.6816 	 21.7897 	 -74.0876
| 34> H 	 -69.0464 	 21.6636 	 -75.153
| 35> C 	 -67.5997 	 19.9063 	 -75.1363
| 36> H 	 -68.2512 	 19.2844 	 -75.7194
| 37> H 	 -67.2782 	 19.2881 	 -74.2661
| 38> H 	 -66.8059 	 20.239 	 -75.7744
| 39> H 	 -66.7654 	 15.962 	 -70.5013
| 40> H 	 -73.247 	 18.7868 	 -74.8279
| 41> *
| 42>
| 43>                          ****END OF INPUT****

CARTESIAN COORDINATES (ANGSTROEM)
---------------------------------
  S    -68.785100   17.270500  -71.123600
  C    -67.336400   16.232600  -71.330300
  C    -67.158700   15.978700  -72.680300
  C    -68.066400   16.599600  -73.545300
  C    -68.983900   17.370800  -72.845800
  H    -68.089900   16.517600  -74.586200
  C    -66.062100   15.091700  -73.188900
  H    -66.421600   14.763700  -74.152300
  H    -66.103300   14.235700  -72.493400
  C    -64.640400   15.685500  -73.017200
  H    -64.539400   16.507400  -73.747100
  H    -64.586800   16.043900  -72.050700
  C    -63.465300   14.797700  -73.364300
  H    -62.609200   15.435700  -73.422600
  H    -63.056700   14.006800  -72.738000
  H    -63.594900   14.403600  -74.381200
  S    -71.337300   17.231800  -74.156800
  C    -72.286700   18.633900  -74.380500
  C    -71.464700   19.773000  -74.228000
  C    -70.166700   19.511200  -73.629600
  C    -70.007900   18.161000  -73.416300
  H    -71.873700   20.728300  -74.494900
  C    -69.225200   20.630900  -73.357400
  H    -68.566500   20.230200  -72.585200
  H    -69.775700   21.494800  -72.809500
  C    -68.369500   21.104100  -74.484100
  H    -67.681600   21.789700  -74.087600
  H    -69.046400   21.663600  -75.153000
  C    -67.599700   19.906300  -75.136300
  H    -68.251200   19.284400  -75.719400
  H    -67.278200   19.288100  -74.266100
  H    -66.805900   20.239000  -75.774400
  H    -66.765400   15.962000  -70.501300
  H    -73.247000   18.786800  -74.827900

 Total Charge           Charge          ....    0
 Multiplicity           Mult            ....    1
 Number of Electrons    NEL             ....  134
 Basis Dimension        Dim             ....  322

ORBITAL ENERGIES
----------------

  NO   OCC          E(Eh)            E(eV)
   0   2.0000     -88.966835     -2420.9107
   1   2.0000     -88.963488     -2420.8196
   2   2.0000     -10.324857      -280.9536
   3   2.0000     -10.321771      -280.8697
   4   2.0000     -10.314355      -280.6679
   5   2.0000     -10.311535      -280.5911
   6   2.0000     -10.303535      -280.3734
   7   2.0000     -10.297369      -280.2057
   8   2.0000     -10.292018      -280.0600
   9   2.0000     -10.290424      -280.0167
  10   2.0000     -10.288696      -279.9696
  11   2.0000     -10.287850      -279.9466
  12   2.0000     -10.286010      -279.8966
  13   2.0000     -10.281670      -279.7785
  14   2.0000     -10.274980      -279.5964
  15   2.0000     -10.274029      -279.5705
  16   2.0000      -8.080963      -219.8942
  17   2.0000      -8.078415      -219.8249
  18   2.0000      -6.039334      -164.3386
  19   2.0000      -6.036970      -164.2743
  20   2.0000      -6.035477      -164.2337
  21   2.0000      -6.032942      -164.1647
  22   2.0000      -6.031982      -164.1386
  23   2.0000      -6.029053      -164.0589
  24   2.0000      -1.008450       -27.4413
  25   2.0000      -0.982836       -26.7443
  26   2.0000      -0.915365       -24.9083
  27   2.0000      -0.914263       -24.8784
  28   2.0000      -0.871601       -23.7175
  29   2.0000      -0.854065       -23.2403
  30   2.0000      -0.844516       -22.9805
  31   2.0000      -0.812478       -22.1086
  32   2.0000      -0.783230       -21.3128
  33   2.0000      -0.772484       -21.0204
  34   2.0000      -0.712524       -19.3888
  35   2.0000      -0.707861       -19.2619
  36   2.0000      -0.695390       -18.9225
  37   2.0000      -0.661129       -17.9902
  38   2.0000      -0.649435       -17.6720
  39   2.0000      -0.614513       -16.7218
  40   2.0000      -0.590721       -16.0743
  41   2.0000      -0.576404       -15.6848
  42   2.0000      -0.561431       -15.2773
  43   2.0000      -0.551833       -15.0161
  44   2.0000      -0.547972       -14.9111
  45   2.0000      -0.527484       -14.3536
  46   2.0000      -0.521561       -14.1924
  47   2.0000      -0.514551       -14.0016
  48   2.0000      -0.508983       -13.8501
  49   2.0000      -0.498312       -13.5598
  50   2.0000      -0.495717       -13.4891
  51   2.0000      -0.479926       -13.0594
  52   2.0000      -0.468863       -12.7584
  53   2.0000      -0.461815       -12.5666
  54   2.0000      -0.454915       -12.3789
  55   2.0000      -0.447517       -12.1776
  56   2.0000      -0.444746       -12.1021
  57   2.0000      -0.438471       -11.9314
  58   2.0000      -0.433513       -11.7965
  59   2.0000      -0.421540       -11.4707
  60   2.0000      -0.420944       -11.4545
  61   2.0000      -0.414673       -11.2838
  62   2.0000      -0.410802       -11.1785
  63   2.0000      -0.336558        -9.1582
  64   2.0000      -0.327723        -8.9178
  65   2.0000      -0.323955        -8.8153
  66   2.0000      -0.299083        -8.1385
  67   0.0000       0.036800         1.0014
  68   0.0000       0.051891         1.4120
  69   0.0000       0.108189         2.9440
  70   0.0000       0.113103         3.0777
  71   0.0000       0.129178         3.5151

MULLIKEN ATOMIC CHARGES
-----------------------
   0 S :    0.118579
   1 C :   -0.131199
   2 C :   -0.076586
   3 C :    0.062363
   4 C :   -0.174845
   5 H :   -0.009077
   6 C :    0.083569
   7 H :    0.013027
   8 H :    0.026284
   9 C :   -0.032077
  10 H :    0.030351
  11 H :    0.009463
  12 C :   -0.036138
  13 H :    0.017178
  14 H :    0.032403
  15 H :    0.026819
  16 S :    0.118467
  17 C :   -0.070461
  18 C :   -0.065186
  19 C :    0.011512
  20 C :   -0.206875
  21 H :    0.009255
  22 C :    0.014532
  23 H :    0.014875
  24 H :    0.044963
  25 C :   -0.019676
  26 H :    0.022557
  27 H :    0.024899
  28 C :   -0.055462
  29 H :    0.036863
  30 H :    0.042925
  31 H :    0.035019
  32 H :    0.030269
  33 H :    0.051411
Sum of atomic charges:   -0.0000000

LOEWDIN ATOMIC CHARGES
----------------------
   0 S :    0.406851
   1 C :   -0.181452
   2 C :   -0.057744
   3 C :   -0.057288
   4 C :   -0.200120
   5 H :    0.024044
   6 C :   -0.031350
   7 H :    0.024961
   8 H :    0.035010
   9 C :   -0.027966
  10 H :    0.031565
  11 H :    0.014184
  12 C :   -0.071902
  13 H :    0.025443
  14 H :    0.023744
  15 H :    0.028278
  16 S :    0.412979
  17 C :   -0.200099
  18 C :   -0.069037
  19 C :   -0.050133
  20 C :   -0.196696
  21 H :    0.022944
  22 C :   -0.044539
  23 H :    0.025236
  24 H :    0.042001
  25 C :   -0.032715
  26 H :    0.019953
  27 H :    0.022197
  28 C :   -0.059663
  29 H :    0.022261
  30 H :    0.032840
  31 H :    0.022542
  32 H :    0.013797
  33 H :    0.029875

  Mayer bond orders larger than 0.100000
B(  0-S ,  1-C ) :   1.1304 B(  0-S ,  4-C ) :   1.1765 B(  1-C ,  2-C ) :   1.5706
B(  1-C ,  4-C ) :   0.1085 B(  1-C , 32-H ) :   0.9862 B(  2-C ,  3-C ) :   1.2612
B(  2-C ,  6-C ) :   1.0153 B(  3-C ,  4-C ) :   1.5296 B(  3-C ,  5-H ) :   1.0088
B(  4-C , 20-C ) :   1.0441 B(  6-C ,  7-H ) :   0.9406 B(  6-C ,  8-H ) :   0.9357
B(  6-C ,  9-C ) :   1.0631 B(  9-C , 10-H ) :   0.9539 B(  9-C , 11-H ) :   0.9553
B(  9-C , 12-C ) :   1.0855 B( 12-C , 13-H ) :   0.9716 B( 12-C , 14-H ) :   0.9755
B( 12-C , 15-H ) :   0.9717 B( 16-S , 17-C ) :   1.1560 B( 16-S , 20-C ) :   1.1330
B( 17-C , 18-C ) :   1.6146 B( 17-C , 20-C ) :   0.1015 B( 17-C , 33-H ) :   0.9675
B( 18-C , 19-C ) :   1.2132 B( 18-C , 21-H ) :   0.9890 B( 19-C , 20-C ) :   1.5903
B( 19-C , 22-C ) :   1.0528 B( 22-C , 23-H ) :   0.9191 B( 22-C , 24-H ) :   0.9338
B( 22-C , 25-C ) :   1.0839 B( 25-C , 26-H ) :   0.9520 B( 25-C , 27-H ) :   0.9534
B( 25-C , 28-C ) :   1.0662 B( 28-C , 29-H ) :   0.9718 B( 28-C , 30-H ) :   0.9732
B( 28-C , 31-H ) :   0.9741

Dispersion correction           -0.015445442
FINAL SINGLE POINT ENERGY     -1339.864231723956

DIPOLE MOMENT
-------------
                                X             Y             Z
Electronic contribution:    -24.48146      -2.81312       7.98452
Nuclear contribution   :     24.96023       3.02743      -8.24429
                        -----------------------------------------
Total Dipole Moment    :      0.47876       0.21431      -0.25977
                        -----------------------------------------
Magnitude (a.u.)       :      0.58534
Magnitude (Debye)      :      1.48782

Rotational constants in cm-1:     0.022096     0.008088     0.007183
Rotational constants in MHz :   662.429110   242.465732   215.331724

                             ****ORCA TERMINATED NORMALLY****
TOTAL RUN TIME: 0 days 0 hours 0 minutes 22 seconds 355 msec
