                         Program Version 4.2.1 -  RELEASE  -
|  1> ! wB97X-D3 SP def2-SVP
|  2> %pal
|  3> nprocs 24
|  4> end
|  5>
|  6> * xyz 0 1
|  7> S 	 -138.048 	 0.291744 	 5.64848
|  8> C 	 -137.401 	 -0.602466 	 4.28501
|  9> C 	 -136.344 	 0.105917 	 3.70023
| 10> C 	 -136.072 	 1.32133 	 4.38775
| 11> C 	 -136.821 	 1.53612 	 5.50114
| 12> H 	 -135.376 	 2.03648 	 4.09775
| 13> C 	 -135.564 	 -0.280616 	 2.49082
| 14> H 	 -135.409 	 -1.3603 	 2.53113
| 15> H 	 -134.627 	 0.285244 	 2.52007
| 16> C 	 -136.192 	 0.0402057 	 1.05557
| 17> H 	 -137.19 	 -0.512458 	 1.03799
| 18> H 	 -136.413 	 1.04385 	 0.887022
| 19> C 	 -135.392 	 -0.481895 	 -0.116467
| 20> H 	 -134.5 	 0.17717 	 -0.143508
| 21> H 	 -135.083 	 -1.52097 	 0.123284
| 22> H 	 -135.888 	 -0.363098 	 -1.04866
| 23> S 	 -137.842 	 4.11977 	 5.74737
| 24> C 	 -137.354 	 5.03781 	 7.16629
| 25> C 	 -136.388 	 4.36213 	 7.87022
| 26> C 	 -136.049 	 3.08802 	 7.41617
| 27> C 	 -136.809 	 2.78412 	 6.28621
| 28> H 	 -135.99 	 4.74833 	 8.79559
| 29> C 	 -134.902 	 2.27554 	 8.04011
| 30> H 	 -135.115 	 1.26571 	 7.87166
| 31> H 	 -135.074 	 2.19618 	 9.0869
| 32> C 	 -133.436 	 2.56064 	 7.64426
| 33> H 	 -132.856 	 1.95012 	 8.31522
| 34> H 	 -133.175 	 3.59923 	 8.02754
| 35> C 	 -133.053 	 2.2734 	 6.20269
| 36> H 	 -133.634 	 2.94345 	 5.56797
| 37> H 	 -133.362 	 1.29902 	 5.8583
| 38> H 	 -131.955 	 2.36829 	 5.99799
| 39> H 	 -137.83 	 -1.43821 	 3.8096
| 40> H 	 -137.63 	 6.09067 	 7.50155
| 41> *
| 42>
| 43>                          ****END OF INPUT****

CARTESIAN COORDINATES (ANGSTROEM)
---------------------------------
  S    -138.048000    0.291744    5.648480
  C    -137.401000   -0.602466    4.285010
  C    -136.344000    0.105917    3.700230
  C    -136.072000    1.321330    4.387750
  C    -136.821000    1.536120    5.501140
  H    -135.376000    2.036480    4.097750
  C    -135.564000   -0.280616    2.490820
  H    -135.409000   -1.360300    2.531130
  H    -134.627000    0.285244    2.520070
  C    -136.192000    0.040206    1.055570
  H    -137.190000   -0.512458    1.037990
  H    -136.413000    1.043850    0.887022
  C    -135.392000   -0.481895   -0.116467
  H    -134.500000    0.177170   -0.143508
  H    -135.083000   -1.520970    0.123284
  H    -135.888000   -0.363098   -1.048660
  S    -137.842000    4.119770    5.747370
  C    -137.354000    5.037810    7.166290
  C    -136.388000    4.362130    7.870220
  C    -136.049000    3.088020    7.416170
  C    -136.809000    2.784120    6.286210
  H    -135.990000    4.748330    8.795590
  C    -134.902000    2.275540    8.040110
  H    -135.115000    1.265710    7.871660
  H    -135.074000    2.196180    9.086900
  C    -133.436000    2.560640    7.644260
  H    -132.856000    1.950120    8.315220
  H    -133.175000    3.599230    8.027540
  C    -133.053000    2.273400    6.202690
  H    -133.634000    2.943450    5.567970
  H    -133.362000    1.299020    5.858300
  H    -131.955000    2.368290    5.997990
  H    -137.830000   -1.438210    3.809600
  H    -137.630000    6.090670    7.501550

 Total Charge           Charge          ....    0
 Multiplicity           Mult            ....    1
 Number of Electrons    NEL             ....  134
 Basis Dimension        Dim             ....  322

ORBITAL ENERGIES
----------------

  NO   OCC          E(Eh)            E(eV)
   0   2.0000     -88.970382     -2421.0072
   1   2.0000     -88.966323     -2420.8967
   2   2.0000     -10.327746      -281.0323
   3   2.0000     -10.324030      -280.9311
   4   2.0000     -10.320276      -280.8290
   5   2.0000     -10.312800      -280.6256
   6   2.0000     -10.300543      -280.2920
   7   2.0000     -10.299025      -280.2507
   8   2.0000     -10.295292      -280.1491
   9   2.0000     -10.292113      -280.0626
  10   2.0000     -10.286629      -279.9134
  11   2.0000     -10.286176      -279.9011
  12   2.0000     -10.285148      -279.8731
  13   2.0000     -10.284602      -279.8582
  14   2.0000     -10.279074      -279.7078
  15   2.0000     -10.278775      -279.6997
  16   2.0000      -8.084226      -219.9830
  17   2.0000      -8.080666      -219.8861
  18   2.0000      -6.042773      -164.4322
  19   2.0000      -6.039215      -164.3354
  20   2.0000      -6.038908      -164.3270
  21   2.0000      -6.035104      -164.2235
  22   2.0000      -6.034949      -164.2193
  23   2.0000      -6.031527      -164.1262
  24   2.0000      -1.004680       -27.3387
  25   2.0000      -0.983621       -26.7657
  26   2.0000      -0.907617       -24.6975
  27   2.0000      -0.906455       -24.6659
  28   2.0000      -0.867329       -23.6012
  29   2.0000      -0.853077       -23.2134
  30   2.0000      -0.850151       -23.1338
  31   2.0000      -0.814146       -22.1540
  32   2.0000      -0.787161       -21.4197
  33   2.0000      -0.770188       -20.9579
  34   2.0000      -0.706972       -19.2377
  35   2.0000      -0.697517       -18.9804
  36   2.0000      -0.694483       -18.8978
  37   2.0000      -0.655958       -17.8495
  38   2.0000      -0.646235       -17.5850
  39   2.0000      -0.619324       -16.8527
  40   2.0000      -0.594928       -16.1888
  41   2.0000      -0.568448       -15.4683
  42   2.0000      -0.562943       -15.3184
  43   2.0000      -0.550698       -14.9853
  44   2.0000      -0.537160       -14.6169
  45   2.0000      -0.528065       -14.3694
  46   2.0000      -0.512739       -13.9523
  47   2.0000      -0.510329       -13.8868
  48   2.0000      -0.504283       -13.7222
  49   2.0000      -0.495492       -13.4830
  50   2.0000      -0.488366       -13.2891
  51   2.0000      -0.483320       -13.1518
  52   2.0000      -0.470034       -12.7903
  53   2.0000      -0.466818       -12.7028
  54   2.0000      -0.458708       -12.4821
  55   2.0000      -0.446169       -12.1409
  56   2.0000      -0.444639       -12.0992
  57   2.0000      -0.439891       -11.9700
  58   2.0000      -0.436521       -11.8783
  59   2.0000      -0.427034       -11.6202
  60   2.0000      -0.421606       -11.4725
  61   2.0000      -0.412386       -11.2216
  62   2.0000      -0.408554       -11.1173
  63   2.0000      -0.339949        -9.2505
  64   2.0000      -0.330026        -8.9805
  65   2.0000      -0.314147        -8.5484
  66   2.0000      -0.313544        -8.5320
  67   0.0000       0.043630         1.1872
  68   0.0000       0.049723         1.3530
  69   0.0000       0.112769         3.0686
  70   0.0000       0.122520         3.3339
  71   0.0000       0.128456         3.4955

MULLIKEN ATOMIC CHARGES
-----------------------
   0 S :    0.116563
   1 C :   -0.095216
   2 C :   -0.082484
   3 C :    0.058355
   4 C :   -0.160922
   5 H :   -0.016937
   6 C :    0.056861
   7 H :    0.029400
   8 H :    0.022613
   9 C :   -0.088590
  10 H :    0.024056
  11 H :    0.018281
  12 C :   -0.030489
  13 H :    0.026299
  14 H :    0.033660
  15 H :    0.039111
  16 S :    0.130834
  17 C :   -0.107438
  18 C :   -0.035499
  19 C :   -0.023114
  20 C :   -0.216217
  21 H :    0.006498
  22 C :    0.111727
  23 H :   -0.004145
  24 H :    0.008899
  25 C :   -0.045057
  26 H :    0.020517
  27 H :    0.029671
  28 C :   -0.043612
  29 H :    0.033998
  30 H :    0.028649
  31 H :    0.046449
  32 H :    0.030671
  33 H :    0.076607
Sum of atomic charges:   -0.0000000

LOEWDIN ATOMIC CHARGES
----------------------
   0 S :    0.408385
   1 C :   -0.189855
   2 C :   -0.064253
   3 C :   -0.051614
   4 C :   -0.200362
   5 H :    0.019928
   6 C :   -0.031090
   7 H :    0.032819
   8 H :    0.030119
   9 C :   -0.038329
  10 H :    0.023924
  11 H :    0.012406
  12 C :   -0.063538
  13 H :    0.026606
  14 H :    0.027721
  15 H :    0.024247
  16 S :    0.403315
  17 C :   -0.199934
  18 C :   -0.074377
  19 C :   -0.053906
  20 C :   -0.194693
  21 H :    0.027796
  22 C :   -0.032176
  23 H :    0.025769
  24 H :    0.032291
  25 C :   -0.037256
  26 H :    0.022925
  27 H :    0.028266
  28 C :   -0.066331
  29 H :    0.024446
  30 H :    0.023592
  31 H :    0.034646
  32 H :    0.020578
  33 H :    0.047937

  Mayer bond orders larger than 0.100000
B(  0-S ,  1-C ) :   1.1464 B(  0-S ,  4-C ) :   1.1478 B(  1-C ,  2-C ) :   1.5889
B(  1-C , 32-H ) :   0.9740 B(  2-C ,  3-C ) :   1.2480 B(  2-C ,  6-C ) :   1.0391
B(  3-C ,  4-C ) :   1.5881 B(  3-C ,  5-H ) :   1.0022 B(  4-C , 20-C ) :   1.0105
B(  6-C ,  7-H ) :   0.9362 B(  6-C ,  8-H ) :   0.9400 B(  6-C ,  9-C ) :   1.0558
B(  9-C , 10-H ) :   0.9560 B(  9-C , 11-H ) :   0.9591 B(  9-C , 12-C ) :   1.0838
B( 12-C , 13-H ) :   0.9743 B( 12-C , 14-H ) :   0.9736 B( 12-C , 15-H ) :   0.9726
B( 16-S , 17-C ) :   1.1374 B( 16-S , 20-C ) :   1.1580 B( 17-C , 18-C ) :   1.6183
B( 17-C , 20-C ) :   0.1014 B( 17-C , 33-H ) :   0.9551 B( 18-C , 19-C ) :   1.2661
B( 18-C , 21-H ) :   0.9837 B( 19-C , 20-C ) :   1.5840 B( 19-C , 22-C ) :   1.0409
B( 22-C , 23-H ) :   0.9110 B( 22-C , 24-H ) :   0.9224 B( 22-C , 25-C ) :   1.0729
B( 25-C , 26-H ) :   0.9478 B( 25-C , 27-H ) :   0.9557 B( 25-C , 28-C ) :   1.0733
B( 28-C , 29-H ) :   0.9734 B( 28-C , 30-H ) :   0.9705 B( 28-C , 31-H ) :   0.9706

Dispersion correction           -0.015043988
FINAL SINGLE POINT ENERGY     -1339.873371692103

DIPOLE MOMENT
-------------
                                X             Y             Z
Electronic contribution:    -20.91347       7.40780      12.44760
Nuclear contribution   :     21.40379      -7.42740     -12.58122
                        -----------------------------------------
Total Dipole Moment    :      0.49031      -0.01960      -0.13361
                        -----------------------------------------
Magnitude (a.u.)       :      0.50857
Magnitude (Debye)      :      1.29269

Rotational constants in cm-1:     0.019855     0.007968     0.007084
Rotational constants in MHz :   595.223384   238.887761   212.361835

                             ****ORCA TERMINATED NORMALLY****
TOTAL RUN TIME: 0 days 0 hours 0 minutes 20 seconds 535 msec
