                         Program Version 4.2.1 -  RELEASE  -
|  1> ! wB97X-D3 SP def2-SVP
|  2> %pal
|  3> nprocs 24
|  4> end
|  5>
|  6> * xyz 0 1
|  7> S 	 -31.0146 	 18.7578 	 4.42042
|  8> C 	 -31.4799 	 17.3072 	 3.50632
|  9> C 	 -31.6092 	 16.2185 	 4.35027
| 10> C 	 -31.3839 	 16.5455 	 5.75332
| 11> C 	 -30.9296 	 17.8293 	 5.93317
| 12> H 	 -31.4534 	 15.8246 	 6.59204
| 13> C 	 -32.1823 	 14.9484 	 3.82589
| 14> H 	 -32.5806 	 15.0014 	 2.78558
| 15> H 	 -32.9907 	 14.8681 	 4.51339
| 16> C 	 -31.2222 	 13.6769 	 3.7644
| 17> H 	 -30.4035 	 14.0637 	 3.13553
| 18> H 	 -30.868 	 13.5097 	 4.80958
| 19> C 	 -31.9235 	 12.4246 	 3.13269
| 20> H 	 -32.7986 	 12.1818 	 3.74044
| 21> H 	 -32.3046 	 12.629 	 2.1403
| 22> H 	 -31.2689 	 11.4965 	 3.00579
| 23> S 	 -31.4281 	 19.7078 	 7.93412
| 24> C 	 -30.3298 	 19.6913 	 9.34836
| 25> C 	 -29.379 	 18.7178 	 9.28622
| 26> C 	 -29.396 	 18.0852 	 8.00272
| 27> C 	 -30.4654 	 18.4549 	 7.18442
| 28> H 	 -28.8168 	 18.5524 	 10.1505
| 29> C 	 -28.5597 	 16.8005 	 7.73559
| 30> H 	 -27.5286 	 17.1961 	 8.00675
| 31> H 	 -28.5036 	 16.5412 	 6.66745
| 32> C 	 -28.9312 	 15.5959 	 8.64525
| 33> H 	 -30.0407 	 15.5198 	 8.56001
| 34> H 	 -28.7322 	 15.8908 	 9.69276
| 35> C 	 -28.2388 	 14.3656 	 8.08834
| 36> H 	 -28.3198 	 13.4416 	 8.64179
| 37> H 	 -27.1704 	 14.6176 	 7.91742
| 38> H 	 -28.6164 	 14.1206 	 7.03251
| 39> H 	 -31.7404 	 17.3933 	 2.50082
| 40> H 	 -30.5284 	 20.2345 	 10.2997
| 41> *
| 42>
| 43>                          ****END OF INPUT****

CARTESIAN COORDINATES (ANGSTROEM)
---------------------------------
  S    -31.014600   18.757800    4.420420
  C    -31.479900   17.307200    3.506320
  C    -31.609200   16.218500    4.350270
  C    -31.383900   16.545500    5.753320
  C    -30.929600   17.829300    5.933170
  H    -31.453400   15.824600    6.592040
  C    -32.182300   14.948400    3.825890
  H    -32.580600   15.001400    2.785580
  H    -32.990700   14.868100    4.513390
  C    -31.222200   13.676900    3.764400
  H    -30.403500   14.063700    3.135530
  H    -30.868000   13.509700    4.809580
  C    -31.923500   12.424600    3.132690
  H    -32.798600   12.181800    3.740440
  H    -32.304600   12.629000    2.140300
  H    -31.268900   11.496500    3.005790
  S    -31.428100   19.707800    7.934120
  C    -30.329800   19.691300    9.348360
  C    -29.379000   18.717800    9.286220
  C    -29.396000   18.085200    8.002720
  C    -30.465400   18.454900    7.184420
  H    -28.816800   18.552400   10.150500
  C    -28.559700   16.800500    7.735590
  H    -27.528600   17.196100    8.006750
  H    -28.503600   16.541200    6.667450
  C    -28.931200   15.595900    8.645250
  H    -30.040700   15.519800    8.560010
  H    -28.732200   15.890800    9.692760
  C    -28.238800   14.365600    8.088340
  H    -28.319800   13.441600    8.641790
  H    -27.170400   14.617600    7.917420
  H    -28.616400   14.120600    7.032510
  H    -31.740400   17.393300    2.500820
  H    -30.528400   20.234500   10.299700

 Total Charge           Charge          ....    0
 Multiplicity           Mult            ....    1
 Number of Electrons    NEL             ....  134
 Basis Dimension        Dim             ....  322

ORBITAL ENERGIES
----------------

  NO   OCC          E(Eh)            E(eV)
   0   2.0000     -88.966696     -2420.9069
   1   2.0000     -88.961752     -2420.7723
   2   2.0000     -10.334186      -281.2075
   3   2.0000     -10.327344      -281.0213
   4   2.0000     -10.321791      -280.8702
   5   2.0000     -10.312874      -280.6276
   6   2.0000     -10.306840      -280.4634
   7   2.0000     -10.305423      -280.4248
   8   2.0000     -10.303778      -280.3801
   9   2.0000     -10.298795      -280.2445
  10   2.0000     -10.296264      -280.1756
  11   2.0000     -10.295277      -280.1487
  12   2.0000     -10.292975      -280.0861
  13   2.0000     -10.292837      -280.0823
  14   2.0000     -10.289345      -279.9873
  15   2.0000     -10.287028      -279.9243
  16   2.0000      -8.080881      -219.8919
  17   2.0000      -8.076111      -219.7622
  18   2.0000      -6.039400      -164.3404
  19   2.0000      -6.035557      -164.2359
  20   2.0000      -6.034686      -164.2122
  21   2.0000      -6.031562      -164.1271
  22   2.0000      -6.030704      -164.1038
  23   2.0000      -6.026795      -163.9974
  24   2.0000      -1.001650       -27.2563
  25   2.0000      -0.980225       -26.6733
  26   2.0000      -0.906133       -24.6571
  27   2.0000      -0.904904       -24.6237
  28   2.0000      -0.868763       -23.6402
  29   2.0000      -0.847162       -23.0525
  30   2.0000      -0.843615       -22.9559
  31   2.0000      -0.819514       -22.3001
  32   2.0000      -0.776591       -21.1321
  33   2.0000      -0.762917       -20.7600
  34   2.0000      -0.706848       -19.2343
  35   2.0000      -0.699319       -19.0294
  36   2.0000      -0.694411       -18.8959
  37   2.0000      -0.659419       -17.9437
  38   2.0000      -0.645917       -17.5763
  39   2.0000      -0.620630       -16.8882
  40   2.0000      -0.591028       -16.0827
  41   2.0000      -0.568322       -15.4648
  42   2.0000      -0.564800       -15.3690
  43   2.0000      -0.555905       -15.1270
  44   2.0000      -0.524879       -14.2827
  45   2.0000      -0.519759       -14.1434
  46   2.0000      -0.518319       -14.1042
  47   2.0000      -0.513906       -13.9841
  48   2.0000      -0.504255       -13.7215
  49   2.0000      -0.495223       -13.4757
  50   2.0000      -0.489921       -13.3314
  51   2.0000      -0.478259       -13.0141
  52   2.0000      -0.467465       -12.7204
  53   2.0000      -0.461475       -12.5574
  54   2.0000      -0.459028       -12.4908
  55   2.0000      -0.450768       -12.2660
  56   2.0000      -0.446007       -12.1365
  57   2.0000      -0.439077       -11.9479
  58   2.0000      -0.434893       -11.8340
  59   2.0000      -0.428470       -11.6593
  60   2.0000      -0.422819       -11.5055
  61   2.0000      -0.410087       -11.1590
  62   2.0000      -0.407760       -11.0957
  63   2.0000      -0.343560        -9.3487
  64   2.0000      -0.329582        -8.9684
  65   2.0000      -0.324964        -8.8427
  66   2.0000      -0.302242        -8.2244
  67   0.0000       0.035052         0.9538
  68   0.0000       0.061569         1.6754
  69   0.0000       0.108439         2.9508
  70   0.0000       0.118169         3.2155
  71   0.0000       0.121838         3.3154

MULLIKEN ATOMIC CHARGES
-----------------------
   0 S :    0.093330
   1 C :   -0.107126
   2 C :   -0.074329
   3 C :    0.039975
   4 C :   -0.154051
   5 H :    0.027268
   6 C :    0.022786
   7 H :    0.024268
   8 H :    0.029027
   9 C :   -0.089865
  10 H :    0.039231
  11 H :    0.039472
  12 C :   -0.057126
  13 H :    0.034128
  14 H :    0.026345
  15 H :    0.053716
  16 S :    0.107944
  17 C :   -0.108289
  18 C :   -0.025131
  19 C :   -0.010671
  20 C :   -0.159453
  21 H :    0.007684
  22 C :   -0.008687
  23 H :    0.033179
  24 H :    0.044182
  25 C :   -0.056028
  26 H :    0.032330
  27 H :    0.035643
  28 C :   -0.057065
  29 H :    0.040461
  30 H :    0.035033
  31 H :    0.038437
  32 H :    0.034555
  33 H :    0.068828
Sum of atomic charges:   -0.0000000

LOEWDIN ATOMIC CHARGES
----------------------
   0 S :    0.376000
   1 C :   -0.174331
   2 C :   -0.061797
   3 C :   -0.062248
   4 C :   -0.180559
   5 H :    0.037192
   6 C :   -0.036087
   7 H :    0.031850
   8 H :    0.027468
   9 C :   -0.040315
  10 H :    0.026518
  11 H :    0.023831
  12 C :   -0.073770
  13 H :    0.026789
  14 H :    0.021913
  15 H :    0.036852
  16 S :    0.389811
  17 C :   -0.171052
  18 C :   -0.066653
  19 C :   -0.051605
  20 C :   -0.208187
  21 H :    0.027598
  22 C :   -0.036466
  23 H :    0.033368
  24 H :    0.030503
  25 C :   -0.044016
  26 H :    0.023340
  27 H :    0.026376
  28 C :   -0.072229
  29 H :    0.022794
  30 H :    0.029866
  31 H :    0.034802
  32 H :    0.015577
  33 H :    0.036865

  Mayer bond orders larger than 0.100000
B(  0-S ,  1-C ) :   1.1233 B(  0-S ,  4-C ) :   1.1470 B(  1-C ,  2-C ) :   1.6166
B(  1-C , 32-H ) :   0.9815 B(  2-C ,  3-C ) :   1.2073 B(  2-C ,  6-C ) :   1.0216
B(  3-C ,  4-C ) :   1.6043 B(  3-C ,  5-H ) :   0.9863 B(  4-C , 20-C ) :   1.0136
B(  6-C ,  7-H ) :   0.9523 B(  6-C ,  8-H ) :   0.9389 B(  6-C ,  9-C ) :   1.0375
B(  9-C , 10-H ) :   0.9599 B(  9-C , 11-H ) :   0.9603 B(  9-C , 12-C ) :   1.0705
B( 12-C , 13-H ) :   0.9757 B( 12-C , 14-H ) :   0.9735 B( 12-C , 15-H ) :   0.9760
B( 16-S , 17-C ) :   1.1426 B( 16-S , 20-C ) :   1.1396 B( 17-C , 18-C ) :   1.6498
B( 17-C , 33-H ) :   0.9579 B( 18-C , 19-C ) :   1.2002 B( 18-C , 21-H ) :   1.0000
B( 19-C , 20-C ) :   1.6134 B( 19-C , 22-C ) :   1.0460 B( 22-C , 23-H ) :   0.9295
B( 22-C , 24-H ) :   0.9469 B( 22-C , 25-C ) :   1.0425 B( 25-C , 26-H ) :   0.9580
B( 25-C , 27-H ) :   0.9499 B( 25-C , 28-C ) :   1.0744 B( 28-C , 29-H ) :   0.9745
B( 28-C , 30-H ) :   0.9713 B( 28-C , 31-H ) :   0.9716

Dispersion correction           -0.014636723
FINAL SINGLE POINT ENERGY     -1339.875337150487

DIPOLE MOMENT
-------------
                                X             Y             Z
Electronic contribution:     -6.11845      31.74746       2.76496
Nuclear contribution   :      6.14042     -32.47960      -2.54421
                        -----------------------------------------
Total Dipole Moment    :      0.02197      -0.73213       0.22076
                        -----------------------------------------
Magnitude (a.u.)       :      0.76501
Magnitude (Debye)      :      1.94449

Rotational constants in cm-1:     0.018335     0.008852     0.006495
Rotational constants in MHz :   549.659010   265.373414   194.709055

                             ****ORCA TERMINATED NORMALLY****
TOTAL RUN TIME: 0 days 0 hours 0 minutes 21 seconds 705 msec
