                         Program Version 4.2.1 -  RELEASE  -
|  1> ! wB97X-D3 SP def2-SVP
|  2> %pal
|  3> nprocs 24
|  4> end
|  5>
|  6> * xyz 0 1
|  7> S 	 -37.4862 	 -7.15758 	 19.8504
|  8> C 	 -36.9241 	 -8.82717 	 19.8329
|  9> C 	 -37.4895 	 -9.53521 	 20.8954
| 10> C 	 -38.5885 	 -8.88394 	 21.4938
| 11> C 	 -38.7797 	 -7.6109 	 21.0243
| 12> H 	 -39.3253 	 -9.43119 	 22.0746
| 13> C 	 -36.8209 	 -10.8504 	 21.3041
| 14> H 	 -36.3009 	 -10.5914 	 22.2572
| 15> H 	 -36.1808 	 -11.0882 	 20.4058
| 16> C 	 -37.7431 	 -12.0813 	 21.5004
| 17> H 	 -38.5189 	 -11.794 	 22.1986
| 18> H 	 -38.1152 	 -12.3209 	 20.5594
| 19> C 	 -36.9536 	 -13.2986 	 21.8747
| 20> H 	 -36.5851 	 -13.1431 	 22.8863
| 21> H 	 -37.6055 	 -14.1794 	 21.7155
| 22> H 	 -36.0936 	 -13.4434 	 21.203
| 23> S 	 -40.2469 	 -6.48693 	 23.1198
| 24> C 	 -41.6415 	 -5.61342 	 22.7104
| 25> C 	 -41.7988 	 -5.42669 	 21.3005
| 26> C 	 -40.8691 	 -6.18389 	 20.5914
| 27> C 	 -39.9241 	 -6.77167 	 21.3981
| 28> H 	 -42.6035 	 -4.91756 	 20.9265
| 29> C 	 -41.0421 	 -6.24978 	 19.0425
| 30> H 	 -42.1169 	 -6.38761 	 18.7373
| 31> H 	 -40.6697 	 -7.27141 	 18.762
| 32> C 	 -40.3357 	 -5.1137 	 18.2196
| 33> H 	 -39.2308 	 -4.97583 	 18.4477
| 34> H 	 -40.8177 	 -4.12548 	 18.528
| 35> C 	 -40.4677 	 -5.25278 	 16.7286
| 36> H 	 -41.5403 	 -5.24002 	 16.4171
| 37> H 	 -40.0454 	 -6.15616 	 16.34
| 38> H 	 -39.9759 	 -4.37351 	 16.267
| 39> H 	 -36.1522 	 -9.17601 	 19.1635
| 40> H 	 -42.4756 	 -5.36636 	 23.3453
| 41> *
| 42>
| 43>                          ****END OF INPUT****

CARTESIAN COORDINATES (ANGSTROEM)
---------------------------------
  S    -37.486200   -7.157580   19.850400
  C    -36.924100   -8.827170   19.832900
  C    -37.489500   -9.535210   20.895400
  C    -38.588500   -8.883940   21.493800
  C    -38.779700   -7.610900   21.024300
  H    -39.325300   -9.431190   22.074600
  C    -36.820900  -10.850400   21.304100
  H    -36.300900  -10.591400   22.257200
  H    -36.180800  -11.088200   20.405800
  C    -37.743100  -12.081300   21.500400
  H    -38.518900  -11.794000   22.198600
  H    -38.115200  -12.320900   20.559400
  C    -36.953600  -13.298600   21.874700
  H    -36.585100  -13.143100   22.886300
  H    -37.605500  -14.179400   21.715500
  H    -36.093600  -13.443400   21.203000
  S    -40.246900   -6.486930   23.119800
  C    -41.641500   -5.613420   22.710400
  C    -41.798800   -5.426690   21.300500
  C    -40.869100   -6.183890   20.591400
  C    -39.924100   -6.771670   21.398100
  H    -42.603500   -4.917560   20.926500
  C    -41.042100   -6.249780   19.042500
  H    -42.116900   -6.387610   18.737300
  H    -40.669700   -7.271410   18.762000
  C    -40.335700   -5.113700   18.219600
  H    -39.230800   -4.975830   18.447700
  H    -40.817700   -4.125480   18.528000
  C    -40.467700   -5.252780   16.728600
  H    -41.540300   -5.240020   16.417100
  H    -40.045400   -6.156160   16.340000
  H    -39.975900   -4.373510   16.267000
  H    -36.152200   -9.176010   19.163500
  H    -42.475600   -5.366360   23.345300

 Total Charge           Charge          ....    0
 Multiplicity           Mult            ....    1
 Number of Electrons    NEL             ....  134
 Basis Dimension        Dim             ....  322

ORBITAL ENERGIES
----------------

  NO   OCC          E(Eh)            E(eV)
   0   2.0000     -88.971461     -2421.0365
   1   2.0000     -88.965559     -2420.8759
   2   2.0000     -10.331025      -281.1215
   3   2.0000     -10.324064      -280.9321
   4   2.0000     -10.315065      -280.6872
   5   2.0000     -10.313919      -280.6560
   6   2.0000     -10.300844      -280.3002
   7   2.0000     -10.300434      -280.2891
   8   2.0000     -10.298855      -280.2461
   9   2.0000     -10.297861      -280.2190
  10   2.0000     -10.293704      -280.1059
  11   2.0000     -10.292290      -280.0674
  12   2.0000     -10.285102      -279.8719
  13   2.0000     -10.278743      -279.6988
  14   2.0000     -10.277553      -279.6664
  15   2.0000     -10.275691      -279.6158
  16   2.0000      -8.086239      -220.0377
  17   2.0000      -8.078963      -219.8398
  18   2.0000      -6.044498      -164.4791
  19   2.0000      -6.040728      -164.3766
  20   2.0000      -6.037453      -164.2875
  21   2.0000      -6.037278      -164.2827
  22   2.0000      -6.033831      -164.1889
  23   2.0000      -6.029646      -164.0750
  24   2.0000      -1.004085       -27.3225
  25   2.0000      -0.982341       -26.7308
  26   2.0000      -0.912156       -24.8210
  27   2.0000      -0.899408       -24.4741
  28   2.0000      -0.866904       -23.5897
  29   2.0000      -0.856931       -23.3183
  30   2.0000      -0.848100       -23.0780
  31   2.0000      -0.811230       -22.0747
  32   2.0000      -0.778698       -21.1895
  33   2.0000      -0.762227       -20.7412
  34   2.0000      -0.704655       -19.1746
  35   2.0000      -0.688701       -18.7405
  36   2.0000      -0.685552       -18.6548
  37   2.0000      -0.669292       -18.2124
  38   2.0000      -0.635129       -17.2827
  39   2.0000      -0.617220       -16.7954
  40   2.0000      -0.593149       -16.1404
  41   2.0000      -0.582859       -15.8604
  42   2.0000      -0.560091       -15.2409
  43   2.0000      -0.550858       -14.9896
  44   2.0000      -0.530232       -14.4283
  45   2.0000      -0.524124       -14.2621
  46   2.0000      -0.515115       -14.0170
  47   2.0000      -0.512709       -13.9515
  48   2.0000      -0.500678       -13.6242
  49   2.0000      -0.496736       -13.5169
  50   2.0000      -0.490878       -13.3575
  51   2.0000      -0.472682       -12.8623
  52   2.0000      -0.472341       -12.8530
  53   2.0000      -0.467535       -12.7223
  54   2.0000      -0.463732       -12.6188
  55   2.0000      -0.443478       -12.0676
  56   2.0000      -0.441880       -12.0242
  57   2.0000      -0.434801       -11.8315
  58   2.0000      -0.431165       -11.7326
  59   2.0000      -0.422518       -11.4973
  60   2.0000      -0.421904       -11.4806
  61   2.0000      -0.411561       -11.1992
  62   2.0000      -0.404051       -10.9948
  63   2.0000      -0.343903        -9.3581
  64   2.0000      -0.334580        -9.1044
  65   2.0000      -0.321347        -8.7443
  66   2.0000      -0.291787        -7.9399
  67   0.0000       0.024768         0.6740
  68   0.0000       0.070909         1.9295
  69   0.0000       0.102622         2.7925
  70   0.0000       0.116097         3.1591
  71   0.0000       0.126292         3.4366

MULLIKEN ATOMIC CHARGES
-----------------------
   0 S :    0.102465
   1 C :   -0.139077
   2 C :   -0.083095
   3 C :    0.017088
   4 C :   -0.136496
   5 H :    0.026434
   6 C :    0.022508
   7 H :    0.055070
   8 H :    0.025209
   9 C :   -0.065390
  10 H :    0.034174
  11 H :    0.010579
  12 C :   -0.033372
  13 H :    0.030926
  14 H :    0.041288
  15 H :    0.025279
  16 S :    0.141822
  17 C :   -0.099546
  18 C :   -0.011641
  19 C :    0.001989
  20 C :   -0.191919
  21 H :   -0.016642
  22 C :    0.030082
  23 H :    0.032357
  24 H :    0.028276
  25 C :   -0.091761
  26 H :    0.041802
  27 H :    0.030994
  28 C :   -0.037430
  29 H :    0.026826
  30 H :    0.030774
  31 H :    0.040070
  32 H :    0.053132
  33 H :    0.057224
Sum of atomic charges:    0.0000000

LOEWDIN ATOMIC CHARGES
----------------------
   0 S :    0.378518
   1 C :   -0.193561
   2 C :   -0.065194
   3 C :   -0.068831
   4 C :   -0.172300
   5 H :    0.034437
   6 C :   -0.031181
   7 H :    0.038402
   8 H :    0.035121
   9 C :   -0.042300
  10 H :    0.021058
  11 H :    0.016384
  12 C :   -0.061466
  13 H :    0.023809
  14 H :    0.031016
  15 H :    0.025771
  16 S :    0.434851
  17 C :   -0.203452
  18 C :   -0.058572
  19 C :   -0.051879
  20 C :   -0.201125
  21 H :    0.014639
  22 C :   -0.038632
  23 H :    0.035098
  24 H :    0.031260
  25 C :   -0.050090
  26 H :    0.026946
  27 H :    0.027814
  28 C :   -0.068423
  29 H :    0.025699
  30 H :    0.020461
  31 H :    0.032294
  32 H :    0.025331
  33 H :    0.028095

  Mayer bond orders larger than 0.100000
B(  0-S ,  1-C ) :   1.1299 B(  0-S ,  4-C ) :   1.1288 B(  1-C ,  2-C ) :   1.6132
B(  1-C , 32-H ) :   0.9689 B(  2-C ,  3-C ) :   1.2417 B(  2-C ,  6-C ) :   1.0132
B(  3-C ,  4-C ) :   1.5829 B(  3-C ,  5-H ) :   0.9868 B(  4-C , 20-C ) :   1.0471
B(  6-C ,  7-H ) :   0.9386 B(  6-C ,  8-H ) :   0.9425 B(  6-C ,  9-C ) :   1.0698
B(  9-C , 10-H ) :   0.9550 B(  9-C , 11-H ) :   0.9547 B(  9-C , 12-C ) :   1.0922
B( 12-C , 13-H ) :   0.9745 B( 12-C , 14-H ) :   0.9743 B( 12-C , 15-H ) :   0.9705
B( 16-S , 17-C ) :   1.1923 B( 16-S , 20-C ) :   1.1410 B( 17-C , 18-C ) :   1.5531
B( 17-C , 20-C ) :   0.1043 B( 17-C , 33-H ) :   0.9652 B( 18-C , 19-C ) :   1.2859
B( 18-C , 21-H ) :   1.0017 B( 19-C , 20-C ) :   1.5704 B( 19-C , 22-C ) :   1.0266
B( 22-C , 23-H ) :   0.9444 B( 22-C , 24-H ) :   0.9332 B( 22-C , 25-C ) :   1.0498
B( 25-C , 26-H ) :   0.9521 B( 25-C , 27-H ) :   0.9538 B( 25-C , 28-C ) :   1.0891
B( 28-C , 29-H ) :   0.9722 B( 28-C , 30-H ) :   0.9747 B( 28-C , 31-H ) :   0.9720

Dispersion correction           -0.013976466
FINAL SINGLE POINT ENERGY     -1339.866117895687

DIPOLE MOMENT
-------------
                                X             Y             Z
Electronic contribution:     -0.33829      13.65666      12.47319
Nuclear contribution   :      0.09585     -14.07417     -12.67148
                        -----------------------------------------
Total Dipole Moment    :     -0.24243      -0.41750      -0.19829
                        -----------------------------------------
Magnitude (a.u.)       :      0.52192
Magnitude (Debye)      :      1.32662

Rotational constants in cm-1:     0.019121     0.007840     0.006252
Rotational constants in MHz :   573.237721   235.051542   187.441176

                             ****ORCA TERMINATED NORMALLY****
TOTAL RUN TIME: 0 days 0 hours 0 minutes 20 seconds 755 msec
