                         Program Version 4.2.1 -  RELEASE  -
|  1> ! wB97X-D3 SP def2-SVP
|  2> %pal
|  3> nprocs 24
|  4> end
|  5>
|  6> * xyz 0 1
|  7> S 	 -67.5111 	 -55.2659 	 -82.894
|  8> C 	 -68.792 	 -56.4473 	 -83.1433
|  9> C 	 -68.4432 	 -57.7639 	 -82.7435
| 10> C 	 -67.1445 	 -57.7635 	 -82.2305
| 11> C 	 -66.5084 	 -56.5433 	 -82.1908
| 12> H 	 -66.5307 	 -58.6654 	 -82.0273
| 13> C 	 -69.3877 	 -58.9736 	 -82.8774
| 14> H 	 -68.7168 	 -59.778 	 -83.2119
| 15> H 	 -69.9964 	 -58.657 	 -83.7247
| 16> C 	 -70.2563 	 -59.3771 	 -81.7719
| 17> H 	 -70.8147 	 -58.4672 	 -81.4749
| 18> H 	 -71.084 	 -60.0565 	 -82.1342
| 19> C 	 -69.6025 	 -60.1487 	 -80.6429
| 20> H 	 -68.7133 	 -59.8066 	 -80.289
| 21> H 	 -70.3028 	 -60.2186 	 -79.7709
| 22> H 	 -69.4728 	 -61.1263 	 -81.032
| 23> S 	 -64.0783 	 -55.8839 	 -83.3224
| 24> C 	 -62.7266 	 -55.4383 	 -82.3901
| 25> C 	 -62.9208 	 -55.839 	 -81.0774
| 26> C 	 -64.2247 	 -56.351 	 -80.8429
| 27> C 	 -65.0538 	 -56.3277 	 -81.9492
| 28> H 	 -62.1912 	 -55.8628 	 -80.3479
| 29> C 	 -64.6775 	 -57.1398 	 -79.6562
| 30> H 	 -65.6937 	 -57.3394 	 -79.6375
| 31> H 	 -64.3831 	 -56.5808 	 -78.7761
| 32> C 	 -63.9747 	 -58.4948 	 -79.5747
| 33> H 	 -62.9053 	 -58.3824 	 -79.5599
| 34> H 	 -64.2768 	 -58.9494 	 -80.5305
| 35> C 	 -64.2751 	 -59.3447 	 -78.3543
| 36> H 	 -65.3302 	 -59.4506 	 -78.2418
| 37> H 	 -63.9034 	 -58.8407 	 -77.4528
| 38> H 	 -63.7764 	 -60.2612 	 -78.526
| 39> H 	 -69.711 	 -56.2135 	 -83.6529
| 40> H 	 -61.7792 	 -55.044 	 -82.6733
| 41> *
| 42>
| 43>                          ****END OF INPUT****

CARTESIAN COORDINATES (ANGSTROEM)
---------------------------------
  S    -67.511100  -55.265900  -82.894000
  C    -68.792000  -56.447300  -83.143300
  C    -68.443200  -57.763900  -82.743500
  C    -67.144500  -57.763500  -82.230500
  C    -66.508400  -56.543300  -82.190800
  H    -66.530700  -58.665400  -82.027300
  C    -69.387700  -58.973600  -82.877400
  H    -68.716800  -59.778000  -83.211900
  H    -69.996400  -58.657000  -83.724700
  C    -70.256300  -59.377100  -81.771900
  H    -70.814700  -58.467200  -81.474900
  H    -71.084000  -60.056500  -82.134200
  C    -69.602500  -60.148700  -80.642900
  H    -68.713300  -59.806600  -80.289000
  H    -70.302800  -60.218600  -79.770900
  H    -69.472800  -61.126300  -81.032000
  S    -64.078300  -55.883900  -83.322400
  C    -62.726600  -55.438300  -82.390100
  C    -62.920800  -55.839000  -81.077400
  C    -64.224700  -56.351000  -80.842900
  C    -65.053800  -56.327700  -81.949200
  H    -62.191200  -55.862800  -80.347900
  C    -64.677500  -57.139800  -79.656200
  H    -65.693700  -57.339400  -79.637500
  H    -64.383100  -56.580800  -78.776100
  C    -63.974700  -58.494800  -79.574700
  H    -62.905300  -58.382400  -79.559900
  H    -64.276800  -58.949400  -80.530500
  C    -64.275100  -59.344700  -78.354300
  H    -65.330200  -59.450600  -78.241800
  H    -63.903400  -58.840700  -77.452800
  H    -63.776400  -60.261200  -78.526000
  H    -69.711000  -56.213500  -83.652900
  H    -61.779200  -55.044000  -82.673300

 Total Charge           Charge          ....    0
 Multiplicity           Mult            ....    1
 Number of Electrons    NEL             ....  134
 Basis Dimension        Dim             ....  322

ORBITAL ENERGIES
----------------

  NO   OCC          E(Eh)            E(eV)
   0   2.0000     -88.972416     -2421.0625
   1   2.0000     -88.961312     -2420.7604
   2   2.0000     -10.331533      -281.1353
   3   2.0000     -10.321002      -280.8487
   4   2.0000     -10.320046      -280.8227
   5   2.0000     -10.312728      -280.6236
   6   2.0000     -10.304762      -280.4068
   7   2.0000     -10.296217      -280.1743
   8   2.0000     -10.295325      -280.1500
   9   2.0000     -10.293218      -280.0927
  10   2.0000     -10.288379      -279.9610
  11   2.0000     -10.285771      -279.8901
  12   2.0000     -10.279347      -279.7152
  13   2.0000     -10.276784      -279.6455
  14   2.0000     -10.272339      -279.5245
  15   2.0000     -10.270797      -279.4826
  16   2.0000      -8.086317      -220.0399
  17   2.0000      -8.077009      -219.7866
  18   2.0000      -6.044694      -164.4845
  19   2.0000      -6.040945      -164.3825
  20   2.0000      -6.037248      -164.2819
  21   2.0000      -6.035444      -164.2328
  22   2.0000      -6.031255      -164.1188
  23   2.0000      -6.027897      -164.0274
  24   2.0000      -1.008394       -27.4398
  25   2.0000      -0.986787       -26.8518
  26   2.0000      -0.919965       -25.0335
  27   2.0000      -0.915108       -24.9013
  28   2.0000      -0.867509       -23.6061
  29   2.0000      -0.854699       -23.2576
  30   2.0000      -0.850035       -23.1306
  31   2.0000      -0.818867       -22.2825
  32   2.0000      -0.789022       -21.4704
  33   2.0000      -0.774049       -21.0630
  34   2.0000      -0.702931       -19.1277
  35   2.0000      -0.698873       -19.0173
  36   2.0000      -0.694553       -18.8997
  37   2.0000      -0.663339       -18.0504
  38   2.0000      -0.642028       -17.4705
  39   2.0000      -0.617482       -16.8025
  40   2.0000      -0.599027       -16.3003
  41   2.0000      -0.577771       -15.7219
  42   2.0000      -0.572907       -15.5896
  43   2.0000      -0.557319       -15.1654
  44   2.0000      -0.548959       -14.9379
  45   2.0000      -0.531250       -14.4560
  46   2.0000      -0.518099       -14.0982
  47   2.0000      -0.514130       -13.9902
  48   2.0000      -0.510786       -13.8992
  49   2.0000      -0.495208       -13.4753
  50   2.0000      -0.493428       -13.4269
  51   2.0000      -0.484021       -13.1709
  52   2.0000      -0.468341       -12.7442
  53   2.0000      -0.467989       -12.7346
  54   2.0000      -0.462826       -12.5941
  55   2.0000      -0.450016       -12.2456
  56   2.0000      -0.447543       -12.1783
  57   2.0000      -0.442083       -12.0297
  58   2.0000      -0.429003       -11.6738
  59   2.0000      -0.428304       -11.6547
  60   2.0000      -0.420406       -11.4398
  61   2.0000      -0.413094       -11.2408
  62   2.0000      -0.408393       -11.1129
  63   2.0000      -0.344211        -9.3665
  64   2.0000      -0.326453        -8.8832
  65   2.0000      -0.323360        -8.7991
  66   2.0000      -0.299943        -8.1619
  67   0.0000       0.031024         0.8442
  68   0.0000       0.061636         1.6772
  69   0.0000       0.114300         3.1102
  70   0.0000       0.116896         3.1809
  71   0.0000       0.126831         3.4513

MULLIKEN ATOMIC CHARGES
-----------------------
   0 S :    0.131917
   1 C :   -0.128014
   2 C :   -0.104643
   3 C :    0.020857
   4 C :   -0.148405
   5 H :    0.028152
   6 C :    0.083394
   7 H :    0.021176
   8 H :    0.019493
   9 C :   -0.059525
  10 H :    0.023138
  11 H :    0.033933
  12 C :   -0.005491
  13 H :    0.011016
  14 H :    0.037144
  15 H :    0.018828
  16 S :    0.117449
  17 C :   -0.064608
  18 C :   -0.013392
  19 C :   -0.035815
  20 C :   -0.200664
  21 H :   -0.017175
  22 C :    0.112755
  23 H :    0.005592
  24 H :    0.005263
  25 C :   -0.117616
  26 H :    0.017772
  27 H :    0.020805
  28 C :    0.013341
  29 H :    0.019116
  30 H :    0.028559
  31 H :    0.033655
  32 H :    0.045710
  33 H :    0.046284
Sum of atomic charges:    0.0000000

LOEWDIN ATOMIC CHARGES
----------------------
   0 S :    0.411296
   1 C :   -0.189126
   2 C :   -0.064032
   3 C :   -0.066547
   4 C :   -0.196885
   5 H :    0.037571
   6 C :   -0.032871
   7 H :    0.030687
   8 H :    0.035300
   9 C :   -0.048962
  10 H :    0.025442
  11 H :    0.033894
  12 C :   -0.053852
  13 H :    0.007466
  14 H :    0.036062
  15 H :    0.023454
  16 S :    0.431670
  17 C :   -0.193829
  18 C :   -0.066178
  19 C :   -0.053900
  20 C :   -0.211004
  21 H :    0.016031
  22 C :   -0.023886
  23 H :    0.018246
  24 H :    0.023246
  25 C :   -0.037620
  26 H :    0.018121
  27 H :    0.020207
  28 C :   -0.053760
  29 H :    0.018829
  30 H :    0.028007
  31 H :    0.025735
  32 H :    0.022589
  33 H :    0.028597

  Mayer bond orders larger than 0.100000
B(  0-S ,  1-C ) :   1.1648 B(  0-S ,  4-C ) :   1.1531 B(  1-C ,  2-C ) :   1.5796
B(  1-C ,  4-C ) :   0.1036 B(  1-C , 32-H ) :   0.9657 B(  2-C ,  3-C ) :   1.2767
B(  2-C ,  6-C ) :   1.0091 B(  3-C ,  4-C ) :   1.5691 B(  3-C ,  5-H ) :   0.9808
B(  4-C , 20-C ) :   1.0070 B(  6-C ,  7-H ) :   0.9368 B(  6-C ,  8-H ) :   0.9277
B(  6-C ,  9-C ) :   1.0909 B(  9-C , 10-H ) :   0.9464 B(  9-C , 11-H ) :   0.9510
B(  9-C , 12-C ) :   1.0740 B( 12-C , 13-H ) :   0.9805 B( 12-C , 14-H ) :   0.9716
B( 12-C , 15-H ) :   0.9727 B( 16-S , 17-C ) :   1.1796 B( 16-S , 20-C ) :   1.1556
B( 17-C , 18-C ) :   1.5524 B( 17-C , 20-C ) :   0.1001 B( 17-C , 33-H ) :   0.9723
B( 18-C , 19-C ) :   1.2806 B( 18-C , 21-H ) :   1.0011 B( 19-C , 20-C ) :   1.5726
B( 19-C , 22-C ) :   1.0679 B( 22-C , 23-H ) :   0.9337 B( 22-C , 24-H ) :   0.9195
B( 22-C , 25-C ) :   1.0642 B( 25-C , 26-H ) :   0.9539 B( 25-C , 27-H ) :   0.9532
B( 25-C , 28-C ) :   1.0877 B( 28-C , 29-H ) :   0.9736 B( 28-C , 30-H ) :   0.9713
B( 28-C , 31-H ) :   0.9712

Dispersion correction           -0.014339331
FINAL SINGLE POINT ENERGY     -1339.864737826743

DIPOLE MOMENT
-------------
                                X             Y             Z
Electronic contribution:      7.67637      23.34497     -17.68444
Nuclear contribution   :     -7.75881     -23.91549      17.89872
                        -----------------------------------------
Total Dipole Moment    :     -0.08244      -0.57052       0.21429
                        -----------------------------------------
Magnitude (a.u.)       :      0.61498
Magnitude (Debye)      :      1.56317

Rotational constants in cm-1:     0.017337     0.009587     0.006679
Rotational constants in MHz :   519.743314   287.408980   200.242526

                             ****ORCA TERMINATED NORMALLY****
TOTAL RUN TIME: 0 days 0 hours 0 minutes 21 seconds 755 msec
