                         Program Version 4.2.1 -  RELEASE  -
|  1> ! wB97X-D3 SP def2-SVP
|  2> %pal
|  3> nprocs 24
|  4> end
|  5>
|  6> * xyz 0 1
|  7> S 	 -100.37 	 7.29945 	 -123.054
|  8> C 	 -100.615 	 6.42736 	 -124.559
|  9> C 	 -101.889 	 5.89357 	 -124.59
| 10> C 	 -102.63 	 6.13884 	 -123.358
| 11> C 	 -101.832 	 6.61339 	 -122.334
| 12> H 	 -103.62 	 5.90841 	 -123.149
| 13> C 	 -102.55 	 5.34267 	 -125.825
| 14> H 	 -102.733 	 6.17368 	 -126.439
| 15> H 	 -103.507 	 5.05568 	 -125.477
| 16> C 	 -101.884 	 4.12544 	 -126.523
| 17> H 	 -100.824 	 4.33014 	 -126.69
| 18> H 	 -101.904 	 3.20258 	 -125.883
| 19> C 	 -102.483 	 3.84453 	 -127.898
| 20> H 	 -102.432 	 4.8117 	 -128.442
| 21> H 	 -101.911 	 3.08205 	 -128.463
| 22> H 	 -103.515 	 3.5753 	 -128.037
| 23> S 	 -103.816 	 7.47624 	 -120.582
| 24> C 	 -103.526 	 7.85374 	 -118.881
| 25> C 	 -102.181 	 7.39425 	 -118.624
| 26> C 	 -101.407 	 6.94371 	 -119.784
| 27> C 	 -102.185 	 6.9303 	 -120.957
| 28> H 	 -101.909 	 7.26341 	 -117.584
| 29> C 	 -99.9785 	 6.45738 	 -119.586
| 30> H 	 -99.7291 	 5.769 	 -120.369
| 31> H 	 -99.8454 	 6.03045 	 -118.679
| 32> C 	 -98.8799 	 7.57105 	 -119.583
| 33> H 	 -99.3907 	 8.51208 	 -119.282
| 34> H 	 -98.6212 	 7.70861 	 -120.6
| 35> C 	 -97.6425 	 7.34571 	 -118.815
| 36> H 	 -97.2155 	 6.39587 	 -119.127
| 37> H 	 -97.8418 	 7.29077 	 -117.718
| 38> H 	 -96.8641 	 8.03522 	 -119.173
| 39> H 	 -99.9629 	 6.50679 	 -125.413
| 40> H 	 -104.278 	 8.2467 	 -118.181
| 41> *
| 42>
| 43>                          ****END OF INPUT****

CARTESIAN COORDINATES (ANGSTROEM)
---------------------------------
  S    -100.370000    7.299450  -123.054000
  C    -100.615000    6.427360  -124.559000
  C    -101.889000    5.893570  -124.590000
  C    -102.630000    6.138840  -123.358000
  C    -101.832000    6.613390  -122.334000
  H    -103.620000    5.908410  -123.149000
  C    -102.550000    5.342670  -125.825000
  H    -102.733000    6.173680  -126.439000
  H    -103.507000    5.055680  -125.477000
  C    -101.884000    4.125440  -126.523000
  H    -100.824000    4.330140  -126.690000
  H    -101.904000    3.202580  -125.883000
  C    -102.483000    3.844530  -127.898000
  H    -102.432000    4.811700  -128.442000
  H    -101.911000    3.082050  -128.463000
  H    -103.515000    3.575300  -128.037000
  S    -103.816000    7.476240  -120.582000
  C    -103.526000    7.853740  -118.881000
  C    -102.181000    7.394250  -118.624000
  C    -101.407000    6.943710  -119.784000
  C    -102.185000    6.930300  -120.957000
  H    -101.909000    7.263410  -117.584000
  C    -99.978500    6.457380  -119.586000
  H    -99.729100    5.769000  -120.369000
  H    -99.845400    6.030450  -118.679000
  C    -98.879900    7.571050  -119.583000
  H    -99.390700    8.512080  -119.282000
  H    -98.621200    7.708610  -120.600000
  C    -97.642500    7.345710  -118.815000
  H    -97.215500    6.395870  -119.127000
  H    -97.841800    7.290770  -117.718000
  H    -96.864100    8.035220  -119.173000
  H    -99.962900    6.506790  -125.413000
  H    -104.278000    8.246700  -118.181000

 Total Charge           Charge          ....    0
 Multiplicity           Mult            ....    1
 Number of Electrons    NEL             ....  134
 Basis Dimension        Dim             ....  322

ORBITAL ENERGIES
----------------

  NO   OCC          E(Eh)            E(eV)
   0   2.0000     -88.966874     -2420.9117
   1   2.0000     -88.965802     -2420.8826
   2   2.0000     -10.334578      -281.2182
   3   2.0000     -10.334174      -281.2072
   4   2.0000     -10.331798      -281.1425
   5   2.0000     -10.313536      -280.6456
   6   2.0000     -10.313149      -280.6351
   7   2.0000     -10.305264      -280.4205
   8   2.0000     -10.304461      -280.3986
   9   2.0000     -10.295030      -280.1420
  10   2.0000     -10.294385      -280.1244
  11   2.0000     -10.285659      -279.8870
  12   2.0000     -10.280444      -279.7451
  13   2.0000     -10.280407      -279.7441
  14   2.0000     -10.276366      -279.6341
  15   2.0000     -10.273002      -279.5426
  16   2.0000      -8.080865      -219.8915
  17   2.0000      -8.079861      -219.8642
  18   2.0000      -6.039502      -164.3432
  19   2.0000      -6.038529      -164.3167
  20   2.0000      -6.035264      -164.2279
  21   2.0000      -6.034547      -164.2084
  22   2.0000      -6.031736      -164.1319
  23   2.0000      -6.030390      -164.0952
  24   2.0000      -1.002807       -27.2878
  25   2.0000      -0.978005       -26.6129
  26   2.0000      -0.911599       -24.8059
  27   2.0000      -0.909937       -24.7606
  28   2.0000      -0.868487       -23.6327
  29   2.0000      -0.852383       -23.1945
  30   2.0000      -0.847036       -23.0490
  31   2.0000      -0.812393       -22.1063
  32   2.0000      -0.783923       -21.3316
  33   2.0000      -0.771813       -21.0021
  34   2.0000      -0.708793       -19.2872
  35   2.0000      -0.701412       -19.0864
  36   2.0000      -0.688965       -18.7477
  37   2.0000      -0.667733       -18.1699
  38   2.0000      -0.643408       -17.5080
  39   2.0000      -0.612375       -16.6636
  40   2.0000      -0.593290       -16.1442
  41   2.0000      -0.572755       -15.5854
  42   2.0000      -0.568924       -15.4812
  43   2.0000      -0.561775       -15.2867
  44   2.0000      -0.528825       -14.3901
  45   2.0000      -0.525328       -14.2949
  46   2.0000      -0.516231       -14.0473
  47   2.0000      -0.515394       -14.0246
  48   2.0000      -0.513672       -13.9777
  49   2.0000      -0.505168       -13.7463
  50   2.0000      -0.499909       -13.6032
  51   2.0000      -0.475437       -12.9373
  52   2.0000      -0.473102       -12.8738
  53   2.0000      -0.467388       -12.7183
  54   2.0000      -0.459252       -12.4969
  55   2.0000      -0.449389       -12.2285
  56   2.0000      -0.447555       -12.1786
  57   2.0000      -0.435786       -11.8583
  58   2.0000      -0.425036       -11.5658
  59   2.0000      -0.417366       -11.3571
  60   2.0000      -0.416051       -11.3213
  61   2.0000      -0.414541       -11.2802
  62   2.0000      -0.408500       -11.1158
  63   2.0000      -0.352874        -9.6022
  64   2.0000      -0.326236        -8.8773
  65   2.0000      -0.324473        -8.8294
  66   2.0000      -0.289114        -7.8672
  67   0.0000       0.017860         0.4860
  68   0.0000       0.070579         1.9205
  69   0.0000       0.100614         2.7379
  70   0.0000       0.105973         2.8837
  71   0.0000       0.132605         3.6084

MULLIKEN ATOMIC CHARGES
-----------------------
   0 S :    0.096525
   1 C :   -0.112479
   2 C :   -0.107818
   3 C :    0.023149
   4 C :   -0.119776
   5 H :   -0.007217
   6 C :    0.110093
   7 H :    0.028120
   8 H :    0.001832
   9 C :   -0.072549
  10 H :    0.028789
  11 H :    0.043426
  12 C :   -0.062022
  13 H :    0.022343
  14 H :    0.038935
  15 H :    0.029226
  16 S :    0.092242
  17 C :   -0.119910
  18 C :   -0.043004
  19 C :   -0.063420
  20 C :   -0.131469
  21 H :    0.029866
  22 C :    0.139407
  23 H :    0.024698
  24 H :   -0.016583
  25 C :   -0.091397
  26 H :    0.030000
  27 H :    0.010358
  28 C :   -0.037182
  29 H :    0.016219
  30 H :    0.044885
  31 H :    0.040632
  32 H :    0.049789
  33 H :    0.084293
Sum of atomic charges:   -0.0000000

LOEWDIN ATOMIC CHARGES
----------------------
   0 S :    0.404494
   1 C :   -0.196118
   2 C :   -0.055954
   3 C :   -0.058100
   4 C :   -0.176758
   5 H :    0.016962
   6 C :   -0.027460
   7 H :    0.028560
   8 H :    0.025482
   9 C :   -0.037611
  10 H :    0.023972
  11 H :    0.031718
  12 C :   -0.073758
  13 H :    0.027599
  14 H :    0.029903
  15 H :    0.020938
  16 S :    0.401005
  17 C :   -0.191107
  18 C :   -0.069436
  19 C :   -0.050400
  20 C :   -0.201195
  21 H :    0.028743
  22 C :   -0.020686
  23 H :    0.027904
  24 H :    0.013933
  25 C :   -0.045058
  26 H :    0.024417
  27 H :    0.010474
  28 C :   -0.069820
  29 H :    0.023611
  30 H :    0.029334
  31 H :    0.036340
  32 H :    0.026913
  33 H :    0.041157

  Mayer bond orders larger than 0.100000
B(  0-S ,  1-C ) :   1.1250 B(  0-S ,  4-C ) :   1.1458 B(  1-C ,  2-C ) :   1.6099
B(  1-C , 32-H ) :   0.9727 B(  2-C ,  3-C ) :   1.2333 B(  2-C ,  6-C ) :   1.0170
B(  3-C ,  4-C ) :   1.5647 B(  3-C ,  5-H ) :   1.0043 B(  4-C , 20-C ) :   1.0792
B(  6-C ,  7-H ) :   0.9373 B(  6-C ,  8-H ) :   0.9342 B(  6-C ,  9-C ) :   1.0578
B(  9-C , 10-H ) :   0.9586 B(  9-C , 11-H ) :   0.9567 B(  9-C , 12-C ) :   1.0750
B( 12-C , 13-H ) :   0.9733 B( 12-C , 14-H ) :   0.9748 B( 12-C , 15-H ) :   0.9778
B( 16-S , 17-C ) :   1.1625 B( 16-S , 20-C ) :   1.1376 B( 17-C , 18-C ) :   1.5678
B( 17-C , 20-C ) :   0.1035 B( 17-C , 33-H ) :   0.9694 B( 18-C , 19-C ) :   1.2534
B( 18-C , 21-H ) :   0.9855 B( 19-C , 20-C ) :   1.5402 B( 19-C , 22-C ) :   1.0664
B( 22-C , 23-H ) :   0.9271 B( 22-C , 24-H ) :   0.9315 B( 22-C , 25-C ) :   1.0447
B( 25-C , 26-H ) :   0.9593 B( 25-C , 27-H ) :   0.9458 B( 25-C , 28-C ) :   1.1053
B( 28-C , 29-H ) :   0.9667 B( 28-C , 30-H ) :   0.9715 B( 28-C , 31-H ) :   0.9672

Dispersion correction           -0.013617242
FINAL SINGLE POINT ENERGY     -1339.856775913286

DIPOLE MOMENT
-------------
                                X             Y             Z
Electronic contribution:    -11.01438       9.88880       9.04700
Nuclear contribution   :     11.01102     -10.08990      -9.17707
                        -----------------------------------------
Total Dipole Moment    :     -0.00336      -0.20110      -0.13007
                        -----------------------------------------
Magnitude (a.u.)       :      0.23952
Magnitude (Debye)      :      0.60881

Rotational constants in cm-1:     0.021991     0.007103     0.005692
Rotational constants in MHz :   659.263550   212.945073   170.639367

                             ****ORCA TERMINATED NORMALLY****
TOTAL RUN TIME: 0 days 0 hours 0 minutes 19 seconds 552 msec
