                         Program Version 4.2.1 -  RELEASE  -
|  1> ! wB97X-D3 SP def2-SVP
|  2> %pal
|  3> nprocs 24
|  4> end
|  5>
|  6> * xyz 0 1
|  7> S 	 -122.567 	 51.7165 	 -37.0496
|  8> C 	 -122.651 	 49.9559 	 -37.3678
|  9> C 	 -123.206 	 49.3045 	 -36.2801
| 10> C 	 -123.653 	 50.2009 	 -35.2947
| 11> C 	 -123.335 	 51.5049 	 -35.4984
| 12> H 	 -124.169 	 49.9223 	 -34.3379
| 13> C 	 -123.354 	 47.7887 	 -36.1795
| 14> H 	 -123.031 	 47.3508 	 -37.2004
| 15> H 	 -124.38 	 47.5108 	 -36.2012
| 16> C 	 -122.596 	 47.1004 	 -35.0008
| 17> H 	 -122.97 	 47.4374 	 -34.0375
| 18> H 	 -122.833 	 46.0728 	 -35.1211
| 19> C 	 -121.059 	 47.3141 	 -35.1287
| 20> H 	 -120.582 	 47.0043 	 -34.1801
| 21> H 	 -120.588 	 46.63 	 -35.8704
| 22> H 	 -120.837 	 48.4073 	 -35.3412
| 23> S 	 -124.855 	 53.8247 	 -35.0319
| 24> C 	 -124.662 	 54.6827 	 -33.5057
| 25> C 	 -123.747 	 54.1278 	 -32.6996
| 26> C 	 -123.069 	 52.9934 	 -33.3225
| 27> C 	 -123.567 	 52.6364 	 -34.5721
| 28> H 	 -123.503 	 54.6275 	 -31.7267
| 29> C 	 -121.97 	 52.2271 	 -32.6805
| 30> H 	 -121.176 	 52.9646 	 -32.4762
| 31> H 	 -121.504 	 51.5994 	 -33.4963
| 32> C 	 -122.271 	 51.5508 	 -31.336
| 33> H 	 -122.403 	 52.2294 	 -30.5173
| 34> H 	 -121.478 	 50.9116 	 -31.0653
| 35> C 	 -123.477 	 50.5828 	 -31.353
| 36> H 	 -123.713 	 50.3203 	 -30.3762
| 37> H 	 -123.336 	 49.7354 	 -31.9825
| 38> H 	 -124.385 	 51.1327 	 -31.6569
| 39> H 	 -122.171 	 49.3902 	 -38.1711
| 40> H 	 -125.043 	 55.6613 	 -33.2833
| 41> *
| 42>
| 43>                          ****END OF INPUT****

CARTESIAN COORDINATES (ANGSTROEM)
---------------------------------
  S    -122.567000   51.716500  -37.049600
  C    -122.651000   49.955900  -37.367800
  C    -123.206000   49.304500  -36.280100
  C    -123.653000   50.200900  -35.294700
  C    -123.335000   51.504900  -35.498400
  H    -124.169000   49.922300  -34.337900
  C    -123.354000   47.788700  -36.179500
  H    -123.031000   47.350800  -37.200400
  H    -124.380000   47.510800  -36.201200
  C    -122.596000   47.100400  -35.000800
  H    -122.970000   47.437400  -34.037500
  H    -122.833000   46.072800  -35.121100
  C    -121.059000   47.314100  -35.128700
  H    -120.582000   47.004300  -34.180100
  H    -120.588000   46.630000  -35.870400
  H    -120.837000   48.407300  -35.341200
  S    -124.855000   53.824700  -35.031900
  C    -124.662000   54.682700  -33.505700
  C    -123.747000   54.127800  -32.699600
  C    -123.069000   52.993400  -33.322500
  C    -123.567000   52.636400  -34.572100
  H    -123.503000   54.627500  -31.726700
  C    -121.970000   52.227100  -32.680500
  H    -121.176000   52.964600  -32.476200
  H    -121.504000   51.599400  -33.496300
  C    -122.271000   51.550800  -31.336000
  H    -122.403000   52.229400  -30.517300
  H    -121.478000   50.911600  -31.065300
  C    -123.477000   50.582800  -31.353000
  H    -123.713000   50.320300  -30.376200
  H    -123.336000   49.735400  -31.982500
  H    -124.385000   51.132700  -31.656900
  H    -122.171000   49.390200  -38.171100
  H    -125.043000   55.661300  -33.283300

 Total Charge           Charge          ....    0
 Multiplicity           Mult            ....    1
 Number of Electrons    NEL             ....  134
 Basis Dimension        Dim             ....  322

ORBITAL ENERGIES
----------------

  NO   OCC          E(Eh)            E(eV)
   0   2.0000     -88.967977     -2420.9417
   1   2.0000     -88.959463     -2420.7101
   2   2.0000     -10.331504      -281.1345
   3   2.0000     -10.330134      -281.0972
   4   2.0000     -10.319045      -280.7955
   5   2.0000     -10.314980      -280.6849
   6   2.0000     -10.307651      -280.4854
   7   2.0000     -10.300677      -280.2957
   8   2.0000     -10.298399      -280.2337
   9   2.0000     -10.296757      -280.1890
  10   2.0000     -10.294014      -280.1144
  11   2.0000     -10.291723      -280.0520
  12   2.0000     -10.290553      -280.0202
  13   2.0000     -10.286021      -279.8969
  14   2.0000     -10.282768      -279.8084
  15   2.0000     -10.267917      -279.4042
  16   2.0000      -8.082075      -219.9244
  17   2.0000      -8.073545      -219.6923
  18   2.0000      -6.040641      -164.3742
  19   2.0000      -6.036669      -164.2661
  20   2.0000      -6.032790      -164.1606
  21   2.0000      -6.032197      -164.1444
  22   2.0000      -6.028246      -164.0369
  23   2.0000      -6.024077      -163.9235
  24   2.0000      -1.003548       -27.3079
  25   2.0000      -0.981537       -26.7090
  26   2.0000      -0.908309       -24.7163
  27   2.0000      -0.907560       -24.6960
  28   2.0000      -0.867712       -23.6116
  29   2.0000      -0.846713       -23.0402
  30   2.0000      -0.842445       -22.9241
  31   2.0000      -0.818129       -22.2624
  32   2.0000      -0.781816       -21.2743
  33   2.0000      -0.772816       -21.0294
  34   2.0000      -0.712306       -19.3828
  35   2.0000      -0.698821       -19.0159
  36   2.0000      -0.693608       -18.8740
  37   2.0000      -0.652423       -17.7533
  38   2.0000      -0.638503       -17.3746
  39   2.0000      -0.617456       -16.8018
  40   2.0000      -0.590940       -16.0803
  41   2.0000      -0.571667       -15.5558
  42   2.0000      -0.554794       -15.0967
  43   2.0000      -0.549373       -14.9492
  44   2.0000      -0.545124       -14.8336
  45   2.0000      -0.540440       -14.7061
  46   2.0000      -0.521212       -14.1829
  47   2.0000      -0.509591       -13.8667
  48   2.0000      -0.502625       -13.6771
  49   2.0000      -0.492328       -13.3969
  50   2.0000      -0.482694       -13.1348
  51   2.0000      -0.471446       -12.8287
  52   2.0000      -0.468505       -12.7487
  53   2.0000      -0.464955       -12.6521
  54   2.0000      -0.462003       -12.5717
  55   2.0000      -0.444290       -12.0897
  56   2.0000      -0.440561       -11.9883
  57   2.0000      -0.436116       -11.8673
  58   2.0000      -0.432259       -11.7624
  59   2.0000      -0.425991       -11.5918
  60   2.0000      -0.423101       -11.5132
  61   2.0000      -0.419158       -11.4059
  62   2.0000      -0.410040       -11.1578
  63   2.0000      -0.338282        -9.2051
  64   2.0000      -0.333189        -9.0665
  65   2.0000      -0.324169        -8.8211
  66   2.0000      -0.308781        -8.4024
  67   0.0000       0.037553         1.0219
  68   0.0000       0.061115         1.6630
  69   0.0000       0.116848         3.1796
  70   0.0000       0.123067         3.3488
  71   0.0000       0.125175         3.4062

MULLIKEN ATOMIC CHARGES
-----------------------
   0 S :    0.113486
   1 C :   -0.118490
   2 C :   -0.099585
   3 C :    0.038939
   4 C :   -0.173699
   5 H :    0.025767
   6 C :    0.042858
   7 H :    0.016158
   8 H :    0.030884
   9 C :   -0.045740
  10 H :    0.034983
  11 H :    0.026090
  12 C :   -0.091011
  13 H :    0.034384
  14 H :    0.037282
  15 H :    0.062855
  16 S :    0.081633
  17 C :   -0.070479
  18 C :   -0.048148
  19 C :   -0.039901
  20 C :   -0.164287
  21 H :    0.038715
  22 C :    0.048456
  23 H :    0.030621
  24 H :    0.042485
  25 C :   -0.041976
  26 H :    0.022672
  27 H :    0.020487
  28 C :   -0.039414
  29 H :    0.011410
  30 H :    0.031302
  31 H :    0.034540
  32 H :    0.053902
  33 H :    0.052822
Sum of atomic charges:   -0.0000000

LOEWDIN ATOMIC CHARGES
----------------------
   0 S :    0.396485
   1 C :   -0.187529
   2 C :   -0.069837
   3 C :   -0.064655
   4 C :   -0.201293
   5 H :    0.041354
   6 C :   -0.032646
   7 H :    0.034576
   8 H :    0.026480
   9 C :   -0.034836
  10 H :    0.021791
  11 H :    0.022655
  12 C :   -0.074784
  13 H :    0.026336
  14 H :    0.028305
  15 H :    0.035347
  16 S :    0.363118
  17 C :   -0.169831
  18 C :   -0.083209
  19 C :   -0.049732
  20 C :   -0.184252
  21 H :    0.042411
  22 C :   -0.042084
  23 H :    0.037067
  24 H :    0.040552
  25 C :   -0.032645
  26 H :    0.021757
  27 H :    0.022660
  28 C :   -0.059386
  29 H :    0.016924
  30 H :    0.017441
  31 H :    0.027919
  32 H :    0.033274
  33 H :    0.030268

  Mayer bond orders larger than 0.100000
B(  0-S ,  1-C ) :   1.1306 B(  0-S ,  4-C ) :   1.1501 B(  1-C ,  2-C ) :   1.6196
B(  1-C , 32-H ) :   0.9608 B(  2-C ,  3-C ) :   1.2286 B(  2-C ,  6-C ) :   1.0198
B(  3-C ,  4-C ) :   1.6024 B(  3-C ,  5-H ) :   0.9868 B(  4-C , 20-C ) :   1.0010
B(  6-C ,  7-H ) :   0.9419 B(  6-C ,  8-H ) :   0.9414 B(  6-C ,  9-C ) :   1.0649
B(  9-C , 10-H ) :   0.9598 B(  9-C , 11-H ) :   0.9546 B(  9-C , 12-C ) :   1.0674
B( 12-C , 13-H ) :   0.9754 B( 12-C , 14-H ) :   0.9756 B( 12-C , 15-H ) :   0.9753
B( 16-S , 17-C ) :   1.1395 B( 16-S , 20-C ) :   1.1066 B( 17-C , 18-C ) :   1.6724
B( 17-C , 33-H ) :   0.9601 B( 18-C , 19-C ) :   1.1832 B( 18-C , 21-H ) :   0.9813
B( 19-C , 20-C ) :   1.6439 B( 19-C , 22-C ) :   1.0592 B( 22-C , 23-H ) :   0.9255
B( 22-C , 24-H ) :   0.9354 B( 22-C , 25-C ) :   1.0665 B( 25-C , 26-H ) :   0.9541
B( 25-C , 27-H ) :   0.9536 B( 25-C , 28-C ) :   1.0861 B( 28-C , 29-H ) :   0.9691
B( 28-C , 30-H ) :   0.9754 B( 28-C , 31-H ) :   0.9701

Dispersion correction           -0.015896336
FINAL SINGLE POINT ENERGY     -1339.883322750696

DIPOLE MOMENT
-------------
                                X             Y             Z
Electronic contribution:     -8.47948      22.24363     -16.02475
Nuclear contribution   :      8.73684     -22.71228      16.63393
                        -----------------------------------------
Total Dipole Moment    :      0.25737      -0.46865       0.60918
                        -----------------------------------------
Magnitude (a.u.)       :      0.81054
Magnitude (Debye)      :      2.06023

Rotational constants in cm-1:     0.019289     0.009834     0.007384
Rotational constants in MHz :   578.279712   294.812887   221.373353

                             ****ORCA TERMINATED NORMALLY****
TOTAL RUN TIME: 0 days 0 hours 0 minutes 22 seconds 785 msec
