                         Program Version 4.2.1 -  RELEASE  -
|  1> ! wB97X-D3 SP def2-SVP
|  2> %pal
|  3> nprocs 24
|  4> end
|  5>
|  6> * xyz 0 1
|  7> S 	 -74.122 	 -44.7709 	 -92.4717
|  8> C 	 -73.76 	 -43.1607 	 -91.9603
|  9> C 	 -72.9428 	 -42.4863 	 -92.8944
| 10> C 	 -72.6404 	 -43.3258 	 -93.964
| 11> C 	 -73.2684 	 -44.5671 	 -93.9175
| 12> H 	 -72.1083 	 -43.0351 	 -94.8496
| 13> C 	 -72.5742 	 -40.9839 	 -92.8265
| 14> H 	 -73.5052 	 -40.5593 	 -93.2908
| 15> H 	 -71.8393 	 -40.5372 	 -93.4866
| 16> C 	 -72.35 	 -40.257 	 -91.4663
| 17> H 	 -72.4383 	 -39.2228 	 -91.5841
| 18> H 	 -73.1296 	 -40.5731 	 -90.7725
| 19> C 	 -71.0475 	 -40.6456 	 -90.8508
| 20> H 	 -71.0703 	 -40.1118 	 -89.87
| 21> H 	 -70.9431 	 -41.7604 	 -90.6318
| 22> H 	 -70.1705 	 -40.3283 	 -91.4256
| 23> S 	 -72.1214 	 -47.012 	 -94.2633
| 24> C 	 -72.1545 	 -47.7239 	 -95.8698
| 25> C 	 -72.9506 	 -47.0736 	 -96.7489
| 26> C 	 -73.5298 	 -45.8869 	 -96.1781
| 27> C 	 -73.1466 	 -45.7108 	 -94.8404
| 28> H 	 -73.1175 	 -47.3768 	 -97.8194
| 29> C 	 -74.2859 	 -44.9325 	 -97.0913
| 30> H 	 -74.3893 	 -45.5187 	 -98.0077
| 31> H 	 -73.6102 	 -44.1528 	 -97.3873
| 32> C 	 -75.637 	 -44.5133 	 -96.6537
| 33> H 	 -76.213 	 -44.0169 	 -97.4343
| 34> H 	 -75.4957 	 -43.8132 	 -95.8429
| 35> C 	 -76.5601 	 -45.4987 	 -96.0226
| 36> H 	 -76.1169 	 -45.9794 	 -95.1047
| 37> H 	 -76.7639 	 -46.2115 	 -96.8027
| 38> H 	 -77.5797 	 -45.1481 	 -95.749
| 39> H 	 -74.1519 	 -42.7135 	 -91.077
| 40> H 	 -71.6336 	 -48.6578 	 -96.1902
| 41> *
| 42>
| 43>                          ****END OF INPUT****

CARTESIAN COORDINATES (ANGSTROEM)
---------------------------------
  S    -74.122000  -44.770900  -92.471700
  C    -73.760000  -43.160700  -91.960300
  C    -72.942800  -42.486300  -92.894400
  C    -72.640400  -43.325800  -93.964000
  C    -73.268400  -44.567100  -93.917500
  H    -72.108300  -43.035100  -94.849600
  C    -72.574200  -40.983900  -92.826500
  H    -73.505200  -40.559300  -93.290800
  H    -71.839300  -40.537200  -93.486600
  C    -72.350000  -40.257000  -91.466300
  H    -72.438300  -39.222800  -91.584100
  H    -73.129600  -40.573100  -90.772500
  C    -71.047500  -40.645600  -90.850800
  H    -71.070300  -40.111800  -89.870000
  H    -70.943100  -41.760400  -90.631800
  H    -70.170500  -40.328300  -91.425600
  S    -72.121400  -47.012000  -94.263300
  C    -72.154500  -47.723900  -95.869800
  C    -72.950600  -47.073600  -96.748900
  C    -73.529800  -45.886900  -96.178100
  C    -73.146600  -45.710800  -94.840400
  H    -73.117500  -47.376800  -97.819400
  C    -74.285900  -44.932500  -97.091300
  H    -74.389300  -45.518700  -98.007700
  H    -73.610200  -44.152800  -97.387300
  C    -75.637000  -44.513300  -96.653700
  H    -76.213000  -44.016900  -97.434300
  H    -75.495700  -43.813200  -95.842900
  C    -76.560100  -45.498700  -96.022600
  H    -76.116900  -45.979400  -95.104700
  H    -76.763900  -46.211500  -96.802700
  H    -77.579700  -45.148100  -95.749000
  H    -74.151900  -42.713500  -91.077000
  H    -71.633600  -48.657800  -96.190200

 Total Charge           Charge          ....    0
 Multiplicity           Mult            ....    1
 Number of Electrons    NEL             ....  134
 Basis Dimension        Dim             ....  322

ORBITAL ENERGIES
----------------

  NO   OCC          E(Eh)            E(eV)
   0   2.0000     -88.968685     -2420.9610
   1   2.0000     -88.966811     -2420.9100
   2   2.0000     -10.326067      -280.9866
   3   2.0000     -10.324024      -280.9310
   4   2.0000     -10.317189      -280.7450
   5   2.0000     -10.310584      -280.5653
   6   2.0000     -10.307460      -280.4803
   7   2.0000     -10.304298      -280.3942
   8   2.0000     -10.297609      -280.2122
   9   2.0000     -10.294227      -280.1201
  10   2.0000     -10.289096      -279.9805
  11   2.0000     -10.287842      -279.9464
  12   2.0000     -10.283627      -279.8317
  13   2.0000     -10.279788      -279.7273
  14   2.0000     -10.273246      -279.5492
  15   2.0000     -10.270673      -279.4792
  16   2.0000      -8.084459      -219.9893
  17   2.0000      -8.081368      -219.9052
  18   2.0000      -6.042658      -164.4291
  19   2.0000      -6.039893      -164.3539
  20   2.0000      -6.038630      -164.3195
  21   2.0000      -6.035998      -164.2479
  22   2.0000      -6.035695      -164.2396
  23   2.0000      -6.032012      -164.1394
  24   2.0000      -1.011212       -27.5165
  25   2.0000      -0.986292       -26.8384
  26   2.0000      -0.916065       -24.9274
  27   2.0000      -0.911883       -24.8136
  28   2.0000      -0.869359       -23.6565
  29   2.0000      -0.853252       -23.2182
  30   2.0000      -0.848148       -23.0793
  31   2.0000      -0.810975       -22.0678
  32   2.0000      -0.785605       -21.3774
  33   2.0000      -0.772541       -21.0219
  34   2.0000      -0.703979       -19.1562
  35   2.0000      -0.699583       -19.0366
  36   2.0000      -0.679984       -18.5033
  37   2.0000      -0.657710       -17.8972
  38   2.0000      -0.644129       -17.5276
  39   2.0000      -0.613543       -16.6954
  40   2.0000      -0.590985       -16.0815
  41   2.0000      -0.579457       -15.7678
  42   2.0000      -0.561113       -15.2687
  43   2.0000      -0.551733       -15.0134
  44   2.0000      -0.549116       -14.9422
  45   2.0000      -0.539101       -14.6697
  46   2.0000      -0.511291       -13.9129
  47   2.0000      -0.507510       -13.8100
  48   2.0000      -0.498228       -13.5575
  49   2.0000      -0.492173       -13.3927
  50   2.0000      -0.484800       -13.1921
  51   2.0000      -0.480232       -13.0678
  52   2.0000      -0.473406       -12.8820
  53   2.0000      -0.467163       -12.7121
  54   2.0000      -0.460334       -12.5263
  55   2.0000      -0.452159       -12.3039
  56   2.0000      -0.445687       -12.1278
  57   2.0000      -0.438818       -11.9409
  58   2.0000      -0.430976       -11.7274
  59   2.0000      -0.425407       -11.5759
  60   2.0000      -0.416849       -11.3430
  61   2.0000      -0.414133       -11.2691
  62   2.0000      -0.393420       -10.7055
  63   2.0000      -0.342108        -9.3092
  64   2.0000      -0.331501        -9.0206
  65   2.0000      -0.323761        -8.8100
  66   2.0000      -0.298842        -8.1319
  67   0.0000       0.042130         1.1464
  68   0.0000       0.058048         1.5796
  69   0.0000       0.112064         3.0494
  70   0.0000       0.122719         3.3393
  71   0.0000       0.133366         3.6291

MULLIKEN ATOMIC CHARGES
-----------------------
   0 S :    0.136059
   1 C :   -0.131618
   2 C :   -0.045760
   3 C :    0.052052
   4 C :   -0.193537
   5 H :    0.000801
   6 C :    0.012386
   7 H :    0.044611
   8 H :    0.022625
   9 C :   -0.038283
  10 H :    0.020285
  11 H :    0.017791
  12 C :   -0.077283
  13 H :    0.036295
  14 H :    0.052906
  15 H :    0.032784
  16 S :    0.121365
  17 C :   -0.092505
  18 C :   -0.054461
  19 C :   -0.076602
  20 C :   -0.175452
  21 H :    0.040685
  22 C :    0.138776
  23 H :   -0.004229
  24 H :    0.037889
  25 C :   -0.061467
  26 H :    0.026451
  27 H :    0.026385
  28 C :   -0.063231
  29 H :    0.045523
  30 H :    0.011699
  31 H :    0.034941
  32 H :    0.037341
  33 H :    0.064776
Sum of atomic charges:   -0.0000000

LOEWDIN ATOMIC CHARGES
----------------------
   0 S :    0.454926
   1 C :   -0.213701
   2 C :   -0.054844
   3 C :   -0.063496
   4 C :   -0.223068
   5 H :    0.029776
   6 C :   -0.040134
   7 H :    0.042846
   8 H :    0.028422
   9 C :   -0.039379
  10 H :    0.020228
  11 H :    0.022266
  12 C :   -0.072208
  13 H :    0.030441
  14 H :    0.035689
  15 H :    0.022133
  16 S :    0.406258
  17 C :   -0.187840
  18 C :   -0.081425
  19 C :   -0.048913
  20 C :   -0.209720
  21 H :    0.042046
  22 C :   -0.027715
  23 H :    0.027108
  24 H :    0.036192
  25 C :   -0.051615
  26 H :    0.026987
  27 H :    0.023968
  28 C :   -0.068178
  29 H :    0.029427
  30 H :    0.016543
  31 H :    0.030483
  32 H :    0.018104
  33 H :    0.038393

  Mayer bond orders larger than 0.100000
B(  0-S ,  1-C ) :   1.1676 B(  0-S ,  4-C ) :   1.2013 B(  1-C ,  2-C ) :   1.5460
B(  1-C ,  4-C ) :   0.1127 B(  1-C , 32-H ) :   0.9744 B(  2-C ,  3-C ) :   1.2975
B(  2-C ,  6-C ) :   0.9935 B(  3-C ,  4-C ) :   1.5309 B(  3-C ,  5-H ) :   1.0034
B(  4-C , 20-C ) :   0.9938 B(  6-C ,  7-H ) :   0.9343 B(  6-C ,  8-H ) :   0.9542
B(  6-C ,  9-C ) :   1.0825 B(  9-C , 10-H ) :   0.9499 B(  9-C , 11-H ) :   0.9512
B(  9-C , 12-C ) :   1.0852 B( 12-C , 13-H ) :   0.9730 B( 12-C , 14-H ) :   0.9736
B( 12-C , 15-H ) :   0.9740 B( 16-S , 17-C ) :   1.1452 B( 16-S , 20-C ) :   1.1443
B( 17-C , 18-C ) :   1.6438 B( 17-C , 33-H ) :   0.9553 B( 18-C , 19-C ) :   1.2449
B( 18-C , 21-H ) :   0.9742 B( 19-C , 20-C ) :   1.6114 B( 19-C , 22-C ) :   1.0222
B( 22-C , 23-H ) :   0.9226 B( 22-C , 24-H ) :   0.9305 B( 22-C , 25-C ) :   1.0744
B( 25-C , 26-H ) :   0.9537 B( 25-C , 27-H ) :   0.9478 B( 25-C , 28-C ) :   1.0953
B( 28-C , 29-H ) :   0.9629 B( 28-C , 30-H ) :   0.9755 B( 28-C , 31-H ) :   0.9715

Dispersion correction           -0.015008190
FINAL SINGLE POINT ENERGY     -1339.872146545264

DIPOLE MOMENT
-------------
                                X             Y             Z
Electronic contribution:      4.48261     -19.02831       2.74067
Nuclear contribution   :     -4.50024      19.57028      -3.13257
                        -----------------------------------------
Total Dipole Moment    :     -0.01763       0.54198      -0.39189
                        -----------------------------------------
Magnitude (a.u.)       :      0.66905
Magnitude (Debye)      :      1.70060

Rotational constants in cm-1:     0.022896     0.007871     0.006988
Rotational constants in MHz :   686.415085   235.969234   209.487238

                             ****ORCA TERMINATED NORMALLY****
TOTAL RUN TIME: 0 days 0 hours 0 minutes 21 seconds 924 msec
