                         Program Version 4.2.1 -  RELEASE  -
|  1> ! wB97X-D3 SP def2-SVP
|  2> %pal
|  3> nprocs 24
|  4> end
|  5>
|  6> * xyz 0 1
|  7> S 	 -35.8322 	 -12.0339 	 19.7049
|  8> C 	 -35.6952 	 -10.3237 	 20.2911
|  9> C 	 -35.0932 	 -9.58927 	 19.3164
| 10> C 	 -34.6062 	 -10.3429 	 18.189
| 11> C 	 -35.0243 	 -11.6469 	 18.1897
| 12> H 	 -33.9464 	 -9.96816 	 17.3829
| 13> C 	 -34.7165 	 -8.14025 	 19.4302
| 14> H 	 -33.6602 	 -8.04136 	 19.6059
| 15> H 	 -35.2555 	 -7.67431 	 20.3361
| 16> C 	 -35.15 	 -7.29587 	 18.2293
| 17> H 	 -35.1729 	 -6.2638 	 18.5654
| 18> H 	 -34.4686 	 -7.30742 	 17.3354
| 19> C 	 -36.5589 	 -7.53895 	 17.5207
| 20> H 	 -37.4286 	 -7.53758 	 18.1595
| 21> H 	 -36.813 	 -6.8363 	 16.6531
| 22> H 	 -36.5091 	 -8.52356 	 17.0714
| 23> S 	 -34.0542 	 -14.1794 	 17.9884
| 24> C 	 -33.7199 	 -14.8442 	 16.4356
| 25> C 	 -33.8745 	 -13.854 	 15.4103
| 26> C 	 -34.4656 	 -12.6595 	 15.8867
| 27> C 	 -34.5855 	 -12.6927 	 17.2847
| 28> H 	 -33.5319 	 -14.0808 	 14.4234
| 29> C 	 -35.0597 	 -11.6889 	 14.9249
| 30> H 	 -34.4833 	 -11.5101 	 14.061
| 31> H 	 -35.0311 	 -10.7759 	 15.3366
| 32> C 	 -36.5479 	 -12.0252 	 14.735
| 33> H 	 -37.0089 	 -11.8937 	 15.7244
| 34> H 	 -36.6835 	 -13.1165 	 14.4746
| 35> C 	 -37.2543 	 -11.0565 	 13.7148
| 36> H 	 -37.1106 	 -11.4383 	 12.7157
| 37> H 	 -36.7394 	 -10.0568 	 13.7513
| 38> H 	 -38.3355 	 -10.9678 	 13.8226
| 39> H 	 -36.0447 	 -9.90514 	 21.2626
| 40> H 	 -33.1263 	 -15.6166 	 16.1559
| 41> *
| 42>
| 43>                          ****END OF INPUT****

CARTESIAN COORDINATES (ANGSTROEM)
---------------------------------
  S    -35.832200  -12.033900   19.704900
  C    -35.695200  -10.323700   20.291100
  C    -35.093200   -9.589270   19.316400
  C    -34.606200  -10.342900   18.189000
  C    -35.024300  -11.646900   18.189700
  H    -33.946400   -9.968160   17.382900
  C    -34.716500   -8.140250   19.430200
  H    -33.660200   -8.041360   19.605900
  H    -35.255500   -7.674310   20.336100
  C    -35.150000   -7.295870   18.229300
  H    -35.172900   -6.263800   18.565400
  H    -34.468600   -7.307420   17.335400
  C    -36.558900   -7.538950   17.520700
  H    -37.428600   -7.537580   18.159500
  H    -36.813000   -6.836300   16.653100
  H    -36.509100   -8.523560   17.071400
  S    -34.054200  -14.179400   17.988400
  C    -33.719900  -14.844200   16.435600
  C    -33.874500  -13.854000   15.410300
  C    -34.465600  -12.659500   15.886700
  C    -34.585500  -12.692700   17.284700
  H    -33.531900  -14.080800   14.423400
  C    -35.059700  -11.688900   14.924900
  H    -34.483300  -11.510100   14.061000
  H    -35.031100  -10.775900   15.336600
  C    -36.547900  -12.025200   14.735000
  H    -37.008900  -11.893700   15.724400
  H    -36.683500  -13.116500   14.474600
  C    -37.254300  -11.056500   13.714800
  H    -37.110600  -11.438300   12.715700
  H    -36.739400  -10.056800   13.751300
  H    -38.335500  -10.967800   13.822600
  H    -36.044700   -9.905140   21.262600
  H    -33.126300  -15.616600   16.155900

 Total Charge           Charge          ....    0
 Multiplicity           Mult            ....    1
 Number of Electrons    NEL             ....  134
 Basis Dimension        Dim             ....  322

ORBITAL ENERGIES
----------------

  NO   OCC          E(Eh)            E(eV)
   0   2.0000     -88.973518     -2421.0925
   1   2.0000     -88.964647     -2420.8511
   2   2.0000     -10.331231      -281.1271
   3   2.0000     -10.327513      -281.0259
   4   2.0000     -10.320719      -280.8410
   5   2.0000     -10.309061      -280.5238
   6   2.0000     -10.302586      -280.3476
   7   2.0000     -10.300776      -280.2984
   8   2.0000     -10.299396      -280.2608
   9   2.0000     -10.295966      -280.1675
  10   2.0000     -10.294081      -280.1162
  11   2.0000     -10.293730      -280.1066
  12   2.0000     -10.290814      -280.0273
  13   2.0000     -10.281529      -279.7746
  14   2.0000     -10.281180      -279.7651
  15   2.0000     -10.278450      -279.6908
  16   2.0000      -8.088272      -220.0931
  17   2.0000      -8.078442      -219.8256
  18   2.0000      -6.046660      -164.5380
  19   2.0000      -6.042660      -164.4291
  20   2.0000      -6.039273      -164.3370
  21   2.0000      -6.037251      -164.2820
  22   2.0000      -6.033146      -164.1702
  23   2.0000      -6.028862      -164.0537
  24   2.0000      -1.009683       -27.4749
  25   2.0000      -0.983262       -26.7559
  26   2.0000      -0.914887       -24.8953
  27   2.0000      -0.908447       -24.7201
  28   2.0000      -0.866670       -23.5833
  29   2.0000      -0.849778       -23.1236
  30   2.0000      -0.835267       -22.7288
  31   2.0000      -0.814399       -22.1609
  32   2.0000      -0.785894       -21.3853
  33   2.0000      -0.776036       -21.1170
  34   2.0000      -0.709653       -19.3106
  35   2.0000      -0.699573       -19.0364
  36   2.0000      -0.695451       -18.9242
  37   2.0000      -0.664924       -18.0935
  38   2.0000      -0.635561       -17.2945
  39   2.0000      -0.621737       -16.9183
  40   2.0000      -0.599894       -16.3240
  41   2.0000      -0.564998       -15.3744
  42   2.0000      -0.559223       -15.2172
  43   2.0000      -0.552737       -15.0407
  44   2.0000      -0.534147       -14.5349
  45   2.0000      -0.523519       -14.2457
  46   2.0000      -0.518572       -14.1111
  47   2.0000      -0.515602       -14.0303
  48   2.0000      -0.504899       -13.7390
  49   2.0000      -0.501658       -13.6508
  50   2.0000      -0.490259       -13.3406
  51   2.0000      -0.480811       -13.0835
  52   2.0000      -0.466547       -12.6954
  53   2.0000      -0.460833       -12.5399
  54   2.0000      -0.454788       -12.3754
  55   2.0000      -0.446151       -12.1404
  56   2.0000      -0.445840       -12.1319
  57   2.0000      -0.440945       -11.9987
  58   2.0000      -0.433964       -11.8088
  59   2.0000      -0.429748       -11.6940
  60   2.0000      -0.415956       -11.3188
  61   2.0000      -0.414501       -11.2791
  62   2.0000      -0.407453       -11.0874
  63   2.0000      -0.352591        -9.5945
  64   2.0000      -0.333720        -9.0810
  65   2.0000      -0.329359        -8.9623
  66   2.0000      -0.288269        -7.8442
  67   0.0000       0.022741         0.6188
  68   0.0000       0.073862         2.0099
  69   0.0000       0.103613         2.8194
  70   0.0000       0.117148         3.1878
  71   0.0000       0.125631         3.4186

MULLIKEN ATOMIC CHARGES
-----------------------
   0 S :    0.078110
   1 C :   -0.138622
   2 C :   -0.083043
   3 C :    0.005874
   4 C :   -0.130163
   5 H :    0.039131
   6 C :    0.088901
   7 H :    0.047636
   8 H :    0.027148
   9 C :   -0.125315
  10 H :    0.034039
  11 H :    0.037381
  12 C :   -0.076186
  13 H :    0.030699
  14 H :    0.044129
  15 H :    0.032519
  16 S :    0.139166
  17 C :   -0.045202
  18 C :   -0.072955
  19 C :   -0.065067
  20 C :   -0.157773
  21 H :    0.013753
  22 C :    0.197323
  23 H :    0.006511
  24 H :   -0.050964
  25 C :   -0.105481
  26 H :    0.040004
  27 H :    0.041472
  28 C :   -0.044736
  29 H :    0.027789
  30 H :    0.034775
  31 H :    0.043324
  32 H :    0.063030
  33 H :    0.022794
Sum of atomic charges:    0.0000000

LOEWDIN ATOMIC CHARGES
----------------------
   0 S :    0.363712
   1 C :   -0.184981
   2 C :   -0.067709
   3 C :   -0.068280
   4 C :   -0.183104
   5 H :    0.038549
   6 C :   -0.032057
   7 H :    0.036352
   8 H :    0.038187
   9 C :   -0.050462
  10 H :    0.024080
  11 H :    0.026748
  12 C :   -0.075181
  13 H :    0.019203
  14 H :    0.035880
  15 H :    0.021231
  16 S :    0.445499
  17 C :   -0.196678
  18 C :   -0.055045
  19 C :   -0.051138
  20 C :   -0.205866
  21 H :    0.026219
  22 C :   -0.025720
  23 H :    0.026142
  24 H :    0.009941
  25 C :   -0.032900
  26 H :    0.028423
  27 H :    0.028783
  28 C :   -0.070694
  29 H :    0.022553
  30 H :    0.029896
  31 H :    0.027699
  32 H :    0.041333
  33 H :    0.009387

  Mayer bond orders larger than 0.100000
B(  0-S ,  1-C ) :   1.0931 B(  0-S ,  4-C ) :   1.1324 B(  1-C ,  2-C ) :   1.6587
B(  1-C , 32-H ) :   0.9633 B(  2-C ,  3-C ) :   1.1919 B(  2-C ,  6-C ) :   1.0341
B(  3-C ,  4-C ) :   1.6083 B(  3-C ,  5-H ) :   0.9814 B(  4-C , 20-C ) :   1.0502
B(  6-C ,  7-H ) :   0.9408 B(  6-C ,  8-H ) :   0.9414 B(  6-C ,  9-C ) :   1.0560
B(  9-C , 10-H ) :   0.9624 B(  9-C , 11-H ) :   0.9557 B(  9-C , 12-C ) :   1.0697
B( 12-C , 13-H ) :   0.9773 B( 12-C , 14-H ) :   0.9764 B( 12-C , 15-H ) :   0.9702
B( 16-S , 17-C ) :   1.1684 B( 16-S , 20-C ) :   1.1686 B( 17-C , 18-C ) :   1.5796
B( 17-C , 20-C ) :   0.1060 B( 17-C , 33-H ) :   0.9717 B( 18-C , 19-C ) :   1.2789
B( 18-C , 21-H ) :   0.9900 B( 19-C , 20-C ) :   1.5348 B( 19-C , 22-C ) :   1.0673
B( 22-C , 23-H ) :   0.9236 B( 22-C , 24-H ) :   0.8868 B( 22-C , 25-C ) :   1.0534
B( 25-C , 26-H ) :   0.9564 B( 25-C , 27-H ) :   0.9636 B( 25-C , 28-C ) :   1.0619
B( 28-C , 29-H ) :   0.9773 B( 28-C , 30-H ) :   0.9742 B( 28-C , 31-H ) :   0.9772

Dispersion correction           -0.015187976
FINAL SINGLE POINT ENERGY     -1339.859937856156

DIPOLE MOMENT
-------------
                                X             Y             Z
Electronic contribution:      8.46776     -22.76432      16.89935
Nuclear contribution   :     -8.22876      23.30665     -17.29747
                        -----------------------------------------
Total Dipole Moment    :      0.23900       0.54233      -0.39812
                        -----------------------------------------
Magnitude (a.u.)       :      0.71396
Magnitude (Debye)      :      1.81475

Rotational constants in cm-1:     0.017277     0.010420     0.007447
Rotational constants in MHz :   517.958727   312.375932   223.258533

                             ****ORCA TERMINATED NORMALLY****
TOTAL RUN TIME: 0 days 0 hours 0 minutes 21 seconds 288 msec
