                         Program Version 4.2.1 -  RELEASE  -
|  1> ! wB97X-D3 SP def2-SVP
|  2> %pal
|  3> nprocs 24
|  4> end
|  5>
|  6> * xyz 0 1
|  7> S 	 -69.6645 	 9.70969 	 -100.638
|  8> C 	 -68.3178 	 10.8376 	 -100.39
|  9> C 	 -67.1291 	 10.1177 	 -100.281
| 10> C 	 -67.2464 	 8.69973 	 -100.404
| 11> C 	 -68.5589 	 8.31407 	 -100.675
| 12> H 	 -66.4728 	 7.9394 	 -100.377
| 13> C 	 -65.7623 	 10.7631 	 -100.314
| 14> H 	 -65.0546 	 10.0854 	 -100.798
| 15> H 	 -65.443 	 10.7248 	 -99.2958
| 16> C 	 -65.6677 	 12.0907 	 -101.027
| 17> H 	 -65.889 	 11.9074 	 -102.103
| 18> H 	 -66.4573 	 12.7356 	 -100.621
| 19> C 	 -64.2975 	 12.8073 	 -100.783
| 20> H 	 -63.5618 	 12.4284 	 -101.499
| 21> H 	 -64.3503 	 13.8704 	 -100.889
| 22> H 	 -64.049 	 12.5483 	 -99.7711
| 23> S 	 -69.9755 	 6.20397 	 -99.7631
| 24> C 	 -70.184 	 4.75543 	 -100.692
| 25> C 	 -69.4395 	 4.82502 	 -101.87
| 26> C 	 -68.86 	 6.15414 	 -102.065
| 27> C 	 -69.0486 	 6.96797 	 -100.957
| 28> H 	 -69.4298 	 4.07011 	 -102.664
| 29> C 	 -68.1398 	 6.53263 	 -103.421
| 30> H 	 -68.4283 	 5.7607 	 -104.089
| 31> H 	 -67.1108 	 6.42318 	 -103.162
| 32> C 	 -68.397 	 7.90737 	 -104.102
| 33> H 	 -67.9987 	 8.68146 	 -103.313
| 34> H 	 -69.5133 	 8.0122 	 -104.145
| 35> C 	 -67.6118 	 8.14234 	 -105.377
| 36> H 	 -66.5137 	 8.21684 	 -105.241
| 37> H 	 -68.0101 	 8.95745 	 -105.977
| 38> H 	 -67.8746 	 7.2889 	 -106.109
| 39> H 	 -68.3655 	 11.8945 	 -100.249
| 40> H 	 -70.9454 	 3.96079 	 -100.486
| 41> *
| 42>
| 43>                          ****END OF INPUT****

CARTESIAN COORDINATES (ANGSTROEM)
---------------------------------
  S    -69.664500    9.709690  -100.638000
  C    -68.317800   10.837600  -100.390000
  C    -67.129100   10.117700  -100.281000
  C    -67.246400    8.699730  -100.404000
  C    -68.558900    8.314070  -100.675000
  H    -66.472800    7.939400  -100.377000
  C    -65.762300   10.763100  -100.314000
  H    -65.054600   10.085400  -100.798000
  H    -65.443000   10.724800  -99.295800
  C    -65.667700   12.090700  -101.027000
  H    -65.889000   11.907400  -102.103000
  H    -66.457300   12.735600  -100.621000
  C    -64.297500   12.807300  -100.783000
  H    -63.561800   12.428400  -101.499000
  H    -64.350300   13.870400  -100.889000
  H    -64.049000   12.548300  -99.771100
  S    -69.975500    6.203970  -99.763100
  C    -70.184000    4.755430  -100.692000
  C    -69.439500    4.825020  -101.870000
  C    -68.860000    6.154140  -102.065000
  C    -69.048600    6.967970  -100.957000
  H    -69.429800    4.070110  -102.664000
  C    -68.139800    6.532630  -103.421000
  H    -68.428300    5.760700  -104.089000
  H    -67.110800    6.423180  -103.162000
  C    -68.397000    7.907370  -104.102000
  H    -67.998700    8.681460  -103.313000
  H    -69.513300    8.012200  -104.145000
  C    -67.611800    8.142340  -105.377000
  H    -66.513700    8.216840  -105.241000
  H    -68.010100    8.957450  -105.977000
  H    -67.874600    7.288900  -106.109000
  H    -68.365500   11.894500  -100.249000
  H    -70.945400    3.960790  -100.486000

 Total Charge           Charge          ....    0
 Multiplicity           Mult            ....    1
 Number of Electrons    NEL             ....  134
 Basis Dimension        Dim             ....  322

ORBITAL ENERGIES
----------------

  NO   OCC          E(Eh)            E(eV)
   0   2.0000     -88.966202     -2420.8934
   1   2.0000     -88.964217     -2420.8394
   2   2.0000     -10.332336      -281.1572
   3   2.0000     -10.321623      -280.8656
   4   2.0000     -10.319769      -280.8152
   5   2.0000     -10.315163      -280.6898
   6   2.0000     -10.307798      -280.4894
   7   2.0000     -10.301476      -280.3174
   8   2.0000     -10.299969      -280.2764
   9   2.0000     -10.297304      -280.2039
  10   2.0000     -10.294145      -280.1179
  11   2.0000     -10.290668      -280.0233
  12   2.0000     -10.289503      -279.9916
  13   2.0000     -10.286638      -279.9136
  14   2.0000     -10.285956      -279.8951
  15   2.0000     -10.278892      -279.7029
  16   2.0000      -8.080264      -219.8752
  17   2.0000      -8.079744      -219.8610
  18   2.0000      -6.038698      -164.3213
  19   2.0000      -6.038358      -164.3121
  20   2.0000      -6.034414      -164.2048
  21   2.0000      -6.034356      -164.2032
  22   2.0000      -6.031184      -164.1169
  23   2.0000      -6.030520      -164.0988
  24   2.0000      -1.006498       -27.3882
  25   2.0000      -0.980941       -26.6928
  26   2.0000      -0.912998       -24.8439
  27   2.0000      -0.899417       -24.4744
  28   2.0000      -0.866007       -23.5653
  29   2.0000      -0.848121       -23.0785
  30   2.0000      -0.845581       -23.0094
  31   2.0000      -0.812940       -22.1212
  32   2.0000      -0.780285       -21.2326
  33   2.0000      -0.769002       -20.9256
  34   2.0000      -0.712702       -19.3936
  35   2.0000      -0.696992       -18.9661
  36   2.0000      -0.681367       -18.5409
  37   2.0000      -0.661091       -17.9892
  38   2.0000      -0.641576       -17.4582
  39   2.0000      -0.607730       -16.5372
  40   2.0000      -0.587161       -15.9775
  41   2.0000      -0.575097       -15.6492
  42   2.0000      -0.565424       -15.3860
  43   2.0000      -0.561314       -15.2741
  44   2.0000      -0.524379       -14.2691
  45   2.0000      -0.521639       -14.1945
  46   2.0000      -0.516662       -14.0591
  47   2.0000      -0.510839       -13.9006
  48   2.0000      -0.503255       -13.6943
  49   2.0000      -0.499364       -13.5884
  50   2.0000      -0.498545       -13.5661
  51   2.0000      -0.483822       -13.1655
  52   2.0000      -0.477578       -12.9955
  53   2.0000      -0.462580       -12.5874
  54   2.0000      -0.455685       -12.3998
  55   2.0000      -0.447478       -12.1765
  56   2.0000      -0.441590       -12.0163
  57   2.0000      -0.440002       -11.9731
  58   2.0000      -0.428297       -11.6546
  59   2.0000      -0.420068       -11.4306
  60   2.0000      -0.419667       -11.4197
  61   2.0000      -0.417302       -11.3554
  62   2.0000      -0.398451       -10.8424
  63   2.0000      -0.337475        -9.1832
  64   2.0000      -0.327148        -8.9022
  65   2.0000      -0.321476        -8.7478
  66   2.0000      -0.304690        -8.2910
  67   0.0000       0.037877         1.0307
  68   0.0000       0.062400         1.6980
  69   0.0000       0.117462         3.1963
  70   0.0000       0.122761         3.3405
  71   0.0000       0.126488         3.4419

MULLIKEN ATOMIC CHARGES
-----------------------
   0 S :    0.115244
   1 C :   -0.119356
   2 C :   -0.084837
   3 C :    0.050621
   4 C :   -0.184599
   5 H :    0.017523
   6 C :    0.065400
   7 H :    0.018868
   8 H :    0.026190
   9 C :   -0.112538
  10 H :    0.046146
  11 H :    0.026974
  12 C :   -0.020927
  13 H :    0.038435
  14 H :    0.033439
  15 H :    0.024718
  16 S :    0.128526
  17 C :   -0.114793
  18 C :   -0.038587
  19 C :   -0.066051
  20 C :   -0.183301
  21 H :    0.026567
  22 C :    0.106665
  23 H :    0.002935
  24 H :    0.026953
  25 C :   -0.120336
  26 H :    0.058543
  27 H :    0.046499
  28 C :   -0.053055
  29 H :    0.050169
  30 H :    0.038309
  31 H :    0.025297
  32 H :    0.042842
  33 H :    0.081515
Sum of atomic charges:    0.0000000

LOEWDIN ATOMIC CHARGES
----------------------
   0 S :    0.388555
   1 C :   -0.195195
   2 C :   -0.060106
   3 C :   -0.057545
   4 C :   -0.183838
   5 H :    0.035292
   6 C :   -0.038132
   7 H :    0.029056
   8 H :    0.028690
   9 C :   -0.041408
  10 H :    0.030876
  11 H :    0.019462
  12 C :   -0.057345
  13 H :    0.028080
  14 H :    0.023692
  15 H :    0.023534
  16 S :    0.443149
  17 C :   -0.203614
  18 C :   -0.075040
  19 C :   -0.051286
  20 C :   -0.236337
  21 H :    0.031895
  22 C :   -0.026520
  23 H :    0.019287
  24 H :    0.027822
  25 C :   -0.054423
  26 H :    0.037767
  27 H :    0.031037
  28 C :   -0.076489
  29 H :    0.031809
  30 H :    0.029624
  31 H :    0.030305
  32 H :    0.024568
  33 H :    0.042781

  Mayer bond orders larger than 0.100000
B(  0-S ,  1-C ) :   1.1229 B(  0-S ,  4-C ) :   1.1532 B(  1-C ,  2-C ) :   1.6232
B(  1-C ,  4-C ) :   0.1022 B(  1-C , 32-H ) :   0.9694 B(  2-C ,  3-C ) :   1.2273
B(  2-C ,  6-C ) :   1.0088 B(  3-C ,  4-C ) :   1.5914 B(  3-C ,  5-H ) :   0.9960
B(  4-C , 20-C ) :   1.0076 B(  6-C ,  7-H ) :   0.9517 B(  6-C ,  8-H ) :   0.9191
B(  6-C ,  9-C ) :   1.0760 B(  9-C , 10-H ) :   0.9590 B(  9-C , 11-H ) :   0.9516
B(  9-C , 12-C ) :   1.0710 B( 12-C , 13-H ) :   0.9770 B( 12-C , 14-H ) :   0.9773
B( 12-C , 15-H ) :   0.9776 B( 16-S , 17-C ) :   1.1717 B( 16-S , 20-C ) :   1.1675
B( 17-C , 18-C ) :   1.5833 B( 17-C , 33-H ) :   0.9622 B( 18-C , 19-C ) :   1.2721
B( 18-C , 21-H ) :   0.9808 B( 19-C , 20-C ) :   1.5904 B( 19-C , 22-C ) :   1.0141
B( 22-C , 23-H ) :   0.9353 B( 22-C , 24-H ) :   0.9328 B( 22-C , 25-C ) :   1.0589
B( 25-C , 26-H ) :   0.9473 B( 25-C , 27-H ) :   0.9593 B( 25-C , 28-C ) :   1.0820
B( 28-C , 29-H ) :   0.9726 B( 28-C , 30-H ) :   0.9715 B( 28-C , 31-H ) :   0.9698

Dispersion correction           -0.014530372
FINAL SINGLE POINT ENERGY     -1339.874203230425

DIPOLE MOMENT
-------------
                                X             Y             Z
Electronic contribution:    -20.90015     -13.25649      16.19058
Nuclear contribution   :     21.38323      13.32609     -16.58094
                        -----------------------------------------
Total Dipole Moment    :      0.48308       0.06960      -0.39036
                        -----------------------------------------
Magnitude (a.u.)       :      0.62498
Magnitude (Debye)      :      1.58856

Rotational constants in cm-1:     0.020358     0.008157     0.006692
Rotational constants in MHz :   610.303385   244.528047   200.615549

                             ****ORCA TERMINATED NORMALLY****
TOTAL RUN TIME: 0 days 0 hours 0 minutes 21 seconds 772 msec
