                         Program Version 4.2.1 -  RELEASE  -
|  1> ! wB97X-D3 SP def2-SVP
|  2> %pal
|  3> nprocs 24
|  4> end
|  5>
|  6> * xyz 0 1
|  7> S 	 -109.084 	 55.1243 	 -78.2607
|  8> C 	 -109.783 	 54.8968 	 -79.9093
|  9> C 	 -109.064 	 55.5165 	 -80.9134
| 10> C 	 -107.952 	 56.2485 	 -80.3635
| 11> C 	 -107.794 	 56.0555 	 -78.9884
| 12> H 	 -107.278 	 56.7437 	 -81.0492
| 13> C 	 -109.398 	 55.364 	 -82.4076
| 14> H 	 -110.095 	 56.1455 	 -82.6362
| 15> H 	 -110.067 	 54.491 	 -82.4658
| 16> C 	 -108.23 	 55.2901 	 -83.3663
| 17> H 	 -107.62 	 56.2041 	 -83.3048
| 18> H 	 -107.654 	 54.4357 	 -83.1706
| 19> C 	 -108.666 	 55.2496 	 -84.8425
| 20> H 	 -109.163 	 56.2133 	 -85.131
| 21> H 	 -107.704 	 55.2778 	 -85.3722
| 22> H 	 -109.295 	 54.3172 	 -84.9729
| 23> S 	 -105.724 	 55.9091 	 -77.1201
| 24> C 	 -105.32 	 57.3634 	 -76.2563
| 25> C 	 -105.966 	 58.5065 	 -76.8059
| 26> C 	 -106.909 	 58.1036 	 -77.7563
| 27> C 	 -106.922 	 56.7806 	 -78.1337
| 28> H 	 -105.749 	 59.4643 	 -76.4715
| 29> C 	 -107.613 	 59.2818 	 -78.4707
| 30> H 	 -107.552 	 58.9651 	 -79.548
| 31> H 	 -107.022 	 60.1432 	 -78.3803
| 32> C 	 -108.971 	 59.6154 	 -77.945
| 33> H 	 -109.548 	 58.6612 	 -78.264
| 34> H 	 -109.454 	 60.3972 	 -78.5552
| 35> C 	 -108.946 	 59.9044 	 -76.4623
| 36> H 	 -109.808 	 60.3699 	 -76.1232
| 37> H 	 -108.191 	 60.6034 	 -76.1196
| 38> H 	 -108.913 	 59.0098 	 -75.8513
| 39> H 	 -110.646 	 54.2655 	 -80.166
| 40> H 	 -104.67 	 57.3796 	 -75.407
| 41> *
| 42>
| 43>                          ****END OF INPUT****

CARTESIAN COORDINATES (ANGSTROEM)
---------------------------------
  S    -109.084000   55.124300  -78.260700
  C    -109.783000   54.896800  -79.909300
  C    -109.064000   55.516500  -80.913400
  C    -107.952000   56.248500  -80.363500
  C    -107.794000   56.055500  -78.988400
  H    -107.278000   56.743700  -81.049200
  C    -109.398000   55.364000  -82.407600
  H    -110.095000   56.145500  -82.636200
  H    -110.067000   54.491000  -82.465800
  C    -108.230000   55.290100  -83.366300
  H    -107.620000   56.204100  -83.304800
  H    -107.654000   54.435700  -83.170600
  C    -108.666000   55.249600  -84.842500
  H    -109.163000   56.213300  -85.131000
  H    -107.704000   55.277800  -85.372200
  H    -109.295000   54.317200  -84.972900
  S    -105.724000   55.909100  -77.120100
  C    -105.320000   57.363400  -76.256300
  C    -105.966000   58.506500  -76.805900
  C    -106.909000   58.103600  -77.756300
  C    -106.922000   56.780600  -78.133700
  H    -105.749000   59.464300  -76.471500
  C    -107.613000   59.281800  -78.470700
  H    -107.552000   58.965100  -79.548000
  H    -107.022000   60.143200  -78.380300
  C    -108.971000   59.615400  -77.945000
  H    -109.548000   58.661200  -78.264000
  H    -109.454000   60.397200  -78.555200
  C    -108.946000   59.904400  -76.462300
  H    -109.808000   60.369900  -76.123200
  H    -108.191000   60.603400  -76.119600
  H    -108.913000   59.009800  -75.851300
  H    -110.646000   54.265500  -80.166000
  H    -104.670000   57.379600  -75.407000

 Total Charge           Charge          ....    0
 Multiplicity           Mult            ....    1
 Number of Electrons    NEL             ....  134
 Basis Dimension        Dim             ....  322

ORBITAL ENERGIES
----------------

  NO   OCC          E(Eh)            E(eV)
   0   2.0000     -88.969380     -2420.9799
   1   2.0000     -88.963534     -2420.8208
   2   2.0000     -10.328344      -281.0485
   3   2.0000     -10.319822      -280.8166
   4   2.0000     -10.318115      -280.7702
   5   2.0000     -10.316409      -280.7237
   6   2.0000     -10.301586      -280.3204
   7   2.0000     -10.298166      -280.2273
   8   2.0000     -10.296025      -280.1691
   9   2.0000     -10.294085      -280.1163
  10   2.0000     -10.290004      -280.0052
  11   2.0000     -10.287136      -279.9272
  12   2.0000     -10.286909      -279.9210
  13   2.0000     -10.284691      -279.8607
  14   2.0000     -10.280659      -279.7510
  15   2.0000     -10.266040      -279.3532
  16   2.0000      -8.083001      -219.9496
  17   2.0000      -8.077795      -219.8080
  18   2.0000      -6.041563      -164.3993
  19   2.0000      -6.037767      -164.2960
  20   2.0000      -6.036195      -164.2532
  21   2.0000      -6.033649      -164.1839
  22   2.0000      -6.032234      -164.1454
  23   2.0000      -6.028853      -164.0534
  24   2.0000      -1.001891       -27.2628
  25   2.0000      -0.976817       -26.5805
  26   2.0000      -0.916118       -24.9288
  27   2.0000      -0.909642       -24.7526
  28   2.0000      -0.870772       -23.6949
  29   2.0000      -0.846826       -23.0433
  30   2.0000      -0.843269       -22.9465
  31   2.0000      -0.809630       -22.0311
  32   2.0000      -0.786611       -21.4048
  33   2.0000      -0.771794       -21.0016
  34   2.0000      -0.712763       -19.3953
  35   2.0000      -0.694326       -18.8936
  36   2.0000      -0.684181       -18.6175
  37   2.0000      -0.666832       -18.1454
  38   2.0000      -0.634433       -17.2638
  39   2.0000      -0.621873       -16.9220
  40   2.0000      -0.586398       -15.9567
  41   2.0000      -0.576698       -15.6928
  42   2.0000      -0.567922       -15.4540
  43   2.0000      -0.552189       -15.0258
  44   2.0000      -0.545685       -14.8489
  45   2.0000      -0.529835       -14.4175
  46   2.0000      -0.514329       -13.9956
  47   2.0000      -0.510314       -13.8864
  48   2.0000      -0.502034       -13.6610
  49   2.0000      -0.494101       -13.4452
  50   2.0000      -0.487544       -13.2668
  51   2.0000      -0.478410       -13.0182
  52   2.0000      -0.474053       -12.8996
  53   2.0000      -0.460037       -12.5182
  54   2.0000      -0.458339       -12.4720
  55   2.0000      -0.453235       -12.3332
  56   2.0000      -0.440566       -11.9884
  57   2.0000      -0.437090       -11.8938
  58   2.0000      -0.432037       -11.7563
  59   2.0000      -0.428666       -11.6646
  60   2.0000      -0.418297       -11.3824
  61   2.0000      -0.406816       -11.0700
  62   2.0000      -0.400862       -10.9080
  63   2.0000      -0.336307        -9.1514
  64   2.0000      -0.329915        -8.9774
  65   2.0000      -0.324798        -8.8382
  66   2.0000      -0.297013        -8.0821
  67   0.0000       0.031372         0.8537
  68   0.0000       0.057991         1.5780
  69   0.0000       0.109803         2.9879
  70   0.0000       0.116134         3.1602
  71   0.0000       0.127400         3.4667

MULLIKEN ATOMIC CHARGES
-----------------------
   0 S :    0.122836
   1 C :   -0.138988
   2 C :   -0.099828
   3 C :    0.032224
   4 C :   -0.132580
   5 H :    0.013800
   6 C :    0.093582
   7 H :    0.027348
   8 H :    0.009978
   9 C :   -0.088494
  10 H :    0.033982
  11 H :    0.033310
  12 C :   -0.071066
  13 H :    0.040140
  14 H :    0.040706
  15 H :    0.051649
  16 S :    0.102477
  17 C :   -0.095375
  18 C :   -0.010264
  19 C :   -0.017944
  20 C :   -0.194568
  21 H :   -0.003529
  22 C :    0.064370
  23 H :    0.029620
  24 H :    0.001942
  25 C :   -0.078933
  26 H :    0.042709
  27 H :    0.031888
  28 C :   -0.005476
  29 H :    0.006323
  30 H :    0.018269
  31 H :    0.040793
  32 H :    0.046441
  33 H :    0.052659
Sum of atomic charges:   -0.0000000

LOEWDIN ATOMIC CHARGES
----------------------
   0 S :    0.395175
   1 C :   -0.189017
   2 C :   -0.060518
   3 C :   -0.054368
   4 C :   -0.196640
   5 H :    0.029596
   6 C :   -0.033663
   7 H :    0.031130
   8 H :    0.030913
   9 C :   -0.040457
  10 H :    0.025907
  11 H :    0.021318
  12 C :   -0.066972
  13 H :    0.028915
  14 H :    0.030352
  15 H :    0.032651
  16 S :    0.395676
  17 C :   -0.176163
  18 C :   -0.062989
  19 C :   -0.046860
  20 C :   -0.209251
  21 H :    0.019721
  22 C :   -0.028400
  23 H :    0.033491
  24 H :    0.014803
  25 C :   -0.048217
  26 H :    0.037194
  27 H :    0.024302
  28 C :   -0.065053
  29 H :    0.018684
  30 H :    0.024537
  31 H :    0.033380
  32 H :    0.028529
  33 H :    0.022294

  Mayer bond orders larger than 0.100000
B(  0-S ,  1-C ) :   1.1230 B(  0-S ,  4-C ) :   1.1463 B(  1-C ,  2-C ) :   1.6469
B(  1-C , 32-H ) :   0.9588 B(  2-C ,  3-C ) :   1.2399 B(  2-C ,  6-C ) :   1.0064
B(  3-C ,  4-C ) :   1.5746 B(  3-C ,  5-H ) :   0.9897 B(  4-C , 20-C ) :   1.0476
B(  6-C ,  7-H ) :   0.9300 B(  6-C ,  8-H ) :   0.9367 B(  6-C ,  9-C ) :   1.0709
B(  9-C , 10-H ) :   0.9492 B(  9-C , 11-H ) :   0.9592 B(  9-C , 12-C ) :   1.0869
B( 12-C , 13-H ) :   0.9752 B( 12-C , 14-H ) :   0.9747 B( 12-C , 15-H ) :   0.9741
B( 16-S , 17-C ) :   1.1929 B( 16-S , 20-C ) :   1.1150 B( 17-C , 18-C ) :   1.5485
B( 17-C , 20-C ) :   0.1092 B( 17-C , 33-H ) :   0.9705 B( 18-C , 19-C ) :   1.2634
B( 18-C , 21-H ) :   1.0046 B( 19-C , 20-C ) :   1.5951 B( 19-C , 22-C ) :   1.0077
B( 22-C , 23-H ) :   0.9437 B( 22-C , 24-H ) :   0.9417 B( 22-C , 25-C ) :   1.0709
B( 25-C , 26-H ) :   0.9552 B( 25-C , 27-H ) :   0.9583 B( 25-C , 28-C ) :   1.0717
B( 28-C , 29-H ) :   0.9668 B( 28-C , 30-H ) :   0.9721 B( 28-C , 31-H ) :   0.9659

Dispersion correction           -0.014749789
FINAL SINGLE POINT ENERGY     -1339.860820258764

DIPOLE MOMENT
-------------
                                X             Y             Z
Electronic contribution:      8.43460     -12.09931      18.16907
Nuclear contribution   :     -8.57495      12.50424     -18.64387
                        -----------------------------------------
Total Dipole Moment    :     -0.14035       0.40493      -0.47479
                        -----------------------------------------
Magnitude (a.u.)       :      0.63961
Magnitude (Debye)      :      1.62575

Rotational constants in cm-1:     0.020932     0.007615     0.007042
Rotational constants in MHz :   627.520096   228.290570   211.108657

                             ****ORCA TERMINATED NORMALLY****
TOTAL RUN TIME: 0 days 0 hours 0 minutes 22 seconds 8 msec
