                         Program Version 4.2.1 -  RELEASE  -
|  1> ! wB97X-D3 SP def2-SVP
|  2> %pal
|  3> nprocs 24
|  4> end
|  5>
|  6> * xyz 0 1
|  7> S 	 -1.11795 	 -16.3757 	 -102.918
|  8> C 	 0.576341 	 -16.2233 	 -102.576
|  9> C 	 1.17277 	 -15.105 	 -103.077
| 10> C 	 0.185708 	 -14.1593 	 -103.537
| 11> C 	 -1.10705 	 -14.7376 	 -103.497
| 12> H 	 0.350319 	 -13.2178 	 -103.937
| 13> C 	 2.70588 	 -14.8566 	 -103.132
| 14> H 	 2.85851 	 -13.9902 	 -103.79
| 15> H 	 3.30881 	 -15.5935 	 -103.632
| 16> C 	 3.31879 	 -14.6056 	 -101.798
| 17> H 	 2.75726 	 -13.7518 	 -101.328
| 18> H 	 3.14751 	 -15.5079 	 -101.235
| 19> C 	 4.82883 	 -14.4245 	 -101.759
| 20> H 	 5.38654 	 -15.3144 	 -102.12
| 21> H 	 5.21906 	 -13.6225 	 -102.411
| 22> H 	 5.24162 	 -14.2148 	 -100.761
| 23> S 	 -3.39049 	 -15.1403 	 -104.954
| 24> C 	 -4.18607 	 -13.762 	 -105.683
| 25> C 	 -3.71068 	 -12.6282 	 -105.069
| 26> C 	 -2.69114 	 -12.8215 	 -104.091
| 27> C 	 -2.32144 	 -14.1255 	 -104.003
| 28> H 	 -4.11163 	 -11.6855 	 -105.408
| 29> C 	 -2.01526 	 -11.6796 	 -103.439
| 30> H 	 -1.19647 	 -11.3079 	 -104.096
| 31> H 	 -1.58209 	 -12.1175 	 -102.589
| 32> C 	 -2.94387 	 -10.5137 	 -103.062
| 33> H 	 -3.80189 	 -10.8896 	 -102.565
| 34> H 	 -3.29432 	 -10.1108 	 -104.04
| 35> C 	 -2.28771 	 -9.33585 	 -102.37
| 36> H 	 -1.39989 	 -8.93729 	 -102.963
| 37> H 	 -2.00643 	 -9.66684 	 -101.348
| 38> H 	 -2.8014 	 -8.3854 	 -102.351
| 39> H 	 1.28786 	 -17.0036 	 -102.2
| 40> H 	 -4.92599 	 -13.8751 	 -106.538
| 41> *
| 42>
| 43>                          ****END OF INPUT****

CARTESIAN COORDINATES (ANGSTROEM)
---------------------------------
  S     -1.117950  -16.375700  -102.918000
  C      0.576341  -16.223300  -102.576000
  C      1.172770  -15.105000  -103.077000
  C      0.185708  -14.159300  -103.537000
  C     -1.107050  -14.737600  -103.497000
  H      0.350319  -13.217800  -103.937000
  C      2.705880  -14.856600  -103.132000
  H      2.858510  -13.990200  -103.790000
  H      3.308810  -15.593500  -103.632000
  C      3.318790  -14.605600  -101.798000
  H      2.757260  -13.751800  -101.328000
  H      3.147510  -15.507900  -101.235000
  C      4.828830  -14.424500  -101.759000
  H      5.386540  -15.314400  -102.120000
  H      5.219060  -13.622500  -102.411000
  H      5.241620  -14.214800  -100.761000
  S     -3.390490  -15.140300  -104.954000
  C     -4.186070  -13.762000  -105.683000
  C     -3.710680  -12.628200  -105.069000
  C     -2.691140  -12.821500  -104.091000
  C     -2.321440  -14.125500  -104.003000
  H     -4.111630  -11.685500  -105.408000
  C     -2.015260  -11.679600  -103.439000
  H     -1.196470  -11.307900  -104.096000
  H     -1.582090  -12.117500  -102.589000
  C     -2.943870  -10.513700  -103.062000
  H     -3.801890  -10.889600  -102.565000
  H     -3.294320  -10.110800  -104.040000
  C     -2.287710   -9.335850  -102.370000
  H     -1.399890   -8.937290  -102.963000
  H     -2.006430   -9.666840  -101.348000
  H     -2.801400   -8.385400  -102.351000
  H      1.287860  -17.003600  -102.200000
  H     -4.925990  -13.875100  -106.538000

 Total Charge           Charge          ....    0
 Multiplicity           Mult            ....    1
 Number of Electrons    NEL             ....  134
 Basis Dimension        Dim             ....  322

ORBITAL ENERGIES
----------------

  NO   OCC          E(Eh)            E(eV)
   0   2.0000     -88.972724     -2421.0709
   1   2.0000     -88.958868     -2420.6939
   2   2.0000     -10.332329      -281.1570
   3   2.0000     -10.322340      -280.8851
   4   2.0000     -10.322048      -280.8772
   5   2.0000     -10.312275      -280.6113
   6   2.0000     -10.302797      -280.3534
   7   2.0000     -10.296299      -280.1765
   8   2.0000     -10.295936      -280.1667
   9   2.0000     -10.292121      -280.0628
  10   2.0000     -10.291424      -280.0439
  11   2.0000     -10.287055      -279.9250
  12   2.0000     -10.286326      -279.9052
  13   2.0000     -10.286152      -279.9004
  14   2.0000     -10.284585      -279.8578
  15   2.0000     -10.283284      -279.8224
  16   2.0000      -8.087651      -220.0762
  17   2.0000      -8.074325      -219.7135
  18   2.0000      -6.046150      -164.5241
  19   2.0000      -6.042325      -164.4200
  20   2.0000      -6.038223      -164.3084
  21   2.0000      -6.032888      -164.1632
  22   2.0000      -6.028732      -164.0501
  23   2.0000      -6.024977      -163.9480
  24   2.0000      -1.011620       -27.5276
  25   2.0000      -0.987232       -26.8640
  26   2.0000      -0.917318       -24.9615
  27   2.0000      -0.914163       -24.8756
  28   2.0000      -0.871369       -23.7111
  29   2.0000      -0.857211       -23.3259
  30   2.0000      -0.845861       -23.0170
  31   2.0000      -0.812078       -22.0978
  32   2.0000      -0.784965       -21.3600
  33   2.0000      -0.775134       -21.0925
  34   2.0000      -0.707858       -19.2618
  35   2.0000      -0.701474       -19.0881
  36   2.0000      -0.696050       -18.9405
  37   2.0000      -0.658431       -17.9168
  38   2.0000      -0.636554       -17.3215
  39   2.0000      -0.621665       -16.9164
  40   2.0000      -0.598320       -16.2811
  41   2.0000      -0.575940       -15.6721
  42   2.0000      -0.570743       -15.5307
  43   2.0000      -0.562377       -15.3031
  44   2.0000      -0.530520       -14.4362
  45   2.0000      -0.521782       -14.1984
  46   2.0000      -0.520982       -14.1766
  47   2.0000      -0.513738       -13.9795
  48   2.0000      -0.504004       -13.7146
  49   2.0000      -0.496895       -13.5212
  50   2.0000      -0.489032       -13.3072
  51   2.0000      -0.485428       -13.2092
  52   2.0000      -0.471993       -12.8436
  53   2.0000      -0.462721       -12.5913
  54   2.0000      -0.459545       -12.5048
  55   2.0000      -0.456548       -12.4233
  56   2.0000      -0.449641       -12.2353
  57   2.0000      -0.434746       -11.8300
  58   2.0000      -0.431314       -11.7367
  59   2.0000      -0.429529       -11.6881
  60   2.0000      -0.418269       -11.3817
  61   2.0000      -0.413515       -11.2523
  62   2.0000      -0.410060       -11.1583
  63   2.0000      -0.356107        -9.6902
  64   2.0000      -0.336933        -9.1684
  65   2.0000      -0.327611        -8.9147
  66   2.0000      -0.284216        -7.7339
  67   0.0000       0.024935         0.6785
  68   0.0000       0.074633         2.0309
  69   0.0000       0.100593         2.7373
  70   0.0000       0.122951         3.3457
  71   0.0000       0.132897         3.6163

MULLIKEN ATOMIC CHARGES
-----------------------
   0 S :    0.130849
   1 C :   -0.117294
   2 C :   -0.085776
   3 C :    0.038192
   4 C :   -0.154524
   5 H :   -0.018981
   6 C :    0.078280
   7 H :    0.010520
   8 H :    0.019417
   9 C :   -0.072832
  10 H :    0.040217
  11 H :    0.021736
  12 C :   -0.056718
  13 H :    0.027778
  14 H :    0.025611
  15 H :    0.040036
  16 S :    0.075563
  17 C :   -0.119250
  18 C :   -0.041318
  19 C :   -0.064085
  20 C :   -0.109430
  21 H :    0.016236
  22 C :    0.082367
  23 H :    0.045384
  24 H :    0.015594
  25 C :   -0.081056
  26 H :    0.029789
  27 H :    0.024378
  28 C :   -0.041965
  29 H :    0.024440
  30 H :    0.041339
  31 H :    0.032295
  32 H :    0.055913
  33 H :    0.087294
Sum of atomic charges:    0.0000000

LOEWDIN ATOMIC CHARGES
----------------------
   0 S :    0.422505
   1 C :   -0.211375
   2 C :   -0.057651
   3 C :   -0.049772
   4 C :   -0.188539
   5 H :    0.018274
   6 C :   -0.031586
   7 H :    0.027794
   8 H :    0.026771
   9 C :   -0.046123
  10 H :    0.031772
  11 H :    0.022442
  12 C :   -0.073901
  13 H :    0.027235
  14 H :    0.023413
  15 H :    0.030197
  16 S :    0.385574
  17 C :   -0.189593
  18 C :   -0.072739
  19 C :   -0.065530
  20 C :   -0.192783
  21 H :    0.027887
  22 C :   -0.029469
  23 H :    0.036033
  24 H :    0.023913
  25 C :   -0.039589
  26 H :    0.021666
  27 H :    0.024735
  28 C :   -0.073294
  29 H :    0.032694
  30 H :    0.028376
  31 H :    0.026346
  32 H :    0.037368
  33 H :    0.046946

  Mayer bond orders larger than 0.100000
B(  0-S ,  1-C ) :   1.1292 B(  0-S ,  4-C ) :   1.1563 B(  1-C ,  2-C ) :   1.6521
B(  1-C , 32-H ) :   0.9514 B(  2-C ,  3-C ) :   1.2357 B(  2-C ,  6-C ) :   1.0112
B(  3-C ,  4-C ) :   1.5466 B(  3-C ,  5-H ) :   1.0028 B(  4-C , 20-C ) :   1.0562
B(  6-C ,  7-H ) :   0.9376 B(  6-C ,  8-H ) :   0.9409 B(  6-C ,  9-C ) :   1.0702
B(  9-C , 10-H ) :   0.9536 B(  9-C , 11-H ) :   0.9536 B(  9-C , 12-C ) :   1.0833
B( 12-C , 13-H ) :   0.9698 B( 12-C , 14-H ) :   0.9745 B( 12-C , 15-H ) :   0.9740
B( 16-S , 17-C ) :   1.1479 B( 16-S , 20-C ) :   1.1244 B( 17-C , 18-C ) :   1.6116
B( 17-C , 33-H ) :   0.9618 B( 18-C , 19-C ) :   1.2130 B( 18-C , 21-H ) :   0.9961
B( 19-C , 20-C ) :   1.6133 B( 19-C , 22-C ) :   1.0540 B( 22-C , 23-H ) :   0.9202
B( 22-C , 24-H ) :   0.9252 B( 22-C , 25-C ) :   1.0660 B( 25-C , 26-H ) :   0.9625
B( 25-C , 27-H ) :   0.9435 B( 25-C , 28-C ) :   1.0903 B( 28-C , 29-H ) :   0.9667
B( 28-C , 30-H ) :   0.9741 B( 28-C , 31-H ) :   0.9728

Dispersion correction           -0.013346956
FINAL SINGLE POINT ENERGY     -1339.873785795218

DIPOLE MOMENT
-------------
                                X             Y             Z
Electronic contribution:    -20.11126     -21.30049      -8.94525
Nuclear contribution   :     20.54768      21.86186       8.79748
                        -----------------------------------------
Total Dipole Moment    :      0.43642       0.56136      -0.14777
                        -----------------------------------------
Magnitude (a.u.)       :      0.72624
Magnitude (Debye)      :      1.84597

Rotational constants in cm-1:     0.017788     0.008040     0.005914
Rotational constants in MHz :   533.259090   241.044685   177.307754

                             ****ORCA TERMINATED NORMALLY****
TOTAL RUN TIME: 0 days 0 hours 0 minutes 21 seconds 225 msec
