                         Program Version 4.2.1 -  RELEASE  -
|  1> ! wB97X-D3 SP def2-SVP
|  2> %pal
|  3> nprocs 24
|  4> end
|  5>
|  6> * xyz 0 1
|  7> S 	 -105.327 	 41.8425 	 -92.7142
|  8> C 	 -104.571 	 40.3952 	 -92.1502
|  9> C 	 -103.188 	 40.3351 	 -92.5448
| 10> C 	 -102.764 	 41.5235 	 -93.2171
| 11> C 	 -103.86 	 42.4341 	 -93.3656
| 12> H 	 -101.749 	 41.6892 	 -93.6239
| 13> C 	 -102.22 	 39.1381 	 -92.2772
| 14> H 	 -102.043 	 38.7705 	 -93.292
| 15> H 	 -102.794 	 38.3901 	 -91.6921
| 16> C 	 -100.874 	 39.5409 	 -91.6607
| 17> H 	 -100.568 	 40.5159 	 -92.0214
| 18> H 	 -101.002 	 39.769 	 -90.5639
| 19> C 	 -99.7289 	 38.5183 	 -92.0273
| 20> H 	 -99.56 	 38.5833 	 -93.0575
| 21> H 	 -98.7844 	 38.758 	 -91.4617
| 22> H 	 -100.101 	 37.5569 	 -91.705
| 23> S 	 -103.753 	 45.1481 	 -92.7263
| 24> C 	 -103.49 	 46.2333 	 -94.0366
| 25> C 	 -103.369 	 45.6264 	 -95.2378
| 26> C 	 -103.442 	 44.2324 	 -95.1322
| 27> C 	 -103.695 	 43.8011 	 -93.8557
| 28> H 	 -103.33 	 46.0684 	 -96.1825
| 29> C 	 -103.371 	 43.3481 	 -96.2947
| 30> H 	 -103.689 	 42.3565 	 -96.0174
| 31> H 	 -102.369 	 43.4517 	 -96.7343
| 32> C 	 -104.513 	 43.4337 	 -97.4477
| 33> H 	 -104.557 	 44.4456 	 -97.855
| 34> H 	 -105.486 	 43.1101 	 -96.9468
| 35> C 	 -104.272 	 42.4479 	 -98.5726
| 36> H 	 -103.435 	 42.6674 	 -99.2504
| 37> H 	 -105.214 	 42.3165 	 -99.2156
| 38> H 	 -104.084 	 41.385 	 -98.2592
| 39> H 	 -105.088 	 39.6171 	 -91.5416
| 40> H 	 -103.442 	 47.3017 	 -93.8717
| 41> *
| 42>
| 43>                          ****END OF INPUT****

CARTESIAN COORDINATES (ANGSTROEM)
---------------------------------
  S    -105.327000   41.842500  -92.714200
  C    -104.571000   40.395200  -92.150200
  C    -103.188000   40.335100  -92.544800
  C    -102.764000   41.523500  -93.217100
  C    -103.860000   42.434100  -93.365600
  H    -101.749000   41.689200  -93.623900
  C    -102.220000   39.138100  -92.277200
  H    -102.043000   38.770500  -93.292000
  H    -102.794000   38.390100  -91.692100
  C    -100.874000   39.540900  -91.660700
  H    -100.568000   40.515900  -92.021400
  H    -101.002000   39.769000  -90.563900
  C    -99.728900   38.518300  -92.027300
  H    -99.560000   38.583300  -93.057500
  H    -98.784400   38.758000  -91.461700
  H    -100.101000   37.556900  -91.705000
  S    -103.753000   45.148100  -92.726300
  C    -103.490000   46.233300  -94.036600
  C    -103.369000   45.626400  -95.237800
  C    -103.442000   44.232400  -95.132200
  C    -103.695000   43.801100  -93.855700
  H    -103.330000   46.068400  -96.182500
  C    -103.371000   43.348100  -96.294700
  H    -103.689000   42.356500  -96.017400
  H    -102.369000   43.451700  -96.734300
  C    -104.513000   43.433700  -97.447700
  H    -104.557000   44.445600  -97.855000
  H    -105.486000   43.110100  -96.946800
  C    -104.272000   42.447900  -98.572600
  H    -103.435000   42.667400  -99.250400
  H    -105.214000   42.316500  -99.215600
  H    -104.084000   41.385000  -98.259200
  H    -105.088000   39.617100  -91.541600
  H    -103.442000   47.301700  -93.871700

 Total Charge           Charge          ....    0
 Multiplicity           Mult            ....    1
 Number of Electrons    NEL             ....  134
 Basis Dimension        Dim             ....  322

ORBITAL ENERGIES
----------------

  NO   OCC          E(Eh)            E(eV)
   0   2.0000     -88.971796     -2421.0456
   1   2.0000     -88.962832     -2420.8017
   2   2.0000     -10.327619      -281.0288
   3   2.0000     -10.318348      -280.7765
   4   2.0000     -10.317994      -280.7669
   5   2.0000     -10.311545      -280.5914
   6   2.0000     -10.307345      -280.4771
   7   2.0000     -10.299575      -280.2657
   8   2.0000     -10.298250      -280.2296
   9   2.0000     -10.297135      -280.1993
  10   2.0000     -10.290482      -280.0182
  11   2.0000     -10.289678      -279.9964
  12   2.0000     -10.286760      -279.9170
  13   2.0000     -10.286483      -279.9094
  14   2.0000     -10.281288      -279.7681
  15   2.0000     -10.281064      -279.7620
  16   2.0000      -8.086915      -220.0561
  17   2.0000      -8.078261      -219.8206
  18   2.0000      -6.045119      -164.4961
  19   2.0000      -6.041216      -164.3898
  20   2.0000      -6.038158      -164.3066
  21   2.0000      -6.036636      -164.2652
  22   2.0000      -6.032753      -164.1596
  23   2.0000      -6.029056      -164.0589
  24   2.0000      -1.008942       -27.4547
  25   2.0000      -0.985044       -26.8044
  26   2.0000      -0.905922       -24.6514
  27   2.0000      -0.904608       -24.6156
  28   2.0000      -0.864698       -23.5296
  29   2.0000      -0.854813       -23.2606
  30   2.0000      -0.846570       -23.0364
  31   2.0000      -0.807501       -21.9732
  32   2.0000      -0.779316       -21.2063
  33   2.0000      -0.764822       -20.8119
  34   2.0000      -0.704636       -19.1741
  35   2.0000      -0.693682       -18.8761
  36   2.0000      -0.689712       -18.7680
  37   2.0000      -0.663008       -18.0414
  38   2.0000      -0.635795       -17.3009
  39   2.0000      -0.615088       -16.7374
  40   2.0000      -0.600496       -16.3403
  41   2.0000      -0.570706       -15.5297
  42   2.0000      -0.561891       -15.2898
  43   2.0000      -0.557983       -15.1835
  44   2.0000      -0.524547       -14.2736
  45   2.0000      -0.522496       -14.2178
  46   2.0000      -0.510507       -13.8916
  47   2.0000      -0.507924       -13.8213
  48   2.0000      -0.502115       -13.6632
  49   2.0000      -0.495904       -13.4942
  50   2.0000      -0.491169       -13.3654
  51   2.0000      -0.476007       -12.9528
  52   2.0000      -0.467680       -12.7262
  53   2.0000      -0.463305       -12.6072
  54   2.0000      -0.458435       -12.4747
  55   2.0000      -0.453696       -12.3457
  56   2.0000      -0.452046       -12.3008
  57   2.0000      -0.439701       -11.9649
  58   2.0000      -0.430383       -11.7113
  59   2.0000      -0.426614       -11.6088
  60   2.0000      -0.424497       -11.5511
  61   2.0000      -0.413577       -11.2540
  62   2.0000      -0.402395       -10.9497
  63   2.0000      -0.338239        -9.2039
  64   2.0000      -0.328531        -8.9398
  65   2.0000      -0.323920        -8.8143
  66   2.0000      -0.296129        -8.0581
  67   0.0000       0.039033         1.0622
  68   0.0000       0.065713         1.7881
  69   0.0000       0.119253         3.2450
  70   0.0000       0.127668         3.4740
  71   0.0000       0.128145         3.4870

MULLIKEN ATOMIC CHARGES
-----------------------
   0 S :    0.143610
   1 C :   -0.154183
   2 C :   -0.110824
   3 C :    0.029126
   4 C :   -0.201300
   5 H :    0.035671
   6 C :    0.076626
   7 H :    0.036479
   8 H :    0.029028
   9 C :   -0.104509
  10 H :    0.020604
  11 H :    0.040032
  12 C :   -0.043572
  13 H :    0.032297
  14 H :    0.044959
  15 H :    0.035668
  16 S :    0.117985
  17 C :   -0.085099
  18 C :    0.013587
  19 C :   -0.002309
  20 C :   -0.178502
  21 H :   -0.010914
  22 C :    0.032162
  23 H :    0.027849
  24 H :    0.039863
  25 C :   -0.084810
  26 H :    0.033254
  27 H :    0.047681
  28 C :   -0.091631
  29 H :    0.035784
  30 H :    0.046249
  31 H :    0.030649
  32 H :    0.064279
  33 H :    0.054207
Sum of atomic charges:    0.0000000

LOEWDIN ATOMIC CHARGES
----------------------
   0 S :    0.448413
   1 C :   -0.231943
   2 C :   -0.059169
   3 C :   -0.062202
   4 C :   -0.217792
   5 H :    0.038182
   6 C :   -0.031731
   7 H :    0.034020
   8 H :    0.031370
   9 C :   -0.046975
  10 H :    0.017811
  11 H :    0.030875
  12 C :   -0.056926
  13 H :    0.017289
  14 H :    0.034336
  15 H :    0.023267
  16 S :    0.411631
  17 C :   -0.181053
  18 C :   -0.066129
  19 C :   -0.061358
  20 C :   -0.204825
  21 H :    0.023501
  22 C :   -0.037264
  23 H :    0.031063
  24 H :    0.033569
  25 C :   -0.037706
  26 H :    0.017602
  27 H :    0.035849
  28 C :   -0.083166
  29 H :    0.023835
  30 H :    0.036562
  31 H :    0.027342
  32 H :    0.034898
  33 H :    0.026823

  Mayer bond orders larger than 0.100000
B(  0-S ,  1-C ) :   1.1609 B(  0-S ,  4-C ) :   1.2010 B(  1-C ,  2-C ) :   1.5537
B(  1-C ,  4-C ) :   0.1074 B(  1-C , 32-H ) :   0.9637 B(  2-C ,  3-C ) :   1.2987
B(  2-C ,  6-C ) :   1.0123 B(  3-C ,  4-C ) :   1.5080 B(  3-C ,  5-H ) :   0.9832
B(  4-C , 20-C ) :   1.0183 B(  6-C ,  7-H ) :   0.9425 B(  6-C ,  8-H ) :   0.9432
B(  6-C ,  9-C ) :   1.0483 B(  9-C , 10-H ) :   0.9620 B(  9-C , 11-H ) :   0.9555
B(  9-C , 12-C ) :   1.0630 B( 12-C , 13-H ) :   0.9790 B( 12-C , 14-H ) :   0.9757
B( 12-C , 15-H ) :   0.9801 B( 16-S , 17-C ) :   1.1668 B( 16-S , 20-C ) :   1.1369
B( 17-C , 18-C ) :   1.5860 B( 17-C , 33-H ) :   0.9664 B( 18-C , 19-C ) :   1.2509
B( 18-C , 21-H ) :   1.0040 B( 19-C , 20-C ) :   1.6090 B( 19-C , 22-C ) :   1.0696
B( 22-C , 23-H ) :   0.9341 B( 22-C , 24-H ) :   0.9301 B( 22-C , 25-C ) :   1.0408
B( 25-C , 26-H ) :   0.9548 B( 25-C , 27-H ) :   0.9605 B( 25-C , 28-C ) :   1.0829
B( 28-C , 29-H ) :   0.9743 B( 28-C , 30-H ) :   0.9727 B( 28-C , 31-H ) :   0.9716

Dispersion correction           -0.013748953
FINAL SINGLE POINT ENERGY     -1339.874006649031

DIPOLE MOMENT
-------------
                                X             Y             Z
Electronic contribution:    -13.35359      16.76204      13.61302
Nuclear contribution   :     13.65729     -17.00719     -13.94844
                        -----------------------------------------
Total Dipole Moment    :      0.30369      -0.24516      -0.33541
                        -----------------------------------------
Magnitude (a.u.)       :      0.51462
Magnitude (Debye)      :      1.30806

Rotational constants in cm-1:     0.016779     0.007926     0.006971
Rotational constants in MHz :   503.024690   237.613252   208.991863

                             ****ORCA TERMINATED NORMALLY****
TOTAL RUN TIME: 0 days 0 hours 0 minutes 19 seconds 904 msec
