                         Program Version 4.2.1 -  RELEASE  -
|  1> ! wB97X-D3 SP def2-SVP
|  2> %pal
|  3> nprocs 24
|  4> end
|  5>
|  6> * xyz 0 1
|  7> S 	 -134.218 	 59.6191 	 -60.2605
|  8> C 	 -135.27 	 58.7155 	 -59.1971
|  9> C 	 -134.571 	 57.8517 	 -58.4122
| 10> C 	 -133.156 	 57.9329 	 -58.6061
| 11> C 	 -132.786 	 58.9203 	 -59.4474
| 12> H 	 -132.381 	 57.4026 	 -58.0865
| 13> C 	 -135.085 	 56.7752 	 -57.5727
| 14> H 	 -134.301 	 56.0315 	 -57.4837
| 15> H 	 -135.973 	 56.4027 	 -58.1994
| 16> C 	 -135.33 	 57.1329 	 -56.091
| 17> H 	 -134.397 	 57.4289 	 -55.6691
| 18> H 	 -135.995 	 57.9846 	 -56.0825
| 19> C 	 -135.926 	 55.8999 	 -55.2959
| 20> H 	 -136.067 	 56.1551 	 -54.1956
| 21> H 	 -136.825 	 55.5567 	 -55.7785
| 22> H 	 -135.247 	 55.0942 	 -55.3813
| 23> S 	 -131.183 	 60.011 	 -61.2999
| 24> C 	 -129.46 	 59.9071 	 -61.226
| 25> C 	 -129.053 	 59.4514 	 -60.0277
| 26> C 	 -130.146 	 59.0811 	 -59.1426
| 27> C 	 -131.436 	 59.3213 	 -59.6966
| 28> H 	 -127.976 	 59.4582 	 -59.8206
| 29> C 	 -129.907 	 58.5944 	 -57.6215
| 30> H 	 -129.755 	 57.5594 	 -57.7578
| 31> H 	 -130.83 	 58.7823 	 -57.1692
| 32> C 	 -128.739 	 59.3373 	 -56.9122
| 33> H 	 -129.092 	 60.3745 	 -56.7905
| 34> H 	 -127.898 	 59.4788 	 -57.6357
| 35> C 	 -128.271 	 58.7856 	 -55.567
| 36> H 	 -127.378 	 59.4176 	 -55.319
| 37> H 	 -128.01 	 57.7024 	 -55.6985
| 38> H 	 -128.976 	 58.8577 	 -54.7936
| 39> H 	 -136.359 	 58.6921 	 -59.2405
| 40> H 	 -128.758 	 60.2676 	 -62.006
| 41> *
| 42>
| 43>                          ****END OF INPUT****

CARTESIAN COORDINATES (ANGSTROEM)
---------------------------------
  S    -134.218000   59.619100  -60.260500
  C    -135.270000   58.715500  -59.197100
  C    -134.571000   57.851700  -58.412200
  C    -133.156000   57.932900  -58.606100
  C    -132.786000   58.920300  -59.447400
  H    -132.381000   57.402600  -58.086500
  C    -135.085000   56.775200  -57.572700
  H    -134.301000   56.031500  -57.483700
  H    -135.973000   56.402700  -58.199400
  C    -135.330000   57.132900  -56.091000
  H    -134.397000   57.428900  -55.669100
  H    -135.995000   57.984600  -56.082500
  C    -135.926000   55.899900  -55.295900
  H    -136.067000   56.155100  -54.195600
  H    -136.825000   55.556700  -55.778500
  H    -135.247000   55.094200  -55.381300
  S    -131.183000   60.011000  -61.299900
  C    -129.460000   59.907100  -61.226000
  C    -129.053000   59.451400  -60.027700
  C    -130.146000   59.081100  -59.142600
  C    -131.436000   59.321300  -59.696600
  H    -127.976000   59.458200  -59.820600
  C    -129.907000   58.594400  -57.621500
  H    -129.755000   57.559400  -57.757800
  H    -130.830000   58.782300  -57.169200
  C    -128.739000   59.337300  -56.912200
  H    -129.092000   60.374500  -56.790500
  H    -127.898000   59.478800  -57.635700
  C    -128.271000   58.785600  -55.567000
  H    -127.378000   59.417600  -55.319000
  H    -128.010000   57.702400  -55.698500
  H    -128.976000   58.857700  -54.793600
  H    -136.359000   58.692100  -59.240500
  H    -128.758000   60.267600  -62.006000

 Total Charge           Charge          ....    0
 Multiplicity           Mult            ....    1
 Number of Electrons    NEL             ....  134
 Basis Dimension        Dim             ....  322

ORBITAL ENERGIES
----------------

  NO   OCC          E(Eh)            E(eV)
   0   2.0000     -88.965889     -2420.8849
   1   2.0000     -88.959778     -2420.7186
   2   2.0000     -10.331112      -281.1238
   3   2.0000     -10.329042      -281.0675
   4   2.0000     -10.317018      -280.7403
   5   2.0000     -10.316889      -280.7368
   6   2.0000     -10.312551      -280.6188
   7   2.0000     -10.295490      -280.1545
   8   2.0000     -10.293476      -280.0997
   9   2.0000     -10.293317      -280.0954
  10   2.0000     -10.293282      -280.0944
  11   2.0000     -10.291395      -280.0431
  12   2.0000     -10.287830      -279.9461
  13   2.0000     -10.286720      -279.9159
  14   2.0000     -10.284716      -279.8613
  15   2.0000     -10.282788      -279.8089
  16   2.0000      -8.080166      -219.8725
  17   2.0000      -8.075323      -219.7407
  18   2.0000      -6.039013      -164.3299
  19   2.0000      -6.034892      -164.2178
  20   2.0000      -6.033867      -164.1899
  21   2.0000      -6.030436      -164.0965
  22   2.0000      -6.029678      -164.0759
  23   2.0000      -6.026032      -163.9767
  24   2.0000      -1.009332       -27.4653
  25   2.0000      -0.985900       -26.8277
  26   2.0000      -0.915003       -24.8985
  27   2.0000      -0.903316       -24.5805
  28   2.0000      -0.877122       -23.8677
  29   2.0000      -0.852533       -23.1986
  30   2.0000      -0.841668       -22.9030
  31   2.0000      -0.820548       -22.3282
  32   2.0000      -0.781506       -21.2659
  33   2.0000      -0.771160       -20.9843
  34   2.0000      -0.710840       -19.3429
  35   2.0000      -0.706370       -19.2213
  36   2.0000      -0.699942       -19.0464
  37   2.0000      -0.656344       -17.8600
  38   2.0000      -0.635484       -17.2924
  39   2.0000      -0.620197       -16.8764
  40   2.0000      -0.589903       -16.0521
  41   2.0000      -0.576689       -15.6925
  42   2.0000      -0.567155       -15.4331
  43   2.0000      -0.557856       -15.1800
  44   2.0000      -0.531164       -14.4537
  45   2.0000      -0.525828       -14.3085
  46   2.0000      -0.518543       -14.1103
  47   2.0000      -0.510883       -13.9018
  48   2.0000      -0.507582       -13.8120
  49   2.0000      -0.504319       -13.7232
  50   2.0000      -0.489847       -13.3294
  51   2.0000      -0.485735       -13.2175
  52   2.0000      -0.474628       -12.9153
  53   2.0000      -0.470194       -12.7946
  54   2.0000      -0.462861       -12.5951
  55   2.0000      -0.451158       -12.2766
  56   2.0000      -0.444523       -12.0961
  57   2.0000      -0.443292       -12.0626
  58   2.0000      -0.431525       -11.7424
  59   2.0000      -0.423532       -11.5249
  60   2.0000      -0.420228       -11.4350
  61   2.0000      -0.416336       -11.3291
  62   2.0000      -0.402717       -10.9585
  63   2.0000      -0.366978        -9.9860
  64   2.0000      -0.333830        -9.0840
  65   2.0000      -0.323555        -8.8044
  66   2.0000      -0.283220        -7.7068
  67   0.0000       0.019804         0.5389
  68   0.0000       0.081938         2.2296
  69   0.0000       0.101938         2.7739
  70   0.0000       0.120560         3.2806
  71   0.0000       0.137514         3.7420

MULLIKEN ATOMIC CHARGES
-----------------------
   0 S :    0.103842
   1 C :   -0.111769
   2 C :   -0.065831
   3 C :   -0.027187
   4 C :   -0.076605
   5 H :    0.003283
   6 C :    0.017461
   7 H :    0.015766
   8 H :    0.043476
   9 C :   -0.050448
  10 H :    0.018448
  11 H :    0.024008
  12 C :   -0.028775
  13 H :    0.052944
  14 H :    0.027321
  15 H :    0.015461
  16 S :    0.069505
  17 C :   -0.088776
  18 C :   -0.049695
  19 C :   -0.102237
  20 C :   -0.129907
  21 H :    0.030354
  22 C :    0.108110
  23 H :    0.032023
  24 H :    0.022840
  25 C :   -0.120227
  26 H :    0.033814
  27 H :    0.031787
  28 C :   -0.026280
  29 H :    0.045531
  30 H :    0.037631
  31 H :    0.028538
  32 H :    0.044806
  33 H :    0.070785
Sum of atomic charges:    0.0000000

LOEWDIN ATOMIC CHARGES
----------------------
   0 S :    0.379107
   1 C :   -0.196223
   2 C :   -0.068305
   3 C :   -0.063735
   4 C :   -0.174568
   5 H :    0.029732
   6 C :   -0.039825
   7 H :    0.028578
   8 H :    0.041245
   9 C :   -0.028334
  10 H :    0.019277
  11 H :    0.018355
  12 C :   -0.062103
  13 H :    0.036227
  14 H :    0.023225
  15 H :    0.016462
  16 S :    0.399323
  17 C :   -0.190636
  18 C :   -0.087494
  19 C :   -0.049160
  20 C :   -0.190791
  21 H :    0.036084
  22 C :   -0.020988
  23 H :    0.022984
  24 H :    0.019841
  25 C :   -0.048780
  26 H :    0.029392
  27 H :    0.024807
  28 C :   -0.061873
  29 H :    0.037890
  30 H :    0.030551
  31 H :    0.016663
  32 H :    0.031819
  33 H :    0.041254

  Mayer bond orders larger than 0.100000
B(  0-S ,  1-C ) :   1.1083 B(  0-S ,  4-C ) :   1.1115 B(  1-C ,  2-C ) :   1.6478
B(  1-C , 32-H ) :   0.9649 B(  2-C ,  3-C ) :   1.2058 B(  2-C ,  6-C ) :   1.0283
B(  3-C ,  4-C ) :   1.6160 B(  3-C ,  5-H ) :   0.9925 B(  4-C , 20-C ) :   1.0877
B(  6-C ,  7-H ) :   0.9389 B(  6-C ,  8-H ) :   0.9414 B(  6-C ,  9-C ) :   1.0545
B(  9-C , 10-H ) :   0.9541 B(  9-C , 11-H ) :   0.9609 B(  9-C , 12-C ) :   1.0736
B( 12-C , 13-H ) :   0.9760 B( 12-C , 14-H ) :   0.9761 B( 12-C , 15-H ) :   0.9740
B( 16-S , 17-C ) :   1.1624 B( 16-S , 20-C ) :   1.1219 B( 17-C , 18-C ) :   1.6297
B( 17-C , 33-H ) :   0.9579 B( 18-C , 19-C ) :   1.2375 B( 18-C , 21-H ) :   0.9843
B( 19-C , 20-C ) :   1.5844 B( 19-C , 22-C ) :   0.9972 B( 22-C , 23-H ) :   0.9330
B( 22-C , 24-H ) :   0.9454 B( 22-C , 25-C ) :   1.0596 B( 25-C , 26-H ) :   0.9529
B( 25-C , 27-H ) :   0.9575 B( 25-C , 28-C ) :   1.0814 B( 28-C , 29-H ) :   0.9722
B( 28-C , 30-H ) :   0.9752 B( 28-C , 31-H ) :   0.9764

Dispersion correction           -0.013178891
FINAL SINGLE POINT ENERGY     -1339.863601456142

DIPOLE MOMENT
-------------
                                X             Y             Z
Electronic contribution:     -3.45400      13.33708     -28.53733
Nuclear contribution   :      3.78635     -13.71057      29.11775
                        -----------------------------------------
Total Dipole Moment    :      0.33236      -0.37349       0.58042
                        -----------------------------------------
Magnitude (a.u.)       :      0.76606
Magnitude (Debye)      :      1.94716

Rotational constants in cm-1:     0.016142     0.008741     0.005890
Rotational constants in MHz :   483.934846   262.037164   176.587696

                             ****ORCA TERMINATED NORMALLY****
TOTAL RUN TIME: 0 days 0 hours 0 minutes 20 seconds 867 msec
