                         Program Version 4.2.1 -  RELEASE  -
|  1> ! wB97X-D3 SP def2-SVP
|  2> %pal
|  3> nprocs 24
|  4> end
|  5>
|  6> * xyz 0 1
|  7> S 	 -42.4221 	 -8.96808 	 8.11823
|  8> C 	 -40.9962 	 -8.41043 	 7.31083
|  9> C 	 -40.2952 	 -7.50436 	 8.0729
| 10> C 	 -41.0735 	 -7.00076 	 9.12387
| 11> C 	 -42.2896 	 -7.62581 	 9.2735
| 12> H 	 -40.6512 	 -6.2411 	 9.8084
| 13> C 	 -38.8301 	 -7.07275 	 7.83491
| 14> H 	 -38.0662 	 -7.86984 	 7.94955
| 15> H 	 -38.6064 	 -6.43796 	 8.64463
| 16> C 	 -38.5361 	 -6.21028 	 6.61625
| 17> H 	 -37.4753 	 -6.02946 	 6.4651
| 18> H 	 -38.8787 	 -6.78379 	 5.77807
| 19> C 	 -39.335 	 -4.88999 	 6.52047
| 20> H 	 -39.5512 	 -4.57859 	 5.50458
| 21> H 	 -40.3805 	 -4.85191 	 6.84502
| 22> H 	 -38.7704 	 -4.01756 	 6.88233
| 23> S 	 -43.1956 	 -8.73008 	 11.7037
| 24> C 	 -44.6968 	 -8.25181 	 12.3226
| 25> C 	 -45.0707 	 -7.08395 	 11.7156
| 26> C 	 -44.3341 	 -6.68549 	 10.5669
| 27> C 	 -43.2626 	 -7.57733 	 10.3483
| 28> H 	 -46.0394 	 -6.63603 	 12.0276
| 29> C 	 -44.6884 	 -5.45673 	 9.75731
| 30> H 	 -45.7227 	 -5.26978 	 9.99778
| 31> H 	 -44.6595 	 -5.73209 	 8.72969
| 32> C 	 -43.9494 	 -4.14364 	 10.1324
| 33> H 	 -42.8726 	 -4.32782 	 10.1483
| 34> H 	 -44.1434 	 -3.85981 	 11.2149
| 35> C 	 -44.4059 	 -3.04175 	 9.1664
| 36> H 	 -44.0826 	 -2.05334 	 9.4922
| 37> H 	 -45.5107 	 -3.18611 	 9.08889
| 38> H 	 -43.9044 	 -3.29251 	 8.27123
| 39> H 	 -40.5239 	 -8.87709 	 6.44059
| 40> H 	 -45.0665 	 -8.64649 	 13.2048
| 41> *
| 42>
| 43>                          ****END OF INPUT****

CARTESIAN COORDINATES (ANGSTROEM)
---------------------------------
  S    -42.422100   -8.968080    8.118230
  C    -40.996200   -8.410430    7.310830
  C    -40.295200   -7.504360    8.072900
  C    -41.073500   -7.000760    9.123870
  C    -42.289600   -7.625810    9.273500
  H    -40.651200   -6.241100    9.808400
  C    -38.830100   -7.072750    7.834910
  H    -38.066200   -7.869840    7.949550
  H    -38.606400   -6.437960    8.644630
  C    -38.536100   -6.210280    6.616250
  H    -37.475300   -6.029460    6.465100
  H    -38.878700   -6.783790    5.778070
  C    -39.335000   -4.889990    6.520470
  H    -39.551200   -4.578590    5.504580
  H    -40.380500   -4.851910    6.845020
  H    -38.770400   -4.017560    6.882330
  S    -43.195600   -8.730080   11.703700
  C    -44.696800   -8.251810   12.322600
  C    -45.070700   -7.083950   11.715600
  C    -44.334100   -6.685490   10.566900
  C    -43.262600   -7.577330   10.348300
  H    -46.039400   -6.636030   12.027600
  C    -44.688400   -5.456730    9.757310
  H    -45.722700   -5.269780    9.997780
  H    -44.659500   -5.732090    8.729690
  C    -43.949400   -4.143640   10.132400
  H    -42.872600   -4.327820   10.148300
  H    -44.143400   -3.859810   11.214900
  C    -44.405900   -3.041750    9.166400
  H    -44.082600   -2.053340    9.492200
  H    -45.510700   -3.186110    9.088890
  H    -43.904400   -3.292510    8.271230
  H    -40.523900   -8.877090    6.440590
  H    -45.066500   -8.646490   13.204800

 Total Charge           Charge          ....    0
 Multiplicity           Mult            ....    1
 Number of Electrons    NEL             ....  134
 Basis Dimension        Dim             ....  322

ORBITAL ENERGIES
----------------

  NO   OCC          E(Eh)            E(eV)
   0   2.0000     -88.967137     -2420.9189
   1   2.0000     -88.960362     -2420.7345
   2   2.0000     -10.328775      -281.0603
   3   2.0000     -10.325530      -280.9720
   4   2.0000     -10.313570      -280.6465
   5   2.0000     -10.306871      -280.4642
   6   2.0000     -10.302598      -280.3479
   7   2.0000     -10.298362      -280.2327
   8   2.0000     -10.297167      -280.2001
   9   2.0000     -10.291467      -280.0451
  10   2.0000     -10.289950      -280.0038
  11   2.0000     -10.289158      -279.9822
  12   2.0000     -10.287402      -279.9344
  13   2.0000     -10.286934      -279.9217
  14   2.0000     -10.277749      -279.6718
  15   2.0000     -10.275911      -279.6218
  16   2.0000      -8.081834      -219.9179
  17   2.0000      -8.075944      -219.7576
  18   2.0000      -6.040247      -164.3635
  19   2.0000      -6.036417      -164.2592
  20   2.0000      -6.034297      -164.2016
  21   2.0000      -6.032600      -164.1554
  22   2.0000      -6.030232      -164.0910
  23   2.0000      -6.026917      -164.0007
  24   2.0000      -1.007842       -27.4248
  25   2.0000      -0.988632       -26.9020
  26   2.0000      -0.910877       -24.7862
  27   2.0000      -0.909510       -24.7490
  28   2.0000      -0.867987       -23.6191
  29   2.0000      -0.850911       -23.1545
  30   2.0000      -0.848113       -23.0783
  31   2.0000      -0.810408       -22.0523
  32   2.0000      -0.785833       -21.3836
  33   2.0000      -0.773165       -21.0389
  34   2.0000      -0.707114       -19.2416
  35   2.0000      -0.703930       -19.1549
  36   2.0000      -0.695059       -18.9135
  37   2.0000      -0.656062       -17.8524
  38   2.0000      -0.638080       -17.3630
  39   2.0000      -0.618007       -16.8168
  40   2.0000      -0.598693       -16.2913
  41   2.0000      -0.574806       -15.6413
  42   2.0000      -0.565182       -15.3794
  43   2.0000      -0.546495       -14.8709
  44   2.0000      -0.545388       -14.8408
  45   2.0000      -0.529429       -14.4065
  46   2.0000      -0.511902       -13.9296
  47   2.0000      -0.509714       -13.8700
  48   2.0000      -0.500065       -13.6074
  49   2.0000      -0.498643       -13.5688
  50   2.0000      -0.489032       -13.3072
  51   2.0000      -0.478899       -13.0315
  52   2.0000      -0.468032       -12.7358
  53   2.0000      -0.465335       -12.6624
  54   2.0000      -0.457086       -12.4379
  55   2.0000      -0.447619       -12.1803
  56   2.0000      -0.442052       -12.0289
  57   2.0000      -0.440184       -11.9780
  58   2.0000      -0.436988       -11.8911
  59   2.0000      -0.430520       -11.7150
  60   2.0000      -0.417798       -11.3688
  61   2.0000      -0.414072       -11.2675
  62   2.0000      -0.405256       -11.0276
  63   2.0000      -0.339665        -9.2427
  64   2.0000      -0.326739        -8.8910
  65   2.0000      -0.323194        -8.7946
  66   2.0000      -0.305178        -8.3043
  67   0.0000       0.036627         0.9967
  68   0.0000       0.051442         1.3998
  69   0.0000       0.107690         2.9304
  70   0.0000       0.123669         3.3652
  71   0.0000       0.131078         3.5668

MULLIKEN ATOMIC CHARGES
-----------------------
   0 S :    0.123861
   1 C :   -0.107578
   2 C :   -0.132630
   3 C :    0.050657
   4 C :   -0.176801
   5 H :    0.027159
   6 C :    0.100411
   7 H :    0.042508
   8 H :   -0.007222
   9 C :   -0.044504
  10 H :    0.034033
  11 H :    0.016999
  12 C :   -0.075079
  13 H :    0.013751
  14 H :    0.037186
  15 H :    0.031852
  16 S :    0.110003
  17 C :   -0.064141
  18 C :   -0.054855
  19 C :   -0.023038
  20 C :   -0.193836
  21 H :    0.026196
  22 C :    0.089147
  23 H :    0.006778
  24 H :    0.029028
  25 C :   -0.100729
  26 H :    0.025774
  27 H :    0.029766
  28 C :   -0.007489
  29 H :    0.038679
  30 H :    0.038297
  31 H :    0.027175
  32 H :    0.051982
  33 H :    0.036663
Sum of atomic charges:   -0.0000000

LOEWDIN ATOMIC CHARGES
----------------------
   0 S :    0.415719
   1 C :   -0.196544
   2 C :   -0.070936
   3 C :   -0.054839
   4 C :   -0.195185
   5 H :    0.038880
   6 C :   -0.030145
   7 H :    0.037167
   8 H :    0.020105
   9 C :   -0.038068
  10 H :    0.028525
  11 H :    0.018968
  12 C :   -0.080691
  13 H :    0.026546
  14 H :    0.030627
  15 H :    0.025763
  16 S :    0.416920
  17 C :   -0.190860
  18 C :   -0.082076
  19 C :   -0.048561
  20 C :   -0.207062
  21 H :    0.032999
  22 C :   -0.028395
  23 H :    0.027739
  24 H :    0.029907
  25 C :   -0.040151
  26 H :    0.018076
  27 H :    0.026212
  28 C :   -0.058670
  29 H :    0.026249
  30 H :    0.032012
  31 H :    0.022375
  32 H :    0.030518
  33 H :    0.016875

  Mayer bond orders larger than 0.100000
B(  0-S ,  1-C ) :   1.1595 B(  0-S ,  4-C ) :   1.1523 B(  1-C ,  2-C ) :   1.6012
B(  1-C ,  4-C ) :   0.1050 B(  1-C , 32-H ) :   0.9637 B(  2-C ,  3-C ) :   1.2757
B(  2-C ,  6-C ) :   1.0072 B(  3-C ,  4-C ) :   1.5673 B(  3-C ,  5-H ) :   0.9861
B(  4-C , 20-C ) :   1.0382 B(  6-C ,  7-H ) :   0.9419 B(  6-C ,  8-H ) :   0.9346
B(  6-C ,  9-C ) :   1.0741 B(  9-C , 10-H ) :   0.9558 B(  9-C , 11-H ) :   0.9622
B(  9-C , 12-C ) :   1.0682 B( 12-C , 13-H ) :   0.9722 B( 12-C , 14-H ) :   0.9730
B( 12-C , 15-H ) :   0.9776 B( 16-S , 17-C ) :   1.1761 B( 16-S , 20-C ) :   1.1575
B( 17-C , 18-C ) :   1.5810 B( 17-C , 20-C ) :   0.1036 B( 17-C , 33-H ) :   0.9752
B( 18-C , 19-C ) :   1.2781 B( 18-C , 21-H ) :   0.9786 B( 19-C , 20-C ) :   1.5569
B( 19-C , 22-C ) :   1.0448 B( 22-C , 23-H ) :   0.9225 B( 22-C , 24-H ) :   0.9309
B( 22-C , 25-C ) :   1.0581 B( 25-C , 26-H ) :   0.9593 B( 25-C , 27-H ) :   0.9544
B( 25-C , 28-C ) :   1.0647 B( 28-C , 29-H ) :   0.9739 B( 28-C , 30-H ) :   0.9722
B( 28-C , 31-H ) :   0.9771

Dispersion correction           -0.014265402
FINAL SINGLE POINT ENERGY     -1339.867270207757

DIPOLE MOMENT
-------------
                                X             Y             Z
Electronic contribution:     -7.28333     -25.71186      10.92513
Nuclear contribution   :      7.52287      26.15886     -11.00082
                        -----------------------------------------
Total Dipole Moment    :      0.23954       0.44700      -0.07569
                        -----------------------------------------
Magnitude (a.u.)       :      0.51276
Magnitude (Debye)      :      1.30333

Rotational constants in cm-1:     0.017807     0.009150     0.006821
Rotational constants in MHz :   533.849874   274.298913   204.479478

                             ****ORCA TERMINATED NORMALLY****
TOTAL RUN TIME: 0 days 0 hours 0 minutes 21 seconds 532 msec
