                         Program Version 4.2.1 -  RELEASE  -
|  1> ! wB97X-D3 SP def2-SVP
|  2> %pal
|  3> nprocs 24
|  4> end
|  5>
|  6> * xyz 0 1
|  7> S 	 -117.143 	 49.3428 	 -119.989
|  8> C 	 -115.511 	 48.6218 	 -119.852
|  9> C 	 -115.007 	 48.6914 	 -118.577
| 10> C 	 -115.863 	 49.3825 	 -117.694
| 11> C 	 -117.106 	 49.7216 	 -118.252
| 12> H 	 -115.659 	 49.437 	 -116.665
| 13> C 	 -113.581 	 48.3086 	 -118.14
| 14> H 	 -113.2 	 47.7172 	 -118.972
| 15> H 	 -113.629 	 47.6538 	 -117.261
| 16> C 	 -112.653 	 49.5032 	 -117.939
| 17> H 	 -113.201 	 50.0637 	 -117.235
| 18> H 	 -111.66 	 49.2202 	 -117.633
| 19> C 	 -112.447 	 50.268 	 -119.243
| 20> H 	 -113.406 	 50.3611 	 -119.735
| 21> H 	 -112.212 	 51.2904 	 -119.049
| 22> H 	 -111.702 	 49.8231 	 -119.885
| 23> S 	 -119.093 	 51.6656 	 -118.373
| 24> C 	 -120.17 	 51.8684 	 -117.103
| 25> C 	 -119.997 	 50.9016 	 -116.117
| 26> C 	 -118.909 	 50.009 	 -116.451
| 27> C 	 -118.247 	 50.317 	 -117.611
| 28> H 	 -120.549 	 50.9548 	 -115.187
| 29> C 	 -118.523 	 48.9906 	 -115.398
| 30> H 	 -117.76 	 48.3214 	 -115.773
| 31> H 	 -119.387 	 48.3742 	 -115.248
| 32> C 	 -118.186 	 49.3633 	 -113.963
| 33> H 	 -118.061 	 48.3781 	 -113.407
| 34> H 	 -119.028 	 49.9217 	 -113.533
| 35> C 	 -116.95 	 50.2329 	 -113.791
| 36> H 	 -117.092 	 51.2046 	 -114.249
| 37> H 	 -116.114 	 49.7539 	 -114.165
| 38> H 	 -116.758 	 50.3482 	 -112.673
| 39> H 	 -114.931 	 48.152 	 -120.665
| 40> H 	 -121.051 	 52.5425 	 -117.109
| 41> *
| 42>
| 43>                          ****END OF INPUT****

CARTESIAN COORDINATES (ANGSTROEM)
---------------------------------
  S    -117.143000   49.342800  -119.989000
  C    -115.511000   48.621800  -119.852000
  C    -115.007000   48.691400  -118.577000
  C    -115.863000   49.382500  -117.694000
  C    -117.106000   49.721600  -118.252000
  H    -115.659000   49.437000  -116.665000
  C    -113.581000   48.308600  -118.140000
  H    -113.200000   47.717200  -118.972000
  H    -113.629000   47.653800  -117.261000
  C    -112.653000   49.503200  -117.939000
  H    -113.201000   50.063700  -117.235000
  H    -111.660000   49.220200  -117.633000
  C    -112.447000   50.268000  -119.243000
  H    -113.406000   50.361100  -119.735000
  H    -112.212000   51.290400  -119.049000
  H    -111.702000   49.823100  -119.885000
  S    -119.093000   51.665600  -118.373000
  C    -120.170000   51.868400  -117.103000
  C    -119.997000   50.901600  -116.117000
  C    -118.909000   50.009000  -116.451000
  C    -118.247000   50.317000  -117.611000
  H    -120.549000   50.954800  -115.187000
  C    -118.523000   48.990600  -115.398000
  H    -117.760000   48.321400  -115.773000
  H    -119.387000   48.374200  -115.248000
  C    -118.186000   49.363300  -113.963000
  H    -118.061000   48.378100  -113.407000
  H    -119.028000   49.921700  -113.533000
  C    -116.950000   50.232900  -113.791000
  H    -117.092000   51.204600  -114.249000
  H    -116.114000   49.753900  -114.165000
  H    -116.758000   50.348200  -112.673000
  H    -114.931000   48.152000  -120.665000
  H    -121.051000   52.542500  -117.109000

 Total Charge           Charge          ....    0
 Multiplicity           Mult            ....    1
 Number of Electrons    NEL             ....  134
 Basis Dimension        Dim             ....  322

ORBITAL ENERGIES
----------------

  NO   OCC          E(Eh)            E(eV)
   0   2.0000     -88.970974     -2421.0233
   1   2.0000     -88.964894     -2420.8578
   2   2.0000     -10.336017      -281.2573
   3   2.0000     -10.325889      -280.9817
   4   2.0000     -10.318978      -280.7937
   5   2.0000     -10.318953      -280.7930
   6   2.0000     -10.304798      -280.4078
   7   2.0000     -10.298841      -280.2457
   8   2.0000     -10.294467      -280.1267
   9   2.0000     -10.292892      -280.0838
  10   2.0000     -10.292657      -280.0774
  11   2.0000     -10.291482      -280.0455
  12   2.0000     -10.283881      -279.8386
  13   2.0000     -10.280265      -279.7402
  14   2.0000     -10.273792      -279.5641
  15   2.0000     -10.266169      -279.3567
  16   2.0000      -8.084495      -219.9903
  17   2.0000      -8.080975      -219.8945
  18   2.0000      -6.043092      -164.4409
  19   2.0000      -6.039403      -164.3405
  20   2.0000      -6.039274      -164.3370
  21   2.0000      -6.035132      -164.2243
  22   2.0000      -6.035126      -164.2241
  23   2.0000      -6.031891      -164.1361
  24   2.0000      -1.009942       -27.4819
  25   2.0000      -0.985087       -26.8056
  26   2.0000      -0.916080       -24.9278
  27   2.0000      -0.913569       -24.8595
  28   2.0000      -0.871517       -23.7152
  29   2.0000      -0.853163       -23.2157
  30   2.0000      -0.844427       -22.9780
  31   2.0000      -0.811674       -22.0868
  32   2.0000      -0.788156       -21.4468
  33   2.0000      -0.778409       -21.1816
  34   2.0000      -0.713263       -19.4089
  35   2.0000      -0.694253       -18.8916
  36   2.0000      -0.692104       -18.8331
  37   2.0000      -0.658652       -17.9228
  38   2.0000      -0.636215       -17.3123
  39   2.0000      -0.627430       -17.0732
  40   2.0000      -0.600901       -16.3514
  41   2.0000      -0.574261       -15.6264
  42   2.0000      -0.554708       -15.0944
  43   2.0000      -0.551676       -15.0119
  44   2.0000      -0.547732       -14.9045
  45   2.0000      -0.543740       -14.7959
  46   2.0000      -0.520915       -14.1748
  47   2.0000      -0.509945       -13.8763
  48   2.0000      -0.505513       -13.7557
  49   2.0000      -0.498843       -13.5742
  50   2.0000      -0.493115       -13.4184
  51   2.0000      -0.479278       -13.0418
  52   2.0000      -0.467816       -12.7299
  53   2.0000      -0.465574       -12.6689
  54   2.0000      -0.463645       -12.6164
  55   2.0000      -0.449871       -12.2416
  56   2.0000      -0.441834       -12.0229
  57   2.0000      -0.439074       -11.9478
  58   2.0000      -0.430583       -11.7168
  59   2.0000      -0.421698       -11.4750
  60   2.0000      -0.419983       -11.4283
  61   2.0000      -0.417964       -11.3734
  62   2.0000      -0.413527       -11.2526
  63   2.0000      -0.349415        -9.5081
  64   2.0000      -0.337237        -9.1767
  65   2.0000      -0.328829        -8.9479
  66   2.0000      -0.292459        -7.9582
  67   0.0000       0.025987         0.7072
  68   0.0000       0.069760         1.8983
  69   0.0000       0.106627         2.9015
  70   0.0000       0.119634         3.2554
  71   0.0000       0.127677         3.4743

MULLIKEN ATOMIC CHARGES
-----------------------
   0 S :    0.110780
   1 C :   -0.124299
   2 C :   -0.126063
   3 C :    0.062011
   4 C :   -0.151037
   5 H :   -0.016053
   6 C :    0.062216
   7 H :    0.006753
   8 H :    0.036042
   9 C :   -0.021500
  10 H :    0.014038
  11 H :    0.031977
  12 C :   -0.051208
  13 H :    0.032076
  14 H :    0.022553
  15 H :    0.033470
  16 S :    0.112541
  17 C :   -0.090574
  18 C :   -0.065605
  19 C :   -0.018153
  20 C :   -0.152222
  21 H :    0.026439
  22 C :    0.070863
  23 H :    0.015383
  24 H :    0.021256
  25 C :   -0.102047
  26 H :    0.040913
  27 H :    0.025585
  28 C :   -0.034038
  29 H :    0.045442
  30 H :    0.015804
  31 H :    0.037185
  32 H :    0.055194
  33 H :    0.074279
Sum of atomic charges:   -0.0000000

LOEWDIN ATOMIC CHARGES
----------------------
   0 S :    0.384226
   1 C :   -0.188997
   2 C :   -0.067224
   3 C :   -0.056487
   4 C :   -0.174094
   5 H :    0.020363
   6 C :   -0.027325
   7 H :    0.023589
   8 H :    0.030651
   9 C :   -0.030533
  10 H :    0.016849
  11 H :    0.025088
  12 C :   -0.063222
  13 H :    0.026244
  14 H :    0.024427
  15 H :    0.023657
  16 S :    0.427512
  17 C :   -0.206107
  18 C :   -0.079653
  19 C :   -0.050586
  20 C :   -0.207118
  21 H :    0.031441
  22 C :   -0.039199
  23 H :    0.025189
  24 H :    0.034549
  25 C :   -0.041297
  26 H :    0.034807
  27 H :    0.020193
  28 C :   -0.064197
  29 H :    0.028753
  30 H :    0.008810
  31 H :    0.035281
  32 H :    0.034060
  33 H :    0.040347

  Mayer bond orders larger than 0.100000
B(  0-S ,  1-C ) :   1.1231 B(  0-S ,  4-C ) :   1.1443 B(  1-C ,  2-C ) :   1.6314
B(  1-C ,  4-C ) :   0.1009 B(  1-C , 32-H ) :   0.9558 B(  2-C ,  3-C ) :   1.2439
B(  2-C ,  6-C ) :   1.0263 B(  3-C ,  4-C ) :   1.5595 B(  3-C ,  5-H ) :   0.9940
B(  4-C , 20-C ) :   1.0711 B(  6-C ,  7-H ) :   0.9390 B(  6-C ,  8-H ) :   0.9401
B(  6-C ,  9-C ) :   1.0626 B(  9-C , 10-H ) :   0.9564 B(  9-C , 11-H ) :   0.9568
B(  9-C , 12-C ) :   1.0805 B( 12-C , 13-H ) :   0.9743 B( 12-C , 14-H ) :   0.9691
B( 12-C , 15-H ) :   0.9763 B( 16-S , 17-C ) :   1.1873 B( 16-S , 20-C ) :   1.1228
B( 17-C , 18-C ) :   1.5888 B( 17-C , 33-H ) :   0.9592 B( 18-C , 19-C ) :   1.2332
B( 18-C , 21-H ) :   0.9943 B( 19-C , 20-C ) :   1.5889 B( 19-C , 22-C ) :   1.0530
B( 22-C , 23-H ) :   0.9338 B( 22-C , 24-H ) :   0.9193 B( 22-C , 25-C ) :   1.0848
B( 25-C , 26-H ) :   0.9499 B( 25-C , 27-H ) :   0.9495 B( 25-C , 28-C ) :   1.0861
B( 28-C , 29-H ) :   0.9741 B( 28-C , 30-H ) :   0.9705 B( 28-C , 31-H ) :   0.9704

Dispersion correction           -0.015004490
FINAL SINGLE POINT ENERGY     -1339.883181014924

DIPOLE MOMENT
-------------
                                X             Y             Z
Electronic contribution:    -18.68993       4.59509     -17.25567
Nuclear contribution   :     18.89842      -4.76055      17.82171
                        -----------------------------------------
Total Dipole Moment    :      0.20849      -0.16546       0.56603
                        -----------------------------------------
Magnitude (a.u.)       :      0.62549
Magnitude (Debye)      :      1.58987

Rotational constants in cm-1:     0.019289     0.009178     0.007159
Rotational constants in MHz :   578.259061   275.143982   214.609548

                             ****ORCA TERMINATED NORMALLY****
TOTAL RUN TIME: 0 days 0 hours 0 minutes 22 seconds 384 msec
