                         Program Version 4.2.1 -  RELEASE  -
|  1> ! wB97X-D3 SP def2-SVP
|  2> %pal
|  3> nprocs 24
|  4> end
|  5>
|  6> * xyz 0 1
|  7> S 	 46.4717 	 -34.6937 	 -121.857
|  8> C 	 47.6132 	 -33.363 	 -121.928
|  9> C 	 47.1189 	 -32.318 	 -121.127
| 10> C 	 45.9219 	 -32.6942 	 -120.444
| 11> C 	 45.5095 	 -33.9617 	 -120.619
| 12> H 	 45.3784 	 -31.9996 	 -119.841
| 13> C 	 47.7816 	 -31.0035 	 -120.73
| 14> H 	 48.8804 	 -31.0825 	 -120.908
| 15> H 	 47.646 	 -30.7781 	 -119.685
| 16> C 	 47.3126 	 -29.6795 	 -121.332
| 17> H 	 47.8971 	 -28.7655 	 -120.974
| 18> H 	 47.3924 	 -29.6534 	 -122.42
| 19> C 	 45.8062 	 -29.3628 	 -121.145
| 20> H 	 45.4732 	 -28.3617 	 -121.487
| 21> H 	 45.1625 	 -30.0974 	 -121.612
| 22> H 	 45.4207 	 -29.4914 	 -120.082
| 23> S 	 44.0575 	 -34.3155 	 -118.339
| 24> C 	 42.5141 	 -35.055 	 -118.404
| 25> C 	 42.2538 	 -35.4755 	 -119.691
| 26> C 	 43.2577 	 -35.1874 	 -120.665
| 27> C 	 44.3312 	 -34.5869 	 -120.024
| 28> H 	 41.2419 	 -35.973 	 -119.955
| 29> C 	 43.0569 	 -35.4718 	 -122.137
| 30> H 	 42.3647 	 -36.3552 	 -122.243
| 31> H 	 44.0017 	 -35.8754 	 -122.478
| 32> C 	 42.5543 	 -34.3494 	 -123.069
| 33> H 	 43.2159 	 -33.4665 	 -123.075
| 34> H 	 41.5929 	 -33.9978 	 -122.681
| 35> C 	 42.3092 	 -34.8796 	 -124.516
| 36> H 	 42.109 	 -34.0473 	 -125.191
| 37> H 	 41.5769 	 -35.6878 	 -124.496
| 38> H 	 43.2786 	 -35.3396 	 -124.844
| 39> H 	 48.6023 	 -33.2297 	 -122.406
| 40> H 	 41.8258 	 -35.1859 	 -117.551
| 41> *
| 42>
| 43>                          ****END OF INPUT****

CARTESIAN COORDINATES (ANGSTROEM)
---------------------------------
  S     46.471700  -34.693700  -121.857000
  C     47.613200  -33.363000  -121.928000
  C     47.118900  -32.318000  -121.127000
  C     45.921900  -32.694200  -120.444000
  C     45.509500  -33.961700  -120.619000
  H     45.378400  -31.999600  -119.841000
  C     47.781600  -31.003500  -120.730000
  H     48.880400  -31.082500  -120.908000
  H     47.646000  -30.778100  -119.685000
  C     47.312600  -29.679500  -121.332000
  H     47.897100  -28.765500  -120.974000
  H     47.392400  -29.653400  -122.420000
  C     45.806200  -29.362800  -121.145000
  H     45.473200  -28.361700  -121.487000
  H     45.162500  -30.097400  -121.612000
  H     45.420700  -29.491400  -120.082000
  S     44.057500  -34.315500  -118.339000
  C     42.514100  -35.055000  -118.404000
  C     42.253800  -35.475500  -119.691000
  C     43.257700  -35.187400  -120.665000
  C     44.331200  -34.586900  -120.024000
  H     41.241900  -35.973000  -119.955000
  C     43.056900  -35.471800  -122.137000
  H     42.364700  -36.355200  -122.243000
  H     44.001700  -35.875400  -122.478000
  C     42.554300  -34.349400  -123.069000
  H     43.215900  -33.466500  -123.075000
  H     41.592900  -33.997800  -122.681000
  C     42.309200  -34.879600  -124.516000
  H     42.109000  -34.047300  -125.191000
  H     41.576900  -35.687800  -124.496000
  H     43.278600  -35.339600  -124.844000
  H     48.602300  -33.229700  -122.406000
  H     41.825800  -35.185900  -117.551000

 Total Charge           Charge          ....    0
 Multiplicity           Mult            ....    1
 Number of Electrons    NEL             ....  134
 Basis Dimension        Dim             ....  322

ORBITAL ENERGIES
----------------

  NO   OCC          E(Eh)            E(eV)
   0   2.0000     -88.969683     -2420.9882
   1   2.0000     -88.969212     -2420.9753
   2   2.0000     -10.326845      -281.0077
   3   2.0000     -10.325820      -280.9799
   4   2.0000     -10.322227      -280.8821
   5   2.0000     -10.317239      -280.7463
   6   2.0000     -10.304158      -280.3904
   7   2.0000     -10.303457      -280.3713
   8   2.0000     -10.298928      -280.2481
   9   2.0000     -10.296590      -280.1845
  10   2.0000     -10.296144      -280.1723
  11   2.0000     -10.294093      -280.1165
  12   2.0000     -10.289240      -279.9845
  13   2.0000     -10.285508      -279.8829
  14   2.0000     -10.282914      -279.8123
  15   2.0000     -10.281828      -279.7828
  16   2.0000      -8.085213      -220.0098
  17   2.0000      -8.083590      -219.9657
  18   2.0000      -6.043633      -164.4556
  19   2.0000      -6.042317      -164.4198
  20   2.0000      -6.039556      -164.3447
  21   2.0000      -6.038020      -164.3029
  22   2.0000      -6.036064      -164.2497
  23   2.0000      -6.034265      -164.2007
  24   2.0000      -1.015019       -27.6201
  25   2.0000      -0.990992       -26.9663
  26   2.0000      -0.910372       -24.7725
  27   2.0000      -0.906320       -24.6622
  28   2.0000      -0.870435       -23.6857
  29   2.0000      -0.853658       -23.2292
  30   2.0000      -0.843222       -22.9452
  31   2.0000      -0.812597       -22.1119
  32   2.0000      -0.783332       -21.3155
  33   2.0000      -0.773566       -21.0498
  34   2.0000      -0.704809       -19.1788
  35   2.0000      -0.698184       -18.9986
  36   2.0000      -0.692450       -18.8425
  37   2.0000      -0.662172       -18.0186
  38   2.0000      -0.635028       -17.2800
  39   2.0000      -0.618932       -16.8420
  40   2.0000      -0.597451       -16.2575
  41   2.0000      -0.573234       -15.5985
  42   2.0000      -0.561833       -15.2882
  43   2.0000      -0.546231       -14.8637
  44   2.0000      -0.541433       -14.7331
  45   2.0000      -0.523719       -14.2511
  46   2.0000      -0.517451       -14.0806
  47   2.0000      -0.511256       -13.9120
  48   2.0000      -0.504235       -13.7209
  49   2.0000      -0.491489       -13.3741
  50   2.0000      -0.489932       -13.3317
  51   2.0000      -0.479784       -13.0556
  52   2.0000      -0.472621       -12.8607
  53   2.0000      -0.463821       -12.6212
  54   2.0000      -0.459440       -12.5020
  55   2.0000      -0.446998       -12.1634
  56   2.0000      -0.442135       -12.0311
  57   2.0000      -0.439004       -11.9459
  58   2.0000      -0.432288       -11.7631
  59   2.0000      -0.424933       -11.5630
  60   2.0000      -0.421447       -11.4681
  61   2.0000      -0.415091       -11.2952
  62   2.0000      -0.409353       -11.1391
  63   2.0000      -0.352917        -9.6034
  64   2.0000      -0.334615        -9.1053
  65   2.0000      -0.329206        -8.9582
  66   2.0000      -0.293742        -7.9931
  67   0.0000       0.030850         0.8395
  68   0.0000       0.071813         1.9541
  69   0.0000       0.110364         3.0032
  70   0.0000       0.122012         3.3201
  71   0.0000       0.124626         3.3913

MULLIKEN ATOMIC CHARGES
-----------------------
   0 S :    0.108160
   1 C :   -0.115257
   2 C :   -0.084163
   3 C :    0.006053
   4 C :   -0.121216
   5 H :   -0.002392
   6 C :    0.049532
   7 H :    0.031443
   8 H :    0.033880
   9 C :   -0.069864
  10 H :    0.045964
  11 H :    0.026191
  12 C :   -0.105547
  13 H :    0.043357
  14 H :    0.034184
  15 H :    0.024362
  16 S :    0.126957
  17 C :   -0.107448
  18 C :   -0.066096
  19 C :   -0.024525
  20 C :   -0.156580
  21 H :    0.042459
  22 C :    0.047990
  23 H :    0.022840
  24 H :    0.015419
  25 C :   -0.057547
  26 H :    0.040069
  27 H :    0.023445
  28 C :   -0.050932
  29 H :    0.045888
  30 H :    0.034101
  31 H :    0.030827
  32 H :    0.059175
  33 H :    0.069272
Sum of atomic charges:    0.0000000

LOEWDIN ATOMIC CHARGES
----------------------
   0 S :    0.419293
   1 C :   -0.205062
   2 C :   -0.063122
   3 C :   -0.070686
   4 C :   -0.196115
   5 H :    0.022915
   6 C :   -0.035816
   7 H :    0.036105
   8 H :    0.032995
   9 C :   -0.045822
  10 H :    0.034180
  11 H :    0.021923
  12 C :   -0.081926
  13 H :    0.029694
  14 H :    0.021983
  15 H :    0.022662
  16 S :    0.442280
  17 C :   -0.210917
  18 C :   -0.080352
  19 C :   -0.060887
  20 C :   -0.201500
  21 H :    0.042166
  22 C :   -0.039051
  23 H :    0.036269
  24 H :    0.019165
  25 C :   -0.037419
  26 H :    0.027185
  27 H :    0.021612
  28 C :   -0.064376
  29 H :    0.029014
  30 H :    0.023735
  31 H :    0.028861
  32 H :    0.042178
  33 H :    0.038835

  Mayer bond orders larger than 0.100000
B(  0-S ,  1-C ) :   1.1333 B(  0-S ,  4-C ) :   1.1425 B(  1-C ,  2-C ) :   1.6155
B(  1-C , 32-H ) :   0.9621 B(  2-C ,  3-C ) :   1.2396 B(  2-C ,  6-C ) :   1.0180
B(  3-C ,  4-C ) :   1.5863 B(  3-C ,  5-H ) :   0.9971 B(  4-C , 20-C ) :   1.0191
B(  6-C ,  7-H ) :   0.9410 B(  6-C ,  8-H ) :   0.9492 B(  6-C ,  9-C ) :   1.0695
B(  9-C , 10-H ) :   0.9581 B(  9-C , 11-H ) :   0.9523 B(  9-C , 12-C ) :   1.0711
B( 12-C , 13-H ) :   0.9739 B( 12-C , 14-H ) :   0.9709 B( 12-C , 15-H ) :   0.9724
B( 16-S , 17-C ) :   1.1590 B( 16-S , 20-C ) :   1.1675 B( 17-C , 18-C ) :   1.5931
B( 17-C , 33-H ) :   0.9660 B( 18-C , 19-C ) :   1.2757 B( 18-C , 21-H ) :   0.9722
B( 19-C , 20-C ) :   1.5598 B( 19-C , 22-C ) :   1.0381 B( 22-C , 23-H ) :   0.9335
B( 22-C , 24-H ) :   0.9260 B( 22-C , 25-C ) :   1.0583 B( 25-C , 26-H ) :   0.9557
B( 25-C , 27-H ) :   0.9537 B( 25-C , 28-C ) :   1.0756 B( 28-C , 29-H ) :   0.9742
B( 28-C , 30-H ) :   0.9757 B( 28-C , 31-H ) :   0.9759

Dispersion correction           -0.014578360
FINAL SINGLE POINT ENERGY     -1339.885691423837

DIPOLE MOMENT
-------------
                                X             Y             Z
Electronic contribution:      4.83843     -14.60452      14.44166
Nuclear contribution   :     -5.04974      14.93472     -14.58539
                        -----------------------------------------
Total Dipole Moment    :     -0.21130       0.33020      -0.14374
                        -----------------------------------------
Magnitude (a.u.)       :      0.41754
Magnitude (Debye)      :      1.06131

Rotational constants in cm-1:     0.016971     0.009198     0.007724
Rotational constants in MHz :   508.768348   275.760538   231.561971

                             ****ORCA TERMINATED NORMALLY****
TOTAL RUN TIME: 0 days 0 hours 0 minutes 21 seconds 702 msec
