                         Program Version 4.2.1 -  RELEASE  -
|  1> ! wB97X-D3 SP def2-SVP
|  2> %pal
|  3> nprocs 24
|  4> end
|  5>
|  6> * xyz 0 1
|  7> S 	 21.206 	 0.283687 	 -114.207
|  8> C 	 19.4268 	 -0.028862 	 -114.156
|  9> C 	 18.8766 	 0.476203 	 -112.995
| 10> C 	 19.8747 	 0.987561 	 -112.137
| 11> C 	 21.1812 	 0.907162 	 -112.566
| 12> H 	 19.6638 	 1.50345 	 -111.159
| 13> C 	 17.3809 	 0.545723 	 -112.585
| 14> H 	 16.7785 	 1.20257 	 -113.3
| 15> H 	 17.3171 	 1.0793 	 -111.636
| 16> C 	 16.5913 	 -0.788996 	 -112.378
| 17> H 	 15.65 	 -0.579269 	 -111.861
| 18> H 	 16.3926 	 -1.13279 	 -113.362
| 19> C 	 17.2955 	 -1.75657 	 -111.479
| 20> H 	 17.1931 	 -1.52962 	 -110.413
| 21> H 	 16.8879 	 -2.75288 	 -111.572
| 22> H 	 18.393 	 -1.90382 	 -111.623
| 23> S 	 23.5621 	 2.37906 	 -112.621
| 24> C 	 24.6963 	 2.1229 	 -111.405
| 25> C 	 24.204 	 1.51136 	 -110.274
| 26> C 	 22.8758 	 0.975128 	 -110.583
| 27> C 	 22.361 	 1.31722 	 -111.818
| 28> H 	 24.8441 	 1.45272 	 -109.355
| 29> C 	 22.1341 	 0.125524 	 -109.585
| 30> H 	 21.2222 	 -0.333976 	 -110.029
| 31> H 	 21.5881 	 0.813314 	 -108.993
| 32> C 	 23.013 	 -0.759927 	 -108.601
| 33> H 	 22.2467 	 -1.34087 	 -108.114
| 34> H 	 23.63 	 -0.250552 	 -107.865
| 35> C 	 23.8923 	 -1.8414 	 -109.239
| 36> H 	 23.3176 	 -2.67334 	 -109.68
| 37> H 	 24.4434 	 -2.2444 	 -108.404
| 38> H 	 24.6203 	 -1.42101 	 -109.911
| 39> H 	 18.8833 	 -0.56357 	 -114.874
| 40> H 	 25.6475 	 2.67179 	 -111.359
| 41> *
| 42>
| 43>                          ****END OF INPUT****

CARTESIAN COORDINATES (ANGSTROEM)
---------------------------------
  S     21.206000    0.283687  -114.207000
  C     19.426800   -0.028862  -114.156000
  C     18.876600    0.476203  -112.995000
  C     19.874700    0.987561  -112.137000
  C     21.181200    0.907162  -112.566000
  H     19.663800    1.503450  -111.159000
  C     17.380900    0.545723  -112.585000
  H     16.778500    1.202570  -113.300000
  H     17.317100    1.079300  -111.636000
  C     16.591300   -0.788996  -112.378000
  H     15.650000   -0.579269  -111.861000
  H     16.392600   -1.132790  -113.362000
  C     17.295500   -1.756570  -111.479000
  H     17.193100   -1.529620  -110.413000
  H     16.887900   -2.752880  -111.572000
  H     18.393000   -1.903820  -111.623000
  S     23.562100    2.379060  -112.621000
  C     24.696300    2.122900  -111.405000
  C     24.204000    1.511360  -110.274000
  C     22.875800    0.975128  -110.583000
  C     22.361000    1.317220  -111.818000
  H     24.844100    1.452720  -109.355000
  C     22.134100    0.125524  -109.585000
  H     21.222200   -0.333976  -110.029000
  H     21.588100    0.813314  -108.993000
  C     23.013000   -0.759927  -108.601000
  H     22.246700   -1.340870  -108.114000
  H     23.630000   -0.250552  -107.865000
  C     23.892300   -1.841400  -109.239000
  H     23.317600   -2.673340  -109.680000
  H     24.443400   -2.244400  -108.404000
  H     24.620300   -1.421010  -109.911000
  H     18.883300   -0.563570  -114.874000
  H     25.647500    2.671790  -111.359000

 Total Charge           Charge          ....    0
 Multiplicity           Mult            ....    1
 Number of Electrons    NEL             ....  134
 Basis Dimension        Dim             ....  322

ORBITAL ENERGIES
----------------

  NO   OCC          E(Eh)            E(eV)
   0   2.0000     -88.968378     -2420.9526
   1   2.0000     -88.960277     -2420.7322
   2   2.0000     -10.331255      -281.1277
   3   2.0000     -10.325714      -280.9770
   4   2.0000     -10.317426      -280.7514
   5   2.0000     -10.314670      -280.6764
   6   2.0000     -10.308275      -280.5024
   7   2.0000     -10.304931      -280.4114
   8   2.0000     -10.301517      -280.3185
   9   2.0000     -10.299396      -280.2608
  10   2.0000     -10.295383      -280.1516
  11   2.0000     -10.289656      -279.9958
  12   2.0000     -10.288613      -279.9674
  13   2.0000     -10.287459      -279.9360
  14   2.0000     -10.275132      -279.6006
  15   2.0000     -10.270504      -279.4746
  16   2.0000      -8.082028      -219.9232
  17   2.0000      -8.076108      -219.7621
  18   2.0000      -6.040672      -164.3750
  19   2.0000      -6.036726      -164.2677
  20   2.0000      -6.034563      -164.2088
  21   2.0000      -6.032640      -164.1565
  22   2.0000      -6.030499      -164.0982
  23   2.0000      -6.026822      -163.9982
  24   2.0000      -1.004832       -27.3429
  25   2.0000      -0.983603       -26.7652
  26   2.0000      -0.909076       -24.7372
  27   2.0000      -0.903759       -24.5925
  28   2.0000      -0.870789       -23.6954
  29   2.0000      -0.850972       -23.1561
  30   2.0000      -0.841431       -22.8965
  31   2.0000      -0.812508       -22.1095
  32   2.0000      -0.785415       -21.3722
  33   2.0000      -0.776263       -21.1232
  34   2.0000      -0.707732       -19.2584
  35   2.0000      -0.702627       -19.1194
  36   2.0000      -0.691814       -18.8252
  37   2.0000      -0.650574       -17.7030
  38   2.0000      -0.638133       -17.3645
  39   2.0000      -0.612956       -16.6794
  40   2.0000      -0.595176       -16.1956
  41   2.0000      -0.575551       -15.6615
  42   2.0000      -0.556978       -15.1561
  43   2.0000      -0.548685       -14.9305
  44   2.0000      -0.544036       -14.8040
  45   2.0000      -0.532999       -14.5036
  46   2.0000      -0.517672       -14.0866
  47   2.0000      -0.509476       -13.8635
  48   2.0000      -0.502312       -13.6686
  49   2.0000      -0.496986       -13.5237
  50   2.0000      -0.489409       -13.3175
  51   2.0000      -0.474328       -12.9071
  52   2.0000      -0.467160       -12.7121
  53   2.0000      -0.463130       -12.6024
  54   2.0000      -0.460418       -12.5286
  55   2.0000      -0.442931       -12.0528
  56   2.0000      -0.438701       -11.9377
  57   2.0000      -0.435635       -11.8542
  58   2.0000      -0.432031       -11.7562
  59   2.0000      -0.428004       -11.6466
  60   2.0000      -0.422892       -11.5075
  61   2.0000      -0.414958       -11.2916
  62   2.0000      -0.406808       -11.0698
  63   2.0000      -0.345706        -9.4071
  64   2.0000      -0.334706        -9.1078
  65   2.0000      -0.323977        -8.8159
  66   2.0000      -0.293793        -7.9945
  67   0.0000       0.029109         0.7921
  68   0.0000       0.067154         1.8273
  69   0.0000       0.107931         2.9370
  70   0.0000       0.120109         3.2683
  71   0.0000       0.131595         3.5809

MULLIKEN ATOMIC CHARGES
-----------------------
   0 S :    0.113597
   1 C :   -0.114689
   2 C :   -0.056591
   3 C :   -0.011615
   4 C :   -0.135141
   5 H :    0.030625
   6 C :    0.031942
   7 H :    0.051031
   8 H :    0.013985
   9 C :   -0.035337
  10 H :    0.034491
  11 H :    0.023888
  12 C :   -0.076041
  13 H :    0.026096
  14 H :    0.027202
  15 H :    0.046923
  16 S :    0.098664
  17 C :   -0.087256
  18 C :   -0.059969
  19 C :   -0.047563
  20 C :   -0.165929
  21 H :    0.045531
  22 C :    0.075888
  23 H :    0.022036
  24 H :    0.020516
  25 C :   -0.080950
  26 H :    0.023984
  27 H :    0.035546
  28 C :   -0.040446
  29 H :    0.039008
  30 H :    0.021184
  31 H :    0.036090
  32 H :    0.028711
  33 H :    0.064586
Sum of atomic charges:   -0.0000000

LOEWDIN ATOMIC CHARGES
----------------------
   0 S :    0.389192
   1 C :   -0.166901
   2 C :   -0.065459
   3 C :   -0.072521
   4 C :   -0.193777
   5 H :    0.038241
   6 C :   -0.032736
   7 H :    0.039831
   8 H :    0.025444
   9 C :   -0.037565
  10 H :    0.032254
  11 H :    0.016704
  12 C :   -0.076181
  13 H :    0.025551
  14 H :    0.025955
  15 H :    0.030170
  16 S :    0.404464
  17 C :   -0.198747
  18 C :   -0.087220
  19 C :   -0.043647
  20 C :   -0.197451
  21 H :    0.044029
  22 C :   -0.042624
  23 H :    0.037493
  24 H :    0.031853
  25 C :   -0.038969
  26 H :    0.027650
  27 H :    0.023639
  28 C :   -0.064020
  29 H :    0.028413
  30 H :    0.024716
  31 H :    0.020698
  32 H :    0.017867
  33 H :    0.033651

  Mayer bond orders larger than 0.100000
B(  0-S ,  1-C ) :   1.1309 B(  0-S ,  4-C ) :   1.1391 B(  1-C ,  2-C ) :   1.6015
B(  1-C ,  4-C ) :   0.1004 B(  1-C , 32-H ) :   0.9797 B(  2-C ,  3-C ) :   1.2512
B(  2-C ,  6-C ) :   1.0051 B(  3-C ,  4-C ) :   1.5717 B(  3-C ,  5-H ) :   0.9828
B(  4-C , 20-C ) :   1.0573 B(  6-C ,  7-H ) :   0.9457 B(  6-C ,  8-H ) :   0.9449
B(  6-C ,  9-C ) :   1.0706 B(  9-C , 10-H ) :   0.9542 B(  9-C , 11-H ) :   0.9608
B(  9-C , 12-C ) :   1.0773 B( 12-C , 13-H ) :   0.9756 B( 12-C , 14-H ) :   0.9715
B( 12-C , 15-H ) :   0.9730 B( 16-S , 17-C ) :   1.1854 B( 16-S , 20-C ) :   1.1034
B( 17-C , 18-C ) :   1.6175 B( 17-C , 33-H ) :   0.9551 B( 18-C , 19-C ) :   1.2068
B( 18-C , 21-H ) :   0.9820 B( 19-C , 20-C ) :   1.6252 B( 19-C , 22-C ) :   1.0479
B( 22-C , 23-H ) :   0.9280 B( 22-C , 24-H ) :   0.9196 B( 22-C , 25-C ) :   1.0609
B( 25-C , 26-H ) :   0.9540 B( 25-C , 27-H ) :   0.9572 B( 25-C , 28-C ) :   1.0839
B( 28-C , 29-H ) :   0.9770 B( 28-C , 30-H ) :   0.9728 B( 28-C , 31-H ) :   0.9742

Dispersion correction           -0.014455172
FINAL SINGLE POINT ENERGY     -1339.869459793517

DIPOLE MOMENT
-------------
                                X             Y             Z
Electronic contribution:     13.55255      15.66803     -18.47401
Nuclear contribution   :    -13.96395     -15.84196      19.13289
                        -----------------------------------------
Total Dipole Moment    :     -0.41140      -0.17393       0.65888
                        -----------------------------------------
Magnitude (a.u.)       :      0.79600
Magnitude (Debye)      :      2.02328

Rotational constants in cm-1:     0.019200     0.008654     0.006709
Rotational constants in MHz :   575.607280   259.448384   201.119436

                             ****ORCA TERMINATED NORMALLY****
TOTAL RUN TIME: 0 days 0 hours 0 minutes 21 seconds 523 msec
