                         Program Version 4.2.1 -  RELEASE  -
|  1> ! wB97X-D3 SP def2-SVP
|  2> %pal
|  3> nprocs 24
|  4> end
|  5>
|  6> * xyz 0 1
|  7> S 	 -116.23 	 19.8732 	 -112.026
|  8> C 	 -116.802 	 21.4141 	 -112.755
|  9> C 	 -117.964 	 21.2353 	 -113.494
| 10> C 	 -118.308 	 19.8637 	 -113.534
| 11> C 	 -117.628 	 19.0861 	 -112.616
| 12> H 	 -119.066 	 19.4423 	 -114.108
| 13> C 	 -118.558 	 22.2868 	 -114.326
| 14> H 	 -117.957 	 23.1972 	 -113.974
| 15> H 	 -119.601 	 22.338 	 -113.943
| 16> C 	 -118.371 	 22.2012 	 -115.873
| 17> H 	 -118.396 	 23.1876 	 -116.322
| 18> H 	 -117.336 	 21.9377 	 -116.041
| 19> C 	 -119.418 	 21.2382 	 -116.47
| 20> H 	 -119.183 	 21.1563 	 -117.528
| 21> H 	 -119.18 	 20.3091 	 -116.058
| 22> H 	 -120.499 	 21.4804 	 -116.44
| 23> S 	 -116.377 	 16.7189 	 -112.672
| 24> C 	 -117.191 	 15.295 	 -112.041
| 25> C 	 -118.486 	 15.4792 	 -111.742
| 26> C 	 -118.9 	 16.9093 	 -111.967
| 27> C 	 -117.833 	 17.6769 	 -112.437
| 28> H 	 -119.123 	 14.6498 	 -111.355
| 29> C 	 -120.245 	 17.4195 	 -111.397
| 30> H 	 -120.985 	 16.6156 	 -111.486
| 31> H 	 -120.61 	 18.1692 	 -112.082
| 32> C 	 -120.214 	 18.0585 	 -109.931
| 33> H 	 -119.418 	 18.7823 	 -110.014
| 34> H 	 -119.789 	 17.395 	 -109.257
| 35> C 	 -121.456 	 18.7749 	 -109.341
| 36> H 	 -121.829 	 19.5434 	 -110.053
| 37> H 	 -121.176 	 19.2576 	 -108.371
| 38> H 	 -122.316 	 18.085 	 -109.187
| 39> H 	 -116.546 	 22.4093 	 -112.507
| 40> H 	 -116.798 	 14.3082 	 -112.064
| 41> *
| 42>
| 43>                          ****END OF INPUT****

CARTESIAN COORDINATES (ANGSTROEM)
---------------------------------
  S    -116.230000   19.873200  -112.026000
  C    -116.802000   21.414100  -112.755000
  C    -117.964000   21.235300  -113.494000
  C    -118.308000   19.863700  -113.534000
  C    -117.628000   19.086100  -112.616000
  H    -119.066000   19.442300  -114.108000
  C    -118.558000   22.286800  -114.326000
  H    -117.957000   23.197200  -113.974000
  H    -119.601000   22.338000  -113.943000
  C    -118.371000   22.201200  -115.873000
  H    -118.396000   23.187600  -116.322000
  H    -117.336000   21.937700  -116.041000
  C    -119.418000   21.238200  -116.470000
  H    -119.183000   21.156300  -117.528000
  H    -119.180000   20.309100  -116.058000
  H    -120.499000   21.480400  -116.440000
  S    -116.377000   16.718900  -112.672000
  C    -117.191000   15.295000  -112.041000
  C    -118.486000   15.479200  -111.742000
  C    -118.900000   16.909300  -111.967000
  C    -117.833000   17.676900  -112.437000
  H    -119.123000   14.649800  -111.355000
  C    -120.245000   17.419500  -111.397000
  H    -120.985000   16.615600  -111.486000
  H    -120.610000   18.169200  -112.082000
  C    -120.214000   18.058500  -109.931000
  H    -119.418000   18.782300  -110.014000
  H    -119.789000   17.395000  -109.257000
  C    -121.456000   18.774900  -109.341000
  H    -121.829000   19.543400  -110.053000
  H    -121.176000   19.257600  -108.371000
  H    -122.316000   18.085000  -109.187000
  H    -116.546000   22.409300  -112.507000
  H    -116.798000   14.308200  -112.064000

 Total Charge           Charge          ....    0
 Multiplicity           Mult            ....    1
 Number of Electrons    NEL             ....  134
 Basis Dimension        Dim             ....  322

ORBITAL ENERGIES
----------------

  NO   OCC          E(Eh)            E(eV)
   0   2.0000     -88.969567     -2420.9850
   1   2.0000     -88.963503     -2420.8200
   2   2.0000     -10.328034      -281.0401
   3   2.0000     -10.325218      -280.9635
   4   2.0000     -10.313736      -280.6510
   5   2.0000     -10.311395      -280.5873
   6   2.0000     -10.310617      -280.5662
   7   2.0000     -10.299355      -280.2597
   8   2.0000     -10.296134      -280.1721
   9   2.0000     -10.296113      -280.1715
  10   2.0000     -10.295456      -280.1536
  11   2.0000     -10.291673      -280.0507
  12   2.0000     -10.287558      -279.9387
  13   2.0000     -10.284995      -279.8689
  14   2.0000     -10.281473      -279.7731
  15   2.0000     -10.277435      -279.6632
  16   2.0000      -8.084093      -219.9794
  17   2.0000      -8.078438      -219.8255
  18   2.0000      -6.042695      -164.4301
  19   2.0000      -6.038668      -164.3205
  20   2.0000      -6.037105      -164.2780
  21   2.0000      -6.034695      -164.2124
  22   2.0000      -6.033034      -164.1672
  23   2.0000      -6.028886      -164.0543
  24   2.0000      -1.010020       -27.4840
  25   2.0000      -0.980902       -26.6917
  26   2.0000      -0.916697       -24.9446
  27   2.0000      -0.894127       -24.3304
  28   2.0000      -0.872974       -23.7548
  29   2.0000      -0.849533       -23.1170
  30   2.0000      -0.841641       -22.9022
  31   2.0000      -0.820009       -22.3136
  32   2.0000      -0.782794       -21.3009
  33   2.0000      -0.768812       -20.9204
  34   2.0000      -0.713587       -19.4177
  35   2.0000      -0.708688       -19.2844
  36   2.0000      -0.696230       -18.9454
  37   2.0000      -0.658328       -17.9140
  38   2.0000      -0.638406       -17.3719
  39   2.0000      -0.618236       -16.8231
  40   2.0000      -0.588282       -16.0080
  41   2.0000      -0.569348       -15.4928
  42   2.0000      -0.551690       -15.0123
  43   2.0000      -0.549693       -14.9579
  44   2.0000      -0.541787       -14.7428
  45   2.0000      -0.521555       -14.1922
  46   2.0000      -0.517731       -14.0882
  47   2.0000      -0.506363       -13.7788
  48   2.0000      -0.501887       -13.6570
  49   2.0000      -0.499567       -13.5939
  50   2.0000      -0.491006       -13.3609
  51   2.0000      -0.487488       -13.2652
  52   2.0000      -0.469926       -12.7873
  53   2.0000      -0.464258       -12.6331
  54   2.0000      -0.454314       -12.3625
  55   2.0000      -0.452904       -12.3242
  56   2.0000      -0.446311       -12.1447
  57   2.0000      -0.442851       -12.0506
  58   2.0000      -0.432884       -11.7794
  59   2.0000      -0.425805       -11.5867
  60   2.0000      -0.420699       -11.4478
  61   2.0000      -0.412361       -11.2209
  62   2.0000      -0.405468       -11.0334
  63   2.0000      -0.348584        -9.4855
  64   2.0000      -0.333082        -9.0636
  65   2.0000      -0.327330        -8.9071
  66   2.0000      -0.291837        -7.9413
  67   0.0000       0.028797         0.7836
  68   0.0000       0.066458         1.8084
  69   0.0000       0.104570         2.8455
  70   0.0000       0.117175         3.1885
  71   0.0000       0.133055         3.6206

MULLIKEN ATOMIC CHARGES
-----------------------
   0 S :    0.116015
   1 C :   -0.098623
   2 C :   -0.102211
   3 C :    0.033164
   4 C :   -0.135038
   5 H :   -0.004039
   6 C :    0.028426
   7 H :    0.018782
   8 H :    0.042781
   9 C :   -0.036039
  10 H :    0.028348
  11 H :    0.026857
  12 C :   -0.034603
  13 H :    0.025516
  14 H :    0.018938
  15 H :    0.049551
  16 S :    0.091055
  17 C :   -0.063522
  18 C :   -0.051539
  19 C :   -0.066152
  20 C :   -0.165309
  21 H :    0.041495
  22 C :    0.081234
  23 H :    0.018415
  24 H :    0.010384
  25 C :   -0.037869
  26 H :    0.021097
  27 H :    0.009099
  28 C :   -0.068645
  29 H :    0.036865
  30 H :    0.050604
  31 H :    0.038153
  32 H :    0.032374
  33 H :    0.044436
Sum of atomic charges:   -0.0000000

LOEWDIN ATOMIC CHARGES
----------------------
   0 S :    0.407846
   1 C :   -0.189254
   2 C :   -0.061576
   3 C :   -0.059811
   4 C :   -0.204690
   5 H :    0.017252
   6 C :   -0.039883
   7 H :    0.036840
   8 H :    0.036076
   9 C :   -0.030616
  10 H :    0.023540
  11 H :    0.029068
  12 C :   -0.064480
  13 H :    0.028109
  14 H :    0.017267
  15 H :    0.033315
  16 S :    0.386212
  17 C :   -0.178285
  18 C :   -0.071623
  19 C :   -0.052690
  20 C :   -0.189835
  21 H :    0.042000
  22 C :   -0.031470
  23 H :    0.025715
  24 H :    0.024819
  25 C :   -0.037713
  26 H :    0.026437
  27 H :    0.013546
  28 C :   -0.069695
  29 H :    0.027955
  30 H :    0.036296
  31 H :    0.025679
  32 H :    0.018957
  33 H :    0.024691

  Mayer bond orders larger than 0.100000
B(  0-S ,  1-C ) :   1.1160 B(  0-S ,  4-C ) :   1.1570 B(  1-C ,  2-C ) :   1.6173
B(  1-C , 32-H ) :   0.9584 B(  2-C ,  3-C ) :   1.2304 B(  2-C ,  6-C ) :   1.0405
B(  3-C ,  4-C ) :   1.5687 B(  3-C ,  5-H ) :   0.9937 B(  4-C , 20-C ) :   1.0445
B(  6-C ,  7-H ) :   0.9340 B(  6-C ,  8-H ) :   0.9312 B(  6-C ,  9-C ) :   1.0567
B(  9-C , 10-H ) :   0.9588 B(  9-C , 11-H ) :   0.9524 B(  9-C , 12-C ) :   1.0682
B( 12-C , 13-H ) :   0.9675 B( 12-C , 14-H ) :   0.9737 B( 12-C , 15-H ) :   0.9777
B( 16-S , 17-C ) :   1.1153 B( 16-S , 20-C ) :   1.1277 B( 17-C , 18-C ) :   1.6945
B( 17-C , 33-H ) :   0.9637 B( 18-C , 19-C ) :   1.1786 B( 18-C , 21-H ) :   0.9802
B( 19-C , 20-C ) :   1.6409 B( 19-C , 22-C ) :   1.0599 B( 22-C , 23-H ) :   0.9351
B( 22-C , 24-H ) :   0.9304 B( 22-C , 25-C ) :   1.0438 B( 25-C , 26-H ) :   0.9533
B( 25-C , 27-H ) :   0.9577 B( 25-C , 28-C ) :   1.0781 B( 28-C , 29-H ) :   0.9752
B( 28-C , 30-H ) :   0.9723 B( 28-C , 31-H ) :   0.9774

Dispersion correction           -0.014294733
FINAL SINGLE POINT ENERGY     -1339.855253188763

DIPOLE MOMENT
-------------
                                X             Y             Z
Electronic contribution:     21.78567     -11.12192       3.21007
Nuclear contribution   :    -22.30623      11.25062      -3.33900
                        -----------------------------------------
Total Dipole Moment    :     -0.52056       0.12870      -0.12892
                        -----------------------------------------
Magnitude (a.u.)       :      0.55152
Magnitude (Debye)      :      1.40184

Rotational constants in cm-1:     0.016897     0.008912     0.007534
Rotational constants in MHz :   506.567992   267.186892   225.863948

                             ****ORCA TERMINATED NORMALLY****
TOTAL RUN TIME: 0 days 0 hours 0 minutes 21 seconds 731 msec
