                         Program Version 4.2.1 -  RELEASE  -
|  1> ! wB97X-D3 SP def2-SVP
|  2> %pal
|  3> nprocs 24
|  4> end
|  5>
|  6> * xyz 0 1
|  7> S 	 -66.7399 	 9.48081 	 -73.9096
|  8> C 	 -65.7414 	 10.7488 	 -73.2962
|  9> C 	 -66.3943 	 11.3681 	 -72.2149
| 10> C 	 -67.685 	 10.782 	 -71.9004
| 11> C 	 -68.0651 	 9.78443 	 -72.7788
| 12> H 	 -68.3328 	 11.0304 	 -71.0977
| 13> C 	 -65.7903 	 12.5962 	 -71.5507
| 14> H 	 -64.8037 	 12.67 	 -71.982
| 15> H 	 -65.677 	 12.3187 	 -70.5067
| 16> C 	 -66.5034 	 13.8728 	 -71.7222
| 17> H 	 -67.4696 	 13.8357 	 -71.1958
| 18> H 	 -65.8934 	 14.6311 	 -71.2137
| 19> C 	 -66.7434 	 14.2298 	 -73.2309
| 20> H 	 -67.3725 	 13.4268 	 -73.6641
| 21> H 	 -67.3372 	 15.1403 	 -73.2968
| 22> H 	 -65.7881 	 14.3933 	 -73.6886
| 23> S 	 -69.3531 	 7.3502 	 -72.5079
| 24> C 	 -71.0387 	 7.35193 	 -72.9489
| 25> C 	 -71.5863 	 8.60601 	 -73.1711
| 26> C 	 -70.5874 	 9.607 	 -73.0994
| 27> C 	 -69.3061 	 9.11365 	 -72.8596
| 28> H 	 -72.5851 	 8.71649 	 -73.4579
| 29> C 	 -70.9232 	 11.1142 	 -73.3764
| 30> H 	 -71.7735 	 11.2307 	 -73.9878
| 31> H 	 -70.0742 	 11.6138 	 -73.8273
| 32> C 	 -71.3259 	 11.8548 	 -72.0571
| 33> H 	 -71.6277 	 12.7945 	 -72.3437
| 34> H 	 -70.5371 	 12.003 	 -71.3905
| 35> C 	 -72.4604 	 11.107 	 -71.4139
| 36> H 	 -73.3074 	 11.2139 	 -72.1087
| 37> H 	 -72.6588 	 11.6262 	 -70.4793
| 38> H 	 -72.1217 	 10.0578 	 -71.1407
| 39> H 	 -64.848 	 11.0865 	 -73.6581
| 40> H 	 -71.5672 	 6.48198 	 -73.1259
| 41> *
| 42>
| 43>                          ****END OF INPUT****

CARTESIAN COORDINATES (ANGSTROEM)
---------------------------------
  S    -66.739900    9.480810  -73.909600
  C    -65.741400   10.748800  -73.296200
  C    -66.394300   11.368100  -72.214900
  C    -67.685000   10.782000  -71.900400
  C    -68.065100    9.784430  -72.778800
  H    -68.332800   11.030400  -71.097700
  C    -65.790300   12.596200  -71.550700
  H    -64.803700   12.670000  -71.982000
  H    -65.677000   12.318700  -70.506700
  C    -66.503400   13.872800  -71.722200
  H    -67.469600   13.835700  -71.195800
  H    -65.893400   14.631100  -71.213700
  C    -66.743400   14.229800  -73.230900
  H    -67.372500   13.426800  -73.664100
  H    -67.337200   15.140300  -73.296800
  H    -65.788100   14.393300  -73.688600
  S    -69.353100    7.350200  -72.507900
  C    -71.038700    7.351930  -72.948900
  C    -71.586300    8.606010  -73.171100
  C    -70.587400    9.607000  -73.099400
  C    -69.306100    9.113650  -72.859600
  H    -72.585100    8.716490  -73.457900
  C    -70.923200   11.114200  -73.376400
  H    -71.773500   11.230700  -73.987800
  H    -70.074200   11.613800  -73.827300
  C    -71.325900   11.854800  -72.057100
  H    -71.627700   12.794500  -72.343700
  H    -70.537100   12.003000  -71.390500
  C    -72.460400   11.107000  -71.413900
  H    -73.307400   11.213900  -72.108700
  H    -72.658800   11.626200  -70.479300
  H    -72.121700   10.057800  -71.140700
  H    -64.848000   11.086500  -73.658100
  H    -71.567200    6.481980  -73.125900

 Total Charge           Charge          ....    0
 Multiplicity           Mult            ....    1
 Number of Electrons    NEL             ....  134
 Basis Dimension        Dim             ....  322

ORBITAL ENERGIES
----------------

  NO   OCC          E(Eh)            E(eV)
   0   2.0000     -88.966586     -2420.9039
   1   2.0000     -88.963217     -2420.8122
   2   2.0000     -10.326310      -280.9932
   3   2.0000     -10.324948      -280.9561
   4   2.0000     -10.313151      -280.6351
   5   2.0000     -10.308727      -280.5147
   6   2.0000     -10.308121      -280.4982
   7   2.0000     -10.301872      -280.3282
   8   2.0000     -10.295126      -280.1446
   9   2.0000     -10.290892      -280.0294
  10   2.0000     -10.289889      -280.0021
  11   2.0000     -10.285042      -279.8702
  12   2.0000     -10.284190      -279.8470
  13   2.0000     -10.277286      -279.6592
  14   2.0000     -10.277000      -279.6514
  15   2.0000     -10.271546      -279.5030
  16   2.0000      -8.080893      -219.8923
  17   2.0000      -8.077989      -219.8133
  18   2.0000      -6.039285      -164.3373
  19   2.0000      -6.036516      -164.2620
  20   2.0000      -6.035643      -164.2382
  21   2.0000      -6.032292      -164.1470
  22   2.0000      -6.031628      -164.1289
  23   2.0000      -6.028901      -164.0547
  24   2.0000      -1.004001       -27.3203
  25   2.0000      -0.980969       -26.6935
  26   2.0000      -0.916764       -24.9464
  27   2.0000      -0.912522       -24.8310
  28   2.0000      -0.873617       -23.7723
  29   2.0000      -0.849026       -23.1032
  30   2.0000      -0.839653       -22.8481
  31   2.0000      -0.814804       -22.1720
  32   2.0000      -0.784462       -21.3463
  33   2.0000      -0.772896       -21.0316
  34   2.0000      -0.715236       -19.4626
  35   2.0000      -0.696588       -18.9551
  36   2.0000      -0.690859       -18.7992
  37   2.0000      -0.666049       -18.1241
  38   2.0000      -0.645754       -17.5718
  39   2.0000      -0.618322       -16.8254
  40   2.0000      -0.597810       -16.2672
  41   2.0000      -0.570910       -15.5352
  42   2.0000      -0.563402       -15.3310
  43   2.0000      -0.556251       -15.1363
  44   2.0000      -0.550052       -14.9677
  45   2.0000      -0.545537       -14.8448
  46   2.0000      -0.519766       -14.1435
  47   2.0000      -0.515773       -14.0349
  48   2.0000      -0.507474       -13.8091
  49   2.0000      -0.490900       -13.3581
  50   2.0000      -0.485950       -13.2234
  51   2.0000      -0.480573       -13.0770
  52   2.0000      -0.473768       -12.8919
  53   2.0000      -0.464799       -12.6478
  54   2.0000      -0.461492       -12.5578
  55   2.0000      -0.446196       -12.1416
  56   2.0000      -0.441496       -12.0137
  57   2.0000      -0.437678       -11.9098
  58   2.0000      -0.433091       -11.7850
  59   2.0000      -0.426376       -11.6023
  60   2.0000      -0.421684       -11.4746
  61   2.0000      -0.416494       -11.3334
  62   2.0000      -0.406915       -11.0727
  63   2.0000      -0.339540        -9.2394
  64   2.0000      -0.333144        -9.0653
  65   2.0000      -0.323860        -8.8127
  66   2.0000      -0.297139        -8.0856
  67   0.0000       0.029827         0.8116
  68   0.0000       0.062161         1.6915
  69   0.0000       0.113693         3.0937
  70   0.0000       0.122070         3.3217
  71   0.0000       0.126844         3.4516

MULLIKEN ATOMIC CHARGES
-----------------------
   0 S :    0.116980
   1 C :   -0.063084
   2 C :   -0.158437
   3 C :    0.062462
   4 C :   -0.172642
   5 H :    0.001939
   6 C :    0.103342
   7 H :    0.000457
   8 H :    0.032698
   9 C :   -0.079329
  10 H :    0.025557
  11 H :    0.031990
  12 C :   -0.053133
  13 H :    0.057476
  14 H :    0.031397
  15 H :    0.029494
  16 S :    0.112431
  17 C :   -0.059910
  18 C :   -0.018652
  19 C :   -0.030679
  20 C :   -0.185761
  21 H :    0.001290
  22 C :    0.094537
  23 H :    0.007259
  24 H :    0.035161
  25 C :   -0.021558
  26 H :    0.003121
  27 H :    0.003546
  28 C :   -0.079042
  29 H :    0.031936
  30 H :    0.028673
  31 H :    0.070432
  32 H :    0.010043
  33 H :    0.030003
Sum of atomic charges:    0.0000000

LOEWDIN ATOMIC CHARGES
----------------------
   0 S :    0.411121
   1 C :   -0.192613
   2 C :   -0.059863
   3 C :   -0.055114
   4 C :   -0.195284
   5 H :    0.025451
   6 C :   -0.035791
   7 H :    0.025305
   8 H :    0.033155
   9 C :   -0.043780
  10 H :    0.021950
  11 H :    0.026251
  12 C :   -0.060755
  13 H :    0.033033
  14 H :    0.025121
  15 H :    0.021111
  16 S :    0.391062
  17 C :   -0.165506
  18 C :   -0.064738
  19 C :   -0.039936
  20 C :   -0.197528
  21 H :    0.024869
  22 C :   -0.015516
  23 H :    0.020610
  24 H :    0.029508
  25 C :   -0.028095
  26 H :    0.012142
  27 H :    0.008984
  28 C :   -0.066347
  29 H :    0.025660
  30 H :    0.024001
  31 H :    0.039099
  32 H :    0.010432
  33 H :    0.012000

  Mayer bond orders larger than 0.100000
B(  0-S ,  1-C ) :   1.1451 B(  0-S ,  4-C ) :   1.1462 B(  1-C ,  2-C ) :   1.5935
B(  1-C , 32-H ) :   0.9786 B(  2-C ,  3-C ) :   1.2206 B(  2-C ,  6-C ) :   1.0255
B(  3-C ,  4-C ) :   1.5680 B(  3-C ,  5-H ) :   1.0034 B(  4-C , 20-C ) :   1.0660
B(  6-C ,  7-H ) :   0.9336 B(  6-C ,  8-H ) :   0.9319 B(  6-C ,  9-C ) :   1.0851
B(  9-C , 10-H ) :   0.9524 B(  9-C , 11-H ) :   0.9531 B(  9-C , 12-C ) :   1.0712
B( 12-C , 13-H ) :   0.9722 B( 12-C , 14-H ) :   0.9749 B( 12-C , 15-H ) :   0.9772
B( 16-S , 17-C ) :   1.1625 B( 16-S , 20-C ) :   1.1249 B( 17-C , 18-C ) :   1.6049
B( 17-C , 20-C ) :   0.1046 B( 17-C , 33-H ) :   0.9730 B( 18-C , 19-C ) :   1.2260
B( 18-C , 21-H ) :   1.0009 B( 19-C , 20-C ) :   1.6063 B( 19-C , 22-C ) :   1.0384
B( 22-C , 23-H ) :   0.9409 B( 22-C , 24-H ) :   0.9348 B( 22-C , 25-C ) :   1.0707
B( 25-C , 26-H ) :   0.9510 B( 25-C , 27-H ) :   0.9528 B( 25-C , 28-C ) :   1.0872
B( 28-C , 29-H ) :   0.9756 B( 28-C , 30-H ) :   0.9698 B( 28-C , 31-H ) :   0.9639

Dispersion correction           -0.015950313
FINAL SINGLE POINT ENERGY     -1339.872903836727

DIPOLE MOMENT
-------------
                                X             Y             Z
Electronic contribution:      6.91569     -26.30307      -5.93001
Nuclear contribution   :     -7.20160      26.95367       6.06344
                        -----------------------------------------
Total Dipole Moment    :     -0.28591       0.65060       0.13343
                        -----------------------------------------
Magnitude (a.u.)       :      0.72307
Magnitude (Debye)      :      1.83791

Rotational constants in cm-1:     0.019855     0.009903     0.007334
Rotational constants in MHz :   595.242546   296.891135   219.870289

                             ****ORCA TERMINATED NORMALLY****
TOTAL RUN TIME: 0 days 0 hours 0 minutes 21 seconds 940 msec
