                         Program Version 4.2.1 -  RELEASE  -
|  1> ! wB97X-D3 SP def2-SVP
|  2> %pal
|  3> nprocs 24
|  4> end
|  5>
|  6> * xyz 0 1
|  7> S 	 -56.7842 	 -54.4524 	 -79.7864
|  8> C 	 -55.8904 	 -53.4854 	 -78.681
|  9> C 	 -54.6846 	 -53.0823 	 -79.3049
| 10> C 	 -54.6319 	 -53.3585 	 -80.693
| 11> C 	 -55.8386 	 -53.9428 	 -81.151
| 12> H 	 -53.8251 	 -53.094 	 -81.4097
| 13> C 	 -53.5178 	 -52.5569 	 -78.5741
| 14> H 	 -52.6479 	 -53.0326 	 -78.9732
| 15> H 	 -53.6344 	 -52.7754 	 -77.4725
| 16> C 	 -53.3068 	 -51.0545 	 -78.6071
| 17> H 	 -52.2871 	 -50.7736 	 -78.3134
| 18> H 	 -53.3417 	 -50.7278 	 -79.6872
| 19> C 	 -54.3665 	 -50.3171 	 -77.7805
| 20> H 	 -54.1893 	 -49.2522 	 -77.8899
| 21> H 	 -55.3097 	 -50.6608 	 -78.1294
| 22> H 	 -54.2615 	 -50.6634 	 -76.7863
| 23> S 	 -55.9235 	 -56.1499 	 -82.7169
| 24> C 	 -56.7323 	 -56.002 	 -84.3064
| 25> C 	 -56.9297 	 -54.7053 	 -84.6898
| 26> C 	 -56.6044 	 -53.7657 	 -83.6616
| 27> C 	 -56.122 	 -54.405 	 -82.5206
| 28> H 	 -57.2226 	 -54.4452 	 -85.667
| 29> C 	 -56.6978 	 -52.2363 	 -83.9518
| 30> H 	 -57.1555 	 -51.973 	 -84.9596
| 31> H 	 -55.6575 	 -51.9012 	 -84.1198
| 32> C 	 -57.3419 	 -51.4004 	 -82.7558
| 33> H 	 -57.4777 	 -50.3369 	 -83.1029
| 34> H 	 -56.6746 	 -51.4019 	 -81.8585
| 35> C 	 -58.7272 	 -52.0166 	 -82.3271
| 36> H 	 -58.774 	 -53.0615 	 -81.9278
| 37> H 	 -59.4008 	 -51.9815 	 -83.18
| 38> H 	 -59.2285 	 -51.4731 	 -81.516
| 39> H 	 -56.2149 	 -53.502 	 -77.6266
| 40> H 	 -56.621 	 -56.7541 	 -85.1015
| 41> *
| 42>
| 43>                          ****END OF INPUT****

CARTESIAN COORDINATES (ANGSTROEM)
---------------------------------
  S    -56.784200  -54.452400  -79.786400
  C    -55.890400  -53.485400  -78.681000
  C    -54.684600  -53.082300  -79.304900
  C    -54.631900  -53.358500  -80.693000
  C    -55.838600  -53.942800  -81.151000
  H    -53.825100  -53.094000  -81.409700
  C    -53.517800  -52.556900  -78.574100
  H    -52.647900  -53.032600  -78.973200
  H    -53.634400  -52.775400  -77.472500
  C    -53.306800  -51.054500  -78.607100
  H    -52.287100  -50.773600  -78.313400
  H    -53.341700  -50.727800  -79.687200
  C    -54.366500  -50.317100  -77.780500
  H    -54.189300  -49.252200  -77.889900
  H    -55.309700  -50.660800  -78.129400
  H    -54.261500  -50.663400  -76.786300
  S    -55.923500  -56.149900  -82.716900
  C    -56.732300  -56.002000  -84.306400
  C    -56.929700  -54.705300  -84.689800
  C    -56.604400  -53.765700  -83.661600
  C    -56.122000  -54.405000  -82.520600
  H    -57.222600  -54.445200  -85.667000
  C    -56.697800  -52.236300  -83.951800
  H    -57.155500  -51.973000  -84.959600
  H    -55.657500  -51.901200  -84.119800
  C    -57.341900  -51.400400  -82.755800
  H    -57.477700  -50.336900  -83.102900
  H    -56.674600  -51.401900  -81.858500
  C    -58.727200  -52.016600  -82.327100
  H    -58.774000  -53.061500  -81.927800
  H    -59.400800  -51.981500  -83.180000
  H    -59.228500  -51.473100  -81.516000
  H    -56.214900  -53.502000  -77.626600
  H    -56.621000  -56.754100  -85.101500

 Total Charge           Charge          ....    0
 Multiplicity           Mult            ....    1
 Number of Electrons    NEL             ....  134
 Basis Dimension        Dim             ....  322

ORBITAL ENERGIES
----------------

  NO   OCC          E(Eh)            E(eV)
   0   2.0000     -88.967299     -2420.9233
   1   2.0000     -88.966920     -2420.9130
   2   2.0000     -10.331659      -281.1387
   3   2.0000     -10.329168      -281.0710
   4   2.0000     -10.318667      -280.7852
   5   2.0000     -10.316178      -280.7175
   6   2.0000     -10.309460      -280.5347
   7   2.0000     -10.305830      -280.4359
   8   2.0000     -10.303909      -280.3836
   9   2.0000     -10.300542      -280.2920
  10   2.0000     -10.297292      -280.2036
  11   2.0000     -10.291111      -280.0354
  12   2.0000     -10.286702      -279.9154
  13   2.0000     -10.284536      -279.8565
  14   2.0000     -10.273265      -279.5498
  15   2.0000     -10.268745      -279.4267
  16   2.0000      -8.082541      -219.9371
  17   2.0000      -8.080839      -219.8908
  18   2.0000      -6.040876      -164.3806
  19   2.0000      -6.039391      -164.3402
  20   2.0000      -6.036854      -164.2712
  21   2.0000      -6.035658      -164.2386
  22   2.0000      -6.033565      -164.1816
  23   2.0000      -6.031393      -164.1225
  24   2.0000      -1.006383       -27.3851
  25   2.0000      -0.982701       -26.7407
  26   2.0000      -0.917743       -24.9730
  27   2.0000      -0.890292       -24.2261
  28   2.0000      -0.868059       -23.6211
  29   2.0000      -0.851154       -23.1611
  30   2.0000      -0.836810       -22.7708
  31   2.0000      -0.810443       -22.0533
  32   2.0000      -0.780813       -21.2470
  33   2.0000      -0.768046       -20.8996
  34   2.0000      -0.706307       -19.2196
  35   2.0000      -0.694231       -18.8910
  36   2.0000      -0.681020       -18.5315
  37   2.0000      -0.660587       -17.9755
  38   2.0000      -0.644093       -17.5267
  39   2.0000      -0.617270       -16.7968
  40   2.0000      -0.587480       -15.9862
  41   2.0000      -0.569830       -15.5059
  42   2.0000      -0.556243       -15.1361
  43   2.0000      -0.543197       -14.7811
  44   2.0000      -0.539812       -14.6890
  45   2.0000      -0.532256       -14.4834
  46   2.0000      -0.519086       -14.1251
  47   2.0000      -0.503525       -13.7016
  48   2.0000      -0.500466       -13.6184
  49   2.0000      -0.487721       -13.2716
  50   2.0000      -0.485854       -13.2208
  51   2.0000      -0.474327       -12.9071
  52   2.0000      -0.469927       -12.7874
  53   2.0000      -0.463822       -12.6212
  54   2.0000      -0.456192       -12.4136
  55   2.0000      -0.449144       -12.2218
  56   2.0000      -0.442204       -12.0330
  57   2.0000      -0.435697       -11.8559
  58   2.0000      -0.430797       -11.7226
  59   2.0000      -0.419839       -11.4244
  60   2.0000      -0.416231       -11.3262
  61   2.0000      -0.414873       -11.2893
  62   2.0000      -0.411514       -11.1979
  63   2.0000      -0.339722        -9.2443
  64   2.0000      -0.329197        -8.9579
  65   2.0000      -0.323683        -8.8079
  66   2.0000      -0.299197        -8.1416
  67   0.0000       0.034685         0.9438
  68   0.0000       0.046431         1.2634
  69   0.0000       0.102269         2.7829
  70   0.0000       0.107132         2.9152
  71   0.0000       0.135307         3.6819

MULLIKEN ATOMIC CHARGES
-----------------------
   0 S :    0.127184
   1 C :   -0.139133
   2 C :   -0.085785
   3 C :    0.028890
   4 C :   -0.171510
   5 H :    0.034935
   6 C :    0.063594
   7 H :    0.025037
   8 H :    0.021410
   9 C :   -0.097277
  10 H :    0.024531
  11 H :    0.019229
  12 C :   -0.003867
  13 H :    0.042988
  14 H :    0.025303
  15 H :    0.011976
  16 S :    0.103396
  17 C :   -0.080747
  18 C :   -0.033247
  19 C :    0.000767
  20 C :   -0.203483
  21 H :    0.003232
  22 C :    0.035552
  23 H :    0.032842
  24 H :    0.043966
  25 C :   -0.093848
  26 H :    0.043416
  27 H :    0.059655
  28 C :   -0.071609
  29 H :    0.044570
  30 H :    0.022864
  31 H :    0.030537
  32 H :    0.069822
  33 H :    0.064808
Sum of atomic charges:   -0.0000000

LOEWDIN ATOMIC CHARGES
----------------------
   0 S :    0.440139
   1 C :   -0.217681
   2 C :   -0.066497
   3 C :   -0.063316
   4 C :   -0.207925
   5 H :    0.041046
   6 C :   -0.036612
   7 H :    0.031202
   8 H :    0.032942
   9 C :   -0.043221
  10 H :    0.019692
  11 H :    0.021062
  12 C :   -0.054937
  13 H :    0.029367
  14 H :    0.021225
  15 H :    0.017500
  16 S :    0.386205
  17 C :   -0.181805
  18 C :   -0.060014
  19 C :   -0.048939
  20 C :   -0.196960
  21 H :    0.025102
  22 C :   -0.036761
  23 H :    0.034897
  24 H :    0.035605
  25 C :   -0.044020
  26 H :    0.030869
  27 H :    0.030322
  28 C :   -0.079413
  29 H :    0.028479
  30 H :    0.020285
  31 H :    0.025505
  32 H :    0.034144
  33 H :    0.032512

  Mayer bond orders larger than 0.100000
B(  0-S ,  1-C ) :   1.1689 B(  0-S ,  4-C ) :   1.1921 B(  1-C ,  2-C ) :   1.5218
B(  1-C ,  4-C ) :   0.1094 B(  1-C , 32-H ) :   0.9727 B(  2-C ,  3-C ) :   1.2849
B(  2-C ,  6-C ) :   1.0398 B(  3-C ,  4-C ) :   1.5209 B(  3-C ,  5-H ) :   0.9899
B(  4-C , 20-C ) :   1.0113 B(  6-C ,  7-H ) :   0.9340 B(  6-C ,  8-H ) :   0.9424
B(  6-C ,  9-C ) :   1.0743 B(  9-C , 10-H ) :   0.9562 B(  9-C , 11-H ) :   0.9540
B(  9-C , 12-C ) :   1.0685 B( 12-C , 13-H ) :   0.9736 B( 12-C , 14-H ) :   0.9749
B( 12-C , 15-H ) :   0.9735 B( 16-S , 17-C ) :   1.1272 B( 16-S , 20-C ) :   1.1541
B( 17-C , 18-C ) :   1.6425 B( 17-C , 33-H ) :   0.9541 B( 18-C , 19-C ) :   1.2357
B( 18-C , 21-H ) :   0.9902 B( 19-C , 20-C ) :   1.6124 B( 19-C , 22-C ) :   1.0120
B( 22-C , 23-H ) :   0.9474 B( 22-C , 24-H ) :   0.9418 B( 22-C , 25-C ) :   1.0568
B( 25-C , 26-H ) :   0.9576 B( 25-C , 27-H ) :   0.9529 B( 25-C , 28-C ) :   1.0675
B( 28-C , 29-H ) :   0.9695 B( 28-C , 30-H ) :   0.9782 B( 28-C , 31-H ) :   0.9768

Dispersion correction           -0.015865435
FINAL SINGLE POINT ENERGY     -1339.869470117802

DIPOLE MOMENT
-------------
                                X             Y             Z
Electronic contribution:     -2.61578     -23.98882      -5.53430
Nuclear contribution   :      2.98810      24.40683       5.38134
                        -----------------------------------------
Total Dipole Moment    :      0.37232       0.41801      -0.15296
                        -----------------------------------------
Magnitude (a.u.)       :      0.58030
Magnitude (Debye)      :      1.47502

Rotational constants in cm-1:     0.022203     0.008814     0.007666
Rotational constants in MHz :   665.627890   264.241009   229.829449

                             ****ORCA TERMINATED NORMALLY****
TOTAL RUN TIME: 0 days 0 hours 0 minutes 21 seconds 406 msec
