                         Program Version 4.2.1 -  RELEASE  -
|  1> ! wB97X-D3 SP def2-SVP
|  2> %pal
|  3> nprocs 24
|  4> end
|  5>
|  6> * xyz 0 1
|  7> S 	 18.1785 	 -8.95878 	 -116.889
|  8> C 	 19.2434 	 -9.6926 	 -115.73
|  9> C 	 20.3053 	 -8.91513 	 -115.431
| 10> C 	 20.2659 	 -7.68117 	 -116.111
| 11> C 	 19.2348 	 -7.59988 	 -117.058
| 12> H 	 20.9662 	 -6.78608 	 -116.071
| 13> C 	 21.3191 	 -9.25285 	 -114.347
| 14> H 	 21.211 	 -10.2847 	 -114.039
| 15> H 	 21.2805 	 -8.51489 	 -113.484
| 16> C 	 22.7524 	 -9.2132 	 -114.791
| 17> H 	 23.1009 	 -10.1168 	 -115.32
| 18> H 	 22.8996 	 -8.41052 	 -115.487
| 19> C 	 23.7524 	 -9.16517 	 -113.613
| 20> H 	 23.7098 	 -10.102 	 -113.112
| 21> H 	 24.7546 	 -9.11402 	 -114.009
| 22> H 	 23.548 	 -8.33078 	 -112.931
| 23> S 	 20.1477 	 -6.79903 	 -119.53
| 24> C 	 19.7096 	 -5.26923 	 -120.169
| 25> C 	 18.7647 	 -4.64315 	 -119.381
| 26> C 	 18.3081 	 -5.46059 	 -118.277
| 27> C 	 19.0814 	 -6.63356 	 -118.127
| 28> H 	 18.4532 	 -3.69381 	 -119.713
| 29> C 	 17.2182 	 -5.03676 	 -117.362
| 30> H 	 16.8296 	 -6.02343 	 -117.121
| 31> H 	 16.4196 	 -4.62621 	 -117.997
| 32> C 	 17.6989 	 -4.22136 	 -116.171
| 33> H 	 18.5801 	 -3.76412 	 -116.472
| 34> H 	 18.1288 	 -4.94453 	 -115.444
| 35> C 	 16.6703 	 -3.22247 	 -115.6
| 36> H 	 15.6969 	 -3.66086 	 -115.314
| 37> H 	 16.5455 	 -2.48646 	 -116.352
| 38> H 	 17.2279 	 -2.78096 	 -114.691
| 39> H 	 19.1914 	 -10.7492 	 -115.411
| 40> H 	 20.1607 	 -4.82425 	 -121.02
| 41> *
| 42>
| 43>                          ****END OF INPUT****

CARTESIAN COORDINATES (ANGSTROEM)
---------------------------------
  S     18.178500   -8.958780  -116.889000
  C     19.243400   -9.692600  -115.730000
  C     20.305300   -8.915130  -115.431000
  C     20.265900   -7.681170  -116.111000
  C     19.234800   -7.599880  -117.058000
  H     20.966200   -6.786080  -116.071000
  C     21.319100   -9.252850  -114.347000
  H     21.211000  -10.284700  -114.039000
  H     21.280500   -8.514890  -113.484000
  C     22.752400   -9.213200  -114.791000
  H     23.100900  -10.116800  -115.320000
  H     22.899600   -8.410520  -115.487000
  C     23.752400   -9.165170  -113.613000
  H     23.709800  -10.102000  -113.112000
  H     24.754600   -9.114020  -114.009000
  H     23.548000   -8.330780  -112.931000
  S     20.147700   -6.799030  -119.530000
  C     19.709600   -5.269230  -120.169000
  C     18.764700   -4.643150  -119.381000
  C     18.308100   -5.460590  -118.277000
  C     19.081400   -6.633560  -118.127000
  H     18.453200   -3.693810  -119.713000
  C     17.218200   -5.036760  -117.362000
  H     16.829600   -6.023430  -117.121000
  H     16.419600   -4.626210  -117.997000
  C     17.698900   -4.221360  -116.171000
  H     18.580100   -3.764120  -116.472000
  H     18.128800   -4.944530  -115.444000
  C     16.670300   -3.222470  -115.600000
  H     15.696900   -3.660860  -115.314000
  H     16.545500   -2.486460  -116.352000
  H     17.227900   -2.780960  -114.691000
  H     19.191400  -10.749200  -115.411000
  H     20.160700   -4.824250  -121.020000

 Total Charge           Charge          ....    0
 Multiplicity           Mult            ....    1
 Number of Electrons    NEL             ....  134
 Basis Dimension        Dim             ....  322

ORBITAL ENERGIES
----------------

  NO   OCC          E(Eh)            E(eV)
   0   2.0000     -88.966482     -2420.9010
   1   2.0000     -88.961709     -2420.7712
   2   2.0000     -10.328399      -281.0500
   3   2.0000     -10.325701      -280.9766
   4   2.0000     -10.312135      -280.6074
   5   2.0000     -10.311751      -280.5970
   6   2.0000     -10.305428      -280.4250
   7   2.0000     -10.300650      -280.2949
   8   2.0000     -10.297961      -280.2218
   9   2.0000     -10.294325      -280.1228
  10   2.0000     -10.289312      -279.9864
  11   2.0000     -10.284437      -279.8538
  12   2.0000     -10.282966      -279.8137
  13   2.0000     -10.280090      -279.7355
  14   2.0000     -10.279274      -279.7133
  15   2.0000     -10.274667      -279.5879
  16   2.0000      -8.081737      -219.9153
  17   2.0000      -8.076834      -219.7818
  18   2.0000      -6.040055      -164.3583
  19   2.0000      -6.036107      -164.2508
  20   2.0000      -6.035278      -164.2283
  21   2.0000      -6.032735      -164.1591
  22   2.0000      -6.031099      -164.1146
  23   2.0000      -6.027825      -164.0254
  24   2.0000      -1.009370       -27.4664
  25   2.0000      -0.986778       -26.8516
  26   2.0000      -0.916395       -24.9364
  27   2.0000      -0.911607       -24.8061
  28   2.0000      -0.872391       -23.7390
  29   2.0000      -0.848722       -23.0949
  30   2.0000      -0.847824       -23.0705
  31   2.0000      -0.814117       -22.1532
  32   2.0000      -0.784612       -21.3504
  33   2.0000      -0.770455       -20.9652
  34   2.0000      -0.711664       -19.3654
  35   2.0000      -0.700233       -19.0543
  36   2.0000      -0.687607       -18.7107
  37   2.0000      -0.660037       -17.9605
  38   2.0000      -0.641511       -17.4564
  39   2.0000      -0.619672       -16.8621
  40   2.0000      -0.592073       -16.1111
  41   2.0000      -0.576076       -15.6758
  42   2.0000      -0.567995       -15.4559
  43   2.0000      -0.556544       -15.1443
  44   2.0000      -0.529130       -14.3983
  45   2.0000      -0.523292       -14.2395
  46   2.0000      -0.516740       -14.0612
  47   2.0000      -0.513259       -13.9665
  48   2.0000      -0.508171       -13.8280
  49   2.0000      -0.502256       -13.6671
  50   2.0000      -0.491512       -13.3747
  51   2.0000      -0.478588       -13.0231
  52   2.0000      -0.470313       -12.7979
  53   2.0000      -0.467132       -12.7113
  54   2.0000      -0.460072       -12.5192
  55   2.0000      -0.449262       -12.2250
  56   2.0000      -0.446648       -12.1539
  57   2.0000      -0.437368       -11.9014
  58   2.0000      -0.434278       -11.8173
  59   2.0000      -0.424027       -11.5383
  60   2.0000      -0.417057       -11.3487
  61   2.0000      -0.412563       -11.2264
  62   2.0000      -0.406421       -11.0593
  63   2.0000      -0.336427        -9.1546
  64   2.0000      -0.326613        -8.8876
  65   2.0000      -0.323966        -8.8156
  66   2.0000      -0.306176        -8.3315
  67   0.0000       0.041719         1.1352
  68   0.0000       0.052930         1.4403
  69   0.0000       0.113022         3.0755
  70   0.0000       0.121313         3.3011
  71   0.0000       0.132488         3.6052

MULLIKEN ATOMIC CHARGES
-----------------------
   0 S :    0.126191
   1 C :   -0.134486
   2 C :   -0.058320
   3 C :    0.023625
   4 C :   -0.201805
   5 H :    0.042726
   6 C :    0.086666
   7 H :    0.012475
   8 H :    0.046690
   9 C :   -0.117918
  10 H :    0.026449
  11 H :    0.022913
  12 C :   -0.033525
  13 H :    0.021802
  14 H :    0.030085
  15 H :    0.033897
  16 S :    0.116337
  17 C :   -0.082767
  18 C :   -0.024613
  19 C :   -0.066532
  20 C :   -0.180190
  21 H :   -0.001920
  22 C :    0.090857
  23 H :    0.010755
  24 H :    0.024230
  25 C :   -0.033933
  26 H :    0.008451
  27 H :    0.027858
  28 C :   -0.046630
  29 H :    0.047894
  30 H :    0.031317
  31 H :    0.046736
  32 H :    0.057533
  33 H :    0.047152
Sum of atomic charges:   -0.0000000

LOEWDIN ATOMIC CHARGES
----------------------
   0 S :    0.423881
   1 C :   -0.201745
   2 C :   -0.072895
   3 C :   -0.063248
   4 C :   -0.212442
   5 H :    0.044459
   6 C :   -0.029479
   7 H :    0.029172
   8 H :    0.041249
   9 C :   -0.046579
  10 H :    0.026258
  11 H :    0.014658
  12 C :   -0.059161
  13 H :    0.020253
  14 H :    0.026728
  15 H :    0.022315
  16 S :    0.416565
  17 C :   -0.187002
  18 C :   -0.074018
  19 C :   -0.043919
  20 C :   -0.212047
  21 H :    0.023227
  22 C :   -0.041021
  23 H :    0.028655
  24 H :    0.032510
  25 C :   -0.040525
  26 H :    0.014984
  27 H :    0.031710
  28 C :   -0.061251
  29 H :    0.029250
  30 H :    0.019442
  31 H :    0.039706
  32 H :    0.036123
  33 H :    0.024186

  Mayer bond orders larger than 0.100000
B(  0-S ,  1-C ) :   1.1458 B(  0-S ,  4-C ) :   1.1689 B(  1-C ,  2-C ) :   1.6271
B(  1-C , 32-H ) :   0.9589 B(  2-C ,  3-C ) :   1.2315 B(  2-C ,  6-C ) :   1.0273
B(  3-C ,  4-C ) :   1.5768 B(  3-C ,  5-H ) :   0.9831 B(  4-C , 20-C ) :   1.0280
B(  6-C ,  7-H ) :   0.9381 B(  6-C ,  8-H ) :   0.9458 B(  6-C ,  9-C ) :   1.0500
B(  9-C , 10-H ) :   0.9539 B(  9-C , 11-H ) :   0.9632 B(  9-C , 12-C ) :   1.0832
B( 12-C , 13-H ) :   0.9750 B( 12-C , 14-H ) :   0.9733 B( 12-C , 15-H ) :   0.9758
B( 16-S , 17-C ) :   1.1739 B( 16-S , 20-C ) :   1.1434 B( 17-C , 18-C ) :   1.6027
B( 17-C , 33-H ) :   0.9701 B( 18-C , 19-C ) :   1.2277 B( 18-C , 21-H ) :   1.0016
B( 19-C , 20-C ) :   1.5761 B( 19-C , 22-C ) :   1.0440 B( 22-C , 23-H ) :   0.9190
B( 22-C , 24-H ) :   0.9383 B( 22-C , 25-C ) :   1.0409 B( 25-C , 26-H ) :   0.9612
B( 25-C , 27-H ) :   0.9447 B( 25-C , 28-C ) :   1.0706 B( 28-C , 29-H ) :   0.9771
B( 28-C , 30-H ) :   0.9782 B( 28-C , 31-H ) :   0.9735

Dispersion correction           -0.013997868
FINAL SINGLE POINT ENERGY     -1339.869056360136

DIPOLE MOMENT
-------------
                                X             Y             Z
Electronic contribution:     -6.86816      -7.88247     -19.48854
Nuclear contribution   :      7.10822       8.13669      19.73439
                        -----------------------------------------
Total Dipole Moment    :      0.24006       0.25422       0.24585
                        -----------------------------------------
Magnitude (a.u.)       :      0.42743
Magnitude (Debye)      :      1.08644

Rotational constants in cm-1:     0.017971     0.007712     0.006972
Rotational constants in MHz :   538.765531   231.209406   209.012441

                             ****ORCA TERMINATED NORMALLY****
TOTAL RUN TIME: 0 days 0 hours 0 minutes 21 seconds 187 msec
