                         Program Version 4.2.1 -  RELEASE  -
|  1> ! wB97X-D3 SP def2-SVP
|  2> %pal
|  3> nprocs 24
|  4> end
|  5>
|  6> * xyz 0 1
|  7> S 	 -106.335 	 60.4629 	 -17.5002
|  8> C 	 -107.15 	 61.8814 	 -16.9204
|  9> C 	 -108.548 	 61.7375 	 -16.8475
| 10> C 	 -108.931 	 60.3567 	 -17.0754
| 11> C 	 -107.853 	 59.5662 	 -17.4317
| 12> H 	 -109.841 	 59.8061 	 -16.887
| 13> C 	 -109.625 	 62.7169 	 -16.4111
| 14> H 	 -110.596 	 62.5752 	 -16.8278
| 15> H 	 -109.219 	 63.6901 	 -16.6963
| 16> C 	 -109.694 	 62.849 	 -14.9446
| 17> H 	 -109.945 	 61.8369 	 -14.6619
| 18> H 	 -108.69 	 63.0042 	 -14.4358
| 19> C 	 -110.594 	 63.9406 	 -14.3023
| 20> H 	 -111.585 	 63.6366 	 -14.5966
| 21> H 	 -110.673 	 63.9784 	 -13.2341
| 22> H 	 -110.478 	 64.9502 	 -14.6033
| 23> S 	 -108.761 	 57.3256 	 -18.5181
| 24> C 	 -108.184 	 55.7285 	 -17.8666
| 25> C 	 -107.51 	 55.9059 	 -16.7043
| 26> C 	 -107.271 	 57.2945 	 -16.363
| 27> C 	 -107.853 	 58.1418 	 -17.31
| 28> H 	 -107.12 	 55.1061 	 -16.0767
| 29> C 	 -106.489 	 57.6733 	 -15.0669
| 30> H 	 -106.78 	 57.1977 	 -14.1544
| 31> H 	 -106.723 	 58.7567 	 -14.938
| 32> C 	 -105.005 	 57.5672 	 -15.2117
| 33> H 	 -104.707 	 58.0402 	 -16.183
| 34> H 	 -104.722 	 56.4557 	 -15.2795
| 35> C 	 -104.227 	 58.0944 	 -14.0088
| 36> H 	 -104.485 	 59.0879 	 -13.7648
| 37> H 	 -103.185 	 58.1679 	 -14.2908
| 38> H 	 -104.315 	 57.5614 	 -13.1027
| 39> H 	 -106.664 	 62.8421 	 -16.6716
| 40> H 	 -108.312 	 54.7676 	 -18.383
| 41> *
| 42>
| 43>                          ****END OF INPUT****

CARTESIAN COORDINATES (ANGSTROEM)
---------------------------------
  S    -106.335000   60.462900  -17.500200
  C    -107.150000   61.881400  -16.920400
  C    -108.548000   61.737500  -16.847500
  C    -108.931000   60.356700  -17.075400
  C    -107.853000   59.566200  -17.431700
  H    -109.841000   59.806100  -16.887000
  C    -109.625000   62.716900  -16.411100
  H    -110.596000   62.575200  -16.827800
  H    -109.219000   63.690100  -16.696300
  C    -109.694000   62.849000  -14.944600
  H    -109.945000   61.836900  -14.661900
  H    -108.690000   63.004200  -14.435800
  C    -110.594000   63.940600  -14.302300
  H    -111.585000   63.636600  -14.596600
  H    -110.673000   63.978400  -13.234100
  H    -110.478000   64.950200  -14.603300
  S    -108.761000   57.325600  -18.518100
  C    -108.184000   55.728500  -17.866600
  C    -107.510000   55.905900  -16.704300
  C    -107.271000   57.294500  -16.363000
  C    -107.853000   58.141800  -17.310000
  H    -107.120000   55.106100  -16.076700
  C    -106.489000   57.673300  -15.066900
  H    -106.780000   57.197700  -14.154400
  H    -106.723000   58.756700  -14.938000
  C    -105.005000   57.567200  -15.211700
  H    -104.707000   58.040200  -16.183000
  H    -104.722000   56.455700  -15.279500
  C    -104.227000   58.094400  -14.008800
  H    -104.485000   59.087900  -13.764800
  H    -103.185000   58.167900  -14.290800
  H    -104.315000   57.561400  -13.102700
  H    -106.664000   62.842100  -16.671600
  H    -108.312000   54.767600  -18.383000

 Total Charge           Charge          ....    0
 Multiplicity           Mult            ....    1
 Number of Electrons    NEL             ....  134
 Basis Dimension        Dim             ....  322

ORBITAL ENERGIES
----------------

  NO   OCC          E(Eh)            E(eV)
   0   2.0000     -88.972842     -2421.0741
   1   2.0000     -88.963881     -2420.8303
   2   2.0000     -10.323845      -280.9261
   3   2.0000     -10.323033      -280.9040
   4   2.0000     -10.321979      -280.8753
   5   2.0000     -10.318867      -280.7907
   6   2.0000     -10.310670      -280.5676
   7   2.0000     -10.305154      -280.4175
   8   2.0000     -10.296622      -280.1853
   9   2.0000     -10.293623      -280.1037
  10   2.0000     -10.289699      -279.9969
  11   2.0000     -10.289073      -279.9799
  12   2.0000     -10.287274      -279.9310
  13   2.0000     -10.286692      -279.9151
  14   2.0000     -10.274838      -279.5926
  15   2.0000     -10.266568      -279.3675
  16   2.0000      -8.086966      -220.0575
  17   2.0000      -8.078361      -219.8234
  18   2.0000      -6.045444      -164.5049
  19   2.0000      -6.041615      -164.4007
  20   2.0000      -6.037732      -164.2950
  21   2.0000      -6.036984      -164.2747
  22   2.0000      -6.032960      -164.1652
  23   2.0000      -6.028950      -164.0561
  24   2.0000      -1.007003       -27.4020
  25   2.0000      -0.979584       -26.6558
  26   2.0000      -0.920291       -25.0424
  27   2.0000      -0.907835       -24.7034
  28   2.0000      -0.873612       -23.7722
  29   2.0000      -0.851270       -23.1642
  30   2.0000      -0.842721       -22.9316
  31   2.0000      -0.814445       -22.1622
  32   2.0000      -0.788782       -21.4638
  33   2.0000      -0.771930       -21.0053
  34   2.0000      -0.701335       -19.0843
  35   2.0000      -0.699694       -19.0397
  36   2.0000      -0.686835       -18.6897
  37   2.0000      -0.664491       -18.0817
  38   2.0000      -0.645337       -17.5605
  39   2.0000      -0.614838       -16.7306
  40   2.0000      -0.596530       -16.2324
  41   2.0000      -0.578786       -15.7496
  42   2.0000      -0.565094       -15.3770
  43   2.0000      -0.554775       -15.0962
  44   2.0000      -0.524374       -14.2690
  45   2.0000      -0.520623       -14.1669
  46   2.0000      -0.516369       -14.0511
  47   2.0000      -0.511315       -13.9136
  48   2.0000      -0.510054       -13.8793
  49   2.0000      -0.506712       -13.7883
  50   2.0000      -0.494192       -13.4476
  51   2.0000      -0.481654       -13.1065
  52   2.0000      -0.476217       -12.9585
  53   2.0000      -0.466172       -12.6852
  54   2.0000      -0.458183       -12.4678
  55   2.0000      -0.449290       -12.2258
  56   2.0000      -0.442313       -12.0359
  57   2.0000      -0.439606       -11.9623
  58   2.0000      -0.433127       -11.7860
  59   2.0000      -0.423511       -11.5243
  60   2.0000      -0.416970       -11.3463
  61   2.0000      -0.406354       -11.0575
  62   2.0000      -0.402793       -10.9606
  63   2.0000      -0.347374        -9.4525
  64   2.0000      -0.336891        -9.1673
  65   2.0000      -0.319475        -8.6934
  66   2.0000      -0.295224        -8.0335
  67   0.0000       0.033137         0.9017
  68   0.0000       0.062940         1.7127
  69   0.0000       0.102835         2.7983
  70   0.0000       0.109291         2.9740
  71   0.0000       0.124884         3.3983

MULLIKEN ATOMIC CHARGES
-----------------------
   0 S :    0.129788
   1 C :   -0.136471
   2 C :   -0.089512
   3 C :    0.037685
   4 C :   -0.166082
   5 H :    0.023777
   6 C :    0.124722
   7 H :    0.027920
   8 H :    0.008480
   9 C :   -0.108090
  10 H :    0.009027
  11 H :    0.030265
  12 C :   -0.002917
  13 H :    0.009493
  14 H :    0.029830
  15 H :    0.025685
  16 S :    0.098345
  17 C :   -0.102091
  18 C :   -0.009724
  19 C :   -0.027664
  20 C :   -0.198107
  21 H :    0.022336
  22 C :    0.079773
  23 H :    0.020536
  24 H :    0.025791
  25 C :   -0.111473
  26 H :    0.032525
  27 H :    0.029104
  28 C :    0.003082
  29 H :    0.007775
  30 H :    0.029815
  31 H :    0.022763
  32 H :    0.057995
  33 H :    0.065619
Sum of atomic charges:   -0.0000000

LOEWDIN ATOMIC CHARGES
----------------------
   0 S :    0.418506
   1 C :   -0.205427
   2 C :   -0.051586
   3 C :   -0.053483
   4 C :   -0.203027
   5 H :    0.034016
   6 C :   -0.029801
   7 H :    0.029676
   8 H :    0.030182
   9 C :   -0.046361
  10 H :    0.018628
  11 H :    0.027283
  12 C :   -0.064926
  13 H :    0.022469
  14 H :    0.027876
  15 H :    0.020900
  16 S :    0.391928
  17 C :   -0.172148
  18 C :   -0.065093
  19 C :   -0.054731
  20 C :   -0.209583
  21 H :    0.033951
  22 C :   -0.034505
  23 H :    0.025893
  24 H :    0.031852
  25 C :   -0.046820
  26 H :    0.023821
  27 H :    0.026200
  28 C :   -0.061735
  29 H :    0.017690
  30 H :    0.030616
  31 H :    0.020079
  32 H :    0.033549
  33 H :    0.034113

  Mayer bond orders larger than 0.100000
B(  0-S ,  1-C ) :   1.1462 B(  0-S ,  4-C ) :   1.1378 B(  1-C ,  2-C ) :   1.6198
B(  1-C , 32-H ) :   0.9609 B(  2-C ,  3-C ) :   1.2144 B(  2-C ,  6-C ) :   1.0336
B(  3-C ,  4-C ) :   1.6109 B(  3-C ,  5-H ) :   0.9826 B(  4-C , 20-C ) :   1.0061
B(  6-C ,  7-H ) :   0.9443 B(  6-C ,  8-H ) :   0.9238 B(  6-C ,  9-C ) :   1.0612
B(  9-C , 10-H ) :   0.9548 B(  9-C , 11-H ) :   0.9580 B(  9-C , 12-C ) :   1.0668
B( 12-C , 13-H ) :   0.9711 B( 12-C , 14-H ) :   0.9744 B( 12-C , 15-H ) :   0.9769
B( 16-S , 17-C ) :   1.1164 B( 16-S , 20-C ) :   1.1510 B( 17-C , 18-C ) :   1.6393
B( 17-C , 33-H ) :   0.9682 B( 18-C , 19-C ) :   1.2171 B( 18-C , 21-H ) :   0.9850
B( 19-C , 20-C ) :   1.6133 B( 19-C , 22-C ) :   1.0332 B( 22-C , 23-H ) :   0.9424
B( 22-C , 24-H ) :   0.9298 B( 22-C , 25-C ) :   1.0700 B( 25-C , 26-H ) :   0.9491
B( 25-C , 27-H ) :   0.9529 B( 25-C , 28-C ) :   1.0846 B( 28-C , 29-H ) :   0.9705
B( 28-C , 30-H ) :   0.9715 B( 28-C , 31-H ) :   0.9724

Dispersion correction           -0.014517188
FINAL SINGLE POINT ENERGY     -1339.858038671881

DIPOLE MOMENT
-------------
                                X             Y             Z
Electronic contribution:     -0.79893     -11.23309     -21.65561
Nuclear contribution   :      0.73901      11.38457      22.26405
                        -----------------------------------------
Total Dipole Moment    :     -0.05992       0.15148       0.60844
                        -----------------------------------------
Magnitude (a.u.)       :      0.62987
Magnitude (Debye)      :      1.60099

Rotational constants in cm-1:     0.017936     0.008379     0.006950
Rotational constants in MHz :   537.717484   251.185551   208.351245

                             ****ORCA TERMINATED NORMALLY****
TOTAL RUN TIME: 0 days 0 hours 0 minutes 20 seconds 301 msec
