                         Program Version 4.2.1 -  RELEASE  -
|  1> ! wB97X-D3 SP def2-SVP
|  2> %pal
|  3> nprocs 24
|  4> end
|  5>
|  6> * xyz 0 1
|  7> S 	 -55.4326 	 11.9054 	 -93.7748
|  8> C 	 -53.8152 	 11.5441 	 -94.0622
|  9> C 	 -52.9963 	 12.5917 	 -93.6666
| 10> C 	 -53.751 	 13.6756 	 -93.1063
| 11> C 	 -55.1067 	 13.4828 	 -92.9897
| 12> H 	 -53.3113 	 14.5799 	 -92.6895
| 13> C 	 -51.4657 	 12.5383 	 -93.7852
| 14> H 	 -51.1935 	 12.1577 	 -94.7941
| 15> H 	 -51.1599 	 11.8268 	 -93.0665
| 16> C 	 -50.6008 	 13.7971 	 -93.5388
| 17> H 	 -50.9096 	 14.5792 	 -94.1792
| 18> H 	 -50.715 	 14.1898 	 -92.4756
| 19> C 	 -49.1501 	 13.4553 	 -93.763
| 20> H 	 -48.9528 	 13.1704 	 -94.78
| 21> H 	 -48.5517 	 14.3422 	 -93.3933
| 22> H 	 -48.9223 	 12.6827 	 -93.0001
| 23> S 	 -56.9585 	 13.0556 	 -90.9817
| 24> C 	 -57.9017 	 14.3181 	 -90.2757
| 25> C 	 -57.4778 	 15.51 	 -90.8326
| 26> C 	 -56.3693 	 15.3957 	 -91.7101
| 27> C 	 -56.0586 	 14.1296 	 -92.0526
| 28> H 	 -58.0123 	 16.3977 	 -90.4703
| 29> C 	 -55.7955 	 16.6414 	 -92.4454
| 30> H 	 -56.6398 	 17.0781 	 -93.0336
| 31> H 	 -54.9833 	 16.3164 	 -93.1305
| 32> C 	 -55.171 	 17.8041 	 -91.5357
| 33> H 	 -54.3091 	 17.366 	 -91.033
| 34> H 	 -55.8536 	 18.1955 	 -90.7689
| 35> C 	 -54.7215 	 18.8946 	 -92.443
| 36> H 	 -55.6136 	 19.5409 	 -92.8321
| 37> H 	 -54.175 	 18.4412 	 -93.328
| 38> H 	 -54.1933 	 19.6396 	 -91.9029
| 39> H 	 -53.5028 	 10.7007 	 -94.5162
| 40> H 	 -58.7877 	 14.3278 	 -89.5679
| 41> *
| 42>
| 43>                          ****END OF INPUT****

CARTESIAN COORDINATES (ANGSTROEM)
---------------------------------
  S    -55.432600   11.905400  -93.774800
  C    -53.815200   11.544100  -94.062200
  C    -52.996300   12.591700  -93.666600
  C    -53.751000   13.675600  -93.106300
  C    -55.106700   13.482800  -92.989700
  H    -53.311300   14.579900  -92.689500
  C    -51.465700   12.538300  -93.785200
  H    -51.193500   12.157700  -94.794100
  H    -51.159900   11.826800  -93.066500
  C    -50.600800   13.797100  -93.538800
  H    -50.909600   14.579200  -94.179200
  H    -50.715000   14.189800  -92.475600
  C    -49.150100   13.455300  -93.763000
  H    -48.952800   13.170400  -94.780000
  H    -48.551700   14.342200  -93.393300
  H    -48.922300   12.682700  -93.000100
  S    -56.958500   13.055600  -90.981700
  C    -57.901700   14.318100  -90.275700
  C    -57.477800   15.510000  -90.832600
  C    -56.369300   15.395700  -91.710100
  C    -56.058600   14.129600  -92.052600
  H    -58.012300   16.397700  -90.470300
  C    -55.795500   16.641400  -92.445400
  H    -56.639800   17.078100  -93.033600
  H    -54.983300   16.316400  -93.130500
  C    -55.171000   17.804100  -91.535700
  H    -54.309100   17.366000  -91.033000
  H    -55.853600   18.195500  -90.768900
  C    -54.721500   18.894600  -92.443000
  H    -55.613600   19.540900  -92.832100
  H    -54.175000   18.441200  -93.328000
  H    -54.193300   19.639600  -91.902900
  H    -53.502800   10.700700  -94.516200
  H    -58.787700   14.327800  -89.567900

 Total Charge           Charge          ....    0
 Multiplicity           Mult            ....    1
 Number of Electrons    NEL             ....  134
 Basis Dimension        Dim             ....  322

ORBITAL ENERGIES
----------------

  NO   OCC          E(Eh)            E(eV)
   0   2.0000     -88.964847     -2420.8566
   1   2.0000     -88.960945     -2420.7504
   2   2.0000     -10.335025      -281.2303
   3   2.0000     -10.329045      -281.0676
   4   2.0000     -10.318247      -280.7738
   5   2.0000     -10.306587      -280.4565
   6   2.0000     -10.303946      -280.3846
   7   2.0000     -10.300047      -280.2785
   8   2.0000     -10.299641      -280.2675
   9   2.0000     -10.297497      -280.2092
  10   2.0000     -10.293547      -280.1016
  11   2.0000     -10.290737      -280.0252
  12   2.0000     -10.288884      -279.9748
  13   2.0000     -10.288697      -279.9697
  14   2.0000     -10.284376      -279.8521
  15   2.0000     -10.284253      -279.8488
  16   2.0000      -8.080216      -219.8738
  17   2.0000      -8.075842      -219.7548
  18   2.0000      -6.038631      -164.3195
  19   2.0000      -6.034432      -164.2052
  20   2.0000      -6.034419      -164.2049
  21   2.0000      -6.031209      -164.1175
  22   2.0000      -6.030218      -164.0906
  23   2.0000      -6.026554      -163.9909
  24   2.0000      -1.010046       -27.4847
  25   2.0000      -0.990744       -26.9595
  26   2.0000      -0.913672       -24.8623
  27   2.0000      -0.903115       -24.5750
  28   2.0000      -0.875159       -23.8143
  29   2.0000      -0.852950       -23.2099
  30   2.0000      -0.846584       -23.0367
  31   2.0000      -0.820925       -22.3385
  32   2.0000      -0.774100       -21.0643
  33   2.0000      -0.766015       -20.8443
  34   2.0000      -0.709650       -19.3106
  35   2.0000      -0.692700       -18.8493
  36   2.0000      -0.691998       -18.8302
  37   2.0000      -0.656721       -17.8703
  38   2.0000      -0.647774       -17.6268
  39   2.0000      -0.621102       -16.9010
  40   2.0000      -0.591135       -16.0856
  41   2.0000      -0.581447       -15.8220
  42   2.0000      -0.571921       -15.5628
  43   2.0000      -0.562058       -15.2944
  44   2.0000      -0.528017       -14.3681
  45   2.0000      -0.525199       -14.2914
  46   2.0000      -0.520246       -14.1566
  47   2.0000      -0.512900       -13.9567
  48   2.0000      -0.504365       -13.7245
  49   2.0000      -0.502798       -13.6818
  50   2.0000      -0.495896       -13.4940
  51   2.0000      -0.477062       -12.9815
  52   2.0000      -0.472925       -12.8689
  53   2.0000      -0.463034       -12.5998
  54   2.0000      -0.461916       -12.5694
  55   2.0000      -0.445549       -12.1240
  56   2.0000      -0.440857       -11.9963
  57   2.0000      -0.433791       -11.8041
  58   2.0000      -0.432096       -11.7579
  59   2.0000      -0.425413       -11.5761
  60   2.0000      -0.418965       -11.4006
  61   2.0000      -0.414701       -11.2846
  62   2.0000      -0.405695       -11.0395
  63   2.0000      -0.357408        -9.7256
  64   2.0000      -0.329107        -8.9555
  65   2.0000      -0.324739        -8.8366
  66   2.0000      -0.293115        -7.9761
  67   0.0000       0.028164         0.7664
  68   0.0000       0.074598         2.0299
  69   0.0000       0.117268         3.1910
  70   0.0000       0.124992         3.4012
  71   0.0000       0.131565         3.5801

MULLIKEN ATOMIC CHARGES
-----------------------
   0 S :    0.111903
   1 C :   -0.070650
   2 C :   -0.080209
   3 C :    0.027133
   4 C :   -0.146606
   5 H :    0.016281
   6 C :    0.042280
   7 H :    0.032435
   8 H :    0.029863
   9 C :   -0.098779
  10 H :    0.024328
  11 H :    0.037939
  12 C :   -0.042987
  13 H :    0.041995
  14 H :    0.041215
  15 H :    0.030588
  16 S :    0.097476
  17 C :   -0.110388
  18 C :   -0.057771
  19 C :   -0.006798
  20 C :   -0.130814
  21 H :    0.023985
  22 C :   -0.008475
  23 H :    0.047258
  24 H :    0.026754
  25 C :   -0.071779
  26 H :    0.030532
  27 H :    0.035346
  28 C :   -0.062257
  29 H :    0.035361
  30 H :    0.043099
  31 H :    0.027995
  32 H :    0.004083
  33 H :    0.079668
Sum of atomic charges:   -0.0000000

LOEWDIN ATOMIC CHARGES
----------------------
   0 S :    0.424236
   1 C :   -0.191008
   2 C :   -0.065372
   3 C :   -0.060966
   4 C :   -0.189644
   5 H :    0.029751
   6 C :   -0.033626
   7 H :    0.034141
   8 H :    0.028182
   9 C :   -0.046222
  10 H :    0.014424
  11 H :    0.029413
  12 C :   -0.062971
  13 H :    0.022728
  14 H :    0.035367
  15 H :    0.029103
  16 S :    0.407141
  17 C :   -0.208095
  18 C :   -0.081247
  19 C :   -0.071312
  20 C :   -0.186517
  21 H :    0.033130
  22 C :   -0.029130
  23 H :    0.035898
  24 H :    0.027720
  25 C :   -0.043544
  26 H :    0.023437
  27 H :    0.024362
  28 C :   -0.073899
  29 H :    0.033825
  30 H :    0.032601
  31 H :    0.019042
  32 H :    0.007618
  33 H :    0.051434

  Mayer bond orders larger than 0.100000
B(  0-S ,  1-C ) :   1.1697 B(  0-S ,  4-C ) :   1.1541 B(  1-C ,  2-C ) :   1.5660
B(  1-C , 32-H ) :   0.9913 B(  2-C ,  3-C ) :   1.2923 B(  2-C ,  6-C ) :   0.9957
B(  3-C ,  4-C ) :   1.5380 B(  3-C ,  5-H ) :   0.9854 B(  4-C , 20-C ) :   1.0272
B(  6-C ,  7-H ) :   0.9474 B(  6-C ,  8-H ) :   0.9385 B(  6-C ,  9-C ) :   1.0787
B(  9-C , 10-H ) :   0.9540 B(  9-C , 11-H ) :   0.9477 B(  9-C , 12-C ) :   1.0892
B( 12-C , 13-H ) :   0.9751 B( 12-C , 14-H ) :   0.9707 B( 12-C , 15-H ) :   0.9734
B( 16-S , 17-C ) :   1.1526 B( 16-S , 20-C ) :   1.1314 B( 17-C , 18-C ) :   1.6238
B( 17-C , 33-H ) :   0.9585 B( 18-C , 19-C ) :   1.2281 B( 18-C , 21-H ) :   0.9888
B( 19-C , 20-C ) :   1.6163 B( 19-C , 22-C ) :   1.0339 B( 22-C , 23-H ) :   0.9482
B( 22-C , 24-H ) :   0.9412 B( 22-C , 25-C ) :   1.0508 B( 25-C , 26-H ) :   0.9532
B( 25-C , 27-H ) :   0.9551 B( 25-C , 28-C ) :   1.0957 B( 28-C , 29-H ) :   0.9701
B( 28-C , 30-H ) :   0.9696 B( 28-C , 31-H ) :   0.9708

Dispersion correction           -0.013126787
FINAL SINGLE POINT ENERGY     -1339.864877108176

DIPOLE MOMENT
-------------
                                X             Y             Z
Electronic contribution:    -23.24794     -20.40389       3.07355
Nuclear contribution   :     23.75556      20.84064      -3.00588
                        -----------------------------------------
Total Dipole Moment    :      0.50762       0.43675       0.06767
                        -----------------------------------------
Magnitude (a.u.)       :      0.67306
Magnitude (Debye)      :      1.71077

Rotational constants in cm-1:     0.015900     0.008781     0.006168
Rotational constants in MHz :   476.670083   263.257169   184.916404

                             ****ORCA TERMINATED NORMALLY****
TOTAL RUN TIME: 0 days 0 hours 0 minutes 20 seconds 833 msec
