                         Program Version 4.2.1 -  RELEASE  -
|  1> ! wB97X-D3 SP def2-SVP
|  2> %pal
|  3> nprocs 24
|  4> end
|  5>
|  6> * xyz 0 1
|  7> S 	 43.3826 	 -20.2883 	 -112.414
|  8> C 	 42.9394 	 -19.1304 	 -111.208
|  9> C 	 42.4768 	 -19.6976 	 -110.064
| 10> C 	 42.6716 	 -21.1449 	 -110
| 11> C 	 43.2726 	 -21.5856 	 -111.19
| 12> H 	 42.3958 	 -21.8201 	 -109.184
| 13> C 	 41.7403 	 -19.0111 	 -108.944
| 14> H 	 41.1876 	 -19.6877 	 -108.37
| 15> H 	 40.9482 	 -18.5188 	 -109.457
| 16> C 	 42.5429 	 -17.9405 	 -108.085
| 17> H 	 43.435 	 -18.2675 	 -107.579
| 18> H 	 42.8621 	 -17.23 	 -108.825
| 19> C 	 41.6651 	 -17.2657 	 -107.114
| 20> H 	 42.2376 	 -16.4705 	 -106.676
| 21> H 	 40.7006 	 -16.7958 	 -107.543
| 22> H 	 41.532 	 -18.0346 	 -106.384
| 23> S 	 45.2757 	 -23.0741 	 -112.067
| 24> C 	 45.059 	 -24.7162 	 -112.424
| 25> C 	 43.8567 	 -25.1524 	 -111.913
| 26> C 	 43.1174 	 -24.18 	 -111.318
| 27> C 	 43.6915 	 -22.9258 	 -111.49
| 28> H 	 43.7473 	 -26.1979 	 -111.91
| 29> C 	 41.7705 	 -24.4256 	 -110.709
| 30> H 	 41.3442 	 -23.4109 	 -110.655
| 31> H 	 41.911 	 -24.8515 	 -109.671
| 32> C 	 40.8541 	 -25.3226 	 -111.514
| 33> H 	 41.3426 	 -26.2941 	 -111.55
| 34> H 	 40.6629 	 -25.0501 	 -112.56
| 35> C 	 39.5033 	 -25.3751 	 -110.992
| 36> H 	 38.94 	 -26.2585 	 -111.344
| 37> H 	 38.9686 	 -24.4738 	 -111.211
| 38> H 	 39.3994 	 -25.4293 	 -109.9
| 39> H 	 43.0123 	 -18.0665 	 -111.366
| 40> H 	 45.8176 	 -25.3828 	 -112.822
| 41> *
| 42>
| 43>                          ****END OF INPUT****

CARTESIAN COORDINATES (ANGSTROEM)
---------------------------------
  S     43.382600  -20.288300  -112.414000
  C     42.939400  -19.130400  -111.208000
  C     42.476800  -19.697600  -110.064000
  C     42.671600  -21.144900  -110.000000
  C     43.272600  -21.585600  -111.190000
  H     42.395800  -21.820100  -109.184000
  C     41.740300  -19.011100  -108.944000
  H     41.187600  -19.687700  -108.370000
  H     40.948200  -18.518800  -109.457000
  C     42.542900  -17.940500  -108.085000
  H     43.435000  -18.267500  -107.579000
  H     42.862100  -17.230000  -108.825000
  C     41.665100  -17.265700  -107.114000
  H     42.237600  -16.470500  -106.676000
  H     40.700600  -16.795800  -107.543000
  H     41.532000  -18.034600  -106.384000
  S     45.275700  -23.074100  -112.067000
  C     45.059000  -24.716200  -112.424000
  C     43.856700  -25.152400  -111.913000
  C     43.117400  -24.180000  -111.318000
  C     43.691500  -22.925800  -111.490000
  H     43.747300  -26.197900  -111.910000
  C     41.770500  -24.425600  -110.709000
  H     41.344200  -23.410900  -110.655000
  H     41.911000  -24.851500  -109.671000
  C     40.854100  -25.322600  -111.514000
  H     41.342600  -26.294100  -111.550000
  H     40.662900  -25.050100  -112.560000
  C     39.503300  -25.375100  -110.992000
  H     38.940000  -26.258500  -111.344000
  H     38.968600  -24.473800  -111.211000
  H     39.399400  -25.429300  -109.900000
  H     43.012300  -18.066500  -111.366000
  H     45.817600  -25.382800  -112.822000

 Total Charge           Charge          ....    0
 Multiplicity           Mult            ....    1
 Number of Electrons    NEL             ....  134
 Basis Dimension        Dim             ....  322

ORBITAL ENERGIES
----------------

  NO   OCC          E(Eh)            E(eV)
   0   2.0000     -88.965210     -2420.8664
   1   2.0000     -88.961450     -2420.7641
   2   2.0000     -10.329227      -281.0726
   3   2.0000     -10.313647      -280.6486
   4   2.0000     -10.307072      -280.4697
   5   2.0000     -10.306657      -280.4584
   6   2.0000     -10.298132      -280.2264
   7   2.0000     -10.297971      -280.2220
   8   2.0000     -10.291511      -280.0463
   9   2.0000     -10.290754      -280.0256
  10   2.0000     -10.283933      -279.8400
  11   2.0000     -10.282495      -279.8009
  12   2.0000     -10.278289      -279.6865
  13   2.0000     -10.277317      -279.6600
  14   2.0000     -10.276502      -279.6378
  15   2.0000     -10.269649      -279.4514
  16   2.0000      -8.079813      -219.8629
  17   2.0000      -8.078359      -219.8233
  18   2.0000      -6.038406      -164.3134
  19   2.0000      -6.036439      -164.2599
  20   2.0000      -6.034517      -164.2076
  21   2.0000      -6.032472      -164.1519
  22   2.0000      -6.030313      -164.0932
  23   2.0000      -6.029510      -164.0713
  24   2.0000      -1.018477       -27.7142
  25   2.0000      -0.986109       -26.8334
  26   2.0000      -0.920677       -25.0529
  27   2.0000      -0.913259       -24.8510
  28   2.0000      -0.875541       -23.8247
  29   2.0000      -0.862873       -23.4800
  30   2.0000      -0.852685       -23.2027
  31   2.0000      -0.814330       -22.1590
  32   2.0000      -0.781633       -21.2693
  33   2.0000      -0.769147       -20.9296
  34   2.0000      -0.705027       -19.1847
  35   2.0000      -0.701532       -19.0897
  36   2.0000      -0.695978       -18.9385
  37   2.0000      -0.659836       -17.9550
  38   2.0000      -0.639210       -17.3938
  39   2.0000      -0.617014       -16.7898
  40   2.0000      -0.597587       -16.2612
  41   2.0000      -0.575892       -15.6708
  42   2.0000      -0.573345       -15.6015
  43   2.0000      -0.563816       -15.3422
  44   2.0000      -0.532788       -14.4979
  45   2.0000      -0.528166       -14.3721
  46   2.0000      -0.520861       -14.1734
  47   2.0000      -0.516384       -14.0515
  48   2.0000      -0.508308       -13.8318
  49   2.0000      -0.495699       -13.4887
  50   2.0000      -0.495001       -13.4697
  51   2.0000      -0.483056       -13.1446
  52   2.0000      -0.472485       -12.8570
  53   2.0000      -0.470979       -12.8160
  54   2.0000      -0.460061       -12.5189
  55   2.0000      -0.445676       -12.1275
  56   2.0000      -0.443818       -12.0769
  57   2.0000      -0.435035       -11.8379
  58   2.0000      -0.428461       -11.6590
  59   2.0000      -0.425937       -11.5903
  60   2.0000      -0.423807       -11.5324
  61   2.0000      -0.411591       -11.2000
  62   2.0000      -0.408737       -11.1223
  63   2.0000      -0.344837        -9.3835
  64   2.0000      -0.332711        -9.0535
  65   2.0000      -0.323385        -8.7998
  66   2.0000      -0.287833        -7.8323
  67   0.0000       0.028590         0.7780
  68   0.0000       0.076482         2.0812
  69   0.0000       0.104866         2.8535
  70   0.0000       0.123613         3.3637
  71   0.0000       0.144746         3.9387

MULLIKEN ATOMIC CHARGES
-----------------------
   0 S :    0.118795
   1 C :   -0.126628
   2 C :   -0.074809
   3 C :    0.019512
   4 C :   -0.161875
   5 H :    0.029716
   6 C :    0.095437
   7 H :   -0.009358
   8 H :    0.015709
   9 C :   -0.064243
  10 H :    0.031902
  11 H :    0.011940
  12 C :   -0.037761
  13 H :    0.027629
  14 H :    0.045138
  15 H :    0.027316
  16 S :    0.134031
  17 C :   -0.095129
  18 C :   -0.053506
  19 C :    0.019249
  20 C :   -0.192680
  21 H :   -0.001852
  22 C :    0.047920
  23 H :    0.022940
  24 H :    0.046522
  25 C :   -0.066851
  26 H :    0.023317
  27 H :    0.034223
  28 C :   -0.031388
  29 H :    0.034252
  30 H :    0.024444
  31 H :    0.009379
  32 H :    0.043586
  33 H :    0.053123
Sum of atomic charges:    0.0000000

LOEWDIN ATOMIC CHARGES
----------------------
   0 S :    0.397390
   1 C :   -0.204403
   2 C :   -0.060486
   3 C :   -0.059500
   4 C :   -0.184338
   5 H :    0.036456
   6 C :   -0.027767
   7 H :    0.017255
   8 H :    0.031996
   9 C :   -0.034365
  10 H :    0.025210
  11 H :    0.016675
  12 C :   -0.066237
  13 H :    0.024274
  14 H :    0.034903
  15 H :    0.023574
  16 S :    0.465307
  17 C :   -0.204227
  18 C :   -0.073716
  19 C :   -0.061778
  20 C :   -0.226284
  21 H :    0.024607
  22 C :   -0.032959
  23 H :    0.030845
  24 H :    0.040902
  25 C :   -0.049468
  26 H :    0.020808
  27 H :    0.033566
  28 C :   -0.067386
  29 H :    0.031170
  30 H :    0.023150
  31 H :    0.019863
  32 H :    0.025670
  33 H :    0.029292

  Mayer bond orders larger than 0.100000
B(  0-S ,  1-C ) :   1.1208 B(  0-S ,  4-C ) :   1.1492 B(  1-C ,  2-C ) :   1.6390
B(  1-C , 32-H ) :   0.9687 B(  2-C ,  3-C ) :   1.2141 B(  2-C ,  6-C ) :   1.0145
B(  3-C ,  4-C ) :   1.5650 B(  3-C ,  5-H ) :   0.9926 B(  4-C , 20-C ) :   1.0534
B(  6-C ,  7-H ) :   0.9436 B(  6-C ,  8-H ) :   0.9335 B(  6-C ,  9-C ) :   1.0491
B(  9-C , 10-H ) :   0.9585 B(  9-C , 11-H ) :   0.9535 B(  9-C , 12-C ) :   1.0931
B( 12-C , 13-H ) :   0.9699 B( 12-C , 14-H ) :   0.9715 B( 12-C , 15-H ) :   0.9753
B( 16-S , 17-C ) :   1.1884 B( 16-S , 20-C ) :   1.1957 B( 17-C , 18-C ) :   1.5480
B( 17-C , 20-C ) :   0.1111 B( 17-C , 33-H ) :   0.9676 B( 18-C , 19-C ) :   1.2956
B( 18-C , 21-H ) :   1.0028 B( 19-C , 20-C ) :   1.5096 B( 19-C , 22-C ) :   1.0410
B( 22-C , 23-H ) :   0.9345 B( 22-C , 24-H ) :   0.9168 B( 22-C , 25-C ) :   1.0837
B( 25-C , 26-H ) :   0.9433 B( 25-C , 27-H ) :   0.9527 B( 25-C , 28-C ) :   1.1002
B( 28-C , 29-H ) :   0.9691 B( 28-C , 30-H ) :   0.9713 B( 28-C , 31-H ) :   0.9658

Dispersion correction           -0.013306017
FINAL SINGLE POINT ENERGY     -1339.859540747773

DIPOLE MOMENT
-------------
                                X             Y             Z
Electronic contribution:     20.45740      -1.87159     -17.55986
Nuclear contribution   :    -20.78748       1.77815      18.01174
                        -----------------------------------------
Total Dipole Moment    :     -0.33008      -0.09343       0.45189
                        -----------------------------------------
Magnitude (a.u.)       :      0.56735
Magnitude (Debye)      :      1.44208

Rotational constants in cm-1:     0.019203     0.007641     0.006133
Rotational constants in MHz :   575.686888   229.081833   183.864631

                             ****ORCA TERMINATED NORMALLY****
TOTAL RUN TIME: 0 days 0 hours 0 minutes 21 seconds 232 msec
