                         Program Version 4.2.1 -  RELEASE  -
|  1> ! wB97X-D3 SP def2-SVP
|  2> %pal
|  3> nprocs 24
|  4> end
|  5>
|  6> * xyz 0 1
|  7> S 	 -111.465 	 54.4215 	 -93.2925
|  8> C 	 -111.137 	 55.5104 	 -92.0261
|  9> C 	 -111.824 	 55.1729 	 -90.8115
| 10> C 	 -112.553 	 53.938 	 -90.9476
| 11> C 	 -112.287 	 53.3574 	 -92.1952
| 12> H 	 -113.101 	 53.423 	 -90.2541
| 13> C 	 -111.905 	 56.0209 	 -89.5432
| 14> H 	 -112.831 	 56.6217 	 -89.6625
| 15> H 	 -111.124 	 56.8706 	 -89.6007
| 16> C 	 -111.933 	 55.1868 	 -88.2369
| 17> H 	 -112.104 	 55.8185 	 -87.3706
| 18> H 	 -112.803 	 54.4518 	 -88.2657
| 19> C 	 -110.598 	 54.4535 	 -87.7882
| 20> H 	 -109.854 	 55.1689 	 -87.6122
| 21> H 	 -110.743 	 53.8365 	 -86.8756
| 22> H 	 -110.184 	 53.7501 	 -88.5829
| 23> S 	 -113.957 	 51.913 	 -94.0035
| 24> C 	 -114.125 	 50.2336 	 -93.7756
| 25> C 	 -113.559 	 49.8236 	 -92.5909
| 26> C 	 -112.767 	 50.831 	 -91.956
| 27> C 	 -112.862 	 52.0657 	 -92.6079
| 28> H 	 -113.701 	 48.7802 	 -92.3057
| 29> C 	 -112.048 	 50.5056 	 -90.6414
| 30> H 	 -112.697 	 49.7259 	 -90.2491
| 31> H 	 -112.202 	 51.366 	 -90.017
| 32> C 	 -110.536 	 50.2534 	 -90.7812
| 33> H 	 -110.275 	 49.773 	 -89.829
| 34> H 	 -110.124 	 51.3048 	 -90.754
| 35> C 	 -110.032 	 49.4619 	 -91.9353
| 36> H 	 -110.255 	 49.956 	 -92.8679
| 37> H 	 -110.519 	 48.5386 	 -92.0539
| 38> H 	 -109.011 	 49.3135 	 -91.7182
| 39> H 	 -110.54 	 56.4512 	 -92.1074
| 40> H 	 -114.839 	 49.6261 	 -94.3792
| 41> *
| 42>
| 43>                          ****END OF INPUT****

CARTESIAN COORDINATES (ANGSTROEM)
---------------------------------
  S    -111.465000   54.421500  -93.292500
  C    -111.137000   55.510400  -92.026100
  C    -111.824000   55.172900  -90.811500
  C    -112.553000   53.938000  -90.947600
  C    -112.287000   53.357400  -92.195200
  H    -113.101000   53.423000  -90.254100
  C    -111.905000   56.020900  -89.543200
  H    -112.831000   56.621700  -89.662500
  H    -111.124000   56.870600  -89.600700
  C    -111.933000   55.186800  -88.236900
  H    -112.104000   55.818500  -87.370600
  H    -112.803000   54.451800  -88.265700
  C    -110.598000   54.453500  -87.788200
  H    -109.854000   55.168900  -87.612200
  H    -110.743000   53.836500  -86.875600
  H    -110.184000   53.750100  -88.582900
  S    -113.957000   51.913000  -94.003500
  C    -114.125000   50.233600  -93.775600
  C    -113.559000   49.823600  -92.590900
  C    -112.767000   50.831000  -91.956000
  C    -112.862000   52.065700  -92.607900
  H    -113.701000   48.780200  -92.305700
  C    -112.048000   50.505600  -90.641400
  H    -112.697000   49.725900  -90.249100
  H    -112.202000   51.366000  -90.017000
  C    -110.536000   50.253400  -90.781200
  H    -110.275000   49.773000  -89.829000
  H    -110.124000   51.304800  -90.754000
  C    -110.032000   49.461900  -91.935300
  H    -110.255000   49.956000  -92.867900
  H    -110.519000   48.538600  -92.053900
  H    -109.011000   49.313500  -91.718200
  H    -110.540000   56.451200  -92.107400
  H    -114.839000   49.626100  -94.379200

 Total Charge           Charge          ....    0
 Multiplicity           Mult            ....    1
 Number of Electrons    NEL             ....  134
 Basis Dimension        Dim             ....  322

ORBITAL ENERGIES
----------------

  NO   OCC          E(Eh)            E(eV)
   0   2.0000     -88.971759     -2421.0446
   1   2.0000     -88.962983     -2420.8058
   2   2.0000     -10.329120      -281.0696
   3   2.0000     -10.325864      -280.9810
   4   2.0000     -10.317293      -280.7478
   5   2.0000     -10.314056      -280.6597
   6   2.0000     -10.308488      -280.5082
   7   2.0000     -10.306807      -280.4625
   8   2.0000     -10.300661      -280.2952
   9   2.0000     -10.300592      -280.2934
  10   2.0000     -10.292039      -280.0606
  11   2.0000     -10.290007      -280.0053
  12   2.0000     -10.285614      -279.8858
  13   2.0000     -10.283831      -279.8373
  14   2.0000     -10.283814      -279.8368
  15   2.0000     -10.260903      -279.2134
  16   2.0000      -8.087101      -220.0612
  17   2.0000      -8.078153      -219.8177
  18   2.0000      -6.045372      -164.5029
  19   2.0000      -6.041547      -164.3989
  20   2.0000      -6.038068      -164.3042
  21   2.0000      -6.036547      -164.2628
  22   2.0000      -6.032565      -164.1544
  23   2.0000      -6.029055      -164.0589
  24   2.0000      -1.005183       -27.3524
  25   2.0000      -0.984628       -26.7931
  26   2.0000      -0.909111       -24.7382
  27   2.0000      -0.903592       -24.5880
  28   2.0000      -0.865668       -23.5560
  29   2.0000      -0.850177       -23.1345
  30   2.0000      -0.845703       -23.0128
  31   2.0000      -0.810078       -22.0433
  32   2.0000      -0.787555       -21.4305
  33   2.0000      -0.770515       -20.9668
  34   2.0000      -0.708367       -19.2756
  35   2.0000      -0.694753       -18.9052
  36   2.0000      -0.681336       -18.5401
  37   2.0000      -0.656234       -17.8570
  38   2.0000      -0.641656       -17.4603
  39   2.0000      -0.619111       -16.8469
  40   2.0000      -0.581931       -15.8351
  41   2.0000      -0.563397       -15.3308
  42   2.0000      -0.557312       -15.1652
  43   2.0000      -0.548499       -14.9254
  44   2.0000      -0.543719       -14.7953
  45   2.0000      -0.537185       -14.6175
  46   2.0000      -0.515881       -14.0378
  47   2.0000      -0.505653       -13.7595
  48   2.0000      -0.496364       -13.5068
  49   2.0000      -0.494438       -13.4544
  50   2.0000      -0.489544       -13.3212
  51   2.0000      -0.483053       -13.1445
  52   2.0000      -0.472263       -12.8509
  53   2.0000      -0.466405       -12.6915
  54   2.0000      -0.458227       -12.4690
  55   2.0000      -0.448568       -12.2061
  56   2.0000      -0.444953       -12.1078
  57   2.0000      -0.436340       -11.8734
  58   2.0000      -0.434732       -11.8297
  59   2.0000      -0.425497       -11.5784
  60   2.0000      -0.418145       -11.3783
  61   2.0000      -0.414868       -11.2891
  62   2.0000      -0.405456       -11.0330
  63   2.0000      -0.344905        -9.3853
  64   2.0000      -0.329289        -8.9604
  65   2.0000      -0.327431        -8.9099
  66   2.0000      -0.288506        -7.8506
  67   0.0000       0.031497         0.8571
  68   0.0000       0.067689         1.8419
  69   0.0000       0.112254         3.0546
  70   0.0000       0.121606         3.3091
  71   0.0000       0.127078         3.4580

MULLIKEN ATOMIC CHARGES
-----------------------
   0 S :    0.144603
   1 C :   -0.131775
   2 C :   -0.098060
   3 C :    0.062190
   4 C :   -0.181912
   5 H :   -0.012279
   6 C :    0.045549
   7 H :    0.052867
   8 H :    0.030317
   9 C :   -0.101014
  10 H :    0.033183
  11 H :    0.044232
  12 C :   -0.068244
  13 H :    0.025555
  14 H :    0.043642
  15 H :    0.045286
  16 S :    0.107168
  17 C :   -0.110095
  18 C :   -0.052000
  19 C :   -0.092353
  20 C :   -0.156242
  21 H :    0.022985
  22 C :    0.116279
  23 H :    0.017698
  24 H :    0.001456
  25 C :   -0.101416
  26 H :    0.026941
  27 H :    0.046372
  28 C :    0.025085
  29 H :    0.040077
  30 H :    0.007864
  31 H :    0.031296
  32 H :    0.062585
  33 H :    0.072159
Sum of atomic charges:    0.0000000

LOEWDIN ATOMIC CHARGES
----------------------
   0 S :    0.443986
   1 C :   -0.233011
   2 C :   -0.058826
   3 C :   -0.046549
   4 C :   -0.198940
   5 H :    0.014466
   6 C :   -0.044141
   7 H :    0.042414
   8 H :    0.036649
   9 C :   -0.046728
  10 H :    0.026003
  11 H :    0.029479
  12 C :   -0.068709
  13 H :    0.015897
  14 H :    0.031224
  15 H :    0.030437
  16 S :    0.407645
  17 C :   -0.206091
  18 C :   -0.083634
  19 C :   -0.055862
  20 C :   -0.202218
  21 H :    0.032243
  22 C :   -0.030771
  23 H :    0.027845
  24 H :    0.024900
  25 C :   -0.040820
  26 H :    0.024596
  27 H :    0.034692
  28 C :   -0.057698
  29 H :    0.030849
  30 H :    0.019239
  31 H :    0.027138
  32 H :    0.036401
  33 H :    0.037896

  Mayer bond orders larger than 0.100000
B(  0-S ,  1-C ) :   1.1586 B(  0-S ,  4-C ) :   1.1770 B(  1-C ,  2-C ) :   1.5756
B(  1-C , 32-H ) :   0.9612 B(  2-C ,  3-C ) :   1.2534 B(  2-C ,  6-C ) :   1.0189
B(  3-C ,  4-C ) :   1.5430 B(  3-C ,  5-H ) :   0.9985 B(  4-C , 20-C ) :   1.0425
B(  6-C ,  7-H ) :   0.9354 B(  6-C ,  8-H ) :   0.9447 B(  6-C ,  9-C ) :   1.0631
B(  9-C , 10-H ) :   0.9562 B(  9-C , 11-H ) :   0.9547 B(  9-C , 12-C ) :   1.0630
B( 12-C , 13-H ) :   0.9764 B( 12-C , 14-H ) :   0.9761 B( 12-C , 15-H ) :   0.9769
B( 16-S , 17-C ) :   1.1727 B( 16-S , 20-C ) :   1.1428 B( 17-C , 18-C ) :   1.6002
B( 17-C , 33-H ) :   0.9592 B( 18-C , 19-C ) :   1.2500 B( 18-C , 21-H ) :   0.9879
B( 19-C , 20-C ) :   1.5795 B( 19-C , 22-C ) :   1.0192 B( 22-C , 23-H ) :   0.9341
B( 22-C , 24-H ) :   0.9320 B( 22-C , 25-C ) :   1.0601 B( 25-C , 26-H ) :   0.9553
B( 25-C , 27-H ) :   0.9514 B( 25-C , 28-C ) :   1.0976 B( 28-C , 29-H ) :   0.9612
B( 28-C , 30-H ) :   0.9701 B( 28-C , 31-H ) :   0.9696

Dispersion correction           -0.015577491
FINAL SINGLE POINT ENERGY     -1339.873253679427

DIPOLE MOMENT
-------------
                                X             Y             Z
Electronic contribution:    -11.16673       4.54358     -24.15076
Nuclear contribution   :     11.15384      -4.57337      24.79271
                        -----------------------------------------
Total Dipole Moment    :     -0.01290      -0.02979       0.64194
                        -----------------------------------------
Magnitude (a.u.)       :      0.64277
Magnitude (Debye)      :      1.63378

Rotational constants in cm-1:     0.018583     0.009616     0.007721
Rotational constants in MHz :   557.107392   288.267721   231.476854

                             ****ORCA TERMINATED NORMALLY****
TOTAL RUN TIME: 0 days 0 hours 0 minutes 21 seconds 535 msec
