                         Program Version 4.2.1 -  RELEASE  -
|  1> ! wB97X-D3 SP def2-SVP
|  2> %pal
|  3> nprocs 24
|  4> end
|  5>
|  6> * xyz 0 1
|  7> S 	 -127.119 	 61.1732 	 -62.5917
|  8> C 	 -128.831 	 61.3798 	 -62.6675
|  9> C 	 -129.442 	 60.3942 	 -61.8783
| 10> C 	 -128.542 	 59.6065 	 -61.1417
| 11> C 	 -127.252 	 59.9104 	 -61.3989
| 12> H 	 -128.689 	 58.8673 	 -60.3596
| 13> C 	 -130.929 	 60.3409 	 -61.6937
| 14> H 	 -131.268 	 61.335 	 -61.3469
| 15> H 	 -131.109 	 59.598 	 -60.9535
| 16> C 	 -131.84 	 60.0551 	 -62.9275
| 17> H 	 -131.422 	 60.2848 	 -63.9037
| 18> H 	 -131.959 	 58.9883 	 -62.9304
| 19> C 	 -133.266 	 60.8305 	 -62.972
| 20> H 	 -133.88 	 60.471 	 -62.1167
| 21> H 	 -133.11 	 61.905 	 -62.7717
| 22> H 	 -133.66 	 60.543 	 -63.93
| 23> S 	 -125.046 	 58.4185 	 -61.8551
| 24> C 	 -124.239 	 57.6318 	 -60.5429
| 25> C 	 -124.757 	 58.0269 	 -59.3553
| 26> C 	 -125.817 	 58.9621 	 -59.4639
| 27> C 	 -126.129 	 59.2482 	 -60.7891
| 28> H 	 -124.275 	 57.6102 	 -58.4609
| 29> C 	 -126.665 	 59.4226 	 -58.3009
| 30> H 	 -127.627 	 58.9152 	 -58.2076
| 31> H 	 -126.894 	 60.4673 	 -58.4445
| 32> C 	 -126.085 	 59.4648 	 -56.9457
| 33> H 	 -125.152 	 59.9544 	 -57.0708
| 34> H 	 -125.941 	 58.5164 	 -56.4134
| 35> C 	 -126.814 	 60.4052 	 -56.0015
| 36> H 	 -127.437 	 61.0955 	 -56.5034
| 37> H 	 -126.026 	 61.0512 	 -55.605
| 38> H 	 -127.336 	 59.9724 	 -55.2079
| 39> H 	 -129.354 	 62.1515 	 -63.3344
| 40> H 	 -123.329 	 57.0324 	 -60.6275
| 41> *
| 42>
| 43>                          ****END OF INPUT****

CARTESIAN COORDINATES (ANGSTROEM)
---------------------------------
  S    -127.119000   61.173200  -62.591700
  C    -128.831000   61.379800  -62.667500
  C    -129.442000   60.394200  -61.878300
  C    -128.542000   59.606500  -61.141700
  C    -127.252000   59.910400  -61.398900
  H    -128.689000   58.867300  -60.359600
  C    -130.929000   60.340900  -61.693700
  H    -131.268000   61.335000  -61.346900
  H    -131.109000   59.598000  -60.953500
  C    -131.840000   60.055100  -62.927500
  H    -131.422000   60.284800  -63.903700
  H    -131.959000   58.988300  -62.930400
  C    -133.266000   60.830500  -62.972000
  H    -133.880000   60.471000  -62.116700
  H    -133.110000   61.905000  -62.771700
  H    -133.660000   60.543000  -63.930000
  S    -125.046000   58.418500  -61.855100
  C    -124.239000   57.631800  -60.542900
  C    -124.757000   58.026900  -59.355300
  C    -125.817000   58.962100  -59.463900
  C    -126.129000   59.248200  -60.789100
  H    -124.275000   57.610200  -58.460900
  C    -126.665000   59.422600  -58.300900
  H    -127.627000   58.915200  -58.207600
  H    -126.894000   60.467300  -58.444500
  C    -126.085000   59.464800  -56.945700
  H    -125.152000   59.954400  -57.070800
  H    -125.941000   58.516400  -56.413400
  C    -126.814000   60.405200  -56.001500
  H    -127.437000   61.095500  -56.503400
  H    -126.026000   61.051200  -55.605000
  H    -127.336000   59.972400  -55.207900
  H    -129.354000   62.151500  -63.334400
  H    -123.329000   57.032400  -60.627500

 Total Charge           Charge          ....    0
 Multiplicity           Mult            ....    1
 Number of Electrons    NEL             ....  134
 Basis Dimension        Dim             ....  322

ORBITAL ENERGIES
----------------

  NO   OCC          E(Eh)            E(eV)
   0   2.0000     -88.966303     -2420.8962
   1   2.0000     -88.961907     -2420.7766
   2   2.0000     -10.322043      -280.8771
   3   2.0000     -10.321348      -280.8582
   4   2.0000     -10.318954      -280.7930
   5   2.0000     -10.311231      -280.5829
   6   2.0000     -10.302228      -280.3379
   7   2.0000     -10.300081      -280.2795
   8   2.0000     -10.290082      -280.0074
   9   2.0000     -10.289037      -279.9789
  10   2.0000     -10.288386      -279.9612
  11   2.0000     -10.287616      -279.9403
  12   2.0000     -10.286792      -279.9178
  13   2.0000     -10.283987      -279.8415
  14   2.0000     -10.275568      -279.6124
  15   2.0000     -10.266072      -279.3540
  16   2.0000      -8.081492      -219.9086
  17   2.0000      -8.077614      -219.8030
  18   2.0000      -6.039848      -164.3526
  19   2.0000      -6.035975      -164.2472
  20   2.0000      -6.035815      -164.2429
  21   2.0000      -6.032514      -164.1531
  22   2.0000      -6.031882      -164.1359
  23   2.0000      -6.028565      -164.0456
  24   2.0000      -1.014941       -27.6180
  25   2.0000      -0.991167       -26.9710
  26   2.0000      -0.922418       -25.1003
  27   2.0000      -0.904555       -24.6142
  28   2.0000      -0.872963       -23.7545
  29   2.0000      -0.854951       -23.2644
  30   2.0000      -0.847833       -23.0707
  31   2.0000      -0.817344       -22.2411
  32   2.0000      -0.784185       -21.3388
  33   2.0000      -0.770281       -20.9604
  34   2.0000      -0.704117       -19.1600
  35   2.0000      -0.701102       -19.0779
  36   2.0000      -0.697866       -18.9899
  37   2.0000      -0.653850       -17.7922
  38   2.0000      -0.641648       -17.4601
  39   2.0000      -0.619820       -16.8662
  40   2.0000      -0.602963       -16.4075
  41   2.0000      -0.585058       -15.9202
  42   2.0000      -0.570919       -15.5355
  43   2.0000      -0.552781       -15.0419
  44   2.0000      -0.527657       -14.3583
  45   2.0000      -0.523279       -14.2392
  46   2.0000      -0.518992       -14.1225
  47   2.0000      -0.512122       -13.9355
  48   2.0000      -0.505715       -13.7612
  49   2.0000      -0.501035       -13.6339
  50   2.0000      -0.498539       -13.5659
  51   2.0000      -0.481867       -13.1123
  52   2.0000      -0.475925       -12.9506
  53   2.0000      -0.466376       -12.6907
  54   2.0000      -0.463851       -12.6220
  55   2.0000      -0.449037       -12.2189
  56   2.0000      -0.440532       -11.9875
  57   2.0000      -0.437224       -11.8975
  58   2.0000      -0.430003       -11.7010
  59   2.0000      -0.423878       -11.5343
  60   2.0000      -0.417460       -11.3597
  61   2.0000      -0.413333       -11.2474
  62   2.0000      -0.410042       -11.1578
  63   2.0000      -0.348883        -9.4936
  64   2.0000      -0.331946        -9.0327
  65   2.0000      -0.326559        -8.8861
  66   2.0000      -0.293654        -7.9907
  67   0.0000       0.034113         0.9283
  68   0.0000       0.068164         1.8548
  69   0.0000       0.119883         3.2622
  70   0.0000       0.127482         3.4690
  71   0.0000       0.137876         3.7518

MULLIKEN ATOMIC CHARGES
-----------------------
   0 S :    0.124238
   1 C :   -0.154554
   2 C :   -0.071632
   3 C :    0.029211
   4 C :   -0.161852
   5 H :    0.013219
   6 C :    0.087426
   7 H :    0.030325
   8 H :    0.013032
   9 C :   -0.099522
  10 H :    0.027989
  11 H :    0.026603
  12 C :   -0.079647
  13 H :    0.040831
  14 H :    0.043796
  15 H :    0.047072
  16 S :    0.109192
  17 C :   -0.094615
  18 C :   -0.056311
  19 C :   -0.013015
  20 C :   -0.164378
  21 H :    0.026615
  22 C :    0.066882
  23 H :    0.037814
  24 H :    0.020700
  25 C :   -0.088613
  26 H :    0.014374
  27 H :    0.032070
  28 C :   -0.008218
  29 H :    0.009144
  30 H :    0.021945
  31 H :    0.026753
  32 H :    0.082998
  33 H :    0.060123
Sum of atomic charges:    0.0000000

LOEWDIN ATOMIC CHARGES
----------------------
   0 S :    0.422272
   1 C :   -0.216982
   2 C :   -0.066486
   3 C :   -0.061439
   4 C :   -0.202760
   5 H :    0.037469
   6 C :   -0.033243
   7 H :    0.034147
   8 H :    0.024808
   9 C :   -0.039799
  10 H :    0.019146
  11 H :    0.020420
  12 C :   -0.064886
  13 H :    0.026786
  14 H :    0.026058
  15 H :    0.026646
  16 S :    0.422810
  17 C :   -0.195621
  18 C :   -0.078208
  19 C :   -0.059676
  20 C :   -0.200663
  21 H :    0.037328
  22 C :   -0.038051
  23 H :    0.029604
  24 H :    0.034347
  25 C :   -0.044369
  26 H :    0.021478
  27 H :    0.023602
  28 C :   -0.055326
  29 H :    0.018371
  30 H :    0.033342
  31 H :    0.017052
  32 H :    0.047722
  33 H :    0.034103

  Mayer bond orders larger than 0.100000
B(  0-S ,  1-C ) :   1.1544 B(  0-S ,  4-C ) :   1.1615 B(  1-C ,  2-C ) :   1.5662
B(  1-C ,  4-C ) :   0.1024 B(  1-C , 32-H ) :   0.9631 B(  2-C ,  3-C ) :   1.2514
B(  2-C ,  6-C ) :   1.0313 B(  3-C ,  4-C ) :   1.5714 B(  3-C ,  5-H ) :   0.9964
B(  4-C , 20-C ) :   1.0259 B(  6-C ,  7-H ) :   0.9464 B(  6-C ,  8-H ) :   0.9435
B(  6-C ,  9-C ) :   1.0353 B(  9-C , 10-H ) :   0.9711 B(  9-C , 11-H ) :   0.9602
B(  9-C , 12-C ) :   1.0640 B( 12-C , 13-H ) :   0.9804 B( 12-C , 14-H ) :   0.9771
B( 12-C , 15-H ) :   0.9781 B( 16-S , 17-C ) :   1.1592 B( 16-S , 20-C ) :   1.1651
B( 17-C , 18-C ) :   1.6111 B( 17-C , 20-C ) :   0.1002 B( 17-C , 33-H ) :   0.9623
B( 18-C , 19-C ) :   1.2412 B( 18-C , 21-H ) :   0.9903 B( 19-C , 20-C ) :   1.5826
B( 19-C , 22-C ) :   1.0451 B( 22-C , 23-H ) :   0.9241 B( 22-C , 24-H ) :   0.9256
B( 22-C , 25-C ) :   1.0925 B( 25-C , 26-H ) :   0.9629 B( 25-C , 27-H ) :   0.9444
B( 25-C , 28-C ) :   1.0830 B( 28-C , 29-H ) :   0.9708 B( 28-C , 30-H ) :   0.9793
B( 28-C , 31-H ) :   0.9762

Dispersion correction           -0.013373079
FINAL SINGLE POINT ENERGY     -1339.863410674714

DIPOLE MOMENT
-------------
                                X             Y             Z
Electronic contribution:     21.72380      -3.35200     -15.71382
Nuclear contribution   :    -22.09091       3.29914      16.19391
                        -----------------------------------------
Total Dipole Moment    :     -0.36711      -0.05286       0.48010
                        -----------------------------------------
Magnitude (a.u.)       :      0.60668
Magnitude (Debye)      :      1.54205

Rotational constants in cm-1:     0.018996     0.007514     0.006052
Rotational constants in MHz :   569.498939   225.253656   181.428646

                             ****ORCA TERMINATED NORMALLY****
TOTAL RUN TIME: 0 days 0 hours 0 minutes 19 seconds 933 msec
