                         Program Version 4.2.1 -  RELEASE  -
|  1> ! wB97X-D3 SP def2-SVP
|  2> %pal
|  3> nprocs 24
|  4> end
|  5>
|  6> * xyz 0 1
|  7> S 	 -44.9181 	 26.0251 	 29.3516
|  8> C 	 -46.0592 	 26.4004 	 28.1189
|  9> C 	 -47.361 	 26.3923 	 28.6087
| 10> C 	 -47.4508 	 25.9615 	 29.9777
| 11> C 	 -46.2115 	 25.784 	 30.5889
| 12> H 	 -48.3729 	 25.7608 	 30.5704
| 13> C 	 -48.5951 	 26.6346 	 27.6767
| 14> H 	 -48.1108 	 27.1231 	 26.8952
| 15> H 	 -49.3435 	 27.2778 	 28.0734
| 16> C 	 -49.276 	 25.3928 	 27.0311
| 17> H 	 -48.4606 	 24.8435 	 26.6185
| 18> H 	 -49.7328 	 24.6732 	 27.7958
| 19> C 	 -50.2473 	 25.6975 	 25.8868
| 20> H 	 -50.972 	 26.3386 	 26.2734
| 21> H 	 -49.6535 	 26.1456 	 25.031
| 22> H 	 -50.7266 	 24.7768 	 25.4427
| 23> S 	 -45.3422 	 26.6845 	 33.1245
| 24> C 	 -45.4412 	 25.5691 	 34.448
| 25> C 	 -46.0066 	 24.3542 	 34.0577
| 26> C 	 -46.2628 	 24.1972 	 32.6429
| 27> C 	 -45.9555 	 25.3948 	 31.98
| 28> H 	 -46.1306 	 23.4927 	 34.7356
| 29> C 	 -46.6554 	 22.8548 	 32.0601
| 30> H 	 -47.1603 	 23.0143 	 31.049
| 31> H 	 -47.3949 	 22.5314 	 32.7446
| 32> C 	 -45.6228 	 21.7599 	 31.9987
| 33> H 	 -44.9618 	 21.6949 	 32.836
| 34> H 	 -45.0394 	 21.9866 	 31.1196
| 35> C 	 -46.1308 	 20.3633 	 31.7946
| 36> H 	 -46.8243 	 20.2474 	 30.9422
| 37> H 	 -46.6273 	 20.0647 	 32.7078
| 38> H 	 -45.3449 	 19.5882 	 31.5227
| 39> H 	 -45.7752 	 26.7616 	 27.128
| 40> H 	 -45.3274 	 25.8861 	 35.4312
| 41> *
| 42>
| 43>                          ****END OF INPUT****

CARTESIAN COORDINATES (ANGSTROEM)
---------------------------------
  S    -44.918100   26.025100   29.351600
  C    -46.059200   26.400400   28.118900
  C    -47.361000   26.392300   28.608700
  C    -47.450800   25.961500   29.977700
  C    -46.211500   25.784000   30.588900
  H    -48.372900   25.760800   30.570400
  C    -48.595100   26.634600   27.676700
  H    -48.110800   27.123100   26.895200
  H    -49.343500   27.277800   28.073400
  C    -49.276000   25.392800   27.031100
  H    -48.460600   24.843500   26.618500
  H    -49.732800   24.673200   27.795800
  C    -50.247300   25.697500   25.886800
  H    -50.972000   26.338600   26.273400
  H    -49.653500   26.145600   25.031000
  H    -50.726600   24.776800   25.442700
  S    -45.342200   26.684500   33.124500
  C    -45.441200   25.569100   34.448000
  C    -46.006600   24.354200   34.057700
  C    -46.262800   24.197200   32.642900
  C    -45.955500   25.394800   31.980000
  H    -46.130600   23.492700   34.735600
  C    -46.655400   22.854800   32.060100
  H    -47.160300   23.014300   31.049000
  H    -47.394900   22.531400   32.744600
  C    -45.622800   21.759900   31.998700
  H    -44.961800   21.694900   32.836000
  H    -45.039400   21.986600   31.119600
  C    -46.130800   20.363300   31.794600
  H    -46.824300   20.247400   30.942200
  H    -46.627300   20.064700   32.707800
  H    -45.344900   19.588200   31.522700
  H    -45.775200   26.761600   27.128000
  H    -45.327400   25.886100   35.431200

 Total Charge           Charge          ....    0
 Multiplicity           Mult            ....    1
 Number of Electrons    NEL             ....  134
 Basis Dimension        Dim             ....  322

ORBITAL ENERGIES
----------------

  NO   OCC          E(Eh)            E(eV)
   0   2.0000     -88.966257     -2420.8949
   1   2.0000     -88.965524     -2420.8750
   2   2.0000     -10.333798      -281.1969
   3   2.0000     -10.333076      -281.1773
   4   2.0000     -10.317917      -280.7648
   5   2.0000     -10.317762      -280.7606
   6   2.0000     -10.310594      -280.5655
   7   2.0000     -10.306365      -280.4505
   8   2.0000     -10.301015      -280.3049
   9   2.0000     -10.298895      -280.2472
  10   2.0000     -10.295632      -280.1584
  11   2.0000     -10.288363      -279.9606
  12   2.0000     -10.287512      -279.9374
  13   2.0000     -10.283332      -279.8237
  14   2.0000     -10.281213      -279.7660
  15   2.0000     -10.279925      -279.7310
  16   2.0000      -8.080273      -219.8754
  17   2.0000      -8.079955      -219.8668
  18   2.0000      -6.038796      -164.3240
  19   2.0000      -6.038503      -164.3160
  20   2.0000      -6.034898      -164.2179
  21   2.0000      -6.034405      -164.2045
  22   2.0000      -6.031045      -164.1131
  23   2.0000      -6.030775      -164.1057
  24   2.0000      -0.996795       -27.1242
  25   2.0000      -0.977979       -26.6122
  26   2.0000      -0.916630       -24.9428
  27   2.0000      -0.905097       -24.6289
  28   2.0000      -0.867709       -23.6116
  29   2.0000      -0.853660       -23.2293
  30   2.0000      -0.844926       -22.9916
  31   2.0000      -0.810152       -22.0453
  32   2.0000      -0.785028       -21.3617
  33   2.0000      -0.768788       -20.9198
  34   2.0000      -0.705302       -19.1922
  35   2.0000      -0.695879       -18.9358
  36   2.0000      -0.692117       -18.8335
  37   2.0000      -0.660412       -17.9707
  38   2.0000      -0.642963       -17.4959
  39   2.0000      -0.612271       -16.6607
  40   2.0000      -0.598407       -16.2835
  41   2.0000      -0.574557       -15.6345
  42   2.0000      -0.573396       -15.6029
  43   2.0000      -0.551380       -15.0038
  44   2.0000      -0.525211       -14.2917
  45   2.0000      -0.520624       -14.1669
  46   2.0000      -0.518628       -14.1126
  47   2.0000      -0.515195       -14.0192
  48   2.0000      -0.504621       -13.7314
  49   2.0000      -0.499549       -13.5934
  50   2.0000      -0.492642       -13.4055
  51   2.0000      -0.477421       -12.9913
  52   2.0000      -0.471619       -12.8334
  53   2.0000      -0.460755       -12.5378
  54   2.0000      -0.457835       -12.4583
  55   2.0000      -0.454619       -12.3708
  56   2.0000      -0.441132       -12.0038
  57   2.0000      -0.431502       -11.7418
  58   2.0000      -0.428706       -11.6657
  59   2.0000      -0.424649       -11.5553
  60   2.0000      -0.420122       -11.4321
  61   2.0000      -0.417575       -11.3628
  62   2.0000      -0.414419       -11.2769
  63   2.0000      -0.338441        -9.2095
  64   2.0000      -0.331912        -9.0318
  65   2.0000      -0.324860        -8.8399
  66   2.0000      -0.302370        -8.2279
  67   0.0000       0.034654         0.9430
  68   0.0000       0.053485         1.4554
  69   0.0000       0.112725         3.0674
  70   0.0000       0.119936         3.2636
  71   0.0000       0.125471         3.4142

MULLIKEN ATOMIC CHARGES
-----------------------
   0 S :    0.109573
   1 C :   -0.121976
   2 C :   -0.110635
   3 C :    0.049364
   4 C :   -0.189778
   5 H :    0.034238
   6 C :    0.107133
   7 H :   -0.009555
   8 H :    0.022731
   9 C :   -0.088285
  10 H :    0.013548
  11 H :    0.035770
  12 C :   -0.053785
  13 H :    0.027911
  14 H :    0.038495
  15 H :    0.047000
  16 S :    0.101094
  17 C :   -0.058522
  18 C :   -0.053491
  19 C :   -0.017239
  20 C :   -0.188115
  21 H :    0.026151
  22 C :    0.079630
  23 H :    0.043887
  24 H :    0.006766
  25 C :   -0.028004
  26 H :    0.024575
  27 H :    0.026515
  28 C :   -0.081547
  29 H :    0.028940
  30 H :    0.028115
  31 H :    0.045186
  32 H :    0.060374
  33 H :    0.043939
Sum of atomic charges:    0.0000000

LOEWDIN ATOMIC CHARGES
----------------------
   0 S :    0.396720
   1 C :   -0.204575
   2 C :   -0.065148
   3 C :   -0.058194
   4 C :   -0.190482
   5 H :    0.042010
   6 C :   -0.022232
   7 H :    0.020396
   8 H :    0.022599
   9 C :   -0.046815
  10 H :    0.016884
  11 H :    0.026565
  12 C :   -0.065495
  13 H :    0.014391
  14 H :    0.032208
  15 H :    0.035609
  16 S :    0.385028
  17 C :   -0.175839
  18 C :   -0.074009
  19 C :   -0.044033
  20 C :   -0.183994
  21 H :    0.031641
  22 C :   -0.030885
  23 H :    0.043148
  24 H :    0.024516
  25 C :   -0.042333
  26 H :    0.023674
  27 H :    0.027200
  28 C :   -0.069395
  29 H :    0.024246
  30 H :    0.019914
  31 H :    0.036819
  32 H :    0.032464
  33 H :    0.017399

  Mayer bond orders larger than 0.100000
B(  0-S ,  1-C ) :   1.1540 B(  0-S ,  4-C ) :   1.1372 B(  1-C ,  2-C ) :   1.6045
B(  1-C , 32-H ) :   0.9618 B(  2-C ,  3-C ) :   1.2368 B(  2-C ,  6-C ) :   1.0252
B(  3-C ,  4-C ) :   1.5881 B(  3-C ,  5-H ) :   0.9888 B(  4-C , 20-C ) :   1.0330
B(  6-C ,  7-H ) :   0.9335 B(  6-C ,  8-H ) :   0.9453 B(  6-C ,  9-C ) :   1.0550
B(  9-C , 10-H ) :   0.9548 B(  9-C , 11-H ) :   0.9568 B(  9-C , 12-C ) :   1.0797
B( 12-C , 13-H ) :   0.9784 B( 12-C , 14-H ) :   0.9744 B( 12-C , 15-H ) :   0.9728
B( 16-S , 17-C ) :   1.1566 B( 16-S , 20-C ) :   1.1310 B( 17-C , 18-C ) :   1.6089
B( 17-C , 33-H ) :   0.9745 B( 18-C , 19-C ) :   1.2356 B( 18-C , 21-H ) :   0.9788
B( 19-C , 20-C ) :   1.6046 B( 19-C , 22-C ) :   1.0420 B( 22-C , 23-H ) :   0.9269
B( 22-C , 24-H ) :   0.9249 B( 22-C , 25-C ) :   1.0721 B( 25-C , 26-H ) :   0.9552
B( 25-C , 27-H ) :   0.9484 B( 25-C , 28-C ) :   1.0854 B( 28-C , 29-H ) :   0.9738
B( 28-C , 30-H ) :   0.9753 B( 28-C , 31-H ) :   0.9724

Dispersion correction           -0.013495923
FINAL SINGLE POINT ENERGY     -1339.871907813251

DIPOLE MOMENT
-------------
                                X             Y             Z
Electronic contribution:     16.97210      18.36696      13.53840
Nuclear contribution   :    -17.41865     -18.78565     -13.63619
                        -----------------------------------------
Total Dipole Moment    :     -0.44655      -0.41869      -0.09779
                        -----------------------------------------
Magnitude (a.u.)       :      0.61989
Magnitude (Debye)      :      1.57564

Rotational constants in cm-1:     0.017345     0.007641     0.006228
Rotational constants in MHz :   519.999349   229.074098   186.719388

                             ****ORCA TERMINATED NORMALLY****
TOTAL RUN TIME: 0 days 0 hours 0 minutes 20 seconds 433 msec
