                         Program Version 4.2.1 -  RELEASE  -
|  1> ! wB97X-D3 SP def2-SVP
|  2> %pal
|  3> nprocs 24
|  4> end
|  5>
|  6> * xyz 0 1
|  7> S 	 -54.0203 	 -50.0472 	 -78.6166
|  8> C 	 -52.8875 	 -48.6772 	 -79.0216
|  9> C 	 -52.393 	 -48.8686 	 -80.3337
| 10> C 	 -52.9947 	 -49.9878 	 -80.9763
| 11> C 	 -53.9763 	 -50.6523 	 -80.2543
| 12> H 	 -52.68 	 -50.461 	 -81.8943
| 13> C 	 -51.2187 	 -48.0407 	 -80.8911
| 14> H 	 -50.8524 	 -48.6435 	 -81.7128
| 15> H 	 -50.4869 	 -48.0451 	 -80.1677
| 16> C 	 -51.4914 	 -46.6005 	 -81.3006
| 17> H 	 -50.5812 	 -46.234 	 -81.7165
| 18> H 	 -52.2835 	 -46.7205 	 -82.0602
| 19> C 	 -51.8855 	 -45.6682 	 -80.2192
| 20> H 	 -51.0232 	 -45.4531 	 -79.592
| 21> H 	 -52.1603 	 -44.6935 	 -80.516
| 22> H 	 -52.7155 	 -46.1081 	 -79.6879
| 23> S 	 -54.3149 	 -53.2333 	 -79.3562
| 24> C 	 -54.9781 	 -54.4397 	 -80.3639
| 25> C 	 -55.1567 	 -53.9981 	 -81.6554
| 26> C 	 -55.0734 	 -52.5084 	 -81.7045
| 27> C 	 -54.491 	 -51.9766 	 -80.5831
| 28> H 	 -55.4678 	 -54.6845 	 -82.5278
| 29> C 	 -55.4069 	 -51.814 	 -83.0085
| 30> H 	 -54.7436 	 -52.2455 	 -83.7369
| 31> H 	 -55.2902 	 -50.7295 	 -82.8702
| 32> C 	 -56.8557 	 -52.2132 	 -83.5147
| 33> H 	 -57.5264 	 -52.0711 	 -82.7176
| 34> H 	 -56.8353 	 -53.2973 	 -83.7621
| 35> C 	 -57.1549 	 -51.5098 	 -84.8787
| 36> H 	 -56.2826 	 -51.5863 	 -85.5124
| 37> H 	 -57.3591 	 -50.4103 	 -84.7131
| 38> H 	 -58.1029 	 -51.9624 	 -85.2476
| 39> H 	 -52.377 	 -47.9446 	 -78.3914
| 40> H 	 -55.1724 	 -55.4916 	 -80.1728
| 41> *
| 42>
| 43>                          ****END OF INPUT****

CARTESIAN COORDINATES (ANGSTROEM)
---------------------------------
  S    -54.020300  -50.047200  -78.616600
  C    -52.887500  -48.677200  -79.021600
  C    -52.393000  -48.868600  -80.333700
  C    -52.994700  -49.987800  -80.976300
  C    -53.976300  -50.652300  -80.254300
  H    -52.680000  -50.461000  -81.894300
  C    -51.218700  -48.040700  -80.891100
  H    -50.852400  -48.643500  -81.712800
  H    -50.486900  -48.045100  -80.167700
  C    -51.491400  -46.600500  -81.300600
  H    -50.581200  -46.234000  -81.716500
  H    -52.283500  -46.720500  -82.060200
  C    -51.885500  -45.668200  -80.219200
  H    -51.023200  -45.453100  -79.592000
  H    -52.160300  -44.693500  -80.516000
  H    -52.715500  -46.108100  -79.687900
  S    -54.314900  -53.233300  -79.356200
  C    -54.978100  -54.439700  -80.363900
  C    -55.156700  -53.998100  -81.655400
  C    -55.073400  -52.508400  -81.704500
  C    -54.491000  -51.976600  -80.583100
  H    -55.467800  -54.684500  -82.527800
  C    -55.406900  -51.814000  -83.008500
  H    -54.743600  -52.245500  -83.736900
  H    -55.290200  -50.729500  -82.870200
  C    -56.855700  -52.213200  -83.514700
  H    -57.526400  -52.071100  -82.717600
  H    -56.835300  -53.297300  -83.762100
  C    -57.154900  -51.509800  -84.878700
  H    -56.282600  -51.586300  -85.512400
  H    -57.359100  -50.410300  -84.713100
  H    -58.102900  -51.962400  -85.247600
  H    -52.377000  -47.944600  -78.391400
  H    -55.172400  -55.491600  -80.172800

 Total Charge           Charge          ....    0
 Multiplicity           Mult            ....    1
 Number of Electrons    NEL             ....  134
 Basis Dimension        Dim             ....  322

ORBITAL ENERGIES
----------------

  NO   OCC          E(Eh)            E(eV)
   0   2.0000     -88.971011     -2421.0243
   1   2.0000     -88.962718     -2420.7986
   2   2.0000     -10.331937      -281.1463
   3   2.0000     -10.326855      -281.0080
   4   2.0000     -10.323704      -280.9223
   5   2.0000     -10.314985      -280.6850
   6   2.0000     -10.306957      -280.4666
   7   2.0000     -10.305292      -280.4213
   8   2.0000     -10.301961      -280.3306
   9   2.0000     -10.296265      -280.1756
  10   2.0000     -10.291974      -280.0588
  11   2.0000     -10.287822      -279.9459
  12   2.0000     -10.286746      -279.9166
  13   2.0000     -10.286142      -279.9002
  14   2.0000     -10.282047      -279.7887
  15   2.0000     -10.269920      -279.4587
  16   2.0000      -8.084223      -219.9829
  17   2.0000      -8.078159      -219.8179
  18   2.0000      -6.042880      -164.4351
  19   2.0000      -6.038976      -164.3289
  20   2.0000      -6.036888      -164.2721
  21   2.0000      -6.034847      -164.2165
  22   2.0000      -6.032550      -164.1540
  23   2.0000      -6.028631      -164.0474
  24   2.0000      -1.005814       -27.3696
  25   2.0000      -0.979733       -26.6599
  26   2.0000      -0.920170       -25.0391
  27   2.0000      -0.904708       -24.6183
  28   2.0000      -0.870307       -23.6823
  29   2.0000      -0.850520       -23.1438
  30   2.0000      -0.839612       -22.8470
  31   2.0000      -0.814171       -22.1547
  32   2.0000      -0.788326       -21.4514
  33   2.0000      -0.770948       -20.9786
  34   2.0000      -0.706296       -19.2193
  35   2.0000      -0.697359       -18.9761
  36   2.0000      -0.696752       -18.9596
  37   2.0000      -0.653597       -17.7853
  38   2.0000      -0.638473       -17.3737
  39   2.0000      -0.615161       -16.7394
  40   2.0000      -0.590100       -16.0574
  41   2.0000      -0.580227       -15.7888
  42   2.0000      -0.567694       -15.4477
  43   2.0000      -0.552949       -15.0465
  44   2.0000      -0.546631       -14.8746
  45   2.0000      -0.524005       -14.2589
  46   2.0000      -0.515737       -14.0339
  47   2.0000      -0.514907       -14.0113
  48   2.0000      -0.505786       -13.7631
  49   2.0000      -0.497011       -13.5244
  50   2.0000      -0.486363       -13.2346
  51   2.0000      -0.483031       -13.1439
  52   2.0000      -0.474192       -12.9034
  53   2.0000      -0.465248       -12.6600
  54   2.0000      -0.455235       -12.3876
  55   2.0000      -0.451702       -12.2914
  56   2.0000      -0.447147       -12.1675
  57   2.0000      -0.439226       -11.9520
  58   2.0000      -0.436139       -11.8679
  59   2.0000      -0.422412       -11.4944
  60   2.0000      -0.419082       -11.4038
  61   2.0000      -0.413160       -11.2427
  62   2.0000      -0.409778       -11.1506
  63   2.0000      -0.348231        -9.4758
  64   2.0000      -0.332346        -9.0436
  65   2.0000      -0.322736        -8.7821
  66   2.0000      -0.292293        -7.9537
  67   0.0000       0.022405         0.6097
  68   0.0000       0.073969         2.0128
  69   0.0000       0.099856         2.7172
  70   0.0000       0.118411         3.2221
  71   0.0000       0.126976         3.4552

MULLIKEN ATOMIC CHARGES
-----------------------
   0 S :    0.100043
   1 C :   -0.115903
   2 C :   -0.134934
   3 C :    0.025999
   4 C :   -0.136374
   5 H :    0.016228
   6 C :    0.099431
   7 H :    0.017115
   8 H :    0.004375
   9 C :   -0.033996
  10 H :    0.020982
  11 H :    0.028926
  12 C :   -0.033287
  13 H :    0.020010
  14 H :    0.021537
  15 H :    0.032557
  16 S :    0.104781
  17 C :   -0.075393
  18 C :   -0.079621
  19 C :   -0.083490
  20 C :   -0.132419
  21 H :    0.057551
  22 C :    0.062562
  23 H :    0.029282
  24 H :    0.037534
  25 C :   -0.113133
  26 H :    0.033164
  27 H :    0.029434
  28 C :   -0.043227
  29 H :    0.034117
  30 H :    0.039560
  31 H :    0.046073
  32 H :    0.062773
  33 H :    0.057745
Sum of atomic charges:   -0.0000000

LOEWDIN ATOMIC CHARGES
----------------------
   0 S :    0.388941
   1 C :   -0.189154
   2 C :   -0.057262
   3 C :   -0.062324
   4 C :   -0.196476
   5 H :    0.031019
   6 C :   -0.021398
   7 H :    0.032413
   8 H :    0.017111
   9 C :   -0.034228
  10 H :    0.021549
  11 H :    0.027148
  12 C :   -0.064022
  13 H :    0.025771
  14 H :    0.023268
  15 H :    0.024994
  16 S :    0.405820
  17 C :   -0.200312
  18 C :   -0.083355
  19 C :   -0.056799
  20 C :   -0.198522
  21 H :    0.044074
  22 C :   -0.032052
  23 H :    0.030159
  24 H :    0.030354
  25 C :   -0.033972
  26 H :    0.017039
  27 H :    0.023232
  28 C :   -0.067624
  29 H :    0.023717
  30 H :    0.029824
  31 H :    0.031435
  32 H :    0.034030
  33 H :    0.035602

  Mayer bond orders larger than 0.100000
B(  0-S ,  1-C ) :   1.1269 B(  0-S ,  4-C ) :   1.1471 B(  1-C ,  2-C ) :   1.5935
B(  1-C ,  4-C ) :   0.1010 B(  1-C , 32-H ) :   0.9584 B(  2-C ,  3-C ) :   1.2710
B(  2-C ,  6-C ) :   1.0071 B(  3-C ,  4-C ) :   1.5521 B(  3-C ,  5-H ) :   0.9889
B(  4-C , 20-C ) :   1.0508 B(  6-C ,  7-H ) :   0.9392 B(  6-C ,  8-H ) :   0.9353
B(  6-C ,  9-C ) :   1.0743 B(  9-C , 10-H ) :   0.9516 B(  9-C , 11-H ) :   0.9532
B(  9-C , 12-C ) :   1.0942 B( 12-C , 13-H ) :   0.9701 B( 12-C , 14-H ) :   0.9673
B( 12-C , 15-H ) :   0.9670 B( 16-S , 17-C ) :   1.1501 B( 16-S , 20-C ) :   1.1014
B( 17-C , 18-C ) :   1.6530 B( 17-C , 33-H ) :   0.9636 B( 18-C , 19-C ) :   1.1892
B( 18-C , 21-H ) :   0.9689 B( 19-C , 20-C ) :   1.6498 B( 19-C , 22-C ) :   1.0616
B( 22-C , 23-H ) :   0.9289 B( 22-C , 24-H ) :   0.9410 B( 22-C , 25-C ) :   1.0545
B( 25-C , 26-H ) :   0.9655 B( 25-C , 27-H ) :   0.9542 B( 25-C , 28-C ) :   1.0725
B( 28-C , 29-H ) :   0.9716 B( 28-C , 30-H ) :   0.9766 B( 28-C , 31-H ) :   0.9756

Dispersion correction           -0.013506372
FINAL SINGLE POINT ENERGY     -1339.858470270030

DIPOLE MOMENT
-------------
                                X             Y             Z
Electronic contribution:     -0.42196     -15.50747      20.90585
Nuclear contribution   :      0.75466      15.57835     -21.53282
                        -----------------------------------------
Total Dipole Moment    :      0.33270       0.07089      -0.62697
                        -----------------------------------------
Magnitude (a.u.)       :      0.71331
Magnitude (Debye)      :      1.81308

Rotational constants in cm-1:     0.019292     0.007726     0.006009
Rotational constants in MHz :   578.360753   231.607159   180.143830

                             ****ORCA TERMINATED NORMALLY****
TOTAL RUN TIME: 0 days 0 hours 0 minutes 21 seconds 27 msec
