                         Program Version 4.2.1 -  RELEASE  -
|  1> ! wB97X-D3 SP def2-SVP
|  2> %pal
|  3> nprocs 24
|  4> end
|  5>
|  6> * xyz 0 1
|  7> S 	 -61.5288 	 9.22831 	 23.0342
|  8> C 	 -60.6412 	 10.4566 	 22.1009
|  9> C 	 -59.5558 	 9.82403 	 21.3782
| 10> C 	 -59.4713 	 8.46967 	 21.6687
| 11> C 	 -60.3405 	 8.02276 	 22.5856
| 12> H 	 -58.8977 	 7.739 	 21.1317
| 13> C 	 -58.7386 	 10.4555 	 20.2331
| 14> H 	 -59.3211 	 10.3398 	 19.3388
| 15> H 	 -57.8875 	 9.75159 	 19.9019
| 16> C 	 -58.2736 	 11.9061 	 20.444
| 17> H 	 -57.9423 	 12.4765 	 19.5479
| 18> H 	 -59.2285 	 12.4867 	 20.6451
| 19> C 	 -57.1757 	 12.1261 	 21.5456
| 20> H 	 -56.7188 	 13.1082 	 21.5343
| 21> H 	 -57.5642 	 11.8428 	 22.5322
| 22> H 	 -56.3707 	 11.4439 	 21.4136
| 23> S 	 -59.8521 	 6.36911 	 24.6597
| 24> C 	 -60.237 	 4.59349 	 24.5023
| 25> C 	 -60.6594 	 4.25248 	 23.2098
| 26> C 	 -60.6766 	 5.36471 	 22.3225
| 27> C 	 -60.43 	 6.63608 	 23.0043
| 28> H 	 -60.9464 	 3.2084 	 23.057
| 29> C 	 -61.1453 	 5.39148 	 20.894
| 30> H 	 -60.2609 	 5.48376 	 20.2442
| 31> H 	 -61.5759 	 6.3909 	 20.8546
| 32> C 	 -62.2516 	 4.3943 	 20.3956
| 33> H 	 -61.8307 	 3.34542 	 20.5226
| 34> H 	 -62.3429 	 4.6459 	 19.3685
| 35> C 	 -63.6044 	 4.39243 	 21.1492
| 36> H 	 -64.1756 	 5.36012 	 21.0061
| 37> H 	 -63.5836 	 4.28693 	 22.1953
| 38> H 	 -64.194 	 3.56837 	 20.8223
| 39> H 	 -60.9234 	 11.481 	 21.8822
| 40> H 	 -60.0834 	 3.8678 	 25.2481
| 41> *
| 42>
| 43>                          ****END OF INPUT****

CARTESIAN COORDINATES (ANGSTROEM)
---------------------------------
  S    -61.528800    9.228310   23.034200
  C    -60.641200   10.456600   22.100900
  C    -59.555800    9.824030   21.378200
  C    -59.471300    8.469670   21.668700
  C    -60.340500    8.022760   22.585600
  H    -58.897700    7.739000   21.131700
  C    -58.738600   10.455500   20.233100
  H    -59.321100   10.339800   19.338800
  H    -57.887500    9.751590   19.901900
  C    -58.273600   11.906100   20.444000
  H    -57.942300   12.476500   19.547900
  H    -59.228500   12.486700   20.645100
  C    -57.175700   12.126100   21.545600
  H    -56.718800   13.108200   21.534300
  H    -57.564200   11.842800   22.532200
  H    -56.370700   11.443900   21.413600
  S    -59.852100    6.369110   24.659700
  C    -60.237000    4.593490   24.502300
  C    -60.659400    4.252480   23.209800
  C    -60.676600    5.364710   22.322500
  C    -60.430000    6.636080   23.004300
  H    -60.946400    3.208400   23.057000
  C    -61.145300    5.391480   20.894000
  H    -60.260900    5.483760   20.244200
  H    -61.575900    6.390900   20.854600
  C    -62.251600    4.394300   20.395600
  H    -61.830700    3.345420   20.522600
  H    -62.342900    4.645900   19.368500
  C    -63.604400    4.392430   21.149200
  H    -64.175600    5.360120   21.006100
  H    -63.583600    4.286930   22.195300
  H    -64.194000    3.568370   20.822300
  H    -60.923400   11.481000   21.882200
  H    -60.083400    3.867800   25.248100

 Total Charge           Charge          ....    0
 Multiplicity           Mult            ....    1
 Number of Electrons    NEL             ....  134
 Basis Dimension        Dim             ....  322

ORBITAL ENERGIES
----------------

  NO   OCC          E(Eh)            E(eV)
   0   2.0000     -88.973366     -2421.0884
   1   2.0000     -88.965732     -2420.8806
   2   2.0000     -10.329730      -281.0862
   3   2.0000     -10.324041      -280.9314
   4   2.0000     -10.323678      -280.9216
   5   2.0000     -10.319743      -280.8145
   6   2.0000     -10.312417      -280.6151
   7   2.0000     -10.307910      -280.4925
   8   2.0000     -10.302767      -280.3526
   9   2.0000     -10.299941      -280.2756
  10   2.0000     -10.299183      -280.2550
  11   2.0000     -10.295843      -280.1641
  12   2.0000     -10.291136      -280.0361
  13   2.0000     -10.285813      -279.8912
  14   2.0000     -10.276540      -279.6389
  15   2.0000     -10.275627      -279.6140
  16   2.0000      -8.087057      -220.0600
  17   2.0000      -8.078776      -219.8347
  18   2.0000      -6.045589      -164.5089
  19   2.0000      -6.041730      -164.4038
  20   2.0000      -6.037817      -164.2974
  21   2.0000      -6.037244      -164.2818
  22   2.0000      -6.033498      -164.1798
  23   2.0000      -6.029703      -164.0766
  24   2.0000      -1.003247       -27.2997
  25   2.0000      -0.971222       -26.4283
  26   2.0000      -0.904599       -24.6154
  27   2.0000      -0.900166       -24.4948
  28   2.0000      -0.864730       -23.5305
  29   2.0000      -0.851943       -23.1825
  30   2.0000      -0.842966       -22.9383
  31   2.0000      -0.813531       -22.1373
  32   2.0000      -0.784259       -21.3408
  33   2.0000      -0.767824       -20.8936
  34   2.0000      -0.710180       -19.3250
  35   2.0000      -0.705391       -19.1947
  36   2.0000      -0.695203       -18.9174
  37   2.0000      -0.649061       -17.6619
  38   2.0000      -0.642288       -17.4775
  39   2.0000      -0.614161       -16.7122
  40   2.0000      -0.588622       -16.0172
  41   2.0000      -0.570117       -15.5137
  42   2.0000      -0.553361       -15.0577
  43   2.0000      -0.548832       -14.9345
  44   2.0000      -0.538786       -14.6611
  45   2.0000      -0.530253       -14.4289
  46   2.0000      -0.522219       -14.2103
  47   2.0000      -0.506049       -13.7703
  48   2.0000      -0.497251       -13.5309
  49   2.0000      -0.491320       -13.3695
  50   2.0000      -0.487719       -13.2715
  51   2.0000      -0.475480       -12.9385
  52   2.0000      -0.469446       -12.7743
  53   2.0000      -0.465775       -12.6744
  54   2.0000      -0.456171       -12.4130
  55   2.0000      -0.449959       -12.2440
  56   2.0000      -0.444875       -12.1057
  57   2.0000      -0.439687       -11.9645
  58   2.0000      -0.436070       -11.8661
  59   2.0000      -0.426370       -11.6021
  60   2.0000      -0.419514       -11.4156
  61   2.0000      -0.410105       -11.1595
  62   2.0000      -0.409037       -11.1305
  63   2.0000      -0.343751        -9.3540
  64   2.0000      -0.332531        -9.0486
  65   2.0000      -0.318019        -8.6537
  66   2.0000      -0.293132        -7.9765
  67   0.0000       0.028426         0.7735
  68   0.0000       0.050456         1.3730
  69   0.0000       0.105685         2.8758
  70   0.0000       0.112998         3.0748
  71   0.0000       0.125293         3.4094

MULLIKEN ATOMIC CHARGES
-----------------------
   0 S :    0.133571
   1 C :   -0.124973
   2 C :   -0.071567
   3 C :    0.040032
   4 C :   -0.166916
   5 H :    0.009218
   6 C :    0.034828
   7 H :    0.038189
   8 H :    0.030215
   9 C :   -0.100290
  10 H :    0.031155
  11 H :    0.026255
  12 C :   -0.027093
  13 H :    0.038194
  14 H :    0.039098
  15 H :    0.016668
  16 S :    0.100485
  17 C :   -0.082913
  18 C :   -0.053220
  19 C :   -0.012035
  20 C :   -0.192165
  21 H :    0.030786
  22 C :    0.038501
  23 H :    0.041045
  24 H :    0.029620
  25 C :   -0.060002
  26 H :    0.035675
  27 H :    0.033180
  28 C :   -0.043970
  29 H :    0.037826
  30 H :    0.026753
  31 H :    0.030291
  32 H :    0.054308
  33 H :    0.039252
Sum of atomic charges:    0.0000000

LOEWDIN ATOMIC CHARGES
----------------------
   0 S :    0.412355
   1 C :   -0.198305
   2 C :   -0.055574
   3 C :   -0.060991
   4 C :   -0.210615
   5 H :    0.033398
   6 C :   -0.039815
   7 H :    0.034074
   8 H :    0.035717
   9 C :   -0.051238
  10 H :    0.028021
  11 H :    0.026099
  12 C :   -0.064276
  13 H :    0.027311
  14 H :    0.029097
  15 H :    0.020878
  16 S :    0.380258
  17 C :   -0.160129
  18 C :   -0.074118
  19 C :   -0.049839
  20 C :   -0.198451
  21 H :    0.037986
  22 C :   -0.045221
  23 H :    0.035040
  24 H :    0.034429
  25 C :   -0.035294
  26 H :    0.027684
  27 H :    0.024808
  28 C :   -0.066511
  29 H :    0.033210
  30 H :    0.020334
  31 H :    0.025234
  32 H :    0.027022
  33 H :    0.017422

  Mayer bond orders larger than 0.100000
B(  0-S ,  1-C ) :   1.1482 B(  0-S ,  4-C ) :   1.1494 B(  1-C ,  2-C ) :   1.5613
B(  1-C ,  4-C ) :   0.1086 B(  1-C , 32-H ) :   0.9684 B(  2-C ,  3-C ) :   1.2736
B(  2-C ,  6-C ) :   1.0033 B(  3-C ,  4-C ) :   1.5700 B(  3-C ,  5-H ) :   0.9991
B(  4-C , 20-C ) :   1.0236 B(  6-C ,  7-H ) :   0.9365 B(  6-C ,  8-H ) :   0.9479
B(  6-C ,  9-C ) :   1.0675 B(  9-C , 10-H ) :   0.9578 B(  9-C , 11-H ) :   0.9531
B(  9-C , 12-C ) :   1.0640 B( 12-C , 13-H ) :   0.9776 B( 12-C , 14-H ) :   0.9761
B( 12-C , 15-H ) :   0.9743 B( 16-S , 17-C ) :   1.1491 B( 16-S , 20-C ) :   1.1558
B( 17-C , 18-C ) :   1.6090 B( 17-C , 20-C ) :   0.1222 B( 17-C , 33-H ) :   0.9707
B( 18-C , 19-C ) :   1.2438 B( 18-C , 21-H ) :   0.9864 B( 19-C , 20-C ) :   1.5453
B( 19-C , 22-C ) :   1.0330 B( 22-C , 23-H ) :   0.9260 B( 22-C , 24-H ) :   0.9348
B( 22-C , 25-C ) :   1.0672 B( 25-C , 26-H ) :   0.9554 B( 25-C , 27-H ) :   0.9541
B( 25-C , 28-C ) :   1.0758 B( 28-C , 29-H ) :   0.9734 B( 28-C , 30-H ) :   0.9748
B( 28-C , 31-H ) :   0.9738

Dispersion correction           -0.014554739
FINAL SINGLE POINT ENERGY     -1339.850020399159

DIPOLE MOMENT
-------------
                                X             Y             Z
Electronic contribution:     -2.22785      -2.88607      18.12130
Nuclear contribution   :      2.24999       2.72977     -18.83636
                        -----------------------------------------
Total Dipole Moment    :      0.02215      -0.15630      -0.71506
                        -----------------------------------------
Magnitude (a.u.)       :      0.73227
Magnitude (Debye)      :      1.86129

Rotational constants in cm-1:     0.022263     0.007344     0.006556
Rotational constants in MHz :   667.421731   220.173619   196.529223

                             ****ORCA TERMINATED NORMALLY****
TOTAL RUN TIME: 0 days 0 hours 0 minutes 21 seconds 409 msec
