                         Program Version 4.2.1 -  RELEASE  -
|  1> ! wB97X-D3 SP def2-SVP
|  2> %pal
|  3> nprocs 24
|  4> end
|  5>
|  6> * xyz 0 1
|  7> S 	 -49.7629 	 10.8033 	 -19.2733
|  8> C 	 -50.9736 	 10.6148 	 -17.9216
|  9> C 	 -50.8843 	 11.6914 	 -17.0479
| 10> C 	 -49.9723 	 12.7272 	 -17.5183
| 11> C 	 -49.3369 	 12.447 	 -18.6907
| 12> H 	 -49.769 	 13.6398 	 -16.9783
| 13> C 	 -51.7516 	 11.9781 	 -15.8327
| 14> H 	 -52.2593 	 11.0844 	 -15.4724
| 15> H 	 -52.339 	 12.846 	 -16.0936
| 16> C 	 -50.9846 	 12.3692 	 -14.5429
| 17> H 	 -50.3854 	 11.5451 	 -14.2419
| 18> H 	 -50.2985 	 13.2119 	 -14.7329
| 19> C 	 -51.8266 	 12.6765 	 -13.3383
| 20> H 	 -52.338 	 13.6643 	 -13.2899
| 21> H 	 -52.6069 	 11.9522 	 -13.195
| 22> H 	 -51.1533 	 12.6719 	 -12.4661
| 23> S 	 -48.8645 	 13.8966 	 -21.0933
| 24> C 	 -47.2631 	 14.4551 	 -21.3785
| 25> C 	 -46.5706 	 14.5409 	 -20.1738
| 26> C 	 -47.2081 	 13.8603 	 -19.0991
| 27> C 	 -48.3872 	 13.2954 	 -19.4827
| 28> H 	 -45.6075 	 14.9976 	 -20.1701
| 29> C 	 -46.5809 	 13.577 	 -17.7645
| 30> H 	 -47.3523 	 13.1357 	 -17.1332
| 31> H 	 -46.2621 	 14.5211 	 -17.2752
| 32> C 	 -45.4583 	 12.5076 	 -17.8134
| 33> H 	 -44.7479 	 12.9581 	 -18.4819
| 34> H 	 -45.754 	 11.5946 	 -18.2752
| 35> C 	 -44.833 	 12.0757 	 -16.4003
| 36> H 	 -45.3327 	 11.2838 	 -15.8867
| 37> H 	 -44.5169 	 12.7957 	 -15.5908
| 38> H 	 -43.8917 	 11.5222 	 -16.535
| 39> H 	 -51.5967 	 9.75251 	 -17.7794
| 40> H 	 -47.0724 	 15.0529 	 -22.2979
| 41> *
| 42>
| 43>                          ****END OF INPUT****

CARTESIAN COORDINATES (ANGSTROEM)
---------------------------------
  S    -49.762900   10.803300  -19.273300
  C    -50.973600   10.614800  -17.921600
  C    -50.884300   11.691400  -17.047900
  C    -49.972300   12.727200  -17.518300
  C    -49.336900   12.447000  -18.690700
  H    -49.769000   13.639800  -16.978300
  C    -51.751600   11.978100  -15.832700
  H    -52.259300   11.084400  -15.472400
  H    -52.339000   12.846000  -16.093600
  C    -50.984600   12.369200  -14.542900
  H    -50.385400   11.545100  -14.241900
  H    -50.298500   13.211900  -14.732900
  C    -51.826600   12.676500  -13.338300
  H    -52.338000   13.664300  -13.289900
  H    -52.606900   11.952200  -13.195000
  H    -51.153300   12.671900  -12.466100
  S    -48.864500   13.896600  -21.093300
  C    -47.263100   14.455100  -21.378500
  C    -46.570600   14.540900  -20.173800
  C    -47.208100   13.860300  -19.099100
  C    -48.387200   13.295400  -19.482700
  H    -45.607500   14.997600  -20.170100
  C    -46.580900   13.577000  -17.764500
  H    -47.352300   13.135700  -17.133200
  H    -46.262100   14.521100  -17.275200
  C    -45.458300   12.507600  -17.813400
  H    -44.747900   12.958100  -18.481900
  H    -45.754000   11.594600  -18.275200
  C    -44.833000   12.075700  -16.400300
  H    -45.332700   11.283800  -15.886700
  H    -44.516900   12.795700  -15.590800
  H    -43.891700   11.522200  -16.535000
  H    -51.596700    9.752510  -17.779400
  H    -47.072400   15.052900  -22.297900

 Total Charge           Charge          ....    0
 Multiplicity           Mult            ....    1
 Number of Electrons    NEL             ....  134
 Basis Dimension        Dim             ....  322

ORBITAL ENERGIES
----------------

  NO   OCC          E(Eh)            E(eV)
   0   2.0000     -88.964392     -2420.8442
   1   2.0000     -88.963155     -2420.8105
   2   2.0000     -10.335836      -281.2524
   3   2.0000     -10.328257      -281.0462
   4   2.0000     -10.321480      -280.8617
   5   2.0000     -10.319714      -280.8137
   6   2.0000     -10.307540      -280.4824
   7   2.0000     -10.301792      -280.3260
   8   2.0000     -10.296576      -280.1841
   9   2.0000     -10.294764      -280.1348
  10   2.0000     -10.294460      -280.1265
  11   2.0000     -10.290799      -280.0269
  12   2.0000     -10.290204      -280.0107
  13   2.0000     -10.284757      -279.8625
  14   2.0000     -10.282302      -279.7957
  15   2.0000     -10.280064      -279.7348
  16   2.0000      -8.078228      -219.8198
  17   2.0000      -8.077391      -219.7970
  18   2.0000      -6.036597      -164.2642
  19   2.0000      -6.036133      -164.2515
  20   2.0000      -6.032837      -164.1618
  21   2.0000      -6.032252      -164.1459
  22   2.0000      -6.028951      -164.0561
  23   2.0000      -6.027880      -164.0270
  24   2.0000      -1.003651       -27.3107
  25   2.0000      -0.977503       -26.5992
  26   2.0000      -0.913483       -24.8571
  27   2.0000      -0.904114       -24.6022
  28   2.0000      -0.865997       -23.5650
  29   2.0000      -0.846741       -23.0410
  30   2.0000      -0.841109       -22.8877
  31   2.0000      -0.814044       -22.1513
  32   2.0000      -0.783815       -21.3287
  33   2.0000      -0.774026       -21.0623
  34   2.0000      -0.709237       -19.2993
  35   2.0000      -0.699213       -19.0266
  36   2.0000      -0.693044       -18.8587
  37   2.0000      -0.659372       -17.9424
  38   2.0000      -0.641380       -17.4528
  39   2.0000      -0.622662       -16.9435
  40   2.0000      -0.596498       -16.2315
  41   2.0000      -0.575578       -15.6623
  42   2.0000      -0.565833       -15.3971
  43   2.0000      -0.555659       -15.1203
  44   2.0000      -0.527058       -14.3420
  45   2.0000      -0.516809       -14.0631
  46   2.0000      -0.515522       -14.0281
  47   2.0000      -0.510179       -13.8827
  48   2.0000      -0.504997       -13.7417
  49   2.0000      -0.497596       -13.5403
  50   2.0000      -0.487701       -13.2710
  51   2.0000      -0.478840       -13.0299
  52   2.0000      -0.467321       -12.7164
  53   2.0000      -0.465262       -12.6604
  54   2.0000      -0.459672       -12.5083
  55   2.0000      -0.450508       -12.2590
  56   2.0000      -0.445194       -12.1143
  57   2.0000      -0.440054       -11.9745
  58   2.0000      -0.426546       -11.6069
  59   2.0000      -0.423058       -11.5120
  60   2.0000      -0.420753       -11.4493
  61   2.0000      -0.418553       -11.3894
  62   2.0000      -0.410369       -11.1667
  63   2.0000      -0.339385        -9.2351
  64   2.0000      -0.332590        -9.0502
  65   2.0000      -0.324168        -8.8211
  66   2.0000      -0.304071        -8.2742
  67   0.0000       0.030101         0.8191
  68   0.0000       0.063475         1.7272
  69   0.0000       0.107013         2.9120
  70   0.0000       0.110184         2.9983
  71   0.0000       0.124739         3.3943

MULLIKEN ATOMIC CHARGES
-----------------------
   0 S :    0.087987
   1 C :   -0.123785
   2 C :   -0.070353
   3 C :    0.046253
   4 C :   -0.164313
   5 H :    0.017093
   6 C :    0.080942
   7 H :    0.021394
   8 H :    0.044529
   9 C :   -0.107957
  10 H :    0.024040
  11 H :    0.028275
  12 C :   -0.042921
  13 H :    0.033342
  14 H :    0.021011
  15 H :    0.035572
  16 S :    0.108954
  17 C :   -0.105361
  18 C :   -0.044670
  19 C :   -0.004840
  20 C :   -0.178177
  21 H :    0.014355
  22 C :    0.069542
  23 H :    0.017788
  24 H :    0.037150
  25 C :   -0.028058
  26 H :    0.020304
  27 H :    0.030079
  28 C :   -0.077547
  29 H :    0.026059
  30 H :    0.039097
  31 H :    0.020681
  32 H :    0.045341
  33 H :    0.078191
Sum of atomic charges:   -0.0000000

LOEWDIN ATOMIC CHARGES
----------------------
   0 S :    0.353351
   1 C :   -0.171834
   2 C :   -0.058802
   3 C :   -0.060613
   4 C :   -0.172226
   5 H :    0.030639
   6 C :   -0.028554
   7 H :    0.030995
   8 H :    0.035918
   9 C :   -0.044105
  10 H :    0.021929
  11 H :    0.021304
  12 C :   -0.066806
  13 H :    0.026768
  14 H :    0.019865
  15 H :    0.032092
  16 S :    0.402880
  17 C :   -0.194797
  18 C :   -0.070723
  19 C :   -0.055940
  20 C :   -0.190081
  21 H :    0.026900
  22 C :   -0.033855
  23 H :    0.028379
  24 H :    0.035085
  25 C :   -0.024602
  26 H :    0.019129
  27 H :    0.027158
  28 C :   -0.087414
  29 H :    0.022615
  30 H :    0.031176
  31 H :    0.030526
  32 H :    0.026560
  33 H :    0.037083

  Mayer bond orders larger than 0.100000
B(  0-S ,  1-C ) :   1.1070 B(  0-S ,  4-C ) :   1.1292 B(  1-C ,  2-C ) :   1.6506
B(  1-C , 32-H ) :   0.9729 B(  2-C ,  3-C ) :   1.1841 B(  2-C ,  6-C ) :   1.0361
B(  3-C ,  4-C ) :   1.6367 B(  3-C ,  5-H ) :   0.9881 B(  4-C , 20-C ) :   1.0053
B(  6-C ,  7-H ) :   0.9415 B(  6-C ,  8-H ) :   0.9415 B(  6-C ,  9-C ) :   1.0597
B(  9-C , 10-H ) :   0.9563 B(  9-C , 11-H ) :   0.9516 B(  9-C , 12-C ) :   1.0943
B( 12-C , 13-H ) :   0.9731 B( 12-C , 14-H ) :   0.9708 B( 12-C , 15-H ) :   0.9736
B( 16-S , 17-C ) :   1.1660 B( 16-S , 20-C ) :   1.1515 B( 17-C , 18-C ) :   1.5934
B( 17-C , 33-H ) :   0.9614 B( 18-C , 19-C ) :   1.2255 B( 18-C , 21-H ) :   0.9975
B( 19-C , 20-C ) :   1.6035 B( 19-C , 22-C ) :   1.0582 B( 22-C , 23-H ) :   0.9264
B( 22-C , 24-H ) :   0.9321 B( 22-C , 25-C ) :   1.0591 B( 25-C , 26-H ) :   0.9642
B( 25-C , 27-H ) :   0.9544 B( 25-C , 28-C ) :   1.0601 B( 28-C , 29-H ) :   0.9778
B( 28-C , 30-H ) :   0.9797 B( 28-C , 31-H ) :   0.9717

Dispersion correction           -0.013834079
FINAL SINGLE POINT ENERGY     -1339.867665634912

DIPOLE MOMENT
-------------
                                X             Y             Z
Electronic contribution:     -5.61817      -0.17223     -29.28872
Nuclear contribution   :      5.75332       0.38619      29.96554
                        -----------------------------------------
Total Dipole Moment    :      0.13515       0.21396       0.67682
                        -----------------------------------------
Magnitude (a.u.)       :      0.72259
Magnitude (Debye)      :      1.83667

Rotational constants in cm-1:     0.016950     0.008404     0.006839
Rotational constants in MHz :   508.159138   251.956619   205.031281

                             ****ORCA TERMINATED NORMALLY****
TOTAL RUN TIME: 0 days 0 hours 0 minutes 20 seconds 197 msec
