                         Program Version 4.2.1 -  RELEASE  -
|  1> ! wB97X-D3 SP def2-SVP
|  2> %pal
|  3> nprocs 24
|  4> end
|  5>
|  6> * xyz 0 1
|  7> S 	 -138.455 	 1.84004 	 4.01974
|  8> C 	 -137.855 	 0.577462 	 2.93477
|  9> C 	 -136.482 	 0.514019 	 2.98628
| 10> C 	 -135.921 	 1.36785 	 4.02197
| 11> C 	 -136.838 	 2.20318 	 4.61925
| 12> H 	 -134.885 	 1.56944 	 4.20085
| 13> C 	 -135.694 	 -0.387971 	 2.14377
| 14> H 	 -135.938 	 -0.047452 	 1.09922
| 15> H 	 -136.084 	 -1.43337 	 2.28756
| 16> C 	 -134.138 	 -0.488903 	 2.33466
| 17> H 	 -133.603 	 0.473257 	 2.34115
| 18> H 	 -133.876 	 -1.04963 	 3.291
| 19> C 	 -133.476 	 -1.23765 	 1.12441
| 20> H 	 -133.786 	 -2.27532 	 1.08471
| 21> H 	 -133.718 	 -0.76632 	 0.189908
| 22> H 	 -132.354 	 -1.17217 	 1.16077
| 23> S 	 -136.763 	 4.95856 	 4.77757
| 24> C 	 -136.405 	 5.81038 	 6.21146
| 25> C 	 -136.112 	 4.97954 	 7.25403
| 26> C 	 -136.149 	 3.58265 	 6.84907
| 27> C 	 -136.514 	 3.38646 	 5.50095
| 28> H 	 -135.957 	 5.30481 	 8.28203
| 29> C 	 -136.119 	 2.42161 	 7.79095
| 30> H 	 -136.863 	 1.67402 	 7.53605
| 31> H 	 -136.57 	 2.73525 	 8.78084
| 32> C 	 -134.714 	 1.83807 	 8.2097
| 33> H 	 -134.751 	 1.23561 	 9.08412
| 34> H 	 -134.092 	 2.64935 	 8.51647
| 35> C 	 -133.934 	 1.06094 	 7.08857
| 36> H 	 -133.428 	 1.68541 	 6.3099
| 37> H 	 -134.655 	 0.393193 	 6.53827
| 38> H 	 -133.091 	 0.530821 	 7.53212
| 39> H 	 -138.472 	 0.280158 	 2.1265
| 40> H 	 -136.507 	 6.84658 	 6.35979
| 41> *
| 42>
| 43>                          ****END OF INPUT****

CARTESIAN COORDINATES (ANGSTROEM)
---------------------------------
  S    -138.455000    1.840040    4.019740
  C    -137.855000    0.577462    2.934770
  C    -136.482000    0.514019    2.986280
  C    -135.921000    1.367850    4.021970
  C    -136.838000    2.203180    4.619250
  H    -134.885000    1.569440    4.200850
  C    -135.694000   -0.387971    2.143770
  H    -135.938000   -0.047452    1.099220
  H    -136.084000   -1.433370    2.287560
  C    -134.138000   -0.488903    2.334660
  H    -133.603000    0.473257    2.341150
  H    -133.876000   -1.049630    3.291000
  C    -133.476000   -1.237650    1.124410
  H    -133.786000   -2.275320    1.084710
  H    -133.718000   -0.766320    0.189908
  H    -132.354000   -1.172170    1.160770
  S    -136.763000    4.958560    4.777570
  C    -136.405000    5.810380    6.211460
  C    -136.112000    4.979540    7.254030
  C    -136.149000    3.582650    6.849070
  C    -136.514000    3.386460    5.500950
  H    -135.957000    5.304810    8.282030
  C    -136.119000    2.421610    7.790950
  H    -136.863000    1.674020    7.536050
  H    -136.570000    2.735250    8.780840
  C    -134.714000    1.838070    8.209700
  H    -134.751000    1.235610    9.084120
  H    -134.092000    2.649350    8.516470
  C    -133.934000    1.060940    7.088570
  H    -133.428000    1.685410    6.309900
  H    -134.655000    0.393193    6.538270
  H    -133.091000    0.530821    7.532120
  H    -138.472000    0.280158    2.126500
  H    -136.507000    6.846580    6.359790

 Total Charge           Charge          ....    0
 Multiplicity           Mult            ....    1
 Number of Electrons    NEL             ....  134
 Basis Dimension        Dim             ....  322

ORBITAL ENERGIES
----------------

  NO   OCC          E(Eh)            E(eV)
   0   2.0000     -88.963712     -2420.8257
   1   2.0000     -88.963401     -2420.8172
   2   2.0000     -10.335056      -281.2312
   3   2.0000     -10.331013      -281.1211
   4   2.0000     -10.311425      -280.5881
   5   2.0000     -10.310909      -280.5741
   6   2.0000     -10.307326      -280.4766
   7   2.0000     -10.303953      -280.3848
   8   2.0000     -10.300458      -280.2897
   9   2.0000     -10.300403      -280.2882
  10   2.0000     -10.295584      -280.1571
  11   2.0000     -10.294090      -280.1164
  12   2.0000     -10.292439      -280.0715
  13   2.0000     -10.284444      -279.8539
  14   2.0000     -10.282595      -279.8036
  15   2.0000     -10.280344      -279.7424
  16   2.0000      -8.079008      -219.8410
  17   2.0000      -8.078046      -219.8148
  18   2.0000      -6.037476      -164.2881
  19   2.0000      -6.036591      -164.2640
  20   2.0000      -6.033196      -164.1716
  21   2.0000      -6.032531      -164.1535
  22   2.0000      -6.029948      -164.0832
  23   2.0000      -6.028868      -164.0538
  24   2.0000      -1.003871       -27.3167
  25   2.0000      -0.984938       -26.8015
  26   2.0000      -0.907813       -24.7029
  27   2.0000      -0.898714       -24.4553
  28   2.0000      -0.867330       -23.6013
  29   2.0000      -0.844350       -22.9759
  30   2.0000      -0.842920       -22.9370
  31   2.0000      -0.821044       -22.3417
  32   2.0000      -0.776204       -21.1216
  33   2.0000      -0.767535       -20.8857
  34   2.0000      -0.710419       -19.3315
  35   2.0000      -0.698632       -19.0107
  36   2.0000      -0.688799       -18.7432
  37   2.0000      -0.656267       -17.8579
  38   2.0000      -0.643990       -17.5239
  39   2.0000      -0.618017       -16.8171
  40   2.0000      -0.596137       -16.2217
  41   2.0000      -0.573147       -15.5961
  42   2.0000      -0.564140       -15.3510
  43   2.0000      -0.542366       -14.7585
  44   2.0000      -0.536061       -14.5870
  45   2.0000      -0.521638       -14.1945
  46   2.0000      -0.513480       -13.9725
  47   2.0000      -0.509210       -13.8563
  48   2.0000      -0.507060       -13.7978
  49   2.0000      -0.496655       -13.5147
  50   2.0000      -0.487650       -13.2696
  51   2.0000      -0.478114       -13.0101
  52   2.0000      -0.466096       -12.6831
  53   2.0000      -0.462461       -12.5842
  54   2.0000      -0.458135       -12.4665
  55   2.0000      -0.448611       -12.2073
  56   2.0000      -0.443919       -12.0797
  57   2.0000      -0.434240       -11.8163
  58   2.0000      -0.433061       -11.7842
  59   2.0000      -0.424996       -11.5647
  60   2.0000      -0.417786       -11.3685
  61   2.0000      -0.414543       -11.2803
  62   2.0000      -0.408002       -11.1023
  63   2.0000      -0.338376        -9.2077
  64   2.0000      -0.326287        -8.8787
  65   2.0000      -0.323814        -8.8114
  66   2.0000      -0.307649        -8.3716
  67   0.0000       0.034855         0.9485
  68   0.0000       0.061915         1.6848
  69   0.0000       0.115617         3.1461
  70   0.0000       0.124630         3.3913
  71   0.0000       0.128394         3.4938

MULLIKEN ATOMIC CHARGES
-----------------------
   0 S :    0.098504
   1 C :   -0.117503
   2 C :   -0.078887
   3 C :    0.062202
   4 C :   -0.146282
   5 H :    0.007845
   6 C :    0.012302
   7 H :    0.043404
   8 H :    0.056438
   9 C :   -0.108921
  10 H :    0.041659
  11 H :    0.051053
  12 C :   -0.057081
  13 H :    0.033604
  14 H :    0.025109
  15 H :    0.040236
  16 S :    0.113725
  17 C :   -0.063744
  18 C :   -0.030646
  19 C :   -0.011489
  20 C :   -0.185242
  21 H :    0.023819
  22 C :    0.005078
  23 H :    0.036788
  24 H :    0.021600
  25 C :   -0.029369
  26 H :    0.022467
  27 H :    0.013537
  28 C :   -0.092421
  29 H :    0.039831
  30 H :    0.046426
  31 H :    0.032553
  32 H :    0.050622
  33 H :    0.042786
Sum of atomic charges:   -0.0000000

LOEWDIN ATOMIC CHARGES
----------------------
   0 S :    0.390877
   1 C :   -0.190803
   2 C :   -0.061267
   3 C :   -0.059355
   4 C :   -0.192361
   5 H :    0.029222
   6 C :   -0.045693
   7 H :    0.041507
   8 H :    0.045104
   9 C :   -0.046788
  10 H :    0.024846
  11 H :    0.033332
  12 C :   -0.066201
  13 H :    0.021743
  14 H :    0.019907
  15 H :    0.031904
  16 S :    0.429195
  17 C :   -0.190603
  18 C :   -0.072377
  19 C :   -0.055492
  20 C :   -0.203028
  21 H :    0.034339
  22 C :   -0.040490
  23 H :    0.031534
  24 H :    0.037141
  25 C :   -0.034693
  26 H :    0.020310
  27 H :    0.020081
  28 C :   -0.077384
  29 H :    0.025325
  30 H :    0.028632
  31 H :    0.025040
  32 H :    0.022750
  33 H :    0.023746

  Mayer bond orders larger than 0.100000
B(  0-S ,  1-C ) :   1.1273 B(  0-S ,  4-C ) :   1.1568 B(  1-C ,  2-C ) :   1.6221
B(  1-C , 32-H ) :   0.9739 B(  2-C ,  3-C ) :   1.2326 B(  2-C ,  6-C ) :   1.0160
B(  3-C ,  4-C ) :   1.5918 B(  3-C ,  5-H ) :   0.9857 B(  4-C , 20-C ) :   0.9970
B(  6-C ,  7-H ) :   0.9361 B(  6-C ,  8-H ) :   0.9425 B(  6-C ,  9-C ) :   1.0755
B(  9-C , 10-H ) :   0.9549 B(  9-C , 11-H ) :   0.9531 B(  9-C , 12-C ) :   1.0778
B( 12-C , 13-H ) :   0.9770 B( 12-C , 14-H ) :   0.9766 B( 12-C , 15-H ) :   0.9762
B( 16-S , 17-C ) :   1.1747 B( 16-S , 20-C ) :   1.1523 B( 17-C , 18-C ) :   1.5951
B( 17-C , 33-H ) :   0.9701 B( 18-C , 19-C ) :   1.2575 B( 18-C , 21-H ) :   0.9892
B( 19-C , 20-C ) :   1.5860 B( 19-C , 22-C ) :   1.0433 B( 22-C , 23-H ) :   0.9460
B( 22-C , 24-H ) :   0.9384 B( 22-C , 25-C ) :   1.0626 B( 25-C , 26-H ) :   0.9592
B( 25-C , 27-H ) :   0.9547 B( 25-C , 28-C ) :   1.0682 B( 28-C , 29-H ) :   0.9747
B( 28-C , 30-H ) :   0.9750 B( 28-C , 31-H ) :   0.9721

Dispersion correction           -0.014725207
FINAL SINGLE POINT ENERGY     -1339.877526670819

DIPOLE MOMENT
-------------
                                X             Y             Z
Electronic contribution:    -20.55840      19.13429      -0.48331
Nuclear contribution   :     20.94146     -19.31215       0.52301
                        -----------------------------------------
Total Dipole Moment    :      0.38306      -0.17786       0.03969
                        -----------------------------------------
Magnitude (a.u.)       :      0.42420
Magnitude (Debye)      :      1.07822

Rotational constants in cm-1:     0.018499     0.008557     0.007068
Rotational constants in MHz :   554.583065   256.535756   211.902108

                             ****ORCA TERMINATED NORMALLY****
TOTAL RUN TIME: 0 days 0 hours 0 minutes 21 seconds 679 msec
