                         Program Version 4.2.1 -  RELEASE  -
|  1> ! wB97X-D3 SP def2-SVP
|  2> %pal
|  3> nprocs 24
|  4> end
|  5>
|  6> * xyz 0 1
|  7> S 	 -63.6242 	 -49.3268 	 -88.99
|  8> C 	 -62.5117 	 -50.3908 	 -89.5991
|  9> C 	 -63.0683 	 -51.6054 	 -89.7626
| 10> C 	 -64.484 	 -51.5601 	 -89.5725
| 11> C 	 -64.9646 	 -50.3586 	 -89.1532
| 12> H 	 -65.1441 	 -52.4181 	 -89.6355
| 13> C 	 -62.3284 	 -52.8645 	 -90.0782
| 14> H 	 -61.5007 	 -52.5418 	 -90.6695
| 15> H 	 -63.0456 	 -53.3961 	 -90.7113
| 16> C 	 -61.7617 	 -53.613 	 -88.8563
| 17> H 	 -61.1785 	 -52.8972 	 -88.2448
| 18> H 	 -62.5288 	 -53.9303 	 -88.1588
| 19> C 	 -60.8933 	 -54.8319 	 -89.3739
| 20> H 	 -61.5072 	 -55.5933 	 -89.8497
| 21> H 	 -60.0445 	 -54.53 	 -90.029
| 22> H 	 -60.5814 	 -55.4005 	 -88.4627
| 23> S 	 -66.1046 	 -49.7634 	 -86.783
| 24> C 	 -67.841 	 -49.8794 	 -86.6233
| 25> C 	 -68.5045 	 -50.2019 	 -87.8364
| 26> C 	 -67.6026 	 -50.5515 	 -88.8133
| 27> C 	 -66.2361 	 -50.1823 	 -88.4955
| 28> H 	 -69.6044 	 -50.3346 	 -87.8579
| 29> C 	 -68.0062 	 -51.0407 	 -90.1395
| 30> H 	 -67.5079 	 -52.0097 	 -90.3444
| 31> H 	 -67.424 	 -50.3277 	 -90.7348
| 32> C 	 -69.4708 	 -50.9295 	 -90.5542
| 33> H 	 -69.8309 	 -49.901 	 -90.5099
| 34> H 	 -70.0768 	 -51.518 	 -89.8503
| 35> C 	 -69.6941 	 -51.3448 	 -92.0592
| 36> H 	 -69.0648 	 -50.6711 	 -92.6526
| 37> H 	 -70.7658 	 -51.2192 	 -92.3978
| 38> H 	 -69.5691 	 -52.4243 	 -92.2167
| 39> H 	 -61.4291 	 -50.1393 	 -89.6867
| 40> H 	 -68.4186 	 -49.6489 	 -85.7298
| 41> *
| 42>
| 43>                          ****END OF INPUT****

CARTESIAN COORDINATES (ANGSTROEM)
---------------------------------
  S    -63.624200  -49.326800  -88.990000
  C    -62.511700  -50.390800  -89.599100
  C    -63.068300  -51.605400  -89.762600
  C    -64.484000  -51.560100  -89.572500
  C    -64.964600  -50.358600  -89.153200
  H    -65.144100  -52.418100  -89.635500
  C    -62.328400  -52.864500  -90.078200
  H    -61.500700  -52.541800  -90.669500
  H    -63.045600  -53.396100  -90.711300
  C    -61.761700  -53.613000  -88.856300
  H    -61.178500  -52.897200  -88.244800
  H    -62.528800  -53.930300  -88.158800
  C    -60.893300  -54.831900  -89.373900
  H    -61.507200  -55.593300  -89.849700
  H    -60.044500  -54.530000  -90.029000
  H    -60.581400  -55.400500  -88.462700
  S    -66.104600  -49.763400  -86.783000
  C    -67.841000  -49.879400  -86.623300
  C    -68.504500  -50.201900  -87.836400
  C    -67.602600  -50.551500  -88.813300
  C    -66.236100  -50.182300  -88.495500
  H    -69.604400  -50.334600  -87.857900
  C    -68.006200  -51.040700  -90.139500
  H    -67.507900  -52.009700  -90.344400
  H    -67.424000  -50.327700  -90.734800
  C    -69.470800  -50.929500  -90.554200
  H    -69.830900  -49.901000  -90.509900
  H    -70.076800  -51.518000  -89.850300
  C    -69.694100  -51.344800  -92.059200
  H    -69.064800  -50.671100  -92.652600
  H    -70.765800  -51.219200  -92.397800
  H    -69.569100  -52.424300  -92.216700
  H    -61.429100  -50.139300  -89.686700
  H    -68.418600  -49.648900  -85.729800

 Total Charge           Charge          ....    0
 Multiplicity           Mult            ....    1
 Number of Electrons    NEL             ....  134
 Basis Dimension        Dim             ....  322

ORBITAL ENERGIES
----------------

  NO   OCC          E(Eh)            E(eV)
   0   2.0000     -88.969583     -2420.9854
   1   2.0000     -88.960169     -2420.7293
   2   2.0000     -10.325957      -280.9836
   3   2.0000     -10.319052      -280.7957
   4   2.0000     -10.316299      -280.7208
   5   2.0000     -10.305410      -280.4245
   6   2.0000     -10.301908      -280.3292
   7   2.0000     -10.293233      -280.0931
   8   2.0000     -10.293142      -280.0906
   9   2.0000     -10.292491      -280.0729
  10   2.0000     -10.290127      -280.0086
  11   2.0000     -10.288249      -279.9575
  12   2.0000     -10.287927      -279.9487
  13   2.0000     -10.287209      -279.9292
  14   2.0000     -10.286402      -279.9072
  15   2.0000     -10.286164      -279.9007
  16   2.0000      -8.083447      -219.9618
  17   2.0000      -8.077928      -219.8116
  18   2.0000      -6.041795      -164.4056
  19   2.0000      -6.038012      -164.3027
  20   2.0000      -6.036267      -164.2552
  21   2.0000      -6.034507      -164.2073
  22   2.0000      -6.031844      -164.1348
  23   2.0000      -6.028829      -164.0528
  24   2.0000      -1.022899       -27.8345
  25   2.0000      -0.987102       -26.8604
  26   2.0000      -0.914019       -24.8717
  27   2.0000      -0.909278       -24.7427
  28   2.0000      -0.873154       -23.7597
  29   2.0000      -0.852244       -23.1907
  30   2.0000      -0.846358       -23.0306
  31   2.0000      -0.812719       -22.1152
  32   2.0000      -0.779199       -21.2031
  33   2.0000      -0.765042       -20.8178
  34   2.0000      -0.710104       -19.3229
  35   2.0000      -0.704386       -19.1673
  36   2.0000      -0.697122       -18.9697
  37   2.0000      -0.655104       -17.8263
  38   2.0000      -0.640838       -17.4381
  39   2.0000      -0.620955       -16.8970
  40   2.0000      -0.592008       -16.1094
  41   2.0000      -0.572327       -15.5738
  42   2.0000      -0.567243       -15.4355
  43   2.0000      -0.557786       -15.1781
  44   2.0000      -0.528417       -14.3790
  45   2.0000      -0.520846       -14.1729
  46   2.0000      -0.515375       -14.0241
  47   2.0000      -0.506918       -13.7939
  48   2.0000      -0.504716       -13.7340
  49   2.0000      -0.500707       -13.6249
  50   2.0000      -0.499951       -13.6044
  51   2.0000      -0.474261       -12.9053
  52   2.0000      -0.467816       -12.7299
  53   2.0000      -0.464766       -12.6469
  54   2.0000      -0.462758       -12.5923
  55   2.0000      -0.450533       -12.2596
  56   2.0000      -0.443903       -12.0792
  57   2.0000      -0.441462       -12.0128
  58   2.0000      -0.430166       -11.7054
  59   2.0000      -0.426442       -11.6041
  60   2.0000      -0.422204       -11.4888
  61   2.0000      -0.421348       -11.4655
  62   2.0000      -0.409994       -11.1565
  63   2.0000      -0.352876        -9.6022
  64   2.0000      -0.331377        -9.0172
  65   2.0000      -0.323151        -8.7934
  66   2.0000      -0.280078        -7.6213
  67   0.0000       0.029273         0.7966
  68   0.0000       0.068653         1.8682
  69   0.0000       0.121098         3.2952
  70   0.0000       0.130313         3.5460
  71   0.0000       0.136555         3.7158

MULLIKEN ATOMIC CHARGES
-----------------------
   0 S :    0.109767
   1 C :   -0.128982
   2 C :   -0.115100
   3 C :    0.016993
   4 C :   -0.132378
   5 H :    0.005608
   6 C :    0.086507
   7 H :    0.008621
   8 H :    0.026228
   9 C :   -0.065116
  10 H :    0.028599
  11 H :    0.027705
  12 C :   -0.061448
  13 H :    0.031736
  14 H :    0.050379
  15 H :    0.036462
  16 S :    0.122858
  17 C :   -0.093880
  18 C :   -0.066069
  19 C :   -0.039806
  20 C :   -0.162399
  21 H :    0.035423
  22 C :    0.046235
  23 H :    0.038197
  24 H :    0.037230
  25 C :   -0.090785
  26 H :    0.036707
  27 H :    0.034591
  28 C :   -0.059114
  29 H :    0.043012
  30 H :    0.036851
  31 H :    0.038495
  32 H :    0.063803
  33 H :    0.053070
Sum of atomic charges:    0.0000000

LOEWDIN ATOMIC CHARGES
----------------------
   0 S :    0.459352
   1 C :   -0.229920
   2 C :   -0.075113
   3 C :   -0.061774
   4 C :   -0.229022
   5 H :    0.026981
   6 C :   -0.031845
   7 H :    0.026500
   8 H :    0.031481
   9 C :   -0.035460
  10 H :    0.026617
  11 H :    0.023588
  12 C :   -0.072275
  13 H :    0.024805
  14 H :    0.030520
  15 H :    0.031132
  16 S :    0.420849
  17 C :   -0.194410
  18 C :   -0.080147
  19 C :   -0.054008
  20 C :   -0.202527
  21 H :    0.039742
  22 C :   -0.046614
  23 H :    0.035998
  24 H :    0.043039
  25 C :   -0.041555
  26 H :    0.028399
  27 H :    0.020662
  28 C :   -0.067032
  29 H :    0.028172
  30 H :    0.031266
  31 H :    0.025447
  32 H :    0.040189
  33 H :    0.026962

  Mayer bond orders larger than 0.100000
B(  0-S ,  1-C ) :   1.1688 B(  0-S ,  4-C ) :   1.1719 B(  1-C ,  2-C ) :   1.5729
B(  1-C , 32-H ) :   0.9655 B(  2-C ,  3-C ) :   1.2940 B(  2-C ,  6-C ) :   1.0182
B(  3-C ,  4-C ) :   1.5190 B(  3-C ,  5-H ) :   0.9953 B(  4-C , 20-C ) :   1.0508
B(  6-C ,  7-H ) :   0.9364 B(  6-C ,  8-H ) :   0.9415 B(  6-C ,  9-C ) :   1.0587
B(  9-C , 10-H ) :   0.9556 B(  9-C , 11-H ) :   0.9566 B(  9-C , 12-C ) :   1.0730
B( 12-C , 13-H ) :   0.9755 B( 12-C , 14-H ) :   0.9760 B( 12-C , 15-H ) :   0.9744
B( 16-S , 17-C ) :   1.1900 B( 16-S , 20-C ) :   1.1620 B( 17-C , 18-C ) :   1.5389
B( 17-C , 20-C ) :   0.1295 B( 17-C , 33-H ) :   0.9608 B( 18-C , 19-C ) :   1.3305
B( 18-C , 21-H ) :   0.9758 B( 19-C , 20-C ) :   1.5076 B( 19-C , 22-C ) :   1.0297
B( 22-C , 23-H ) :   0.9194 B( 22-C , 24-H ) :   0.9302 B( 22-C , 25-C ) :   1.0861
B( 25-C , 26-H ) :   0.9515 B( 25-C , 27-H ) :   0.9488 B( 25-C , 28-C ) :   1.0778
B( 28-C , 29-H ) :   0.9757 B( 28-C , 30-H ) :   0.9756 B( 28-C , 31-H ) :   0.9767

Dispersion correction           -0.013403988
FINAL SINGLE POINT ENERGY     -1339.862840183355

DIPOLE MOMENT
-------------
                                X             Y             Z
Electronic contribution:      2.58218      19.66428      14.41971
Nuclear contribution   :     -2.67263     -20.22462     -14.59613
                        -----------------------------------------
Total Dipole Moment    :     -0.09045      -0.56034      -0.17642
                        -----------------------------------------
Magnitude (a.u.)       :      0.59438
Magnitude (Debye)      :      1.51080

Rotational constants in cm-1:     0.018451     0.007515     0.006335
Rotational constants in MHz :   553.135887   225.293869   189.909687

                             ****ORCA TERMINATED NORMALLY****
TOTAL RUN TIME: 0 days 0 hours 0 minutes 22 seconds 262 msec
