                         Program Version 4.2.1 -  RELEASE  -
|  1> ! wB97X-D3 SP def2-SVP
|  2> %pal
|  3> nprocs 24
|  4> end
|  5>
|  6> * xyz 0 1
|  7> S 	 -51.4903 	 -50.6582 	 -79.7428
|  8> C 	 -51.4928 	 -51.0561 	 -81.4168
|  9> C 	 -51.7531 	 -49.9201 	 -82.2474
| 10> C 	 -52.084 	 -48.7837 	 -81.4249
| 11> C 	 -51.7522 	 -48.9709 	 -80.0849
| 12> H 	 -52.2232 	 -47.7614 	 -81.7124
| 13> C 	 -51.5674 	 -49.9358 	 -83.7789
| 14> H 	 -52.5123 	 -49.7121 	 -84.3164
| 15> H 	 -51.3481 	 -50.9217 	 -84.2212
| 16> C 	 -50.6419 	 -48.873 	 -84.2905
| 17> H 	 -50.5887 	 -48.8239 	 -85.3677
| 18> H 	 -51.0696 	 -47.9155 	 -84.0155
| 19> C 	 -49.1938 	 -49.0489 	 -83.9159
| 20> H 	 -48.7679 	 -50.018 	 -84.1923
| 21> H 	 -48.5765 	 -48.261 	 -84.3129
| 22> H 	 -49.1628 	 -48.9679 	 -82.8335
| 23> S 	 -50.8092 	 -47.3543 	 -77.9719
| 24> C 	 -52.0802 	 -46.5533 	 -76.9134
| 25> C 	 -53.3182 	 -46.8406 	 -77.3474
| 26> C 	 -53.3912 	 -47.7425 	 -78.4849
| 27> C 	 -52.1411 	 -48.0432 	 -78.9496
| 28> H 	 -54.0553 	 -46.3247 	 -76.7569
| 29> C 	 -54.7671 	 -48.0858 	 -79.0228
| 30> H 	 -55.2041 	 -48.6371 	 -78.1693
| 31> H 	 -54.7407 	 -48.8072 	 -79.7868
| 32> C 	 -55.685 	 -46.9493 	 -79.4048
| 33> H 	 -55.1918 	 -46.3911 	 -80.2337
| 34> H 	 -55.8075 	 -46.1898 	 -78.6405
| 35> C 	 -57.0571 	 -47.4105 	 -79.9047
| 36> H 	 -56.903 	 -48.1344 	 -80.7431
| 37> H 	 -57.815 	 -46.609 	 -80.2229
| 38> H 	 -57.5521 	 -47.8849 	 -79.1055
| 39> H 	 -51.2066 	 -52.0613 	 -81.7368
| 40> H 	 -51.826 	 -45.8812 	 -76.1654
| 41> *
| 42>
| 43>                          ****END OF INPUT****

CARTESIAN COORDINATES (ANGSTROEM)
---------------------------------
  S    -51.490300  -50.658200  -79.742800
  C    -51.492800  -51.056100  -81.416800
  C    -51.753100  -49.920100  -82.247400
  C    -52.084000  -48.783700  -81.424900
  C    -51.752200  -48.970900  -80.084900
  H    -52.223200  -47.761400  -81.712400
  C    -51.567400  -49.935800  -83.778900
  H    -52.512300  -49.712100  -84.316400
  H    -51.348100  -50.921700  -84.221200
  C    -50.641900  -48.873000  -84.290500
  H    -50.588700  -48.823900  -85.367700
  H    -51.069600  -47.915500  -84.015500
  C    -49.193800  -49.048900  -83.915900
  H    -48.767900  -50.018000  -84.192300
  H    -48.576500  -48.261000  -84.312900
  H    -49.162800  -48.967900  -82.833500
  S    -50.809200  -47.354300  -77.971900
  C    -52.080200  -46.553300  -76.913400
  C    -53.318200  -46.840600  -77.347400
  C    -53.391200  -47.742500  -78.484900
  C    -52.141100  -48.043200  -78.949600
  H    -54.055300  -46.324700  -76.756900
  C    -54.767100  -48.085800  -79.022800
  H    -55.204100  -48.637100  -78.169300
  H    -54.740700  -48.807200  -79.786800
  C    -55.685000  -46.949300  -79.404800
  H    -55.191800  -46.391100  -80.233700
  H    -55.807500  -46.189800  -78.640500
  C    -57.057100  -47.410500  -79.904700
  H    -56.903000  -48.134400  -80.743100
  H    -57.815000  -46.609000  -80.222900
  H    -57.552100  -47.884900  -79.105500
  H    -51.206600  -52.061300  -81.736800
  H    -51.826000  -45.881200  -76.165400

 Total Charge           Charge          ....    0
 Multiplicity           Mult            ....    1
 Number of Electrons    NEL             ....  134
 Basis Dimension        Dim             ....  322

ORBITAL ENERGIES
----------------

  NO   OCC          E(Eh)            E(eV)
   0   2.0000     -88.967152     -2420.9193
   1   2.0000     -88.960223     -2420.7307
   2   2.0000     -10.331941      -281.1464
   3   2.0000     -10.330242      -281.1002
   4   2.0000     -10.319252      -280.8011
   5   2.0000     -10.315842      -280.7083
   6   2.0000     -10.313644      -280.6485
   7   2.0000     -10.308612      -280.5116
   8   2.0000     -10.299061      -280.2517
   9   2.0000     -10.296192      -280.1736
  10   2.0000     -10.292872      -280.0833
  11   2.0000     -10.290261      -280.0122
  12   2.0000     -10.288408      -279.9618
  13   2.0000     -10.283824      -279.8371
  14   2.0000     -10.278648      -279.6962
  15   2.0000     -10.267432      -279.3910
  16   2.0000      -8.082456      -219.9348
  17   2.0000      -8.073569      -219.6930
  18   2.0000      -6.040764      -164.3775
  19   2.0000      -6.036767      -164.2688
  20   2.0000      -6.033506      -164.1800
  21   2.0000      -6.032245      -164.1457
  22   2.0000      -6.028513      -164.0442
  23   2.0000      -6.024004      -163.9215
  24   2.0000      -1.000916       -27.2363
  25   2.0000      -0.978736       -26.6328
  26   2.0000      -0.915009       -24.8987
  27   2.0000      -0.910909       -24.7871
  28   2.0000      -0.865608       -23.5544
  29   2.0000      -0.848029       -23.0761
  30   2.0000      -0.844809       -22.9884
  31   2.0000      -0.817694       -22.2506
  32   2.0000      -0.783912       -21.3313
  33   2.0000      -0.772491       -21.0205
  34   2.0000      -0.703847       -19.1526
  35   2.0000      -0.699407       -19.0318
  36   2.0000      -0.685908       -18.6645
  37   2.0000      -0.656676       -17.8691
  38   2.0000      -0.647583       -17.6216
  39   2.0000      -0.620159       -16.8754
  40   2.0000      -0.602342       -16.3906
  41   2.0000      -0.569792       -15.5048
  42   2.0000      -0.563152       -15.3241
  43   2.0000      -0.550584       -14.9821
  44   2.0000      -0.543716       -14.7953
  45   2.0000      -0.528258       -14.3746
  46   2.0000      -0.516410       -14.0522
  47   2.0000      -0.511728       -13.9248
  48   2.0000      -0.505390       -13.7524
  49   2.0000      -0.492064       -13.3897
  50   2.0000      -0.482503       -13.1296
  51   2.0000      -0.481469       -13.1014
  52   2.0000      -0.469001       -12.7622
  53   2.0000      -0.465230       -12.6595
  54   2.0000      -0.455448       -12.3934
  55   2.0000      -0.447205       -12.1691
  56   2.0000      -0.439767       -11.9667
  57   2.0000      -0.436313       -11.8727
  58   2.0000      -0.435228       -11.8432
  59   2.0000      -0.425506       -11.5786
  60   2.0000      -0.421809       -11.4780
  61   2.0000      -0.413835       -11.2610
  62   2.0000      -0.405685       -11.0392
  63   2.0000      -0.337597        -9.1865
  64   2.0000      -0.334389        -9.0992
  65   2.0000      -0.324569        -8.8320
  66   2.0000      -0.306079        -8.3288
  67   0.0000       0.042073         1.1449
  68   0.0000       0.058046         1.5795
  69   0.0000       0.104607         2.8465
  70   0.0000       0.112440         3.0597
  71   0.0000       0.130658         3.5554

MULLIKEN ATOMIC CHARGES
-----------------------
   0 S :    0.123854
   1 C :   -0.130897
   2 C :   -0.077142
   3 C :    0.023801
   4 C :   -0.147503
   5 H :    0.022758
   6 C :    0.075723
   7 H :    0.032115
   8 H :    0.018104
   9 C :   -0.086164
  10 H :    0.019116
  11 H :    0.020838
  12 C :   -0.033272
  13 H :    0.026657
  14 H :    0.029733
  15 H :    0.032265
  16 S :    0.069188
  17 C :   -0.079666
  18 C :   -0.024289
  19 C :    0.008280
  20 C :   -0.205806
  21 H :    0.020732
  22 C :    0.107988
  23 H :    0.028053
  24 H :    0.005804
  25 C :   -0.074803
  26 H :    0.029881
  27 H :    0.025405
  28 C :   -0.061621
  29 H :    0.040068
  30 H :    0.048325
  31 H :    0.018622
  32 H :    0.058618
  33 H :    0.035233
Sum of atomic charges:   -0.0000000

LOEWDIN ATOMIC CHARGES
----------------------
   0 S :    0.431586
   1 C :   -0.206108
   2 C :   -0.058658
   3 C :   -0.060488
   4 C :   -0.202967
   5 H :    0.031361
   6 C :   -0.035856
   7 H :    0.037577
   8 H :    0.029923
   9 C :   -0.047043
  10 H :    0.022806
  11 H :    0.021655
  12 C :   -0.063155
  13 H :    0.024827
  14 H :    0.024066
  15 H :    0.025192
  16 S :    0.334680
  17 C :   -0.137136
  18 C :   -0.066475
  19 C :   -0.049038
  20 C :   -0.187659
  21 H :    0.034943
  22 C :   -0.027318
  23 H :    0.038574
  24 H :    0.023020
  25 C :   -0.043475
  26 H :    0.027207
  27 H :    0.020168
  28 C :   -0.068961
  29 H :    0.030225
  30 H :    0.037495
  31 H :    0.015735
  32 H :    0.027678
  33 H :    0.015619

  Mayer bond orders larger than 0.100000
B(  0-S ,  1-C ) :   1.1798 B(  0-S ,  4-C ) :   1.1729 B(  1-C ,  2-C ) :   1.5600
B(  1-C ,  4-C ) :   0.1027 B(  1-C , 32-H ) :   0.9690 B(  2-C ,  3-C ) :   1.2467
B(  2-C ,  6-C ) :   1.0219 B(  3-C ,  4-C ) :   1.5789 B(  3-C ,  5-H ) :   0.9915
B(  4-C , 20-C ) :   0.9790 B(  6-C ,  7-H ) :   0.9347 B(  6-C ,  8-H ) :   0.9466
B(  6-C ,  9-C ) :   1.0810 B(  9-C , 10-H ) :   0.9519 B(  9-C , 11-H ) :   0.9521
B(  9-C , 12-C ) :   1.0786 B( 12-C , 13-H ) :   0.9728 B( 12-C , 14-H ) :   0.9729
B( 12-C , 15-H ) :   0.9754 B( 16-S , 17-C ) :   1.1059 B( 16-S , 20-C ) :   1.1130
B( 17-C , 18-C ) :   1.7072 B( 17-C , 33-H ) :   0.9744 B( 18-C , 19-C ) :   1.1429
B( 18-C , 21-H ) :   0.9866 B( 19-C , 20-C ) :   1.6812 B( 19-C , 22-C ) :   1.0400
B( 22-C , 23-H ) :   0.9235 B( 22-C , 24-H ) :   0.9322 B( 22-C , 25-C ) :   1.0598
B( 25-C , 26-H ) :   0.9535 B( 25-C , 27-H ) :   0.9520 B( 25-C , 28-C ) :   1.0810
B( 28-C , 29-H ) :   0.9744 B( 28-C , 30-H ) :   0.9737 B( 28-C , 31-H ) :   0.9752

Dispersion correction           -0.014372859
FINAL SINGLE POINT ENERGY     -1339.870105491060

DIPOLE MOMENT
-------------
                                X             Y             Z
Electronic contribution:     12.14070      -4.61434      18.49896
Nuclear contribution   :    -12.65639       4.79482     -18.80211
                        -----------------------------------------
Total Dipole Moment    :     -0.51569       0.18048      -0.30315
                        -----------------------------------------
Magnitude (a.u.)       :      0.62483
Magnitude (Debye)      :      1.58819

Rotational constants in cm-1:     0.017616     0.008469     0.006992
Rotational constants in MHz :   528.101630   253.891665   209.606446

                             ****ORCA TERMINATED NORMALLY****
TOTAL RUN TIME: 0 days 0 hours 0 minutes 21 seconds 433 msec
