                         Program Version 4.2.1 -  RELEASE  -
|  1> ! wB97X-D3 SP def2-SVP
|  2> %pal
|  3> nprocs 24
|  4> end
|  5>
|  6> * xyz 0 1
|  7> S 	 -53.6572 	 16.7222 	 22.2203
|  8> C 	 -55.054 	 15.7427 	 22.5457
|  9> C 	 -55.0933 	 14.7006 	 21.6322
| 10> C 	 -54.1951 	 14.7534 	 20.5828
| 11> C 	 -53.283 	 15.7817 	 20.6956
| 12> H 	 -54.0157 	 14.1076 	 19.7416
| 13> C 	 -56.0673 	 13.5836 	 21.7283
| 14> H 	 -56.0663 	 13.2222 	 22.7644
| 15> H 	 -55.7625 	 12.7904 	 21.0681
| 16> C 	 -57.5275 	 13.9149 	 21.4533
| 17> H 	 -57.8965 	 14.7758 	 22.0913
| 18> H 	 -57.5911 	 14.2959 	 20.4509
| 19> C 	 -58.5595 	 12.7646 	 21.4348
| 20> H 	 -58.4983 	 12.1061 	 20.5708
| 21> H 	 -58.426 	 12.3262 	 22.3872
| 22> H 	 -59.5417 	 13.0709 	 21.346
| 23> S 	 -50.5971 	 16.0449 	 20.5318
| 24> C 	 -49.7629 	 16.0064 	 19.0425
| 25> C 	 -50.7249 	 16.0326 	 18.0155
| 26> C 	 -52.0968 	 16.0308 	 18.425
| 27> C 	 -52.1519 	 15.9332 	 19.8206
| 28> H 	 -50.429 	 16.1253 	 16.9579
| 29> C 	 -53.2214 	 15.9476 	 17.43
| 30> H 	 -53.7303 	 14.9916 	 17.3221
| 31> H 	 -52.634 	 16.0647 	 16.4987
| 32> C 	 -54.2698 	 17.0533 	 17.397
| 33> H 	 -54.7974 	 17.1302 	 18.3315
| 34> H 	 -54.9987 	 16.7746 	 16.6752
| 35> C 	 -53.767 	 18.5012 	 17.1839
| 36> H 	 -53.0143 	 18.8074 	 17.884
| 37> H 	 -54.6102 	 19.1928 	 17.2455
| 38> H 	 -53.3157 	 18.489 	 16.1171
| 39> H 	 -55.8062 	 15.888 	 23.3425
| 40> H 	 -48.7011 	 16.1325 	 19.0235
| 41> *
| 42>
| 43>                          ****END OF INPUT****

CARTESIAN COORDINATES (ANGSTROEM)
---------------------------------
  S    -53.657200   16.722200   22.220300
  C    -55.054000   15.742700   22.545700
  C    -55.093300   14.700600   21.632200
  C    -54.195100   14.753400   20.582800
  C    -53.283000   15.781700   20.695600
  H    -54.015700   14.107600   19.741600
  C    -56.067300   13.583600   21.728300
  H    -56.066300   13.222200   22.764400
  H    -55.762500   12.790400   21.068100
  C    -57.527500   13.914900   21.453300
  H    -57.896500   14.775800   22.091300
  H    -57.591100   14.295900   20.450900
  C    -58.559500   12.764600   21.434800
  H    -58.498300   12.106100   20.570800
  H    -58.426000   12.326200   22.387200
  H    -59.541700   13.070900   21.346000
  S    -50.597100   16.044900   20.531800
  C    -49.762900   16.006400   19.042500
  C    -50.724900   16.032600   18.015500
  C    -52.096800   16.030800   18.425000
  C    -52.151900   15.933200   19.820600
  H    -50.429000   16.125300   16.957900
  C    -53.221400   15.947600   17.430000
  H    -53.730300   14.991600   17.322100
  H    -52.634000   16.064700   16.498700
  C    -54.269800   17.053300   17.397000
  H    -54.797400   17.130200   18.331500
  H    -54.998700   16.774600   16.675200
  C    -53.767000   18.501200   17.183900
  H    -53.014300   18.807400   17.884000
  H    -54.610200   19.192800   17.245500
  H    -53.315700   18.489000   16.117100
  H    -55.806200   15.888000   23.342500
  H    -48.701100   16.132500   19.023500

 Total Charge           Charge          ....    0
 Multiplicity           Mult            ....    1
 Number of Electrons    NEL             ....  134
 Basis Dimension        Dim             ....  322

ORBITAL ENERGIES
----------------

  NO   OCC          E(Eh)            E(eV)
   0   2.0000     -88.969063     -2420.9713
   1   2.0000     -88.965090     -2420.8632
   2   2.0000     -10.331197      -281.1262
   3   2.0000     -10.325050      -280.9589
   4   2.0000     -10.317502      -280.7535
   5   2.0000     -10.317177      -280.7447
   6   2.0000     -10.304763      -280.4069
   7   2.0000     -10.299439      -280.2620
   8   2.0000     -10.295665      -280.1593
   9   2.0000     -10.293790      -280.1083
  10   2.0000     -10.290039      -280.0062
  11   2.0000     -10.285438      -279.8810
  12   2.0000     -10.285281      -279.8767
  13   2.0000     -10.278550      -279.6936
  14   2.0000     -10.277586      -279.6673
  15   2.0000     -10.270030      -279.4617
  16   2.0000      -8.082481      -219.9355
  17   2.0000      -8.081446      -219.9073
  18   2.0000      -6.041071      -164.3859
  19   2.0000      -6.039758      -164.3502
  20   2.0000      -6.037107      -164.2780
  21   2.0000      -6.035511      -164.2346
  22   2.0000      -6.033297      -164.1744
  23   2.0000      -6.032520      -164.1532
  24   2.0000      -1.011501       -27.5243
  25   2.0000      -0.988445       -26.8970
  26   2.0000      -0.911696       -24.8085
  27   2.0000      -0.911237       -24.7960
  28   2.0000      -0.873459       -23.7680
  29   2.0000      -0.855133       -23.2694
  30   2.0000      -0.849414       -23.1137
  31   2.0000      -0.815383       -22.1877
  32   2.0000      -0.784120       -21.3370
  33   2.0000      -0.771505       -20.9937
  34   2.0000      -0.710253       -19.3270
  35   2.0000      -0.699969       -19.0471
  36   2.0000      -0.690404       -18.7869
  37   2.0000      -0.668439       -18.1891
  38   2.0000      -0.643471       -17.5097
  39   2.0000      -0.617285       -16.7972
  40   2.0000      -0.595983       -16.2175
  41   2.0000      -0.570322       -15.5192
  42   2.0000      -0.563376       -15.3302
  43   2.0000      -0.552947       -15.0465
  44   2.0000      -0.550019       -14.9668
  45   2.0000      -0.527522       -14.3546
  46   2.0000      -0.517738       -14.0884
  47   2.0000      -0.513929       -13.9847
  48   2.0000      -0.508379       -13.8337
  49   2.0000      -0.496795       -13.5185
  50   2.0000      -0.491196       -13.3661
  51   2.0000      -0.489562       -13.3217
  52   2.0000      -0.475962       -12.9516
  53   2.0000      -0.465596       -12.6695
  54   2.0000      -0.463327       -12.6078
  55   2.0000      -0.443963       -12.0808
  56   2.0000      -0.442729       -12.0473
  57   2.0000      -0.437049       -11.8927
  58   2.0000      -0.431464       -11.7407
  59   2.0000      -0.427791       -11.6408
  60   2.0000      -0.418385       -11.3848
  61   2.0000      -0.408121       -11.1055
  62   2.0000      -0.401377       -10.9220
  63   2.0000      -0.351556        -9.5663
  64   2.0000      -0.332836        -9.0569
  65   2.0000      -0.330428        -8.9914
  66   2.0000      -0.287500        -7.8233
  67   0.0000       0.025101         0.6830
  68   0.0000       0.063528         1.7287
  69   0.0000       0.116937         3.1820
  70   0.0000       0.121747         3.3129
  71   0.0000       0.130739         3.5576

MULLIKEN ATOMIC CHARGES
-----------------------
   0 S :    0.109639
   1 C :   -0.129139
   2 C :   -0.059667
   3 C :    0.024819
   4 C :   -0.142393
   5 H :    0.010985
   6 C :    0.097706
   7 H :    0.024226
   8 H :    0.012401
   9 C :   -0.113252
  10 H :    0.029157
  11 H :    0.011119
  12 C :    0.005838
  13 H :    0.029441
  14 H :    0.020344
  15 H :    0.012315
  16 S :    0.121468
  17 C :   -0.093630
  18 C :   -0.050265
  19 C :   -0.028328
  20 C :   -0.195183
  21 H :    0.027848
  22 C :    0.067809
  23 H :    0.041650
  24 H :    0.003862
  25 C :   -0.055604
  26 H :    0.030814
  27 H :    0.020322
  28 C :   -0.075219
  29 H :    0.047056
  30 H :    0.039974
  31 H :    0.030331
  32 H :    0.063545
  33 H :    0.060010
Sum of atomic charges:    0.0000000

LOEWDIN ATOMIC CHARGES
----------------------
   0 S :    0.382484
   1 C :   -0.202849
   2 C :   -0.068759
   3 C :   -0.055789
   4 C :   -0.171877
   5 H :    0.035836
   6 C :   -0.032459
   7 H :    0.031592
   8 H :    0.027864
   9 C :   -0.044926
  10 H :    0.025853
  11 H :    0.016658
  12 C :   -0.057676
  13 H :    0.027887
  14 H :    0.019809
  15 H :    0.019079
  16 S :    0.449750
  17 C :   -0.203958
  18 C :   -0.072144
  19 C :   -0.064550
  20 C :   -0.209084
  21 H :    0.031489
  22 C :   -0.035129
  23 H :    0.033255
  24 H :    0.033408
  25 C :   -0.041106
  26 H :    0.022430
  27 H :    0.021094
  28 C :   -0.064345
  29 H :    0.023712
  30 H :    0.027482
  31 H :    0.028626
  32 H :    0.039295
  33 H :    0.027048

  Mayer bond orders larger than 0.100000
B(  0-S ,  1-C ) :   1.1407 B(  0-S ,  4-C ) :   1.1305 B(  1-C ,  2-C ) :   1.5742
B(  1-C ,  4-C ) :   0.1083 B(  1-C , 32-H ) :   0.9679 B(  2-C ,  3-C ) :   1.2534
B(  2-C ,  6-C ) :   1.0369 B(  3-C ,  4-C ) :   1.5550 B(  3-C ,  5-H ) :   0.9998
B(  4-C , 20-C ) :   1.0774 B(  6-C ,  7-H ) :   0.9284 B(  6-C ,  8-H ) :   0.9392
B(  6-C ,  9-C ) :   1.0676 B(  9-C , 10-H ) :   0.9557 B(  9-C , 11-H ) :   0.9537
B(  9-C , 12-C ) :   1.0816 B( 12-C , 13-H ) :   0.9743 B( 12-C , 14-H ) :   0.9762
B( 12-C , 15-H ) :   0.9698 B( 16-S , 17-C ) :   1.1785 B( 16-S , 20-C ) :   1.1843
B( 17-C , 18-C ) :   1.5409 B( 17-C , 20-C ) :   0.1057 B( 17-C , 33-H ) :   0.9779
B( 18-C , 19-C ) :   1.2995 B( 18-C , 21-H ) :   0.9791 B( 19-C , 20-C ) :   1.5163
B( 19-C , 22-C ) :   1.0263 B( 22-C , 23-H ) :   0.9380 B( 22-C , 24-H ) :   0.9256
B( 22-C , 25-C ) :   1.0771 B( 25-C , 26-H ) :   0.9542 B( 25-C , 27-H ) :   0.9541
B( 25-C , 28-C ) :   1.0745 B( 28-C , 29-H ) :   0.9756 B( 28-C , 30-H ) :   0.9748
B( 28-C , 31-H ) :   0.9758

Dispersion correction           -0.014381151
FINAL SINGLE POINT ENERGY     -1339.868816862314

DIPOLE MOMENT
-------------
                                X             Y             Z
Electronic contribution:     23.49485       5.73556      12.39790
Nuclear contribution   :    -23.88516      -6.01181     -12.76276
                        -----------------------------------------
Total Dipole Moment    :     -0.39030      -0.27625      -0.36486
                        -----------------------------------------
Magnitude (a.u.)       :      0.60148
Magnitude (Debye)      :      1.52884

Rotational constants in cm-1:     0.020177     0.008072     0.006887
Rotational constants in MHz :   604.880091   241.993437   206.466944

                             ****ORCA TERMINATED NORMALLY****
TOTAL RUN TIME: 0 days 0 hours 0 minutes 21 seconds 784 msec
