                         Program Version 4.2.1 -  RELEASE  -
|  1> ! wB97X-D3 SP def2-SVP
|  2> %pal
|  3> nprocs 24
|  4> end
|  5>
|  6> * xyz 0 1
|  7> S 	 -73.3796 	 8.17963 	 -109.14
|  8> C 	 -73.7968 	 9.17087 	 -107.838
|  9> C 	 -72.7181 	 9.22433 	 -106.946
| 10> C 	 -71.5438 	 8.58979 	 -107.44
| 11> C 	 -71.6633 	 8.0091 	 -108.662
| 12> H 	 -70.6394 	 8.46303 	 -106.851
| 13> C 	 -72.7225 	 9.89044 	 -105.542
| 14> H 	 -71.7904 	 10.3247 	 -105.271
| 15> H 	 -73.1534 	 9.11939 	 -104.917
| 16> C 	 -73.6862 	 11.1141 	 -105.522
| 17> H 	 -73.2591 	 11.657 	 -106.482
| 18> H 	 -74.7767 	 10.7258 	 -105.701
| 19> C 	 -73.672 	 12.0197 	 -104.247
| 20> H 	 -72.7483 	 12.4125 	 -103.839
| 21> H 	 -74.2894 	 12.8402 	 -104.447
| 22> H 	 -74.1365 	 11.4901 	 -103.369
| 23> S 	 -71.4915 	 5.8446 	 -110.354
| 24> C 	 -69.8493 	 5.47024 	 -110.993
| 25> C 	 -68.8372 	 6.17538 	 -110.403
| 26> C 	 -69.3302 	 7.17775 	 -109.455
| 27> C 	 -70.714 	 7.23613 	 -109.404
| 28> H 	 -67.8164 	 5.90788 	 -110.668
| 29> C 	 -68.4098 	 8.05994 	 -108.62
| 30> H 	 -68.9821 	 8.88438 	 -108.334
| 31> H 	 -67.5773 	 8.44629 	 -109.261
| 32> C 	 -67.8783 	 7.40219 	 -107.312
| 33> H 	 -67.3766 	 6.49154 	 -107.681
| 34> H 	 -68.6566 	 6.99431 	 -106.675
| 35> C 	 -66.9738 	 8.24654 	 -106.506
| 36> H 	 -67.3659 	 9.25989 	 -106.496
| 37> H 	 -66.012 	 8.36448 	 -107.024
| 38> H 	 -66.7519 	 7.86581 	 -105.485
| 39> H 	 -74.7511 	 9.65478 	 -107.711
| 40> H 	 -69.6982 	 4.61175 	 -111.67
| 41> *
| 42>
| 43>                          ****END OF INPUT****

CARTESIAN COORDINATES (ANGSTROEM)
---------------------------------
  S    -73.379600    8.179630  -109.140000
  C    -73.796800    9.170870  -107.838000
  C    -72.718100    9.224330  -106.946000
  C    -71.543800    8.589790  -107.440000
  C    -71.663300    8.009100  -108.662000
  H    -70.639400    8.463030  -106.851000
  C    -72.722500    9.890440  -105.542000
  H    -71.790400   10.324700  -105.271000
  H    -73.153400    9.119390  -104.917000
  C    -73.686200   11.114100  -105.522000
  H    -73.259100   11.657000  -106.482000
  H    -74.776700   10.725800  -105.701000
  C    -73.672000   12.019700  -104.247000
  H    -72.748300   12.412500  -103.839000
  H    -74.289400   12.840200  -104.447000
  H    -74.136500   11.490100  -103.369000
  S    -71.491500    5.844600  -110.354000
  C    -69.849300    5.470240  -110.993000
  C    -68.837200    6.175380  -110.403000
  C    -69.330200    7.177750  -109.455000
  C    -70.714000    7.236130  -109.404000
  H    -67.816400    5.907880  -110.668000
  C    -68.409800    8.059940  -108.620000
  H    -68.982100    8.884380  -108.334000
  H    -67.577300    8.446290  -109.261000
  C    -67.878300    7.402190  -107.312000
  H    -67.376600    6.491540  -107.681000
  H    -68.656600    6.994310  -106.675000
  C    -66.973800    8.246540  -106.506000
  H    -67.365900    9.259890  -106.496000
  H    -66.012000    8.364480  -107.024000
  H    -66.751900    7.865810  -105.485000
  H    -74.751100    9.654780  -107.711000
  H    -69.698200    4.611750  -111.670000

 Total Charge           Charge          ....    0
 Multiplicity           Mult            ....    1
 Number of Electrons    NEL             ....  134
 Basis Dimension        Dim             ....  322

ORBITAL ENERGIES
----------------

  NO   OCC          E(Eh)            E(eV)
   0   2.0000     -88.964663     -2420.8516
   1   2.0000     -88.963038     -2420.8073
   2   2.0000     -10.335885      -281.2537
   3   2.0000     -10.329740      -281.0865
   4   2.0000     -10.322731      -280.8958
   5   2.0000     -10.314099      -280.6609
   6   2.0000     -10.312789      -280.6253
   7   2.0000     -10.307803      -280.4896
   8   2.0000     -10.302762      -280.3524
   9   2.0000     -10.300064      -280.2790
  10   2.0000     -10.294745      -280.1343
  11   2.0000     -10.291786      -280.0537
  12   2.0000     -10.291582      -280.0482
  13   2.0000     -10.286654      -279.9141
  14   2.0000     -10.282353      -279.7971
  15   2.0000     -10.280265      -279.7402
  16   2.0000      -8.079835      -219.8635
  17   2.0000      -8.075970      -219.7583
  18   2.0000      -6.038399      -164.3132
  19   2.0000      -6.034681      -164.2120
  20   2.0000      -6.034200      -164.1989
  21   2.0000      -6.031108      -164.1148
  22   2.0000      -6.030560      -164.0999
  23   2.0000      -6.026240      -163.9823
  24   2.0000      -1.006506       -27.3884
  25   2.0000      -0.975776       -26.5522
  26   2.0000      -0.912172       -24.8215
  27   2.0000      -0.904604       -24.6155
  28   2.0000      -0.873513       -23.7695
  29   2.0000      -0.852720       -23.2037
  30   2.0000      -0.845177       -22.9984
  31   2.0000      -0.816236       -22.2109
  32   2.0000      -0.783828       -21.3290
  33   2.0000      -0.769928       -20.9508
  34   2.0000      -0.708376       -19.2759
  35   2.0000      -0.699678       -19.0392
  36   2.0000      -0.687160       -18.6986
  37   2.0000      -0.663791       -18.0627
  38   2.0000      -0.640451       -17.4275
  39   2.0000      -0.614767       -16.7286
  40   2.0000      -0.592706       -16.1283
  41   2.0000      -0.578112       -15.7312
  42   2.0000      -0.569467       -15.4960
  43   2.0000      -0.559825       -15.2336
  44   2.0000      -0.531203       -14.4548
  45   2.0000      -0.522225       -14.2105
  46   2.0000      -0.520288       -14.1578
  47   2.0000      -0.515290       -14.0218
  48   2.0000      -0.510519       -13.8919
  49   2.0000      -0.503334       -13.6964
  50   2.0000      -0.485825       -13.2200
  51   2.0000      -0.484712       -13.1897
  52   2.0000      -0.475868       -12.9490
  53   2.0000      -0.462569       -12.5871
  54   2.0000      -0.457918       -12.4606
  55   2.0000      -0.453834       -12.3495
  56   2.0000      -0.442307       -12.0358
  57   2.0000      -0.436452       -11.8765
  58   2.0000      -0.429866       -11.6973
  59   2.0000      -0.419333       -11.4106
  60   2.0000      -0.417853       -11.3704
  61   2.0000      -0.411657       -11.2018
  62   2.0000      -0.404690       -11.0122
  63   2.0000      -0.364856        -9.9282
  64   2.0000      -0.331809        -9.0290
  65   2.0000      -0.327584        -8.9140
  66   2.0000      -0.282962        -7.6998
  67   0.0000       0.019122         0.5203
  68   0.0000       0.069199         1.8830
  69   0.0000       0.093815         2.5528
  70   0.0000       0.127726         3.4756
  71   0.0000       0.133776         3.6402

MULLIKEN ATOMIC CHARGES
-----------------------
   0 S :    0.108958
   1 C :   -0.118378
   2 C :   -0.124122
   3 C :   -0.004788
   4 C :   -0.108463
   5 H :    0.006885
   6 C :    0.131581
   7 H :    0.023306
   8 H :    0.043205
   9 C :   -0.215800
  10 H :    0.056870
  11 H :    0.049944
  12 C :   -0.008734
  13 H :    0.030455
  14 H :    0.027366
  15 H :    0.032090
  16 S :    0.061243
  17 C :   -0.093958
  18 C :   -0.020894
  19 C :   -0.061463
  20 C :   -0.108810
  21 H :    0.025079
  22 C :    0.063456
  23 H :    0.002571
  24 H :    0.035980
  25 C :   -0.081414
  26 H :    0.020099
  27 H :    0.030491
  28 C :   -0.018775
  29 H :    0.021801
  30 H :    0.024703
  31 H :    0.048102
  32 H :    0.054323
  33 H :    0.067090
Sum of atomic charges:    0.0000000

LOEWDIN ATOMIC CHARGES
----------------------
   0 S :    0.416482
   1 C :   -0.215320
   2 C :   -0.066847
   3 C :   -0.069851
   4 C :   -0.183930
   5 H :    0.032125
   6 C :   -0.028210
   7 H :    0.024447
   8 H :    0.033723
   9 C :   -0.057007
  10 H :    0.036912
  11 H :    0.030731
  12 C :   -0.071183
  13 H :    0.024113
  14 H :    0.022107
  15 H :    0.032440
  16 S :    0.326377
  17 C :   -0.161654
  18 C :   -0.071163
  19 C :   -0.048537
  20 C :   -0.150137
  21 H :    0.036452
  22 C :   -0.027134
  23 H :    0.016541
  24 H :    0.037219
  25 C :   -0.047149
  26 H :    0.024380
  27 H :    0.023314
  28 C :   -0.068609
  29 H :    0.024462
  30 H :    0.027230
  31 H :    0.034087
  32 H :    0.030824
  33 H :    0.032767

  Mayer bond orders larger than 0.100000
B(  0-S ,  1-C ) :   1.1570 B(  0-S ,  4-C ) :   1.1356 B(  1-C ,  2-C ) :   1.5612
B(  1-C , 32-H ) :   0.9740 B(  2-C ,  3-C ) :   1.2835 B(  2-C ,  6-C ) :   1.0109
B(  3-C ,  4-C ) :   1.5444 B(  3-C ,  5-H ) :   0.9931 B(  4-C , 20-C ) :   1.0985
B(  6-C ,  7-H ) :   0.9523 B(  6-C ,  8-H ) :   0.9284 B(  6-C ,  9-C ) :   1.0581
B(  9-C , 10-H ) :   0.9640 B(  9-C , 11-H ) :   0.9456 B(  9-C , 12-C ) :   1.0716
B( 12-C , 13-H ) :   0.9756 B( 12-C , 14-H ) :   0.9731 B( 12-C , 15-H ) :   0.9710
B( 16-S , 17-C ) :   1.1152 B( 16-S , 20-C ) :   1.0897 B( 17-C , 18-C ) :   1.6809
B( 17-C , 33-H ) :   0.9608 B( 18-C , 19-C ) :   1.1614 B( 18-C , 21-H ) :   0.9897
B( 19-C , 20-C ) :   1.6595 B( 19-C , 22-C ) :   1.0537 B( 22-C , 23-H ) :   0.9237
B( 22-C , 24-H ) :   0.9360 B( 22-C , 25-C ) :   1.0557 B( 25-C , 26-H ) :   0.9522
B( 25-C , 27-H ) :   0.9512 B( 25-C , 28-C ) :   1.0884 B( 28-C , 29-H ) :   0.9691
B( 28-C , 30-H ) :   0.9699 B( 28-C , 31-H ) :   0.9718

Dispersion correction           -0.013676816
FINAL SINGLE POINT ENERGY     -1339.863491991523

DIPOLE MOMENT
-------------
                                X             Y             Z
Electronic contribution:    -11.17089     -16.42033     -23.75857
Nuclear contribution   :     11.64335      16.62882      24.37115
                        -----------------------------------------
Total Dipole Moment    :      0.47246       0.20850       0.61257
                        -----------------------------------------
Magnitude (a.u.)       :      0.80121
Magnitude (Debye)      :      2.03651

Rotational constants in cm-1:     0.018729     0.008284     0.005909
Rotational constants in MHz :   561.487523   248.348203   177.150190

                             ****ORCA TERMINATED NORMALLY****
TOTAL RUN TIME: 0 days 0 hours 0 minutes 19 seconds 998 msec
