                         Program Version 4.2.1 -  RELEASE  -
|  1> ! wB97X-D3 SP def2-SVP
|  2> %pal
|  3> nprocs 24
|  4> end
|  5>
|  6> * xyz 0 1
|  7> S 	 -89.5917 	 -29.6608 	 -74.7661
|  8> C 	 -87.8802 	 -30.1275 	 -74.8407
|  9> C 	 -87.1742 	 -29.0865 	 -75.4274
| 10> C 	 -87.9837 	 -28.2548 	 -76.2437
| 11> C 	 -89.2748 	 -28.29 	 -75.8319
| 12> H 	 -87.6835 	 -27.4822 	 -76.9167
| 13> C 	 -85.6436 	 -28.987 	 -75.4972
| 14> H 	 -85.2252 	 -28.7296 	 -74.5228
| 15> H 	 -85.3877 	 -28.2861 	 -76.2292
| 16> C 	 -85.1253 	 -30.3577 	 -75.9827
| 17> H 	 -84.0462 	 -30.2848 	 -75.8767
| 18> H 	 -85.3008 	 -31.1288 	 -75.1696
| 19> C 	 -85.5048 	 -30.7253 	 -77.4617
| 20> H 	 -85.2572 	 -31.7775 	 -77.7394
| 21> H 	 -86.6018 	 -30.5547 	 -77.6743
| 22> H 	 -84.9892 	 -30.0717 	 -78.163
| 23> S 	 -90.8824 	 -26.2082 	 -75.1345
| 24> C 	 -91.9569 	 -25.4163 	 -76.3231
| 25> C 	 -91.8909 	 -26.1579 	 -77.4928
| 26> C 	 -90.9037 	 -27.2236 	 -77.5208
| 27> C 	 -90.3105 	 -27.3912 	 -76.2783
| 28> H 	 -92.5149 	 -25.921 	 -78.3316
| 29> C 	 -90.7078 	 -27.9941 	 -78.8168
| 30> H 	 -91.5398 	 -27.6553 	 -79.5395
| 31> H 	 -90.779 	 -29.0135 	 -78.5872
| 32> C 	 -89.3403 	 -27.723 	 -79.6068
| 33> H 	 -88.5638 	 -28.0713 	 -78.8822
| 34> H 	 -89.2648 	 -26.6734 	 -79.7257
| 35> C 	 -89.1814 	 -28.4768 	 -80.8572
| 36> H 	 -89.2538 	 -29.5562 	 -80.727
| 37> H 	 -88.2045 	 -28.2533 	 -81.3199
| 38> H 	 -90.0361 	 -28.1135 	 -81.4793
| 39> H 	 -87.3916 	 -30.8983 	 -74.2353
| 40> H 	 -92.6599 	 -24.5799 	 -76.1883
| 41> *
| 42>
| 43>                          ****END OF INPUT****

CARTESIAN COORDINATES (ANGSTROEM)
---------------------------------
  S    -89.591700  -29.660800  -74.766100
  C    -87.880200  -30.127500  -74.840700
  C    -87.174200  -29.086500  -75.427400
  C    -87.983700  -28.254800  -76.243700
  C    -89.274800  -28.290000  -75.831900
  H    -87.683500  -27.482200  -76.916700
  C    -85.643600  -28.987000  -75.497200
  H    -85.225200  -28.729600  -74.522800
  H    -85.387700  -28.286100  -76.229200
  C    -85.125300  -30.357700  -75.982700
  H    -84.046200  -30.284800  -75.876700
  H    -85.300800  -31.128800  -75.169600
  C    -85.504800  -30.725300  -77.461700
  H    -85.257200  -31.777500  -77.739400
  H    -86.601800  -30.554700  -77.674300
  H    -84.989200  -30.071700  -78.163000
  S    -90.882400  -26.208200  -75.134500
  C    -91.956900  -25.416300  -76.323100
  C    -91.890900  -26.157900  -77.492800
  C    -90.903700  -27.223600  -77.520800
  C    -90.310500  -27.391200  -76.278300
  H    -92.514900  -25.921000  -78.331600
  C    -90.707800  -27.994100  -78.816800
  H    -91.539800  -27.655300  -79.539500
  H    -90.779000  -29.013500  -78.587200
  C    -89.340300  -27.723000  -79.606800
  H    -88.563800  -28.071300  -78.882200
  H    -89.264800  -26.673400  -79.725700
  C    -89.181400  -28.476800  -80.857200
  H    -89.253800  -29.556200  -80.727000
  H    -88.204500  -28.253300  -81.319900
  H    -90.036100  -28.113500  -81.479300
  H    -87.391600  -30.898300  -74.235300
  H    -92.659900  -24.579900  -76.188300

 Total Charge           Charge          ....    0
 Multiplicity           Mult            ....    1
 Number of Electrons    NEL             ....  134
 Basis Dimension        Dim             ....  322

ORBITAL ENERGIES
----------------

  NO   OCC          E(Eh)            E(eV)
   0   2.0000     -88.966705     -2420.9071
   1   2.0000     -88.964376     -2420.8437
   2   2.0000     -10.326398      -280.9956
   3   2.0000     -10.324839      -280.9531
   4   2.0000     -10.321564      -280.8640
   5   2.0000     -10.314706      -280.6774
   6   2.0000     -10.304284      -280.3938
   7   2.0000     -10.301019      -280.3050
   8   2.0000     -10.295841      -280.1641
   9   2.0000     -10.294714      -280.1334
  10   2.0000     -10.293295      -280.0948
  11   2.0000     -10.290670      -280.0234
  12   2.0000     -10.289823      -280.0003
  13   2.0000     -10.288196      -279.9561
  14   2.0000     -10.283584      -279.8305
  15   2.0000     -10.279653      -279.7236
  16   2.0000      -8.080673      -219.8863
  17   2.0000      -8.078566      -219.8290
  18   2.0000      -6.039295      -164.3376
  19   2.0000      -6.037263      -164.2823
  20   2.0000      -6.035364      -164.2306
  21   2.0000      -6.033021      -164.1668
  22   2.0000      -6.031264      -164.1190
  23   2.0000      -6.029270      -164.0648
  24   2.0000      -1.006864       -27.3982
  25   2.0000      -0.981038       -26.6954
  26   2.0000      -0.910467       -24.7751
  27   2.0000      -0.906460       -24.6660
  28   2.0000      -0.867036       -23.5932
  29   2.0000      -0.852356       -23.1938
  30   2.0000      -0.843323       -22.9480
  31   2.0000      -0.812374       -22.1058
  32   2.0000      -0.781718       -21.2716
  33   2.0000      -0.768197       -20.9037
  34   2.0000      -0.709027       -19.2936
  35   2.0000      -0.699302       -19.0290
  36   2.0000      -0.688105       -18.7243
  37   2.0000      -0.662413       -18.0252
  38   2.0000      -0.642503       -17.4834
  39   2.0000      -0.610390       -16.6096
  40   2.0000      -0.589908       -16.0522
  41   2.0000      -0.572160       -15.5693
  42   2.0000      -0.570217       -15.5164
  43   2.0000      -0.556150       -15.1336
  44   2.0000      -0.531553       -14.4643
  45   2.0000      -0.521477       -14.1901
  46   2.0000      -0.518691       -14.1143
  47   2.0000      -0.513905       -13.9841
  48   2.0000      -0.507735       -13.8162
  49   2.0000      -0.495297       -13.4777
  50   2.0000      -0.492319       -13.3967
  51   2.0000      -0.479930       -13.0596
  52   2.0000      -0.477362       -12.9897
  53   2.0000      -0.464855       -12.6493
  54   2.0000      -0.456816       -12.4306
  55   2.0000      -0.445379       -12.1194
  56   2.0000      -0.444832       -12.1045
  57   2.0000      -0.435558       -11.8521
  58   2.0000      -0.429996       -11.7008
  59   2.0000      -0.428508       -11.6603
  60   2.0000      -0.420693       -11.4476
  61   2.0000      -0.410388       -11.1672
  62   2.0000      -0.405576       -11.0363
  63   2.0000      -0.340348        -9.2613
  64   2.0000      -0.328425        -8.9369
  65   2.0000      -0.323441        -8.8013
  66   2.0000      -0.299618        -8.1530
  67   0.0000       0.037328         1.0157
  68   0.0000       0.055728         1.5164
  69   0.0000       0.105518         2.8713
  70   0.0000       0.120964         3.2916
  71   0.0000       0.125331         3.4104

MULLIKEN ATOMIC CHARGES
-----------------------
   0 S :    0.119202
   1 C :   -0.125660
   2 C :   -0.124197
   3 C :    0.045279
   4 C :   -0.159592
   5 H :    0.022042
   6 C :    0.121113
   7 H :    0.042053
   8 H :    0.002843
   9 C :   -0.111683
  10 H :    0.019248
  11 H :    0.030344
  12 C :   -0.061189
  13 H :    0.047001
  14 H :    0.052647
  15 H :    0.030177
  16 S :    0.105444
  17 C :   -0.097651
  18 C :   -0.041495
  19 C :   -0.015058
  20 C :   -0.185906
  21 H :    0.012777
  22 C :    0.055879
  23 H :    0.026521
  24 H :    0.025839
  25 C :   -0.095978
  26 H :    0.025063
  27 H :    0.024454
  28 C :   -0.024919
  29 H :    0.034439
  30 H :    0.043400
  31 H :    0.029949
  32 H :    0.059116
  33 H :    0.068498
Sum of atomic charges:   -0.0000000

LOEWDIN ATOMIC CHARGES
----------------------
   0 S :    0.392687
   1 C :   -0.200833
   2 C :   -0.053840
   3 C :   -0.060281
   4 C :   -0.188007
   5 H :    0.030404
   6 C :   -0.020852
   7 H :    0.036459
   8 H :    0.019310
   9 C :   -0.046298
  10 H :    0.018911
  11 H :    0.025454
  12 C :   -0.071616
  13 H :    0.032870
  14 H :    0.033002
  15 H :    0.024140
  16 S :    0.398736
  17 C :   -0.186127
  18 C :   -0.069444
  19 C :   -0.057717
  20 C :   -0.204913
  21 H :    0.025274
  22 C :   -0.025832
  23 H :    0.034749
  24 H :    0.023161
  25 C :   -0.042739
  26 H :    0.023554
  27 H :    0.017848
  28 C :   -0.066946
  29 H :    0.026610
  30 H :    0.032274
  31 H :    0.029450
  32 H :    0.030764
  33 H :    0.039787

  Mayer bond orders larger than 0.100000
B(  0-S ,  1-C ) :   1.1187 B(  0-S ,  4-C ) :   1.1432 B(  1-C ,  2-C ) :   1.6211
B(  1-C ,  4-C ) :   0.1053 B(  1-C , 32-H ) :   0.9659 B(  2-C ,  3-C ) :   1.2089
B(  2-C ,  6-C ) :   1.0251 B(  3-C ,  4-C ) :   1.6193 B(  3-C ,  5-H ) :   0.9775
B(  4-C , 20-C ) :   1.0282 B(  6-C ,  7-H ) :   0.9320 B(  6-C ,  8-H ) :   0.9425
B(  6-C ,  9-C ) :   1.0893 B(  9-C , 10-H ) :   0.9555 B(  9-C , 11-H ) :   0.9543
B(  9-C , 12-C ) :   1.0510 B( 12-C , 13-H ) :   0.9757 B( 12-C , 14-H ) :   0.9773
B( 12-C , 15-H ) :   0.9742 B( 16-S , 17-C ) :   1.1347 B( 16-S , 20-C ) :   1.1462
B( 17-C , 18-C ) :   1.6234 B( 17-C , 33-H ) :   0.9653 B( 18-C , 19-C ) :   1.2397
B( 18-C , 21-H ) :   0.9836 B( 19-C , 20-C ) :   1.6013 B( 19-C , 22-C ) :   1.0454
B( 22-C , 23-H ) :   0.9380 B( 22-C , 24-H ) :   0.9290 B( 22-C , 25-C ) :   1.0592
B( 25-C , 26-H ) :   0.9441 B( 25-C , 27-H ) :   0.9564 B( 25-C , 28-C ) :   1.0971
B( 28-C , 29-H ) :   0.9704 B( 28-C , 30-H ) :   0.9686 B( 28-C , 31-H ) :   0.9704

Dispersion correction           -0.015059396
FINAL SINGLE POINT ENERGY     -1339.864526555400

DIPOLE MOMENT
-------------
                                X             Y             Z
Electronic contribution:    -17.47683       8.29663      21.64939
Nuclear contribution   :     17.94098      -8.24650     -22.12934
                        -----------------------------------------
Total Dipole Moment    :      0.46415       0.05014      -0.47995
                        -----------------------------------------
Magnitude (a.u.)       :      0.66955
Magnitude (Debye)      :      1.70186

Rotational constants in cm-1:     0.018240     0.009654     0.007159
Rotational constants in MHz :   546.832182   289.407221   214.619690

                             ****ORCA TERMINATED NORMALLY****
TOTAL RUN TIME: 0 days 0 hours 0 minutes 21 seconds 92 msec
