                         Program Version 4.2.1 -  RELEASE  -
|  1> ! wB97X-D3 SP def2-SVP
|  2> %pal
|  3> nprocs 24
|  4> end
|  5>
|  6> * xyz 0 1
|  7> S 	 44.849 	 -21.2079 	 -114.046
|  8> C 	 46.4576 	 -21.705 	 -113.762
|  9> C 	 47.0531 	 -21.0834 	 -112.707
| 10> C 	 46.119 	 -20.2514 	 -112.064
| 11> C 	 44.8424 	 -20.2349 	 -112.67
| 12> H 	 46.37 	 -19.6964 	 -111.192
| 13> C 	 48.4739 	 -21.3402 	 -112.251
| 14> H 	 48.7624 	 -20.5961 	 -111.469
| 15> H 	 49.0829 	 -21.151 	 -113.111
| 16> C 	 48.7748 	 -22.6747 	 -111.652
| 17> H 	 48.555 	 -23.4299 	 -112.341
| 18> H 	 49.8463 	 -22.8055 	 -111.44
| 19> C 	 47.9013 	 -22.9974 	 -110.445
| 20> H 	 48.2543 	 -22.4056 	 -109.529
| 21> H 	 46.9194 	 -22.7398 	 -110.653
| 22> H 	 48.0127 	 -24.0421 	 -110.112
| 23> S 	 43.1758 	 -18.1097 	 -113.315
| 24> C 	 42.0491 	 -17.518 	 -112.098
| 25> C 	 42.1064 	 -18.185 	 -110.913
| 26> C 	 43.1306 	 -19.1784 	 -110.908
| 27> C 	 43.6928 	 -19.4062 	 -112.203
| 28> H 	 41.534 	 -17.8642 	 -110.041
| 29> C 	 43.6244 	 -19.7637 	 -109.61
| 30> H 	 44.1855 	 -18.9991 	 -109.112
| 31> H 	 44.1552 	 -20.6518 	 -109.977
| 32> C 	 42.444 	 -20.1962 	 -108.643
| 33> H 	 41.6476 	 -19.4959 	 -108.526
| 34> H 	 42.6621 	 -20.1883 	 -107.568
| 35> C 	 41.9621 	 -21.619 	 -108.977
| 36> H 	 42.6021 	 -22.4411 	 -108.585
| 37> H 	 41.8653 	 -21.6227 	 -110.086
| 38> H 	 40.9063 	 -21.7936 	 -108.666
| 39> H 	 47.0436 	 -22.1923 	 -114.556
| 40> H 	 41.3735 	 -16.7654 	 -112.377
| 41> *
| 42>
| 43>                          ****END OF INPUT****

CARTESIAN COORDINATES (ANGSTROEM)
---------------------------------
  S     44.849000  -21.207900  -114.046000
  C     46.457600  -21.705000  -113.762000
  C     47.053100  -21.083400  -112.707000
  C     46.119000  -20.251400  -112.064000
  C     44.842400  -20.234900  -112.670000
  H     46.370000  -19.696400  -111.192000
  C     48.473900  -21.340200  -112.251000
  H     48.762400  -20.596100  -111.469000
  H     49.082900  -21.151000  -113.111000
  C     48.774800  -22.674700  -111.652000
  H     48.555000  -23.429900  -112.341000
  H     49.846300  -22.805500  -111.440000
  C     47.901300  -22.997400  -110.445000
  H     48.254300  -22.405600  -109.529000
  H     46.919400  -22.739800  -110.653000
  H     48.012700  -24.042100  -110.112000
  S     43.175800  -18.109700  -113.315000
  C     42.049100  -17.518000  -112.098000
  C     42.106400  -18.185000  -110.913000
  C     43.130600  -19.178400  -110.908000
  C     43.692800  -19.406200  -112.203000
  H     41.534000  -17.864200  -110.041000
  C     43.624400  -19.763700  -109.610000
  H     44.185500  -18.999100  -109.112000
  H     44.155200  -20.651800  -109.977000
  C     42.444000  -20.196200  -108.643000
  H     41.647600  -19.495900  -108.526000
  H     42.662100  -20.188300  -107.568000
  C     41.962100  -21.619000  -108.977000
  H     42.602100  -22.441100  -108.585000
  H     41.865300  -21.622700  -110.086000
  H     40.906300  -21.793600  -108.666000
  H     47.043600  -22.192300  -114.556000
  H     41.373500  -16.765400  -112.377000

 Total Charge           Charge          ....    0
 Multiplicity           Mult            ....    1
 Number of Electrons    NEL             ....  134
 Basis Dimension        Dim             ....  322

ORBITAL ENERGIES
----------------

  NO   OCC          E(Eh)            E(eV)
   0   2.0000     -88.969774     -2420.9906
   1   2.0000     -88.963774     -2420.8274
   2   2.0000     -10.333546      -281.1901
   3   2.0000     -10.329130      -281.0699
   4   2.0000     -10.314465      -280.6709
   5   2.0000     -10.308028      -280.4957
   6   2.0000     -10.307774      -280.4888
   7   2.0000     -10.295988      -280.1681
   8   2.0000     -10.295253      -280.1481
   9   2.0000     -10.292985      -280.0864
  10   2.0000     -10.290819      -280.0274
  11   2.0000     -10.290807      -280.0271
  12   2.0000     -10.286898      -279.9207
  13   2.0000     -10.280612      -279.7497
  14   2.0000     -10.278530      -279.6930
  15   2.0000     -10.273920      -279.5676
  16   2.0000      -8.086231      -220.0375
  17   2.0000      -8.078143      -219.8174
  18   2.0000      -6.044420      -164.4770
  19   2.0000      -6.040325      -164.3656
  20   2.0000      -6.037404      -164.2861
  21   2.0000      -6.036642      -164.2654
  22   2.0000      -6.032792      -164.1606
  23   2.0000      -6.028856      -164.0535
  24   2.0000      -1.013269       -27.5725
  25   2.0000      -0.985429       -26.8149
  26   2.0000      -0.921117       -25.0649
  27   2.0000      -0.904956       -24.6251
  28   2.0000      -0.867495       -23.6057
  29   2.0000      -0.852364       -23.1940
  30   2.0000      -0.844612       -22.9831
  31   2.0000      -0.812007       -22.0958
  32   2.0000      -0.785853       -21.3841
  33   2.0000      -0.768141       -20.9022
  34   2.0000      -0.708910       -19.2904
  35   2.0000      -0.702693       -19.1213
  36   2.0000      -0.695605       -18.9284
  37   2.0000      -0.657469       -17.8906
  38   2.0000      -0.640670       -17.4335
  39   2.0000      -0.615061       -16.7367
  40   2.0000      -0.596044       -16.2192
  41   2.0000      -0.578560       -15.7434
  42   2.0000      -0.562902       -15.3173
  43   2.0000      -0.561837       -15.2884
  44   2.0000      -0.546351       -14.8670
  45   2.0000      -0.528774       -14.3887
  46   2.0000      -0.520677       -14.1683
  47   2.0000      -0.505081       -13.7439
  48   2.0000      -0.499229       -13.5847
  49   2.0000      -0.494177       -13.4473
  50   2.0000      -0.488865       -13.3027
  51   2.0000      -0.470534       -12.8039
  52   2.0000      -0.466697       -12.6995
  53   2.0000      -0.466430       -12.6922
  54   2.0000      -0.458840       -12.4857
  55   2.0000      -0.448114       -12.1938
  56   2.0000      -0.444644       -12.0994
  57   2.0000      -0.441998       -12.0274
  58   2.0000      -0.436543       -11.8789
  59   2.0000      -0.428546       -11.6613
  60   2.0000      -0.425055       -11.5663
  61   2.0000      -0.411410       -11.1950
  62   2.0000      -0.405335       -11.0297
  63   2.0000      -0.343017        -9.3340
  64   2.0000      -0.336782        -9.1643
  65   2.0000      -0.325012        -8.8440
  66   2.0000      -0.295868        -8.0510
  67   0.0000       0.030862         0.8398
  68   0.0000       0.067176         1.8279
  69   0.0000       0.109774         2.9871
  70   0.0000       0.121647         3.3102
  71   0.0000       0.130545         3.5523

MULLIKEN ATOMIC CHARGES
-----------------------
   0 S :    0.143114
   1 C :   -0.134912
   2 C :   -0.121188
   3 C :    0.040685
   4 C :   -0.174652
   5 H :   -0.005073
   6 C :    0.089617
   7 H :    0.020678
   8 H :    0.027065
   9 C :   -0.035743
  10 H :    0.007401
  11 H :    0.031257
  12 C :   -0.063463
  13 H :    0.024848
  14 H :    0.036053
  15 H :    0.036479
  16 S :    0.088490
  17 C :   -0.071878
  18 C :   -0.021855
  19 C :   -0.074304
  20 C :   -0.141693
  21 H :    0.027930
  22 C :    0.082470
  23 H :    0.046169
  24 H :    0.046639
  25 C :   -0.072991
  26 H :    0.010538
  27 H :    0.015169
  28 C :   -0.077805
  29 H :    0.054139
  30 H :    0.036848
  31 H :    0.030233
  32 H :    0.057268
  33 H :    0.042466
Sum of atomic charges:   -0.0000000

LOEWDIN ATOMIC CHARGES
----------------------
   0 S :    0.465022
   1 C :   -0.218718
   2 C :   -0.069110
   3 C :   -0.059308
   4 C :   -0.228888
   5 H :    0.023912
   6 C :   -0.028514
   7 H :    0.033214
   8 H :    0.031009
   9 C :   -0.040448
  10 H :    0.014523
  11 H :    0.028017
  12 C :   -0.060285
  13 H :    0.028107
  14 H :    0.015228
  15 H :    0.028616
  16 S :    0.385352
  17 C :   -0.162121
  18 C :   -0.075218
  19 C :   -0.050854
  20 C :   -0.195981
  21 H :    0.036011
  22 C :   -0.023328
  23 H :    0.034230
  24 H :    0.037968
  25 C :   -0.050810
  26 H :    0.017266
  27 H :    0.024300
  28 C :   -0.073941
  29 H :    0.030901
  30 H :    0.028863
  31 H :    0.027896
  32 H :    0.031090
  33 H :    0.015998

  Mayer bond orders larger than 0.100000
B(  0-S ,  1-C ) :   1.1716 B(  0-S ,  4-C ) :   1.2026 B(  1-C ,  2-C ) :   1.5726
B(  1-C , 32-H ) :   0.9583 B(  2-C ,  3-C ) :   1.3074 B(  2-C ,  6-C ) :   1.0130
B(  3-C ,  4-C ) :   1.4920 B(  3-C ,  5-H ) :   1.0049 B(  4-C , 20-C ) :   1.0116
B(  6-C ,  7-H ) :   0.9416 B(  6-C ,  8-H ) :   0.9298 B(  6-C ,  9-C ) :   1.0873
B(  9-C , 10-H ) :   0.9498 B(  9-C , 11-H ) :   0.9528 B(  9-C , 12-C ) :   1.0739
B( 12-C , 13-H ) :   0.9744 B( 12-C , 14-H ) :   0.9767 B( 12-C , 15-H ) :   0.9740
B( 16-S , 17-C ) :   1.1587 B( 16-S , 20-C ) :   1.1424 B( 17-C , 18-C ) :   1.6138
B( 17-C , 20-C ) :   0.1016 B( 17-C , 33-H ) :   0.9708 B( 18-C , 19-C ) :   1.2316
B( 18-C , 21-H ) :   0.9888 B( 19-C , 20-C ) :   1.5897 B( 19-C , 22-C ) :   1.0346
B( 22-C , 23-H ) :   0.9325 B( 22-C , 24-H ) :   0.9401 B( 22-C , 25-C ) :   1.0525
B( 25-C , 26-H ) :   0.9567 B( 25-C , 27-H ) :   0.9530 B( 25-C , 28-C ) :   1.0723
B( 28-C , 29-H ) :   0.9761 B( 28-C , 30-H ) :   0.9774 B( 28-C , 31-H ) :   0.9729

Dispersion correction           -0.014560495
FINAL SINGLE POINT ENERGY     -1339.869561320647

DIPOLE MOMENT
-------------
                                X             Y             Z
Electronic contribution:     -8.42199      13.02767     -22.70558
Nuclear contribution   :      8.70624     -12.95745      23.20069
                        -----------------------------------------
Total Dipole Moment    :      0.28425       0.07021       0.49512
                        -----------------------------------------
Magnitude (a.u.)       :      0.57521
Magnitude (Debye)      :      1.46207

Rotational constants in cm-1:     0.018605     0.009053     0.006922
Rotational constants in MHz :   557.772752   271.391429   207.502217

                             ****ORCA TERMINATED NORMALLY****
TOTAL RUN TIME: 0 days 0 hours 0 minutes 22 seconds 26 msec
