                         Program Version 4.2.1 -  RELEASE  -
|  1> ! wB97X-D3 SP def2-SVP
|  2> %pal
|  3> nprocs 24
|  4> end
|  5>
|  6> * xyz 0 1
|  7> S 	 29.226 	 0.574756 	 -119.217
|  8> C 	 30.7995 	 0.647407 	 -120.093
|  9> C 	 31.3611 	 1.90812 	 -119.878
| 10> C 	 30.6888 	 2.63906 	 -118.852
| 11> C 	 29.5451 	 2.02037 	 -118.313
| 12> H 	 31.0439 	 3.65894 	 -118.369
| 13> C 	 32.6503 	 2.38544 	 -120.456
| 14> H 	 32.9106 	 3.37853 	 -120.099
| 15> H 	 32.3666 	 2.58 	 -121.492
| 16> C 	 33.9727 	 1.56083 	 -120.307
| 17> H 	 34.3332 	 1.59942 	 -119.297
| 18> H 	 33.7783 	 0.522304 	 -120.533
| 19> C 	 35.0925 	 2.07747 	 -121.199
| 20> H 	 35.9449 	 1.47693 	 -121.039
| 21> H 	 34.7946 	 2.08915 	 -122.224
| 22> H 	 35.266 	 3.16899 	 -120.982
| 23> S 	 27.9527 	 4.10941 	 -117.256
| 24> C 	 27.0781 	 3.8055 	 -115.78
| 25> C 	 27.7088 	 2.82821 	 -115.104
| 26> C 	 28.7096 	 2.07657 	 -115.807
| 27> C 	 28.7953 	 2.50674 	 -117.14
| 28> H 	 27.4017 	 2.52005 	 -114.125
| 29> C 	 29.2675 	 0.757657 	 -115.243
| 30> H 	 28.966 	 -0.0818816 	 -115.828
| 31> H 	 28.8411 	 0.557028 	 -114.283
| 32> C 	 30.7703 	 0.663521 	 -115.257
| 33> H 	 31.1562 	 0.706321 	 -116.318
| 34> H 	 31.0553 	 -0.369532 	 -114.908
| 35> C 	 31.5307 	 1.79465 	 -114.575
| 36> H 	 32.1396 	 1.40362 	 -113.732
| 37> H 	 30.9168 	 2.57676 	 -114.208
| 38> H 	 32.2777 	 2.28581 	 -115.295
| 39> H 	 31.0189 	 0.0825905 	 -121.012
| 40> H 	 26.2003 	 4.41717 	 -115.475
| 41> *
| 42>
| 43>                          ****END OF INPUT****

CARTESIAN COORDINATES (ANGSTROEM)
---------------------------------
  S     29.226000    0.574756  -119.217000
  C     30.799500    0.647407  -120.093000
  C     31.361100    1.908120  -119.878000
  C     30.688800    2.639060  -118.852000
  C     29.545100    2.020370  -118.313000
  H     31.043900    3.658940  -118.369000
  C     32.650300    2.385440  -120.456000
  H     32.910600    3.378530  -120.099000
  H     32.366600    2.580000  -121.492000
  C     33.972700    1.560830  -120.307000
  H     34.333200    1.599420  -119.297000
  H     33.778300    0.522304  -120.533000
  C     35.092500    2.077470  -121.199000
  H     35.944900    1.476930  -121.039000
  H     34.794600    2.089150  -122.224000
  H     35.266000    3.168990  -120.982000
  S     27.952700    4.109410  -117.256000
  C     27.078100    3.805500  -115.780000
  C     27.708800    2.828210  -115.104000
  C     28.709600    2.076570  -115.807000
  C     28.795300    2.506740  -117.140000
  H     27.401700    2.520050  -114.125000
  C     29.267500    0.757657  -115.243000
  H     28.966000   -0.081882  -115.828000
  H     28.841100    0.557028  -114.283000
  C     30.770300    0.663521  -115.257000
  H     31.156200    0.706321  -116.318000
  H     31.055300   -0.369532  -114.908000
  C     31.530700    1.794650  -114.575000
  H     32.139600    1.403620  -113.732000
  H     30.916800    2.576760  -114.208000
  H     32.277700    2.285810  -115.295000
  H     31.018900    0.082590  -121.012000
  H     26.200300    4.417170  -115.475000

 Total Charge           Charge          ....    0
 Multiplicity           Mult            ....    1
 Number of Electrons    NEL             ....  134
 Basis Dimension        Dim             ....  322

ORBITAL ENERGIES
----------------

  NO   OCC          E(Eh)            E(eV)
   0   2.0000     -88.970283     -2421.0045
   1   2.0000     -88.960697     -2420.7436
   2   2.0000     -10.335432      -281.2414
   3   2.0000     -10.335254      -281.2365
   4   2.0000     -10.320289      -280.8293
   5   2.0000     -10.319534      -280.8088
   6   2.0000     -10.309311      -280.5306
   7   2.0000     -10.306521      -280.4547
   8   2.0000     -10.304337      -280.3953
   9   2.0000     -10.292020      -280.0601
  10   2.0000     -10.290970      -280.0315
  11   2.0000     -10.287021      -279.9241
  12   2.0000     -10.286588      -279.9123
  13   2.0000     -10.283883      -279.8387
  14   2.0000     -10.277154      -279.6556
  15   2.0000     -10.273119      -279.5458
  16   2.0000      -8.083849      -219.9727
  17   2.0000      -8.075175      -219.7367
  18   2.0000      -6.042399      -164.4220
  19   2.0000      -6.038445      -164.3144
  20   2.0000      -6.034677      -164.2119
  21   2.0000      -6.033751      -164.1867
  22   2.0000      -6.029930      -164.0827
  23   2.0000      -6.025652      -163.9663
  24   2.0000      -1.001335       -27.2477
  25   2.0000      -0.982595       -26.7378
  26   2.0000      -0.912718       -24.8363
  27   2.0000      -0.907791       -24.7022
  28   2.0000      -0.869323       -23.6555
  29   2.0000      -0.848176       -23.0800
  30   2.0000      -0.841126       -22.8882
  31   2.0000      -0.808193       -21.9920
  32   2.0000      -0.784595       -21.3499
  33   2.0000      -0.775131       -21.0924
  34   2.0000      -0.708491       -19.2790
  35   2.0000      -0.704834       -19.1795
  36   2.0000      -0.681096       -18.5336
  37   2.0000      -0.659427       -17.9439
  38   2.0000      -0.631593       -17.1865
  39   2.0000      -0.608186       -16.5496
  40   2.0000      -0.595431       -16.2025
  41   2.0000      -0.574654       -15.6371
  42   2.0000      -0.557633       -15.1740
  43   2.0000      -0.549105       -14.9419
  44   2.0000      -0.546795       -14.8791
  45   2.0000      -0.532405       -14.4875
  46   2.0000      -0.514602       -14.0030
  47   2.0000      -0.509589       -13.8666
  48   2.0000      -0.504957       -13.7406
  49   2.0000      -0.497556       -13.5392
  50   2.0000      -0.487873       -13.2757
  51   2.0000      -0.480403       -13.0724
  52   2.0000      -0.473984       -12.8978
  53   2.0000      -0.466187       -12.6856
  54   2.0000      -0.453914       -12.3516
  55   2.0000      -0.443157       -12.0589
  56   2.0000      -0.440231       -11.9793
  57   2.0000      -0.435038       -11.8380
  58   2.0000      -0.431192       -11.7333
  59   2.0000      -0.421721       -11.4756
  60   2.0000      -0.419455       -11.4140
  61   2.0000      -0.416876       -11.3438
  62   2.0000      -0.397006       -10.8031
  63   2.0000      -0.337179        -9.1751
  64   2.0000      -0.331062        -9.0086
  65   2.0000      -0.327383        -8.9085
  66   2.0000      -0.299324        -8.1450
  67   0.0000       0.027309         0.7431
  68   0.0000       0.046926         1.2769
  69   0.0000       0.100987         2.7480
  70   0.0000       0.116320         3.1652
  71   0.0000       0.132680         3.6104

MULLIKEN ATOMIC CHARGES
-----------------------
   0 S :    0.111426
   1 C :   -0.135949
   2 C :   -0.090078
   3 C :   -0.008336
   4 C :   -0.164445
   5 H :    0.054559
   6 C :    0.044753
   7 H :    0.009311
   8 H :    0.031685
   9 C :   -0.048462
  10 H :    0.031066
  11 H :    0.023059
  12 C :   -0.037649
  13 H :    0.036375
  14 H :    0.021903
  15 H :    0.030184
  16 S :    0.083712
  17 C :   -0.092054
  18 C :   -0.019532
  19 C :   -0.019103
  20 C :   -0.181894
  21 H :    0.007155
  22 C :    0.124248
  23 H :    0.027473
  24 H :    0.008042
  25 C :   -0.120897
  26 H :    0.050439
  27 H :    0.033549
  28 C :   -0.061779
  29 H :    0.035093
  30 H :    0.029801
  31 H :    0.037650
  32 H :    0.070922
  33 H :    0.077775
Sum of atomic charges:    0.0000000

LOEWDIN ATOMIC CHARGES
----------------------
   0 S :    0.403943
   1 C :   -0.201752
   2 C :   -0.062912
   3 C :   -0.079857
   4 C :   -0.206968
   5 H :    0.048632
   6 C :   -0.038337
   7 H :    0.027858
   8 H :    0.035371
   9 C :   -0.030832
  10 H :    0.024289
  11 H :    0.019207
  12 C :   -0.058490
  13 H :    0.023333
  14 H :    0.019906
  15 H :    0.030285
  16 S :    0.372603
  17 C :   -0.180453
  18 C :   -0.075213
  19 C :   -0.046780
  20 C :   -0.174283
  21 H :    0.025306
  22 C :   -0.027534
  23 H :    0.034590
  24 H :    0.023945
  25 C :   -0.053580
  26 H :    0.034628
  27 H :    0.028271
  28 C :   -0.076004
  29 H :    0.029074
  30 H :    0.018321
  31 H :    0.034925
  32 H :    0.036346
  33 H :    0.042159

  Mayer bond orders larger than 0.100000
B(  0-S ,  1-C ) :   1.1270 B(  0-S ,  4-C ) :   1.1661 B(  1-C ,  2-C ) :   1.5873
B(  1-C ,  4-C ) :   0.1073 B(  1-C , 32-H ) :   0.9596 B(  2-C ,  3-C ) :   1.2739
B(  2-C ,  6-C ) :   1.0252 B(  3-C ,  4-C ) :   1.5539 B(  3-C ,  5-H ) :   0.9696
B(  4-C , 20-C ) :   1.0336 B(  6-C ,  7-H ) :   0.9433 B(  6-C ,  8-H ) :   0.9315
B(  6-C ,  9-C ) :   1.0585 B(  9-C , 10-H ) :   0.9573 B(  9-C , 11-H ) :   0.9557
B(  9-C , 12-C ) :   1.0841 B( 12-C , 13-H ) :   0.9733 B( 12-C , 14-H ) :   0.9765
B( 12-C , 15-H ) :   0.9738 B( 16-S , 17-C ) :   1.1389 B( 16-S , 20-C ) :   1.1260
B( 17-C , 18-C ) :   1.6180 B( 17-C , 33-H ) :   0.9670 B( 18-C , 19-C ) :   1.2194
B( 18-C , 21-H ) :   0.9908 B( 19-C , 20-C ) :   1.5901 B( 19-C , 22-C ) :   1.0303
B( 22-C , 23-H ) :   0.9331 B( 22-C , 24-H ) :   0.9376 B( 22-C , 25-C ) :   1.0766
B( 25-C , 26-H ) :   0.9624 B( 25-C , 27-H ) :   0.9587 B( 25-C , 28-C ) :   1.0516
B( 28-C , 29-H ) :   0.9772 B( 28-C , 30-H ) :   0.9802 B( 28-C , 31-H ) :   0.9805

Dispersion correction           -0.014943276
FINAL SINGLE POINT ENERGY     -1339.858021796195

DIPOLE MOMENT
-------------
                                X             Y             Z
Electronic contribution:    -25.83845       4.14903      -1.85943
Nuclear contribution   :     26.19819      -4.21245       1.96880
                        -----------------------------------------
Total Dipole Moment    :      0.35973      -0.06341       0.10938
                        -----------------------------------------
Magnitude (a.u.)       :      0.38130
Magnitude (Debye)      :      0.96919

Rotational constants in cm-1:     0.021264     0.007704     0.007033
Rotational constants in MHz :   637.473199   230.971567   210.830122

                             ****ORCA TERMINATED NORMALLY****
TOTAL RUN TIME: 0 days 0 hours 0 minutes 21 seconds 623 msec
