                         Program Version 4.2.1 -  RELEASE  -
|  1> ! wB97X-D3 SP def2-SVP
|  2> %pal
|  3> nprocs 24
|  4> end
|  5>
|  6> * xyz 0 1
|  7> S 	 -38.1579 	 18.8218 	 14.4687
|  8> C 	 -39.8794 	 18.5467 	 14.657
|  9> C 	 -40.2516 	 19.1504 	 15.846
| 10> C 	 -39.3212 	 19.9691 	 16.4489
| 11> C 	 -38.0932 	 20.0935 	 15.7953
| 12> H 	 -39.5031 	 20.4724 	 17.3738
| 13> C 	 -41.7155 	 19.0473 	 16.3909
| 14> H 	 -42.2792 	 19.3878 	 15.5075
| 15> H 	 -41.9258 	 19.7935 	 17.1413
| 16> C 	 -41.9794 	 17.6166 	 16.8536
| 17> H 	 -41.9159 	 17.0108 	 15.8975
| 18> H 	 -41.1348 	 17.2516 	 17.5469
| 19> C 	 -43.4357 	 17.3824 	 17.3708
| 20> H 	 -44.2167 	 17.436 	 16.5692
| 21> H 	 -43.5217 	 16.4109 	 17.9372
| 22> H 	 -43.6222 	 18.1794 	 18.0946
| 23> S 	 -35.4205 	 20.2199 	 15.5672
| 24> C 	 -34.4689 	 21.6368 	 15.9014
| 25> C 	 -35.287 	 22.6335 	 16.2882
| 26> C 	 -36.6894 	 22.2656 	 16.3477
| 27> C 	 -36.9075 	 20.9248 	 16.0535
| 28> H 	 -34.9615 	 23.6495 	 16.4391
| 29> C 	 -37.7225 	 23.2489 	 16.6727
| 30> H 	 -37.6184 	 23.5008 	 17.7061
| 31> H 	 -38.6772 	 22.7513 	 16.5467
| 32> C 	 -37.626 	 24.569 	 15.8804
| 33> H 	 -36.697 	 25.1767 	 16.1011
| 34> H 	 -38.4993 	 25.2365 	 16.0478
| 35> C 	 -37.5067 	 24.3404 	 14.359
| 36> H 	 -38.4658 	 23.9138 	 14.0553
| 37> H 	 -36.7199 	 23.7313 	 13.997
| 38> H 	 -37.437 	 25.2837 	 13.7767
| 39> H 	 -40.5044 	 17.9806 	 14.0138
| 40> H 	 -33.4195 	 21.7037 	 15.9276
| 41> *
| 42>
| 43>                          ****END OF INPUT****

CARTESIAN COORDINATES (ANGSTROEM)
---------------------------------
  S    -38.157900   18.821800   14.468700
  C    -39.879400   18.546700   14.657000
  C    -40.251600   19.150400   15.846000
  C    -39.321200   19.969100   16.448900
  C    -38.093200   20.093500   15.795300
  H    -39.503100   20.472400   17.373800
  C    -41.715500   19.047300   16.390900
  H    -42.279200   19.387800   15.507500
  H    -41.925800   19.793500   17.141300
  C    -41.979400   17.616600   16.853600
  H    -41.915900   17.010800   15.897500
  H    -41.134800   17.251600   17.546900
  C    -43.435700   17.382400   17.370800
  H    -44.216700   17.436000   16.569200
  H    -43.521700   16.410900   17.937200
  H    -43.622200   18.179400   18.094600
  S    -35.420500   20.219900   15.567200
  C    -34.468900   21.636800   15.901400
  C    -35.287000   22.633500   16.288200
  C    -36.689400   22.265600   16.347700
  C    -36.907500   20.924800   16.053500
  H    -34.961500   23.649500   16.439100
  C    -37.722500   23.248900   16.672700
  H    -37.618400   23.500800   17.706100
  H    -38.677200   22.751300   16.546700
  C    -37.626000   24.569000   15.880400
  H    -36.697000   25.176700   16.101100
  H    -38.499300   25.236500   16.047800
  C    -37.506700   24.340400   14.359000
  H    -38.465800   23.913800   14.055300
  H    -36.719900   23.731300   13.997000
  H    -37.437000   25.283700   13.776700
  H    -40.504400   17.980600   14.013800
  H    -33.419500   21.703700   15.927600

 Total Charge           Charge          ....    0
 Multiplicity           Mult            ....    1
 Number of Electrons    NEL             ....  134
 Basis Dimension        Dim             ....  322

ORBITAL ENERGIES
----------------

  NO   OCC          E(Eh)            E(eV)
   0   2.0000     -88.965233     -2420.8671
   1   2.0000     -88.960973     -2420.7511
   2   2.0000     -10.342624      -281.4371
   3   2.0000     -10.330037      -281.0946
   4   2.0000     -10.315520      -280.6996
   5   2.0000     -10.313797      -280.6527
   6   2.0000     -10.302972      -280.3581
   7   2.0000     -10.298827      -280.2453
   8   2.0000     -10.298313      -280.2313
   9   2.0000     -10.294823      -280.1364
  10   2.0000     -10.293453      -280.0991
  11   2.0000     -10.292704      -280.0787
  12   2.0000     -10.291684      -280.0510
  13   2.0000     -10.288043      -279.9519
  14   2.0000     -10.286472      -279.9091
  15   2.0000     -10.269611      -279.4503
  16   2.0000      -8.078514      -219.8275
  17   2.0000      -8.076993      -219.7861
  18   2.0000      -6.037209      -164.2808
  19   2.0000      -6.035616      -164.2375
  20   2.0000      -6.033200      -164.1717
  21   2.0000      -6.031248      -164.1186
  22   2.0000      -6.029143      -164.0613
  23   2.0000      -6.027604      -164.0194
  24   2.0000      -1.010713       -27.5029
  25   2.0000      -0.986739       -26.8505
  26   2.0000      -0.914197       -24.8766
  27   2.0000      -0.904883       -24.6231
  28   2.0000      -0.872899       -23.7528
  29   2.0000      -0.847890       -23.0723
  30   2.0000      -0.840860       -22.8810
  31   2.0000      -0.820468       -22.3261
  32   2.0000      -0.780897       -21.2493
  33   2.0000      -0.768667       -20.9165
  34   2.0000      -0.710823       -19.3425
  35   2.0000      -0.699757       -19.0413
  36   2.0000      -0.691726       -18.8228
  37   2.0000      -0.662404       -18.0249
  38   2.0000      -0.643640       -17.5143
  39   2.0000      -0.622610       -16.9421
  40   2.0000      -0.600006       -16.3270
  41   2.0000      -0.568435       -15.4679
  42   2.0000      -0.557027       -15.1575
  43   2.0000      -0.556542       -15.1443
  44   2.0000      -0.541755       -14.7419
  45   2.0000      -0.526322       -14.3220
  46   2.0000      -0.522845       -14.2273
  47   2.0000      -0.514307       -13.9950
  48   2.0000      -0.513184       -13.9644
  49   2.0000      -0.499634       -13.5957
  50   2.0000      -0.497067       -13.5259
  51   2.0000      -0.478668       -13.0252
  52   2.0000      -0.470343       -12.7987
  53   2.0000      -0.463200       -12.6043
  54   2.0000      -0.461452       -12.5567
  55   2.0000      -0.447373       -12.1736
  56   2.0000      -0.439319       -11.9545
  57   2.0000      -0.435596       -11.8532
  58   2.0000      -0.432025       -11.7560
  59   2.0000      -0.418768       -11.3953
  60   2.0000      -0.412537       -11.2257
  61   2.0000      -0.411271       -11.1913
  62   2.0000      -0.405409       -11.0317
  63   2.0000      -0.362330        -9.8595
  64   2.0000      -0.334253        -9.0955
  65   2.0000      -0.323988        -8.8162
  66   2.0000      -0.285271        -7.7626
  67   0.0000       0.019559         0.5322
  68   0.0000       0.069448         1.8898
  69   0.0000       0.108139         2.9426
  70   0.0000       0.119329         3.2471
  71   0.0000       0.139599         3.7987

MULLIKEN ATOMIC CHARGES
-----------------------
   0 S :    0.090528
   1 C :   -0.106532
   2 C :   -0.097682
   3 C :    0.035623
   4 C :   -0.126561
   5 H :    0.004988
   6 C :    0.059621
   7 H :    0.038203
   8 H :    0.013255
   9 C :   -0.125262
  10 H :    0.032941
  11 H :    0.058769
  12 C :   -0.050428
  13 H :    0.043896
  14 H :    0.048024
  15 H :    0.026392
  16 S :    0.080208
  17 C :   -0.050913
  18 C :   -0.021884
  19 C :   -0.102235
  20 C :   -0.127192
  21 H :    0.013504
  22 C :    0.135991
  23 H :    0.033542
  24 H :    0.013438
  25 C :   -0.124730
  26 H :    0.036847
  27 H :    0.041646
  28 C :   -0.058090
  29 H :    0.023601
  30 H :    0.043898
  31 H :    0.029582
  32 H :    0.044099
  33 H :    0.042912
Sum of atomic charges:   -0.0000000

LOEWDIN ATOMIC CHARGES
----------------------
   0 S :    0.371590
   1 C :   -0.186442
   2 C :   -0.066265
   3 C :   -0.071145
   4 C :   -0.159435
   5 H :    0.028675
   6 C :   -0.032022
   7 H :    0.034909
   8 H :    0.019756
   9 C :   -0.053349
  10 H :    0.027194
  11 H :    0.038221
  12 C :   -0.075846
  13 H :    0.030645
  14 H :    0.033640
  15 H :    0.020949
  16 S :    0.417172
  17 C :   -0.174591
  18 C :   -0.068274
  19 C :   -0.056287
  20 C :   -0.205727
  21 H :    0.029351
  22 C :   -0.033785
  23 H :    0.034625
  24 H :    0.030532
  25 C :   -0.043965
  26 H :    0.025268
  27 H :    0.030826
  28 C :   -0.069994
  29 H :    0.024119
  30 H :    0.020737
  31 H :    0.027888
  32 H :    0.025378
  33 H :    0.025651

  Mayer bond orders larger than 0.100000
B(  0-S ,  1-C ) :   1.1410 B(  0-S ,  4-C ) :   1.1377 B(  1-C ,  2-C ) :   1.5668
B(  1-C ,  4-C ) :   0.1180 B(  1-C , 32-H ) :   0.9776 B(  2-C ,  3-C ) :   1.2970
B(  2-C ,  6-C ) :   0.9970 B(  3-C ,  4-C ) :   1.5264 B(  3-C ,  5-H ) :   0.9982
B(  4-C , 20-C ) :   1.0667 B(  6-C ,  7-H ) :   0.9464 B(  6-C ,  8-H ) :   0.9501
B(  6-C ,  9-C ) :   1.0466 B(  9-C , 10-H ) :   0.9576 B(  9-C , 11-H ) :   0.9584
B(  9-C , 12-C ) :   1.0667 B( 12-C , 13-H ) :   0.9751 B( 12-C , 14-H ) :   0.9755
B( 12-C , 15-H ) :   0.9762 B( 16-S , 17-C ) :   1.1506 B( 16-S , 20-C ) :   1.1353
B( 17-C , 18-C ) :   1.6083 B( 17-C , 33-H ) :   0.9742 B( 18-C , 19-C ) :   1.2379
B( 18-C , 21-H ) :   0.9921 B( 19-C , 20-C ) :   1.5730 B( 19-C , 22-C ) :   1.0573
B( 22-C , 23-H ) :   0.9233 B( 22-C , 24-H ) :   0.9281 B( 22-C , 25-C ) :   1.0628
B( 25-C , 26-H ) :   0.9546 B( 25-C , 27-H ) :   0.9581 B( 25-C , 28-C ) :   1.0740
B( 28-C , 29-H ) :   0.9769 B( 28-C , 30-H ) :   0.9723 B( 28-C , 31-H ) :   0.9742

Dispersion correction           -0.014097691
FINAL SINGLE POINT ENERGY     -1339.869342585790

DIPOLE MOMENT
-------------
                                X             Y             Z
Electronic contribution:     21.30920      -8.82385      -5.66265
Nuclear contribution   :    -21.72216       9.29562       5.92220
                        -----------------------------------------
Total Dipole Moment    :     -0.41297       0.47176       0.25955
                        -----------------------------------------
Magnitude (a.u.)       :      0.67858
Magnitude (Debye)      :      1.72481

Rotational constants in cm-1:     0.023697     0.007186     0.006203
Rotational constants in MHz :   710.410660   215.419364   185.974157

                             ****ORCA TERMINATED NORMALLY****
TOTAL RUN TIME: 0 days 0 hours 0 minutes 21 seconds 344 msec
