                         Program Version 4.2.1 -  RELEASE  -
|  1> ! wB97X-D3 SP def2-SVP
|  2> %pal
|  3> nprocs 24
|  4> end
|  5>
|  6> * xyz 0 1
|  7> S 	 -35.6768 	 -11.0491 	 14.7687
|  8> C 	 -33.9694 	 -11.4168 	 14.8857
|  9> C 	 -33.2441 	 -10.2304 	 14.7691
| 10> C 	 -34.1054 	 -9.08442 	 14.6047
| 11> C 	 -35.4761 	 -9.30682 	 14.5919
| 12> H 	 -33.7382 	 -8.02013 	 14.5674
| 13> C 	 -31.7426 	 -10.101 	 14.7407
| 14> H 	 -31.5237 	 -9.03381 	 14.8046
| 15> H 	 -31.4198 	 -10.3768 	 13.7255
| 16> C 	 -30.9831 	 -10.9247 	 15.7604
| 17> H 	 -31.1715 	 -10.6832 	 16.8218
| 18> H 	 -31.2224 	 -11.978 	 15.7227
| 19> C 	 -29.4608 	 -10.9125 	 15.6112
| 20> H 	 -29.0659 	 -11.4892 	 16.4677
| 21> H 	 -29.0528 	 -11.3156 	 14.6957
| 22> H 	 -29.0864 	 -9.9449 	 15.8493
| 23> S 	 -37.7728 	 -8.60186 	 13.304
| 24> C 	 -38.8412 	 -7.45281 	 14.1616
| 25> C 	 -38.2196 	 -6.86839 	 15.2662
| 26> C 	 -36.8882 	 -7.342 	 15.4312
| 27> C 	 -36.6222 	 -8.43882 	 14.6006
| 28> H 	 -38.8614 	 -6.1458 	 15.7757
| 29> C 	 -35.9597 	 -6.85423 	 16.4863
| 30> H 	 -35.071 	 -7.49503 	 16.6676
| 31> H 	 -36.5963 	 -7.07324 	 17.4096
| 32> C 	 -35.6342 	 -5.27096 	 16.4379
| 33> H 	 -34.8335 	 -5.1725 	 17.1557
| 34> H 	 -36.4567 	 -4.70034 	 16.9876
| 35> C 	 -35.1608 	 -4.74498 	 15.0915
| 36> H 	 -35.9477 	 -4.56001 	 14.4041
| 37> H 	 -34.5475 	 -5.53511 	 14.6274
| 38> H 	 -34.5592 	 -3.87267 	 14.9409
| 39> H 	 -33.5256 	 -12.3885 	 15.187
| 40> H 	 -39.9277 	 -7.33242 	 14.0288
| 41> *
| 42>
| 43>                          ****END OF INPUT****

CARTESIAN COORDINATES (ANGSTROEM)
---------------------------------
  S    -35.676800  -11.049100   14.768700
  C    -33.969400  -11.416800   14.885700
  C    -33.244100  -10.230400   14.769100
  C    -34.105400   -9.084420   14.604700
  C    -35.476100   -9.306820   14.591900
  H    -33.738200   -8.020130   14.567400
  C    -31.742600  -10.101000   14.740700
  H    -31.523700   -9.033810   14.804600
  H    -31.419800  -10.376800   13.725500
  C    -30.983100  -10.924700   15.760400
  H    -31.171500  -10.683200   16.821800
  H    -31.222400  -11.978000   15.722700
  C    -29.460800  -10.912500   15.611200
  H    -29.065900  -11.489200   16.467700
  H    -29.052800  -11.315600   14.695700
  H    -29.086400   -9.944900   15.849300
  S    -37.772800   -8.601860   13.304000
  C    -38.841200   -7.452810   14.161600
  C    -38.219600   -6.868390   15.266200
  C    -36.888200   -7.342000   15.431200
  C    -36.622200   -8.438820   14.600600
  H    -38.861400   -6.145800   15.775700
  C    -35.959700   -6.854230   16.486300
  H    -35.071000   -7.495030   16.667600
  H    -36.596300   -7.073240   17.409600
  C    -35.634200   -5.270960   16.437900
  H    -34.833500   -5.172500   17.155700
  H    -36.456700   -4.700340   16.987600
  C    -35.160800   -4.744980   15.091500
  H    -35.947700   -4.560010   14.404100
  H    -34.547500   -5.535110   14.627400
  H    -34.559200   -3.872670   14.940900
  H    -33.525600  -12.388500   15.187000
  H    -39.927700   -7.332420   14.028800

 Total Charge           Charge          ....    0
 Multiplicity           Mult            ....    1
 Number of Electrons    NEL             ....  134
 Basis Dimension        Dim             ....  322

ORBITAL ENERGIES
----------------

  NO   OCC          E(Eh)            E(eV)
   0   2.0000     -88.966627     -2420.9050
   1   2.0000     -88.961681     -2420.7704
   2   2.0000     -10.328651      -281.0569
   3   2.0000     -10.324905      -280.9549
   4   2.0000     -10.320289      -280.8293
   5   2.0000     -10.318258      -280.7741
   6   2.0000     -10.307072      -280.4697
   7   2.0000     -10.302840      -280.3545
   8   2.0000     -10.300765      -280.2981
   9   2.0000     -10.300144      -280.2812
  10   2.0000     -10.299102      -280.2528
  11   2.0000     -10.298104      -280.2257
  12   2.0000     -10.293759      -280.1074
  13   2.0000     -10.287953      -279.9494
  14   2.0000     -10.276270      -279.6315
  15   2.0000     -10.274812      -279.5918
  16   2.0000      -8.080879      -219.8919
  17   2.0000      -8.076229      -219.7654
  18   2.0000      -6.039408      -164.3406
  19   2.0000      -6.035583      -164.2366
  20   2.0000      -6.034794      -164.2151
  21   2.0000      -6.031509      -164.1257
  22   2.0000      -6.030548      -164.0996
  23   2.0000      -6.027111      -164.0060
  24   2.0000      -1.004355       -27.3299
  25   2.0000      -0.980348       -26.6766
  26   2.0000      -0.914112       -24.8742
  27   2.0000      -0.901267       -24.5247
  28   2.0000      -0.870917       -23.6989
  29   2.0000      -0.850218       -23.1356
  30   2.0000      -0.845847       -23.0167
  31   2.0000      -0.814328       -22.1590
  32   2.0000      -0.783399       -21.3174
  33   2.0000      -0.770215       -20.9586
  34   2.0000      -0.711449       -19.3595
  35   2.0000      -0.706289       -19.2191
  36   2.0000      -0.693162       -18.8619
  37   2.0000      -0.655804       -17.8453
  38   2.0000      -0.636616       -17.3232
  39   2.0000      -0.614085       -16.7101
  40   2.0000      -0.586114       -15.9490
  41   2.0000      -0.570761       -15.5312
  42   2.0000      -0.565250       -15.3812
  43   2.0000      -0.551092       -14.9960
  44   2.0000      -0.537588       -14.6285
  45   2.0000      -0.525526       -14.3003
  46   2.0000      -0.522492       -14.2177
  47   2.0000      -0.512111       -13.9353
  48   2.0000      -0.503036       -13.6883
  49   2.0000      -0.500208       -13.6114
  50   2.0000      -0.484084       -13.1726
  51   2.0000      -0.479898       -13.0587
  52   2.0000      -0.470599       -12.8056
  53   2.0000      -0.464932       -12.6514
  54   2.0000      -0.460594       -12.5334
  55   2.0000      -0.444566       -12.0973
  56   2.0000      -0.442645       -12.0450
  57   2.0000      -0.437086       -11.8937
  58   2.0000      -0.434788       -11.8312
  59   2.0000      -0.422268       -11.4905
  60   2.0000      -0.417800       -11.3689
  61   2.0000      -0.415559       -11.3079
  62   2.0000      -0.410584       -11.1726
  63   2.0000      -0.341860        -9.3025
  64   2.0000      -0.327974        -8.9246
  65   2.0000      -0.325560        -8.8589
  66   2.0000      -0.290586        -7.9073
  67   0.0000       0.027251         0.7415
  68   0.0000       0.063721         1.7339
  69   0.0000       0.108144         2.9427
  70   0.0000       0.121803         3.3144
  71   0.0000       0.127876         3.4797

MULLIKEN ATOMIC CHARGES
-----------------------
   0 S :    0.102231
   1 C :   -0.135599
   2 C :   -0.109174
   3 C :    0.015679
   4 C :   -0.162110
   5 H :    0.025181
   6 C :    0.109895
   7 H :    0.013688
   8 H :    0.039992
   9 C :   -0.103600
  10 H :    0.030447
  11 H :    0.020395
  12 C :   -0.036521
  13 H :    0.025289
  14 H :    0.038859
  15 H :    0.017372
  16 S :    0.119176
  17 C :   -0.111705
  18 C :   -0.048582
  19 C :    0.024263
  20 C :   -0.170705
  21 H :    0.029022
  22 C :   -0.015518
  23 H :    0.042798
  24 H :    0.046221
  25 C :   -0.063752
  26 H :    0.025408
  27 H :    0.040272
  28 C :   -0.021662
  29 H :    0.027912
  30 H :    0.019329
  31 H :    0.030367
  32 H :    0.069596
  33 H :    0.065539
Sum of atomic charges:   -0.0000000

LOEWDIN ATOMIC CHARGES
----------------------
   0 S :    0.405928
   1 C :   -0.206006
   2 C :   -0.068785
   3 C :   -0.073718
   4 C :   -0.198415
   5 H :    0.034246
   6 C :   -0.033006
   7 H :    0.029469
   8 H :    0.039329
   9 C :   -0.044909
  10 H :    0.029454
  11 H :    0.020180
  12 C :   -0.062175
  13 H :    0.031569
  14 H :    0.022465
  15 H :    0.018107
  16 S :    0.396754
  17 C :   -0.180407
  18 C :   -0.068987
  19 C :   -0.052530
  20 C :   -0.210687
  21 H :    0.039133
  22 C :   -0.041890
  23 H :    0.034224
  24 H :    0.046117
  25 C :   -0.042219
  26 H :    0.024349
  27 H :    0.030612
  28 C :   -0.073771
  29 H :    0.024752
  30 H :    0.030967
  31 H :    0.027019
  32 H :    0.038642
  33 H :    0.034191

  Mayer bond orders larger than 0.100000
B(  0-S ,  1-C ) :   1.1502 B(  0-S ,  4-C ) :   1.1553 B(  1-C ,  2-C ) :   1.5798
B(  1-C ,  4-C ) :   0.1043 B(  1-C , 32-H ) :   0.9652 B(  2-C ,  3-C ) :   1.2624
B(  2-C ,  6-C ) :   1.0189 B(  3-C ,  4-C ) :   1.5608 B(  3-C ,  5-H ) :   0.9859
B(  4-C , 20-C ) :   1.0415 B(  6-C ,  7-H ) :   0.9405 B(  6-C ,  8-H ) :   0.9322
B(  6-C ,  9-C ) :   1.0621 B(  9-C , 10-H ) :   0.9567 B(  9-C , 11-H ) :   0.9536
B(  9-C , 12-C ) :   1.0963 B( 12-C , 13-H ) :   0.9714 B( 12-C , 14-H ) :   0.9759
B( 12-C , 15-H ) :   0.9735 B( 16-S , 17-C ) :   1.1353 B( 16-S , 20-C ) :   1.1464
B( 17-C , 18-C ) :   1.6467 B( 17-C , 20-C ) :   0.1052 B( 17-C , 33-H ) :   0.9605
B( 18-C , 19-C ) :   1.1966 B( 18-C , 21-H ) :   0.9901 B( 19-C , 20-C ) :   1.5742
B( 19-C , 22-C ) :   1.0498 B( 22-C , 23-H ) :   0.9407 B( 22-C , 24-H ) :   0.9366
B( 22-C , 25-C ) :   1.0574 B( 25-C , 26-H ) :   0.9580 B( 25-C , 27-H ) :   0.9568
B( 25-C , 28-C ) :   1.0589 B( 28-C , 29-H ) :   0.9700 B( 28-C , 30-H ) :   0.9727
B( 28-C , 31-H ) :   0.9752

Dispersion correction           -0.014377098
FINAL SINGLE POINT ENERGY     -1339.863071133480

DIPOLE MOMENT
-------------
                                X             Y             Z
Electronic contribution:    -24.45523     -10.47903     -10.35016
Nuclear contribution   :     24.91347      10.86769      10.80386
                        -----------------------------------------
Total Dipole Moment    :      0.45824       0.38866       0.45370
                        -----------------------------------------
Magnitude (a.u.)       :      0.75292
Magnitude (Debye)      :      1.91376

Rotational constants in cm-1:     0.021169     0.007818     0.006175
Rotational constants in MHz :   634.629098   234.383833   185.133729

                             ****ORCA TERMINATED NORMALLY****
TOTAL RUN TIME: 0 days 0 hours 0 minutes 21 seconds 398 msec
