                         Program Version 4.2.1 -  RELEASE  -
|  1> ! wB97X-D3 SP def2-SVP
|  2> %pal
|  3> nprocs 24
|  4> end
|  5>
|  6> * xyz 0 1
|  7> S 	 44.045 	 -35.5526 	 -118.351
|  8> C 	 43.2086 	 -35.1032 	 -119.79
|  9> C 	 43.8937 	 -34.146 	 -120.477
| 10> C 	 45.2028 	 -33.8871 	 -119.957
| 11> C 	 45.4176 	 -34.4301 	 -118.711
| 12> H 	 45.9534 	 -33.1455 	 -120.255
| 13> C 	 43.2267 	 -33.6276 	 -121.759
| 14> H 	 42.2502 	 -34.1752 	 -122.019
| 15> H 	 43.8965 	 -33.7233 	 -122.603
| 16> C 	 42.6852 	 -32.2369 	 -121.554
| 17> H 	 42.0761 	 -31.9417 	 -122.348
| 18> H 	 41.922 	 -32.4128 	 -120.776
| 19> C 	 43.6281 	 -31.1037 	 -121.216
| 20> H 	 43.9955 	 -31.1051 	 -120.124
| 21> H 	 44.3408 	 -31.1114 	 -122.009
| 22> H 	 43.0678 	 -30.1211 	 -121.402
| 23> S 	 47.6901 	 -35.9841 	 -118.442
| 24> C 	 49.1101 	 -35.245 	 -117.878
| 25> C 	 48.8574 	 -33.9625 	 -117.406
| 26> C 	 47.5055 	 -33.5889 	 -117.394
| 27> C 	 46.7721 	 -34.5624 	 -118.114
| 28> H 	 49.6937 	 -33.4573 	 -117.047
| 29> C 	 46.8906 	 -32.2714 	 -116.841
| 30> H 	 46.9952 	 -32.2691 	 -115.766
| 31> H 	 45.8351 	 -32.4084 	 -116.858
| 32> C 	 47.4825 	 -30.8989 	 -117.435
| 33> H 	 47.6565 	 -31.1541 	 -118.479
| 34> H 	 48.5022 	 -30.7895 	 -116.906
| 35> C 	 46.514 	 -29.7208 	 -117.202
| 36> H 	 45.567 	 -29.9734 	 -117.723
| 37> H 	 46.9331 	 -28.8542 	 -117.663
| 38> H 	 46.2454 	 -29.5541 	 -116.168
| 39> H 	 42.2101 	 -35.3835 	 -120.07
| 40> H 	 50.0733 	 -35.7545 	 -117.868
| 41> *
| 42>
| 43>                          ****END OF INPUT****

CARTESIAN COORDINATES (ANGSTROEM)
---------------------------------
  S     44.045000  -35.552600  -118.351000
  C     43.208600  -35.103200  -119.790000
  C     43.893700  -34.146000  -120.477000
  C     45.202800  -33.887100  -119.957000
  C     45.417600  -34.430100  -118.711000
  H     45.953400  -33.145500  -120.255000
  C     43.226700  -33.627600  -121.759000
  H     42.250200  -34.175200  -122.019000
  H     43.896500  -33.723300  -122.603000
  C     42.685200  -32.236900  -121.554000
  H     42.076100  -31.941700  -122.348000
  H     41.922000  -32.412800  -120.776000
  C     43.628100  -31.103700  -121.216000
  H     43.995500  -31.105100  -120.124000
  H     44.340800  -31.111400  -122.009000
  H     43.067800  -30.121100  -121.402000
  S     47.690100  -35.984100  -118.442000
  C     49.110100  -35.245000  -117.878000
  C     48.857400  -33.962500  -117.406000
  C     47.505500  -33.588900  -117.394000
  C     46.772100  -34.562400  -118.114000
  H     49.693700  -33.457300  -117.047000
  C     46.890600  -32.271400  -116.841000
  H     46.995200  -32.269100  -115.766000
  H     45.835100  -32.408400  -116.858000
  C     47.482500  -30.898900  -117.435000
  H     47.656500  -31.154100  -118.479000
  H     48.502200  -30.789500  -116.906000
  C     46.514000  -29.720800  -117.202000
  H     45.567000  -29.973400  -117.723000
  H     46.933100  -28.854200  -117.663000
  H     46.245400  -29.554100  -116.168000
  H     42.210100  -35.383500  -120.070000
  H     50.073300  -35.754500  -117.868000

 Total Charge           Charge          ....    0
 Multiplicity           Mult            ....    1
 Number of Electrons    NEL             ....  134
 Basis Dimension        Dim             ....  322

ORBITAL ENERGIES
----------------

  NO   OCC          E(Eh)            E(eV)
   0   2.0000     -88.965391     -2420.8714
   1   2.0000     -88.961406     -2420.7629
   2   2.0000     -10.330451      -281.1059
   3   2.0000     -10.324522      -280.9445
   4   2.0000     -10.312060      -280.6054
   5   2.0000     -10.310127      -280.5528
   6   2.0000     -10.306042      -280.4417
   7   2.0000     -10.300050      -280.2786
   8   2.0000     -10.299161      -280.2544
   9   2.0000     -10.298646      -280.2404
  10   2.0000     -10.295024      -280.1419
  11   2.0000     -10.291190      -280.0375
  12   2.0000     -10.285805      -279.8910
  13   2.0000     -10.285017      -279.8695
  14   2.0000     -10.281532      -279.7747
  15   2.0000     -10.275997      -279.6241
  16   2.0000      -8.081462      -219.9077
  17   2.0000      -8.075912      -219.7568
  18   2.0000      -6.039607      -164.3460
  19   2.0000      -6.035723      -164.2404
  20   2.0000      -6.034435      -164.2053
  21   2.0000      -6.032582      -164.1549
  22   2.0000      -6.030362      -164.0945
  23   2.0000      -6.026753      -163.9963
  24   2.0000      -1.007760       -27.4226
  25   2.0000      -0.987346       -26.8671
  26   2.0000      -0.913910       -24.8688
  27   2.0000      -0.898797       -24.4575
  28   2.0000      -0.868999       -23.6467
  29   2.0000      -0.852468       -23.1968
  30   2.0000      -0.841196       -22.8901
  31   2.0000      -0.817151       -22.2358
  32   2.0000      -0.783850       -21.3297
  33   2.0000      -0.770436       -20.9646
  34   2.0000      -0.703132       -19.1332
  35   2.0000      -0.697259       -18.9734
  36   2.0000      -0.691426       -18.8147
  37   2.0000      -0.654829       -17.8188
  38   2.0000      -0.642902       -17.4943
  39   2.0000      -0.612052       -16.6548
  40   2.0000      -0.595340       -16.2000
  41   2.0000      -0.578369       -15.7382
  42   2.0000      -0.556308       -15.1379
  43   2.0000      -0.542345       -14.7580
  44   2.0000      -0.538733       -14.6597
  45   2.0000      -0.529405       -14.4058
  46   2.0000      -0.516437       -14.0530
  47   2.0000      -0.512181       -13.9372
  48   2.0000      -0.509751       -13.8710
  49   2.0000      -0.496318       -13.5055
  50   2.0000      -0.487703       -13.2711
  51   2.0000      -0.481271       -13.0961
  52   2.0000      -0.471670       -12.8348
  53   2.0000      -0.467150       -12.7118
  54   2.0000      -0.458860       -12.4862
  55   2.0000      -0.446757       -12.1569
  56   2.0000      -0.436639       -11.8816
  57   2.0000      -0.430189       -11.7060
  58   2.0000      -0.427316       -11.6279
  59   2.0000      -0.426457       -11.6045
  60   2.0000      -0.421568       -11.4714
  61   2.0000      -0.417684       -11.3658
  62   2.0000      -0.405509       -11.0345
  63   2.0000      -0.341984        -9.3058
  64   2.0000      -0.330646        -8.9973
  65   2.0000      -0.320461        -8.7202
  66   2.0000      -0.303009        -8.2453
  67   0.0000       0.040678         1.1069
  68   0.0000       0.056278         1.5314
  69   0.0000       0.118907         3.2356
  70   0.0000       0.123404         3.3580
  71   0.0000       0.130522         3.5517

MULLIKEN ATOMIC CHARGES
-----------------------
   0 S :    0.089552
   1 C :   -0.094657
   2 C :   -0.083673
   3 C :    0.041110
   4 C :   -0.175998
   5 H :    0.032242
   6 C :    0.041771
   7 H :    0.031094
   8 H :    0.030356
   9 C :   -0.064454
  10 H :    0.009744
  11 H :    0.010121
  12 C :   -0.064849
  13 H :    0.070718
  14 H :    0.023530
  15 H :    0.036034
  16 S :    0.144908
  17 C :   -0.110715
  18 C :   -0.027543
  19 C :   -0.021476
  20 C :   -0.194026
  21 H :   -0.009097
  22 C :    0.078650
  23 H :    0.022762
  24 H :    0.010191
  25 C :   -0.106424
  26 H :    0.041652
  27 H :    0.048173
  28 C :   -0.026604
  29 H :    0.036370
  30 H :    0.037228
  31 H :    0.036451
  32 H :    0.044705
  33 H :    0.062154
Sum of atomic charges:    0.0000000

LOEWDIN ATOMIC CHARGES
----------------------
   0 S :    0.380492
   1 C :   -0.190825
   2 C :   -0.069614
   3 C :   -0.053608
   4 C :   -0.187199
   5 H :    0.039257
   6 C :   -0.029054
   7 H :    0.041276
   8 H :    0.022072
   9 C :   -0.053294
  10 H :    0.015114
  11 H :    0.023731
  12 C :   -0.075547
  13 H :    0.038585
  14 H :    0.019991
  15 H :    0.036085
  16 S :    0.450469
  17 C :   -0.204784
  18 C :   -0.071995
  19 C :   -0.050610
  20 C :   -0.216530
  21 H :    0.019794
  22 C :   -0.035090
  23 H :    0.030739
  24 H :    0.024285
  25 C :   -0.038744
  26 H :    0.022970
  27 H :    0.032145
  28 C :   -0.062255
  29 H :    0.032020
  30 H :    0.024684
  31 H :    0.026471
  32 H :    0.027779
  33 H :    0.031190

  Mayer bond orders larger than 0.100000
B(  0-S ,  1-C ) :   1.1457 B(  0-S ,  4-C ) :   1.1327 B(  1-C ,  2-C ) :   1.6299
B(  1-C , 32-H ) :   0.9622 B(  2-C ,  3-C ) :   1.2205 B(  2-C ,  6-C ) :   1.0141
B(  3-C ,  4-C ) :   1.6025 B(  3-C ,  5-H ) :   0.9866 B(  4-C , 20-C ) :   1.0025
B(  6-C ,  7-H ) :   0.9473 B(  6-C ,  8-H ) :   0.9460 B(  6-C ,  9-C ) :   1.0686
B(  9-C , 10-H ) :   0.9538 B(  9-C , 11-H ) :   0.9471 B(  9-C , 12-C ) :   1.0841
B( 12-C , 13-H ) :   0.9673 B( 12-C , 14-H ) :   0.9723 B( 12-C , 15-H ) :   0.9703
B( 16-S , 17-C ) :   1.1803 B( 16-S , 20-C ) :   1.1903 B( 17-C , 18-C ) :   1.5713
B( 17-C , 20-C ) :   0.1022 B( 17-C , 33-H ) :   0.9683 B( 18-C , 19-C ) :   1.2683
B( 18-C , 21-H ) :   1.0071 B( 19-C , 20-C ) :   1.5400 B( 19-C , 22-C ) :   1.0453
B( 22-C , 23-H ) :   0.9304 B( 22-C , 24-H ) :   0.9339 B( 22-C , 25-C ) :   1.0279
B( 25-C , 26-H ) :   0.9662 B( 25-C , 27-H ) :   0.9529 B( 25-C , 28-C ) :   1.0779
B( 28-C , 29-H ) :   0.9750 B( 28-C , 30-H ) :   0.9742 B( 28-C , 31-H ) :   0.9747

Dispersion correction           -0.014769543
FINAL SINGLE POINT ENERGY     -1339.857934703435

DIPOLE MOMENT
-------------
                                X             Y             Z
Electronic contribution:      5.91057     -28.25755       6.13451
Nuclear contribution   :     -5.90015      28.84369      -6.40509
                        -----------------------------------------
Total Dipole Moment    :      0.01042       0.58614      -0.27058
                        -----------------------------------------
Magnitude (a.u.)       :      0.64566
Magnitude (Debye)      :      1.64115

Rotational constants in cm-1:     0.016102     0.010142     0.007172
Rotational constants in MHz :   482.733468   304.036870   215.017886

                             ****ORCA TERMINATED NORMALLY****
TOTAL RUN TIME: 0 days 0 hours 0 minutes 21 seconds 932 msec
