                         Program Version 4.2.1 -  RELEASE  -
|  1> ! wB97X-D3 SP def2-SVP
|  2> %pal
|  3> nprocs 24
|  4> end
|  5>
|  6> * xyz 0 1
|  7> S 	 -135.156 	 64.9343 	 -65.7576
|  8> C 	 -135.581 	 65.9079 	 -67.1137
|  9> C 	 -135.985 	 67.2029 	 -66.7897
| 10> C 	 -136.029 	 67.313 	 -65.3575
| 11> C 	 -135.549 	 66.2155 	 -64.6459
| 12> H 	 -136.4 	 68.1743 	 -64.8465
| 13> C 	 -136.216 	 68.3647 	 -67.7963
| 14> H 	 -136.67 	 67.8927 	 -68.69
| 15> H 	 -135.196 	 68.7075 	 -68.1453
| 16> C 	 -137.165 	 69.5321 	 -67.2748
| 17> H 	 -136.67 	 69.9832 	 -66.373
| 18> H 	 -137.182 	 70.3286 	 -68.1118
| 19> C 	 -138.599 	 69.166 	 -66.9129
| 20> H 	 -139.171 	 70.1328 	 -66.672
| 21> H 	 -139.263 	 68.7825 	 -67.6977
| 22> H 	 -138.68 	 68.5463 	 -65.9811
| 23> S 	 -136.118 	 64.5552 	 -62.4321
| 24> C 	 -135.839 	 65.0749 	 -60.8067
| 25> C 	 -135.04 	 66.1773 	 -60.8457
| 26> C 	 -134.843 	 66.7431 	 -62.1398
| 27> C 	 -135.541 	 66.0689 	 -63.1588
| 28> H 	 -134.849 	 66.6779 	 -59.9349
| 29> C 	 -134.261 	 68.1554 	 -62.2868
| 30> H 	 -134.064 	 68.5217 	 -61.2534
| 31> H 	 -135.008 	 68.7226 	 -62.8931
| 32> C 	 -132.909 	 68.0986 	 -63.0821
| 33> H 	 -132.549 	 69.13 	 -63.1717
| 34> H 	 -133.081 	 67.7614 	 -64.093
| 35> C 	 -131.799 	 67.347 	 -62.3777
| 36> H 	 -131.606 	 67.7483 	 -61.345
| 37> H 	 -130.912 	 67.4601 	 -62.9455
| 38> H 	 -131.956 	 66.2476 	 -62.1838
| 39> H 	 -135.353 	 65.6813 	 -68.1583
| 40> H 	 -136.266 	 64.6175 	 -59.9527
| 41> *
| 42>
| 43>                          ****END OF INPUT****

CARTESIAN COORDINATES (ANGSTROEM)
---------------------------------
  S    -135.156000   64.934300  -65.757600
  C    -135.581000   65.907900  -67.113700
  C    -135.985000   67.202900  -66.789700
  C    -136.029000   67.313000  -65.357500
  C    -135.549000   66.215500  -64.645900
  H    -136.400000   68.174300  -64.846500
  C    -136.216000   68.364700  -67.796300
  H    -136.670000   67.892700  -68.690000
  H    -135.196000   68.707500  -68.145300
  C    -137.165000   69.532100  -67.274800
  H    -136.670000   69.983200  -66.373000
  H    -137.182000   70.328600  -68.111800
  C    -138.599000   69.166000  -66.912900
  H    -139.171000   70.132800  -66.672000
  H    -139.263000   68.782500  -67.697700
  H    -138.680000   68.546300  -65.981100
  S    -136.118000   64.555200  -62.432100
  C    -135.839000   65.074900  -60.806700
  C    -135.040000   66.177300  -60.845700
  C    -134.843000   66.743100  -62.139800
  C    -135.541000   66.068900  -63.158800
  H    -134.849000   66.677900  -59.934900
  C    -134.261000   68.155400  -62.286800
  H    -134.064000   68.521700  -61.253400
  H    -135.008000   68.722600  -62.893100
  C    -132.909000   68.098600  -63.082100
  H    -132.549000   69.130000  -63.171700
  H    -133.081000   67.761400  -64.093000
  C    -131.799000   67.347000  -62.377700
  H    -131.606000   67.748300  -61.345000
  H    -130.912000   67.460100  -62.945500
  H    -131.956000   66.247600  -62.183800
  H    -135.353000   65.681300  -68.158300
  H    -136.266000   64.617500  -59.952700

 Total Charge           Charge          ....    0
 Multiplicity           Mult            ....    1
 Number of Electrons    NEL             ....  134
 Basis Dimension        Dim             ....  322

ORBITAL ENERGIES
----------------

  NO   OCC          E(Eh)            E(eV)
   0   2.0000     -88.971109     -2421.0270
   1   2.0000     -88.959871     -2420.7212
   2   2.0000     -10.334414      -281.2137
   3   2.0000     -10.332123      -281.1514
   4   2.0000     -10.314157      -280.6625
   5   2.0000     -10.312518      -280.6179
   6   2.0000     -10.309066      -280.5239
   7   2.0000     -10.308137      -280.4987
   8   2.0000     -10.305213      -280.4191
   9   2.0000     -10.304412      -280.3973
  10   2.0000     -10.297826      -280.2181
  11   2.0000     -10.294522      -280.1282
  12   2.0000     -10.289817      -280.0002
  13   2.0000     -10.288273      -279.9581
  14   2.0000     -10.281957      -279.7863
  15   2.0000     -10.274740      -279.5899
  16   2.0000      -8.085974      -220.0305
  17   2.0000      -8.074956      -219.7307
  18   2.0000      -6.044500      -164.4792
  19   2.0000      -6.040413      -164.3680
  20   2.0000      -6.036749      -164.2683
  21   2.0000      -6.033490      -164.1796
  22   2.0000      -6.029296      -164.0655
  23   2.0000      -6.025778      -163.9697
  24   2.0000      -1.005487       -27.3607
  25   2.0000      -0.986797       -26.8521
  26   2.0000      -0.903291       -24.5798
  27   2.0000      -0.902061       -24.5463
  28   2.0000      -0.866743       -23.5853
  29   2.0000      -0.847037       -23.0490
  30   2.0000      -0.841947       -22.9105
  31   2.0000      -0.816128       -22.2080
  32   2.0000      -0.780645       -21.2424
  33   2.0000      -0.769720       -20.9451
  34   2.0000      -0.707951       -19.2643
  35   2.0000      -0.691964       -18.8293
  36   2.0000      -0.684192       -18.6178
  37   2.0000      -0.660065       -17.9613
  38   2.0000      -0.637679       -17.3521
  39   2.0000      -0.623423       -16.9642
  40   2.0000      -0.586340       -15.9551
  41   2.0000      -0.568592       -15.4722
  42   2.0000      -0.556297       -15.1376
  43   2.0000      -0.544564       -14.8184
  44   2.0000      -0.542952       -14.7745
  45   2.0000      -0.534851       -14.5540
  46   2.0000      -0.511008       -13.9052
  47   2.0000      -0.509174       -13.8553
  48   2.0000      -0.503061       -13.6890
  49   2.0000      -0.489982       -13.3331
  50   2.0000      -0.488080       -13.2813
  51   2.0000      -0.481212       -13.0944
  52   2.0000      -0.472150       -12.8479
  53   2.0000      -0.464464       -12.6387
  54   2.0000      -0.460542       -12.5320
  55   2.0000      -0.446397       -12.1471
  56   2.0000      -0.444608       -12.0984
  57   2.0000      -0.436709       -11.8835
  58   2.0000      -0.428552       -11.6615
  59   2.0000      -0.422279       -11.4908
  60   2.0000      -0.421482       -11.4691
  61   2.0000      -0.412805       -11.2330
  62   2.0000      -0.403393       -10.9769
  63   2.0000      -0.348690        -9.4883
  64   2.0000      -0.331451        -9.0192
  65   2.0000      -0.326589        -8.8870
  66   2.0000      -0.291173        -7.9232
  67   0.0000       0.029386         0.7996
  68   0.0000       0.060806         1.6546
  69   0.0000       0.114079         3.1042
  70   0.0000       0.121789         3.3141
  71   0.0000       0.134105         3.6492

MULLIKEN ATOMIC CHARGES
-----------------------
   0 S :    0.131987
   1 C :   -0.124981
   2 C :   -0.101255
   3 C :    0.000855
   4 C :   -0.136887
   5 H :    0.001845
   6 C :    0.059485
   7 H :    0.030435
   8 H :    0.058754
   9 C :   -0.112866
  10 H :    0.046069
  11 H :    0.048594
  12 C :   -0.084306
  13 H :    0.037624
  14 H :    0.041103
  15 H :    0.053030
  16 S :    0.083592
  17 C :   -0.082154
  18 C :   -0.008821
  19 C :   -0.046070
  20 C :   -0.153387
  21 H :    0.006628
  22 C :    0.045537
  23 H :    0.026381
  24 H :    0.044150
  25 C :   -0.063608
  26 H :    0.023438
  27 H :    0.041163
  28 C :   -0.068296
  29 H :    0.024187
  30 H :    0.030386
  31 H :    0.048163
  32 H :    0.047690
  33 H :    0.051534
Sum of atomic charges:    0.0000000

LOEWDIN ATOMIC CHARGES
----------------------
   0 S :    0.428780
   1 C :   -0.212847
   2 C :   -0.065779
   3 C :   -0.067291
   4 C :   -0.200252
   5 H :    0.021459
   6 C :   -0.036862
   7 H :    0.032288
   8 H :    0.042174
   9 C :   -0.051862
  10 H :    0.028984
  11 H :    0.036537
  12 C :   -0.082917
  13 H :    0.037237
  14 H :    0.027414
  15 H :    0.032167
  16 S :    0.396508
  17 C :   -0.174164
  18 C :   -0.076927
  19 C :   -0.055662
  20 C :   -0.193025
  21 H :    0.024028
  22 C :   -0.028363
  23 H :    0.031049
  24 H :    0.036354
  25 C :   -0.040813
  26 H :    0.023974
  27 H :    0.024028
  28 C :   -0.071960
  29 H :    0.026462
  30 H :    0.021783
  31 H :    0.030993
  32 H :    0.029747
  33 H :    0.026761

  Mayer bond orders larger than 0.100000
B(  0-S ,  1-C ) :   1.1563 B(  0-S ,  4-C ) :   1.1538 B(  1-C ,  2-C ) :   1.6121
B(  1-C , 32-H ) :   0.9606 B(  2-C ,  3-C ) :   1.2646 B(  2-C ,  6-C ) :   0.9961
B(  3-C ,  4-C ) :   1.5664 B(  3-C ,  5-H ) :   0.9901 B(  4-C , 20-C ) :   1.0329
B(  6-C ,  7-H ) :   0.9423 B(  6-C ,  8-H ) :   0.9444 B(  6-C ,  9-C ) :   1.0600
B(  9-C , 10-H ) :   0.9512 B(  9-C , 11-H ) :   0.9565 B(  9-C , 12-C ) :   1.0787
B( 12-C , 13-H ) :   0.9702 B( 12-C , 14-H ) :   0.9741 B( 12-C , 15-H ) :   0.9714
B( 16-S , 17-C ) :   1.1722 B( 16-S , 20-C ) :   1.1352 B( 17-C , 18-C ) :   1.5883
B( 17-C , 20-C ) :   0.1065 B( 17-C , 33-H ) :   0.9748 B( 18-C , 19-C ) :   1.2551
B( 18-C , 21-H ) :   0.9919 B( 19-C , 20-C ) :   1.5693 B( 19-C , 22-C ) :   1.0232
B( 22-C , 23-H ) :   0.9416 B( 22-C , 24-H ) :   0.9452 B( 22-C , 25-C ) :   1.0679
B( 25-C , 26-H ) :   0.9542 B( 25-C , 27-H ) :   0.9549 B( 25-C , 28-C ) :   1.0775
B( 28-C , 29-H ) :   0.9726 B( 28-C , 30-H ) :   0.9736 B( 28-C , 31-H ) :   0.9728

Dispersion correction           -0.014861512
FINAL SINGLE POINT ENERGY     -1339.877278382440

DIPOLE MOMENT
-------------
                                X             Y             Z
Electronic contribution:     -2.83814     -23.04979       4.90429
Nuclear contribution   :      2.86093      23.77023      -4.97704
                        -----------------------------------------
Total Dipole Moment    :      0.02279       0.72044      -0.07275
                        -----------------------------------------
Magnitude (a.u.)       :      0.72447
Magnitude (Debye)      :      1.84145

Rotational constants in cm-1:     0.018881     0.008530     0.007749
Rotational constants in MHz :   566.039680   255.719438   232.312943

                             ****ORCA TERMINATED NORMALLY****
TOTAL RUN TIME: 0 days 0 hours 0 minutes 22 seconds 204 msec
