                         Program Version 4.2.1 -  RELEASE  -
|  1> ! wB97X-D3 SP def2-SVP
|  2> %pal
|  3> nprocs 24
|  4> end
|  5>
|  6> * xyz 0 1
|  7> S 	 -29.6382 	 -6.87341 	 -2.81789
|  8> C 	 -29.7151 	 -5.72862 	 -1.54222
|  9> C 	 -30.5038 	 -6.18104 	 -0.48285
| 10> C 	 -31.2847 	 -7.27594 	 -0.947132
| 11> C 	 -31.0573 	 -7.71224 	 -2.20549
| 12> H 	 -32.0711 	 -7.74595 	 -0.358823
| 13> C 	 -30.5843 	 -5.5904 	 0.892853
| 14> H 	 -31.6327 	 -5.62794 	 1.32832
| 15> H 	 -30.3691 	 -4.50474 	 0.922793
| 16> C 	 -29.6469 	 -6.2151 	 1.90154
| 17> H 	 -28.635 	 -6.08145 	 1.45931
| 18> H 	 -29.599 	 -5.74644 	 2.87918
| 19> C 	 -30.0778 	 -7.67966 	 2.18874
| 20> H 	 -30.2283 	 -8.28734 	 1.32827
| 21> H 	 -29.4023 	 -8.32519 	 2.70001
| 22> H 	 -31.057 	 -7.67399 	 2.61403
| 23> S 	 -30.5648 	 -10.1089 	 -3.51898
| 24> C 	 -31.9221 	 -11.0294 	 -4.10822
| 25> C 	 -33.1239 	 -10.5482 	 -3.61792
| 26> C 	 -32.9526 	 -9.35213 	 -2.91766
| 27> C 	 -31.6289 	 -8.91318 	 -2.84694
| 28> H 	 -34.0337 	 -11.1024 	 -3.68132
| 29> C 	 -34.222 	 -8.7008 	 -2.31584
| 30> H 	 -35.041 	 -8.51872 	 -3.05019
| 31> H 	 -34.077 	 -7.70126 	 -1.93263
| 32> C 	 -34.9599 	 -9.52412 	 -1.15912
| 33> H 	 -34.1732 	 -9.92963 	 -0.437346
| 34> H 	 -35.5381 	 -10.3752 	 -1.56337
| 35> C 	 -35.9105 	 -8.69384 	 -0.281754
| 36> H 	 -36.9553 	 -9.04266 	 -0.346686
| 37> H 	 -35.8993 	 -7.6419 	 -0.708366
| 38> H 	 -35.5712 	 -8.73661 	 0.755253
| 39> H 	 -29.0492 	 -4.83303 	 -1.42497
| 40> H 	 -31.8466 	 -11.9615 	 -4.67179
| 41> *
| 42>
| 43>                          ****END OF INPUT****

CARTESIAN COORDINATES (ANGSTROEM)
---------------------------------
  S    -29.638200   -6.873410   -2.817890
  C    -29.715100   -5.728620   -1.542220
  C    -30.503800   -6.181040   -0.482850
  C    -31.284700   -7.275940   -0.947132
  C    -31.057300   -7.712240   -2.205490
  H    -32.071100   -7.745950   -0.358823
  C    -30.584300   -5.590400    0.892853
  H    -31.632700   -5.627940    1.328320
  H    -30.369100   -4.504740    0.922793
  C    -29.646900   -6.215100    1.901540
  H    -28.635000   -6.081450    1.459310
  H    -29.599000   -5.746440    2.879180
  C    -30.077800   -7.679660    2.188740
  H    -30.228300   -8.287340    1.328270
  H    -29.402300   -8.325190    2.700010
  H    -31.057000   -7.673990    2.614030
  S    -30.564800  -10.108900   -3.518980
  C    -31.922100  -11.029400   -4.108220
  C    -33.123900  -10.548200   -3.617920
  C    -32.952600   -9.352130   -2.917660
  C    -31.628900   -8.913180   -2.846940
  H    -34.033700  -11.102400   -3.681320
  C    -34.222000   -8.700800   -2.315840
  H    -35.041000   -8.518720   -3.050190
  H    -34.077000   -7.701260   -1.932630
  C    -34.959900   -9.524120   -1.159120
  H    -34.173200   -9.929630   -0.437346
  H    -35.538100  -10.375200   -1.563370
  C    -35.910500   -8.693840   -0.281754
  H    -36.955300   -9.042660   -0.346686
  H    -35.899300   -7.641900   -0.708366
  H    -35.571200   -8.736610    0.755253
  H    -29.049200   -4.833030   -1.424970
  H    -31.846600  -11.961500   -4.671790

 Total Charge           Charge          ....    0
 Multiplicity           Mult            ....    1
 Number of Electrons    NEL             ....  134
 Basis Dimension        Dim             ....  322

ORBITAL ENERGIES
----------------

  NO   OCC          E(Eh)            E(eV)
   0   2.0000     -88.969866     -2420.9931
   1   2.0000     -88.967031     -2420.9160
   2   2.0000     -10.330206      -281.0992
   3   2.0000     -10.327770      -281.0329
   4   2.0000     -10.319464      -280.8069
   5   2.0000     -10.317111      -280.7429
   6   2.0000     -10.303401      -280.3698
   7   2.0000     -10.303316      -280.3675
   8   2.0000     -10.298405      -280.2338
   9   2.0000     -10.298212      -280.2286
  10   2.0000     -10.295327      -280.1501
  11   2.0000     -10.291712      -280.0517
  12   2.0000     -10.289410      -279.9891
  13   2.0000     -10.289405      -279.9890
  14   2.0000     -10.284949      -279.8677
  15   2.0000     -10.267567      -279.3947
  16   2.0000      -8.084785      -219.9982
  17   2.0000      -8.082264      -219.9296
  18   2.0000      -6.043225      -164.4445
  19   2.0000      -6.040764      -164.3775
  20   2.0000      -6.039320      -164.3383
  21   2.0000      -6.036814      -164.2700
  22   2.0000      -6.035562      -164.2360
  23   2.0000      -6.032890      -164.1633
  24   2.0000      -1.012416       -27.5492
  25   2.0000      -0.991566       -26.9819
  26   2.0000      -0.915703       -24.9175
  27   2.0000      -0.899030       -24.4639
  28   2.0000      -0.869690       -23.6655
  29   2.0000      -0.853502       -23.2250
  30   2.0000      -0.845228       -22.9998
  31   2.0000      -0.815484       -22.1905
  32   2.0000      -0.784104       -21.3366
  33   2.0000      -0.770466       -20.9655
  34   2.0000      -0.704828       -19.1793
  35   2.0000      -0.697552       -18.9813
  36   2.0000      -0.688773       -18.7425
  37   2.0000      -0.662700       -18.0330
  38   2.0000      -0.640174       -17.4200
  39   2.0000      -0.621236       -16.9047
  40   2.0000      -0.600839       -16.3496
  41   2.0000      -0.577697       -15.7199
  42   2.0000      -0.560312       -15.2469
  43   2.0000      -0.549917       -14.9640
  44   2.0000      -0.547512       -14.8986
  45   2.0000      -0.519063       -14.1244
  46   2.0000      -0.515407       -14.0249
  47   2.0000      -0.507568       -13.8116
  48   2.0000      -0.503139       -13.6911
  49   2.0000      -0.499046       -13.5797
  50   2.0000      -0.490170       -13.3382
  51   2.0000      -0.476819       -12.9749
  52   2.0000      -0.471423       -12.8281
  53   2.0000      -0.466998       -12.7077
  54   2.0000      -0.461078       -12.5466
  55   2.0000      -0.450987       -12.2720
  56   2.0000      -0.437480       -11.9044
  57   2.0000      -0.434124       -11.8131
  58   2.0000      -0.429346       -11.6831
  59   2.0000      -0.423572       -11.5260
  60   2.0000      -0.422056       -11.4847
  61   2.0000      -0.418802       -11.3962
  62   2.0000      -0.414569       -11.2810
  63   2.0000      -0.353359        -9.6154
  64   2.0000      -0.334796        -9.1103
  65   2.0000      -0.329369        -8.9626
  66   2.0000      -0.289229        -7.8703
  67   0.0000       0.028124         0.7653
  68   0.0000       0.066319         1.8046
  69   0.0000       0.105145         2.8611
  70   0.0000       0.123103         3.3498
  71   0.0000       0.127393         3.4665

MULLIKEN ATOMIC CHARGES
-----------------------
   0 S :    0.112786
   1 C :   -0.119938
   2 C :   -0.073460
   3 C :    0.024094
   4 C :   -0.140999
   5 H :    0.010689
   6 C :    0.017871
   7 H :    0.032906
   8 H :    0.029040
   9 C :   -0.048900
  10 H :    0.027921
  11 H :    0.035504
  12 C :   -0.036331
  13 H :    0.017297
  14 H :    0.026502
  15 H :    0.014686
  16 S :    0.117739
  17 C :   -0.101474
  18 C :   -0.020377
  19 C :   -0.008428
  20 C :   -0.152273
  21 H :    0.015022
  22 C :    0.037064
  23 H :    0.036794
  24 H :    0.015778
  25 C :   -0.129064
  26 H :    0.041612
  27 H :    0.038308
  28 C :   -0.071482
  29 H :    0.041390
  30 H :    0.038694
  31 H :    0.045984
  32 H :    0.063593
  33 H :    0.061454
Sum of atomic charges:    0.0000000

LOEWDIN ATOMIC CHARGES
----------------------
   0 S :    0.412708
   1 C :   -0.202899
   2 C :   -0.065606
   3 C :   -0.059124
   4 C :   -0.194597
   5 H :    0.030389
   6 C :   -0.040755
   7 H :    0.033023
   8 H :    0.034477
   9 C :   -0.037547
  10 H :    0.025811
  11 H :    0.025210
  12 C :   -0.069140
  13 H :    0.022833
  14 H :    0.023769
  15 H :    0.022121
  16 S :    0.419507
  17 C :   -0.189081
  18 C :   -0.063665
  19 C :   -0.060630
  20 C :   -0.199782
  21 H :    0.031135
  22 C :   -0.036733
  23 H :    0.034661
  24 H :    0.021015
  25 C :   -0.051828
  26 H :    0.028073
  27 H :    0.022323
  28 C :   -0.074971
  29 H :    0.028443
  30 H :    0.031903
  31 H :    0.029137
  32 H :    0.038502
  33 H :    0.031317

  Mayer bond orders larger than 0.100000
B(  0-S ,  1-C ) :   1.1607 B(  0-S ,  4-C ) :   1.1371 B(  1-C ,  2-C ) :   1.5942
B(  1-C , 32-H ) :   0.9595 B(  2-C ,  3-C ) :   1.2529 B(  2-C ,  6-C ) :   1.0263
B(  3-C ,  4-C ) :   1.5739 B(  3-C ,  5-H ) :   0.9912 B(  4-C , 20-C ) :   1.0369
B(  6-C ,  7-H ) :   0.9469 B(  6-C ,  8-H ) :   0.9389 B(  6-C ,  9-C ) :   1.0708
B(  9-C , 10-H ) :   0.9535 B(  9-C , 11-H ) :   0.9583 B(  9-C , 12-C ) :   1.0652
B( 12-C , 13-H ) :   0.9722 B( 12-C , 14-H ) :   0.9720 B( 12-C , 15-H ) :   0.9723
B( 16-S , 17-C ) :   1.1614 B( 16-S , 20-C ) :   1.1548 B( 17-C , 18-C ) :   1.5808
B( 17-C , 20-C ) :   0.1021 B( 17-C , 33-H ) :   0.9662 B( 18-C , 19-C ) :   1.2707
B( 18-C , 21-H ) :   0.9972 B( 19-C , 20-C ) :   1.5820 B( 19-C , 22-C ) :   1.0456
B( 22-C , 23-H ) :   0.9397 B( 22-C , 24-H ) :   0.9391 B( 22-C , 25-C ) :   1.0490
B( 25-C , 26-H ) :   0.9690 B( 25-C , 27-H ) :   0.9602 B( 25-C , 28-C ) :   1.0601
B( 28-C , 29-H ) :   0.9782 B( 28-C , 30-H ) :   0.9774 B( 28-C , 31-H ) :   0.9815

Dispersion correction           -0.014396806
FINAL SINGLE POINT ENERGY     -1339.870642856384

DIPOLE MOMENT
-------------
                                X             Y             Z
Electronic contribution:     16.22109      -3.25821     -23.72572
Nuclear contribution   :    -16.61179       3.21167      24.27023
                        -----------------------------------------
Total Dipole Moment    :     -0.39070      -0.04654       0.54451
                        -----------------------------------------
Magnitude (a.u.)       :      0.67179
Magnitude (Debye)      :      1.70756

Rotational constants in cm-1:     0.016314     0.009774     0.007160
Rotational constants in MHz :   489.079105   293.004829   214.640334

                             ****ORCA TERMINATED NORMALLY****
TOTAL RUN TIME: 0 days 0 hours 0 minutes 21 seconds 900 msec
