                         Program Version 4.2.1 -  RELEASE  -
|  1> ! wB97X-D3 SP def2-SVP
|  2> %pal
|  3> nprocs 24
|  4> end
|  5>
|  6> * xyz 0 1
|  7> S 	 -38.2744 	 -10.6343 	 20.1317
|  8> C 	 -36.836 	 -11.123 	 21.0431
|  9> C 	 -36.2277 	 -12.1931 	 20.456
| 10> C 	 -36.8995 	 -12.6967 	 19.3054
| 11> C 	 -38.0051 	 -11.9708 	 18.9645
| 12> H 	 -36.4065 	 -13.4692 	 18.7889
| 13> C 	 -35.0555 	 -12.9702 	 20.9908
| 14> H 	 -35.4445 	 -13.7092 	 21.5818
| 15> H 	 -34.5038 	 -12.3789 	 21.7246
| 16> C 	 -34.1059 	 -13.5776 	 19.9533
| 17> H 	 -33.169 	 -13.9576 	 20.425
| 18> H 	 -34.6044 	 -14.4387 	 19.5732
| 19> C 	 -33.5022 	 -12.6112 	 18.9106
| 20> H 	 -32.7793 	 -13.2689 	 18.2448
| 21> H 	 -34.2272 	 -12.2771 	 18.1237
| 22> H 	 -32.7987 	 -11.8116 	 19.3372
| 23> S 	 -40.561 	 -11.9237 	 17.7227
| 24> C 	 -40.7536 	 -12.2505 	 16.0387
| 25> C 	 -39.5287 	 -12.5452 	 15.4702
| 26> C 	 -38.4387 	 -12.4478 	 16.3784
| 27> C 	 -38.7666 	 -12.1762 	 17.7383
| 28> H 	 -39.6047 	 -12.8222 	 14.4359
| 29> C 	 -37.0359 	 -12.6844 	 15.8718
| 30> H 	 -36.8907 	 -13.6589 	 15.478
| 31> H 	 -36.2237 	 -12.5998 	 16.6037
| 32> C 	 -36.6013 	 -11.6928 	 14.8167
| 33> H 	 -36.4663 	 -10.6979 	 15.2585
| 34> H 	 -37.4445 	 -11.5977 	 14.1603
| 35> C 	 -35.3863 	 -12.0047 	 13.8778
| 36> H 	 -35.4649 	 -13.0411 	 13.6116
| 37> H 	 -34.413 	 -11.7636 	 14.3214
| 38> H 	 -35.5176 	 -11.2834 	 13.06
| 39> H 	 -36.6099 	 -10.7644 	 22.0003
| 40> H 	 -41.6996 	 -12.3031 	 15.4942
| 41> *
| 42>
| 43>                          ****END OF INPUT****

CARTESIAN COORDINATES (ANGSTROEM)
---------------------------------
  S    -38.274400  -10.634300   20.131700
  C    -36.836000  -11.123000   21.043100
  C    -36.227700  -12.193100   20.456000
  C    -36.899500  -12.696700   19.305400
  C    -38.005100  -11.970800   18.964500
  H    -36.406500  -13.469200   18.788900
  C    -35.055500  -12.970200   20.990800
  H    -35.444500  -13.709200   21.581800
  H    -34.503800  -12.378900   21.724600
  C    -34.105900  -13.577600   19.953300
  H    -33.169000  -13.957600   20.425000
  H    -34.604400  -14.438700   19.573200
  C    -33.502200  -12.611200   18.910600
  H    -32.779300  -13.268900   18.244800
  H    -34.227200  -12.277100   18.123700
  H    -32.798700  -11.811600   19.337200
  S    -40.561000  -11.923700   17.722700
  C    -40.753600  -12.250500   16.038700
  C    -39.528700  -12.545200   15.470200
  C    -38.438700  -12.447800   16.378400
  C    -38.766600  -12.176200   17.738300
  H    -39.604700  -12.822200   14.435900
  C    -37.035900  -12.684400   15.871800
  H    -36.890700  -13.658900   15.478000
  H    -36.223700  -12.599800   16.603700
  C    -36.601300  -11.692800   14.816700
  H    -36.466300  -10.697900   15.258500
  H    -37.444500  -11.597700   14.160300
  C    -35.386300  -12.004700   13.877800
  H    -35.464900  -13.041100   13.611600
  H    -34.413000  -11.763600   14.321400
  H    -35.517600  -11.283400   13.060000
  H    -36.609900  -10.764400   22.000300
  H    -41.699600  -12.303100   15.494200

 Total Charge           Charge          ....    0
 Multiplicity           Mult            ....    1
 Number of Electrons    NEL             ....  134
 Basis Dimension        Dim             ....  322

ORBITAL ENERGIES
----------------

  NO   OCC          E(Eh)            E(eV)
   0   2.0000     -88.967271     -2420.9225
   1   2.0000     -88.962652     -2420.7968
   2   2.0000     -10.337805      -281.3060
   3   2.0000     -10.337094      -281.2866
   4   2.0000     -10.320284      -280.8292
   5   2.0000     -10.312934      -280.6292
   6   2.0000     -10.310341      -280.5587
   7   2.0000     -10.299503      -280.2637
   8   2.0000     -10.295617      -280.1580
   9   2.0000     -10.294180      -280.1189
  10   2.0000     -10.293489      -280.1001
  11   2.0000     -10.288776      -279.9718
  12   2.0000     -10.284180      -279.8468
  13   2.0000     -10.284153      -279.8460
  14   2.0000     -10.280127      -279.7365
  15   2.0000     -10.278011      -279.6789
  16   2.0000      -8.080971      -219.8944
  17   2.0000      -8.077017      -219.7868
  18   2.0000      -6.039766      -164.3504
  19   2.0000      -6.035680      -164.2392
  20   2.0000      -6.035486      -164.2339
  21   2.0000      -6.031439      -164.1238
  22   2.0000      -6.031419      -164.1233
  23   2.0000      -6.027960      -164.0291
  24   2.0000      -1.001822       -27.2609
  25   2.0000      -0.983082       -26.7510
  26   2.0000      -0.914138       -24.8750
  27   2.0000      -0.909474       -24.7481
  28   2.0000      -0.871790       -23.7226
  29   2.0000      -0.847434       -23.0598
  30   2.0000      -0.841590       -22.9008
  31   2.0000      -0.818536       -22.2735
  32   2.0000      -0.785944       -21.3866
  33   2.0000      -0.774689       -21.0804
  34   2.0000      -0.713505       -19.4155
  35   2.0000      -0.696086       -18.9415
  36   2.0000      -0.692423       -18.8418
  37   2.0000      -0.654774       -17.8173
  38   2.0000      -0.638340       -17.3701
  39   2.0000      -0.637280       -17.3413
  40   2.0000      -0.602325       -16.3901
  41   2.0000      -0.570527       -15.5248
  42   2.0000      -0.562670       -15.3110
  43   2.0000      -0.561604       -15.2820
  44   2.0000      -0.539535       -14.6815
  45   2.0000      -0.524618       -14.2756
  46   2.0000      -0.520171       -14.1546
  47   2.0000      -0.511630       -13.9222
  48   2.0000      -0.510105       -13.8807
  49   2.0000      -0.501871       -13.6566
  50   2.0000      -0.489515       -13.3204
  51   2.0000      -0.481118       -13.0919
  52   2.0000      -0.469833       -12.7848
  53   2.0000      -0.466426       -12.6921
  54   2.0000      -0.461431       -12.5562
  55   2.0000      -0.447016       -12.1639
  56   2.0000      -0.445430       -12.1208
  57   2.0000      -0.439056       -11.9473
  58   2.0000      -0.429258       -11.6807
  59   2.0000      -0.420121       -11.4321
  60   2.0000      -0.414020       -11.2661
  61   2.0000      -0.409959       -11.1555
  62   2.0000      -0.403252       -10.9730
  63   2.0000      -0.353479        -9.6186
  64   2.0000      -0.331376        -9.0172
  65   2.0000      -0.329788        -8.9740
  66   2.0000      -0.290204        -7.8968
  67   0.0000       0.021246         0.5781
  68   0.0000       0.073526         2.0007
  69   0.0000       0.109938         2.9916
  70   0.0000       0.120139         3.2691
  71   0.0000       0.128407         3.4941

MULLIKEN ATOMIC CHARGES
-----------------------
   0 S :    0.105134
   1 C :   -0.105678
   2 C :   -0.096046
   3 C :    0.025137
   4 C :   -0.089538
   5 H :   -0.006538
   6 C :    0.129830
   7 H :    0.021121
   8 H :    0.006673
   9 C :   -0.104255
  10 H :    0.037027
  11 H :    0.032718
  12 C :   -0.115119
  13 H :    0.035651
  14 H :    0.054736
  15 H :    0.062789
  16 S :    0.083898
  17 C :   -0.095374
  18 C :   -0.048288
  19 C :   -0.017221
  20 C :   -0.149423
  21 H :    0.023538
  22 C :    0.112925
  23 H :    0.009892
  24 H :    0.005862
  25 C :   -0.130342
  26 H :    0.030043
  27 H :    0.011526
  28 C :   -0.031132
  29 H :    0.030081
  30 H :    0.035922
  31 H :    0.040344
  32 H :    0.026175
  33 H :    0.067929
Sum of atomic charges:    0.0000000

LOEWDIN ATOMIC CHARGES
----------------------
   0 S :    0.378515
   1 C :   -0.179500
   2 C :   -0.058579
   3 C :   -0.052978
   4 C :   -0.172545
   5 H :    0.023130
   6 C :   -0.029211
   7 H :    0.025603
   8 H :    0.028572
   9 C :   -0.049139
  10 H :    0.035893
  11 H :    0.019319
  12 C :   -0.084208
  13 H :    0.035468
  14 H :    0.025082
  15 H :    0.039540
  16 S :    0.388716
  17 C :   -0.186032
  18 C :   -0.080306
  19 C :   -0.046050
  20 C :   -0.179205
  21 H :    0.033734
  22 C :   -0.037079
  23 H :    0.023509
  24 H :    0.027126
  25 C :   -0.042473
  26 H :    0.025545
  27 H :    0.013711
  28 C :   -0.060114
  29 H :    0.020816
  30 H :    0.023957
  31 H :    0.033458
  32 H :    0.018274
  33 H :    0.037453

  Mayer bond orders larger than 0.100000
B(  0-S ,  1-C ) :   1.1129 B(  0-S ,  4-C ) :   1.1302 B(  1-C ,  2-C ) :   1.6383
B(  1-C , 32-H ) :   0.9729 B(  2-C ,  3-C ) :   1.2345 B(  2-C ,  6-C ) :   1.0144
B(  3-C ,  4-C ) :   1.5545 B(  3-C ,  5-H ) :   1.0025 B(  4-C , 20-C ) :   1.0828
B(  6-C ,  7-H ) :   0.9335 B(  6-C ,  8-H ) :   0.9347 B(  6-C ,  9-C ) :   1.0738
B(  9-C , 10-H ) :   0.9527 B(  9-C , 11-H ) :   0.9506 B(  9-C , 12-C ) :   1.0726
B( 12-C , 13-H ) :   0.9726 B( 12-C , 14-H ) :   0.9689 B( 12-C , 15-H ) :   0.9713
B( 16-S , 17-C ) :   1.1775 B( 16-S , 20-C ) :   1.1205 B( 17-C , 18-C ) :   1.5934
B( 17-C , 20-C ) :   0.1033 B( 17-C , 33-H ) :   0.9635 B( 18-C , 19-C ) :   1.2396
B( 18-C , 21-H ) :   0.9939 B( 19-C , 20-C ) :   1.5554 B( 19-C , 22-C ) :   1.0491
B( 22-C , 23-H ) :   0.9267 B( 22-C , 24-H ) :   0.9332 B( 22-C , 25-C ) :   1.0602
B( 25-C , 26-H ) :   0.9521 B( 25-C , 27-H ) :   0.9641 B( 25-C , 28-C ) :   1.0736
B( 28-C , 29-H ) :   0.9746 B( 28-C , 30-H ) :   0.9784 B( 28-C , 31-H ) :   0.9756

Dispersion correction           -0.014492231
FINAL SINGLE POINT ENERGY     -1339.861775478057

DIPOLE MOMENT
-------------
                                X             Y             Z
Electronic contribution:    -28.17137       7.30105      12.29378
Nuclear contribution   :     28.78250      -7.72566     -12.53692
                        -----------------------------------------
Total Dipole Moment    :      0.61113      -0.42461      -0.24314
                        -----------------------------------------
Magnitude (a.u.)       :      0.78288
Magnitude (Debye)      :      1.98992

Rotational constants in cm-1:     0.015882     0.010464     0.006953
Rotational constants in MHz :   476.141875   313.711978   208.449275

                             ****ORCA TERMINATED NORMALLY****
TOTAL RUN TIME: 0 days 0 hours 0 minutes 22 seconds 184 msec
