                         Program Version 4.2.1 -  RELEASE  -
|  1> ! wB97X-D3 SP def2-SVP
|  2> %pal
|  3> nprocs 24
|  4> end
|  5>
|  6> * xyz 0 1
|  7> S 	 -104.057 	 18.3348 	 -122.138
|  8> C 	 -103.675 	 19.4342 	 -120.825
|  9> C 	 -103.371 	 18.7312 	 -119.643
| 10> C 	 -103.525 	 17.3176 	 -119.85
| 11> C 	 -103.906 	 16.968 	 -121.137
| 12> H 	 -103.301 	 16.5158 	 -119.134
| 13> C 	 -102.902 	 19.2938 	 -118.272
| 14> H 	 -101.964 	 19.8128 	 -118.328
| 15> H 	 -102.554 	 18.4899 	 -117.688
| 16> C 	 -103.981 	 20.0349 	 -117.501
| 17> H 	 -104.267 	 20.8149 	 -118.106
| 18> H 	 -104.851 	 19.3814 	 -117.347
| 19> C 	 -103.399 	 20.5232 	 -116.137
| 20> H 	 -102.396 	 20.9792 	 -116.18
| 21> H 	 -103.957 	 21.2833 	 -115.678
| 22> H 	 -103.355 	 19.7397 	 -115.431
| 23> S 	 -103.644 	 15.3057 	 -123.309
| 24> C 	 -103.753 	 13.5695 	 -123.082
| 25> C 	 -104.375 	 13.2728 	 -121.875
| 26> C 	 -104.487 	 14.4421 	 -120.999
| 27> C 	 -104.152 	 15.6127 	 -121.652
| 28> H 	 -104.545 	 12.2827 	 -121.503
| 29> C 	 -104.973 	 14.3134 	 -119.58
| 30> H 	 -105.819 	 13.6296 	 -119.627
| 31> H 	 -105.243 	 15.2843 	 -119.266
| 32> C 	 -103.982 	 13.6589 	 -118.618
| 33> H 	 -103.039 	 14.2939 	 -118.64
| 34> H 	 -103.711 	 12.6555 	 -118.874
| 35> C 	 -104.505 	 13.731 	 -117.159
| 36> H 	 -104.802 	 14.7501 	 -117.061
| 37> H 	 -103.867 	 13.4956 	 -116.345
| 38> H 	 -105.368 	 13.0561 	 -117.191
| 39> H 	 -103.604 	 20.5031 	 -121
| 40> H 	 -103.657 	 12.8453 	 -123.862
| 41> *
| 42>
| 43>                          ****END OF INPUT****

CARTESIAN COORDINATES (ANGSTROEM)
---------------------------------
  S    -104.057000   18.334800  -122.138000
  C    -103.675000   19.434200  -120.825000
  C    -103.371000   18.731200  -119.643000
  C    -103.525000   17.317600  -119.850000
  C    -103.906000   16.968000  -121.137000
  H    -103.301000   16.515800  -119.134000
  C    -102.902000   19.293800  -118.272000
  H    -101.964000   19.812800  -118.328000
  H    -102.554000   18.489900  -117.688000
  C    -103.981000   20.034900  -117.501000
  H    -104.267000   20.814900  -118.106000
  H    -104.851000   19.381400  -117.347000
  C    -103.399000   20.523200  -116.137000
  H    -102.396000   20.979200  -116.180000
  H    -103.957000   21.283300  -115.678000
  H    -103.355000   19.739700  -115.431000
  S    -103.644000   15.305700  -123.309000
  C    -103.753000   13.569500  -123.082000
  C    -104.375000   13.272800  -121.875000
  C    -104.487000   14.442100  -120.999000
  C    -104.152000   15.612700  -121.652000
  H    -104.545000   12.282700  -121.503000
  C    -104.973000   14.313400  -119.580000
  H    -105.819000   13.629600  -119.627000
  H    -105.243000   15.284300  -119.266000
  C    -103.982000   13.658900  -118.618000
  H    -103.039000   14.293900  -118.640000
  H    -103.711000   12.655500  -118.874000
  C    -104.505000   13.731000  -117.159000
  H    -104.802000   14.750100  -117.061000
  H    -103.867000   13.495600  -116.345000
  H    -105.368000   13.056100  -117.191000
  H    -103.604000   20.503100  -121.000000
  H    -103.657000   12.845300  -123.862000

 Total Charge           Charge          ....    0
 Multiplicity           Mult            ....    1
 Number of Electrons    NEL             ....  134
 Basis Dimension        Dim             ....  322

ORBITAL ENERGIES
----------------

  NO   OCC          E(Eh)            E(eV)
   0   2.0000     -88.967742     -2420.9354
   1   2.0000     -88.964427     -2420.8451
   2   2.0000     -10.328085      -281.0415
   3   2.0000     -10.327857      -281.0353
   4   2.0000     -10.320286      -280.8293
   5   2.0000     -10.318393      -280.7778
   6   2.0000     -10.309365      -280.5321
   7   2.0000     -10.304550      -280.4011
   8   2.0000     -10.298044      -280.2240
   9   2.0000     -10.295010      -280.1415
  10   2.0000     -10.291580      -280.0481
  11   2.0000     -10.290194      -280.0104
  12   2.0000     -10.287714      -279.9429
  13   2.0000     -10.283843      -279.8376
  14   2.0000     -10.276206      -279.6298
  15   2.0000     -10.273904      -279.5671
  16   2.0000      -8.083299      -219.9578
  17   2.0000      -8.079211      -219.8465
  18   2.0000      -6.041732      -164.4039
  19   2.0000      -6.037870      -164.2988
  20   2.0000      -6.037642      -164.2926
  21   2.0000      -6.034156      -164.1977
  22   2.0000      -6.033784      -164.1876
  23   2.0000      -6.029737      -164.0775
  24   2.0000      -1.008493       -27.4425
  25   2.0000      -0.982622       -26.7385
  26   2.0000      -0.916108       -24.9286
  27   2.0000      -0.912819       -24.8391
  28   2.0000      -0.867618       -23.6091
  29   2.0000      -0.854682       -23.2571
  30   2.0000      -0.844843       -22.9894
  31   2.0000      -0.812236       -22.1021
  32   2.0000      -0.785649       -21.3786
  33   2.0000      -0.775135       -21.0925
  34   2.0000      -0.714739       -19.4490
  35   2.0000      -0.702580       -19.1182
  36   2.0000      -0.693857       -18.8808
  37   2.0000      -0.668586       -18.1932
  38   2.0000      -0.644158       -17.5284
  39   2.0000      -0.618462       -16.8292
  40   2.0000      -0.596990       -16.2449
  41   2.0000      -0.577871       -15.7247
  42   2.0000      -0.570618       -15.5273
  43   2.0000      -0.560052       -15.2398
  44   2.0000      -0.529194       -14.4001
  45   2.0000      -0.526134       -14.3168
  46   2.0000      -0.517850       -14.0914
  47   2.0000      -0.513844       -13.9824
  48   2.0000      -0.504321       -13.7233
  49   2.0000      -0.499540       -13.5932
  50   2.0000      -0.497278       -13.5316
  51   2.0000      -0.479509       -13.0481
  52   2.0000      -0.474764       -12.9190
  53   2.0000      -0.466353       -12.6901
  54   2.0000      -0.461861       -12.5679
  55   2.0000      -0.452641       -12.3170
  56   2.0000      -0.448983       -12.2174
  57   2.0000      -0.443026       -12.0553
  58   2.0000      -0.436437       -11.8761
  59   2.0000      -0.429795       -11.6953
  60   2.0000      -0.422438       -11.4951
  61   2.0000      -0.419775       -11.4227
  62   2.0000      -0.410347       -11.1661
  63   2.0000      -0.356337        -9.6964
  64   2.0000      -0.334934        -9.1140
  65   2.0000      -0.327045        -8.8994
  66   2.0000      -0.287450        -7.8219
  67   0.0000       0.026069         0.7094
  68   0.0000       0.074200         2.0191
  69   0.0000       0.103738         2.8229
  70   0.0000       0.116138         3.1603
  71   0.0000       0.129244         3.5169

MULLIKEN ATOMIC CHARGES
-----------------------
   0 S :    0.110278
   1 C :   -0.137841
   2 C :   -0.072181
   3 C :   -0.010736
   4 C :   -0.124447
   5 H :    0.004513
   6 C :    0.083721
   7 H :    0.023200
   8 H :   -0.008789
   9 C :   -0.031531
  10 H :    0.011797
  11 H :    0.036202
  12 C :   -0.026878
  13 H :    0.025539
  14 H :    0.017884
  15 H :    0.021784
  16 S :    0.086538
  17 C :   -0.075685
  18 C :   -0.010007
  19 C :   -0.097495
  20 C :   -0.093852
  21 H :    0.014422
  22 C :    0.075921
  23 H :    0.024999
  24 H :    0.014574
  25 C :   -0.108695
  26 H :    0.034695
  27 H :    0.026031
  28 C :   -0.006677
  29 H :    0.016678
  30 H :    0.037315
  31 H :    0.026770
  32 H :    0.054652
  33 H :    0.057301
Sum of atomic charges:    0.0000000

LOEWDIN ATOMIC CHARGES
----------------------
   0 S :    0.427139
   1 C :   -0.200394
   2 C :   -0.053031
   3 C :   -0.076928
   4 C :   -0.205900
   5 H :    0.031598
   6 C :   -0.029045
   7 H :    0.029774
   8 H :    0.021469
   9 C :   -0.024597
  10 H :    0.011540
  11 H :    0.031012
  12 C :   -0.061334
  13 H :    0.028652
  14 H :    0.019553
  15 H :    0.020120
  16 S :    0.390516
  17 C :   -0.175872
  18 C :   -0.063147
  19 C :   -0.051795
  20 C :   -0.193173
  21 H :    0.026271
  22 C :   -0.027204
  23 H :    0.033807
  24 H :    0.023058
  25 C :   -0.036950
  26 H :    0.023321
  27 H :    0.016567
  28 C :   -0.057928
  29 H :    0.020913
  30 H :    0.021804
  31 H :    0.026503
  32 H :    0.027225
  33 H :    0.026457

  Mayer bond orders larger than 0.100000
B(  0-S ,  1-C ) :   1.1471 B(  0-S ,  4-C ) :   1.1721 B(  1-C ,  2-C ) :   1.5803
B(  1-C , 32-H ) :   0.9750 B(  2-C ,  3-C ) :   1.2697 B(  2-C ,  6-C ) :   1.0076
B(  3-C ,  4-C ) :   1.5557 B(  3-C ,  5-H ) :   0.9840 B(  4-C , 20-C ) :   1.0250
B(  6-C ,  7-H ) :   0.9394 B(  6-C ,  8-H ) :   0.9376 B(  6-C ,  9-C ) :   1.0596
B(  9-C , 10-H ) :   0.9623 B(  9-C , 11-H ) :   0.9557 B(  9-C , 12-C ) :   1.0733
B( 12-C , 13-H ) :   0.9746 B( 12-C , 14-H ) :   0.9740 B( 12-C , 15-H ) :   0.9767
B( 16-S , 17-C ) :   1.1504 B( 16-S , 20-C ) :   1.1163 B( 17-C , 18-C ) :   1.6222
B( 17-C , 33-H ) :   0.9666 B( 18-C , 19-C ) :   1.2229 B( 18-C , 21-H ) :   0.9860
B( 19-C , 20-C ) :   1.6315 B( 19-C , 22-C ) :   1.0520 B( 22-C , 23-H ) :   0.9257
B( 22-C , 24-H ) :   0.9335 B( 22-C , 25-C ) :   1.0623 B( 25-C , 26-H ) :   0.9518
B( 25-C , 27-H ) :   0.9561 B( 25-C , 28-C ) :   1.0713 B( 28-C , 29-H ) :   0.9738
B( 28-C , 30-H ) :   0.9771 B( 28-C , 31-H ) :   0.9751

Dispersion correction           -0.013844645
FINAL SINGLE POINT ENERGY     -1339.878509537782

DIPOLE MOMENT
-------------
                                X             Y             Z
Electronic contribution:      0.04696      -1.30393     -33.23341
Nuclear contribution   :      0.00836       1.12821      33.94670
                        -----------------------------------------
Total Dipole Moment    :      0.05533      -0.17572       0.71329
                        -----------------------------------------
Magnitude (a.u.)       :      0.73670
Magnitude (Debye)      :      1.87254

Rotational constants in cm-1:     0.018152     0.008843     0.006155
Rotational constants in MHz :   544.191883   265.092404   184.516773

                             ****ORCA TERMINATED NORMALLY****
TOTAL RUN TIME: 0 days 0 hours 0 minutes 21 seconds 656 msec
