                         Program Version 4.2.1 -  RELEASE  -
|  1> ! wB97X-D3 SP def2-SVP
|  2> %pal
|  3> nprocs 24
|  4> end
|  5>
|  6> * xyz 0 1
|  7> S 	 -59.9182 	 8.96016 	 -17.7982
|  8> C 	 -58.8246 	 7.95205 	 -18.7294
|  9> C 	 -58.6412 	 6.70975 	 -18.0643
| 10> C 	 -59.4073 	 6.61945 	 -16.8503
| 11> C 	 -60.1713 	 7.71022 	 -16.4859
| 12> H 	 -59.356 	 5.78387 	 -16.1739
| 13> C 	 -57.8741 	 5.50405 	 -18.5914
| 14> H 	 -57.5397 	 4.87078 	 -17.8004
| 15> H 	 -56.9275 	 5.84203 	 -18.9892
| 16> C 	 -58.8607 	 4.61599 	 -19.4214
| 17> H 	 -59.7529 	 4.33317 	 -18.8349
| 18> H 	 -59.2428 	 5.19697 	 -20.2507
| 19> C 	 -58.2347 	 3.25604 	 -19.8706
| 20> H 	 -57.9671 	 2.58413 	 -19.0778
| 21> H 	 -59.0464 	 2.73359 	 -20.3414
| 22> H 	 -57.4076 	 3.29926 	 -20.5464
| 23> S 	 -60.5802 	 7.28481 	 -13.8341
| 24> C 	 -61.9925 	 7.9502 	 -13.067
| 25> C 	 -62.8355 	 8.55252 	 -13.9934
| 26> C 	 -62.3556 	 8.48822 	 -15.3686
| 27> C 	 -61.1711 	 7.75712 	 -15.4068
| 28> H 	 -63.6686 	 9.06568 	 -13.5241
| 29> C 	 -63.2102 	 9.09817 	 -16.5013
| 30> H 	 -62.4781 	 9.29348 	 -17.2884
| 31> H 	 -63.6804 	 10.0351 	 -16.0531
| 32> C 	 -64.4217 	 8.27267 	 -17.0232
| 33> H 	 -65.1642 	 8.91822 	 -17.4482
| 34> H 	 -65.0514 	 7.93685 	 -16.148
| 35> C 	 -63.9456 	 7.16352 	 -17.9757
| 36> H 	 -63.0807 	 6.68187 	 -17.5414
| 37> H 	 -63.6001 	 7.75544 	 -18.8248
| 38> H 	 -64.7114 	 6.43644 	 -18.177
| 39> H 	 -58.5342 	 8.02711 	 -19.7627
| 40> H 	 -61.9906 	 8.23666 	 -12.0527
| 41> *
| 42>
| 43>                          ****END OF INPUT****

CARTESIAN COORDINATES (ANGSTROEM)
---------------------------------
  S    -59.918200    8.960160  -17.798200
  C    -58.824600    7.952050  -18.729400
  C    -58.641200    6.709750  -18.064300
  C    -59.407300    6.619450  -16.850300
  C    -60.171300    7.710220  -16.485900
  H    -59.356000    5.783870  -16.173900
  C    -57.874100    5.504050  -18.591400
  H    -57.539700    4.870780  -17.800400
  H    -56.927500    5.842030  -18.989200
  C    -58.860700    4.615990  -19.421400
  H    -59.752900    4.333170  -18.834900
  H    -59.242800    5.196970  -20.250700
  C    -58.234700    3.256040  -19.870600
  H    -57.967100    2.584130  -19.077800
  H    -59.046400    2.733590  -20.341400
  H    -57.407600    3.299260  -20.546400
  S    -60.580200    7.284810  -13.834100
  C    -61.992500    7.950200  -13.067000
  C    -62.835500    8.552520  -13.993400
  C    -62.355600    8.488220  -15.368600
  C    -61.171100    7.757120  -15.406800
  H    -63.668600    9.065680  -13.524100
  C    -63.210200    9.098170  -16.501300
  H    -62.478100    9.293480  -17.288400
  H    -63.680400   10.035100  -16.053100
  C    -64.421700    8.272670  -17.023200
  H    -65.164200    8.918220  -17.448200
  H    -65.051400    7.936850  -16.148000
  C    -63.945600    7.163520  -17.975700
  H    -63.080700    6.681870  -17.541400
  H    -63.600100    7.755440  -18.824800
  H    -64.711400    6.436440  -18.177000
  H    -58.534200    8.027110  -19.762700
  H    -61.990600    8.236660  -12.052700

 Total Charge           Charge          ....    0
 Multiplicity           Mult            ....    1
 Number of Electrons    NEL             ....  134
 Basis Dimension        Dim             ....  322

ORBITAL ENERGIES
----------------

  NO   OCC          E(Eh)            E(eV)
   0   2.0000     -88.969006     -2420.9697
   1   2.0000     -88.968391     -2420.9530
   2   2.0000     -10.337177      -281.2889
   3   2.0000     -10.333683      -281.1938
   4   2.0000     -10.317681      -280.7584
   5   2.0000     -10.314260      -280.6653
   6   2.0000     -10.313272      -280.6384
   7   2.0000     -10.305275      -280.4208
   8   2.0000     -10.300336      -280.2864
   9   2.0000     -10.298772      -280.2438
  10   2.0000     -10.293581      -280.1026
  11   2.0000     -10.292403      -280.0705
  12   2.0000     -10.290778      -280.0263
  13   2.0000     -10.287228      -279.9297
  14   2.0000     -10.273940      -279.5681
  15   2.0000     -10.270977      -279.4875
  16   2.0000      -8.083501      -219.9632
  17   2.0000      -8.081512      -219.9091
  18   2.0000      -6.042025      -164.4119
  19   2.0000      -6.040315      -164.3653
  20   2.0000      -6.037932      -164.3005
  21   2.0000      -6.036206      -164.2535
  22   2.0000      -6.034239      -164.2000
  23   2.0000      -6.032194      -164.1443
  24   2.0000      -1.003002       -27.2931
  25   2.0000      -0.976647       -26.5759
  26   2.0000      -0.905792       -24.6479
  27   2.0000      -0.903859       -24.5952
  28   2.0000      -0.869114       -23.6498
  29   2.0000      -0.849792       -23.1240
  30   2.0000      -0.841797       -22.9065
  31   2.0000      -0.814532       -22.1646
  32   2.0000      -0.780505       -21.2386
  33   2.0000      -0.770034       -20.9537
  34   2.0000      -0.707636       -19.2558
  35   2.0000      -0.706354       -19.2209
  36   2.0000      -0.694560       -18.8999
  37   2.0000      -0.665133       -18.0992
  38   2.0000      -0.632504       -17.2113
  39   2.0000      -0.617923       -16.8146
  40   2.0000      -0.588806       -16.0222
  41   2.0000      -0.568230       -15.4623
  42   2.0000      -0.555146       -15.1063
  43   2.0000      -0.549675       -14.9574
  44   2.0000      -0.539433       -14.6787
  45   2.0000      -0.530284       -14.4297
  46   2.0000      -0.522421       -14.2158
  47   2.0000      -0.508183       -13.8284
  48   2.0000      -0.501388       -13.6435
  49   2.0000      -0.500804       -13.6276
  50   2.0000      -0.491450       -13.3730
  51   2.0000      -0.475109       -12.9284
  52   2.0000      -0.465517       -12.6674
  53   2.0000      -0.462797       -12.5933
  54   2.0000      -0.453955       -12.3528
  55   2.0000      -0.449036       -12.2189
  56   2.0000      -0.448075       -12.1927
  57   2.0000      -0.441672       -12.0185
  58   2.0000      -0.436510       -11.8780
  59   2.0000      -0.425559       -11.5800
  60   2.0000      -0.416473       -11.3328
  61   2.0000      -0.410180       -11.1616
  62   2.0000      -0.406155       -11.0520
  63   2.0000      -0.355571        -9.6756
  64   2.0000      -0.331905        -9.0316
  65   2.0000      -0.325677        -8.8621
  66   2.0000      -0.287431        -7.8214
  67   0.0000       0.018348         0.4993
  68   0.0000       0.067413         1.8344
  69   0.0000       0.105906         2.8818
  70   0.0000       0.112465         3.0603
  71   0.0000       0.125793         3.4230

MULLIKEN ATOMIC CHARGES
-----------------------
   0 S :    0.086213
   1 C :   -0.102724
   2 C :   -0.122100
   3 C :    0.007317
   4 C :   -0.104477
   5 H :    0.009326
   6 C :    0.091960
   7 H :    0.005451
   8 H :    0.028235
   9 C :   -0.086666
  10 H :    0.038112
  11 H :    0.026641
  12 C :   -0.021947
  13 H :    0.024547
  14 H :    0.023640
  15 H :    0.030714
  16 S :    0.100470
  17 C :   -0.086151
  18 C :   -0.054370
  19 C :   -0.066828
  20 C :   -0.133035
  21 H :    0.025739
  22 C :    0.045703
  23 H :    0.022215
  24 H :    0.038535
  25 C :   -0.063236
  26 H :    0.020471
  27 H :    0.019536
  28 C :   -0.023276
  29 H :    0.037435
  30 H :    0.034511
  31 H :    0.038526
  32 H :    0.052493
  33 H :    0.057020
Sum of atomic charges:   -0.0000000

LOEWDIN ATOMIC CHARGES
----------------------
   0 S :    0.381926
   1 C :   -0.206682
   2 C :   -0.055550
   3 C :   -0.069809
   4 C :   -0.169909
   5 H :    0.024933
   6 C :   -0.034312
   7 H :    0.026078
   8 H :    0.030519
   9 C :   -0.030341
  10 H :    0.032505
  11 H :    0.021098
  12 C :   -0.065892
  13 H :    0.022995
  14 H :    0.026932
  15 H :    0.020258
  16 S :    0.417298
  17 C :   -0.189961
  18 C :   -0.064289
  19 C :   -0.053097
  20 C :   -0.199522
  21 H :    0.033232
  22 C :   -0.032953
  23 H :    0.014598
  24 H :    0.041937
  25 C :   -0.044488
  26 H :    0.018785
  27 H :    0.024509
  28 C :   -0.059558
  29 H :    0.027314
  30 H :    0.030810
  31 H :    0.024358
  32 H :    0.032077
  33 H :    0.024198

  Mayer bond orders larger than 0.100000
B(  0-S ,  1-C ) :   1.1353 B(  0-S ,  4-C ) :   1.1154 B(  1-C ,  2-C ) :   1.6004
B(  1-C , 32-H ) :   0.9644 B(  2-C ,  3-C ) :   1.2581 B(  2-C ,  6-C ) :   1.0385
B(  3-C ,  4-C ) :   1.5645 B(  3-C ,  5-H ) :   0.9896 B(  4-C , 20-C ) :   1.0526
B(  6-C ,  7-H ) :   0.9375 B(  6-C ,  8-H ) :   0.9447 B(  6-C ,  9-C ) :   1.0426
B(  9-C , 10-H ) :   0.9578 B(  9-C , 11-H ) :   0.9613 B(  9-C , 12-C ) :   1.0769
B( 12-C , 13-H ) :   0.9735 B( 12-C , 14-H ) :   0.9728 B( 12-C , 15-H ) :   0.9780
B( 16-S , 17-C ) :   1.1515 B( 16-S , 20-C ) :   1.1447 B( 17-C , 18-C ) :   1.6385
B( 17-C , 33-H ) :   0.9650 B( 18-C , 19-C ) :   1.2163 B( 18-C , 21-H ) :   0.9880
B( 19-C , 20-C ) :   1.5845 B( 19-C , 22-C ) :   1.0379 B( 22-C , 23-H ) :   0.9295
B( 22-C , 24-H ) :   0.9308 B( 22-C , 25-C ) :   1.0722 B( 25-C , 26-H ) :   0.9569
B( 25-C , 27-H ) :   0.9511 B( 25-C , 28-C ) :   1.0561 B( 28-C , 29-H ) :   0.9806
B( 28-C , 30-H ) :   0.9751 B( 28-C , 31-H ) :   0.9737

Dispersion correction           -0.014631750
FINAL SINGLE POINT ENERGY     -1339.860875523476

DIPOLE MOMENT
-------------
                                X             Y             Z
Electronic contribution:      5.75016      13.80648      16.74073
Nuclear contribution   :     -5.98095     -14.04104     -16.86730
                        -----------------------------------------
Total Dipole Moment    :     -0.23079      -0.23457      -0.12658
                        -----------------------------------------
Magnitude (a.u.)       :      0.35257
Magnitude (Debye)      :      0.89617

Rotational constants in cm-1:     0.019522     0.008066     0.007234
Rotational constants in MHz :   585.263635   241.821718   216.859229

                             ****ORCA TERMINATED NORMALLY****
TOTAL RUN TIME: 0 days 0 hours 0 minutes 20 seconds 404 msec
