                         Program Version 4.2.1 -  RELEASE  -
|  1> ! wB97X-D3 SP def2-SVP
|  2> %pal
|  3> nprocs 24
|  4> end
|  5>
|  6> * xyz 0 1
|  7> S 	 -112.17 	 26.8126 	 -113.475
|  8> C 	 -110.679 	 26.3674 	 -112.554
|  9> C 	 -110.07 	 25.2815 	 -113.095
| 10> C 	 -110.786 	 24.9425 	 -114.308
| 11> C 	 -111.81 	 25.7334 	 -114.68
| 12> H 	 -110.536 	 24.1154 	 -114.909
| 13> C 	 -108.816 	 24.4848 	 -112.738
| 14> H 	 -107.988 	 25.2363 	 -112.772
| 15> H 	 -108.498 	 23.7262 	 -113.471
| 16> C 	 -108.9 	 23.831 	 -111.384
| 17> H 	 -109.954 	 23.379 	 -111.223
| 18> H 	 -108.263 	 22.9981 	 -111.286
| 19> C 	 -108.53 	 24.8017 	 -110.27
| 20> H 	 -107.547 	 25.2554 	 -110.436
| 21> H 	 -109.255 	 25.5639 	 -110.089
| 22> H 	 -108.295 	 24.1619 	 -109.407
| 23> S 	 -114.456 	 25.5508 	 -115.624
| 24> C 	 -114.745 	 25.7106 	 -117.351
| 25> C 	 -113.515 	 25.8335 	 -118.022
| 26> C 	 -112.39 	 25.8566 	 -117.196
| 27> C 	 -112.683 	 25.6753 	 -115.822
| 28> H 	 -113.618 	 25.9463 	 -119.126
| 29> C 	 -110.956 	 25.9831 	 -117.817
| 30> H 	 -110.748 	 25.0223 	 -118.246
| 31> H 	 -110.278 	 26.2467 	 -117.016
| 32> C 	 -110.696 	 27.1396 	 -118.853
| 33> H 	 -111.084 	 26.8711 	 -119.873
| 34> H 	 -109.647 	 27.3533 	 -118.962
| 35> C 	 -111.32 	 28.4486 	 -118.386
| 36> H 	 -110.874 	 28.7548 	 -117.458
| 37> H 	 -112.388 	 28.4757 	 -118.225
| 38> H 	 -110.968 	 29.2401 	 -118.996
| 39> H 	 -110.345 	 26.8136 	 -111.675
| 40> H 	 -115.774 	 25.7077 	 -117.791
| 41> *
| 42>
| 43>                          ****END OF INPUT****

CARTESIAN COORDINATES (ANGSTROEM)
---------------------------------
  S    -112.170000   26.812600  -113.475000
  C    -110.679000   26.367400  -112.554000
  C    -110.070000   25.281500  -113.095000
  C    -110.786000   24.942500  -114.308000
  C    -111.810000   25.733400  -114.680000
  H    -110.536000   24.115400  -114.909000
  C    -108.816000   24.484800  -112.738000
  H    -107.988000   25.236300  -112.772000
  H    -108.498000   23.726200  -113.471000
  C    -108.900000   23.831000  -111.384000
  H    -109.954000   23.379000  -111.223000
  H    -108.263000   22.998100  -111.286000
  C    -108.530000   24.801700  -110.270000
  H    -107.547000   25.255400  -110.436000
  H    -109.255000   25.563900  -110.089000
  H    -108.295000   24.161900  -109.407000
  S    -114.456000   25.550800  -115.624000
  C    -114.745000   25.710600  -117.351000
  C    -113.515000   25.833500  -118.022000
  C    -112.390000   25.856600  -117.196000
  C    -112.683000   25.675300  -115.822000
  H    -113.618000   25.946300  -119.126000
  C    -110.956000   25.983100  -117.817000
  H    -110.748000   25.022300  -118.246000
  H    -110.278000   26.246700  -117.016000
  C    -110.696000   27.139600  -118.853000
  H    -111.084000   26.871100  -119.873000
  H    -109.647000   27.353300  -118.962000
  C    -111.320000   28.448600  -118.386000
  H    -110.874000   28.754800  -117.458000
  H    -112.388000   28.475700  -118.225000
  H    -110.968000   29.240100  -118.996000
  H    -110.345000   26.813600  -111.675000
  H    -115.774000   25.707700  -117.791000

 Total Charge           Charge          ....    0
 Multiplicity           Mult            ....    1
 Number of Electrons    NEL             ....  134
 Basis Dimension        Dim             ....  322

ORBITAL ENERGIES
----------------

  NO   OCC          E(Eh)            E(eV)
   0   2.0000     -88.967436     -2420.9270
   1   2.0000     -88.960627     -2420.7417
   2   2.0000     -10.330903      -281.1182
   3   2.0000     -10.325223      -280.9636
   4   2.0000     -10.317117      -280.7430
   5   2.0000     -10.310889      -280.5736
   6   2.0000     -10.308343      -280.5043
   7   2.0000     -10.302194      -280.3369
   8   2.0000     -10.298123      -280.2262
   9   2.0000     -10.297252      -280.2025
  10   2.0000     -10.291871      -280.0560
  11   2.0000     -10.288665      -279.9688
  12   2.0000     -10.287330      -279.9325
  13   2.0000     -10.282082      -279.7897
  14   2.0000     -10.277511      -279.6653
  15   2.0000     -10.263969      -279.2968
  16   2.0000      -8.081248      -219.9019
  17   2.0000      -8.076849      -219.7822
  18   2.0000      -6.039717      -164.3490
  19   2.0000      -6.035769      -164.2416
  20   2.0000      -6.035397      -164.2315
  21   2.0000      -6.032213      -164.1449
  22   2.0000      -6.031227      -164.1180
  23   2.0000      -6.027343      -164.0124
  24   2.0000      -1.013025       -27.5658
  25   2.0000      -0.981740       -26.7145
  26   2.0000      -0.920136       -25.0382
  27   2.0000      -0.901398       -24.5283
  28   2.0000      -0.872800       -23.7501
  29   2.0000      -0.847654       -23.0658
  30   2.0000      -0.840792       -22.8791
  31   2.0000      -0.810111       -22.0443
  32   2.0000      -0.789150       -21.4739
  33   2.0000      -0.777223       -21.1493
  34   2.0000      -0.707365       -19.2484
  35   2.0000      -0.701583       -19.0910
  36   2.0000      -0.691854       -18.8263
  37   2.0000      -0.652032       -17.7427
  38   2.0000      -0.644915       -17.5490
  39   2.0000      -0.618128       -16.8201
  40   2.0000      -0.591783       -16.1032
  41   2.0000      -0.579669       -15.7736
  42   2.0000      -0.555460       -15.1148
  43   2.0000      -0.552026       -15.0214
  44   2.0000      -0.544162       -14.8074
  45   2.0000      -0.538892       -14.6640
  46   2.0000      -0.521515       -14.1911
  47   2.0000      -0.508342       -13.8327
  48   2.0000      -0.505673       -13.7601
  49   2.0000      -0.498755       -13.5718
  50   2.0000      -0.487119       -13.2552
  51   2.0000      -0.479456       -13.0467
  52   2.0000      -0.470408       -12.8004
  53   2.0000      -0.462052       -12.5731
  54   2.0000      -0.461506       -12.5582
  55   2.0000      -0.450686       -12.2638
  56   2.0000      -0.440939       -11.9985
  57   2.0000      -0.435495       -11.8504
  58   2.0000      -0.432697       -11.7743
  59   2.0000      -0.419776       -11.4227
  60   2.0000      -0.415758       -11.3134
  61   2.0000      -0.411023       -11.1845
  62   2.0000      -0.407525       -11.0893
  63   2.0000      -0.344090        -9.3632
  64   2.0000      -0.335009        -9.1161
  65   2.0000      -0.326330        -8.8799
  66   2.0000      -0.294955        -8.0261
  67   0.0000       0.033266         0.9052
  68   0.0000       0.066561         1.8112
  69   0.0000       0.108486         2.9520
  70   0.0000       0.127317         3.4645
  71   0.0000       0.133379         3.6294

MULLIKEN ATOMIC CHARGES
-----------------------
   0 S :    0.104044
   1 C :   -0.116955
   2 C :   -0.047922
   3 C :    0.020199
   4 C :   -0.139901
   5 H :   -0.018305
   6 C :    0.058910
   7 H :    0.040959
   8 H :    0.030092
   9 C :   -0.077360
  10 H :    0.048102
  11 H :    0.015557
  12 C :   -0.047123
  13 H :    0.021859
  14 H :    0.039042
  15 H :    0.029615
  16 S :    0.105019
  17 C :   -0.134266
  18 C :   -0.044881
  19 C :   -0.036914
  20 C :   -0.161429
  21 H :    0.038293
  22 C :    0.098851
  23 H :    0.040565
  24 H :    0.028722
  25 C :   -0.095787
  26 H :    0.030693
  27 H :    0.031909
  28 C :   -0.027139
  29 H :    0.010196
  30 H :    0.045120
  31 H :    0.016359
  32 H :    0.011796
  33 H :    0.082083
Sum of atomic charges:    0.0000000

LOEWDIN ATOMIC CHARGES
----------------------
   0 S :    0.420681
   1 C :   -0.172285
   2 C :   -0.050934
   3 C :   -0.062695
   4 C :   -0.223678
   5 H :    0.019357
   6 C :   -0.033614
   7 H :    0.037924
   8 H :    0.034223
   9 C :   -0.045093
  10 H :    0.037718
  11 H :    0.016463
  12 C :   -0.064239
  13 H :    0.025011
  14 H :    0.018568
  15 H :    0.030880
  16 S :    0.391674
  17 C :   -0.191530
  18 C :   -0.082520
  19 C :   -0.053042
  20 C :   -0.195784
  21 H :    0.040846
  22 C :   -0.022844
  23 H :    0.029865
  24 H :    0.029795
  25 C :   -0.040075
  26 H :    0.021344
  27 H :    0.026189
  28 C :   -0.065795
  29 H :    0.024222
  30 H :    0.025986
  31 H :    0.021686
  32 H :    0.010267
  33 H :    0.041427

  Mayer bond orders larger than 0.100000
B(  0-S ,  1-C ) :   1.1213 B(  0-S ,  4-C ) :   1.1509 B(  1-C ,  2-C ) :   1.6388
B(  1-C , 32-H ) :   0.9761 B(  2-C ,  3-C ) :   1.2179 B(  2-C ,  6-C ) :   1.0018
B(  3-C ,  4-C ) :   1.6001 B(  3-C ,  5-H ) :   1.0087 B(  4-C , 20-C ) :   1.0292
B(  6-C ,  7-H ) :   0.9431 B(  6-C ,  8-H ) :   0.9455 B(  6-C ,  9-C ) :   1.0642
B(  9-C , 10-H ) :   0.9536 B(  9-C , 11-H ) :   0.9570 B(  9-C , 12-C ) :   1.0827
B( 12-C , 13-H ) :   0.9707 B( 12-C , 14-H ) :   0.9769 B( 12-C , 15-H ) :   0.9719
B( 16-S , 17-C ) :   1.1691 B( 16-S , 20-C ) :   1.1459 B( 17-C , 18-C ) :   1.5715
B( 17-C , 20-C ) :   0.1171 B( 17-C , 33-H ) :   0.9626 B( 18-C , 19-C ) :   1.2666
B( 18-C , 21-H ) :   0.9872 B( 19-C , 20-C ) :   1.5640 B( 19-C , 22-C ) :   1.0295
B( 22-C , 23-H ) :   0.9440 B( 22-C , 24-H ) :   0.9325 B( 22-C , 25-C ) :   1.0677
B( 25-C , 26-H ) :   0.9531 B( 25-C , 27-H ) :   0.9598 B( 25-C , 28-C ) :   1.0881
B( 28-C , 29-H ) :   0.9693 B( 28-C , 30-H ) :   0.9706 B( 28-C , 31-H ) :   0.9697

Dispersion correction           -0.014414361
FINAL SINGLE POINT ENERGY     -1339.863355764664

DIPOLE MOMENT
-------------
                                X             Y             Z
Electronic contribution:    -21.41574       0.15997       0.59539
Nuclear contribution   :     22.02445      -0.36341      -0.80523
                        -----------------------------------------
Total Dipole Moment    :      0.60871      -0.20344      -0.20985
                        -----------------------------------------
Magnitude (a.u.)       :      0.67524
Magnitude (Debye)      :      1.71632

Rotational constants in cm-1:     0.023742     0.007408     0.006474
Rotational constants in MHz :   711.769068   222.078579   194.084325

                             ****ORCA TERMINATED NORMALLY****
TOTAL RUN TIME: 0 days 0 hours 0 minutes 21 seconds 556 msec
