                         Program Version 4.2.1 -  RELEASE  -
|  1> ! wB97X-D3 SP def2-SVP
|  2> %pal
|  3> nprocs 24
|  4> end
|  5>
|  6> * xyz 0 1
|  7> S 	 -135.226 	 63.8316 	 -62.2637
|  8> C 	 -135.059 	 65.4914 	 -62.4924
|  9> C 	 -134.71 	 66.1334 	 -61.3186
| 10> C 	 -134.631 	 65.2659 	 -60.2199
| 11> C 	 -134.909 	 63.9539 	 -60.563
| 12> H 	 -134.353 	 65.5561 	 -59.2385
| 13> C 	 -134.421 	 67.6296 	 -61.2027
| 14> H 	 -134.742 	 68.0242 	 -62.119
| 15> H 	 -133.334 	 67.7423 	 -61.2558
| 16> C 	 -135.051 	 68.3235 	 -60.0055
| 17> H 	 -134.628 	 67.8485 	 -59.1227
| 18> H 	 -134.77 	 69.3407 	 -59.9572
| 19> C 	 -136.552 	 68.1441 	 -59.8468
| 20> H 	 -137.037 	 68.9658 	 -59.3352
| 21> H 	 -137.035 	 68.1933 	 -60.8069
| 22> H 	 -136.755 	 67.1129 	 -59.4154
| 23> S 	 -136.467 	 62.0273 	 -59.3868
| 24> C 	 -135.763 	 61.0159 	 -58.1064
| 25> C 	 -134.46 	 61.394 	 -57.8156
| 26> C 	 -133.993 	 62.3549 	 -58.7917
| 27> C 	 -134.947 	 62.8199 	 -59.6383
| 28> H 	 -133.994 	 60.8923 	 -57.0188
| 29> C 	 -132.607 	 62.9786 	 -58.6773
| 30> H 	 -132.484 	 63.3041 	 -57.6426
| 31> H 	 -132.5 	 64.0084 	 -59.1231
| 32> C 	 -131.451 	 62.0879 	 -59.0005
| 33> H 	 -131.765 	 61.0213 	 -59.045
| 34> H 	 -130.587 	 62.1601 	 -58.3326
| 35> C 	 -130.935 	 62.5366 	 -60.3896
| 36> H 	 -130.388 	 63.4603 	 -60.3667
| 37> H 	 -131.638 	 62.5726 	 -61.1181
| 38> H 	 -130.25 	 61.8402 	 -60.7308
| 39> H 	 -135.057 	 65.9877 	 -63.4107
| 40> H 	 -136.33 	 60.3214 	 -57.4822
| 41> *
| 42>
| 43>                          ****END OF INPUT****

CARTESIAN COORDINATES (ANGSTROEM)
---------------------------------
  S    -135.226000   63.831600  -62.263700
  C    -135.059000   65.491400  -62.492400
  C    -134.710000   66.133400  -61.318600
  C    -134.631000   65.265900  -60.219900
  C    -134.909000   63.953900  -60.563000
  H    -134.353000   65.556100  -59.238500
  C    -134.421000   67.629600  -61.202700
  H    -134.742000   68.024200  -62.119000
  H    -133.334000   67.742300  -61.255800
  C    -135.051000   68.323500  -60.005500
  H    -134.628000   67.848500  -59.122700
  H    -134.770000   69.340700  -59.957200
  C    -136.552000   68.144100  -59.846800
  H    -137.037000   68.965800  -59.335200
  H    -137.035000   68.193300  -60.806900
  H    -136.755000   67.112900  -59.415400
  S    -136.467000   62.027300  -59.386800
  C    -135.763000   61.015900  -58.106400
  C    -134.460000   61.394000  -57.815600
  C    -133.993000   62.354900  -58.791700
  C    -134.947000   62.819900  -59.638300
  H    -133.994000   60.892300  -57.018800
  C    -132.607000   62.978600  -58.677300
  H    -132.484000   63.304100  -57.642600
  H    -132.500000   64.008400  -59.123100
  C    -131.451000   62.087900  -59.000500
  H    -131.765000   61.021300  -59.045000
  H    -130.587000   62.160100  -58.332600
  C    -130.935000   62.536600  -60.389600
  H    -130.388000   63.460300  -60.366700
  H    -131.638000   62.572600  -61.118100
  H    -130.250000   61.840200  -60.730800
  H    -135.057000   65.987700  -63.410700
  H    -136.330000   60.321400  -57.482200

 Total Charge           Charge          ....    0
 Multiplicity           Mult            ....    1
 Number of Electrons    NEL             ....  134
 Basis Dimension        Dim             ....  322

ORBITAL ENERGIES
----------------

  NO   OCC          E(Eh)            E(eV)
   0   2.0000     -88.967924     -2420.9403
   1   2.0000     -88.962946     -2420.8048
   2   2.0000     -10.326682      -281.0033
   3   2.0000     -10.321602      -280.8651
   4   2.0000     -10.320562      -280.8368
   5   2.0000     -10.304232      -280.3924
   6   2.0000     -10.303006      -280.3590
   7   2.0000     -10.295372      -280.1513
   8   2.0000     -10.294598      -280.1302
   9   2.0000     -10.288669      -279.9689
  10   2.0000     -10.286423      -279.9078
  11   2.0000     -10.285207      -279.8747
  12   2.0000     -10.282247      -279.7942
  13   2.0000     -10.280924      -279.7582
  14   2.0000     -10.274524      -279.5840
  15   2.0000     -10.253581      -279.0141
  16   2.0000      -8.083862      -219.9731
  17   2.0000      -8.077838      -219.8092
  18   2.0000      -6.042130      -164.4147
  19   2.0000      -6.038088      -164.3047
  20   2.0000      -6.036383      -164.2583
  21   2.0000      -6.034919      -164.2185
  22   2.0000      -6.032345      -164.1484
  23   2.0000      -6.028522      -164.0444
  24   2.0000      -1.013497       -27.5787
  25   2.0000      -0.989270       -26.9194
  26   2.0000      -0.915008       -24.8986
  27   2.0000      -0.908976       -24.7345
  28   2.0000      -0.872615       -23.7451
  29   2.0000      -0.851970       -23.1833
  30   2.0000      -0.845242       -23.0002
  31   2.0000      -0.819426       -22.2977
  32   2.0000      -0.784168       -21.3383
  33   2.0000      -0.773599       -21.0507
  34   2.0000      -0.711549       -19.3622
  35   2.0000      -0.696250       -18.9459
  36   2.0000      -0.693635       -18.8748
  37   2.0000      -0.661448       -17.9989
  38   2.0000      -0.645754       -17.5719
  39   2.0000      -0.628795       -17.1104
  40   2.0000      -0.599749       -16.3200
  41   2.0000      -0.572532       -15.5794
  42   2.0000      -0.558224       -15.1900
  43   2.0000      -0.553476       -15.0609
  44   2.0000      -0.544910       -14.8278
  45   2.0000      -0.532592       -14.4926
  46   2.0000      -0.519165       -14.1272
  47   2.0000      -0.512795       -13.9539
  48   2.0000      -0.503249       -13.6941
  49   2.0000      -0.492921       -13.4131
  50   2.0000      -0.488689       -13.2979
  51   2.0000      -0.481867       -13.1123
  52   2.0000      -0.472577       -12.8595
  53   2.0000      -0.464645       -12.6436
  54   2.0000      -0.463900       -12.6234
  55   2.0000      -0.448243       -12.1973
  56   2.0000      -0.446487       -12.1495
  57   2.0000      -0.440635       -11.9903
  58   2.0000      -0.434669       -11.8279
  59   2.0000      -0.420080       -11.4309
  60   2.0000      -0.418733       -11.3943
  61   2.0000      -0.414565       -11.2809
  62   2.0000      -0.401412       -10.9230
  63   2.0000      -0.345789        -9.4094
  64   2.0000      -0.331271        -9.0143
  65   2.0000      -0.327298        -8.9062
  66   2.0000      -0.299499        -8.1498
  67   0.0000       0.039860         1.0847
  68   0.0000       0.067417         1.8345
  69   0.0000       0.114893         3.1264
  70   0.0000       0.126335         3.4377
  71   0.0000       0.131781         3.5859

MULLIKEN ATOMIC CHARGES
-----------------------
   0 S :    0.139629
   1 C :   -0.093920
   2 C :   -0.140879
   3 C :    0.053597
   4 C :   -0.176615
   5 H :    0.001229
   6 C :    0.132482
   7 H :   -0.012480
   8 H :    0.037459
   9 C :   -0.062889
  10 H :    0.021133
  11 H :    0.019955
  12 C :   -0.050314
  13 H :    0.033774
  14 H :    0.017569
  15 H :    0.053769
  16 S :    0.102524
  17 C :   -0.102992
  18 C :   -0.015479
  19 C :   -0.011271
  20 C :   -0.151551
  21 H :    0.010353
  22 C :    0.044815
  23 H :    0.015527
  24 H :    0.025797
  25 C :   -0.075833
  26 H :    0.041115
  27 H :    0.027381
  28 C :    0.002415
  29 H :    0.023634
  30 H :    0.007899
  31 H :   -0.001588
  32 H :    0.022824
  33 H :    0.060930
Sum of atomic charges:    0.0000000

LOEWDIN ATOMIC CHARGES
----------------------
   0 S :    0.449931
   1 C :   -0.214329
   2 C :   -0.063542
   3 C :   -0.056540
   4 C :   -0.201420
   5 H :    0.024996
   6 C :   -0.024964
   7 H :    0.017119
   8 H :    0.036194
   9 C :   -0.041583
  10 H :    0.022590
  11 H :    0.020237
  12 C :   -0.068708
  13 H :    0.027346
  14 H :    0.021241
  15 H :    0.037915
  16 S :    0.396751
  17 C :   -0.173273
  18 C :   -0.060095
  19 C :   -0.054427
  20 C :   -0.206480
  21 H :    0.027566
  22 C :   -0.043266
  23 H :    0.030655
  24 H :    0.034796
  25 C :   -0.039158
  26 H :    0.029558
  27 H :    0.024384
  28 C :   -0.050135
  29 H :    0.023359
  30 H :    0.010617
  31 H :    0.013898
  32 H :    0.018179
  33 H :    0.030589

  Mayer bond orders larger than 0.100000
B(  0-S ,  1-C ) :   1.1623 B(  0-S ,  4-C ) :   1.1833 B(  1-C ,  2-C ) :   1.5814
B(  1-C ,  4-C ) :   0.1007 B(  1-C , 32-H ) :   0.9712 B(  2-C ,  3-C ) :   1.2838
B(  2-C ,  6-C ) :   1.0076 B(  3-C ,  4-C ) :   1.5339 B(  3-C ,  5-H ) :   0.9992
B(  4-C , 20-C ) :   1.0113 B(  6-C ,  7-H ) :   0.9299 B(  6-C ,  8-H ) :   0.9340
B(  6-C ,  9-C ) :   1.0791 B(  9-C , 10-H ) :   0.9539 B(  9-C , 11-H ) :   0.9546
B(  9-C , 12-C ) :   1.0768 B( 12-C , 13-H ) :   0.9736 B( 12-C , 14-H ) :   0.9763
B( 12-C , 15-H ) :   0.9693 B( 16-S , 17-C ) :   1.1446 B( 16-S , 20-C ) :   1.1326
B( 17-C , 18-C ) :   1.6410 B( 17-C , 33-H ) :   0.9652 B( 18-C , 19-C ) :   1.1886
B( 18-C , 21-H ) :   1.0005 B( 19-C , 20-C ) :   1.6450 B( 19-C , 22-C ) :   1.0478
B( 22-C , 23-H ) :   0.9317 B( 22-C , 24-H ) :   0.9379 B( 22-C , 25-C ) :   1.0443
B( 25-C , 26-H ) :   0.9638 B( 25-C , 27-H ) :   0.9546 B( 25-C , 28-C ) :   1.0892
B( 28-C , 29-H ) :   0.9739 B( 28-C , 30-H ) :   0.9746 B( 28-C , 31-H ) :   0.9682

Dispersion correction           -0.015044257
FINAL SINGLE POINT ENERGY     -1339.871288579122

DIPOLE MOMENT
-------------
                                X             Y             Z
Electronic contribution:    -14.25082     -15.15981      -5.61153
Nuclear contribution   :     14.66910      15.57528       5.94307
                        -----------------------------------------
Total Dipole Moment    :      0.41827       0.41546       0.33154
                        -----------------------------------------
Magnitude (a.u.)       :      0.67637
Magnitude (Debye)      :      1.71921

Rotational constants in cm-1:     0.018269     0.009116     0.008048
Rotational constants in MHz :   547.682867   273.298042   241.274163

                             ****ORCA TERMINATED NORMALLY****
TOTAL RUN TIME: 0 days 0 hours 0 minutes 22 seconds 408 msec
