                         Program Version 4.2.1 -  RELEASE  -
|  1> ! wB97X-D3 SP def2-SVP
|  2> %pal
|  3> nprocs 24
|  4> end
|  5>
|  6> * xyz 0 1
|  7> S 	 -50.8025 	 14.3805 	 -108.181
|  8> C 	 -50.9291 	 12.8013 	 -107.468
|  9> C 	 -50.1404 	 12.7693 	 -106.334
| 10> C 	 -49.451 	 13.9807 	 -106.104
| 11> C 	 -49.7745 	 15.001 	 -106.941
| 12> H 	 -48.7318 	 14.1963 	 -105.278
| 13> C 	 -50.0191 	 11.6382 	 -105.335
| 14> H 	 -49.041 	 11.7051 	 -104.865
| 15> H 	 -50.0144 	 10.7038 	 -105.926
| 16> C 	 -50.9885 	 11.5584 	 -104.122
| 17> H 	 -52.0132 	 11.5119 	 -104.447
| 18> H 	 -50.8994 	 10.6213 	 -103.66
| 19> C 	 -51.0007 	 12.7299 	 -103.044
| 20> H 	 -51.1921 	 13.6482 	 -103.623
| 21> H 	 -51.8528 	 12.6355 	 -102.403
| 22> H 	 -50.0995 	 12.7618 	 -102.528
| 23> S 	 -48.6224 	 16.9579 	 -105.382
| 24> C 	 -48.0434 	 18.4391 	 -106.1
| 25> C 	 -48.2045 	 18.5066 	 -107.471
| 26> C 	 -48.8856 	 17.2964 	 -107.982
| 27> C 	 -49.1765 	 16.3675 	 -106.973
| 28> H 	 -47.9606 	 19.4188 	 -107.93
| 29> C 	 -49.3837 	 17.2041 	 -109.446
| 30> H 	 -49.3253 	 16.1076 	 -109.695
| 31> H 	 -48.7908 	 17.7464 	 -110.206
| 32> C 	 -50.905 	 17.5307 	 -109.6
| 33> H 	 -51.0633 	 18.5578 	 -109.436
| 34> H 	 -51.4059 	 17.1696 	 -108.688
| 35> C 	 -51.5739 	 16.9329 	 -110.911
| 36> H 	 -52.66 	 17.1702 	 -110.908
| 37> H 	 -51.4926 	 15.8668 	 -110.769
| 38> H 	 -51.1019 	 17.2167 	 -111.839
| 39> H 	 -51.392 	 11.9315 	 -107.896
| 40> H 	 -47.4911 	 19.2313 	 -105.536
| 41> *
| 42>
| 43>                          ****END OF INPUT****

CARTESIAN COORDINATES (ANGSTROEM)
---------------------------------
  S    -50.802500   14.380500  -108.181000
  C    -50.929100   12.801300  -107.468000
  C    -50.140400   12.769300  -106.334000
  C    -49.451000   13.980700  -106.104000
  C    -49.774500   15.001000  -106.941000
  H    -48.731800   14.196300  -105.278000
  C    -50.019100   11.638200  -105.335000
  H    -49.041000   11.705100  -104.865000
  H    -50.014400   10.703800  -105.926000
  C    -50.988500   11.558400  -104.122000
  H    -52.013200   11.511900  -104.447000
  H    -50.899400   10.621300  -103.660000
  C    -51.000700   12.729900  -103.044000
  H    -51.192100   13.648200  -103.623000
  H    -51.852800   12.635500  -102.403000
  H    -50.099500   12.761800  -102.528000
  S    -48.622400   16.957900  -105.382000
  C    -48.043400   18.439100  -106.100000
  C    -48.204500   18.506600  -107.471000
  C    -48.885600   17.296400  -107.982000
  C    -49.176500   16.367500  -106.973000
  H    -47.960600   19.418800  -107.930000
  C    -49.383700   17.204100  -109.446000
  H    -49.325300   16.107600  -109.695000
  H    -48.790800   17.746400  -110.206000
  C    -50.905000   17.530700  -109.600000
  H    -51.063300   18.557800  -109.436000
  H    -51.405900   17.169600  -108.688000
  C    -51.573900   16.932900  -110.911000
  H    -52.660000   17.170200  -110.908000
  H    -51.492600   15.866800  -110.769000
  H    -51.101900   17.216700  -111.839000
  H    -51.392000   11.931500  -107.896000
  H    -47.491100   19.231300  -105.536000

 Total Charge           Charge          ....    0
 Multiplicity           Mult            ....    1
 Number of Electrons    NEL             ....  134
 Basis Dimension        Dim             ....  322

ORBITAL ENERGIES
----------------

  NO   OCC          E(Eh)            E(eV)
   0   2.0000     -88.969571     -2420.9851
   1   2.0000     -88.968119     -2420.9456
   2   2.0000     -10.338147      -281.3153
   3   2.0000     -10.332024      -281.1487
   4   2.0000     -10.322711      -280.8952
   5   2.0000     -10.317285      -280.7476
   6   2.0000     -10.314654      -280.6760
   7   2.0000     -10.300636      -280.2946
   8   2.0000     -10.299029      -280.2508
   9   2.0000     -10.297687      -280.2143
  10   2.0000     -10.294213      -280.1198
  11   2.0000     -10.291631      -280.0495
  12   2.0000     -10.283700      -279.8337
  13   2.0000     -10.282633      -279.8047
  14   2.0000     -10.279718      -279.7254
  15   2.0000     -10.273432      -279.5543
  16   2.0000      -8.084003      -219.9769
  17   2.0000      -8.082326      -219.9313
  18   2.0000      -6.042577      -164.4269
  19   2.0000      -6.040917      -164.3817
  20   2.0000      -6.038377      -164.3126
  21   2.0000      -6.036988      -164.2748
  22   2.0000      -6.034880      -164.2174
  23   2.0000      -6.032966      -164.1653
  24   2.0000      -1.011006       -27.5109
  25   2.0000      -0.983123       -26.7521
  26   2.0000      -0.905497       -24.6398
  27   2.0000      -0.897384       -24.4191
  28   2.0000      -0.869278       -23.6543
  29   2.0000      -0.848185       -23.0803
  30   2.0000      -0.840261       -22.8647
  31   2.0000      -0.816839       -22.2273
  32   2.0000      -0.784274       -21.3412
  33   2.0000      -0.770413       -20.9640
  34   2.0000      -0.707219       -19.2444
  35   2.0000      -0.706407       -19.2223
  36   2.0000      -0.691504       -18.8168
  37   2.0000      -0.665977       -18.1221
  38   2.0000      -0.636143       -17.3103
  39   2.0000      -0.615904       -16.7596
  40   2.0000      -0.590932       -16.0801
  41   2.0000      -0.573344       -15.6015
  42   2.0000      -0.557916       -15.1817
  43   2.0000      -0.545632       -14.8474
  44   2.0000      -0.542677       -14.7670
  45   2.0000      -0.522281       -14.2120
  46   2.0000      -0.514237       -13.9931
  47   2.0000      -0.511721       -13.9246
  48   2.0000      -0.503337       -13.6965
  49   2.0000      -0.499466       -13.5911
  50   2.0000      -0.483587       -13.1591
  51   2.0000      -0.478523       -13.0213
  52   2.0000      -0.474973       -12.9247
  53   2.0000      -0.467852       -12.7309
  54   2.0000      -0.460271       -12.5246
  55   2.0000      -0.448278       -12.1983
  56   2.0000      -0.446206       -12.1419
  57   2.0000      -0.436874       -11.8880
  58   2.0000      -0.432038       -11.7564
  59   2.0000      -0.419675       -11.4199
  60   2.0000      -0.417444       -11.3592
  61   2.0000      -0.414128       -11.2690
  62   2.0000      -0.409942       -11.1551
  63   2.0000      -0.360194        -9.8014
  64   2.0000      -0.331982        -9.0337
  65   2.0000      -0.329990        -8.9795
  66   2.0000      -0.290662        -7.9093
  67   0.0000       0.024012         0.6534
  68   0.0000       0.078413         2.1337
  69   0.0000       0.105320         2.8659
  70   0.0000       0.119611         3.2548
  71   0.0000       0.130800         3.5592

MULLIKEN ATOMIC CHARGES
-----------------------
   0 S :    0.089610
   1 C :   -0.100512
   2 C :   -0.093089
   3 C :   -0.028794
   4 C :   -0.086902
   5 H :    0.031993
   6 C :    0.067377
   7 H :    0.019946
   8 H :    0.027855
   9 C :   -0.052831
  10 H :    0.010004
  11 H :    0.014696
  12 C :   -0.038042
  13 H :    0.041715
  14 H :    0.031573
  15 H :    0.027034
  16 S :    0.088359
  17 C :   -0.105657
  18 C :   -0.010094
  19 C :   -0.052227
  20 C :   -0.136117
  21 H :    0.008416
  22 C :    0.018365
  23 H :    0.029911
  24 H :    0.037023
  25 C :   -0.066210
  26 H :    0.009189
  27 H :    0.021741
  28 C :   -0.033867
  29 H :    0.043591
  30 H :    0.027150
  31 H :    0.038819
  32 H :    0.045706
  33 H :    0.074268
Sum of atomic charges:    0.0000000

LOEWDIN ATOMIC CHARGES
----------------------
   0 S :    0.442244
   1 C :   -0.201180
   2 C :   -0.066327
   3 C :   -0.082046
   4 C :   -0.196739
   5 H :    0.032701
   6 C :   -0.032694
   7 H :    0.029892
   8 H :    0.034474
   9 C :   -0.035511
  10 H :    0.019310
  11 H :    0.016072
  12 C :   -0.054804
  13 H :    0.032006
  14 H :    0.026335
  15 H :    0.012741
  16 S :    0.394339
  17 C :   -0.187672
  18 C :   -0.067252
  19 C :   -0.049480
  20 C :   -0.179917
  21 H :    0.026818
  22 C :   -0.041206
  23 H :    0.024717
  24 H :    0.031255
  25 C :   -0.044550
  26 H :    0.012751
  27 H :    0.020719
  28 C :   -0.061840
  29 H :    0.033507
  30 H :    0.018804
  31 H :    0.022695
  32 H :    0.030631
  33 H :    0.039209

  Mayer bond orders larger than 0.100000
B(  0-S ,  1-C ) :   1.1396 B(  0-S ,  4-C ) :   1.1530 B(  1-C ,  2-C ) :   1.5901
B(  1-C , 32-H ) :   0.9742 B(  2-C ,  3-C ) :   1.2710 B(  2-C ,  6-C ) :   1.0247
B(  3-C ,  4-C ) :   1.5653 B(  3-C ,  5-H ) :   0.9768 B(  4-C , 20-C ) :   1.0343
B(  6-C ,  7-H ) :   0.9417 B(  6-C ,  8-H ) :   0.9376 B(  6-C ,  9-C ) :   1.0656
B(  9-C , 10-H ) :   0.9561 B(  9-C , 11-H ) :   0.9556 B(  9-C , 12-C ) :   1.0728
B( 12-C , 13-H ) :   0.9751 B( 12-C , 14-H ) :   0.9749 B( 12-C , 15-H ) :   0.9809
B( 16-S , 17-C ) :   1.1463 B( 16-S , 20-C ) :   1.1279 B( 17-C , 18-C ) :   1.6495
B( 17-C , 33-H ) :   0.9569 B( 18-C , 19-C ) :   1.1979 B( 18-C , 21-H ) :   0.9981
B( 19-C , 20-C ) :   1.6078 B( 19-C , 22-C ) :   1.0458 B( 22-C , 23-H ) :   0.9338
B( 22-C , 24-H ) :   0.9421 B( 22-C , 25-C ) :   1.0455 B( 25-C , 26-H ) :   0.9551
B( 25-C , 27-H ) :   0.9530 B( 25-C , 28-C ) :   1.0621 B( 28-C , 29-H ) :   0.9748
B( 28-C , 30-H ) :   0.9744 B( 28-C , 31-H ) :   0.9792

Dispersion correction           -0.014743924
FINAL SINGLE POINT ENERGY     -1339.877101163117

DIPOLE MOMENT
-------------
                                X             Y             Z
Electronic contribution:      8.18407       6.64188       0.78488
Nuclear contribution   :     -8.16793      -6.71341      -0.77117
                        -----------------------------------------
Total Dipole Moment    :      0.01614      -0.07154       0.01371
                        -----------------------------------------
Magnitude (a.u.)       :      0.07460
Magnitude (Debye)      :      0.18963

Rotational constants in cm-1:     0.019675     0.009240     0.006713
Rotational constants in MHz :   589.830544   276.999397   201.242729

                             ****ORCA TERMINATED NORMALLY****
TOTAL RUN TIME: 0 days 0 hours 0 minutes 21 seconds 437 msec
