                         Program Version 4.2.1 -  RELEASE  -
|  1> ! wB97X-D3 SP def2-SVP
|  2> %pal
|  3> nprocs 24
|  4> end
|  5>
|  6> * xyz 0 1
|  7> S 	 -119.256 	 26.0819 	 -115.652
|  8> C 	 -119.319 	 25.5084 	 -117.314
|  9> C 	 -119.695 	 26.4894 	 -118.265
| 10> C 	 -119.961 	 27.7094 	 -117.542
| 11> C 	 -119.729 	 27.7114 	 -116.123
| 12> H 	 -120.255 	 28.5997 	 -118.016
| 13> C 	 -119.863 	 26.3561 	 -119.792
| 14> H 	 -119.725 	 25.2697 	 -119.94
| 15> H 	 -119.052 	 26.8846 	 -120.401
| 16> C 	 -121.279 	 26.5848 	 -120.316
| 17> H 	 -121.552 	 27.6072 	 -120.243
| 18> H 	 -121.258 	 26.5878 	 -121.426
| 19> C 	 -122.323 	 25.4258 	 -119.873
| 20> H 	 -123.202 	 25.9915 	 -119.436
| 21> H 	 -122.733 	 24.8361 	 -120.769
| 22> H 	 -121.927 	 24.785 	 -119.014
| 23> S 	 -121.337 	 29.5543 	 -114.897
| 24> C 	 -120.657 	 30.6543 	 -113.724
| 25> C 	 -119.337 	 30.3405 	 -113.447
| 26> C 	 -118.81 	 29.4125 	 -114.397
| 27> C 	 -119.77 	 28.7672 	 -115.179
| 28> H 	 -118.906 	 30.8362 	 -112.622
| 29> C 	 -117.419 	 28.8515 	 -114.227
| 30> H 	 -117.278 	 28.6036 	 -115.233
| 31> H 	 -117.521 	 27.9078 	 -113.754
| 32> C 	 -116.247 	 29.6837 	 -113.672
| 33> H 	 -115.397 	 28.9999 	 -113.385
| 34> H 	 -116.572 	 30.1685 	 -112.772
| 35> C 	 -115.677 	 30.7128 	 -114.604
| 36> H 	 -114.683 	 31.0493 	 -114.213
| 37> H 	 -116.3 	 31.567 	 -114.676
| 38> H 	 -115.485 	 30.2768 	 -115.607
| 39> H 	 -119.062 	 24.5089 	 -117.66
| 40> H 	 -121.176 	 31.5229 	 -113.393
| 41> *
| 42>
| 43>                          ****END OF INPUT****

CARTESIAN COORDINATES (ANGSTROEM)
---------------------------------
  S    -119.256000   26.081900  -115.652000
  C    -119.319000   25.508400  -117.314000
  C    -119.695000   26.489400  -118.265000
  C    -119.961000   27.709400  -117.542000
  C    -119.729000   27.711400  -116.123000
  H    -120.255000   28.599700  -118.016000
  C    -119.863000   26.356100  -119.792000
  H    -119.725000   25.269700  -119.940000
  H    -119.052000   26.884600  -120.401000
  C    -121.279000   26.584800  -120.316000
  H    -121.552000   27.607200  -120.243000
  H    -121.258000   26.587800  -121.426000
  C    -122.323000   25.425800  -119.873000
  H    -123.202000   25.991500  -119.436000
  H    -122.733000   24.836100  -120.769000
  H    -121.927000   24.785000  -119.014000
  S    -121.337000   29.554300  -114.897000
  C    -120.657000   30.654300  -113.724000
  C    -119.337000   30.340500  -113.447000
  C    -118.810000   29.412500  -114.397000
  C    -119.770000   28.767200  -115.179000
  H    -118.906000   30.836200  -112.622000
  C    -117.419000   28.851500  -114.227000
  H    -117.278000   28.603600  -115.233000
  H    -117.521000   27.907800  -113.754000
  C    -116.247000   29.683700  -113.672000
  H    -115.397000   28.999900  -113.385000
  H    -116.572000   30.168500  -112.772000
  C    -115.677000   30.712800  -114.604000
  H    -114.683000   31.049300  -114.213000
  H    -116.300000   31.567000  -114.676000
  H    -115.485000   30.276800  -115.607000
  H    -119.062000   24.508900  -117.660000
  H    -121.176000   31.522900  -113.393000

 Total Charge           Charge          ....    0
 Multiplicity           Mult            ....    1
 Number of Electrons    NEL             ....  134
 Basis Dimension        Dim             ....  322

ORBITAL ENERGIES
----------------

  NO   OCC          E(Eh)            E(eV)
   0   2.0000     -88.971984     -2421.0508
   1   2.0000     -88.961124     -2420.7553
   2   2.0000     -10.333074      -281.1772
   3   2.0000     -10.324035      -280.9313
   4   2.0000     -10.323275      -280.9106
   5   2.0000     -10.314845      -280.6812
   6   2.0000     -10.310038      -280.5504
   7   2.0000     -10.305807      -280.4353
   8   2.0000     -10.304528      -280.4005
   9   2.0000     -10.299148      -280.2541
  10   2.0000     -10.298832      -280.2455
  11   2.0000     -10.293433      -280.0986
  12   2.0000     -10.289911      -280.0027
  13   2.0000     -10.285869      -279.8927
  14   2.0000     -10.276092      -279.6267
  15   2.0000     -10.274352      -279.5793
  16   2.0000      -8.085689      -220.0228
  17   2.0000      -8.075756      -219.7525
  18   2.0000      -6.044199      -164.4710
  19   2.0000      -6.040184      -164.3618
  20   2.0000      -6.036675      -164.2663
  21   2.0000      -6.034200      -164.1989
  22   2.0000      -6.030163      -164.0891
  23   2.0000      -6.026709      -163.9951
  24   2.0000      -1.001878       -27.2625
  25   2.0000      -0.977358       -26.5953
  26   2.0000      -0.908826       -24.7304
  27   2.0000      -0.906463       -24.6661
  28   2.0000      -0.869202       -23.6522
  29   2.0000      -0.850456       -23.1421
  30   2.0000      -0.839088       -22.8327
  31   2.0000      -0.808559       -22.0020
  32   2.0000      -0.780100       -21.2276
  33   2.0000      -0.769643       -20.9430
  34   2.0000      -0.714035       -19.4299
  35   2.0000      -0.702372       -19.1125
  36   2.0000      -0.694239       -18.8912
  37   2.0000      -0.656031       -17.8515
  38   2.0000      -0.636665       -17.3245
  39   2.0000      -0.618198       -16.8220
  40   2.0000      -0.594821       -16.1859
  41   2.0000      -0.566673       -15.4200
  42   2.0000      -0.552715       -15.0401
  43   2.0000      -0.551747       -15.0138
  44   2.0000      -0.542956       -14.7746
  45   2.0000      -0.530163       -14.4265
  46   2.0000      -0.527466       -14.3531
  47   2.0000      -0.507843       -13.8191
  48   2.0000      -0.503188       -13.6924
  49   2.0000      -0.493037       -13.4162
  50   2.0000      -0.485399       -13.2084
  51   2.0000      -0.477822       -13.0022
  52   2.0000      -0.465913       -12.6781
  53   2.0000      -0.457795       -12.4572
  54   2.0000      -0.456306       -12.4167
  55   2.0000      -0.447029       -12.1643
  56   2.0000      -0.441008       -12.0004
  57   2.0000      -0.438297       -11.9267
  58   2.0000      -0.430931       -11.7262
  59   2.0000      -0.428555       -11.6616
  60   2.0000      -0.420443       -11.4408
  61   2.0000      -0.407944       -11.1007
  62   2.0000      -0.404762       -11.0141
  63   2.0000      -0.333965        -9.0876
  64   2.0000      -0.330914        -9.0046
  65   2.0000      -0.325639        -8.8611
  66   2.0000      -0.295942        -8.0530
  67   0.0000       0.024537         0.6677
  68   0.0000       0.062160         1.6914
  69   0.0000       0.109487         2.9793
  70   0.0000       0.115106         3.1322
  71   0.0000       0.121109         3.2955

MULLIKEN ATOMIC CHARGES
-----------------------
   0 S :    0.125668
   1 C :   -0.112979
   2 C :   -0.103873
   3 C :    0.071670
   4 C :   -0.197713
   5 H :   -0.010034
   6 C :    0.035763
   7 H :    0.018803
   8 H :    0.063363
   9 C :   -0.060362
  10 H :    0.022214
  11 H :    0.023258
  12 C :   -0.121661
  13 H :    0.050334
  14 H :    0.062689
  15 H :    0.062770
  16 S :    0.104641
  17 C :   -0.096174
  18 C :   -0.030845
  19 C :   -0.017320
  20 C :   -0.160687
  21 H :    0.012843
  22 C :    0.067973
  23 H :    0.010663
  24 H :    0.034160
  25 C :   -0.061981
  26 H :    0.035920
  27 H :    0.019269
  28 C :   -0.046764
  29 H :    0.032334
  30 H :    0.030041
  31 H :    0.034542
  32 H :    0.046588
  33 H :    0.054884
Sum of atomic charges:    0.0000000

LOEWDIN ATOMIC CHARGES
----------------------
   0 S :    0.414645
   1 C :   -0.195026
   2 C :   -0.066410
   3 C :   -0.041272
   4 C :   -0.208562
   5 H :    0.018677
   6 C :   -0.038125
   7 H :    0.031034
   8 H :    0.044164
   9 C :   -0.050036
  10 H :    0.016197
  11 H :    0.029951
  12 C :   -0.084349
  13 H :    0.036466
  14 H :    0.037933
  15 H :    0.036380
  16 S :    0.400737
  17 C :   -0.174188
  18 C :   -0.073543
  19 C :   -0.045319
  20 C :   -0.208522
  21 H :    0.026312
  22 C :   -0.037482
  23 H :    0.025226
  24 H :    0.029959
  25 C :   -0.042098
  26 H :    0.034573
  27 H :    0.017835
  28 C :   -0.063090
  29 H :    0.030698
  30 H :    0.018656
  31 H :    0.028370
  32 H :    0.026539
  33 H :    0.023674

  Mayer bond orders larger than 0.100000
B(  0-S ,  1-C ) :   1.1664 B(  0-S ,  4-C ) :   1.1372 B(  1-C ,  2-C ) :   1.5886
B(  1-C ,  4-C ) :   0.1066 B(  1-C , 32-H ) :   0.9578 B(  2-C ,  3-C ) :   1.2639
B(  2-C ,  6-C ) :   1.0140 B(  3-C ,  4-C ) :   1.5492 B(  3-C ,  5-H ) :   0.9972
B(  4-C , 20-C ) :   1.0695 B(  6-C ,  7-H ) :   0.9436 B(  6-C ,  8-H ) :   0.9417
B(  6-C ,  9-C ) :   1.0756 B(  9-C , 10-H ) :   0.9642 B(  9-C , 11-H ) :   0.9548
B(  9-C , 12-C ) :   1.0260 B( 12-C , 13-H ) :   0.9783 B( 12-C , 14-H ) :   0.9785
B( 12-C , 15-H ) :   0.9792 B( 16-S , 17-C ) :   1.1756 B( 16-S , 20-C ) :   1.1272
B( 17-C , 18-C ) :   1.5892 B( 17-C , 20-C ) :   0.1074 B( 17-C , 33-H ) :   0.9693
B( 18-C , 19-C ) :   1.2289 B( 18-C , 21-H ) :   0.9983 B( 19-C , 20-C ) :   1.5692
B( 19-C , 22-C ) :   1.0224 B( 22-C , 23-H ) :   0.9260 B( 22-C , 24-H ) :   0.9372
B( 22-C , 25-C ) :   1.0745 B( 25-C , 26-H ) :   0.9534 B( 25-C , 27-H ) :   0.9522
B( 25-C , 28-C ) :   1.0898 B( 28-C , 29-H ) :   0.9732 B( 28-C , 30-H ) :   0.9765
B( 28-C , 31-H ) :   0.9725

Dispersion correction           -0.014179451
FINAL SINGLE POINT ENERGY     -1339.848890853290

DIPOLE MOMENT
-------------
                                X             Y             Z
Electronic contribution:     -8.64340      -0.63582      11.91716
Nuclear contribution   :      8.88699       0.75529     -12.22962
                        -----------------------------------------
Total Dipole Moment    :      0.24359       0.11946      -0.31246
                        -----------------------------------------
Magnitude (a.u.)       :      0.41381
Magnitude (Debye)      :      1.05183

Rotational constants in cm-1:     0.022126     0.007421     0.006481
Rotational constants in MHz :   663.332318   222.475750   194.285280

                             ****ORCA TERMINATED NORMALLY****
TOTAL RUN TIME: 0 days 0 hours 0 minutes 21 seconds 58 msec
