                         Program Version 4.2.1 -  RELEASE  -
|  1> ! wB97X-D3 SP def2-SVP
|  2> %pal
|  3> nprocs 24
|  4> end
|  5>
|  6> * xyz 0 1
|  7> S 	 -67.3478 	 8.90483 	 -100.317
|  8> C 	 -66.3428 	 10.3316 	 -100.432
|  9> C 	 -66.6137 	 11.0059 	 -101.651
| 10> C 	 -67.61 	 10.332 	 -102.408
| 11> C 	 -67.9551 	 9.08202 	 -101.935
| 12> H 	 -67.9948 	 10.6685 	 -103.374
| 13> C 	 -65.9686 	 12.2251 	 -102.225
| 14> H 	 -66.1597 	 12.9209 	 -101.418
| 15> H 	 -66.6953 	 12.6911 	 -102.872
| 16> C 	 -64.5287 	 12.1777 	 -102.812
| 17> H 	 -63.7871 	 12.0359 	 -101.993
| 18> H 	 -64.4795 	 11.3096 	 -103.48
| 19> C 	 -64.1608 	 13.5903 	 -103.471
| 20> H 	 -63.3737 	 13.4107 	 -104.133
| 21> H 	 -64.9471 	 13.9893 	 -104.116
| 22> H 	 -63.8065 	 14.2133 	 -102.649
| 23> S 	 -68.1526 	 6.86711 	 -103.504
| 24> C 	 -69.7073 	 6.25844 	 -104.044
| 25> C 	 -70.7196 	 6.81082 	 -103.255
| 26> C 	 -70.254 	 7.91561 	 -102.447
| 27> C 	 -68.8904 	 8.14857 	 -102.492
| 28> H 	 -71.7915 	 6.57676 	 -103.307
| 29> C 	 -71.3869 	 8.70565 	 -101.696
| 30> H 	 -72.2325 	 8.69019 	 -102.364
| 31> H 	 -71.1541 	 9.79176 	 -101.496
| 32> C 	 -71.9195 	 8.01437 	 -100.507
| 33> H 	 -71.236 	 7.87445 	 -99.7011
| 34> H 	 -72.2338 	 6.93985 	 -100.774
| 35> C 	 -73.2324 	 8.63329 	 -99.9917
| 36> H 	 -73.1598 	 9.70101 	 -99.9297
| 37> H 	 -73.4977 	 8.34403 	 -98.9697
| 38> H 	 -74.1417 	 8.45414 	 -100.592
| 39> H 	 -65.6439 	 10.775 	 -99.7371
| 40> H 	 -69.8301 	 5.41566 	 -104.741
| 41> *
| 42>
| 43>                          ****END OF INPUT****

CARTESIAN COORDINATES (ANGSTROEM)
---------------------------------
  S    -67.347800    8.904830  -100.317000
  C    -66.342800   10.331600  -100.432000
  C    -66.613700   11.005900  -101.651000
  C    -67.610000   10.332000  -102.408000
  C    -67.955100    9.082020  -101.935000
  H    -67.994800   10.668500  -103.374000
  C    -65.968600   12.225100  -102.225000
  H    -66.159700   12.920900  -101.418000
  H    -66.695300   12.691100  -102.872000
  C    -64.528700   12.177700  -102.812000
  H    -63.787100   12.035900  -101.993000
  H    -64.479500   11.309600  -103.480000
  C    -64.160800   13.590300  -103.471000
  H    -63.373700   13.410700  -104.133000
  H    -64.947100   13.989300  -104.116000
  H    -63.806500   14.213300  -102.649000
  S    -68.152600    6.867110  -103.504000
  C    -69.707300    6.258440  -104.044000
  C    -70.719600    6.810820  -103.255000
  C    -70.254000    7.915610  -102.447000
  C    -68.890400    8.148570  -102.492000
  H    -71.791500    6.576760  -103.307000
  C    -71.386900    8.705650  -101.696000
  H    -72.232500    8.690190  -102.364000
  H    -71.154100    9.791760  -101.496000
  C    -71.919500    8.014370  -100.507000
  H    -71.236000    7.874450  -99.701100
  H    -72.233800    6.939850  -100.774000
  C    -73.232400    8.633290  -99.991700
  H    -73.159800    9.701010  -99.929700
  H    -73.497700    8.344030  -98.969700
  H    -74.141700    8.454140  -100.592000
  H    -65.643900   10.775000  -99.737100
  H    -69.830100    5.415660  -104.741000

 Total Charge           Charge          ....    0
 Multiplicity           Mult            ....    1
 Number of Electrons    NEL             ....  134
 Basis Dimension        Dim             ....  322

ORBITAL ENERGIES
----------------

  NO   OCC          E(Eh)            E(eV)
   0   2.0000     -88.967743     -2420.9354
   1   2.0000     -88.960407     -2420.7357
   2   2.0000     -10.328171      -281.0438
   3   2.0000     -10.324765      -280.9511
   4   2.0000     -10.324368      -280.9403
   5   2.0000     -10.316686      -280.7313
   6   2.0000     -10.309664      -280.5402
   7   2.0000     -10.299160      -280.2544
   8   2.0000     -10.298842      -280.2457
   9   2.0000     -10.298738      -280.2429
  10   2.0000     -10.294388      -280.1245
  11   2.0000     -10.291260      -280.0394
  12   2.0000     -10.286504      -279.9100
  13   2.0000     -10.285591      -279.8852
  14   2.0000     -10.280756      -279.7536
  15   2.0000     -10.276123      -279.6275
  16   2.0000      -8.082185      -219.9274
  17   2.0000      -8.074848      -219.7278
  18   2.0000      -6.040686      -164.3754
  19   2.0000      -6.036610      -164.2645
  20   2.0000      -6.033459      -164.1788
  21   2.0000      -6.033085      -164.1686
  22   2.0000      -6.029340      -164.0667
  23   2.0000      -6.025558      -163.9638
  24   2.0000      -1.003755       -27.3136
  25   2.0000      -0.979754       -26.6604
  26   2.0000      -0.912264       -24.8240
  27   2.0000      -0.906639       -24.6709
  28   2.0000      -0.866767       -23.5859
  29   2.0000      -0.847841       -23.0709
  30   2.0000      -0.843189       -22.9443
  31   2.0000      -0.809824       -22.0364
  32   2.0000      -0.781467       -21.2648
  33   2.0000      -0.771526       -20.9943
  34   2.0000      -0.709865       -19.3164
  35   2.0000      -0.703456       -19.1420
  36   2.0000      -0.691281       -18.8107
  37   2.0000      -0.664014       -18.0687
  38   2.0000      -0.639021       -17.3886
  39   2.0000      -0.613197       -16.6859
  40   2.0000      -0.596127       -16.2214
  41   2.0000      -0.566130       -15.4052
  42   2.0000      -0.562784       -15.3141
  43   2.0000      -0.559763       -15.2319
  44   2.0000      -0.524386       -14.2693
  45   2.0000      -0.521353       -14.1867
  46   2.0000      -0.516820       -14.0634
  47   2.0000      -0.511744       -13.9253
  48   2.0000      -0.505074       -13.7438
  49   2.0000      -0.503186       -13.6924
  50   2.0000      -0.492721       -13.4076
  51   2.0000      -0.470774       -12.8104
  52   2.0000      -0.467721       -12.7273
  53   2.0000      -0.462950       -12.5975
  54   2.0000      -0.457874       -12.4594
  55   2.0000      -0.448594       -12.2069
  56   2.0000      -0.444603       -12.0983
  57   2.0000      -0.440050       -11.9744
  58   2.0000      -0.436837       -11.8869
  59   2.0000      -0.419841       -11.4245
  60   2.0000      -0.415863       -11.3162
  61   2.0000      -0.413009       -11.2385
  62   2.0000      -0.405517       -11.0347
  63   2.0000      -0.333858        -9.0847
  64   2.0000      -0.324355        -8.8262
  65   2.0000      -0.318932        -8.6786
  66   2.0000      -0.311048        -8.4641
  67   0.0000       0.042494         1.1563
  68   0.0000       0.047906         1.3036
  69   0.0000       0.110866         3.0168
  70   0.0000       0.117112         3.1868
  71   0.0000       0.127669         3.4741

MULLIKEN ATOMIC CHARGES
-----------------------
   0 S :    0.130475
   1 C :   -0.106002
   2 C :   -0.132310
   3 C :    0.053109
   4 C :   -0.168619
   5 H :    0.014456
   6 C :    0.073908
   7 H :    0.012252
   8 H :    0.000023
   9 C :   -0.060278
  10 H :    0.035976
  11 H :    0.042817
  12 C :   -0.038784
  13 H :    0.022005
  14 H :    0.038827
  15 H :    0.047035
  16 S :    0.090236
  17 C :   -0.092302
  18 C :   -0.044935
  19 C :   -0.004764
  20 C :   -0.194831
  21 H :    0.032617
  22 C :    0.076526
  23 H :    0.010688
  24 H :    0.044503
  25 C :   -0.084925
  26 H :    0.027551
  27 H :    0.031067
  28 C :   -0.050204
  29 H :    0.016073
  30 H :    0.029442
  31 H :    0.033067
  32 H :    0.042104
  33 H :    0.073196
Sum of atomic charges:   -0.0000000

LOEWDIN ATOMIC CHARGES
----------------------
   0 S :    0.425108
   1 C :   -0.204301
   2 C :   -0.066584
   3 C :   -0.054365
   4 C :   -0.216815
   5 H :    0.033134
   6 C :   -0.050215
   7 H :    0.033080
   8 H :    0.028636
   9 C :   -0.030237
  10 H :    0.028358
  11 H :    0.026167
  12 C :   -0.059112
  13 H :    0.019153
  14 H :    0.027214
  15 H :    0.031434
  16 S :    0.387840
  17 C :   -0.180338
  18 C :   -0.076644
  19 C :   -0.046600
  20 C :   -0.196417
  21 H :    0.033551
  22 C :   -0.031756
  23 H :    0.028361
  24 H :    0.036873
  25 C :   -0.045281
  26 H :    0.019476
  27 H :    0.031416
  28 C :   -0.069749
  29 H :    0.018300
  30 H :    0.028107
  31 H :    0.026128
  32 H :    0.030249
  33 H :    0.035829

  Mayer bond orders larger than 0.100000
B(  0-S ,  1-C ) :   1.1535 B(  0-S ,  4-C ) :   1.1551 B(  1-C ,  2-C ) :   1.5728
B(  1-C ,  4-C ) :   0.1098 B(  1-C , 32-H ) :   0.9721 B(  2-C ,  3-C ) :   1.2716
B(  2-C ,  6-C ) :   1.0200 B(  3-C ,  4-C ) :   1.5689 B(  3-C ,  5-H ) :   0.9912
B(  4-C , 20-C ) :   1.0235 B(  6-C ,  7-H ) :   0.9237 B(  6-C ,  8-H ) :   0.9356
B(  6-C ,  9-C ) :   1.0394 B(  9-C , 10-H ) :   0.9590 B(  9-C , 11-H ) :   0.9626
B(  9-C , 12-C ) :   1.0653 B( 12-C , 13-H ) :   0.9762 B( 12-C , 14-H ) :   0.9784
B( 12-C , 15-H ) :   0.9796 B( 16-S , 17-C ) :   1.1627 B( 16-S , 20-C ) :   1.1208
B( 17-C , 18-C ) :   1.5965 B( 17-C , 20-C ) :   0.1036 B( 17-C , 33-H ) :   0.9659
B( 18-C , 19-C ) :   1.2365 B( 18-C , 21-H ) :   0.9796 B( 19-C , 20-C ) :   1.6360
B( 19-C , 22-C ) :   1.0265 B( 22-C , 23-H ) :   0.9343 B( 22-C , 24-H ) :   0.9406
B( 22-C , 25-C ) :   1.0666 B( 25-C , 26-H ) :   0.9544 B( 25-C , 27-H ) :   0.9534
B( 25-C , 28-C ) :   1.0733 B( 28-C , 29-H ) :   0.9732 B( 28-C , 30-H ) :   0.9739
B( 28-C , 31-H ) :   0.9760

Dispersion correction           -0.013420969
FINAL SINGLE POINT ENERGY     -1339.859017696442

DIPOLE MOMENT
-------------
                                X             Y             Z
Electronic contribution:      5.56110     -17.53098      -1.13601
Nuclear contribution   :     -5.79525      18.00524       1.01995
                        -----------------------------------------
Total Dipole Moment    :     -0.23415       0.47427      -0.11605
                        -----------------------------------------
Magnitude (a.u.)       :      0.54150
Magnitude (Debye)      :      1.37639

Rotational constants in cm-1:     0.020924     0.006918     0.006033
Rotational constants in MHz :   627.272518   207.402978   180.873132

                             ****ORCA TERMINATED NORMALLY****
TOTAL RUN TIME: 0 days 0 hours 0 minutes 20 seconds 369 msec
