                         Program Version 4.2.1 -  RELEASE  -
|  1> ! wB97X-D3 SP def2-SVP
|  2> %pal
|  3> nprocs 24
|  4> end
|  5>
|  6> * xyz 0 1
|  7> S 	 -107.399 	 21.1453 	 -118.852
|  8> C 	 -106.988 	 20.2817 	 -117.508
|  9> C 	 -105.673 	 19.8257 	 -117.52
| 10> C 	 -105.02 	 20.2408 	 -118.707
| 11> C 	 -105.821 	 20.9943 	 -119.489
| 12> H 	 -103.988 	 20.0481 	 -119.017
| 13> C 	 -105.064 	 19.0143 	 -116.461
| 14> H 	 -104.707 	 18.1546 	 -116.949
| 15> H 	 -105.927 	 18.6459 	 -115.827
| 16> C 	 -104.109 	 19.6339 	 -115.448
| 17> H 	 -104.547 	 20.5791 	 -115.215
| 18> H 	 -103.98 	 19.1081 	 -114.62
| 19> C 	 -102.724 	 20.0278 	 -115.988
| 20> H 	 -102.665 	 20.8261 	 -116.71
| 21> H 	 -101.953 	 20.1819 	 -115.233
| 22> H 	 -102.365 	 19.1958 	 -116.56
| 23> S 	 -104.005 	 22.6837 	 -120.717
| 24> C 	 -104.005 	 22.8895 	 -122.437
| 25> C 	 -105.182 	 22.3708 	 -122.949
| 26> C 	 -105.997 	 21.6597 	 -122
| 27> C 	 -105.413 	 21.6438 	 -120.735
| 28> H 	 -105.365 	 22.5161 	 -124.01
| 29> C 	 -107.171 	 20.8109 	 -122.462
| 30> H 	 -107.989 	 21.4026 	 -122.115
| 31> H 	 -107.076 	 19.8908 	 -121.838
| 32> C 	 -107.344 	 20.4624 	 -123.994
| 33> H 	 -106.561 	 19.8003 	 -124.234
| 34> H 	 -107.37 	 21.3388 	 -124.618
| 35> C 	 -108.545 	 19.6638 	 -124.251
| 36> H 	 -108.637 	 18.9747 	 -123.364
| 37> H 	 -108.303 	 18.973 	 -125.08
| 38> H 	 -109.505 	 20.2465 	 -124.525
| 39> H 	 -107.66 	 19.9556 	 -116.755
| 40> H 	 -103.37 	 23.5522 	 -122.958
| 41> *
| 42>
| 43>                          ****END OF INPUT****

CARTESIAN COORDINATES (ANGSTROEM)
---------------------------------
  S    -107.399000   21.145300  -118.852000
  C    -106.988000   20.281700  -117.508000
  C    -105.673000   19.825700  -117.520000
  C    -105.020000   20.240800  -118.707000
  C    -105.821000   20.994300  -119.489000
  H    -103.988000   20.048100  -119.017000
  C    -105.064000   19.014300  -116.461000
  H    -104.707000   18.154600  -116.949000
  H    -105.927000   18.645900  -115.827000
  C    -104.109000   19.633900  -115.448000
  H    -104.547000   20.579100  -115.215000
  H    -103.980000   19.108100  -114.620000
  C    -102.724000   20.027800  -115.988000
  H    -102.665000   20.826100  -116.710000
  H    -101.953000   20.181900  -115.233000
  H    -102.365000   19.195800  -116.560000
  S    -104.005000   22.683700  -120.717000
  C    -104.005000   22.889500  -122.437000
  C    -105.182000   22.370800  -122.949000
  C    -105.997000   21.659700  -122.000000
  C    -105.413000   21.643800  -120.735000
  H    -105.365000   22.516100  -124.010000
  C    -107.171000   20.810900  -122.462000
  H    -107.989000   21.402600  -122.115000
  H    -107.076000   19.890800  -121.838000
  C    -107.344000   20.462400  -123.994000
  H    -106.561000   19.800300  -124.234000
  H    -107.370000   21.338800  -124.618000
  C    -108.545000   19.663800  -124.251000
  H    -108.637000   18.974700  -123.364000
  H    -108.303000   18.973000  -125.080000
  H    -109.505000   20.246500  -124.525000
  H    -107.660000   19.955600  -116.755000
  H    -103.370000   23.552200  -122.958000

 Total Charge           Charge          ....    0
 Multiplicity           Mult            ....    1
 Number of Electrons    NEL             ....  134
 Basis Dimension        Dim             ....  322

ORBITAL ENERGIES
----------------

  NO   OCC          E(Eh)            E(eV)
   0   2.0000     -88.967368     -2420.9251
   1   2.0000     -88.961239     -2420.7584
   2   2.0000     -10.323052      -280.9045
   3   2.0000     -10.319538      -280.8089
   4   2.0000     -10.310325      -280.5582
   5   2.0000     -10.303509      -280.3727
   6   2.0000     -10.301448      -280.3167
   7   2.0000     -10.294250      -280.1208
   8   2.0000     -10.291548      -280.0473
   9   2.0000     -10.290621      -280.0220
  10   2.0000     -10.288378      -279.9610
  11   2.0000     -10.285970      -279.8955
  12   2.0000     -10.283595      -279.8308
  13   2.0000     -10.281469      -279.7730
  14   2.0000     -10.273362      -279.5524
  15   2.0000     -10.268812      -279.4286
  16   2.0000      -8.084599      -219.9931
  17   2.0000      -8.076171      -219.7638
  18   2.0000      -6.042725      -164.4309
  19   2.0000      -6.038744      -164.3226
  20   2.0000      -6.035627      -164.2378
  21   2.0000      -6.034620      -164.2104
  22   2.0000      -6.030563      -164.1000
  23   2.0000      -6.027080      -164.0052
  24   2.0000      -1.020209       -27.7613
  25   2.0000      -0.989337       -26.9212
  26   2.0000      -0.918146       -24.9840
  27   2.0000      -0.912253       -24.8237
  28   2.0000      -0.873481       -23.7686
  29   2.0000      -0.859599       -23.3909
  30   2.0000      -0.852876       -23.2079
  31   2.0000      -0.817769       -22.2526
  32   2.0000      -0.782672       -21.2976
  33   2.0000      -0.767285       -20.8789
  34   2.0000      -0.714180       -19.4338
  35   2.0000      -0.699350       -19.0303
  36   2.0000      -0.695627       -18.9290
  37   2.0000      -0.658302       -17.9133
  38   2.0000      -0.642163       -17.4741
  39   2.0000      -0.615106       -16.7379
  40   2.0000      -0.593835       -16.1591
  41   2.0000      -0.580499       -15.7962
  42   2.0000      -0.576941       -15.6994
  43   2.0000      -0.558978       -15.2106
  44   2.0000      -0.537819       -14.6348
  45   2.0000      -0.529311       -14.4033
  46   2.0000      -0.521602       -14.1935
  47   2.0000      -0.512859       -13.9556
  48   2.0000      -0.512785       -13.9536
  49   2.0000      -0.495749       -13.4900
  50   2.0000      -0.487588       -13.2680
  51   2.0000      -0.482250       -13.1227
  52   2.0000      -0.476577       -12.9683
  53   2.0000      -0.464333       -12.6351
  54   2.0000      -0.461185       -12.5495
  55   2.0000      -0.449515       -12.2319
  56   2.0000      -0.444202       -12.0874
  57   2.0000      -0.437861       -11.9148
  58   2.0000      -0.432702       -11.7744
  59   2.0000      -0.424995       -11.5647
  60   2.0000      -0.415019       -11.2932
  61   2.0000      -0.413407       -11.2494
  62   2.0000      -0.410789       -11.1781
  63   2.0000      -0.349513        -9.5107
  64   2.0000      -0.331597        -9.0232
  65   2.0000      -0.324124        -8.8199
  66   2.0000      -0.292940        -7.9713
  67   0.0000       0.035937         0.9779
  68   0.0000       0.079251         2.1565
  69   0.0000       0.116757         3.1771
  70   0.0000       0.123847         3.3700
  71   0.0000       0.141271         3.8442

MULLIKEN ATOMIC CHARGES
-----------------------
   0 S :    0.150395
   1 C :   -0.100300
   2 C :   -0.107079
   3 C :    0.012180
   4 C :   -0.165378
   5 H :    0.018020
   6 C :    0.057100
   7 H :    0.019574
   8 H :    0.014698
   9 C :    0.039512
  10 H :    0.016085
  11 H :    0.000245
  12 C :   -0.063699
  13 H :    0.032282
  14 H :    0.031465
  15 H :    0.003767
  16 S :    0.107185
  17 C :   -0.073627
  18 C :   -0.066041
  19 C :   -0.025023
  20 C :   -0.172836
  21 H :    0.019259
  22 C :    0.037757
  23 H :    0.031305
  24 H :    0.045486
  25 C :   -0.035129
  26 H :    0.023222
  27 H :    0.032559
  28 C :   -0.076491
  29 H :    0.031820
  30 H :    0.031295
  31 H :    0.055275
  32 H :    0.030941
  33 H :    0.044177
Sum of atomic charges:   -0.0000000

LOEWDIN ATOMIC CHARGES
----------------------
   0 S :    0.472744
   1 C :   -0.224045
   2 C :   -0.066101
   3 C :   -0.061845
   4 C :   -0.214986
   5 H :    0.035667
   6 C :   -0.031985
   7 H :    0.023760
   8 H :    0.038640
   9 C :   -0.020473
  10 H :    0.027276
  11 H :    0.007460
  12 C :   -0.068167
  13 H :    0.022780
  14 H :    0.027479
  15 H :    0.016894
  16 S :    0.413480
  17 C :   -0.189694
  18 C :   -0.074922
  19 C :   -0.061116
  20 C :   -0.203603
  21 H :    0.029544
  22 C :   -0.036728
  23 H :    0.028875
  24 H :    0.037254
  25 C :   -0.040750
  26 H :    0.024550
  27 H :    0.023006
  28 C :   -0.074028
  29 H :    0.031991
  30 H :    0.028953
  31 H :    0.034458
  32 H :    0.021616
  33 H :    0.022014

  Mayer bond orders larger than 0.100000
B(  0-S ,  1-C ) :   1.1774 B(  0-S ,  4-C ) :   1.1700 B(  1-C ,  2-C ) :   1.5767
B(  1-C , 32-H ) :   0.9660 B(  2-C ,  3-C ) :   1.2550 B(  2-C ,  6-C ) :   1.0386
B(  3-C ,  4-C ) :   1.5554 B(  3-C ,  5-H ) :   1.0000 B(  4-C , 20-C ) :   1.0201
B(  6-C ,  7-H ) :   0.9351 B(  6-C ,  8-H ) :   0.9292 B(  6-C ,  9-C ) :   1.0752
B(  9-C , 10-H ) :   0.9478 B(  9-C , 11-H ) :   0.9543 B(  9-C , 12-C ) :   1.0771
B( 12-C , 13-H ) :   0.9757 B( 12-C , 14-H ) :   0.9734 B( 12-C , 15-H ) :   0.9736
B( 16-S , 17-C ) :   1.1582 B( 16-S , 20-C ) :   1.1535 B( 17-C , 18-C ) :   1.5961
B( 17-C , 20-C ) :   0.1017 B( 17-C , 33-H ) :   0.9705 B( 18-C , 19-C ) :   1.2540
B( 18-C , 21-H ) :   0.9869 B( 19-C , 20-C ) :   1.5725 B( 19-C , 22-C ) :   1.0197
B( 22-C , 23-H ) :   0.9222 B( 22-C , 24-H ) :   0.9356 B( 22-C , 25-C ) :   1.0899
B( 25-C , 26-H ) :   0.9522 B( 25-C , 27-H ) :   0.9449 B( 25-C , 28-C ) :   1.0955
B( 28-C , 29-H ) :   0.9678 B( 28-C , 30-H ) :   0.9736 B( 28-C , 31-H ) :   0.9728

Dispersion correction           -0.014019118
FINAL SINGLE POINT ENERGY     -1339.861044207345

DIPOLE MOMENT
-------------
                                X             Y             Z
Electronic contribution:     -0.02051      12.75341       0.53671
Nuclear contribution   :     -0.04171     -13.09383      -0.65847
                        -----------------------------------------
Total Dipole Moment    :     -0.06221      -0.34042      -0.12176
                        -----------------------------------------
Magnitude (a.u.)       :      0.36685
Magnitude (Debye)      :      0.93246

Rotational constants in cm-1:     0.021504     0.007862     0.006363
Rotational constants in MHz :   644.683606   235.710395   190.764946

                             ****ORCA TERMINATED NORMALLY****
TOTAL RUN TIME: 0 days 0 hours 0 minutes 21 seconds 269 msec
