                         Program Version 4.2.1 -  RELEASE  -
|  1> ! wB97X-D3 SP def2-SVP
|  2> %pal
|  3> nprocs 24
|  4> end
|  5>
|  6> * xyz 0 1
|  7> S 	 -55.2123 	 -53.466 	 -77.3695
|  8> C 	 -55.5484 	 -51.8448 	 -76.6959
|  9> C 	 -55.355 	 -50.8183 	 -77.6125
| 10> C 	 -55.0824 	 -51.2972 	 -78.9122
| 11> C 	 -55.021 	 -52.6781 	 -78.9644
| 12> H 	 -54.9479 	 -50.6678 	 -79.8271
| 13> C 	 -55.5606 	 -49.3452 	 -77.302
| 14> H 	 -55.9081 	 -49.2418 	 -76.2963
| 15> H 	 -56.3125 	 -48.9848 	 -77.9428
| 16> C 	 -54.3693 	 -48.3359 	 -77.5049
| 17> H 	 -53.5545 	 -48.5141 	 -76.7412
| 18> H 	 -53.973 	 -48.4073 	 -78.5041
| 19> C 	 -54.7264 	 -46.8763 	 -77.2962
| 20> H 	 -55.4509 	 -46.554 	 -78.0427
| 21> H 	 -55.0476 	 -46.4985 	 -76.3531
| 22> H 	 -53.9303 	 -46.2459 	 -77.6258
| 23> S 	 -53.2208 	 -54.3695 	 -80.1228
| 24> C 	 -53.2458 	 -54.5302 	 -81.8813
| 25> C 	 -54.3841 	 -53.8977 	 -82.4439
| 26> C 	 -55.1889 	 -53.2085 	 -81.4426
| 27> C 	 -54.6706 	 -53.3855 	 -80.1673
| 28> H 	 -54.3904 	 -53.7048 	 -83.5194
| 29> C 	 -56.3502 	 -52.2991 	 -81.7915
| 30> H 	 -56.1093 	 -51.7766 	 -82.6944
| 31> H 	 -56.6044 	 -51.5542 	 -81.0555
| 32> C 	 -57.6958 	 -53.0217 	 -81.9998
| 33> H 	 -58.3892 	 -52.2543 	 -82.1933
| 34> H 	 -57.8294 	 -53.5523 	 -81.0637
| 35> C 	 -57.6738 	 -54.0566 	 -83.1716
| 36> H 	 -57.1152 	 -54.9274 	 -82.8312
| 37> H 	 -57.2202 	 -53.86 	 -84.1268
| 38> H 	 -58.654 	 -54.5444 	 -83.3478
| 39> H 	 -55.7314 	 -51.7349 	 -75.6316
| 40> H 	 -52.4808 	 -54.8827 	 -82.5367
| 41> *
| 42>
| 43>                          ****END OF INPUT****

CARTESIAN COORDINATES (ANGSTROEM)
---------------------------------
  S    -55.212300  -53.466000  -77.369500
  C    -55.548400  -51.844800  -76.695900
  C    -55.355000  -50.818300  -77.612500
  C    -55.082400  -51.297200  -78.912200
  C    -55.021000  -52.678100  -78.964400
  H    -54.947900  -50.667800  -79.827100
  C    -55.560600  -49.345200  -77.302000
  H    -55.908100  -49.241800  -76.296300
  H    -56.312500  -48.984800  -77.942800
  C    -54.369300  -48.335900  -77.504900
  H    -53.554500  -48.514100  -76.741200
  H    -53.973000  -48.407300  -78.504100
  C    -54.726400  -46.876300  -77.296200
  H    -55.450900  -46.554000  -78.042700
  H    -55.047600  -46.498500  -76.353100
  H    -53.930300  -46.245900  -77.625800
  S    -53.220800  -54.369500  -80.122800
  C    -53.245800  -54.530200  -81.881300
  C    -54.384100  -53.897700  -82.443900
  C    -55.188900  -53.208500  -81.442600
  C    -54.670600  -53.385500  -80.167300
  H    -54.390400  -53.704800  -83.519400
  C    -56.350200  -52.299100  -81.791500
  H    -56.109300  -51.776600  -82.694400
  H    -56.604400  -51.554200  -81.055500
  C    -57.695800  -53.021700  -81.999800
  H    -58.389200  -52.254300  -82.193300
  H    -57.829400  -53.552300  -81.063700
  C    -57.673800  -54.056600  -83.171600
  H    -57.115200  -54.927400  -82.831200
  H    -57.220200  -53.860000  -84.126800
  H    -58.654000  -54.544400  -83.347800
  H    -55.731400  -51.734900  -75.631600
  H    -52.480800  -54.882700  -82.536700

 Total Charge           Charge          ....    0
 Multiplicity           Mult            ....    1
 Number of Electrons    NEL             ....  134
 Basis Dimension        Dim             ....  322

ORBITAL ENERGIES
----------------

  NO   OCC          E(Eh)            E(eV)
   0   2.0000     -88.969965     -2420.9958
   1   2.0000     -88.968811     -2420.9644
   2   2.0000     -10.330358      -281.1033
   3   2.0000     -10.324058      -280.9319
   4   2.0000     -10.320782      -280.8428
   5   2.0000     -10.317374      -280.7500
   6   2.0000     -10.305960      -280.4394
   7   2.0000     -10.303355      -280.3685
   8   2.0000     -10.301182      -280.3094
   9   2.0000     -10.296895      -280.1928
  10   2.0000     -10.293382      -280.0972
  11   2.0000     -10.289721      -279.9975
  12   2.0000     -10.286118      -279.8995
  13   2.0000     -10.283157      -279.8189
  14   2.0000     -10.273193      -279.5478
  15   2.0000     -10.272744      -279.5356
  16   2.0000      -8.083487      -219.9629
  17   2.0000      -8.083030      -219.9504
  18   2.0000      -6.042017      -164.4117
  19   2.0000      -6.041605      -164.4004
  20   2.0000      -6.038385      -164.3128
  21   2.0000      -6.037614      -164.2918
  22   2.0000      -6.034100      -164.1962
  23   2.0000      -6.033741      -164.1864
  24   2.0000      -1.002766       -27.2866
  25   2.0000      -0.976428       -26.5700
  26   2.0000      -0.908778       -24.7291
  27   2.0000      -0.907552       -24.6957
  28   2.0000      -0.869199       -23.6521
  29   2.0000      -0.853192       -23.2165
  30   2.0000      -0.840988       -22.8845
  31   2.0000      -0.812015       -22.0960
  32   2.0000      -0.786727       -21.4079
  33   2.0000      -0.773315       -21.0430
  34   2.0000      -0.710604       -19.3365
  35   2.0000      -0.699723       -19.0404
  36   2.0000      -0.690734       -18.7958
  37   2.0000      -0.661888       -18.0109
  38   2.0000      -0.639217       -17.3940
  39   2.0000      -0.621393       -16.9090
  40   2.0000      -0.594383       -16.1740
  41   2.0000      -0.571098       -15.5404
  42   2.0000      -0.560455       -15.2508
  43   2.0000      -0.553759       -15.0686
  44   2.0000      -0.538605       -14.6562
  45   2.0000      -0.517432       -14.0800
  46   2.0000      -0.515789       -14.0353
  47   2.0000      -0.508547       -13.8383
  48   2.0000      -0.505435       -13.7536
  49   2.0000      -0.499097       -13.5811
  50   2.0000      -0.484838       -13.1931
  51   2.0000      -0.477008       -12.9800
  52   2.0000      -0.473502       -12.8846
  53   2.0000      -0.469998       -12.7893
  54   2.0000      -0.456146       -12.4124
  55   2.0000      -0.455280       -12.3888
  56   2.0000      -0.439791       -11.9673
  57   2.0000      -0.435278       -11.8445
  58   2.0000      -0.430021       -11.7015
  59   2.0000      -0.426454       -11.6044
  60   2.0000      -0.421777       -11.4771
  61   2.0000      -0.420181       -11.4337
  62   2.0000      -0.416491       -11.3333
  63   2.0000      -0.345586        -9.4039
  64   2.0000      -0.332921        -9.0592
  65   2.0000      -0.330211        -8.9855
  66   2.0000      -0.287702        -7.8288
  67   0.0000       0.029660         0.8071
  68   0.0000       0.060393         1.6434
  69   0.0000       0.101328         2.7573
  70   0.0000       0.113551         3.0899
  71   0.0000       0.131210         3.5704

MULLIKEN ATOMIC CHARGES
-----------------------
   0 S :    0.103289
   1 C :   -0.136944
   2 C :   -0.048034
   3 C :    0.002088
   4 C :   -0.157330
   5 H :    0.043628
   6 C :    0.104578
   7 H :    0.007396
   8 H :    0.014684
   9 C :   -0.087546
  10 H :    0.041910
  11 H :    0.027399
  12 C :   -0.036838
  13 H :    0.010065
  14 H :    0.032118
  15 H :    0.020152
  16 S :    0.116426
  17 C :   -0.094215
  18 C :   -0.043374
  19 C :   -0.055406
  20 C :   -0.147334
  21 H :    0.033552
  22 C :    0.065116
  23 H :    0.014801
  24 H :    0.021556
  25 C :   -0.029372
  26 H :    0.027061
  27 H :    0.036974
  28 C :   -0.075238
  29 H :    0.028673
  30 H :    0.025821
  31 H :    0.031623
  32 H :    0.049716
  33 H :    0.053002
Sum of atomic charges:    0.0000000

LOEWDIN ATOMIC CHARGES
----------------------
   0 S :    0.372221
   1 C :   -0.184842
   2 C :   -0.059733
   3 C :   -0.061442
   4 C :   -0.180406
   5 H :    0.042685
   6 C :   -0.024387
   7 H :    0.026518
   8 H :    0.025200
   9 C :   -0.036592
  10 H :    0.031267
  11 H :    0.022361
  12 C :   -0.070214
  13 H :    0.023032
  14 H :    0.020299
  15 H :    0.027853
  16 S :    0.402642
  17 C :   -0.183748
  18 C :   -0.068262
  19 C :   -0.053519
  20 C :   -0.200128
  21 H :    0.033461
  22 C :   -0.030599
  23 H :    0.024129
  24 H :    0.028524
  25 C :   -0.021865
  26 H :    0.016952
  27 H :    0.030867
  28 C :   -0.081663
  29 H :    0.028378
  30 H :    0.019129
  31 H :    0.029446
  32 H :    0.025284
  33 H :    0.027151

  Mayer bond orders larger than 0.100000
B(  0-S ,  1-C ) :   1.1192 B(  0-S ,  4-C ) :   1.1379 B(  1-C ,  2-C ) :   1.6220
B(  1-C , 32-H ) :   0.9669 B(  2-C ,  3-C ) :   1.2306 B(  2-C ,  6-C ) :   1.0323
B(  3-C ,  4-C ) :   1.5839 B(  3-C ,  5-H ) :   0.9807 B(  4-C , 20-C ) :   1.0488
B(  6-C ,  7-H ) :   0.9391 B(  6-C ,  8-H ) :   0.9372 B(  6-C ,  9-C ) :   1.0602
B(  9-C , 10-H ) :   0.9578 B(  9-C , 11-H ) :   0.9535 B(  9-C , 12-C ) :   1.0929
B( 12-C , 13-H ) :   0.9666 B( 12-C , 14-H ) :   0.9779 B( 12-C , 15-H ) :   0.9681
B( 16-S , 17-C ) :   1.1467 B( 16-S , 20-C ) :   1.1337 B( 17-C , 18-C ) :   1.6341
B( 17-C , 33-H ) :   0.9676 B( 18-C , 19-C ) :   1.2236 B( 18-C , 21-H ) :   0.9761
B( 19-C , 20-C ) :   1.6141 B( 19-C , 22-C ) :   1.0460 B( 22-C , 23-H ) :   0.9316
B( 22-C , 24-H ) :   0.9338 B( 22-C , 25-C ) :   1.0741 B( 25-C , 26-H ) :   0.9601
B( 25-C , 27-H ) :   0.9548 B( 25-C , 28-C ) :   1.0759 B( 28-C , 29-H ) :   0.9681
B( 28-C , 30-H ) :   0.9789 B( 28-C , 31-H ) :   0.9737

Dispersion correction           -0.014151606
FINAL SINGLE POINT ENERGY     -1339.869985936642

DIPOLE MOMENT
-------------
                                X             Y             Z
Electronic contribution:     11.29416     -21.42587       7.73704
Nuclear contribution   :    -11.36912      22.18352      -8.03731
                        -----------------------------------------
Total Dipole Moment    :     -0.07496       0.75765      -0.30027
                        -----------------------------------------
Magnitude (a.u.)       :      0.81842
Magnitude (Debye)      :      2.08026

Rotational constants in cm-1:     0.018765     0.007758     0.006865
Rotational constants in MHz :   562.549063   232.566766   205.807584

                             ****ORCA TERMINATED NORMALLY****
TOTAL RUN TIME: 0 days 0 hours 0 minutes 20 seconds 178 msec
