                         Program Version 4.2.1 -  RELEASE  -
|  1> ! wB97X-D3 SP def2-SVP
|  2> %pal
|  3> nprocs 24
|  4> end
|  5>
|  6> * xyz 0 1
|  7> S 	 -105.789 	 24.5685 	 -117.593
|  8> C 	 -106.637 	 23.0356 	 -117.161
|  9> C 	 -105.761 	 21.9777 	 -117.25
| 10> C 	 -104.447 	 22.4454 	 -117.509
| 11> C 	 -104.238 	 23.8098 	 -117.602
| 12> H 	 -103.613 	 21.7806 	 -117.627
| 13> C 	 -106.114 	 20.5422 	 -117.197
| 14> H 	 -106.202 	 20.1247 	 -118.172
| 15> H 	 -107.034 	 20.3228 	 -116.569
| 16> C 	 -105.104 	 19.7033 	 -116.433
| 17> H 	 -104.133 	 19.8732 	 -116.798
| 18> H 	 -104.913 	 20.0569 	 -115.435
| 19> C 	 -105.375 	 18.1943 	 -116.508
| 20> H 	 -104.496 	 17.7196 	 -116.074
| 21> H 	 -106.344 	 17.929 	 -116.031
| 22> H 	 -105.378 	 17.7891 	 -117.511
| 23> S 	 -102.939 	 25.5941 	 -119.204
| 24> C 	 -101.29 	 25.9943 	 -118.828
| 25> C 	 -100.756 	 25.3673 	 -117.773
| 26> C 	 -101.702 	 24.535 	 -117.06
| 27> C 	 -102.986 	 24.5539 	 -117.758
| 28> H 	 -99.7572 	 25.5644 	 -117.439
| 29> C 	 -101.182 	 23.717 	 -115.89
| 30> H 	 -101.88 	 22.8736 	 -115.846
| 31> H 	 -101.27 	 24.4357 	 -115.045
| 32> C 	 -99.7705 	 23.1181 	 -116.005
| 33> H 	 -98.9011 	 23.8764 	 -115.93
| 34> H 	 -99.5733 	 22.6176 	 -116.911
| 35> C 	 -99.591 	 21.9571 	 -114.93
| 36> H 	 -98.6184 	 21.5621 	 -114.979
| 37> H 	 -100.364 	 21.1683 	 -115.116
| 38> H 	 -99.7243 	 22.388 	 -113.949
| 39> H 	 -107.705 	 22.9148 	 -117.024
| 40> H 	 -100.789 	 26.6888 	 -119.544
| 41> *
| 42>
| 43>                          ****END OF INPUT****

CARTESIAN COORDINATES (ANGSTROEM)
---------------------------------
  S    -105.789000   24.568500  -117.593000
  C    -106.637000   23.035600  -117.161000
  C    -105.761000   21.977700  -117.250000
  C    -104.447000   22.445400  -117.509000
  C    -104.238000   23.809800  -117.602000
  H    -103.613000   21.780600  -117.627000
  C    -106.114000   20.542200  -117.197000
  H    -106.202000   20.124700  -118.172000
  H    -107.034000   20.322800  -116.569000
  C    -105.104000   19.703300  -116.433000
  H    -104.133000   19.873200  -116.798000
  H    -104.913000   20.056900  -115.435000
  C    -105.375000   18.194300  -116.508000
  H    -104.496000   17.719600  -116.074000
  H    -106.344000   17.929000  -116.031000
  H    -105.378000   17.789100  -117.511000
  S    -102.939000   25.594100  -119.204000
  C    -101.290000   25.994300  -118.828000
  C    -100.756000   25.367300  -117.773000
  C    -101.702000   24.535000  -117.060000
  C    -102.986000   24.553900  -117.758000
  H    -99.757200   25.564400  -117.439000
  C    -101.182000   23.717000  -115.890000
  H    -101.880000   22.873600  -115.846000
  H    -101.270000   24.435700  -115.045000
  C    -99.770500   23.118100  -116.005000
  H    -98.901100   23.876400  -115.930000
  H    -99.573300   22.617600  -116.911000
  C    -99.591000   21.957100  -114.930000
  H    -98.618400   21.562100  -114.979000
  H    -100.364000   21.168300  -115.116000
  H    -99.724300   22.388000  -113.949000
  H    -107.705000   22.914800  -117.024000
  H    -100.789000   26.688800  -119.544000

 Total Charge           Charge          ....    0
 Multiplicity           Mult            ....    1
 Number of Electrons    NEL             ....  134
 Basis Dimension        Dim             ....  322

ORBITAL ENERGIES
----------------

  NO   OCC          E(Eh)            E(eV)
   0   2.0000     -88.965063     -2420.8624
   1   2.0000     -88.962035     -2420.7800
   2   2.0000     -10.336693      -281.2757
   3   2.0000     -10.328233      -281.0455
   4   2.0000     -10.316359      -280.7224
   5   2.0000     -10.315823      -280.7078
   6   2.0000     -10.315158      -280.6897
   7   2.0000     -10.301276      -280.3120
   8   2.0000     -10.297863      -280.2191
   9   2.0000     -10.297495      -280.2091
  10   2.0000     -10.291441      -280.0443
  11   2.0000     -10.289914      -280.0028
  12   2.0000     -10.287977      -279.9501
  13   2.0000     -10.282655      -279.8053
  14   2.0000     -10.280987      -279.7599
  15   2.0000     -10.277918      -279.6764
  16   2.0000      -8.079931      -219.8661
  17   2.0000      -8.076549      -219.7741
  18   2.0000      -6.038319      -164.3110
  19   2.0000      -6.035195      -164.2260
  20   2.0000      -6.034529      -164.2079
  21   2.0000      -6.031080      -164.1140
  22   2.0000      -6.030700      -164.1037
  23   2.0000      -6.027164      -164.0075
  24   2.0000      -1.002252       -27.2727
  25   2.0000      -0.981385       -26.7048
  26   2.0000      -0.919530       -25.0217
  27   2.0000      -0.908479       -24.7210
  28   2.0000      -0.870435       -23.6857
  29   2.0000      -0.849157       -23.1067
  30   2.0000      -0.841532       -22.8993
  31   2.0000      -0.813007       -22.1230
  32   2.0000      -0.784294       -21.3417
  33   2.0000      -0.770850       -20.9759
  34   2.0000      -0.713914       -19.4266
  35   2.0000      -0.703532       -19.1441
  36   2.0000      -0.690925       -18.8010
  37   2.0000      -0.653107       -17.7719
  38   2.0000      -0.640932       -17.4406
  39   2.0000      -0.621867       -16.9219
  40   2.0000      -0.599761       -16.3203
  41   2.0000      -0.571046       -15.5389
  42   2.0000      -0.570719       -15.5301
  43   2.0000      -0.566464       -15.4143
  44   2.0000      -0.531919       -14.4743
  45   2.0000      -0.524919       -14.2838
  46   2.0000      -0.515833       -14.0365
  47   2.0000      -0.506987       -13.7958
  48   2.0000      -0.501764       -13.6537
  49   2.0000      -0.496884       -13.5209
  50   2.0000      -0.492115       -13.3911
  51   2.0000      -0.483883       -13.1671
  52   2.0000      -0.467122       -12.7110
  53   2.0000      -0.464537       -12.6407
  54   2.0000      -0.461699       -12.5635
  55   2.0000      -0.452795       -12.3212
  56   2.0000      -0.449968       -12.2443
  57   2.0000      -0.442714       -12.0468
  58   2.0000      -0.433458       -11.7950
  59   2.0000      -0.426279       -11.5996
  60   2.0000      -0.417182       -11.3521
  61   2.0000      -0.414961       -11.2917
  62   2.0000      -0.410810       -11.1787
  63   2.0000      -0.345258        -9.3949
  64   2.0000      -0.329901        -8.9771
  65   2.0000      -0.326934        -8.8963
  66   2.0000      -0.290404        -7.9023
  67   0.0000       0.029704         0.8083
  68   0.0000       0.067242         1.8298
  69   0.0000       0.105031         2.8580
  70   0.0000       0.123310         3.3554
  71   0.0000       0.127669         3.4740

MULLIKEN ATOMIC CHARGES
-----------------------
   0 S :    0.095254
   1 C :   -0.127693
   2 C :   -0.056072
   3 C :    0.021192
   4 C :   -0.141719
   5 H :   -0.001492
   6 C :    0.087108
   7 H :    0.035494
   8 H :    0.033382
   9 C :   -0.104116
  10 H :   -0.000687
  11 H :    0.019729
  12 C :   -0.031570
  13 H :    0.031799
  14 H :    0.040272
  15 H :    0.024729
  16 S :    0.098123
  17 C :   -0.089270
  18 C :   -0.021880
  19 C :   -0.047727
  20 C :   -0.174544
  21 H :    0.012965
  22 C :    0.088909
  23 H :    0.022546
  24 H :    0.057883
  25 C :   -0.116800
  26 H :    0.042707
  27 H :    0.027101
  28 C :   -0.040282
  29 H :    0.028235
  30 H :    0.042171
  31 H :    0.030174
  32 H :    0.044954
  33 H :    0.069129
Sum of atomic charges:    0.0000000

LOEWDIN ATOMIC CHARGES
----------------------
   0 S :    0.391238
   1 C :   -0.177845
   2 C :   -0.066568
   3 C :   -0.069901
   4 C :   -0.205638
   5 H :    0.022160
   6 C :   -0.030250
   7 H :    0.031768
   8 H :    0.040412
   9 C :   -0.045511
  10 H :    0.010696
  11 H :    0.023960
  12 C :   -0.063092
  13 H :    0.030217
  14 H :    0.027719
  15 H :    0.023328
  16 S :    0.396811
  17 C :   -0.182370
  18 C :   -0.075997
  19 C :   -0.041387
  20 C :   -0.197788
  21 H :    0.030825
  22 C :   -0.034569
  23 H :    0.033473
  24 H :    0.046220
  25 C :   -0.042990
  26 H :    0.029454
  27 H :    0.018127
  28 C :   -0.055665
  29 H :    0.018624
  30 H :    0.030248
  31 H :    0.022354
  32 H :    0.028834
  33 H :    0.033101

  Mayer bond orders larger than 0.100000
B(  0-S ,  1-C ) :   1.1282 B(  0-S ,  4-C ) :   1.1528 B(  1-C ,  2-C ) :   1.6052
B(  1-C ,  4-C ) :   0.1011 B(  1-C , 32-H ) :   0.9720 B(  2-C ,  3-C ) :   1.2457
B(  2-C ,  6-C ) :   1.0327 B(  3-C ,  4-C ) :   1.5695 B(  3-C ,  5-H ) :   0.9950
B(  4-C , 20-C ) :   1.0309 B(  6-C ,  7-H ) :   0.9325 B(  6-C ,  8-H ) :   0.9458
B(  6-C ,  9-C ) :   1.0586 B(  9-C , 10-H ) :   0.9456 B(  9-C , 11-H ) :   0.9537
B(  9-C , 12-C ) :   1.0897 B( 12-C , 13-H ) :   0.9712 B( 12-C , 14-H ) :   0.9750
B( 12-C , 15-H ) :   0.9725 B( 16-S , 17-C ) :   1.1513 B( 16-S , 20-C ) :   1.1503
B( 17-C , 18-C ) :   1.6262 B( 17-C , 33-H ) :   0.9591 B( 18-C , 19-C ) :   1.2273
B( 18-C , 21-H ) :   0.9919 B( 19-C , 20-C ) :   1.5797 B( 19-C , 22-C ) :   1.0315
B( 22-C , 23-H ) :   0.9412 B( 22-C , 24-H ) :   0.9203 B( 22-C , 25-C ) :   1.0696
B( 25-C , 26-H ) :   0.9468 B( 25-C , 27-H ) :   0.9614 B( 25-C , 28-C ) :   1.0783
B( 28-C , 29-H ) :   0.9756 B( 28-C , 30-H ) :   0.9767 B( 28-C , 31-H ) :   0.9783

Dispersion correction           -0.013285551
FINAL SINGLE POINT ENERGY     -1339.863679460415

DIPOLE MOMENT
-------------
                                X             Y             Z
Electronic contribution:    -10.68064      27.19398     -14.55038
Nuclear contribution   :     11.21726     -27.79212      14.73419
                        -----------------------------------------
Total Dipole Moment    :      0.53662      -0.59813       0.18381
                        -----------------------------------------
Magnitude (a.u.)       :      0.82432
Magnitude (Debye)      :      2.09526

Rotational constants in cm-1:     0.015319     0.009281     0.006249
Rotational constants in MHz :   459.247014   278.250096   187.341574

                             ****ORCA TERMINATED NORMALLY****
TOTAL RUN TIME: 0 days 0 hours 0 minutes 21 seconds 150 msec
