                         Program Version 4.2.1 -  RELEASE  -
|  1> ! wB97X-D3 SP def2-SVP
|  2> %pal
|  3> nprocs 24
|  4> end
|  5>
|  6> * xyz 0 1
|  7> S 	 -4.87975 	 -19.1915 	 -106.106
|  8> C 	 -5.4153 	 -20.3009 	 -104.819
|  9> C 	 -4.94418 	 -19.8094 	 -103.594
| 10> C 	 -4.11597 	 -18.6509 	 -103.66
| 11> C 	 -3.85374 	 -18.3359 	 -104.994
| 12> H 	 -3.78749 	 -18.0002 	 -102.917
| 13> C 	 -5.31364 	 -20.2626 	 -102.201
| 14> H 	 -4.56485 	 -19.8813 	 -101.519
| 15> H 	 -5.16342 	 -21.3674 	 -102.109
| 16> C 	 -6.81309 	 -20.0479 	 -101.764
| 17> H 	 -6.94328 	 -18.9552 	 -101.704
| 18> H 	 -7.49179 	 -20.4557 	 -102.504
| 19> C 	 -7.13406 	 -20.5619 	 -100.37
| 20> H 	 -6.51705 	 -20.1777 	 -99.5317
| 21> H 	 -8.15553 	 -20.4053 	 -99.9834
| 22> H 	 -6.93439 	 -21.6502 	 -100.433
| 23> S 	 -1.36287 	 -17.1564 	 -105.308
| 24> C 	 -1.35924 	 -15.3986 	 -105.436
| 25> C 	 -2.61823 	 -14.9038 	 -105.594
| 26> C 	 -3.64253 	 -15.8989 	 -105.607
| 27> C 	 -3.10596 	 -17.1364 	 -105.398
| 28> H 	 -2.72849 	 -13.8938 	 -105.718
| 29> C 	 -5.07748 	 -15.5693 	 -105.778
| 30> H 	 -5.46748 	 -16.2833 	 -106.451
| 31> H 	 -5.16621 	 -14.6601 	 -106.455
| 32> C 	 -5.93429 	 -15.363 	 -104.538
| 33> H 	 -5.74349 	 -16.1823 	 -103.872
| 34> H 	 -6.96492 	 -15.3662 	 -104.849
| 35> C 	 -5.73025 	 -14.0723 	 -103.71
| 36> H 	 -4.84937 	 -13.8936 	 -103.075
| 37> H 	 -6.59119 	 -13.9639 	 -103.036
| 38> H 	 -5.68568 	 -13.2368 	 -104.435
| 39> H 	 -6.15123 	 -21.1048 	 -104.873
| 40> H 	 -0.519051 	 -14.8289 	 -105.164
| 41> *
| 42>
| 43>                          ****END OF INPUT****

CARTESIAN COORDINATES (ANGSTROEM)
---------------------------------
  S     -4.879750  -19.191500  -106.106000
  C     -5.415300  -20.300900  -104.819000
  C     -4.944180  -19.809400  -103.594000
  C     -4.115970  -18.650900  -103.660000
  C     -3.853740  -18.335900  -104.994000
  H     -3.787490  -18.000200  -102.917000
  C     -5.313640  -20.262600  -102.201000
  H     -4.564850  -19.881300  -101.519000
  H     -5.163420  -21.367400  -102.109000
  C     -6.813090  -20.047900  -101.764000
  H     -6.943280  -18.955200  -101.704000
  H     -7.491790  -20.455700  -102.504000
  C     -7.134060  -20.561900  -100.370000
  H     -6.517050  -20.177700  -99.531700
  H     -8.155530  -20.405300  -99.983400
  H     -6.934390  -21.650200  -100.433000
  S     -1.362870  -17.156400  -105.308000
  C     -1.359240  -15.398600  -105.436000
  C     -2.618230  -14.903800  -105.594000
  C     -3.642530  -15.898900  -105.607000
  C     -3.105960  -17.136400  -105.398000
  H     -2.728490  -13.893800  -105.718000
  C     -5.077480  -15.569300  -105.778000
  H     -5.467480  -16.283300  -106.451000
  H     -5.166210  -14.660100  -106.455000
  C     -5.934290  -15.363000  -104.538000
  H     -5.743490  -16.182300  -103.872000
  H     -6.964920  -15.366200  -104.849000
  C     -5.730250  -14.072300  -103.710000
  H     -4.849370  -13.893600  -103.075000
  H     -6.591190  -13.963900  -103.036000
  H     -5.685680  -13.236800  -104.435000
  H     -6.151230  -21.104800  -104.873000
  H     -0.519051  -14.828900  -105.164000

 Total Charge           Charge          ....    0
 Multiplicity           Mult            ....    1
 Number of Electrons    NEL             ....  134
 Basis Dimension        Dim             ....  322

ORBITAL ENERGIES
----------------

  NO   OCC          E(Eh)            E(eV)
   0   2.0000     -88.970974     -2421.0233
   1   2.0000     -88.963853     -2420.8295
   2   2.0000     -10.327980      -281.0386
   3   2.0000     -10.320356      -280.8312
   4   2.0000     -10.319172      -280.7989
   5   2.0000     -10.310251      -280.5562
   6   2.0000     -10.303573      -280.3745
   7   2.0000     -10.296740      -280.1885
   8   2.0000     -10.294051      -280.1154
   9   2.0000     -10.291611      -280.0490
  10   2.0000     -10.290715      -280.0246
  11   2.0000     -10.287456      -279.9359
  12   2.0000     -10.284487      -279.8551
  13   2.0000     -10.283723      -279.8343
  14   2.0000     -10.283280      -279.8223
  15   2.0000     -10.280722      -279.7527
  16   2.0000      -8.084702      -219.9959
  17   2.0000      -8.078731      -219.8334
  18   2.0000      -6.043182      -164.4434
  19   2.0000      -6.039373      -164.3397
  20   2.0000      -6.037179      -164.2800
  21   2.0000      -6.035533      -164.2352
  22   2.0000      -6.033320      -164.1750
  23   2.0000      -6.029466      -164.0701
  24   2.0000      -1.007599       -27.4181
  25   2.0000      -0.983182       -26.7537
  26   2.0000      -0.910303       -24.7706
  27   2.0000      -0.906625       -24.6705
  28   2.0000      -0.867623       -23.6092
  29   2.0000      -0.852921       -23.2092
  30   2.0000      -0.849266       -23.1097
  31   2.0000      -0.814886       -22.1742
  32   2.0000      -0.783518       -21.3206
  33   2.0000      -0.770744       -20.9730
  34   2.0000      -0.708916       -19.2906
  35   2.0000      -0.701704       -19.0943
  36   2.0000      -0.691166       -18.8076
  37   2.0000      -0.667196       -18.1553
  38   2.0000      -0.645805       -17.5732
  39   2.0000      -0.614803       -16.7296
  40   2.0000      -0.599041       -16.3007
  41   2.0000      -0.568934       -15.4815
  42   2.0000      -0.560724       -15.2581
  43   2.0000      -0.553136       -15.0516
  44   2.0000      -0.549300       -14.9472
  45   2.0000      -0.522802       -14.2262
  46   2.0000      -0.517762       -14.0890
  47   2.0000      -0.516334       -14.0502
  48   2.0000      -0.502530       -13.6745
  49   2.0000      -0.494186       -13.4475
  50   2.0000      -0.490213       -13.3394
  51   2.0000      -0.480733       -13.0814
  52   2.0000      -0.468802       -12.7568
  53   2.0000      -0.466216       -12.6864
  54   2.0000      -0.456742       -12.4286
  55   2.0000      -0.451218       -12.2783
  56   2.0000      -0.445531       -12.1235
  57   2.0000      -0.438773       -11.9396
  58   2.0000      -0.432390       -11.7659
  59   2.0000      -0.426276       -11.5996
  60   2.0000      -0.422446       -11.4953
  61   2.0000      -0.411371       -11.1940
  62   2.0000      -0.408363       -11.1121
  63   2.0000      -0.336716        -9.1625
  64   2.0000      -0.329965        -8.9788
  65   2.0000      -0.323321        -8.7980
  66   2.0000      -0.304331        -8.2813
  67   0.0000       0.034602         0.9416
  68   0.0000       0.058093         1.5808
  69   0.0000       0.105127         2.8606
  70   0.0000       0.114270         3.1094
  71   0.0000       0.127778         3.4770

MULLIKEN ATOMIC CHARGES
-----------------------
   0 S :    0.113354
   1 C :   -0.114589
   2 C :   -0.075837
   3 C :    0.060171
   4 C :   -0.168439
   5 H :    0.004968
   6 C :    0.034835
   7 H :    0.021004
   8 H :    0.024646
   9 C :   -0.051663
  10 H :    0.028253
  11 H :    0.033425
  12 C :   -0.072279
  13 H :    0.033912
  14 H :    0.042246
  15 H :    0.027454
  16 S :    0.107951
  17 C :   -0.083442
  18 C :    0.001966
  19 C :   -0.012559
  20 C :   -0.197927
  21 H :   -0.018113
  22 C :    0.083147
  23 H :    0.006191
  24 H :    0.018454
  25 C :   -0.017351
  26 H :    0.026533
  27 H :    0.030777
  28 C :   -0.079251
  29 H :    0.039245
  30 H :    0.038215
  31 H :    0.019448
  32 H :    0.049837
  33 H :    0.045416
Sum of atomic charges:    0.0000000

LOEWDIN ATOMIC CHARGES
----------------------
   0 S :    0.413195
   1 C :   -0.201161
   2 C :   -0.058341
   3 C :   -0.051409
   4 C :   -0.191542
   5 H :    0.025603
   6 C :   -0.037115
   7 H :    0.028088
   8 H :    0.031814
   9 C :   -0.038320
  10 H :    0.023482
  11 H :    0.024504
  12 C :   -0.076959
  13 H :    0.028111
  14 H :    0.029612
  15 H :    0.024922
  16 S :    0.400481
  17 C :   -0.172570
  18 C :   -0.055550
  19 C :   -0.055549
  20 C :   -0.204876
  21 H :    0.017070
  22 C :   -0.038827
  23 H :    0.022476
  24 H :    0.036235
  25 C :   -0.031448
  26 H :    0.023406
  27 H :    0.028800
  28 C :   -0.073659
  29 H :    0.025595
  30 H :    0.029702
  31 H :    0.022026
  32 H :    0.032094
  33 H :    0.020109

  Mayer bond orders larger than 0.100000
B(  0-S ,  1-C ) :   1.1272 B(  0-S ,  4-C ) :   1.1765 B(  1-C ,  2-C ) :   1.5930
B(  1-C , 32-H ) :   0.9720 B(  2-C ,  3-C ) :   1.2459 B(  2-C ,  6-C ) :   1.0330
B(  3-C ,  4-C ) :   1.5585 B(  3-C ,  5-H ) :   1.0020 B(  4-C , 20-C ) :   0.9977
B(  6-C ,  7-H ) :   0.9457 B(  6-C ,  8-H ) :   0.9361 B(  6-C ,  9-C ) :   1.0490
B(  9-C , 10-H ) :   0.9563 B(  9-C , 11-H ) :   0.9570 B(  9-C , 12-C ) :   1.0775
B( 12-C , 13-H ) :   0.9744 B( 12-C , 14-H ) :   0.9743 B( 12-C , 15-H ) :   0.9746
B( 16-S , 17-C ) :   1.1432 B( 16-S , 20-C ) :   1.1475 B( 17-C , 18-C ) :   1.6299
B( 17-C , 33-H ) :   0.9700 B( 18-C , 19-C ) :   1.2245 B( 18-C , 21-H ) :   1.0050
B( 19-C , 20-C ) :   1.6157 B( 19-C , 22-C ) :   1.0388 B( 22-C , 23-H ) :   0.9196
B( 22-C , 24-H ) :   0.9274 B( 22-C , 25-C ) :   1.0783 B( 25-C , 26-H ) :   0.9515
B( 25-C , 27-H ) :   0.9503 B( 25-C , 28-C ) :   1.0720 B( 28-C , 29-H ) :   0.9766
B( 28-C , 30-H ) :   0.9749 B( 28-C , 31-H ) :   0.9749

Dispersion correction           -0.015260476
FINAL SINGLE POINT ENERGY     -1339.868277933215

DIPOLE MOMENT
-------------
                                X             Y             Z
Electronic contribution:     19.91137      -4.27898     -19.74579
Nuclear contribution   :    -20.39732       4.60554      20.27400
                        -----------------------------------------
Total Dipole Moment    :     -0.48596       0.32655       0.52820
                        -----------------------------------------
Magnitude (a.u.)       :      0.78853
Magnitude (Debye)      :      2.00430

Rotational constants in cm-1:     0.019310     0.008454     0.007341
Rotational constants in MHz :   578.903936   253.429964   220.084126

                             ****ORCA TERMINATED NORMALLY****
TOTAL RUN TIME: 0 days 0 hours 0 minutes 21 seconds 127 msec
