                         Program Version 4.2.1 -  RELEASE  -
|  1> ! wB97X-D3 SP def2-SVP
|  2> %pal
|  3> nprocs 24
|  4> end
|  5>
|  6> * xyz 0 1
|  7> S 	 -104.716 	 -2.21284 	 -113.573
|  8> C 	 -106.476 	 -2.54748 	 -113.89
|  9> C 	 -107.237 	 -1.72886 	 -113.067
| 10> C 	 -106.489 	 -1.08368 	 -112.042
| 11> C 	 -105.139 	 -1.31 	 -112.136
| 12> H 	 -106.95 	 -0.539787 	 -111.177
| 13> C 	 -108.72 	 -1.71436 	 -112.962
| 14> H 	 -109.088 	 -1.99161 	 -113.934
| 15> H 	 -109.109 	 -0.706872 	 -112.711
| 16> C 	 -109.24 	 -2.76614 	 -111.916
| 17> H 	 -108.942 	 -3.769 	 -112.287
| 18> H 	 -108.637 	 -2.6312 	 -110.982
| 19> C 	 -110.749 	 -2.67717 	 -111.505
| 20> H 	 -111.446 	 -3.05192 	 -112.276
| 21> H 	 -110.904 	 -3.16964 	 -110.526
| 22> H 	 -111.191 	 -1.68948 	 -111.469
| 23> S 	 -103.233 	 -1.81102 	 -110.221
| 24> C 	 -102.464 	 -0.489754 	 -109.397
| 25> C 	 -102.769 	 0.738978 	 -109.94
| 26> C 	 -103.721 	 0.60006 	 -111.039
| 27> C 	 -104.119 	 -0.69649 	 -111.284
| 28> H 	 -102.328 	 1.63382 	 -109.595
| 29> C 	 -104.086 	 1.84427 	 -111.801
| 30> H 	 -104.279 	 2.63673 	 -111.115
| 31> H 	 -105.086 	 1.83349 	 -112.258
| 32> C 	 -103.048 	 2.35983 	 -112.856
| 33> H 	 -102.23 	 2.84678 	 -112.348
| 34> H 	 -103.71 	 3.12677 	 -113.361
| 35> C 	 -102.659 	 1.26765 	 -113.837
| 36> H 	 -102.231 	 0.374888 	 -113.32
| 37> H 	 -102.076 	 1.60786 	 -114.629
| 38> H 	 -103.598 	 0.893504 	 -114.159
| 39> H 	 -106.807 	 -3.30157 	 -114.583
| 40> H 	 -101.809 	 -0.736379 	 -108.603
| 41> *
| 42>
| 43>                          ****END OF INPUT****

CARTESIAN COORDINATES (ANGSTROEM)
---------------------------------
  S    -104.716000   -2.212840  -113.573000
  C    -106.476000   -2.547480  -113.890000
  C    -107.237000   -1.728860  -113.067000
  C    -106.489000   -1.083680  -112.042000
  C    -105.139000   -1.310000  -112.136000
  H    -106.950000   -0.539787  -111.177000
  C    -108.720000   -1.714360  -112.962000
  H    -109.088000   -1.991610  -113.934000
  H    -109.109000   -0.706872  -112.711000
  C    -109.240000   -2.766140  -111.916000
  H    -108.942000   -3.769000  -112.287000
  H    -108.637000   -2.631200  -110.982000
  C    -110.749000   -2.677170  -111.505000
  H    -111.446000   -3.051920  -112.276000
  H    -110.904000   -3.169640  -110.526000
  H    -111.191000   -1.689480  -111.469000
  S    -103.233000   -1.811020  -110.221000
  C    -102.464000   -0.489754  -109.397000
  C    -102.769000    0.738978  -109.940000
  C    -103.721000    0.600060  -111.039000
  C    -104.119000   -0.696490  -111.284000
  H    -102.328000    1.633820  -109.595000
  C    -104.086000    1.844270  -111.801000
  H    -104.279000    2.636730  -111.115000
  H    -105.086000    1.833490  -112.258000
  C    -103.048000    2.359830  -112.856000
  H    -102.230000    2.846780  -112.348000
  H    -103.710000    3.126770  -113.361000
  C    -102.659000    1.267650  -113.837000
  H    -102.231000    0.374888  -113.320000
  H    -102.076000    1.607860  -114.629000
  H    -103.598000    0.893504  -114.159000
  H    -106.807000   -3.301570  -114.583000
  H    -101.809000   -0.736379  -108.603000

 Total Charge           Charge          ....    0
 Multiplicity           Mult            ....    1
 Number of Electrons    NEL             ....  134
 Basis Dimension        Dim             ....  322

ORBITAL ENERGIES
----------------

  NO   OCC          E(Eh)            E(eV)
   0   2.0000     -88.965821     -2420.8831
   1   2.0000     -88.960009     -2420.7249
   2   2.0000     -10.329078      -281.0685
   3   2.0000     -10.325810      -280.9796
   4   2.0000     -10.320965      -280.8477
   5   2.0000     -10.316812      -280.7347
   6   2.0000     -10.306201      -280.4460
   7   2.0000     -10.301721      -280.3241
   8   2.0000     -10.297122      -280.1989
   9   2.0000     -10.295413      -280.1524
  10   2.0000     -10.294690      -280.1328
  11   2.0000     -10.292736      -280.0796
  12   2.0000     -10.287174      -279.9282
  13   2.0000     -10.285762      -279.8898
  14   2.0000     -10.284083      -279.8441
  15   2.0000     -10.263283      -279.2781
  16   2.0000      -8.079515      -219.8548
  17   2.0000      -8.075234      -219.7383
  18   2.0000      -6.038113      -164.3054
  19   2.0000      -6.034271      -164.2009
  20   2.0000      -6.033659      -164.1842
  21   2.0000      -6.030124      -164.0880
  22   2.0000      -6.029661      -164.0754
  23   2.0000      -6.026060      -163.9774
  24   2.0000      -1.002722       -27.2854
  25   2.0000      -0.980984       -26.6939
  26   2.0000      -0.907682       -24.6993
  27   2.0000      -0.906551       -24.6685
  28   2.0000      -0.864190       -23.5158
  29   2.0000      -0.846358       -23.0306
  30   2.0000      -0.842194       -22.9173
  31   2.0000      -0.812963       -22.1219
  32   2.0000      -0.784082       -21.3360
  33   2.0000      -0.772942       -21.0328
  34   2.0000      -0.704936       -19.1823
  35   2.0000      -0.702148       -19.1064
  36   2.0000      -0.689632       -18.7658
  37   2.0000      -0.663777       -18.0623
  38   2.0000      -0.640333       -17.4244
  39   2.0000      -0.620005       -16.8712
  40   2.0000      -0.601724       -16.3737
  41   2.0000      -0.565940       -15.4000
  42   2.0000      -0.555780       -15.1236
  43   2.0000      -0.552244       -15.0273
  44   2.0000      -0.538764       -14.6605
  45   2.0000      -0.527468       -14.3531
  46   2.0000      -0.512472       -13.9451
  47   2.0000      -0.509882       -13.8746
  48   2.0000      -0.508618       -13.8402
  49   2.0000      -0.498483       -13.5644
  50   2.0000      -0.491401       -13.3717
  51   2.0000      -0.472618       -12.8606
  52   2.0000      -0.463480       -12.6119
  53   2.0000      -0.458511       -12.4767
  54   2.0000      -0.453122       -12.3301
  55   2.0000      -0.452254       -12.3064
  56   2.0000      -0.443071       -12.0566
  57   2.0000      -0.438080       -11.9208
  58   2.0000      -0.431803       -11.7500
  59   2.0000      -0.424477       -11.5506
  60   2.0000      -0.417748       -11.3675
  61   2.0000      -0.414179       -11.2704
  62   2.0000      -0.407782       -11.0963
  63   2.0000      -0.334473        -9.1015
  64   2.0000      -0.329998        -8.9797
  65   2.0000      -0.324551        -8.8315
  66   2.0000      -0.306182        -8.3316
  67   0.0000       0.035634         0.9696
  68   0.0000       0.061535         1.6744
  69   0.0000       0.102818         2.7978
  70   0.0000       0.122046         3.3210
  71   0.0000       0.125577         3.4171

MULLIKEN ATOMIC CHARGES
-----------------------
   0 S :    0.101065
   1 C :   -0.135498
   2 C :   -0.071450
   3 C :    0.022343
   4 C :   -0.139929
   5 H :    0.038667
   6 C :    0.070668
   7 H :    0.015726
   8 H :    0.029836
   9 C :   -0.093976
  10 H :    0.031865
  11 H :    0.035001
  12 C :   -0.048487
  13 H :    0.029405
  14 H :    0.049948
  15 H :    0.020765
  16 S :    0.090556
  17 C :   -0.078723
  18 C :   -0.004676
  19 C :   -0.022022
  20 C :   -0.183861
  21 H :    0.007704
  22 C :    0.038841
  23 H :    0.008482
  24 H :    0.020332
  25 C :   -0.080950
  26 H :    0.028237
  27 H :    0.035821
  28 C :   -0.003460
  29 H :    0.046137
  30 H :    0.029951
  31 H :    0.008692
  32 H :    0.052258
  33 H :    0.050734
Sum of atomic charges:   -0.0000000

LOEWDIN ATOMIC CHARGES
----------------------
   0 S :    0.379211
   1 C :   -0.174342
   2 C :   -0.061399
   3 C :   -0.064515
   4 C :   -0.194477
   5 H :    0.043708
   6 C :   -0.032943
   7 H :    0.024555
   8 H :    0.032095
   9 C :   -0.039768
  10 H :    0.027196
  11 H :    0.027457
  12 C :   -0.079103
  13 H :    0.028090
  14 H :    0.033732
  15 H :    0.023995
  16 S :    0.394760
  17 C :   -0.168846
  18 C :   -0.064636
  19 C :   -0.049009
  20 C :   -0.199805
  21 H :    0.026406
  22 C :   -0.041405
  23 H :    0.026574
  24 H :    0.030279
  25 C :   -0.032302
  26 H :    0.014832
  27 H :    0.032710
  28 C :   -0.060603
  29 H :    0.032811
  30 H :    0.017284
  31 H :    0.020564
  32 H :    0.027101
  33 H :    0.019796

  Mayer bond orders larger than 0.100000
B(  0-S ,  1-C ) :   1.1143 B(  0-S ,  4-C ) :   1.1545 B(  1-C ,  2-C ) :   1.6051
B(  1-C , 32-H ) :   0.9779 B(  2-C ,  3-C ) :   1.2146 B(  2-C ,  6-C ) :   1.0528
B(  3-C ,  4-C ) :   1.6005 B(  3-C ,  5-H ) :   0.9889 B(  4-C , 20-C ) :   1.0048
B(  6-C ,  7-H ) :   0.9358 B(  6-C ,  8-H ) :   0.9387 B(  6-C ,  9-C ) :   1.0504
B(  9-C , 10-H ) :   0.9556 B(  9-C , 11-H ) :   0.9640 B(  9-C , 12-C ) :   1.0632
B( 12-C , 13-H ) :   0.9735 B( 12-C , 14-H ) :   0.9771 B( 12-C , 15-H ) :   0.9744
B( 16-S , 17-C ) :   1.1686 B( 16-S , 20-C ) :   1.1251 B( 17-C , 18-C ) :   1.5979
B( 17-C , 33-H ) :   0.9747 B( 18-C , 19-C ) :   1.2062 B( 18-C , 21-H ) :   1.0043
B( 19-C , 20-C ) :   1.6281 B( 19-C , 22-C ) :   1.0567 B( 22-C , 23-H ) :   0.9257
B( 22-C , 24-H ) :   0.9366 B( 22-C , 25-C ) :   1.0656 B( 25-C , 26-H ) :   0.9581
B( 25-C , 27-H ) :   0.9561 B( 25-C , 28-C ) :   1.0760 B( 28-C , 29-H ) :   0.9688
B( 28-C , 30-H ) :   0.9741 B( 28-C , 31-H ) :   0.9692

Dispersion correction           -0.015201047
FINAL SINGLE POINT ENERGY     -1339.878085371948

DIPOLE MOMENT
-------------
                                X             Y             Z
Electronic contribution:     16.23676      -9.25183       3.75006
Nuclear contribution   :    -16.67099       9.63365      -3.61572
                        -----------------------------------------
Total Dipole Moment    :     -0.43423       0.38183       0.13433
                        -----------------------------------------
Magnitude (a.u.)       :      0.59363
Magnitude (Debye)      :      1.50889

Rotational constants in cm-1:     0.020989     0.007772     0.007214
Rotational constants in MHz :   629.239395   232.991222   216.275784

                             ****ORCA TERMINATED NORMALLY****
TOTAL RUN TIME: 0 days 0 hours 0 minutes 21 seconds 776 msec
