                         Program Version 4.2.1 -  RELEASE  -
|  1> ! wB97X-D3 SP def2-SVP
|  2> %pal
|  3> nprocs 24
|  4> end
|  5>
|  6> * xyz 0 1
|  7> S 	 -57.8041 	 -0.940624 	 -23.1125
|  8> C 	 -56.1949 	 -1.27029 	 -23.5377
|  9> C 	 -55.3386 	 -0.26077 	 -23.1668
| 10> C 	 -56.0113 	 0.755414 	 -22.4279
| 11> C 	 -57.3204 	 0.509314 	 -22.2038
| 12> H 	 -55.5545 	 1.59761 	 -21.9297
| 13> C 	 -53.8573 	 -0.112782 	 -23.4253
| 14> H 	 -53.5086 	 -1.07998 	 -23.9194
| 15> H 	 -53.2916 	 -0.276998 	 -22.4939
| 16> C 	 -53.2281 	 1.02431 	 -24.1607
| 17> H 	 -53.5078 	 1.06383 	 -25.2359
| 18> H 	 -53.6446 	 1.93994 	 -23.7007
| 19> C 	 -51.672 	 1.17753 	 -23.9687
| 20> H 	 -51.1084 	 0.492461 	 -24.6366
| 21> H 	 -51.4038 	 2.24606 	 -24.0973
| 22> H 	 -51.4072 	 0.824543 	 -22.9286
| 23> S 	 -59.3849 	 2.40418 	 -22.2229
| 24> C 	 -59.7049 	 3.30716 	 -20.6602
| 25> C 	 -58.8206 	 2.83522 	 -19.6667
| 26> C 	 -57.9096 	 1.76578 	 -20.0619
| 27> C 	 -58.1393 	 1.37112 	 -21.3669
| 28> H 	 -58.7687 	 3.2526 	 -18.6542
| 29> C 	 -56.7989 	 1.26875 	 -19.1142
| 30> H 	 -56.4865 	 0.295689 	 -19.4252
| 31> H 	 -57.2766 	 1.1327 	 -18.0757
| 32> C 	 -55.5862 	 2.1859 	 -18.9867
| 33> H 	 -55.8579 	 3.2374 	 -19.0076
| 34> H 	 -55.0031 	 2.18854 	 -19.9295
| 35> C 	 -54.6503 	 1.85314 	 -17.8144
| 36> H 	 -53.6902 	 2.35452 	 -17.9021
| 37> H 	 -54.2771 	 0.816039 	 -17.895
| 38> H 	 -55.1561 	 2.08729 	 -16.8528
| 39> H 	 -55.7731 	 -2.12591 	 -24.0061
| 40> H 	 -60.2202 	 4.21063 	 -20.6807
| 41> *
| 42>
| 43>                          ****END OF INPUT****

CARTESIAN COORDINATES (ANGSTROEM)
---------------------------------
  S    -57.804100   -0.940624  -23.112500
  C    -56.194900   -1.270290  -23.537700
  C    -55.338600   -0.260770  -23.166800
  C    -56.011300    0.755414  -22.427900
  C    -57.320400    0.509314  -22.203800
  H    -55.554500    1.597610  -21.929700
  C    -53.857300   -0.112782  -23.425300
  H    -53.508600   -1.079980  -23.919400
  H    -53.291600   -0.276998  -22.493900
  C    -53.228100    1.024310  -24.160700
  H    -53.507800    1.063830  -25.235900
  H    -53.644600    1.939940  -23.700700
  C    -51.672000    1.177530  -23.968700
  H    -51.108400    0.492461  -24.636600
  H    -51.403800    2.246060  -24.097300
  H    -51.407200    0.824543  -22.928600
  S    -59.384900    2.404180  -22.222900
  C    -59.704900    3.307160  -20.660200
  C    -58.820600    2.835220  -19.666700
  C    -57.909600    1.765780  -20.061900
  C    -58.139300    1.371120  -21.366900
  H    -58.768700    3.252600  -18.654200
  C    -56.798900    1.268750  -19.114200
  H    -56.486500    0.295689  -19.425200
  H    -57.276600    1.132700  -18.075700
  C    -55.586200    2.185900  -18.986700
  H    -55.857900    3.237400  -19.007600
  H    -55.003100    2.188540  -19.929500
  C    -54.650300    1.853140  -17.814400
  H    -53.690200    2.354520  -17.902100
  H    -54.277100    0.816039  -17.895000
  H    -55.156100    2.087290  -16.852800
  H    -55.773100   -2.125910  -24.006100
  H    -60.220200    4.210630  -20.680700

 Total Charge           Charge          ....    0
 Multiplicity           Mult            ....    1
 Number of Electrons    NEL             ....  134
 Basis Dimension        Dim             ....  322

ORBITAL ENERGIES
----------------

  NO   OCC          E(Eh)            E(eV)
   0   2.0000     -88.968186     -2420.9474
   1   2.0000     -88.963933     -2420.8317
   2   2.0000     -10.334215      -281.2083
   3   2.0000     -10.326231      -280.9910
   4   2.0000     -10.325318      -280.9662
   5   2.0000     -10.311168      -280.5811
   6   2.0000     -10.311005      -280.5767
   7   2.0000     -10.305892      -280.4376
   8   2.0000     -10.301728      -280.3243
   9   2.0000     -10.298825      -280.2453
  10   2.0000     -10.295018      -280.1417
  11   2.0000     -10.292622      -280.0765
  12   2.0000     -10.292460      -280.0721
  13   2.0000     -10.291291      -280.0403
  14   2.0000     -10.287885      -279.9476
  15   2.0000     -10.286377      -279.9065
  16   2.0000      -8.083318      -219.9583
  17   2.0000      -8.076561      -219.7744
  18   2.0000      -6.041843      -164.4069
  19   2.0000      -6.037803      -164.2970
  20   2.0000      -6.035299      -164.2288
  21   2.0000      -6.033989      -164.1932
  22   2.0000      -6.031504      -164.1256
  23   2.0000      -6.027061      -164.0047
  24   2.0000      -1.007530       -27.4163
  25   2.0000      -0.973020       -26.4772
  26   2.0000      -0.910628       -24.7795
  27   2.0000      -0.906476       -24.6665
  28   2.0000      -0.873026       -23.7563
  29   2.0000      -0.850125       -23.1331
  30   2.0000      -0.844798       -22.9881
  31   2.0000      -0.811092       -22.0709
  32   2.0000      -0.781311       -21.2605
  33   2.0000      -0.772243       -21.0138
  34   2.0000      -0.708291       -19.2736
  35   2.0000      -0.700703       -19.0671
  36   2.0000      -0.695989       -18.9388
  37   2.0000      -0.665064       -18.0973
  38   2.0000      -0.645764       -17.5721
  39   2.0000      -0.620076       -16.8731
  40   2.0000      -0.598345       -16.2818
  41   2.0000      -0.567640       -15.4463
  42   2.0000      -0.565685       -15.3931
  43   2.0000      -0.555433       -15.1141
  44   2.0000      -0.525883       -14.3100
  45   2.0000      -0.524702       -14.2779
  46   2.0000      -0.518895       -14.1198
  47   2.0000      -0.509214       -13.8564
  48   2.0000      -0.508545       -13.8382
  49   2.0000      -0.498846       -13.5743
  50   2.0000      -0.495910       -13.4944
  51   2.0000      -0.472536       -12.8584
  52   2.0000      -0.471319       -12.8252
  53   2.0000      -0.464862       -12.6495
  54   2.0000      -0.456728       -12.4282
  55   2.0000      -0.449723       -12.2376
  56   2.0000      -0.447953       -12.1894
  57   2.0000      -0.437094       -11.8939
  58   2.0000      -0.434455       -11.8221
  59   2.0000      -0.424640       -11.5550
  60   2.0000      -0.421944       -11.4817
  61   2.0000      -0.414912       -11.2903
  62   2.0000      -0.404627       -11.0105
  63   2.0000      -0.346448        -9.4273
  64   2.0000      -0.329429        -8.9642
  65   2.0000      -0.328492        -8.9387
  66   2.0000      -0.299509        -8.1500
  67   0.0000       0.033115         0.9011
  68   0.0000       0.056055         1.5253
  69   0.0000       0.102030         2.7764
  70   0.0000       0.119032         3.2390
  71   0.0000       0.121158         3.2969

MULLIKEN ATOMIC CHARGES
-----------------------
   0 S :    0.127938
   1 C :   -0.084379
   2 C :   -0.074577
   3 C :    0.035710
   4 C :   -0.165396
   5 H :    0.005321
   6 C :    0.040948
   7 H :    0.003656
   8 H :    0.023508
   9 C :   -0.070849
  10 H :    0.043830
  11 H :    0.024667
  12 C :   -0.081004
  13 H :    0.044703
  14 H :    0.052622
  15 H :    0.030874
  16 S :    0.067564
  17 C :   -0.072959
  18 C :   -0.033528
  19 C :   -0.040799
  20 C :   -0.152343
  21 H :    0.030010
  22 C :    0.071190
  23 H :    0.027142
  24 H :    0.038274
  25 C :   -0.080773
  26 H :    0.023283
  27 H :    0.015666
  28 C :   -0.044392
  29 H :    0.030246
  30 H :    0.032327
  31 H :    0.049101
  32 H :    0.028839
  33 H :    0.053577
Sum of atomic charges:    0.0000000

LOEWDIN ATOMIC CHARGES
----------------------
   0 S :    0.416351
   1 C :   -0.201612
   2 C :   -0.069851
   3 C :   -0.051994
   4 C :   -0.195300
   5 H :    0.028218
   6 C :   -0.050313
   7 H :    0.029388
   8 H :    0.031891
   9 C :   -0.047357
  10 H :    0.030023
  11 H :    0.023656
  12 C :   -0.067621
  13 H :    0.026856
  14 H :    0.033192
  15 H :    0.027703
  16 S :    0.334671
  17 C :   -0.151302
  18 C :   -0.061591
  19 C :   -0.053317
  20 C :   -0.165732
  21 H :    0.032859
  22 C :   -0.028123
  23 H :    0.027671
  24 H :    0.040032
  25 C :   -0.050163
  26 H :    0.022962
  27 H :    0.022983
  28 C :   -0.068649
  29 H :    0.028458
  30 H :    0.030038
  31 H :    0.030632
  32 H :    0.027387
  33 H :    0.017954

  Mayer bond orders larger than 0.100000
B(  0-S ,  1-C ) :   1.1433 B(  0-S ,  4-C ) :   1.1270 B(  1-C ,  2-C ) :   1.6302
B(  1-C , 32-H ) :   0.9626 B(  2-C ,  3-C ) :   1.2232 B(  2-C ,  6-C ) :   1.0283
B(  3-C ,  4-C ) :   1.5989 B(  3-C ,  5-H ) :   0.9953 B(  4-C , 20-C ) :   1.0302
B(  6-C ,  7-H ) :   0.9287 B(  6-C ,  8-H ) :   0.9316 B(  6-C ,  9-C ) :   1.0684
B(  9-C , 10-H ) :   0.9529 B(  9-C , 11-H ) :   0.9561 B(  9-C , 12-C ) :   1.0658
B( 12-C , 13-H ) :   0.9784 B( 12-C , 14-H ) :   0.9772 B( 12-C , 15-H ) :   0.9743
B( 16-S , 17-C ) :   1.1208 B( 16-S , 20-C ) :   1.1186 B( 17-C , 18-C ) :   1.6314
B( 17-C , 33-H ) :   0.9766 B( 18-C , 19-C ) :   1.2073 B( 18-C , 21-H ) :   0.9787
B( 19-C , 20-C ) :   1.6479 B( 19-C , 22-C ) :   1.0416 B( 22-C , 23-H ) :   0.9277
B( 22-C , 24-H ) :   0.9413 B( 22-C , 25-C ) :   1.0540 B( 25-C , 26-H ) :   0.9561
B( 25-C , 27-H ) :   0.9419 B( 25-C , 28-C ) :   1.0873 B( 28-C , 29-H ) :   0.9710
B( 28-C , 30-H ) :   0.9716 B( 28-C , 31-H ) :   0.9756

Dispersion correction           -0.014328495
FINAL SINGLE POINT ENERGY     -1339.869163455088

DIPOLE MOMENT
-------------
                                X             Y             Z
Electronic contribution:    -30.67764      -4.42570      -9.26280
Nuclear contribution   :     31.53040       4.67244       9.64546
                        -----------------------------------------
Total Dipole Moment    :      0.85276       0.24674       0.38266
                        -----------------------------------------
Magnitude (a.u.)       :      0.96670
Magnitude (Debye)      :      2.45715

Rotational constants in cm-1:     0.015526     0.009274     0.006990
Rotational constants in MHz :   465.460698   278.013644   209.562856

                             ****ORCA TERMINATED NORMALLY****
TOTAL RUN TIME: 0 days 0 hours 0 minutes 20 seconds 497 msec
