                         Program Version 4.2.1 -  RELEASE  -
|  1> ! wB97X-D3 SP def2-SVP
|  2> %pal
|  3> nprocs 24
|  4> end
|  5>
|  6> * xyz 0 1
|  7> S 	 -121.021 	 49.8264 	 -36.8922
|  8> C 	 -121.653 	 48.5677 	 -37.8681
|  9> C 	 -122.759 	 47.9286 	 -37.2929
| 10> C 	 -123.059 	 48.5177 	 -36.0189
| 11> C 	 -122.24 	 49.6085 	 -35.6818
| 12> H 	 -123.951 	 48.2079 	 -35.4124
| 13> C 	 -123.361 	 46.6588 	 -37.9119
| 14> H 	 -122.531 	 46.2122 	 -38.4504
| 15> H 	 -123.94 	 47.011 	 -38.779
| 16> C 	 -124.075 	 45.5959 	 -37.0557
| 17> H 	 -124.916 	 46.039 	 -36.5422
| 18> H 	 -124.539 	 44.7969 	 -37.6564
| 19> C 	 -123.26 	 44.8627 	 -36.0055
| 20> H 	 -123.853 	 44.0869 	 -35.6367
| 21> H 	 -122.38 	 44.2633 	 -36.4138
| 22> H 	 -122.955 	 45.3679 	 -35.0421
| 23> S 	 -121.905 	 52.1582 	 -34.6107
| 24> C 	 -122.131 	 52.4162 	 -32.8852
| 25> C 	 -122.385 	 51.2135 	 -32.2518
| 26> C 	 -122.46 	 50.0528 	 -33.1496
| 27> C 	 -122.241 	 50.4166 	 -34.4487
| 28> H 	 -122.491 	 51.2788 	 -31.1841
| 29> C 	 -122.75 	 48.6972 	 -32.5974
| 30> H 	 -121.881 	 48.4287 	 -31.9889
| 31> H 	 -122.881 	 47.9142 	 -33.3775
| 32> C 	 -123.97 	 48.5948 	 -31.6517
| 33> H 	 -123.842 	 49.2895 	 -30.826
| 34> H 	 -123.909 	 47.6039 	 -31.2646
| 35> C 	 -125.305 	 48.8569 	 -32.4127
| 36> H 	 -125.415 	 48.0935 	 -33.1523
| 37> H 	 -125.268 	 49.9009 	 -32.8876
| 38> H 	 -126.213 	 48.8118 	 -31.7445
| 39> H 	 -121.231 	 48.2486 	 -38.839
| 40> H 	 -122.104 	 53.3978 	 -32.4602
| 41> *
| 42>
| 43>                          ****END OF INPUT****

CARTESIAN COORDINATES (ANGSTROEM)
---------------------------------
  S    -121.021000   49.826400  -36.892200
  C    -121.653000   48.567700  -37.868100
  C    -122.759000   47.928600  -37.292900
  C    -123.059000   48.517700  -36.018900
  C    -122.240000   49.608500  -35.681800
  H    -123.951000   48.207900  -35.412400
  C    -123.361000   46.658800  -37.911900
  H    -122.531000   46.212200  -38.450400
  H    -123.940000   47.011000  -38.779000
  C    -124.075000   45.595900  -37.055700
  H    -124.916000   46.039000  -36.542200
  H    -124.539000   44.796900  -37.656400
  C    -123.260000   44.862700  -36.005500
  H    -123.853000   44.086900  -35.636700
  H    -122.380000   44.263300  -36.413800
  H    -122.955000   45.367900  -35.042100
  S    -121.905000   52.158200  -34.610700
  C    -122.131000   52.416200  -32.885200
  C    -122.385000   51.213500  -32.251800
  C    -122.460000   50.052800  -33.149600
  C    -122.241000   50.416600  -34.448700
  H    -122.491000   51.278800  -31.184100
  C    -122.750000   48.697200  -32.597400
  H    -121.881000   48.428700  -31.988900
  H    -122.881000   47.914200  -33.377500
  C    -123.970000   48.594800  -31.651700
  H    -123.842000   49.289500  -30.826000
  H    -123.909000   47.603900  -31.264600
  C    -125.305000   48.856900  -32.412700
  H    -125.415000   48.093500  -33.152300
  H    -125.268000   49.900900  -32.887600
  H    -126.213000   48.811800  -31.744500
  H    -121.231000   48.248600  -38.839000
  H    -122.104000   53.397800  -32.460200

 Total Charge           Charge          ....    0
 Multiplicity           Mult            ....    1
 Number of Electrons    NEL             ....  134
 Basis Dimension        Dim             ....  322

ORBITAL ENERGIES
----------------

  NO   OCC          E(Eh)            E(eV)
   0   2.0000     -88.967986     -2420.9420
   1   2.0000     -88.960874     -2420.7484
   2   2.0000     -10.330598      -281.1099
   3   2.0000     -10.328903      -281.0637
   4   2.0000     -10.319000      -280.7943
   5   2.0000     -10.311483      -280.5897
   6   2.0000     -10.305975      -280.4398
   7   2.0000     -10.303863      -280.3824
   8   2.0000     -10.299568      -280.2655
   9   2.0000     -10.297558      -280.2108
  10   2.0000     -10.296201      -280.1739
  11   2.0000     -10.294869      -280.1376
  12   2.0000     -10.292699      -280.0786
  13   2.0000     -10.287015      -279.9239
  14   2.0000     -10.285706      -279.8883
  15   2.0000     -10.281640      -279.7776
  16   2.0000      -8.083278      -219.9572
  17   2.0000      -8.075466      -219.7446
  18   2.0000      -6.041681      -164.4025
  19   2.0000      -6.037560      -164.2904
  20   2.0000      -6.034278      -164.2010
  21   2.0000      -6.034123      -164.1968
  22   2.0000      -6.030053      -164.0861
  23   2.0000      -6.026016      -163.9762
  24   2.0000      -1.004406       -27.3313
  25   2.0000      -0.981497       -26.7079
  26   2.0000      -0.910216       -24.7682
  27   2.0000      -0.908511       -24.7218
  28   2.0000      -0.868334       -23.6286
  29   2.0000      -0.849822       -23.1248
  30   2.0000      -0.839582       -22.8462
  31   2.0000      -0.815124       -22.1806
  32   2.0000      -0.783769       -21.3274
  33   2.0000      -0.773683       -21.0530
  34   2.0000      -0.712404       -19.3855
  35   2.0000      -0.698445       -19.0056
  36   2.0000      -0.688996       -18.7485
  37   2.0000      -0.656222       -17.8567
  38   2.0000      -0.633960       -17.2509
  39   2.0000      -0.621830       -16.9209
  40   2.0000      -0.600547       -16.3417
  41   2.0000      -0.563139       -15.3238
  42   2.0000      -0.551937       -15.0190
  43   2.0000      -0.549433       -14.9508
  44   2.0000      -0.542726       -14.7683
  45   2.0000      -0.539038       -14.6680
  46   2.0000      -0.522487       -14.2176
  47   2.0000      -0.504701       -13.7336
  48   2.0000      -0.498198       -13.5566
  49   2.0000      -0.492066       -13.3898
  50   2.0000      -0.487399       -13.2628
  51   2.0000      -0.477168       -12.9844
  52   2.0000      -0.473062       -12.8727
  53   2.0000      -0.464362       -12.6359
  54   2.0000      -0.457758       -12.4562
  55   2.0000      -0.446867       -12.1599
  56   2.0000      -0.443136       -12.0583
  57   2.0000      -0.440620       -11.9899
  58   2.0000      -0.432314       -11.7639
  59   2.0000      -0.425906       -11.5895
  60   2.0000      -0.423342       -11.5197
  61   2.0000      -0.418578       -11.3901
  62   2.0000      -0.415536       -11.3073
  63   2.0000      -0.351614        -9.5679
  64   2.0000      -0.329519        -8.9667
  65   2.0000      -0.326230        -8.8772
  66   2.0000      -0.286963        -7.8087
  67   0.0000       0.031216         0.8494
  68   0.0000       0.075187         2.0459
  69   0.0000       0.110860         3.0167
  70   0.0000       0.118689         3.2297
  71   0.0000       0.120460         3.2779

MULLIKEN ATOMIC CHARGES
-----------------------
   0 S :    0.131855
   1 C :   -0.139321
   2 C :   -0.104932
   3 C :   -0.004546
   4 C :   -0.142775
   5 H :    0.026654
   6 C :    0.080275
   7 H :    0.014334
   8 H :    0.038731
   9 C :   -0.047493
  10 H :    0.024231
  11 H :    0.033611
  12 C :   -0.072285
  13 H :    0.011735
  14 H :    0.036362
  15 H :    0.046826
  16 S :    0.083940
  17 C :   -0.091095
  18 C :   -0.038846
  19 C :   -0.028518
  20 C :   -0.142207
  21 H :    0.019765
  22 C :    0.045788
  23 H :    0.039387
  24 H :    0.023597
  25 C :   -0.061964
  26 H :    0.027922
  27 H :    0.024603
  28 C :   -0.082381
  29 H :    0.027039
  30 H :    0.062434
  31 H :    0.044746
  32 H :    0.054822
  33 H :    0.057706
Sum of atomic charges:    0.0000000

LOEWDIN ATOMIC CHARGES
----------------------
   0 S :    0.438661
   1 C :   -0.220360
   2 C :   -0.062483
   3 C :   -0.075524
   4 C :   -0.200807
   5 H :    0.035683
   6 C :   -0.038915
   7 H :    0.030954
   8 H :    0.039151
   9 C :   -0.043485
  10 H :    0.023764
  11 H :    0.035922
  12 C :   -0.077381
  13 H :    0.018652
  14 H :    0.032830
  15 H :    0.030785
  16 S :    0.374309
  17 C :   -0.171631
  18 C :   -0.069524
  19 C :   -0.056794
  20 C :   -0.186882
  21 H :    0.029069
  22 C :   -0.033815
  23 H :    0.038419
  24 H :    0.030558
  25 C :   -0.034415
  26 H :    0.018462
  27 H :    0.020972
  28 C :   -0.072116
  29 H :    0.015953
  30 H :    0.039586
  31 H :    0.030888
  32 H :    0.032265
  33 H :    0.027249

  Mayer bond orders larger than 0.100000
B(  0-S ,  1-C ) :   1.1610 B(  0-S ,  4-C ) :   1.1782 B(  1-C ,  2-C ) :   1.5841
B(  1-C ,  4-C ) :   0.1059 B(  1-C , 32-H ) :   0.9631 B(  2-C ,  3-C ) :   1.2932
B(  2-C ,  6-C ) :   0.9984 B(  3-C ,  4-C ) :   1.5377 B(  3-C ,  5-H ) :   0.9796
B(  4-C , 20-C ) :   1.0351 B(  6-C ,  7-H ) :   0.9426 B(  6-C ,  8-H ) :   0.9317
B(  6-C ,  9-C ) :   1.0748 B(  9-C , 10-H ) :   0.9498 B(  9-C , 11-H ) :   0.9507
B(  9-C , 12-C ) :   1.0859 B( 12-C , 13-H ) :   0.9684 B( 12-C , 14-H ) :   0.9714
B( 12-C , 15-H ) :   0.9727 B( 16-S , 17-C ) :   1.1387 B( 16-S , 20-C ) :   1.1203
B( 17-C , 18-C ) :   1.6435 B( 17-C , 33-H ) :   0.9721 B( 18-C , 19-C ) :   1.1739
B( 18-C , 21-H ) :   0.9930 B( 19-C , 20-C ) :   1.6375 B( 19-C , 22-C ) :   1.0486
B( 22-C , 23-H ) :   0.9236 B( 22-C , 24-H ) :   0.9380 B( 22-C , 25-C ) :   1.0789
B( 25-C , 26-H ) :   0.9539 B( 25-C , 27-H ) :   0.9548 B( 25-C , 28-C ) :   1.0666
B( 28-C , 29-H ) :   0.9734 B( 28-C , 30-H ) :   0.9738 B( 28-C , 31-H ) :   0.9745

Dispersion correction           -0.014986595
FINAL SINGLE POINT ENERGY     -1339.890247717848

DIPOLE MOMENT
-------------
                                X             Y             Z
Electronic contribution:     15.60767      24.88027      -8.01197
Nuclear contribution   :    -15.96098     -25.52302       8.30865
                        -----------------------------------------
Total Dipole Moment    :     -0.35330      -0.64276       0.29668
                        -----------------------------------------
Magnitude (a.u.)       :      0.79119
Magnitude (Debye)      :      2.01104

Rotational constants in cm-1:     0.018049     0.010048     0.006941
Rotational constants in MHz :   541.109625   301.239002   208.074442

                             ****ORCA TERMINATED NORMALLY****
TOTAL RUN TIME: 0 days 0 hours 0 minutes 22 seconds 350 msec
