                         Program Version 4.2.1 -  RELEASE  -
|  1> ! wB97X-D3 SP def2-SVP
|  2> %pal
|  3> nprocs 24
|  4> end
|  5>
|  6> * xyz 0 1
|  7> S 	 -38.4154 	 -9.27395 	 18.8708
|  8> C 	 -37.3221 	 -10.64 	 18.7733
|  9> C 	 -37.918 	 -11.8043 	 19.1236
| 10> C 	 -39.3155 	 -11.6011 	 19.2912
| 11> C 	 -39.7436 	 -10.3089 	 19.1095
| 12> H 	 -40.0807 	 -12.3855 	 19.5281
| 13> C 	 -37.2355 	 -13.1734 	 19.3296
| 14> H 	 -36.244 	 -13.1386 	 18.8365
| 15> H 	 -37.8474 	 -13.9281 	 18.7487
| 16> C 	 -37.051 	 -13.753 	 20.7351
| 17> H 	 -36.4455 	 -13.0802 	 21.2191
| 18> H 	 -37.9663 	 -13.8601 	 21.2891
| 19> C 	 -36.2946 	 -15.0983 	 20.7359
| 20> H 	 -35.9347 	 -15.3614 	 21.6735
| 21> H 	 -36.9258 	 -15.8962 	 20.4111
| 22> H 	 -35.4292 	 -15.1411 	 20.0372
| 23> S 	 -41.4463 	 -8.67416 	 20.6406
| 24> C 	 -43.102 	 -8.83533 	 20.4195
| 25> C 	 -43.3519 	 -9.60336 	 19.3818
| 26> C 	 -42.3 	 -10.1912 	 18.6756
| 27> C 	 -41.1045 	 -9.75667 	 19.2682
| 28> H 	 -44.4007 	 -9.80615 	 19.0527
| 29> C 	 -42.4103 	 -10.9659 	 17.3848
| 30> H 	 -43.4275 	 -11.1605 	 17.1379
| 31> H 	 -42.1103 	 -12.0275 	 17.6711
| 32> C 	 -41.6779 	 -10.4177 	 16.1596
| 33> H 	 -40.6262 	 -10.2666 	 16.4684
| 34> H 	 -42.1138 	 -9.39034 	 16.007
| 35> C 	 -41.5519 	 -11.2848 	 14.888
| 36> H 	 -42.5159 	 -11.4505 	 14.457
| 37> H 	 -40.967 	 -12.1827 	 15.1143
| 38> H 	 -41.1658 	 -10.5781 	 14.1254
| 39> H 	 -36.2689 	 -10.453 	 18.7124
| 40> H 	 -43.8787 	 -8.43696 	 21.072
| 41> *
| 42>
| 43>                          ****END OF INPUT****

CARTESIAN COORDINATES (ANGSTROEM)
---------------------------------
  S    -38.415400   -9.273950   18.870800
  C    -37.322100  -10.640000   18.773300
  C    -37.918000  -11.804300   19.123600
  C    -39.315500  -11.601100   19.291200
  C    -39.743600  -10.308900   19.109500
  H    -40.080700  -12.385500   19.528100
  C    -37.235500  -13.173400   19.329600
  H    -36.244000  -13.138600   18.836500
  H    -37.847400  -13.928100   18.748700
  C    -37.051000  -13.753000   20.735100
  H    -36.445500  -13.080200   21.219100
  H    -37.966300  -13.860100   21.289100
  C    -36.294600  -15.098300   20.735900
  H    -35.934700  -15.361400   21.673500
  H    -36.925800  -15.896200   20.411100
  H    -35.429200  -15.141100   20.037200
  S    -41.446300   -8.674160   20.640600
  C    -43.102000   -8.835330   20.419500
  C    -43.351900   -9.603360   19.381800
  C    -42.300000  -10.191200   18.675600
  C    -41.104500   -9.756670   19.268200
  H    -44.400700   -9.806150   19.052700
  C    -42.410300  -10.965900   17.384800
  H    -43.427500  -11.160500   17.137900
  H    -42.110300  -12.027500   17.671100
  C    -41.677900  -10.417700   16.159600
  H    -40.626200  -10.266600   16.468400
  H    -42.113800   -9.390340   16.007000
  C    -41.551900  -11.284800   14.888000
  H    -42.515900  -11.450500   14.457000
  H    -40.967000  -12.182700   15.114300
  H    -41.165800  -10.578100   14.125400
  H    -36.268900  -10.453000   18.712400
  H    -43.878700   -8.436960   21.072000

 Total Charge           Charge          ....    0
 Multiplicity           Mult            ....    1
 Number of Electrons    NEL             ....  134
 Basis Dimension        Dim             ....  322

ORBITAL ENERGIES
----------------

  NO   OCC          E(Eh)            E(eV)
   0   2.0000     -88.963396     -2420.8171
   1   2.0000     -88.961673     -2420.7702
   2   2.0000     -10.326587      -281.0007
   3   2.0000     -10.324026      -280.9310
   4   2.0000     -10.309151      -280.5263
   5   2.0000     -10.305907      -280.4380
   6   2.0000     -10.301305      -280.3128
   7   2.0000     -10.300632      -280.2944
   8   2.0000     -10.300386      -280.2877
   9   2.0000     -10.292921      -280.0846
  10   2.0000     -10.292400      -280.0704
  11   2.0000     -10.286913      -279.9211
  12   2.0000     -10.282713      -279.8068
  13   2.0000     -10.280759      -279.7537
  14   2.0000     -10.279610      -279.7224
  15   2.0000     -10.274344      -279.5791
  16   2.0000      -8.079282      -219.8484
  17   2.0000      -8.077661      -219.8043
  18   2.0000      -6.037637      -164.2924
  19   2.0000      -6.036042      -164.2491
  20   2.0000      -6.033618      -164.1831
  21   2.0000      -6.032024      -164.1397
  22   2.0000      -6.030125      -164.0880
  23   2.0000      -6.028453      -164.0426
  24   2.0000      -1.014669       -27.6106
  25   2.0000      -0.995763       -27.0961
  26   2.0000      -0.911437       -24.8014
  27   2.0000      -0.907342       -24.6900
  28   2.0000      -0.871314       -23.7097
  29   2.0000      -0.854255       -23.2455
  30   2.0000      -0.845463       -23.0062
  31   2.0000      -0.813399       -22.1337
  32   2.0000      -0.787234       -21.4217
  33   2.0000      -0.777213       -21.1490
  34   2.0000      -0.710061       -19.3217
  35   2.0000      -0.702034       -19.1033
  36   2.0000      -0.686881       -18.6910
  37   2.0000      -0.653994       -17.7961
  38   2.0000      -0.642402       -17.4806
  39   2.0000      -0.618514       -16.8306
  40   2.0000      -0.599923       -16.3247
  41   2.0000      -0.570929       -15.5358
  42   2.0000      -0.564800       -15.3690
  43   2.0000      -0.561497       -15.2791
  44   2.0000      -0.525373       -14.2961
  45   2.0000      -0.522341       -14.2136
  46   2.0000      -0.520639       -14.1673
  47   2.0000      -0.510819       -13.9001
  48   2.0000      -0.505124       -13.7451
  49   2.0000      -0.498289       -13.5591
  50   2.0000      -0.491155       -13.3650
  51   2.0000      -0.484650       -13.1880
  52   2.0000      -0.469876       -12.7860
  53   2.0000      -0.464726       -12.6458
  54   2.0000      -0.456368       -12.4184
  55   2.0000      -0.448331       -12.1997
  56   2.0000      -0.442896       -12.0518
  57   2.0000      -0.436817       -11.8864
  58   2.0000      -0.429284       -11.6814
  59   2.0000      -0.428439       -11.6584
  60   2.0000      -0.422501       -11.4968
  61   2.0000      -0.420985       -11.4556
  62   2.0000      -0.407458       -11.0875
  63   2.0000      -0.343136        -9.3372
  64   2.0000      -0.332304        -9.0425
  65   2.0000      -0.330270        -8.9871
  66   2.0000      -0.297434        -8.0936
  67   0.0000       0.038043         1.0352
  68   0.0000       0.068091         1.8528
  69   0.0000       0.118934         3.2364
  70   0.0000       0.125300         3.4096
  71   0.0000       0.134762         3.6671

MULLIKEN ATOMIC CHARGES
-----------------------
   0 S :    0.101682
   1 C :   -0.125869
   2 C :   -0.050032
   3 C :    0.015625
   4 C :   -0.179462
   5 H :    0.024919
   6 C :    0.018329
   7 H :    0.021991
   8 H :    0.032122
   9 C :   -0.010225
  10 H :    0.008905
  11 H :    0.029625
  12 C :   -0.033818
  13 H :    0.020614
  14 H :    0.021337
  15 H :    0.024320
  16 S :    0.114995
  17 C :   -0.073663
  18 C :   -0.054145
  19 C :   -0.025102
  20 C :   -0.174133
  21 H :    0.015052
  22 C :    0.106991
  23 H :   -0.005072
  24 H :    0.020736
  25 C :   -0.117820
  26 H :    0.042155
  27 H :    0.039602
  28 C :   -0.018295
  29 H :    0.017088
  30 H :    0.053853
  31 H :    0.038142
  32 H :    0.041180
  33 H :    0.058372
Sum of atomic charges:    0.0000000

LOEWDIN ATOMIC CHARGES
----------------------
   0 S :    0.419490
   1 C :   -0.189656
   2 C :   -0.067014
   3 C :   -0.070016
   4 C :   -0.212201
   5 H :    0.037551
   6 C :   -0.031443
   7 H :    0.031379
   8 H :    0.033331
   9 C :   -0.029987
  10 H :    0.013883
  11 H :    0.024904
  12 C :   -0.056626
  13 H :    0.017872
  14 H :    0.021275
  15 H :    0.028089
  16 S :    0.423480
  17 C :   -0.209718
  18 C :   -0.086016
  19 C :   -0.053603
  20 C :   -0.193987
  21 H :    0.032906
  22 C :   -0.038881
  23 H :    0.020958
  24 H :    0.036775
  25 C :   -0.047301
  26 H :    0.027851
  27 H :    0.030821
  28 C :   -0.063410
  29 H :    0.017828
  30 H :    0.032936
  31 H :    0.038128
  32 H :    0.021540
  33 H :    0.038861

  Mayer bond orders larger than 0.100000
B(  0-S ,  1-C ) :   1.1401 B(  0-S ,  4-C ) :   1.1622 B(  1-C ,  2-C ) :   1.6245
B(  1-C , 32-H ) :   0.9708 B(  2-C ,  3-C ) :   1.2331 B(  2-C ,  6-C ) :   1.0144
B(  3-C ,  4-C ) :   1.5946 B(  3-C ,  5-H ) :   0.9897 B(  4-C , 20-C ) :   0.9970
B(  6-C ,  7-H ) :   0.9423 B(  6-C ,  8-H ) :   0.9432 B(  6-C ,  9-C ) :   1.0687
B(  9-C , 10-H ) :   0.9516 B(  9-C , 11-H ) :   0.9535 B(  9-C , 12-C ) :   1.0849
B( 12-C , 13-H ) :   0.9745 B( 12-C , 14-H ) :   0.9755 B( 12-C , 15-H ) :   0.9739
B( 16-S , 17-C ) :   1.1559 B( 16-S , 20-C ) :   1.1646 B( 17-C , 18-C ) :   1.6036
B( 17-C , 33-H ) :   0.9624 B( 18-C , 19-C ) :   1.2832 B( 18-C , 21-H ) :   0.9779
B( 19-C , 20-C ) :   1.5589 B( 19-C , 22-C ) :   1.0439 B( 22-C , 23-H ) :   0.9273
B( 22-C , 24-H ) :   0.9147 B( 22-C , 25-C ) :   1.0558 B( 25-C , 26-H ) :   0.9547
B( 25-C , 27-H ) :   0.9539 B( 25-C , 28-C ) :   1.0828 B( 28-C , 29-H ) :   0.9741
B( 28-C , 30-H ) :   0.9729 B( 28-C , 31-H ) :   0.9696

Dispersion correction           -0.014044542
FINAL SINGLE POINT ENERGY     -1339.875070457515

DIPOLE MOMENT
-------------
                                X             Y             Z
Electronic contribution:     -5.03940      23.37895      10.14928
Nuclear contribution   :      4.92313     -23.95736     -10.18717
                        -----------------------------------------
Total Dipole Moment    :     -0.11628      -0.57841      -0.03790
                        -----------------------------------------
Magnitude (a.u.)       :      0.59120
Magnitude (Debye)      :      1.50271

Rotational constants in cm-1:     0.017835     0.008016     0.006947
Rotational constants in MHz :   534.667975   240.321204   208.266780

                             ****ORCA TERMINATED NORMALLY****
TOTAL RUN TIME: 0 days 0 hours 0 minutes 21 seconds 343 msec
