                         Program Version 4.2.1 -  RELEASE  -
|  1> ! wB97X-D3 SP def2-SVP
|  2> %pal
|  3> nprocs 24
|  4> end
|  5>
|  6> * xyz 0 1
|  7> S 	 -54.3244 	 -50.3042 	 -77.9573
|  8> C 	 -53.7377 	 -48.8334 	 -77.1735
|  9> C 	 -52.5217 	 -48.5244 	 -77.6931
| 10> C 	 -52.01 	 -49.4217 	 -78.6735
| 11> C 	 -52.8745 	 -50.4522 	 -78.9053
| 12> H 	 -51.0168 	 -49.3606 	 -79.1197
| 13> C 	 -51.7666 	 -47.284 	 -77.3177
| 14> H 	 -50.7777 	 -47.4433 	 -77.1026
| 15> H 	 -52.2694 	 -46.9484 	 -76.3587
| 16> C 	 -51.8672 	 -46.0602 	 -78.2396
| 17> H 	 -52.8581 	 -45.6657 	 -78.4176
| 18> H 	 -51.3702 	 -45.2195 	 -77.6695
| 19> C 	 -51.197 	 -46.3017 	 -79.5891
| 20> H 	 -51.7464 	 -47.0476 	 -80.1401
| 21> H 	 -51.3845 	 -45.5919 	 -80.2544
| 22> H 	 -50.1715 	 -46.6818 	 -79.5028
| 23> S 	 -54.0923 	 -51.7694 	 -80.9987
| 24> C 	 -53.2597 	 -52.9667 	 -81.8606
| 25> C 	 -51.9125 	 -52.9898 	 -81.5343
| 26> C 	 -51.6403 	 -52.0483 	 -80.5376
| 27> C 	 -52.7562 	 -51.4473 	 -79.9717
| 28> H 	 -51.3371 	 -53.7561 	 -82.049
| 29> C 	 -50.2367 	 -51.983 	 -79.8968
| 30> H 	 -49.7259 	 -52.8843 	 -80.027
| 31> H 	 -50.3429 	 -51.759 	 -78.8686
| 32> C 	 -49.2523 	 -51.0231 	 -80.457
| 33> H 	 -49.8696 	 -50.0619 	 -80.5155
| 34> H 	 -49.1752 	 -51.3319 	 -81.4737
| 35> C 	 -47.9466 	 -50.968 	 -79.6912
| 36> H 	 -48.0726 	 -50.6952 	 -78.6743
| 37> H 	 -47.2871 	 -50.1914 	 -80.2384
| 38> H 	 -47.3772 	 -51.8504 	 -79.6062
| 39> H 	 -54.3265 	 -48.2191 	 -76.5255
| 40> H 	 -53.7348 	 -53.3029 	 -82.7649
| 41> *
| 42>
| 43>                          ****END OF INPUT****

CARTESIAN COORDINATES (ANGSTROEM)
---------------------------------
  S    -54.324400  -50.304200  -77.957300
  C    -53.737700  -48.833400  -77.173500
  C    -52.521700  -48.524400  -77.693100
  C    -52.010000  -49.421700  -78.673500
  C    -52.874500  -50.452200  -78.905300
  H    -51.016800  -49.360600  -79.119700
  C    -51.766600  -47.284000  -77.317700
  H    -50.777700  -47.443300  -77.102600
  H    -52.269400  -46.948400  -76.358700
  C    -51.867200  -46.060200  -78.239600
  H    -52.858100  -45.665700  -78.417600
  H    -51.370200  -45.219500  -77.669500
  C    -51.197000  -46.301700  -79.589100
  H    -51.746400  -47.047600  -80.140100
  H    -51.384500  -45.591900  -80.254400
  H    -50.171500  -46.681800  -79.502800
  S    -54.092300  -51.769400  -80.998700
  C    -53.259700  -52.966700  -81.860600
  C    -51.912500  -52.989800  -81.534300
  C    -51.640300  -52.048300  -80.537600
  C    -52.756200  -51.447300  -79.971700
  H    -51.337100  -53.756100  -82.049000
  C    -50.236700  -51.983000  -79.896800
  H    -49.725900  -52.884300  -80.027000
  H    -50.342900  -51.759000  -78.868600
  C    -49.252300  -51.023100  -80.457000
  H    -49.869600  -50.061900  -80.515500
  H    -49.175200  -51.331900  -81.473700
  C    -47.946600  -50.968000  -79.691200
  H    -48.072600  -50.695200  -78.674300
  H    -47.287100  -50.191400  -80.238400
  H    -47.377200  -51.850400  -79.606200
  H    -54.326500  -48.219100  -76.525500
  H    -53.734800  -53.302900  -82.764900

 Total Charge           Charge          ....    0
 Multiplicity           Mult            ....    1
 Number of Electrons    NEL             ....  134
 Basis Dimension        Dim             ....  322

ORBITAL ENERGIES
----------------

  NO   OCC          E(Eh)            E(eV)
   0   2.0000     -88.965674     -2420.8791
   1   2.0000     -88.963806     -2420.8282
   2   2.0000     -10.330586      -281.1095
   3   2.0000     -10.324736      -280.9504
   4   2.0000     -10.312195      -280.6091
   5   2.0000     -10.310086      -280.5517
   6   2.0000     -10.302203      -280.3372
   7   2.0000     -10.296508      -280.1822
   8   2.0000     -10.294316      -280.1226
   9   2.0000     -10.291488      -280.0456
  10   2.0000     -10.288100      -279.9534
  11   2.0000     -10.285760      -279.8898
  12   2.0000     -10.283603      -279.8311
  13   2.0000     -10.281870      -279.7839
  14   2.0000     -10.274365      -279.5797
  15   2.0000     -10.263527      -279.2848
  16   2.0000      -8.080497      -219.8815
  17   2.0000      -8.080420      -219.8794
  18   2.0000      -6.039095      -164.3321
  19   2.0000      -6.038557      -164.3175
  20   2.0000      -6.034936      -164.2190
  21   2.0000      -6.034506      -164.2073
  22   2.0000      -6.031617      -164.1287
  23   2.0000      -6.031188      -164.1170
  24   2.0000      -1.017733       -27.6939
  25   2.0000      -0.994039       -27.0492
  26   2.0000      -0.921078       -25.0638
  27   2.0000      -0.914397       -24.8820
  28   2.0000      -0.873891       -23.7798
  29   2.0000      -0.856189       -23.2981
  30   2.0000      -0.846449       -23.0330
  31   2.0000      -0.820867       -22.3369
  32   2.0000      -0.790330       -21.5060
  33   2.0000      -0.780303       -21.2331
  34   2.0000      -0.706232       -19.2175
  35   2.0000      -0.704578       -19.1725
  36   2.0000      -0.696098       -18.9418
  37   2.0000      -0.667628       -18.1671
  38   2.0000      -0.641164       -17.4470
  39   2.0000      -0.622531       -16.9399
  40   2.0000      -0.601783       -16.3754
  41   2.0000      -0.580948       -15.8084
  42   2.0000      -0.576308       -15.6821
  43   2.0000      -0.553591       -15.0640
  44   2.0000      -0.539015       -14.6673
  45   2.0000      -0.528464       -14.3802
  46   2.0000      -0.522322       -14.2131
  47   2.0000      -0.514787       -14.0081
  48   2.0000      -0.508277       -13.8309
  49   2.0000      -0.506395       -13.7797
  50   2.0000      -0.496605       -13.5133
  51   2.0000      -0.483963       -13.1693
  52   2.0000      -0.481370       -13.0987
  53   2.0000      -0.470472       -12.8022
  54   2.0000      -0.460897       -12.5416
  55   2.0000      -0.447801       -12.1853
  56   2.0000      -0.447090       -12.1659
  57   2.0000      -0.432648       -11.7730
  58   2.0000      -0.431878       -11.7520
  59   2.0000      -0.422424       -11.4947
  60   2.0000      -0.415908       -11.3174
  61   2.0000      -0.412580       -11.2269
  62   2.0000      -0.407284       -11.0828
  63   2.0000      -0.355732        -9.6799
  64   2.0000      -0.333667        -9.0795
  65   2.0000      -0.331912        -9.0318
  66   2.0000      -0.290410        -7.9025
  67   0.0000       0.025762         0.7010
  68   0.0000       0.077741         2.1154
  69   0.0000       0.116389         3.1671
  70   0.0000       0.119766         3.2590
  71   0.0000       0.129655         3.5281

MULLIKEN ATOMIC CHARGES
-----------------------
   0 S :    0.097929
   1 C :   -0.113733
   2 C :   -0.079681
   3 C :    0.026777
   4 C :   -0.122238
   5 H :   -0.003785
   6 C :    0.078244
   7 H :    0.008684
   8 H :    0.017232
   9 C :   -0.073424
  10 H :    0.019368
  11 H :    0.033521
  12 C :    0.005684
  13 H :    0.017324
  14 H :   -0.006354
  15 H :    0.033498
  16 S :    0.111453
  17 C :   -0.103346
  18 C :   -0.043064
  19 C :   -0.027858
  20 C :   -0.121572
  21 H :    0.028932
  22 C :    0.068613
  23 H :   -0.004071
  24 H :    0.012513
  25 C :   -0.080230
  26 H :    0.027464
  27 H :    0.009025
  28 C :   -0.011215
  29 H :    0.020492
  30 H :    0.049412
  31 H :    0.022725
  32 H :    0.041344
  33 H :    0.060337
Sum of atomic charges:   -0.0000000

LOEWDIN ATOMIC CHARGES
----------------------
   0 S :    0.400235
   1 C :   -0.187512
   2 C :   -0.062328
   3 C :   -0.067129
   4 C :   -0.186535
   5 H :    0.031752
   6 C :   -0.027248
   7 H :    0.016989
   8 H :    0.036711
   9 C :   -0.035081
  10 H :    0.021663
  11 H :    0.028312
  12 C :   -0.065041
  13 H :    0.030684
  14 H :    0.009379
  15 H :    0.027277
  16 S :    0.448745
  17 C :   -0.203407
  18 C :   -0.073402
  19 C :   -0.056643
  20 C :   -0.208340
  21 H :    0.038496
  22 C :   -0.028692
  23 H :    0.019080
  24 H :    0.019585
  25 C :   -0.045578
  26 H :    0.023943
  27 H :    0.018406
  28 C :   -0.061664
  29 H :    0.022014
  30 H :    0.042146
  31 H :    0.021633
  32 H :    0.026946
  33 H :    0.024606

  Mayer bond orders larger than 0.100000
B(  0-S ,  1-C ) :   1.1120 B(  0-S ,  4-C ) :   1.1599 B(  1-C ,  2-C ) :   1.6290
B(  1-C , 32-H ) :   0.9718 B(  2-C ,  3-C ) :   1.2386 B(  2-C ,  6-C ) :   1.0307
B(  3-C ,  4-C ) :   1.5555 B(  3-C ,  5-H ) :   0.9835 B(  4-C , 20-C ) :   1.0358
B(  6-C ,  7-H ) :   0.9387 B(  6-C ,  8-H ) :   0.9360 B(  6-C ,  9-C ) :   1.0757
B(  9-C , 10-H ) :   0.9531 B(  9-C , 11-H ) :   0.9544 B(  9-C , 12-C ) :   1.0912
B( 12-C , 13-H ) :   0.9569 B( 12-C , 14-H ) :   0.9607 B( 12-C , 15-H ) :   0.9734
B( 16-S , 17-C ) :   1.2020 B( 16-S , 20-C ) :   1.1686 B( 17-C , 18-C ) :   1.5473
B( 17-C , 20-C ) :   0.1066 B( 17-C , 33-H ) :   0.9662 B( 18-C , 19-C ) :   1.2796
B( 18-C , 21-H ) :   1.0015 B( 19-C , 20-C ) :   1.5473 B( 19-C , 22-C ) :   1.0444
B( 22-C , 23-H ) :   0.9389 B( 22-C , 24-H ) :   0.9385 B( 22-C , 25-C ) :   1.0566
B( 25-C , 26-H ) :   0.9480 B( 25-C , 27-H ) :   0.9460 B( 25-C , 28-C ) :   1.0759
B( 28-C , 29-H ) :   0.9703 B( 28-C , 30-H ) :   0.9727 B( 28-C , 31-H ) :   0.9710

Dispersion correction           -0.014926214
FINAL SINGLE POINT ENERGY     -1339.852146115536

DIPOLE MOMENT
-------------
                                X             Y             Z
Electronic contribution:    -25.22968     -14.94322      -0.37759
Nuclear contribution   :     25.74729      15.20863       0.19856
                        -----------------------------------------
Total Dipole Moment    :      0.51761       0.26541      -0.17902
                        -----------------------------------------
Magnitude (a.u.)       :      0.60861
Magnitude (Debye)      :      1.54698

Rotational constants in cm-1:     0.016579     0.010526     0.007533
Rotational constants in MHz :   497.022185   315.558050   225.831795

                             ****ORCA TERMINATED NORMALLY****
TOTAL RUN TIME: 0 days 0 hours 0 minutes 21 seconds 501 msec
