                         Program Version 4.2.1 -  RELEASE  -
|  1> ! wB97X-D3 SP def2-SVP
|  2> %pal
|  3> nprocs 24
|  4> end
|  5>
|  6> * xyz 0 1
|  7> S 	 -115.897 	 21.2866 	 -112.826
|  8> C 	 -117.531 	 21.145 	 -113.435
|  9> C 	 -118 	 19.9022 	 -113.131
| 10> C 	 -117.053 	 19.0814 	 -112.414
| 11> C 	 -115.777 	 19.6414 	 -112.303
| 12> H 	 -117.13 	 18.0887 	 -112.021
| 13> C 	 -119.317 	 19.4092 	 -113.596
| 14> H 	 -119.152 	 18.386 	 -113.868
| 15> H 	 -119.575 	 19.9193 	 -114.577
| 16> C 	 -120.538 	 19.6288 	 -112.641
| 17> H 	 -120.33 	 19.2876 	 -111.59
| 18> H 	 -120.616 	 20.7095 	 -112.429
| 19> C 	 -121.815 	 19.0196 	 -113.172
| 20> H 	 -122.738 	 19.4054 	 -112.733
| 21> H 	 -121.888 	 19.2984 	 -114.281
| 22> H 	 -121.881 	 17.9489 	 -113.053
| 23> S 	 -113.767 	 20.1749 	 -110.621
| 24> C 	 -112.858 	 18.8359 	 -109.995
| 25> C 	 -113.139 	 17.5808 	 -110.589
| 26> C 	 -114.229 	 17.7462 	 -111.533
| 27> C 	 -114.728 	 19.04 	 -111.535
| 28> H 	 -112.615 	 16.678 	 -110.325
| 29> C 	 -114.777 	 16.4944 	 -112.294
| 30> H 	 -115.783 	 16.6405 	 -112.497
| 31> H 	 -114.516 	 15.6045 	 -111.657
| 32> C 	 -114.068 	 16.2716 	 -113.649
| 33> H 	 -114.39 	 15.3132 	 -113.944
| 34> H 	 -112.976 	 16.2152 	 -113.428
| 35> C 	 -114.396 	 17.406 	 -114.674
| 36> H 	 -113.92 	 17.295 	 -115.61
| 37> H 	 -114.062 	 18.3121 	 -114.288
| 38> H 	 -115.489 	 17.5391 	 -114.765
| 39> H 	 -118.138 	 21.8519 	 -113.978
| 40> H 	 -112.138 	 18.9873 	 -109.226
| 41> *
| 42>
| 43>                          ****END OF INPUT****

CARTESIAN COORDINATES (ANGSTROEM)
---------------------------------
  S    -115.897000   21.286600  -112.826000
  C    -117.531000   21.145000  -113.435000
  C    -118.000000   19.902200  -113.131000
  C    -117.053000   19.081400  -112.414000
  C    -115.777000   19.641400  -112.303000
  H    -117.130000   18.088700  -112.021000
  C    -119.317000   19.409200  -113.596000
  H    -119.152000   18.386000  -113.868000
  H    -119.575000   19.919300  -114.577000
  C    -120.538000   19.628800  -112.641000
  H    -120.330000   19.287600  -111.590000
  H    -120.616000   20.709500  -112.429000
  C    -121.815000   19.019600  -113.172000
  H    -122.738000   19.405400  -112.733000
  H    -121.888000   19.298400  -114.281000
  H    -121.881000   17.948900  -113.053000
  S    -113.767000   20.174900  -110.621000
  C    -112.858000   18.835900  -109.995000
  C    -113.139000   17.580800  -110.589000
  C    -114.229000   17.746200  -111.533000
  C    -114.728000   19.040000  -111.535000
  H    -112.615000   16.678000  -110.325000
  C    -114.777000   16.494400  -112.294000
  H    -115.783000   16.640500  -112.497000
  H    -114.516000   15.604500  -111.657000
  C    -114.068000   16.271600  -113.649000
  H    -114.390000   15.313200  -113.944000
  H    -112.976000   16.215200  -113.428000
  C    -114.396000   17.406000  -114.674000
  H    -113.920000   17.295000  -115.610000
  H    -114.062000   18.312100  -114.288000
  H    -115.489000   17.539100  -114.765000
  H    -118.138000   21.851900  -113.978000
  H    -112.138000   18.987300  -109.226000

 Total Charge           Charge          ....    0
 Multiplicity           Mult            ....    1
 Number of Electrons    NEL             ....  134
 Basis Dimension        Dim             ....  322

ORBITAL ENERGIES
----------------

  NO   OCC          E(Eh)            E(eV)
   0   2.0000     -88.969339     -2420.9788
   1   2.0000     -88.965986     -2420.8876
   2   2.0000     -10.326990      -281.0117
   3   2.0000     -10.326523      -280.9990
   4   2.0000     -10.319192      -280.7995
   5   2.0000     -10.311084      -280.5789
   6   2.0000     -10.309549      -280.5371
   7   2.0000     -10.302247      -280.3384
   8   2.0000     -10.298024      -280.2235
   9   2.0000     -10.294852      -280.1372
  10   2.0000     -10.292940      -280.0851
  11   2.0000     -10.292217      -280.0655
  12   2.0000     -10.290403      -280.0161
  13   2.0000     -10.285223      -279.8752
  14   2.0000     -10.282800      -279.8092
  15   2.0000     -10.265818      -279.3471
  16   2.0000      -8.084625      -219.9938
  17   2.0000      -8.080743      -219.8882
  18   2.0000      -6.042927      -164.4364
  19   2.0000      -6.039385      -164.3400
  20   2.0000      -6.039255      -164.3365
  21   2.0000      -6.035365      -164.2306
  22   2.0000      -6.035181      -164.2256
  23   2.0000      -6.031411      -164.1230
  24   2.0000      -1.011223       -27.5168
  25   2.0000      -0.985069       -26.8051
  26   2.0000      -0.911174       -24.7943
  27   2.0000      -0.907483       -24.6939
  28   2.0000      -0.873056       -23.7571
  29   2.0000      -0.850271       -23.1371
  30   2.0000      -0.844429       -22.9781
  31   2.0000      -0.811125       -22.0718
  32   2.0000      -0.784722       -21.3534
  33   2.0000      -0.771882       -21.0040
  34   2.0000      -0.708389       -19.2763
  35   2.0000      -0.702456       -19.1148
  36   2.0000      -0.694814       -18.9069
  37   2.0000      -0.668694       -18.1961
  38   2.0000      -0.641192       -17.4477
  39   2.0000      -0.616060       -16.7638
  40   2.0000      -0.595614       -16.2075
  41   2.0000      -0.570548       -15.5254
  42   2.0000      -0.556220       -15.1355
  43   2.0000      -0.550173       -14.9710
  44   2.0000      -0.543374       -14.7860
  45   2.0000      -0.522643       -14.2218
  46   2.0000      -0.519838       -14.1455
  47   2.0000      -0.509097       -13.8532
  48   2.0000      -0.505753       -13.7622
  49   2.0000      -0.503401       -13.6982
  50   2.0000      -0.497502       -13.5377
  51   2.0000      -0.479279       -13.0418
  52   2.0000      -0.466322       -12.6893
  53   2.0000      -0.464602       -12.6425
  54   2.0000      -0.458037       -12.4638
  55   2.0000      -0.454625       -12.3710
  56   2.0000      -0.446720       -12.1559
  57   2.0000      -0.436454       -11.8765
  58   2.0000      -0.433080       -11.7847
  59   2.0000      -0.428425       -11.6580
  60   2.0000      -0.419271       -11.4090
  61   2.0000      -0.415142       -11.2966
  62   2.0000      -0.407585       -11.0910
  63   2.0000      -0.357283        -9.7222
  64   2.0000      -0.335156        -9.1201
  65   2.0000      -0.325334        -8.8528
  66   2.0000      -0.283935        -7.7263
  67   0.0000       0.024757         0.6737
  68   0.0000       0.073442         1.9985
  69   0.0000       0.101635         2.7656
  70   0.0000       0.109906         2.9907
  71   0.0000       0.142115         3.8672

MULLIKEN ATOMIC CHARGES
-----------------------
   0 S :    0.096728
   1 C :   -0.099552
   2 C :   -0.072693
   3 C :   -0.003334
   4 C :   -0.126090
   5 H :    0.011670
   6 C :    0.042043
   7 H :    0.020333
   8 H :    0.025844
   9 C :   -0.071853
  10 H :    0.030001
  11 H :    0.024219
  12 C :   -0.043186
  13 H :    0.032975
  14 H :    0.031699
  15 H :    0.037217
  16 S :    0.115943
  17 C :   -0.086113
  18 C :   -0.023698
  19 C :   -0.073259
  20 C :   -0.151965
  21 H :    0.021925
  22 C :    0.078141
  23 H :   -0.002801
  24 H :    0.037284
  25 C :   -0.058921
  26 H :    0.018913
  27 H :    0.028563
  28 C :   -0.008728
  29 H :    0.028504
  30 H :    0.021321
  31 H :    0.029787
  32 H :    0.042490
  33 H :    0.046594
Sum of atomic charges:   -0.0000000

LOEWDIN ATOMIC CHARGES
----------------------
   0 S :    0.405467
   1 C :   -0.197985
   2 C :   -0.066828
   3 C :   -0.068403
   4 C :   -0.200243
   5 H :    0.024923
   6 C :   -0.034959
   7 H :    0.026336
   8 H :    0.035405
   9 C :   -0.048792
  10 H :    0.027530
  11 H :    0.025755
  12 C :   -0.071512
  13 H :    0.027393
  14 H :    0.032132
  15 H :    0.024468
  16 S :    0.416679
  17 C :   -0.179112
  18 C :   -0.064611
  19 C :   -0.050363
  20 C :   -0.200138
  21 H :    0.032140
  22 C :   -0.019964
  23 H :    0.011956
  24 H :    0.038835
  25 C :   -0.029765
  26 H :    0.013587
  27 H :    0.025589
  28 C :   -0.056451
  29 H :    0.021120
  30 H :    0.019297
  31 H :    0.029215
  32 H :    0.033167
  33 H :    0.018131

  Mayer bond orders larger than 0.100000
B(  0-S ,  1-C ) :   1.1197 B(  0-S ,  4-C ) :   1.1471 B(  1-C ,  2-C ) :   1.6113
B(  1-C , 32-H ) :   0.9704 B(  2-C ,  3-C ) :   1.2306 B(  2-C ,  6-C ) :   1.0308
B(  3-C ,  4-C ) :   1.5491 B(  3-C ,  5-H ) :   0.9967 B(  4-C , 20-C ) :   1.0823
B(  6-C ,  7-H ) :   0.9438 B(  6-C ,  8-H ) :   0.9390 B(  6-C ,  9-C ) :   1.0501
B(  9-C , 10-H ) :   0.9550 B(  9-C , 11-H ) :   0.9540 B(  9-C , 12-C ) :   1.0774
B( 12-C , 13-H ) :   0.9730 B( 12-C , 14-H ) :   0.9715 B( 12-C , 15-H ) :   0.9760
B( 16-S , 17-C ) :   1.1700 B( 16-S , 20-C ) :   1.1293 B( 17-C , 18-C ) :   1.5994
B( 17-C , 33-H ) :   0.9724 B( 18-C , 19-C ) :   1.2316 B( 18-C , 21-H ) :   0.9922
B( 19-C , 20-C ) :   1.6006 B( 19-C , 22-C ) :   1.0278 B( 22-C , 23-H ) :   0.9347
B( 22-C , 24-H ) :   0.9381 B( 22-C , 25-C ) :   1.0770 B( 25-C , 26-H ) :   0.9581
B( 25-C , 27-H ) :   0.9559 B( 25-C , 28-C ) :   1.0688 B( 28-C , 29-H ) :   0.9741
B( 28-C , 30-H ) :   0.9715 B( 28-C , 31-H ) :   0.9739

Dispersion correction           -0.015022665
FINAL SINGLE POINT ENERGY     -1339.873118745759

DIPOLE MOMENT
-------------
                                X             Y             Z
Electronic contribution:     18.25704      15.79216      11.44383
Nuclear contribution   :    -18.52111     -16.32396     -11.49143
                        -----------------------------------------
Total Dipole Moment    :     -0.26406      -0.53180      -0.04760
                        -----------------------------------------
Magnitude (a.u.)       :      0.59565
Magnitude (Debye)      :      1.51403

Rotational constants in cm-1:     0.020802     0.008178     0.007033
Rotational constants in MHz :   623.635020   245.167177   210.837546

                             ****ORCA TERMINATED NORMALLY****
TOTAL RUN TIME: 0 days 0 hours 0 minutes 20 seconds 976 msec
