                         Program Version 4.2.1 -  RELEASE  -
|  1> ! wB97X-D3 SP def2-SVP
|  2> %pal
|  3> nprocs 24
|  4> end
|  5>
|  6> * xyz 0 1
|  7> S 	 -126.502 	 27.2145 	 -111.187
|  8> C 	 -125.395 	 25.9459 	 -111.771
|  9> C 	 -125.004 	 26.2395 	 -113.067
| 10> C 	 -125.822 	 27.2796 	 -113.673
| 11> C 	 -126.694 	 27.8474 	 -112.768
| 12> H 	 -125.69 	 27.7199 	 -114.636
| 13> C 	 -123.841 	 25.5146 	 -113.825
| 14> H 	 -123.868 	 25.7796 	 -114.878
| 15> H 	 -123.852 	 24.4781 	 -113.721
| 16> C 	 -122.458 	 25.9678 	 -113.372
| 17> H 	 -122.423 	 25.7209 	 -112.277
| 18> H 	 -121.698 	 25.3307 	 -113.91
| 19> C 	 -122.024 	 27.4497 	 -113.512
| 20> H 	 -122.097 	 27.7969 	 -114.522
| 21> H 	 -122.712 	 28.0636 	 -112.989
| 22> H 	 -121.024 	 27.7727 	 -113.218
| 23> S 	 -128.198 	 29.0316 	 -114.733
| 24> C 	 -129.299 	 30.372 	 -114.282
| 25> C 	 -129.326 	 30.5375 	 -112.92
| 26> C 	 -128.332 	 29.7933 	 -112.196
| 27> C 	 -127.714 	 28.8696 	 -113.053
| 28> H 	 -130.019 	 31.2595 	 -112.443
| 29> C 	 -128.229 	 29.9997 	 -110.694
| 30> H 	 -128.297 	 31.075 	 -110.48
| 31> H 	 -127.244 	 29.6921 	 -110.328
| 32> C 	 -129.247 	 29.2051 	 -109.869
| 33> H 	 -129.439 	 28.1533 	 -110.221
| 34> H 	 -130.116 	 29.7991 	 -110.129
| 35> C 	 -129.147 	 29.2761 	 -108.382
| 36> H 	 -128.339 	 28.6113 	 -108.026
| 37> H 	 -130.106 	 28.9615 	 -107.956
| 38> H 	 -129.007 	 30.3105 	 -108.047
| 39> H 	 -124.795 	 25.2899 	 -111.126
| 40> H 	 -129.82 	 30.9894 	 -114.926
| 41> *
| 42>
| 43>                          ****END OF INPUT****

CARTESIAN COORDINATES (ANGSTROEM)
---------------------------------
  S    -126.502000   27.214500  -111.187000
  C    -125.395000   25.945900  -111.771000
  C    -125.004000   26.239500  -113.067000
  C    -125.822000   27.279600  -113.673000
  C    -126.694000   27.847400  -112.768000
  H    -125.690000   27.719900  -114.636000
  C    -123.841000   25.514600  -113.825000
  H    -123.868000   25.779600  -114.878000
  H    -123.852000   24.478100  -113.721000
  C    -122.458000   25.967800  -113.372000
  H    -122.423000   25.720900  -112.277000
  H    -121.698000   25.330700  -113.910000
  C    -122.024000   27.449700  -113.512000
  H    -122.097000   27.796900  -114.522000
  H    -122.712000   28.063600  -112.989000
  H    -121.024000   27.772700  -113.218000
  S    -128.198000   29.031600  -114.733000
  C    -129.299000   30.372000  -114.282000
  C    -129.326000   30.537500  -112.920000
  C    -128.332000   29.793300  -112.196000
  C    -127.714000   28.869600  -113.053000
  H    -130.019000   31.259500  -112.443000
  C    -128.229000   29.999700  -110.694000
  H    -128.297000   31.075000  -110.480000
  H    -127.244000   29.692100  -110.328000
  C    -129.247000   29.205100  -109.869000
  H    -129.439000   28.153300  -110.221000
  H    -130.116000   29.799100  -110.129000
  C    -129.147000   29.276100  -108.382000
  H    -128.339000   28.611300  -108.026000
  H    -130.106000   28.961500  -107.956000
  H    -129.007000   30.310500  -108.047000
  H    -124.795000   25.289900  -111.126000
  H    -129.820000   30.989400  -114.926000

 Total Charge           Charge          ....    0
 Multiplicity           Mult            ....    1
 Number of Electrons    NEL             ....  134
 Basis Dimension        Dim             ....  322

ORBITAL ENERGIES
----------------

  NO   OCC          E(Eh)            E(eV)
   0   2.0000     -88.970168     -2421.0013
   1   2.0000     -88.968955     -2420.9684
   2   2.0000     -10.333655      -281.1931
   3   2.0000     -10.330830      -281.1162
   4   2.0000     -10.316778      -280.7338
   5   2.0000     -10.315897      -280.7098
   6   2.0000     -10.310161      -280.5538
   7   2.0000     -10.307362      -280.4776
   8   2.0000     -10.297595      -280.2118
   9   2.0000     -10.295056      -280.1427
  10   2.0000     -10.293920      -280.1118
  11   2.0000     -10.293540      -280.1015
  12   2.0000     -10.292804      -280.0814
  13   2.0000     -10.282864      -279.8109
  14   2.0000     -10.278008      -279.6788
  15   2.0000     -10.270855      -279.4842
  16   2.0000      -8.083847      -219.9727
  17   2.0000      -8.083216      -219.9555
  18   2.0000      -6.042475      -164.4241
  19   2.0000      -6.041808      -164.4059
  20   2.0000      -6.038657      -164.3202
  21   2.0000      -6.037884      -164.2992
  22   2.0000      -6.034401      -164.2044
  23   2.0000      -6.033829      -164.1888
  24   2.0000      -1.006732       -27.3946
  25   2.0000      -0.981220       -26.7004
  26   2.0000      -0.913183       -24.8490
  27   2.0000      -0.909574       -24.7508
  28   2.0000      -0.867699       -23.6113
  29   2.0000      -0.854772       -23.2595
  30   2.0000      -0.840603       -22.8740
  31   2.0000      -0.814030       -22.1509
  32   2.0000      -0.791000       -21.5242
  33   2.0000      -0.776455       -21.1284
  34   2.0000      -0.702357       -19.1121
  35   2.0000      -0.697243       -18.9729
  36   2.0000      -0.688403       -18.7324
  37   2.0000      -0.665695       -18.1145
  38   2.0000      -0.636251       -17.3133
  39   2.0000      -0.611632       -16.6433
  40   2.0000      -0.599661       -16.3176
  41   2.0000      -0.574744       -15.6396
  42   2.0000      -0.569744       -15.5035
  43   2.0000      -0.551636       -15.0108
  44   2.0000      -0.541428       -14.7330
  45   2.0000      -0.523556       -14.2467
  46   2.0000      -0.517278       -14.0758
  47   2.0000      -0.513175       -13.9642
  48   2.0000      -0.505711       -13.7611
  49   2.0000      -0.490524       -13.3478
  50   2.0000      -0.489109       -13.3093
  51   2.0000      -0.483076       -13.1452
  52   2.0000      -0.471214       -12.8224
  53   2.0000      -0.467043       -12.7089
  54   2.0000      -0.462987       -12.5985
  55   2.0000      -0.456981       -12.4351
  56   2.0000      -0.448226       -12.1968
  57   2.0000      -0.436790       -11.8857
  58   2.0000      -0.433222       -11.7886
  59   2.0000      -0.427594       -11.6354
  60   2.0000      -0.414230       -11.2718
  61   2.0000      -0.412473       -11.2240
  62   2.0000      -0.401263       -10.9189
  63   2.0000      -0.358064        -9.7434
  64   2.0000      -0.333999        -9.0886
  65   2.0000      -0.330948        -9.0055
  66   2.0000      -0.285913        -7.7801
  67   0.0000       0.017785         0.4840
  68   0.0000       0.079561         2.1650
  69   0.0000       0.097218         2.6454
  70   0.0000       0.115918         3.1543
  71   0.0000       0.130075         3.5395

MULLIKEN ATOMIC CHARGES
-----------------------
   0 S :    0.093218
   1 C :   -0.117447
   2 C :   -0.105205
   3 C :   -0.010400
   4 C :   -0.105385
   5 H :    0.012597
   6 C :    0.118554
   7 H :    0.018813
   8 H :    0.025436
   9 C :   -0.122807
  10 H :    0.026237
  11 H :    0.038966
  12 C :   -0.028101
  13 H :    0.011252
  14 H :    0.026546
  15 H :    0.035740
  16 S :    0.095385
  17 C :   -0.057132
  18 C :   -0.036322
  19 C :   -0.067756
  20 C :   -0.109047
  21 H :    0.032161
  22 C :    0.049550
  23 H :    0.030418
  24 H :    0.014581
  25 C :   -0.093763
  26 H :    0.048330
  27 H :    0.008870
  28 C :   -0.020203
  29 H :    0.040771
  30 H :    0.035432
  31 H :    0.023741
  32 H :    0.058609
  33 H :    0.028360
Sum of atomic charges:   -0.0000000

LOEWDIN ATOMIC CHARGES
----------------------
   0 S :    0.420024
   1 C :   -0.201501
   2 C :   -0.048648
   3 C :   -0.079851
   4 C :   -0.189855
   5 H :    0.023780
   6 C :   -0.021752
   7 H :    0.028948
   8 H :    0.027072
   9 C :   -0.043343
  10 H :    0.022210
  11 H :    0.027432
  12 C :   -0.069558
  13 H :    0.019434
  14 H :    0.022146
  15 H :    0.030283
  16 S :    0.392856
  17 C :   -0.163235
  18 C :   -0.064384
  19 C :   -0.058954
  20 C :   -0.184879
  21 H :    0.036080
  22 C :   -0.038411
  23 H :    0.033895
  24 H :    0.014303
  25 C :   -0.052172
  26 H :    0.030812
  27 H :    0.020407
  28 C :   -0.063737
  29 H :    0.027629
  30 H :    0.030846
  31 H :    0.025131
  32 H :    0.031474
  33 H :    0.015515

  Mayer bond orders larger than 0.100000
B(  0-S ,  1-C ) :   1.1165 B(  0-S ,  4-C ) :   1.1587 B(  1-C ,  2-C ) :   1.6325
B(  1-C , 32-H ) :   0.9618 B(  2-C ,  3-C ) :   1.2313 B(  2-C ,  6-C ) :   1.0138
B(  3-C ,  4-C ) :   1.5588 B(  3-C ,  5-H ) :   0.9887 B(  4-C , 20-C ) :   1.0682
B(  6-C ,  7-H ) :   0.9428 B(  6-C ,  8-H ) :   0.9418 B(  6-C ,  9-C ) :   1.0716
B(  9-C , 10-H ) :   0.9582 B(  9-C , 11-H ) :   0.9574 B(  9-C , 12-C ) :   1.0677
B( 12-C , 13-H ) :   0.9733 B( 12-C , 14-H ) :   0.9737 B( 12-C , 15-H ) :   0.9758
B( 16-S , 17-C ) :   1.1229 B( 16-S , 20-C ) :   1.1393 B( 17-C , 18-C ) :   1.6388
B( 17-C , 33-H ) :   0.9767 B( 18-C , 19-C ) :   1.2296 B( 18-C , 21-H ) :   0.9767
B( 19-C , 20-C ) :   1.5771 B( 19-C , 22-C ) :   1.0558 B( 22-C , 23-H ) :   0.9293
B( 22-C , 24-H ) :   0.9295 B( 22-C , 25-C ) :   1.0493 B( 25-C , 26-H ) :   0.9541
B( 25-C , 27-H ) :   0.9516 B( 25-C , 28-C ) :   1.0969 B( 28-C , 29-H ) :   0.9728
B( 28-C , 30-H ) :   0.9706 B( 28-C , 31-H ) :   0.9688

Dispersion correction           -0.014406716
FINAL SINGLE POINT ENERGY     -1339.877701857907

DIPOLE MOMENT
-------------
                                X             Y             Z
Electronic contribution:    -10.42273       0.18517     -10.31040
Nuclear contribution   :     10.56641       0.04855      10.42456
                        -----------------------------------------
Total Dipole Moment    :      0.14368       0.23373       0.11416
                        -----------------------------------------
Magnitude (a.u.)       :      0.29716
Magnitude (Debye)      :      0.75533

Rotational constants in cm-1:     0.020262     0.008491     0.006590
Rotational constants in MHz :   607.453475   254.541946   197.574264

                             ****ORCA TERMINATED NORMALLY****
TOTAL RUN TIME: 0 days 0 hours 0 minutes 20 seconds 156 msec
