                         Program Version 4.2.1 -  RELEASE  -
|  1> ! wB97X-D3 SP def2-SVP
|  2> %pal
|  3> nprocs 24
|  4> end
|  5>
|  6> * xyz 0 1
|  7> S 	 -111.989 	 60.8763 	 -74.2831
|  8> C 	 -110.501 	 61.6064 	 -74.4874
|  9> C 	 -110.353 	 62.8379 	 -73.9126
| 10> C 	 -111.616 	 63.2456 	 -73.2992
| 11> C 	 -112.631 	 62.2937 	 -73.4661
| 12> H 	 -111.783 	 64.1801 	 -72.7802
| 13> C 	 -109.094 	 63.6462 	 -74.0258
| 14> H 	 -108.252 	 63.0944 	 -73.714
| 15> H 	 -109.261 	 64.4505 	 -73.3705
| 16> C 	 -108.751 	 64.2812 	 -75.4136
| 17> H 	 -107.863 	 64.8827 	 -75.6572
| 18> H 	 -108.736 	 63.405 	 -76.0896
| 19> C 	 -109.96 	 65.1509 	 -75.9265
| 20> H 	 -110.931 	 64.7868 	 -75.6993
| 21> H 	 -109.742 	 66.1563 	 -75.529
| 22> H 	 -109.9 	 65.2976 	 -77.0131
| 23> S 	 -114.343 	 63.1528 	 -71.3562
| 24> C 	 -116.02 	 62.9123 	 -71.4817
| 25> C 	 -116.345 	 62.0263 	 -72.4621
| 26> C 	 -115.263 	 61.838 	 -73.4022
| 27> C 	 -114.051 	 62.312 	 -72.9719
| 28> H 	 -117.395 	 61.6739 	 -72.6335
| 29> C 	 -115.416 	 61.0227 	 -74.6808
| 30> H 	 -114.761 	 61.4204 	 -75.466
| 31> H 	 -116.397 	 61.3263 	 -74.9887
| 32> C 	 -115.326 	 59.4925 	 -74.5912
| 33> H 	 -116.238 	 59.2549 	 -74.0813
| 34> H 	 -114.474 	 59.2585 	 -74.0243
| 35> C 	 -115.225 	 58.8359 	 -76.0354
| 36> H 	 -116.002 	 59.2117 	 -76.7164
| 37> H 	 -115.228 	 57.7938 	 -75.9643
| 38> H 	 -114.357 	 59.165 	 -76.5351
| 39> H 	 -109.722 	 61.2322 	 -75.1619
| 40> H 	 -116.731 	 63.2413 	 -70.7734
| 41> *
| 42>
| 43>                          ****END OF INPUT****

CARTESIAN COORDINATES (ANGSTROEM)
---------------------------------
  S    -111.989000   60.876300  -74.283100
  C    -110.501000   61.606400  -74.487400
  C    -110.353000   62.837900  -73.912600
  C    -111.616000   63.245600  -73.299200
  C    -112.631000   62.293700  -73.466100
  H    -111.783000   64.180100  -72.780200
  C    -109.094000   63.646200  -74.025800
  H    -108.252000   63.094400  -73.714000
  H    -109.261000   64.450500  -73.370500
  C    -108.751000   64.281200  -75.413600
  H    -107.863000   64.882700  -75.657200
  H    -108.736000   63.405000  -76.089600
  C    -109.960000   65.150900  -75.926500
  H    -110.931000   64.786800  -75.699300
  H    -109.742000   66.156300  -75.529000
  H    -109.900000   65.297600  -77.013100
  S    -114.343000   63.152800  -71.356200
  C    -116.020000   62.912300  -71.481700
  C    -116.345000   62.026300  -72.462100
  C    -115.263000   61.838000  -73.402200
  C    -114.051000   62.312000  -72.971900
  H    -117.395000   61.673900  -72.633500
  C    -115.416000   61.022700  -74.680800
  H    -114.761000   61.420400  -75.466000
  H    -116.397000   61.326300  -74.988700
  C    -115.326000   59.492500  -74.591200
  H    -116.238000   59.254900  -74.081300
  H    -114.474000   59.258500  -74.024300
  C    -115.225000   58.835900  -76.035400
  H    -116.002000   59.211700  -76.716400
  H    -115.228000   57.793800  -75.964300
  H    -114.357000   59.165000  -76.535100
  H    -109.722000   61.232200  -75.161900
  H    -116.731000   63.241300  -70.773400

 Total Charge           Charge          ....    0
 Multiplicity           Mult            ....    1
 Number of Electrons    NEL             ....  134
 Basis Dimension        Dim             ....  322

ORBITAL ENERGIES
----------------

  NO   OCC          E(Eh)            E(eV)
   0   2.0000     -88.971165     -2421.0285
   1   2.0000     -88.960633     -2420.7419
   2   2.0000     -10.339167      -281.3430
   3   2.0000     -10.335029      -281.2304
   4   2.0000     -10.313033      -280.6319
   5   2.0000     -10.308784      -280.5163
   6   2.0000     -10.304971      -280.4125
   7   2.0000     -10.304087      -280.3885
   8   2.0000     -10.302843      -280.3546
   9   2.0000     -10.296539      -280.1831
  10   2.0000     -10.293087      -280.0891
  11   2.0000     -10.288214      -279.9565
  12   2.0000     -10.285811      -279.8911
  13   2.0000     -10.283281      -279.8223
  14   2.0000     -10.273676      -279.5609
  15   2.0000     -10.272936      -279.5408
  16   2.0000      -8.086688      -220.0500
  17   2.0000      -8.075401      -219.7428
  18   2.0000      -6.045071      -164.4947
  19   2.0000      -6.041030      -164.3848
  20   2.0000      -6.037605      -164.2916
  21   2.0000      -6.033951      -164.1922
  22   2.0000      -6.030034      -164.0856
  23   2.0000      -6.025977      -163.9752
  24   2.0000      -1.008155       -27.4333
  25   2.0000      -0.989126       -26.9155
  26   2.0000      -0.911845       -24.8126
  27   2.0000      -0.906222       -24.6596
  28   2.0000      -0.866447       -23.5772
  29   2.0000      -0.849870       -23.1261
  30   2.0000      -0.845274       -23.0011
  31   2.0000      -0.813371       -22.1330
  32   2.0000      -0.785038       -21.3620
  33   2.0000      -0.774862       -21.0851
  34   2.0000      -0.709591       -19.3090
  35   2.0000      -0.701995       -19.1023
  36   2.0000      -0.695903       -18.9365
  37   2.0000      -0.662593       -18.0301
  38   2.0000      -0.643227       -17.5031
  39   2.0000      -0.607746       -16.5376
  40   2.0000      -0.595236       -16.1972
  41   2.0000      -0.576811       -15.6958
  42   2.0000      -0.565783       -15.3957
  43   2.0000      -0.554632       -15.0923
  44   2.0000      -0.549406       -14.9501
  45   2.0000      -0.528015       -14.3680
  46   2.0000      -0.512961       -13.9584
  47   2.0000      -0.507029       -13.7970
  48   2.0000      -0.504273       -13.7220
  49   2.0000      -0.496573       -13.5124
  50   2.0000      -0.486987       -13.2516
  51   2.0000      -0.479091       -13.0367
  52   2.0000      -0.469509       -12.7760
  53   2.0000      -0.466411       -12.6917
  54   2.0000      -0.462573       -12.5873
  55   2.0000      -0.453689       -12.3455
  56   2.0000      -0.447503       -12.1772
  57   2.0000      -0.442319       -12.0361
  58   2.0000      -0.433555       -11.7976
  59   2.0000      -0.426769       -11.6130
  60   2.0000      -0.423693       -11.5293
  61   2.0000      -0.407874       -11.0988
  62   2.0000      -0.405592       -11.0367
  63   2.0000      -0.355172        -9.6647
  64   2.0000      -0.333035        -9.0624
  65   2.0000      -0.328283        -8.9330
  66   2.0000      -0.292820        -7.9680
  67   0.0000       0.024909         0.6778
  68   0.0000       0.080175         2.1817
  69   0.0000       0.102212         2.7813
  70   0.0000       0.115932         3.1547
  71   0.0000       0.122072         3.3217

MULLIKEN ATOMIC CHARGES
-----------------------
   0 S :    0.120459
   1 C :   -0.103751
   2 C :   -0.144521
   3 C :    0.022294
   4 C :   -0.146017
   5 H :    0.019214
   6 C :    0.145643
   7 H :    0.030760
   8 H :    0.002345
   9 C :   -0.093220
  10 H :    0.044754
  11 H :    0.017380
  12 C :   -0.080539
  13 H :    0.047356
  14 H :    0.029163
  15 H :    0.028760
  16 S :    0.079636
  17 C :   -0.060708
  18 C :   -0.044727
  19 C :   -0.084187
  20 C :   -0.108484
  21 H :    0.036570
  22 C :    0.021484
  23 H :    0.024400
  24 H :    0.007105
  25 C :   -0.016683
  26 H :    0.022822
  27 H :    0.023462
  28 C :   -0.018027
  29 H :    0.025698
  30 H :    0.032560
  31 H :    0.016689
  32 H :    0.054887
  33 H :    0.047424
Sum of atomic charges:    0.0000000

LOEWDIN ATOMIC CHARGES
----------------------
   0 S :    0.449233
   1 C :   -0.217842
   2 C :   -0.066372
   3 C :   -0.058192
   4 C :   -0.192007
   5 H :    0.030421
   6 C :   -0.023539
   7 H :    0.028965
   8 H :    0.023221
   9 C :   -0.040867
  10 H :    0.030655
  11 H :    0.016955
  12 C :   -0.067828
  13 H :    0.019904
  14 H :    0.024905
  15 H :    0.025763
  16 S :    0.378321
  17 C :   -0.182708
  18 C :   -0.082521
  19 C :   -0.057450
  20 C :   -0.167123
  21 H :    0.038696
  22 C :   -0.038720
  23 H :    0.025155
  24 H :    0.024013
  25 C :   -0.024296
  26 H :    0.022389
  27 H :    0.010720
  28 C :   -0.054287
  29 H :    0.028421
  30 H :    0.019268
  31 H :    0.019460
  32 H :    0.032231
  33 H :    0.025056

  Mayer bond orders larger than 0.100000
B(  0-S ,  1-C ) :   1.1662 B(  0-S ,  4-C ) :   1.1577 B(  1-C ,  2-C ) :   1.6065
B(  1-C , 32-H ) :   0.9575 B(  2-C ,  3-C ) :   1.2499 B(  2-C ,  6-C ) :   1.0274
B(  3-C ,  4-C ) :   1.5573 B(  3-C ,  5-H ) :   0.9920 B(  4-C , 20-C ) :   1.0372
B(  6-C ,  7-H ) :   0.9391 B(  6-C ,  8-H ) :   0.9324 B(  6-C ,  9-C ) :   1.0490
B(  9-C , 10-H ) :   0.9649 B(  9-C , 11-H ) :   0.9615 B(  9-C , 12-C ) :   1.0658
B( 12-C , 13-H ) :   0.9785 B( 12-C , 14-H ) :   0.9797 B( 12-C , 15-H ) :   0.9755
B( 16-S , 17-C ) :   1.1669 B( 16-S , 20-C ) :   1.0968 B( 17-C , 18-C ) :   1.6254
B( 17-C , 33-H ) :   0.9666 B( 18-C , 19-C ) :   1.2214 B( 18-C , 21-H ) :   0.9776
B( 19-C , 20-C ) :   1.6331 B( 19-C , 22-C ) :   1.0447 B( 22-C , 23-H ) :   0.9413
B( 22-C , 24-H ) :   0.9252 B( 22-C , 25-C ) :   1.0522 B( 25-C , 26-H ) :   0.9552
B( 25-C , 27-H ) :   0.9587 B( 25-C , 28-C ) :   1.0749 B( 28-C , 29-H ) :   0.9756
B( 28-C , 30-H ) :   0.9769 B( 28-C , 31-H ) :   0.9741

Dispersion correction           -0.014695112
FINAL SINGLE POINT ENERGY     -1339.867098430280

DIPOLE MOMENT
-------------
                                X             Y             Z
Electronic contribution:     -4.96081      -0.42093      17.06164
Nuclear contribution   :      4.97631       0.44496     -17.38659
                        -----------------------------------------
Total Dipole Moment    :      0.01549       0.02403      -0.32495
                        -----------------------------------------
Magnitude (a.u.)       :      0.32621
Magnitude (Debye)      :      0.82915

Rotational constants in cm-1:     0.019324     0.008628     0.006682
Rotational constants in MHz :   579.327168   258.674934   200.316214

                             ****ORCA TERMINATED NORMALLY****
TOTAL RUN TIME: 0 days 0 hours 0 minutes 21 seconds 379 msec
