                         Program Version 4.2.1 -  RELEASE  -
|  1> ! wB97X-D3 SP def2-SVP
|  2> %pal
|  3> nprocs 24
|  4> end
|  5>
|  6> * xyz 0 1
|  7> S 	 -109.914 	 26.5355 	 -113.464
|  8> C 	 -109.352 	 25.3118 	 -112.342
|  9> C 	 -109.947 	 24.0448 	 -112.556
| 10> C 	 -110.879 	 24.1232 	 -113.649
| 11> C 	 -110.985 	 25.3576 	 -114.246
| 12> H 	 -111.486 	 23.2736 	 -113.889
| 13> C 	 -109.768 	 22.7313 	 -111.698
| 14> H 	 -110.2 	 21.9543 	 -112.35
| 15> H 	 -110.418 	 22.7184 	 -110.758
| 16> C 	 -108.267 	 22.3659 	 -111.349
| 17> H 	 -107.801 	 23.1226 	 -110.74
| 18> H 	 -108.408 	 21.3873 	 -110.849
| 19> C 	 -107.274 	 22.2326 	 -112.478
| 20> H 	 -107.035 	 23.1952 	 -112.887
| 21> H 	 -106.391 	 21.8259 	 -111.981
| 22> H 	 -107.527 	 21.5378 	 -113.229
| 23> S 	 -113.339 	 26.8856 	 -114.554
| 24> C 	 -114.116 	 26.8486 	 -116.096
| 25> C 	 -113.605 	 25.8749 	 -116.906
| 26> C 	 -112.392 	 25.3019 	 -116.382
| 27> C 	 -112.11 	 25.7468 	 -115.119
| 28> H 	 -114.035 	 25.6147 	 -117.87
| 29> C 	 -111.492 	 24.3618 	 -117.245
| 30> H 	 -112.043 	 23.4215 	 -117.272
| 31> H 	 -110.575 	 24.1257 	 -116.611
| 32> C 	 -111.093 	 24.8604 	 -118.652
| 33> H 	 -111.975 	 25.0242 	 -119.27
| 34> H 	 -110.446 	 24.113 	 -119.033
| 35> C 	 -110.357 	 26.2365 	 -118.608
| 36> H 	 -111.1 	 26.9986 	 -118.389
| 37> H 	 -109.854 	 26.4831 	 -119.525
| 38> H 	 -109.694 	 26.1991 	 -117.772
| 39> H 	 -108.635 	 25.4864 	 -111.529
| 40> H 	 -115.077 	 27.3438 	 -116.225
| 41> *
| 42>
| 43>                          ****END OF INPUT****

CARTESIAN COORDINATES (ANGSTROEM)
---------------------------------
  S    -109.914000   26.535500  -113.464000
  C    -109.352000   25.311800  -112.342000
  C    -109.947000   24.044800  -112.556000
  C    -110.879000   24.123200  -113.649000
  C    -110.985000   25.357600  -114.246000
  H    -111.486000   23.273600  -113.889000
  C    -109.768000   22.731300  -111.698000
  H    -110.200000   21.954300  -112.350000
  H    -110.418000   22.718400  -110.758000
  C    -108.267000   22.365900  -111.349000
  H    -107.801000   23.122600  -110.740000
  H    -108.408000   21.387300  -110.849000
  C    -107.274000   22.232600  -112.478000
  H    -107.035000   23.195200  -112.887000
  H    -106.391000   21.825900  -111.981000
  H    -107.527000   21.537800  -113.229000
  S    -113.339000   26.885600  -114.554000
  C    -114.116000   26.848600  -116.096000
  C    -113.605000   25.874900  -116.906000
  C    -112.392000   25.301900  -116.382000
  C    -112.110000   25.746800  -115.119000
  H    -114.035000   25.614700  -117.870000
  C    -111.492000   24.361800  -117.245000
  H    -112.043000   23.421500  -117.272000
  H    -110.575000   24.125700  -116.611000
  C    -111.093000   24.860400  -118.652000
  H    -111.975000   25.024200  -119.270000
  H    -110.446000   24.113000  -119.033000
  C    -110.357000   26.236500  -118.608000
  H    -111.100000   26.998600  -118.389000
  H    -109.854000   26.483100  -119.525000
  H    -109.694000   26.199100  -117.772000
  H    -108.635000   25.486400  -111.529000
  H    -115.077000   27.343800  -116.225000

 Total Charge           Charge          ....    0
 Multiplicity           Mult            ....    1
 Number of Electrons    NEL             ....  134
 Basis Dimension        Dim             ....  322

ORBITAL ENERGIES
----------------

  NO   OCC          E(Eh)            E(eV)
   0   2.0000     -88.970449     -2421.0090
   1   2.0000     -88.961648     -2420.7695
   2   2.0000     -10.329377      -281.0766
   3   2.0000     -10.323631      -280.9203
   4   2.0000     -10.320646      -280.8390
   5   2.0000     -10.314723      -280.6779
   6   2.0000     -10.307530      -280.4822
   7   2.0000     -10.307299      -280.4759
   8   2.0000     -10.300456      -280.2897
   9   2.0000     -10.296210      -280.1741
  10   2.0000     -10.294402      -280.1249
  11   2.0000     -10.292680      -280.0781
  12   2.0000     -10.291147      -280.0363
  13   2.0000     -10.284254      -279.8488
  14   2.0000     -10.269971      -279.4601
  15   2.0000     -10.267614      -279.3960
  16   2.0000      -8.084395      -219.9876
  17   2.0000      -8.076895      -219.7835
  18   2.0000      -6.042890      -164.4354
  19   2.0000      -6.038996      -164.3294
  20   2.0000      -6.035348      -164.2302
  21   2.0000      -6.035234      -164.2271
  22   2.0000      -6.031490      -164.1252
  23   2.0000      -6.027513      -164.0170
  24   2.0000      -1.002760       -27.2865
  25   2.0000      -0.980265       -26.6744
  26   2.0000      -0.903672       -24.5902
  27   2.0000      -0.901507       -24.5313
  28   2.0000      -0.865089       -23.5403
  29   2.0000      -0.850948       -23.1555
  30   2.0000      -0.841997       -22.9119
  31   2.0000      -0.809188       -22.0191
  32   2.0000      -0.782021       -21.2799
  33   2.0000      -0.772199       -21.0126
  34   2.0000      -0.701199       -19.0806
  35   2.0000      -0.697645       -18.9839
  36   2.0000      -0.688519       -18.7355
  37   2.0000      -0.655079       -17.8256
  38   2.0000      -0.636892       -17.3307
  39   2.0000      -0.611580       -16.6419
  40   2.0000      -0.594405       -16.1746
  41   2.0000      -0.575631       -15.6637
  42   2.0000      -0.549950       -14.9649
  43   2.0000      -0.548576       -14.9275
  44   2.0000      -0.542729       -14.7684
  45   2.0000      -0.536741       -14.6055
  46   2.0000      -0.513336       -13.9686
  47   2.0000      -0.511750       -13.9254
  48   2.0000      -0.496867       -13.5204
  49   2.0000      -0.491872       -13.3845
  50   2.0000      -0.484711       -13.1897
  51   2.0000      -0.471426       -12.8281
  52   2.0000      -0.469950       -12.7880
  53   2.0000      -0.462833       -12.5943
  54   2.0000      -0.456882       -12.4324
  55   2.0000      -0.449124       -12.2213
  56   2.0000      -0.444872       -12.1056
  57   2.0000      -0.439651       -11.9635
  58   2.0000      -0.434880       -11.8337
  59   2.0000      -0.424112       -11.5407
  60   2.0000      -0.419111       -11.4046
  61   2.0000      -0.413449       -11.2505
  62   2.0000      -0.410960       -11.1828
  63   2.0000      -0.344355        -9.3704
  64   2.0000      -0.330462        -8.9923
  65   2.0000      -0.326026        -8.8716
  66   2.0000      -0.298602        -8.1254
  67   0.0000       0.034150         0.9293
  68   0.0000       0.066507         1.8098
  69   0.0000       0.114971         3.1285
  70   0.0000       0.123048         3.3483
  71   0.0000       0.125866         3.4250

MULLIKEN ATOMIC CHARGES
-----------------------
   0 S :    0.118967
   1 C :   -0.138471
   2 C :   -0.111459
   3 C :    0.051746
   4 C :   -0.169456
   5 H :    0.009123
   6 C :    0.046029
   7 H :    0.020090
   8 H :    0.062601
   9 C :   -0.101556
  10 H :    0.031933
  11 H :    0.037712
  12 C :   -0.016656
  13 H :    0.035032
  14 H :    0.028010
  15 H :    0.020622
  16 S :    0.106425
  17 C :   -0.095957
  18 C :   -0.028285
  19 C :   -0.063887
  20 C :   -0.158942
  21 H :    0.020555
  22 C :    0.036597
  23 H :    0.035515
  24 H :    0.040226
  25 C :   -0.057996
  26 H :    0.030549
  27 H :    0.030120
  28 C :   -0.033350
  29 H :    0.034908
  30 H :    0.035818
  31 H :    0.022264
  32 H :    0.056377
  33 H :    0.064795
Sum of atomic charges:   -0.0000000

LOEWDIN ATOMIC CHARGES
----------------------
   0 S :    0.402651
   1 C :   -0.200941
   2 C :   -0.067577
   3 C :   -0.051722
   4 C :   -0.195966
   5 H :    0.029066
   6 C :   -0.036559
   7 H :    0.027770
   8 H :    0.042703
   9 C :   -0.041985
  10 H :    0.022628
  11 H :    0.029317
  12 C :   -0.057898
  13 H :    0.023970
  14 H :    0.031800
  15 H :    0.016508
  16 S :    0.399450
  17 C :   -0.187764
  18 C :   -0.074140
  19 C :   -0.058816
  20 C :   -0.198432
  21 H :    0.031050
  22 C :   -0.035090
  23 H :    0.031428
  24 H :    0.036327
  25 C :   -0.034666
  26 H :    0.021274
  27 H :    0.021654
  28 C :   -0.057739
  29 H :    0.027492
  30 H :    0.023147
  31 H :    0.021072
  32 H :    0.029671
  33 H :    0.030316

  Mayer bond orders larger than 0.100000
B(  0-S ,  1-C ) :   1.1519 B(  0-S ,  4-C ) :   1.1415 B(  1-C ,  2-C ) :   1.5964
B(  1-C , 32-H ) :   0.9651 B(  2-C ,  3-C ) :   1.2726 B(  2-C ,  6-C ) :   0.9968
B(  3-C ,  4-C ) :   1.5706 B(  3-C ,  5-H ) :   0.9894 B(  4-C , 20-C ) :   1.0163
B(  6-C ,  7-H ) :   0.9437 B(  6-C ,  8-H ) :   0.9456 B(  6-C ,  9-C ) :   1.0615
B(  9-C , 10-H ) :   0.9595 B(  9-C , 11-H ) :   0.9585 B(  9-C , 12-C ) :   1.0857
B( 12-C , 13-H ) :   0.9716 B( 12-C , 14-H ) :   0.9704 B( 12-C , 15-H ) :   0.9765
B( 16-S , 17-C ) :   1.1558 B( 16-S , 20-C ) :   1.1326 B( 17-C , 18-C ) :   1.6179
B( 17-C , 33-H ) :   0.9636 B( 18-C , 19-C ) :   1.2280 B( 18-C , 21-H ) :   0.9904
B( 19-C , 20-C ) :   1.6426 B( 19-C , 22-C ) :   1.0215 B( 22-C , 23-H ) :   0.9358
B( 22-C , 24-H ) :   0.9337 B( 22-C , 25-C ) :   1.0754 B( 25-C , 26-H ) :   0.9567
B( 25-C , 27-H ) :   0.9552 B( 25-C , 28-C ) :   1.0717 B( 28-C , 29-H ) :   0.9725
B( 28-C , 30-H ) :   0.9767 B( 28-C , 31-H ) :   0.9785

Dispersion correction           -0.014701400
FINAL SINGLE POINT ENERGY     -1339.886020503147

DIPOLE MOMENT
-------------
                                X             Y             Z
Electronic contribution:    -14.10261      17.20376       6.59878
Nuclear contribution   :     14.14620     -17.83455      -6.64201
                        -----------------------------------------
Total Dipole Moment    :      0.04360      -0.63079      -0.04323
                        -----------------------------------------
Magnitude (a.u.)       :      0.63377
Magnitude (Debye)      :      1.61092

Rotational constants in cm-1:     0.021469     0.007785     0.006737
Rotational constants in MHz :   643.627209   233.381155   201.977046

                             ****ORCA TERMINATED NORMALLY****
TOTAL RUN TIME: 0 days 0 hours 0 minutes 21 seconds 297 msec
