                         Program Version 4.2.1 -  RELEASE  -
|  1> ! wB97X-D3 SP def2-SVP
|  2> %pal
|  3> nprocs 24
|  4> end
|  5>
|  6> * xyz 0 1
|  7> S 	 -42.112 	 -3.32655 	 16.7686
|  8> C 	 -42.8099 	 -2.04105 	 15.7947
|  9> C 	 -42.9197 	 -2.38443 	 14.4157
| 10> C 	 -42.7221 	 -3.75508 	 14.2584
| 11> C 	 -42.4428 	 -4.46473 	 15.3895
| 12> H 	 -42.9509 	 -4.21348 	 13.3131
| 13> C 	 -43.2978 	 -1.39868 	 13.3432
| 14> H 	 -42.7835 	 -1.65068 	 12.3312
| 15> H 	 -42.922 	 -0.419818 	 13.5703
| 16> C 	 -44.7777 	 -1.20283 	 13.0654
| 17> H 	 -45.211 	 -2.13839 	 12.6991
| 18> H 	 -45.2711 	 -1.02617 	 13.9249
| 19> C 	 -45.071 	 -0.0436087 	 12.124
| 20> H 	 -44.4871 	 -0.0783153 	 11.1704
| 21> H 	 -46.1413 	 -0.114643 	 11.8805
| 22> H 	 -44.8219 	 0.905286 	 12.4965
| 23> S 	 -42.4459 	 -6.50525 	 17.0841
| 24> C 	 -42.3478 	 -8.17579 	 16.4531
| 25> C 	 -41.9881 	 -8.1976 	 15.1379
| 26> C 	 -41.9589 	 -6.93517 	 14.5341
| 27> C 	 -42.2133 	 -5.91642 	 15.4785
| 28> H 	 -41.7474 	 -9.11697 	 14.6752
| 29> C 	 -41.6745 	 -6.7548 	 13.0272
| 30> H 	 -40.7485 	 -7.32241 	 12.8396
| 31> H 	 -41.5637 	 -5.74689 	 12.7118
| 32> C 	 -42.8506 	 -7.25544 	 12.2137
| 33> H 	 -43.7836 	 -6.9155 	 12.5051
| 34> H 	 -42.8773 	 -8.31745 	 12.3925
| 35> C 	 -42.7096 	 -7.08575 	 10.6869
| 36> H 	 -41.6898 	 -7.34974 	 10.3413
| 37> H 	 -43.0452 	 -6.1233 	 10.3045
| 38> H 	 -43.2487 	 -7.86971 	 10.2598
| 39> H 	 -42.8946 	 -1.02083 	 16.2162
| 40> H 	 -42.4501 	 -9.09042 	 17.1443
| 41> *
| 42>
| 43>                          ****END OF INPUT****

CARTESIAN COORDINATES (ANGSTROEM)
---------------------------------
  S    -42.112000   -3.326550   16.768600
  C    -42.809900   -2.041050   15.794700
  C    -42.919700   -2.384430   14.415700
  C    -42.722100   -3.755080   14.258400
  C    -42.442800   -4.464730   15.389500
  H    -42.950900   -4.213480   13.313100
  C    -43.297800   -1.398680   13.343200
  H    -42.783500   -1.650680   12.331200
  H    -42.922000   -0.419818   13.570300
  C    -44.777700   -1.202830   13.065400
  H    -45.211000   -2.138390   12.699100
  H    -45.271100   -1.026170   13.924900
  C    -45.071000   -0.043609   12.124000
  H    -44.487100   -0.078315   11.170400
  H    -46.141300   -0.114643   11.880500
  H    -44.821900    0.905286   12.496500
  S    -42.445900   -6.505250   17.084100
  C    -42.347800   -8.175790   16.453100
  C    -41.988100   -8.197600   15.137900
  C    -41.958900   -6.935170   14.534100
  C    -42.213300   -5.916420   15.478500
  H    -41.747400   -9.116970   14.675200
  C    -41.674500   -6.754800   13.027200
  H    -40.748500   -7.322410   12.839600
  H    -41.563700   -5.746890   12.711800
  C    -42.850600   -7.255440   12.213700
  H    -43.783600   -6.915500   12.505100
  H    -42.877300   -8.317450   12.392500
  C    -42.709600   -7.085750   10.686900
  H    -41.689800   -7.349740   10.341300
  H    -43.045200   -6.123300   10.304500
  H    -43.248700   -7.869710   10.259800
  H    -42.894600   -1.020830   16.216200
  H    -42.450100   -9.090420   17.144300

 Total Charge           Charge          ....    0
 Multiplicity           Mult            ....    1
 Number of Electrons    NEL             ....  134
 Basis Dimension        Dim             ....  322

ORBITAL ENERGIES
----------------

  NO   OCC          E(Eh)            E(eV)
   0   2.0000     -88.969414     -2420.9808
   1   2.0000     -88.964767     -2420.8544
   2   2.0000     -10.332711      -281.1674
   3   2.0000     -10.327800      -281.0337
   4   2.0000     -10.322335      -280.8850
   5   2.0000     -10.318680      -280.7855
   6   2.0000     -10.305170      -280.4179
   7   2.0000     -10.302565      -280.3470
   8   2.0000     -10.295602      -280.1576
   9   2.0000     -10.292061      -280.0612
  10   2.0000     -10.290485      -280.0183
  11   2.0000     -10.288497      -279.9642
  12   2.0000     -10.277977      -279.6780
  13   2.0000     -10.277706      -279.6706
  14   2.0000     -10.275948      -279.6228
  15   2.0000     -10.275852      -279.6201
  16   2.0000      -8.082804      -219.9443
  17   2.0000      -8.079557      -219.8559
  18   2.0000      -6.041366      -164.3939
  19   2.0000      -6.038031      -164.3032
  20   2.0000      -6.037778      -164.2963
  21   2.0000      -6.034157      -164.1978
  22   2.0000      -6.033330      -164.1752
  23   2.0000      -6.030251      -164.0915
  24   2.0000      -1.004916       -27.3452
  25   2.0000      -0.981310       -26.7028
  26   2.0000      -0.916150       -24.9297
  27   2.0000      -0.912754       -24.8373
  28   2.0000      -0.869962       -23.6729
  29   2.0000      -0.854391       -23.2492
  30   2.0000      -0.848035       -23.0762
  31   2.0000      -0.814901       -22.1746
  32   2.0000      -0.783339       -21.3157
  33   2.0000      -0.766815       -20.8661
  34   2.0000      -0.708019       -19.2662
  35   2.0000      -0.703127       -19.1331
  36   2.0000      -0.693128       -18.8610
  37   2.0000      -0.666075       -18.1248
  38   2.0000      -0.636704       -17.3256
  39   2.0000      -0.628972       -17.1152
  40   2.0000      -0.597553       -16.2602
  41   2.0000      -0.574117       -15.6225
  42   2.0000      -0.569655       -15.5011
  43   2.0000      -0.557098       -15.1594
  44   2.0000      -0.530084       -14.4243
  45   2.0000      -0.522263       -14.2115
  46   2.0000      -0.518018       -14.0960
  47   2.0000      -0.512254       -13.9391
  48   2.0000      -0.503500       -13.7009
  49   2.0000      -0.495926       -13.4948
  50   2.0000      -0.487460       -13.2645
  51   2.0000      -0.483738       -13.1632
  52   2.0000      -0.469086       -12.7645
  53   2.0000      -0.466550       -12.6955
  54   2.0000      -0.456413       -12.4196
  55   2.0000      -0.450920       -12.2701
  56   2.0000      -0.445312       -12.1175
  57   2.0000      -0.443699       -12.0737
  58   2.0000      -0.436719       -11.8837
  59   2.0000      -0.431460       -11.7406
  60   2.0000      -0.426318       -11.6007
  61   2.0000      -0.416659       -11.3379
  62   2.0000      -0.411640       -11.2013
  63   2.0000      -0.358030        -9.7425
  64   2.0000      -0.338713        -9.2168
  65   2.0000      -0.327208        -8.9038
  66   2.0000      -0.276217        -7.5163
  67   0.0000       0.017764         0.4834
  68   0.0000       0.074251         2.0205
  69   0.0000       0.088850         2.4177
  70   0.0000       0.122744         3.3400
  71   0.0000       0.126568         3.4441

MULLIKEN ATOMIC CHARGES
-----------------------
   0 S :    0.099241
   1 C :   -0.137458
   2 C :   -0.057947
   3 C :   -0.017650
   4 C :   -0.071491
   5 H :    0.002395
   6 C :    0.025034
   7 H :    0.034711
   8 H :    0.010221
   9 C :   -0.009392
  10 H :    0.018436
  11 H :   -0.002795
  12 C :   -0.042364
  13 H :    0.024535
  14 H :    0.041445
  15 H :    0.019994
  16 S :    0.089718
  17 C :   -0.121506
  18 C :   -0.015289
  19 C :   -0.051982
  20 C :   -0.142139
  21 H :    0.004864
  22 C :    0.099794
  23 H :    0.034627
  24 H :    0.009520
  25 C :   -0.081016
  26 H :    0.016582
  27 H :    0.010764
  28 C :   -0.008695
  29 H :    0.018941
  30 H :    0.040510
  31 H :    0.015034
  32 H :    0.060576
  33 H :    0.082785
Sum of atomic charges:   -0.0000000

LOEWDIN ATOMIC CHARGES
----------------------
   0 S :    0.370742
   1 C :   -0.195925
   2 C :   -0.059785
   3 C :   -0.067436
   4 C :   -0.166892
   5 H :    0.029341
   6 C :   -0.036285
   7 H :    0.038837
   8 H :    0.025164
   9 C :   -0.032656
  10 H :    0.024262
  11 H :    0.009582
  12 C :   -0.061040
  13 H :    0.027237
  14 H :    0.032867
  15 H :    0.015907
  16 S :    0.399367
  17 C :   -0.184159
  18 C :   -0.067996
  19 C :   -0.054534
  20 C :   -0.195400
  21 H :    0.028225
  22 C :   -0.022649
  23 H :    0.036308
  24 H :    0.019941
  25 C :   -0.035371
  26 H :    0.016219
  27 H :    0.020486
  28 C :   -0.061245
  29 H :    0.028207
  30 H :    0.024126
  31 H :    0.021253
  32 H :    0.029150
  33 H :    0.044153

  Mayer bond orders larger than 0.100000
B(  0-S ,  1-C ) :   1.1423 B(  0-S ,  4-C ) :   1.1227 B(  1-C ,  2-C ) :   1.5750
B(  1-C ,  4-C ) :   0.1083 B(  1-C , 32-H ) :   0.9649 B(  2-C ,  3-C ) :   1.2727
B(  2-C ,  6-C ) :   1.0344 B(  3-C ,  4-C ) :   1.5822 B(  3-C ,  5-H ) :   0.9918
B(  4-C , 20-C ) :   1.0621 B(  6-C ,  7-H ) :   0.9400 B(  6-C ,  8-H ) :   0.9369
B(  6-C ,  9-C ) :   1.0706 B(  9-C , 10-H ) :   0.9520 B(  9-C , 11-H ) :   0.9465
B(  9-C , 12-C ) :   1.0852 B( 12-C , 13-H ) :   0.9736 B( 12-C , 14-H ) :   0.9733
B( 12-C , 15-H ) :   0.9743 B( 16-S , 17-C ) :   1.1431 B( 16-S , 20-C ) :   1.1503
B( 17-C , 18-C ) :   1.6051 B( 17-C , 20-C ) :   0.1017 B( 17-C , 33-H ) :   0.9577
B( 18-C , 19-C ) :   1.2474 B( 18-C , 21-H ) :   0.9957 B( 19-C , 20-C ) :   1.5740
B( 19-C , 22-C ) :   1.0323 B( 22-C , 23-H ) :   0.9294 B( 22-C , 24-H ) :   0.9423
B( 22-C , 25-C ) :   1.0639 B( 25-C , 26-H ) :   0.9548 B( 25-C , 27-H ) :   0.9548
B( 25-C , 28-C ) :   1.0886 B( 28-C , 29-H ) :   0.9691 B( 28-C , 30-H ) :   0.9767
B( 28-C , 31-H ) :   0.9715

Dispersion correction           -0.013585917
FINAL SINGLE POINT ENERGY     -1339.861705181726

DIPOLE MOMENT
-------------
                                X             Y             Z
Electronic contribution:      8.83783      -6.94855      30.50148
Nuclear contribution   :     -8.97459       6.87543     -31.19068
                        -----------------------------------------
Total Dipole Moment    :     -0.13676      -0.07312      -0.68920
                        -----------------------------------------
Magnitude (a.u.)       :      0.70643
Magnitude (Debye)      :      1.79561

Rotational constants in cm-1:     0.016859     0.008931     0.006171
Rotational constants in MHz :   505.428145   267.735345   184.991315

                             ****ORCA TERMINATED NORMALLY****
TOTAL RUN TIME: 0 days 0 hours 0 minutes 20 seconds 216 msec
