                         Program Version 4.2.1 -  RELEASE  -
|  1> ! wB97X-D3 SP def2-SVP
|  2> %pal
|  3> nprocs 24
|  4> end
|  5>
|  6> * xyz 0 1
|  7> S 	 -68.7589 	 11.1673 	 -72.7568
|  8> C 	 -69.0357 	 10.2304 	 -71.234
|  9> C 	 -68.0412 	 10.3767 	 -70.2779
| 10> C 	 -67.0073 	 11.1784 	 -70.8263
| 11> C 	 -67.154 	 11.5976 	 -72.2013
| 12> H 	 -66.1047 	 11.432 	 -70.2792
| 13> C 	 -68.0407 	 9.89267 	 -68.8568
| 14> H 	 -69.07 	 9.74269 	 -68.6302
| 15> H 	 -67.7378 	 10.7812 	 -68.388
| 16> C 	 -67.1264 	 8.59816 	 -68.6575
| 17> H 	 -66.1562 	 8.77947 	 -69.0536
| 18> H 	 -67.1486 	 8.54565 	 -67.5269
| 19> C 	 -67.5492 	 7.23296 	 -69.2525
| 20> H 	 -68.5723 	 6.91321 	 -69.0331
| 21> H 	 -67.5422 	 7.28975 	 -70.4163
| 22> H 	 -66.8222 	 6.39467 	 -69.0054
| 23> S 	 -67.1734 	 13.827 	 -73.786
| 24> C 	 -65.7256 	 14.3647 	 -74.5545
| 25> C 	 -64.6491 	 13.6421 	 -74.0998
| 26> C 	 -64.9871 	 12.5239 	 -73.3209
| 27> C 	 -66.3754 	 12.5124 	 -73.0217
| 28> H 	 -63.7303 	 13.9258 	 -74.5218
| 29> C 	 -63.9206 	 11.5073 	 -73.0561
| 30> H 	 -64.063 	 11.252 	 -72.0393
| 31> H 	 -62.9581 	 11.9999 	 -73.0788
| 32> C 	 -63.8928 	 10.2463 	 -73.9317
| 33> H 	 -63.8522 	 10.5441 	 -74.993
| 34> H 	 -64.7864 	 9.61555 	 -73.7659
| 35> C 	 -62.657 	 9.37929 	 -73.5757
| 36> H 	 -61.702 	 9.9232 	 -73.6115
| 37> H 	 -62.6871 	 8.54053 	 -74.1718
| 38> H 	 -62.7294 	 9.04748 	 -72.5767
| 39> H 	 -69.9635 	 9.75896 	 -70.9625
| 40> H 	 -65.7308 	 15.0706 	 -75.3908
| 41> *
| 42>
| 43>                          ****END OF INPUT****

CARTESIAN COORDINATES (ANGSTROEM)
---------------------------------
  S    -68.758900   11.167300  -72.756800
  C    -69.035700   10.230400  -71.234000
  C    -68.041200   10.376700  -70.277900
  C    -67.007300   11.178400  -70.826300
  C    -67.154000   11.597600  -72.201300
  H    -66.104700   11.432000  -70.279200
  C    -68.040700    9.892670  -68.856800
  H    -69.070000    9.742690  -68.630200
  H    -67.737800   10.781200  -68.388000
  C    -67.126400    8.598160  -68.657500
  H    -66.156200    8.779470  -69.053600
  H    -67.148600    8.545650  -67.526900
  C    -67.549200    7.232960  -69.252500
  H    -68.572300    6.913210  -69.033100
  H    -67.542200    7.289750  -70.416300
  H    -66.822200    6.394670  -69.005400
  S    -67.173400   13.827000  -73.786000
  C    -65.725600   14.364700  -74.554500
  C    -64.649100   13.642100  -74.099800
  C    -64.987100   12.523900  -73.320900
  C    -66.375400   12.512400  -73.021700
  H    -63.730300   13.925800  -74.521800
  C    -63.920600   11.507300  -73.056100
  H    -64.063000   11.252000  -72.039300
  H    -62.958100   11.999900  -73.078800
  C    -63.892800   10.246300  -73.931700
  H    -63.852200   10.544100  -74.993000
  H    -64.786400    9.615550  -73.765900
  C    -62.657000    9.379290  -73.575700
  H    -61.702000    9.923200  -73.611500
  H    -62.687100    8.540530  -74.171800
  H    -62.729400    9.047480  -72.576700
  H    -69.963500    9.758960  -70.962500
  H    -65.730800   15.070600  -75.390800

 Total Charge           Charge          ....    0
 Multiplicity           Mult            ....    1
 Number of Electrons    NEL             ....  134
 Basis Dimension        Dim             ....  322

ORBITAL ENERGIES
----------------

  NO   OCC          E(Eh)            E(eV)
   0   2.0000     -88.967800     -2420.9369
   1   2.0000     -88.964602     -2420.8499
   2   2.0000     -10.334755      -281.2230
   3   2.0000     -10.325684      -280.9761
   4   2.0000     -10.314192      -280.6634
   5   2.0000     -10.312399      -280.6146
   6   2.0000     -10.300911      -280.3020
   7   2.0000     -10.300318      -280.2859
   8   2.0000     -10.299209      -280.2557
   9   2.0000     -10.298001      -280.2229
  10   2.0000     -10.294837      -280.1368
  11   2.0000     -10.294269      -280.1213
  12   2.0000     -10.287371      -279.9336
  13   2.0000     -10.284624      -279.8589
  14   2.0000     -10.282892      -279.8117
  15   2.0000     -10.268129      -279.4100
  16   2.0000      -8.081339      -219.9044
  17   2.0000      -8.080377      -219.8782
  18   2.0000      -6.039828      -164.3521
  19   2.0000      -6.038678      -164.3208
  20   2.0000      -6.036053      -164.2493
  21   2.0000      -6.034589      -164.2095
  22   2.0000      -6.032153      -164.1432
  23   2.0000      -6.031440      -164.1238
  24   2.0000      -1.007183       -27.4068
  25   2.0000      -0.979433       -26.6517
  26   2.0000      -0.911960       -24.8157
  27   2.0000      -0.908684       -24.7266
  28   2.0000      -0.866367       -23.5750
  29   2.0000      -0.853040       -23.2124
  30   2.0000      -0.841783       -22.9061
  31   2.0000      -0.808608       -22.0033
  32   2.0000      -0.787541       -21.4301
  33   2.0000      -0.773211       -21.0401
  34   2.0000      -0.710302       -19.3283
  35   2.0000      -0.701123       -19.0785
  36   2.0000      -0.693096       -18.8601
  37   2.0000      -0.661826       -18.0092
  38   2.0000      -0.633190       -17.2300
  39   2.0000      -0.619703       -16.8630
  40   2.0000      -0.596394       -16.2287
  41   2.0000      -0.569587       -15.4993
  42   2.0000      -0.562747       -15.3131
  43   2.0000      -0.549936       -14.9645
  44   2.0000      -0.534095       -14.5335
  45   2.0000      -0.528455       -14.3800
  46   2.0000      -0.520684       -14.1685
  47   2.0000      -0.513166       -13.9640
  48   2.0000      -0.506405       -13.7800
  49   2.0000      -0.491167       -13.3653
  50   2.0000      -0.488410       -13.2903
  51   2.0000      -0.476583       -12.9685
  52   2.0000      -0.470082       -12.7916
  53   2.0000      -0.464535       -12.6406
  54   2.0000      -0.456708       -12.4277
  55   2.0000      -0.451027       -12.2731
  56   2.0000      -0.441945       -12.0259
  57   2.0000      -0.440714       -11.9924
  58   2.0000      -0.435984       -11.8637
  59   2.0000      -0.433680       -11.8010
  60   2.0000      -0.420661       -11.4468
  61   2.0000      -0.419260       -11.4086
  62   2.0000      -0.407869       -11.0987
  63   2.0000      -0.343077        -9.3356
  64   2.0000      -0.332274        -9.0416
  65   2.0000      -0.329195        -8.9579
  66   2.0000      -0.282767        -7.6945
  67   0.0000       0.021119         0.5747
  68   0.0000       0.072942         1.9848
  69   0.0000       0.104489         2.8433
  70   0.0000       0.125184         3.4064
  71   0.0000       0.129995         3.5373

MULLIKEN ATOMIC CHARGES
-----------------------
   0 S :    0.096579
   1 C :   -0.114007
   2 C :   -0.127412
   3 C :    0.024501
   4 C :   -0.160852
   5 H :    0.009953
   6 C :    0.125418
   7 H :    0.011266
   8 H :    0.026668
   9 C :   -0.063629
  10 H :    0.031588
  11 H :    0.047129
  12 C :   -0.100069
  13 H :    0.034159
  14 H :    0.047202
  15 H :    0.055710
  16 S :    0.115739
  17 C :   -0.116661
  18 C :   -0.017009
  19 C :   -0.036522
  20 C :   -0.154524
  21 H :   -0.001998
  22 C :    0.105789
  23 H :   -0.002635
  24 H :    0.009204
  25 C :   -0.077768
  26 H :    0.032202
  27 H :    0.042118
  28 C :   -0.001080
  29 H :    0.027869
  30 H :    0.020491
  31 H :    0.011256
  32 H :    0.033432
  33 H :    0.065891
Sum of atomic charges:    0.0000000

LOEWDIN ATOMIC CHARGES
----------------------
   0 S :    0.386524
   1 C :   -0.185903
   2 C :   -0.064307
   3 C :   -0.064394
   4 C :   -0.194037
   5 H :    0.024928
   6 C :   -0.020135
   7 H :    0.027455
   8 H :    0.032916
   9 C :   -0.034417
  10 H :    0.021997
  11 H :    0.032096
  12 C :   -0.080410
  13 H :    0.021224
  14 H :    0.036126
  15 H :    0.037838
  16 S :    0.432731
  17 C :   -0.196553
  18 C :   -0.067554
  19 C :   -0.054384
  20 C :   -0.220660
  21 H :    0.023676
  22 C :   -0.032153
  23 H :    0.023264
  24 H :    0.029308
  25 C :   -0.030946
  26 H :    0.024587
  27 H :    0.031206
  28 C :   -0.055410
  29 H :    0.026293
  30 H :    0.016597
  31 H :    0.019451
  32 H :    0.020237
  33 H :    0.032809

  Mayer bond orders larger than 0.100000
B(  0-S ,  1-C ) :   1.1329 B(  0-S ,  4-C ) :   1.1519 B(  1-C ,  2-C ) :   1.6041
B(  1-C ,  4-C ) :   0.1062 B(  1-C , 32-H ) :   0.9624 B(  2-C ,  3-C ) :   1.2700
B(  2-C ,  6-C ) :   0.9961 B(  3-C ,  4-C ) :   1.5378 B(  3-C ,  5-H ) :   0.9839
B(  4-C , 20-C ) :   1.0675 B(  6-C ,  7-H ) :   0.9380 B(  6-C ,  8-H ) :   0.9398
B(  6-C ,  9-C ) :   1.0461 B(  9-C , 10-H ) :   0.9605 B(  9-C , 11-H ) :   0.9592
B(  9-C , 12-C ) :   1.0708 B( 12-C , 13-H ) :   0.9768 B( 12-C , 14-H ) :   0.9721
B( 12-C , 15-H ) :   0.9730 B( 16-S , 17-C ) :   1.1714 B( 16-S , 20-C ) :   1.1670
B( 17-C , 18-C ) :   1.5724 B( 17-C , 20-C ) :   0.1027 B( 17-C , 33-H ) :   0.9663
B( 18-C , 19-C ) :   1.2793 B( 18-C , 21-H ) :   1.0002 B( 19-C , 20-C ) :   1.5266
B( 19-C , 22-C ) :   1.0477 B( 22-C , 23-H ) :   0.9129 B( 22-C , 24-H ) :   0.9329
B( 22-C , 25-C ) :   1.0712 B( 25-C , 26-H ) :   0.9568 B( 25-C , 27-H ) :   0.9523
B( 25-C , 28-C ) :   1.0840 B( 28-C , 29-H ) :   0.9747 B( 28-C , 30-H ) :   0.9731
B( 28-C , 31-H ) :   0.9723

Dispersion correction           -0.013938371
FINAL SINGLE POINT ENERGY     -1339.862774374669

DIPOLE MOMENT
-------------
                                X             Y             Z
Electronic contribution:    -15.70543      21.73669     -11.75921
Nuclear contribution   :     16.11401     -22.01292      12.08423
                        -----------------------------------------
Total Dipole Moment    :      0.40859      -0.27623       0.32502
                        -----------------------------------------
Magnitude (a.u.)       :      0.59066
Magnitude (Debye)      :      1.50134

Rotational constants in cm-1:     0.017813     0.008960     0.006661
Rotational constants in MHz :   534.013780   268.615397   199.686474

                             ****ORCA TERMINATED NORMALLY****
TOTAL RUN TIME: 0 days 0 hours 0 minutes 21 seconds 332 msec
