                         Program Version 4.2.1 -  RELEASE  -
|  1> ! wB97X-D3 SP def2-SVP
|  2> %pal
|  3> nprocs 24
|  4> end
|  5>
|  6> * xyz 0 1
|  7> S 	 -116.743 	 42.4198 	 -112.124
|  8> C 	 -118.135 	 41.6243 	 -112.725
|  9> C 	 -117.98 	 41.1549 	 -113.946
| 10> C 	 -116.648 	 41.3102 	 -114.427
| 11> C 	 -115.747 	 41.9867 	 -113.544
| 12> H 	 -116.266 	 40.8337 	 -115.363
| 13> C 	 -119.004 	 40.2874 	 -114.656
| 14> H 	 -120.014 	 40.4729 	 -114.237
| 15> H 	 -118.665 	 39.2791 	 -114.531
| 16> C 	 -119.065 	 40.4253 	 -116.129
| 17> H 	 -119.395 	 41.3919 	 -116.495
| 18> H 	 -118.064 	 40.2312 	 -116.633
| 19> C 	 -119.942 	 39.3622 	 -116.852
| 20> H 	 -119.905 	 39.2616 	 -117.938
| 21> H 	 -119.666 	 38.3611 	 -116.534
| 22> H 	 -120.981 	 39.4363 	 -116.446
| 23> S 	 -113.727 	 42.8374 	 -115.232
| 24> C 	 -112.01 	 42.7633 	 -114.682
| 25> C 	 -111.956 	 42.1794 	 -113.484
| 26> C 	 -113.235 	 41.8477 	 -112.899
| 27> C 	 -114.318 	 42.216 	 -113.705
| 28> H 	 -111.002 	 41.8477 	 -113.054
| 29> C 	 -113.305 	 40.9252 	 -111.665
| 30> H 	 -114.255 	 41.1274 	 -111.248
| 31> H 	 -112.526 	 41.259 	 -110.985
| 32> C 	 -112.982 	 39.4091 	 -111.776
| 33> H 	 -113.17 	 38.8545 	 -110.796
| 34> H 	 -111.917 	 39.2798 	 -112.083
| 35> C 	 -113.77 	 38.6412 	 -112.875
| 36> H 	 -113.731 	 39.0358 	 -113.872
| 37> H 	 -114.851 	 38.6912 	 -112.583
| 38> H 	 -113.529 	 37.5858 	 -112.984
| 39> H 	 -119.023 	 41.4156 	 -112.169
| 40> H 	 -111.184 	 43.0195 	 -115.34
| 41> *
| 42>
| 43>                          ****END OF INPUT****

CARTESIAN COORDINATES (ANGSTROEM)
---------------------------------
  S    -116.743000   42.419800  -112.124000
  C    -118.135000   41.624300  -112.725000
  C    -117.980000   41.154900  -113.946000
  C    -116.648000   41.310200  -114.427000
  C    -115.747000   41.986700  -113.544000
  H    -116.266000   40.833700  -115.363000
  C    -119.004000   40.287400  -114.656000
  H    -120.014000   40.472900  -114.237000
  H    -118.665000   39.279100  -114.531000
  C    -119.065000   40.425300  -116.129000
  H    -119.395000   41.391900  -116.495000
  H    -118.064000   40.231200  -116.633000
  C    -119.942000   39.362200  -116.852000
  H    -119.905000   39.261600  -117.938000
  H    -119.666000   38.361100  -116.534000
  H    -120.981000   39.436300  -116.446000
  S    -113.727000   42.837400  -115.232000
  C    -112.010000   42.763300  -114.682000
  C    -111.956000   42.179400  -113.484000
  C    -113.235000   41.847700  -112.899000
  C    -114.318000   42.216000  -113.705000
  H    -111.002000   41.847700  -113.054000
  C    -113.305000   40.925200  -111.665000
  H    -114.255000   41.127400  -111.248000
  H    -112.526000   41.259000  -110.985000
  C    -112.982000   39.409100  -111.776000
  H    -113.170000   38.854500  -110.796000
  H    -111.917000   39.279800  -112.083000
  C    -113.770000   38.641200  -112.875000
  H    -113.731000   39.035800  -113.872000
  H    -114.851000   38.691200  -112.583000
  H    -113.529000   37.585800  -112.984000
  H    -119.023000   41.415600  -112.169000
  H    -111.184000   43.019500  -115.340000

 Total Charge           Charge          ....    0
 Multiplicity           Mult            ....    1
 Number of Electrons    NEL             ....  134
 Basis Dimension        Dim             ....  322

ORBITAL ENERGIES
----------------

  NO   OCC          E(Eh)            E(eV)
   0   2.0000     -88.967472     -2420.9280
   1   2.0000     -88.964684     -2420.8521
   2   2.0000     -10.339977      -281.3651
   3   2.0000     -10.334220      -281.2084
   4   2.0000     -10.321721      -280.8683
   5   2.0000     -10.308273      -280.5024
   6   2.0000     -10.305429      -280.4250
   7   2.0000     -10.302384      -280.3421
   8   2.0000     -10.297869      -280.2192
   9   2.0000     -10.295759      -280.1618
  10   2.0000     -10.294413      -280.1252
  11   2.0000     -10.294295      -280.1220
  12   2.0000     -10.289600      -279.9942
  13   2.0000     -10.289514      -279.9919
  14   2.0000     -10.281739      -279.7803
  15   2.0000     -10.271539      -279.5028
  16   2.0000      -8.081891      -219.9194
  17   2.0000      -8.078832      -219.8362
  18   2.0000      -6.040484      -164.3699
  19   2.0000      -6.037540      -164.2898
  20   2.0000      -6.036347      -164.2574
  21   2.0000      -6.033482      -164.1794
  22   2.0000      -6.032650      -164.1567
  23   2.0000      -6.029335      -164.0665
  24   2.0000      -1.006838       -27.3974
  25   2.0000      -0.988168       -26.8894
  26   2.0000      -0.918564       -24.9954
  27   2.0000      -0.898697       -24.4548
  28   2.0000      -0.878063       -23.8933
  29   2.0000      -0.848029       -23.0760
  30   2.0000      -0.838315       -22.8117
  31   2.0000      -0.817960       -22.2578
  32   2.0000      -0.784122       -21.3370
  33   2.0000      -0.774468       -21.0743
  34   2.0000      -0.715823       -19.4785
  35   2.0000      -0.693907       -18.8822
  36   2.0000      -0.688433       -18.7332
  37   2.0000      -0.663222       -18.0472
  38   2.0000      -0.636100       -17.3092
  39   2.0000      -0.617913       -16.8143
  40   2.0000      -0.593634       -16.1536
  41   2.0000      -0.579427       -15.7670
  42   2.0000      -0.571381       -15.5481
  43   2.0000      -0.550062       -14.9679
  44   2.0000      -0.539828       -14.6895
  45   2.0000      -0.524317       -14.2674
  46   2.0000      -0.516983       -14.0678
  47   2.0000      -0.509470       -13.8634
  48   2.0000      -0.505580       -13.7575
  49   2.0000      -0.503345       -13.6967
  50   2.0000      -0.490857       -13.3569
  51   2.0000      -0.483564       -13.1584
  52   2.0000      -0.467971       -12.7341
  53   2.0000      -0.462575       -12.5873
  54   2.0000      -0.460413       -12.5285
  55   2.0000      -0.449617       -12.2347
  56   2.0000      -0.441057       -12.0018
  57   2.0000      -0.436156       -11.8684
  58   2.0000      -0.430197       -11.7062
  59   2.0000      -0.424020       -11.5382
  60   2.0000      -0.414983       -11.2923
  61   2.0000      -0.410832       -11.1793
  62   2.0000      -0.407990       -11.1020
  63   2.0000      -0.354442        -9.6449
  64   2.0000      -0.332188        -9.0393
  65   2.0000      -0.329548        -8.9675
  66   2.0000      -0.294912        -8.0250
  67   0.0000       0.022456         0.6111
  68   0.0000       0.075292         2.0488
  69   0.0000       0.107017         2.9121
  70   0.0000       0.118204         3.2165
  71   0.0000       0.127296         3.4639

MULLIKEN ATOMIC CHARGES
-----------------------
   0 S :    0.115549
   1 C :   -0.128909
   2 C :   -0.043015
   3 C :   -0.007224
   4 C :   -0.154132
   5 H :    0.030752
   6 C :    0.103618
   7 H :    0.028060
   8 H :    0.031843
   9 C :   -0.119525
  10 H :    0.033147
  11 H :    0.035712
  12 C :   -0.054931
  13 H :    0.045506
  14 H :    0.008217
  15 H :    0.025337
  16 S :    0.087325
  17 C :   -0.096353
  18 C :   -0.013736
  19 C :   -0.078287
  20 C :   -0.141886
  21 H :    0.028616
  22 C :    0.113427
  23 H :    0.008767
  24 H :    0.024562
  25 C :   -0.086242
  26 H :    0.052069
  27 H :    0.029579
  28 C :   -0.074180
  29 H :    0.034174
  30 H :    0.030640
  31 H :    0.030881
  32 H :    0.034705
  33 H :    0.065935
Sum of atomic charges:   -0.0000000

LOEWDIN ATOMIC CHARGES
----------------------
   0 S :    0.411211
   1 C :   -0.199545
   2 C :   -0.074503
   3 C :   -0.063077
   4 C :   -0.185639
   5 H :    0.033383
   6 C :   -0.026137
   7 H :    0.034437
   8 H :    0.035633
   9 C :   -0.046827
  10 H :    0.021616
  11 H :    0.029168
  12 C :   -0.072349
  13 H :    0.029236
  14 H :    0.018591
  15 H :    0.025099
  16 S :    0.382142
  17 C :   -0.162165
  18 C :   -0.072239
  19 C :   -0.054948
  20 C :   -0.197222
  21 H :    0.036765
  22 C :   -0.029705
  23 H :    0.015719
  24 H :    0.033600
  25 C :   -0.041420
  26 H :    0.038069
  27 H :    0.023263
  28 C :   -0.077312
  29 H :    0.021052
  30 H :    0.027776
  31 H :    0.023501
  32 H :    0.028870
  33 H :    0.033957

  Mayer bond orders larger than 0.100000
B(  0-S ,  1-C ) :   1.1412 B(  0-S ,  4-C ) :   1.1404 B(  1-C ,  2-C ) :   1.6375
B(  1-C , 32-H ) :   0.9650 B(  2-C ,  3-C ) :   1.2475 B(  2-C ,  6-C ) :   1.0240
B(  3-C ,  4-C ) :   1.5603 B(  3-C ,  5-H ) :   0.9798 B(  4-C , 20-C ) :   1.0638
B(  6-C ,  7-H ) :   0.9405 B(  6-C ,  8-H ) :   0.9312 B(  6-C ,  9-C ) :   1.0669
B(  9-C , 10-H ) :   0.9592 B(  9-C , 11-H ) :   0.9486 B(  9-C , 12-C ) :   1.0766
B( 12-C , 13-H ) :   0.9765 B( 12-C , 14-H ) :   0.9712 B( 12-C , 15-H ) :   0.9727
B( 16-S , 17-C ) :   1.1268 B( 16-S , 20-C ) :   1.1341 B( 17-C , 18-C ) :   1.6321
B( 17-C , 33-H ) :   0.9689 B( 18-C , 19-C ) :   1.2280 B( 18-C , 21-H ) :   0.9857
B( 19-C , 20-C ) :   1.5835 B( 19-C , 22-C ) :   1.0472 B( 22-C , 23-H ) :   0.9265
B( 22-C , 24-H ) :   0.9308 B( 22-C , 25-C ) :   1.0649 B( 25-C , 26-H ) :   0.9554
B( 25-C , 27-H ) :   0.9555 B( 25-C , 28-C ) :   1.0710 B( 28-C , 29-H ) :   0.9758
B( 28-C , 30-H ) :   0.9770 B( 28-C , 31-H ) :   0.9757

Dispersion correction           -0.014906696
FINAL SINGLE POINT ENERGY     -1339.874199207971

DIPOLE MOMENT
-------------
                                X             Y             Z
Electronic contribution:      8.29523      20.99954       4.57936
Nuclear contribution   :     -8.23103     -21.68253      -4.65689
                        -----------------------------------------
Total Dipole Moment    :      0.06420      -0.68299      -0.07753
                        -----------------------------------------
Magnitude (a.u.)       :      0.69036
Magnitude (Debye)      :      1.75476

Rotational constants in cm-1:     0.019699     0.007925     0.007435
Rotational constants in MHz :   590.552982   237.577407   222.892548

                             ****ORCA TERMINATED NORMALLY****
TOTAL RUN TIME: 0 days 0 hours 0 minutes 21 seconds 851 msec
