                         Program Version 4.2.1 -  RELEASE  -
|  1> ! wB97X-D3 SP def2-SVP
|  2> %pal
|  3> nprocs 24
|  4> end
|  5>
|  6> * xyz 0 1
|  7> S 	 -99.5635 	 1.47083 	 -105.696
|  8> C 	 -99.8625 	 2.79501 	 -106.778
|  9> C 	 -99.4846 	 3.9698 	 -106.21
| 10> C 	 -99.0458 	 3.79208 	 -104.854
| 11> C 	 -99.0619 	 2.49242 	 -104.373
| 12> H 	 -98.9307 	 4.60787 	 -104.203
| 13> C 	 -99.5564 	 5.37195 	 -106.852
| 14> H 	 -100.643 	 5.71852 	 -106.591
| 15> H 	 -99.5031 	 5.39375 	 -107.898
| 16> C 	 -98.4252 	 6.39942 	 -106.385
| 17> H 	 -98.3919 	 6.32246 	 -105.235
| 18> H 	 -97.462 	 5.91833 	 -106.6
| 19> C 	 -98.3295 	 7.78126 	 -106.957
| 20> H 	 -97.5709 	 8.29047 	 -106.313
| 21> H 	 -97.9727 	 7.81539 	 -107.964
| 22> H 	 -99.2364 	 8.30295 	 -107.086
| 23> S 	 -100.045 	 1.33082 	 -102.203
| 24> C 	 -99.0373 	 1.22165 	 -100.787
| 25> C 	 -97.8379 	 1.9115 	 -100.894
| 26> C 	 -97.7413 	 2.48804 	 -102.178
| 27> C 	 -98.7689 	 2.14807 	 -103.041
| 28> H 	 -97.1211 	 1.9652 	 -100.133
| 29> C 	 -96.4446 	 3.21532 	 -102.584
| 30> H 	 -96.4377 	 3.67346 	 -103.57
| 31> H 	 -95.6986 	 2.33913 	 -102.596
| 32> C 	 -95.7583 	 4.20749 	 -101.728
| 33> H 	 -95.4468 	 3.79868 	 -100.731
| 34> H 	 -96.4073 	 5.0183 	 -101.485
| 35> C 	 -94.5031 	 4.82818 	 -102.33
| 36> H 	 -94.0739 	 5.59414 	 -101.622
| 37> H 	 -94.5996 	 5.37058 	 -103.248
| 38> H 	 -93.6812 	 4.13792 	 -102.562
| 39> H 	 -100.189 	 2.65889 	 -107.72
| 40> H 	 -99.196 	 0.636355 	 -99.8685
| 41> *
| 42>
| 43>                          ****END OF INPUT****

CARTESIAN COORDINATES (ANGSTROEM)
---------------------------------
  S    -99.563500    1.470830  -105.696000
  C    -99.862500    2.795010  -106.778000
  C    -99.484600    3.969800  -106.210000
  C    -99.045800    3.792080  -104.854000
  C    -99.061900    2.492420  -104.373000
  H    -98.930700    4.607870  -104.203000
  C    -99.556400    5.371950  -106.852000
  H    -100.643000    5.718520  -106.591000
  H    -99.503100    5.393750  -107.898000
  C    -98.425200    6.399420  -106.385000
  H    -98.391900    6.322460  -105.235000
  H    -97.462000    5.918330  -106.600000
  C    -98.329500    7.781260  -106.957000
  H    -97.570900    8.290470  -106.313000
  H    -97.972700    7.815390  -107.964000
  H    -99.236400    8.302950  -107.086000
  S    -100.045000    1.330820  -102.203000
  C    -99.037300    1.221650  -100.787000
  C    -97.837900    1.911500  -100.894000
  C    -97.741300    2.488040  -102.178000
  C    -98.768900    2.148070  -103.041000
  H    -97.121100    1.965200  -100.133000
  C    -96.444600    3.215320  -102.584000
  H    -96.437700    3.673460  -103.570000
  H    -95.698600    2.339130  -102.596000
  C    -95.758300    4.207490  -101.728000
  H    -95.446800    3.798680  -100.731000
  H    -96.407300    5.018300  -101.485000
  C    -94.503100    4.828180  -102.330000
  H    -94.073900    5.594140  -101.622000
  H    -94.599600    5.370580  -103.248000
  H    -93.681200    4.137920  -102.562000
  H    -100.189000    2.658890  -107.720000
  H    -99.196000    0.636355  -99.868500

 Total Charge           Charge          ....    0
 Multiplicity           Mult            ....    1
 Number of Electrons    NEL             ....  134
 Basis Dimension        Dim             ....  322

ORBITAL ENERGIES
----------------

  NO   OCC          E(Eh)            E(eV)
   0   2.0000     -88.967461     -2420.9277
   1   2.0000     -88.963701     -2420.8254
   2   2.0000     -10.324317      -280.9390
   3   2.0000     -10.319866      -280.8178
   4   2.0000     -10.318227      -280.7732
   5   2.0000     -10.305160      -280.4177
   6   2.0000     -10.304414      -280.3974
   7   2.0000     -10.302043      -280.3328
   8   2.0000     -10.300941      -280.3029
   9   2.0000     -10.296939      -280.1939
  10   2.0000     -10.292657      -280.0774
  11   2.0000     -10.290054      -280.0066
  12   2.0000     -10.286498      -279.9098
  13   2.0000     -10.286122      -279.8996
  14   2.0000     -10.281128      -279.7637
  15   2.0000     -10.279018      -279.7063
  16   2.0000      -8.082669      -219.9406
  17   2.0000      -8.078807      -219.8355
  18   2.0000      -6.041155      -164.3882
  19   2.0000      -6.037375      -164.2853
  20   2.0000      -6.037148      -164.2791
  21   2.0000      -6.033376      -164.1765
  22   2.0000      -6.033153      -164.1704
  23   2.0000      -6.029577      -164.0731
  24   2.0000      -1.013167       -27.5697
  25   2.0000      -0.988239       -26.8914
  26   2.0000      -0.914765       -24.8920
  27   2.0000      -0.904317       -24.6077
  28   2.0000      -0.879676       -23.9372
  29   2.0000      -0.855163       -23.2702
  30   2.0000      -0.848805       -23.0972
  31   2.0000      -0.815385       -22.1878
  32   2.0000      -0.783872       -21.3303
  33   2.0000      -0.775558       -21.1040
  34   2.0000      -0.715404       -19.4671
  35   2.0000      -0.697480       -18.9794
  36   2.0000      -0.695227       -18.9181
  37   2.0000      -0.665531       -18.1100
  38   2.0000      -0.647797       -17.6275
  39   2.0000      -0.624702       -16.9990
  40   2.0000      -0.599860       -16.3230
  41   2.0000      -0.572700       -15.5840
  42   2.0000      -0.566867       -15.4252
  43   2.0000      -0.550434       -14.9781
  44   2.0000      -0.535144       -14.5620
  45   2.0000      -0.527494       -14.3538
  46   2.0000      -0.515813       -14.0360
  47   2.0000      -0.511849       -13.9281
  48   2.0000      -0.505921       -13.7668
  49   2.0000      -0.498776       -13.5724
  50   2.0000      -0.495484       -13.4828
  51   2.0000      -0.488341       -13.2884
  52   2.0000      -0.480723       -13.0811
  53   2.0000      -0.470436       -12.8012
  54   2.0000      -0.457760       -12.4563
  55   2.0000      -0.456103       -12.4112
  56   2.0000      -0.452185       -12.3046
  57   2.0000      -0.432606       -11.7718
  58   2.0000      -0.426646       -11.6096
  59   2.0000      -0.423644       -11.5279
  60   2.0000      -0.418773       -11.3954
  61   2.0000      -0.413282       -11.2460
  62   2.0000      -0.401884       -10.9358
  63   2.0000      -0.346800        -9.4369
  64   2.0000      -0.331331        -9.0160
  65   2.0000      -0.326223        -8.8770
  66   2.0000      -0.292194        -7.9510
  67   0.0000       0.028807         0.7839
  68   0.0000       0.075881         2.0648
  69   0.0000       0.113592         3.0910
  70   0.0000       0.122804         3.3417
  71   0.0000       0.127211         3.4616

MULLIKEN ATOMIC CHARGES
-----------------------
   0 S :    0.111420
   1 C :   -0.087560
   2 C :   -0.061903
   3 C :    0.023660
   4 C :   -0.146205
   5 H :    0.000577
   6 C :    0.064989
   7 H :    0.056221
   8 H :    0.011098
   9 C :   -0.143856
  10 H :    0.034603
  11 H :    0.029795
  12 C :    0.003206
  13 H :    0.045871
  14 H :    0.021512
  15 H :    0.021448
  16 S :    0.125807
  17 C :   -0.082822
  18 C :   -0.030731
  19 C :    0.025357
  20 C :   -0.172532
  21 H :   -0.000636
  22 C :    0.016371
  23 H :    0.023329
  24 H :    0.044944
  25 C :   -0.048886
  26 H :    0.024474
  27 H :    0.019107
  28 C :   -0.076007
  29 H :    0.037850
  30 H :    0.023104
  31 H :    0.028976
  32 H :   -0.001140
  33 H :    0.058560
Sum of atomic charges:   -0.0000000

LOEWDIN ATOMIC CHARGES
----------------------
   0 S :    0.412039
   1 C :   -0.179494
   2 C :   -0.061595
   3 C :   -0.057995
   4 C :   -0.204680
   5 H :    0.019318
   6 C :   -0.032831
   7 H :    0.044358
   8 H :    0.016680
   9 C :   -0.054033
  10 H :    0.026495
  11 H :    0.027582
  12 C :   -0.064883
  13 H :    0.042178
  14 H :    0.024511
  15 H :    0.019865
  16 S :    0.426888
  17 C :   -0.186451
  18 C :   -0.063459
  19 C :   -0.048364
  20 C :   -0.209137
  21 H :    0.024116
  22 C :   -0.041122
  23 H :    0.028326
  24 H :    0.045186
  25 C :   -0.047066
  26 H :    0.024725
  27 H :    0.019743
  28 C :   -0.069653
  29 H :    0.035231
  30 H :    0.019180
  31 H :    0.024871
  32 H :    0.005406
  33 H :    0.034065

  Mayer bond orders larger than 0.100000
B(  0-S ,  1-C ) :   1.1379 B(  0-S ,  4-C ) :   1.1461 B(  1-C ,  2-C ) :   1.6029
B(  1-C , 32-H ) :   0.9893 B(  2-C ,  3-C ) :   1.2566 B(  2-C ,  6-C ) :   1.0118
B(  3-C ,  4-C ) :   1.5536 B(  3-C ,  5-H ) :   0.9965 B(  4-C , 20-C ) :   1.0717
B(  6-C ,  7-H ) :   0.9386 B(  6-C ,  8-H ) :   0.9494 B(  6-C ,  9-C ) :   1.0482
B(  9-C , 10-H ) :   0.9556 B(  9-C , 11-H ) :   0.9551 B(  9-C , 12-C ) :   1.0841
B( 12-C , 13-H ) :   0.9688 B( 12-C , 14-H ) :   0.9685 B( 12-C , 15-H ) :   0.9749
B( 16-S , 17-C ) :   1.1630 B( 16-S , 20-C ) :   1.1393 B( 17-C , 18-C ) :   1.6031
B( 17-C , 20-C ) :   0.1021 B( 17-C , 33-H ) :   0.9612 B( 18-C , 19-C ) :   1.2402
B( 18-C , 21-H ) :   1.0013 B( 19-C , 20-C ) :   1.5874 B( 19-C , 22-C ) :   1.0333
B( 22-C , 23-H ) :   0.9439 B( 22-C , 24-H ) :   0.9349 B( 22-C , 25-C ) :   1.0718
B( 25-C , 26-H ) :   0.9434 B( 25-C , 27-H ) :   0.9492 B( 25-C , 28-C ) :   1.0888
B( 28-C , 29-H ) :   0.9729 B( 28-C , 30-H ) :   0.9730 B( 28-C , 31-H ) :   0.9746

Dispersion correction           -0.013614902
FINAL SINGLE POINT ENERGY     -1339.854268217564

DIPOLE MOMENT
-------------
                                X             Y             Z
Electronic contribution:    -18.93545     -27.02093       3.22760
Nuclear contribution   :     19.33460      27.62336      -3.24176
                        -----------------------------------------
Total Dipole Moment    :      0.39915       0.60243      -0.01416
                        -----------------------------------------
Magnitude (a.u.)       :      0.72280
Magnitude (Debye)      :      1.83722

Rotational constants in cm-1:     0.015074     0.009773     0.006554
Rotational constants in MHz :   451.919949   292.979692   196.478752

                             ****ORCA TERMINATED NORMALLY****
TOTAL RUN TIME: 0 days 0 hours 0 minutes 21 seconds 431 msec
