                         Program Version 4.2.1 -  RELEASE  -
|  1> ! wB97X-D3 SP def2-SVP
|  2> %pal
|  3> nprocs 24
|  4> end
|  5>
|  6> * xyz 0 1
|  7> S 	 -33.7475 	 6.68339 	 14.1147
|  8> C 	 -33.6181 	 7.76034 	 12.7486
|  9> C 	 -34.3126 	 8.94726 	 12.984
| 10> C 	 -34.7814 	 9.03288 	 14.2981
| 11> C 	 -34.5892 	 7.87293 	 15.0447
| 12> H 	 -35.2272 	 9.89456 	 14.7692
| 13> C 	 -34.3671 	 10.0769 	 12.0278
| 14> H 	 -35.415 	 10.2847 	 11.8636
| 15> H 	 -33.9531 	 9.73837 	 11.0415
| 16> C 	 -33.613 	 11.3359 	 12.4091
| 17> H 	 -33.9197 	 12.1045 	 11.7392
| 18> H 	 -34.0385 	 11.6302 	 13.3476
| 19> C 	 -32.1001 	 11.2311 	 12.4047
| 20> H 	 -31.678 	 11.1378 	 11.3669
| 21> H 	 -31.5581 	 12.1104 	 12.7893
| 22> H 	 -31.7455 	 10.4041 	 13.0313
| 23> S 	 -33.7048 	 7.06566 	 17.5567
| 24> C 	 -34.626 	 7.35269 	 19.0156
| 25> C 	 -35.8512 	 7.75277 	 18.5873
| 26> C 	 -36.1117 	 7.87701 	 17.1882
| 27> C 	 -34.9763 	 7.61554 	 16.4519
| 28> H 	 -36.546 	 7.93468 	 19.4606
| 29> C 	 -37.486 	 8.25262 	 16.5929
| 30> H 	 -37.8677 	 7.32768 	 16.1261
| 31> H 	 -37.2645 	 8.95045 	 15.7422
| 32> C 	 -38.5868 	 8.83692 	 17.4926
| 33> H 	 -38.2215 	 9.79258 	 17.9312
| 34> H 	 -38.7638 	 8.09342 	 18.2487
| 35> C 	 -39.8655 	 9.13235 	 16.6742
| 36> H 	 -39.6803 	 9.80377 	 15.8209
| 37> H 	 -40.5699 	 9.72996 	 17.2318
| 38> H 	 -40.4789 	 8.26732 	 16.4958
| 39> H 	 -33.0875 	 7.62781 	 11.7909
| 40> H 	 -34.3641 	 7.20115 	 20.0406
| 41> *
| 42>
| 43>                          ****END OF INPUT****

CARTESIAN COORDINATES (ANGSTROEM)
---------------------------------
  S    -33.747500    6.683390   14.114700
  C    -33.618100    7.760340   12.748600
  C    -34.312600    8.947260   12.984000
  C    -34.781400    9.032880   14.298100
  C    -34.589200    7.872930   15.044700
  H    -35.227200    9.894560   14.769200
  C    -34.367100   10.076900   12.027800
  H    -35.415000   10.284700   11.863600
  H    -33.953100    9.738370   11.041500
  C    -33.613000   11.335900   12.409100
  H    -33.919700   12.104500   11.739200
  H    -34.038500   11.630200   13.347600
  C    -32.100100   11.231100   12.404700
  H    -31.678000   11.137800   11.366900
  H    -31.558100   12.110400   12.789300
  H    -31.745500   10.404100   13.031300
  S    -33.704800    7.065660   17.556700
  C    -34.626000    7.352690   19.015600
  C    -35.851200    7.752770   18.587300
  C    -36.111700    7.877010   17.188200
  C    -34.976300    7.615540   16.451900
  H    -36.546000    7.934680   19.460600
  C    -37.486000    8.252620   16.592900
  H    -37.867700    7.327680   16.126100
  H    -37.264500    8.950450   15.742200
  C    -38.586800    8.836920   17.492600
  H    -38.221500    9.792580   17.931200
  H    -38.763800    8.093420   18.248700
  C    -39.865500    9.132350   16.674200
  H    -39.680300    9.803770   15.820900
  H    -40.569900    9.729960   17.231800
  H    -40.478900    8.267320   16.495800
  H    -33.087500    7.627810   11.790900
  H    -34.364100    7.201150   20.040600

 Total Charge           Charge          ....    0
 Multiplicity           Mult            ....    1
 Number of Electrons    NEL             ....  134
 Basis Dimension        Dim             ....  322

ORBITAL ENERGIES
----------------

  NO   OCC          E(Eh)            E(eV)
   0   2.0000     -88.969415     -2420.9809
   1   2.0000     -88.959548     -2420.7124
   2   2.0000     -10.332111      -281.1510
   3   2.0000     -10.329836      -281.0891
   4   2.0000     -10.315083      -280.6877
   5   2.0000     -10.314664      -280.6763
   6   2.0000     -10.307478      -280.4807
   7   2.0000     -10.296674      -280.1867
   8   2.0000     -10.295551      -280.1562
   9   2.0000     -10.293999      -280.1139
  10   2.0000     -10.292333      -280.0686
  11   2.0000     -10.292205      -280.0651
  12   2.0000     -10.289404      -279.9889
  13   2.0000     -10.281368      -279.7702
  14   2.0000     -10.280269      -279.7403
  15   2.0000     -10.279769      -279.7267
  16   2.0000      -8.084186      -219.9819
  17   2.0000      -8.074242      -219.7113
  18   2.0000      -6.042605      -164.4277
  19   2.0000      -6.038566      -164.3177
  20   2.0000      -6.035166      -164.2252
  21   2.0000      -6.032879      -164.1630
  22   2.0000      -6.028626      -164.0472
  23   2.0000      -6.024949      -163.9472
  24   2.0000      -1.008508       -27.4429
  25   2.0000      -0.988082       -26.8871
  26   2.0000      -0.918560       -24.9953
  27   2.0000      -0.905779       -24.6475
  28   2.0000      -0.869221       -23.6527
  29   2.0000      -0.852473       -23.1970
  30   2.0000      -0.842244       -22.9186
  31   2.0000      -0.816203       -22.2100
  32   2.0000      -0.782462       -21.2919
  33   2.0000      -0.775685       -21.1074
  34   2.0000      -0.712619       -19.3914
  35   2.0000      -0.702930       -19.1277
  36   2.0000      -0.695040       -18.9130
  37   2.0000      -0.646727       -17.5983
  38   2.0000      -0.638162       -17.3653
  39   2.0000      -0.623281       -16.9603
  40   2.0000      -0.594649       -16.1812
  41   2.0000      -0.575099       -15.6492
  42   2.0000      -0.570490       -15.5238
  43   2.0000      -0.555074       -15.1043
  44   2.0000      -0.543434       -14.7876
  45   2.0000      -0.527248       -14.3472
  46   2.0000      -0.513881       -13.9834
  47   2.0000      -0.510573       -13.8934
  48   2.0000      -0.501156       -13.6371
  49   2.0000      -0.496140       -13.5007
  50   2.0000      -0.485728       -13.2173
  51   2.0000      -0.483322       -13.1519
  52   2.0000      -0.473462       -12.8835
  53   2.0000      -0.464710       -12.6454
  54   2.0000      -0.464309       -12.6345
  55   2.0000      -0.448727       -12.2105
  56   2.0000      -0.444991       -12.1088
  57   2.0000      -0.439473       -11.9587
  58   2.0000      -0.433163       -11.7870
  59   2.0000      -0.420379       -11.4391
  60   2.0000      -0.418514       -11.3884
  61   2.0000      -0.417460       -11.3597
  62   2.0000      -0.407325       -11.0839
  63   2.0000      -0.346970        -9.4415
  64   2.0000      -0.333964        -9.0876
  65   2.0000      -0.326394        -8.8816
  66   2.0000      -0.293467        -7.9856
  67   0.0000       0.028825         0.7844
  68   0.0000       0.072561         1.9745
  69   0.0000       0.117270         3.1911
  70   0.0000       0.126119         3.4319
  71   0.0000       0.136991         3.7277

MULLIKEN ATOMIC CHARGES
-----------------------
   0 S :    0.128860
   1 C :   -0.121636
   2 C :   -0.098570
   3 C :    0.023425
   4 C :   -0.162202
   5 H :    0.016227
   6 C :    0.058652
   7 H :    0.030639
   8 H :    0.009836
   9 C :   -0.021538
  10 H :    0.018489
  11 H :    0.011944
  12 C :   -0.070931
  13 H :    0.032192
  14 H :    0.034651
  15 H :    0.045578
  16 S :    0.084535
  17 C :   -0.073317
  18 C :   -0.092280
  19 C :   -0.006324
  20 C :   -0.145698
  21 H :    0.034274
  22 C :    0.040633
  23 H :    0.043604
  24 H :    0.022138
  25 C :   -0.073172
  26 H :    0.037557
  27 H :    0.034281
  28 C :   -0.031458
  29 H :    0.035457
  30 H :    0.015751
  31 H :    0.034096
  32 H :    0.053715
  33 H :    0.050591
Sum of atomic charges:   -0.0000000

LOEWDIN ATOMIC CHARGES
----------------------
   0 S :    0.427481
   1 C :   -0.208884
   2 C :   -0.068761
   3 C :   -0.063578
   4 C :   -0.197840
   5 H :    0.029978
   6 C :   -0.031708
   7 H :    0.033339
   8 H :    0.029042
   9 C :   -0.038102
  10 H :    0.022913
  11 H :    0.018728
  12 C :   -0.072105
  13 H :    0.029734
  14 H :    0.029613
  15 H :    0.029113
  16 S :    0.391409
  17 C :   -0.183550
  18 C :   -0.089577
  19 C :   -0.061322
  20 C :   -0.192752
  21 H :    0.037708
  22 C :   -0.036343
  23 H :    0.038411
  24 H :    0.031768
  25 C :   -0.039391
  26 H :    0.028714
  27 H :    0.022593
  28 C :   -0.067430
  29 H :    0.030264
  30 H :    0.025197
  31 H :    0.026138
  32 H :    0.035888
  33 H :    0.033312

  Mayer bond orders larger than 0.100000
B(  0-S ,  1-C ) :   1.1467 B(  0-S ,  4-C ) :   1.1762 B(  1-C ,  2-C ) :   1.5806
B(  1-C ,  4-C ) :   0.1033 B(  1-C , 32-H ) :   0.9619 B(  2-C ,  3-C ) :   1.2641
B(  2-C ,  6-C ) :   1.0400 B(  3-C ,  4-C ) :   1.5563 B(  3-C ,  5-H ) :   0.9891
B(  4-C , 20-C ) :   1.0130 B(  6-C ,  7-H ) :   0.9274 B(  6-C ,  8-H ) :   0.9378
B(  6-C ,  9-C ) :   1.0814 B(  9-C , 10-H ) :   0.9491 B(  9-C , 11-H ) :   0.9518
B(  9-C , 12-C ) :   1.0750 B( 12-C , 13-H ) :   0.9723 B( 12-C , 14-H ) :   0.9727
B( 12-C , 15-H ) :   0.9766 B( 16-S , 17-C ) :   1.1431 B( 16-S , 20-C ) :   1.1434
B( 17-C , 18-C ) :   1.6220 B( 17-C , 20-C ) :   0.1011 B( 17-C , 33-H ) :   0.9703
B( 18-C , 19-C ) :   1.2332 B( 18-C , 21-H ) :   0.9773 B( 19-C , 20-C ) :   1.5981
B( 19-C , 22-C ) :   1.0149 B( 22-C , 23-H ) :   0.9341 B( 22-C , 24-H ) :   0.9350
B( 22-C , 25-C ) :   1.0773 B( 25-C , 26-H ) :   0.9565 B( 25-C , 27-H ) :   0.9469
B( 25-C , 28-C ) :   1.0917 B( 28-C , 29-H ) :   0.9728 B( 28-C , 30-H ) :   0.9698
B( 28-C , 31-H ) :   0.9735

Dispersion correction           -0.013750979
FINAL SINGLE POINT ENERGY     -1339.885248427189

DIPOLE MOMENT
-------------
                                X             Y             Z
Electronic contribution:     13.63367     -19.79771       7.81002
Nuclear contribution   :    -14.13607      20.37481      -7.82549
                        -----------------------------------------
Total Dipole Moment    :     -0.50240       0.57710      -0.01547
                        -----------------------------------------
Magnitude (a.u.)       :      0.76530
Magnitude (Debye)      :      1.94524

Rotational constants in cm-1:     0.017264     0.008333     0.006642
Rotational constants in MHz :   517.558839   249.802424   199.132124

                             ****ORCA TERMINATED NORMALLY****
TOTAL RUN TIME: 0 days 0 hours 0 minutes 21 seconds 71 msec
