                         Program Version 4.2.1 -  RELEASE  -
|  1> ! wB97X-D3 SP def2-SVP
|  2> %pal
|  3> nprocs 24
|  4> end
|  5>
|  6> * xyz 0 1
|  7> S 	 -52.4206 	 21.3807 	 25.3974
|  8> C 	 -53.2584 	 21.0745 	 23.8808
|  9> C 	 -52.905 	 19.8371 	 23.3886
| 10> C 	 -52.0747 	 19.0965 	 24.2648
| 11> C 	 -51.8269 	 19.7176 	 25.5025
| 12> H 	 -51.7889 	 18.0594 	 24.0644
| 13> C 	 -53.2677 	 19.3603 	 21.9998
| 14> H 	 -54.1883 	 19.8483 	 21.6951
| 15> H 	 -53.3926 	 18.2866 	 22.0438
| 16> C 	 -52.1772 	 19.6592 	 20.9671
| 17> H 	 -51.1744 	 19.2118 	 21.13
| 18> H 	 -52.4366 	 19.1142 	 20.0402
| 19> C 	 -51.946 	 21.1424 	 20.5631
| 20> H 	 -52.8327 	 21.6993 	 20.2756
| 21> H 	 -51.5694 	 21.745 	 21.2786
| 22> H 	 -51.2231 	 21.1789 	 19.782
| 23> S 	 -49.9841 	 20.2597 	 27.4641
| 24> C 	 -49.6752 	 19.1134 	 28.7314
| 25> C 	 -50.3328 	 17.9283 	 28.4928
| 26> C 	 -51.1651 	 17.9682 	 27.3487
| 27> C 	 -51.1201 	 19.2026 	 26.6888
| 28> H 	 -50.2206 	 17.0434 	 29.0798
| 29> C 	 -52.0247 	 16.8395 	 26.8573
| 30> H 	 -51.4056 	 15.9855 	 26.5342
| 31> H 	 -52.5105 	 16.977 	 25.8945
| 32> C 	 -53.0225 	 16.4599 	 27.924
| 33> H 	 -53.7817 	 17.2282 	 28.1137
| 34> H 	 -52.465 	 16.3855 	 28.863
| 35> C 	 -53.7405 	 15.1392 	 27.6709
| 36> H 	 -54.3228 	 14.929 	 28.4782
| 37> H 	 -53.0238 	 14.2969 	 27.4974
| 38> H 	 -54.4301 	 15.2679 	 26.8239
| 39> H 	 -53.8256 	 21.8514 	 23.4356
| 40> H 	 -49.0583 	 19.3591 	 29.6021
| 41> *
| 42>
| 43>                          ****END OF INPUT****

CARTESIAN COORDINATES (ANGSTROEM)
---------------------------------
  S    -52.420600   21.380700   25.397400
  C    -53.258400   21.074500   23.880800
  C    -52.905000   19.837100   23.388600
  C    -52.074700   19.096500   24.264800
  C    -51.826900   19.717600   25.502500
  H    -51.788900   18.059400   24.064400
  C    -53.267700   19.360300   21.999800
  H    -54.188300   19.848300   21.695100
  H    -53.392600   18.286600   22.043800
  C    -52.177200   19.659200   20.967100
  H    -51.174400   19.211800   21.130000
  H    -52.436600   19.114200   20.040200
  C    -51.946000   21.142400   20.563100
  H    -52.832700   21.699300   20.275600
  H    -51.569400   21.745000   21.278600
  H    -51.223100   21.178900   19.782000
  S    -49.984100   20.259700   27.464100
  C    -49.675200   19.113400   28.731400
  C    -50.332800   17.928300   28.492800
  C    -51.165100   17.968200   27.348700
  C    -51.120100   19.202600   26.688800
  H    -50.220600   17.043400   29.079800
  C    -52.024700   16.839500   26.857300
  H    -51.405600   15.985500   26.534200
  H    -52.510500   16.977000   25.894500
  C    -53.022500   16.459900   27.924000
  H    -53.781700   17.228200   28.113700
  H    -52.465000   16.385500   28.863000
  C    -53.740500   15.139200   27.670900
  H    -54.322800   14.929000   28.478200
  H    -53.023800   14.296900   27.497400
  H    -54.430100   15.267900   26.823900
  H    -53.825600   21.851400   23.435600
  H    -49.058300   19.359100   29.602100

 Total Charge           Charge          ....    0
 Multiplicity           Mult            ....    1
 Number of Electrons    NEL             ....  134
 Basis Dimension        Dim             ....  322

ORBITAL ENERGIES
----------------

  NO   OCC          E(Eh)            E(eV)
   0   2.0000     -88.964213     -2420.8393
   1   2.0000     -88.963591     -2420.8224
   2   2.0000     -10.335660      -281.2476
   3   2.0000     -10.326757      -281.0053
   4   2.0000     -10.319016      -280.7947
   5   2.0000     -10.312469      -280.6165
   6   2.0000     -10.301752      -280.3249
   7   2.0000     -10.299230      -280.2563
   8   2.0000     -10.296477      -280.1814
   9   2.0000     -10.293538      -280.1014
  10   2.0000     -10.293297      -280.0949
  11   2.0000     -10.291243      -280.0390
  12   2.0000     -10.287274      -279.9310
  13   2.0000     -10.280890      -279.7572
  14   2.0000     -10.271716      -279.5076
  15   2.0000     -10.265108      -279.3278
  16   2.0000      -8.079647      -219.8584
  17   2.0000      -8.078026      -219.8143
  18   2.0000      -6.038035      -164.3033
  19   2.0000      -6.036530      -164.2623
  20   2.0000      -6.033989      -164.1932
  21   2.0000      -6.032570      -164.1546
  22   2.0000      -6.030567      -164.1001
  23   2.0000      -6.028820      -164.0525
  24   2.0000      -1.006677       -27.3931
  25   2.0000      -0.985351       -26.8128
  26   2.0000      -0.914227       -24.8774
  27   2.0000      -0.909624       -24.7521
  28   2.0000      -0.866873       -23.5888
  29   2.0000      -0.853025       -23.2120
  30   2.0000      -0.844277       -22.9739
  31   2.0000      -0.815028       -22.1780
  32   2.0000      -0.787947       -21.4411
  33   2.0000      -0.775362       -21.0987
  34   2.0000      -0.707899       -19.2629
  35   2.0000      -0.699506       -19.0345
  36   2.0000      -0.696869       -18.9628
  37   2.0000      -0.661027       -17.9875
  38   2.0000      -0.642367       -17.4797
  39   2.0000      -0.624115       -16.9830
  40   2.0000      -0.605690       -16.4817
  41   2.0000      -0.564725       -15.3669
  42   2.0000      -0.558957       -15.2100
  43   2.0000      -0.550780       -14.9875
  44   2.0000      -0.538908       -14.6644
  45   2.0000      -0.530943       -14.4477
  46   2.0000      -0.522100       -14.2071
  47   2.0000      -0.512503       -13.9459
  48   2.0000      -0.503325       -13.6962
  49   2.0000      -0.502357       -13.6698
  50   2.0000      -0.493048       -13.4165
  51   2.0000      -0.482975       -13.1424
  52   2.0000      -0.472248       -12.8505
  53   2.0000      -0.460962       -12.5434
  54   2.0000      -0.459224       -12.4961
  55   2.0000      -0.450953       -12.2711
  56   2.0000      -0.448121       -12.1940
  57   2.0000      -0.441339       -12.0094
  58   2.0000      -0.438588       -11.9346
  59   2.0000      -0.428191       -11.6517
  60   2.0000      -0.419605       -11.4180
  61   2.0000      -0.408344       -11.1116
  62   2.0000      -0.405891       -11.0449
  63   2.0000      -0.350035        -9.5249
  64   2.0000      -0.331375        -9.0172
  65   2.0000      -0.329006        -8.9527
  66   2.0000      -0.287945        -7.8354
  67   0.0000       0.024800         0.6749
  68   0.0000       0.074840         2.0365
  69   0.0000       0.109229         2.9723
  70   0.0000       0.121984         3.3194
  71   0.0000       0.139724         3.8021

MULLIKEN ATOMIC CHARGES
-----------------------
   0 S :    0.095442
   1 C :   -0.121569
   2 C :   -0.090136
   3 C :    0.030510
   4 C :   -0.142730
   5 H :    0.018106
   6 C :    0.114981
   7 H :    0.022316
   8 H :    0.019503
   9 C :   -0.094599
  10 H :    0.030230
  11 H :    0.025896
  12 C :   -0.002888
  13 H :    0.015076
  14 H :    0.008764
  15 H :    0.020987
  16 S :    0.104821
  17 C :   -0.098306
  18 C :   -0.018647
  19 C :   -0.033104
  20 C :   -0.155397
  21 H :    0.014216
  22 C :    0.086262
  23 H :    0.023010
  24 H :    0.004445
  25 C :   -0.112352
  26 H :    0.036620
  27 H :    0.019599
  28 C :   -0.003528
  29 H :    0.011782
  30 H :    0.033212
  31 H :    0.028898
  32 H :    0.040037
  33 H :    0.068541
Sum of atomic charges:   -0.0000000

LOEWDIN ATOMIC CHARGES
----------------------
   0 S :    0.392291
   1 C :   -0.186874
   2 C :   -0.065950
   3 C :   -0.066602
   4 C :   -0.183007
   5 H :    0.030280
   6 C :   -0.024753
   7 H :    0.031742
   8 H :    0.030177
   9 C :   -0.041647
  10 H :    0.028369
  11 H :    0.025647
  12 C :   -0.058478
  13 H :    0.023194
  14 H :    0.009655
  15 H :    0.026289
  16 S :    0.417437
  17 C :   -0.188334
  18 C :   -0.068588
  19 C :   -0.053502
  20 C :   -0.203576
  21 H :    0.029130
  22 C :   -0.038222
  23 H :    0.033700
  24 H :    0.027226
  25 C :   -0.040292
  26 H :    0.029893
  27 H :    0.020338
  28 C :   -0.058431
  29 H :    0.012378
  30 H :    0.028602
  31 H :    0.026919
  32 H :    0.020666
  33 H :    0.034325

  Mayer bond orders larger than 0.100000
B(  0-S ,  1-C ) :   1.1362 B(  0-S ,  4-C ) :   1.1629 B(  1-C ,  2-C ) :   1.5800
B(  1-C ,  4-C ) :   0.1065 B(  1-C , 32-H ) :   0.9803 B(  2-C ,  3-C ) :   1.2670
B(  2-C ,  6-C ) :   1.0324 B(  3-C ,  4-C ) :   1.5359 B(  3-C ,  5-H ) :   0.9855
B(  4-C , 20-C ) :   1.0474 B(  6-C ,  7-H ) :   0.9405 B(  6-C ,  8-H ) :   0.9321
B(  6-C ,  9-C ) :   1.0757 B(  9-C , 10-H ) :   0.9553 B(  9-C , 11-H ) :   0.9557
B(  9-C , 12-C ) :   1.0743 B( 12-C , 13-H ) :   0.9734 B( 12-C , 14-H ) :   0.9731
B( 12-C , 15-H ) :   0.9710 B( 16-S , 17-C ) :   1.1667 B( 16-S , 20-C ) :   1.1544
B( 17-C , 18-C ) :   1.5685 B( 17-C , 33-H ) :   0.9689 B( 18-C , 19-C ) :   1.2715
B( 18-C , 21-H ) :   0.9920 B( 19-C , 20-C ) :   1.5713 B( 19-C , 22-C ) :   1.0436
B( 22-C , 23-H ) :   0.9294 B( 22-C , 24-H ) :   0.9273 B( 22-C , 25-C ) :   1.0553
B( 25-C , 26-H ) :   0.9505 B( 25-C , 27-H ) :   0.9610 B( 25-C , 28-C ) :   1.0903
B( 28-C , 29-H ) :   0.9701 B( 28-C , 30-H ) :   0.9737 B( 28-C , 31-H ) :   0.9721

Dispersion correction           -0.014001372
FINAL SINGLE POINT ENERGY     -1339.885696380964

DIPOLE MOMENT
-------------
                                X             Y             Z
Electronic contribution:      9.57114      16.41114      14.12716
Nuclear contribution   :     -9.70891     -16.93422     -14.37587
                        -----------------------------------------
Total Dipole Moment    :     -0.13777      -0.52308      -0.24871
                        -----------------------------------------
Magnitude (a.u.)       :      0.59536
Magnitude (Debye)      :      1.51328

Rotational constants in cm-1:     0.019543     0.008162     0.006503
Rotational constants in MHz :   585.897195   244.696503   194.953888

                             ****ORCA TERMINATED NORMALLY****
TOTAL RUN TIME: 0 days 0 hours 0 minutes 21 seconds 342 msec
