                         Program Version 4.2.1 -  RELEASE  -
|  1> ! wB97X-D3 SP def2-SVP
|  2> %pal
|  3> nprocs 24
|  4> end
|  5>
|  6> * xyz 0 1
|  7> S 	 -63.7328 	 -4.50508 	 -23.322
|  8> C 	 -65.3816 	 -4.78834 	 -23.0306
|  9> C 	 -66.1267 	 -3.60648 	 -23.0617
| 10> C 	 -65.2559 	 -2.47119 	 -23.3367
| 11> C 	 -63.9556 	 -2.8432 	 -23.586
| 12> H 	 -65.5245 	 -1.45571 	 -23.2872
| 13> C 	 -67.6256 	 -3.46754 	 -22.9165
| 14> H 	 -67.9365 	 -4.44402 	 -23.3711
| 15> H 	 -67.9442 	 -2.67896 	 -23.5981
| 16> C 	 -68.0633 	 -3.37263 	 -21.4037
| 17> H 	 -67.6664 	 -4.23801 	 -20.8643
| 18> H 	 -67.6123 	 -2.48338 	 -21.0474
| 19> C 	 -69.6204 	 -3.1012 	 -21.1853
| 20> H 	 -69.9769 	 -2.08533 	 -21.5357
| 21> H 	 -70.3437 	 -3.83289 	 -21.6103
| 22> H 	 -69.8269 	 -3.11927 	 -20.109
| 23> S 	 -62.1495 	 -1.29911 	 -22.4253
| 24> C 	 -61.276 	 -0.00522916 	 -23.3567
| 25> C 	 -61.493 	 -0.160606 	 -24.6748
| 26> C 	 -62.4168 	 -1.19912 	 -25.0087
| 27> C 	 -62.881 	 -1.91104 	 -23.9123
| 28> H 	 -61.0024 	 0.494601 	 -25.4345
| 29> C 	 -62.8892 	 -1.43567 	 -26.4439
| 30> H 	 -62.489 	 -0.583817 	 -27.0365
| 31> H 	 -63.9746 	 -1.35173 	 -26.5411
| 32> C 	 -62.406 	 -2.64479 	 -27.276
| 33> H 	 -62.6113 	 -2.47161 	 -28.3325
| 34> H 	 -62.8907 	 -3.57183 	 -27.0052
| 35> C 	 -60.9312 	 -2.86783 	 -27.1299
| 36> H 	 -60.3735 	 -1.97101 	 -27.4385
| 37> H 	 -60.4317 	 -3.59514 	 -27.6809
| 38> H 	 -60.7396 	 -3.07694 	 -26.0695
| 39> H 	 -65.9489 	 -5.71459 	 -22.8889
| 40> H 	 -60.5628 	 0.67061 	 -22.8985
| 41> *
| 42>
| 43>                          ****END OF INPUT****

CARTESIAN COORDINATES (ANGSTROEM)
---------------------------------
  S    -63.732800   -4.505080  -23.322000
  C    -65.381600   -4.788340  -23.030600
  C    -66.126700   -3.606480  -23.061700
  C    -65.255900   -2.471190  -23.336700
  C    -63.955600   -2.843200  -23.586000
  H    -65.524500   -1.455710  -23.287200
  C    -67.625600   -3.467540  -22.916500
  H    -67.936500   -4.444020  -23.371100
  H    -67.944200   -2.678960  -23.598100
  C    -68.063300   -3.372630  -21.403700
  H    -67.666400   -4.238010  -20.864300
  H    -67.612300   -2.483380  -21.047400
  C    -69.620400   -3.101200  -21.185300
  H    -69.976900   -2.085330  -21.535700
  H    -70.343700   -3.832890  -21.610300
  H    -69.826900   -3.119270  -20.109000
  S    -62.149500   -1.299110  -22.425300
  C    -61.276000   -0.005229  -23.356700
  C    -61.493000   -0.160606  -24.674800
  C    -62.416800   -1.199120  -25.008700
  C    -62.881000   -1.911040  -23.912300
  H    -61.002400    0.494601  -25.434500
  C    -62.889200   -1.435670  -26.443900
  H    -62.489000   -0.583817  -27.036500
  H    -63.974600   -1.351730  -26.541100
  C    -62.406000   -2.644790  -27.276000
  H    -62.611300   -2.471610  -28.332500
  H    -62.890700   -3.571830  -27.005200
  C    -60.931200   -2.867830  -27.129900
  H    -60.373500   -1.971010  -27.438500
  H    -60.431700   -3.595140  -27.680900
  H    -60.739600   -3.076940  -26.069500
  H    -65.948900   -5.714590  -22.888900
  H    -60.562800    0.670610  -22.898500

 Total Charge           Charge          ....    0
 Multiplicity           Mult            ....    1
 Number of Electrons    NEL             ....  134
 Basis Dimension        Dim             ....  322

ORBITAL ENERGIES
----------------

  NO   OCC          E(Eh)            E(eV)
   0   2.0000     -88.968481     -2420.9554
   1   2.0000     -88.960114     -2420.7278
   2   2.0000     -10.328432      -281.0509
   3   2.0000     -10.323853      -280.9263
   4   2.0000     -10.319896      -280.8187
   5   2.0000     -10.311457      -280.5890
   6   2.0000     -10.308209      -280.5006
   7   2.0000     -10.300207      -280.2829
   8   2.0000     -10.297412      -280.2068
   9   2.0000     -10.297137      -280.1993
  10   2.0000     -10.295901      -280.1657
  11   2.0000     -10.293184      -280.0918
  12   2.0000     -10.289635      -279.9952
  13   2.0000     -10.288967      -279.9770
  14   2.0000     -10.280315      -279.7416
  15   2.0000     -10.263586      -279.2864
  16   2.0000      -8.084649      -219.9945
  17   2.0000      -8.074142      -219.7086
  18   2.0000      -6.043047      -164.4397
  19   2.0000      -6.038829      -164.3249
  20   2.0000      -6.035565      -164.2361
  21   2.0000      -6.032812      -164.1612
  22   2.0000      -6.028700      -164.0493
  23   2.0000      -6.024798      -163.9431
  24   2.0000      -1.011825       -27.5332
  25   2.0000      -0.983972       -26.7752
  26   2.0000      -0.906927       -24.6787
  27   2.0000      -0.904862       -24.6226
  28   2.0000      -0.872061       -23.7300
  29   2.0000      -0.846040       -23.0219
  30   2.0000      -0.842868       -22.9356
  31   2.0000      -0.815929       -22.2026
  32   2.0000      -0.779325       -21.2065
  33   2.0000      -0.770553       -20.9678
  34   2.0000      -0.708768       -19.2866
  35   2.0000      -0.704123       -19.1601
  36   2.0000      -0.687186       -18.6993
  37   2.0000      -0.663217       -18.0471
  38   2.0000      -0.644440       -17.5361
  39   2.0000      -0.612379       -16.6637
  40   2.0000      -0.589876       -16.0513
  41   2.0000      -0.570726       -15.5303
  42   2.0000      -0.557984       -15.1835
  43   2.0000      -0.554412       -15.0863
  44   2.0000      -0.549624       -14.9560
  45   2.0000      -0.520729       -14.1697
  46   2.0000      -0.513782       -13.9807
  47   2.0000      -0.506900       -13.7935
  48   2.0000      -0.503897       -13.7117
  49   2.0000      -0.497774       -13.5451
  50   2.0000      -0.485613       -13.2142
  51   2.0000      -0.476341       -12.9619
  52   2.0000      -0.470471       -12.8022
  53   2.0000      -0.461950       -12.5703
  54   2.0000      -0.453072       -12.3287
  55   2.0000      -0.449491       -12.2313
  56   2.0000      -0.441213       -12.0060
  57   2.0000      -0.438874       -11.9424
  58   2.0000      -0.433637       -11.7999
  59   2.0000      -0.425432       -11.5766
  60   2.0000      -0.419981       -11.4283
  61   2.0000      -0.416579       -11.3357
  62   2.0000      -0.407939       -11.1006
  63   2.0000      -0.340750        -9.2723
  64   2.0000      -0.326830        -8.8935
  65   2.0000      -0.317230        -8.6323
  66   2.0000      -0.313563        -8.5325
  67   0.0000       0.046179         1.2566
  68   0.0000       0.054542         1.4842
  69   0.0000       0.109647         2.9836
  70   0.0000       0.122297         3.3279
  71   0.0000       0.130963         3.5637

MULLIKEN ATOMIC CHARGES
-----------------------
   0 S :    0.145005
   1 C :   -0.107324
   2 C :   -0.142187
   3 C :    0.068968
   4 C :   -0.170891
   5 H :   -0.004232
   6 C :    0.055160
   7 H :    0.026210
   8 H :    0.033589
   9 C :   -0.039985
  10 H :    0.040045
  11 H :    0.026892
  12 C :   -0.081585
  13 H :    0.039024
  14 H :    0.037929
  15 H :    0.035839
  16 S :    0.078424
  17 C :   -0.090347
  18 C :   -0.031788
  19 C :   -0.036799
  20 C :   -0.167611
  21 H :    0.037840
  22 C :    0.061003
  23 H :    0.009571
  24 H :    0.040824
  25 C :   -0.043349
  26 H :    0.027180
  27 H :    0.029065
  28 C :   -0.047161
  29 H :    0.009760
  30 H :    0.015538
  31 H :    0.040514
  32 H :    0.045330
  33 H :    0.059548
Sum of atomic charges:    0.0000000

LOEWDIN ATOMIC CHARGES
----------------------
   0 S :    0.455666
   1 C :   -0.227854
   2 C :   -0.063139
   3 C :   -0.053947
   4 C :   -0.230894
   5 H :    0.023749
   6 C :   -0.035861
   7 H :    0.033901
   8 H :    0.031788
   9 C :   -0.028637
  10 H :    0.029224
  11 H :    0.022530
  12 C :   -0.079144
  13 H :    0.030659
  14 H :    0.025251
  15 H :    0.026708
  16 S :    0.371032
  17 C :   -0.160073
  18 C :   -0.075705
  19 C :   -0.057628
  20 C :   -0.185580
  21 H :    0.041897
  22 C :   -0.032174
  23 H :    0.031270
  24 H :    0.034883
  25 C :   -0.037818
  26 H :    0.025178
  27 H :    0.020427
  28 C :   -0.067207
  29 H :    0.021735
  30 H :    0.015455
  31 H :    0.029260
  32 H :    0.034436
  33 H :    0.030615

  Mayer bond orders larger than 0.100000
B(  0-S ,  1-C ) :   1.1534 B(  0-S ,  4-C ) :   1.1758 B(  1-C ,  2-C ) :   1.6028
B(  1-C , 32-H ) :   0.9612 B(  2-C ,  3-C ) :   1.2477 B(  2-C ,  6-C ) :   1.0143
B(  3-C ,  4-C ) :   1.5692 B(  3-C ,  5-H ) :   1.0045 B(  4-C , 20-C ) :   0.9863
B(  6-C ,  7-H ) :   0.9402 B(  6-C ,  8-H ) :   0.9481 B(  6-C ,  9-C ) :   1.0466
B(  9-C , 10-H ) :   0.9602 B(  9-C , 11-H ) :   0.9594 B(  9-C , 12-C ) :   1.0653
B( 12-C , 13-H ) :   0.9771 B( 12-C , 14-H ) :   0.9789 B( 12-C , 15-H ) :   0.9768
B( 16-S , 17-C ) :   1.1297 B( 16-S , 20-C ) :   1.1415 B( 17-C , 18-C ) :   1.6451
B( 17-C , 33-H ) :   0.9666 B( 18-C , 19-C ) :   1.2266 B( 18-C , 21-H ) :   0.9763
B( 19-C , 20-C ) :   1.6302 B( 19-C , 22-C ) :   1.0365 B( 22-C , 23-H ) :   0.9321
B( 22-C , 24-H ) :   0.9379 B( 22-C , 25-C ) :   1.0711 B( 25-C , 26-H ) :   0.9562
B( 25-C , 27-H ) :   0.9550 B( 25-C , 28-C ) :   1.0826 B( 28-C , 29-H ) :   0.9734
B( 28-C , 30-H ) :   0.9733 B( 28-C , 31-H ) :   0.9686

Dispersion correction           -0.014289703
FINAL SINGLE POINT ENERGY     -1339.873568098556

DIPOLE MOMENT
-------------
                                X             Y             Z
Electronic contribution:     14.58138      -0.17058       8.53333
Nuclear contribution   :    -14.93664       0.40470      -8.79215
                        -----------------------------------------
Total Dipole Moment    :     -0.35526       0.23412      -0.25882
                        -----------------------------------------
Magnitude (a.u.)       :      0.49800
Magnitude (Debye)      :      1.26583

Rotational constants in cm-1:     0.022743     0.007244     0.006551
Rotational constants in MHz :   681.804166   217.178257   196.400027

                             ****ORCA TERMINATED NORMALLY****
TOTAL RUN TIME: 0 days 0 hours 0 minutes 21 seconds 302 msec
