                         Program Version 4.2.1 -  RELEASE  -
|  1> ! wB97X-D3 SP def2-SVP
|  2> %pal
|  3> nprocs 24
|  4> end
|  5>
|  6> * xyz 0 1
|  7> S 	 -85.0244 	 -18.6219 	 -51.5601
|  8> C 	 -86.0022 	 -17.2768 	 -51.8664
|  9> C 	 -85.4221 	 -16.0901 	 -51.4951
| 10> C 	 -84.0219 	 -16.3075 	 -51.1796
| 11> C 	 -83.7248 	 -17.6467 	 -51.043
| 12> H 	 -83.3505 	 -15.5087 	 -50.8748
| 13> C 	 -86.1465 	 -14.7569 	 -51.5427
| 14> H 	 -85.4737 	 -14.197 	 -50.8843
| 15> H 	 -87.0218 	 -14.9293 	 -50.9175
| 16> C 	 -86.2764 	 -14.0621 	 -52.9316
| 17> H 	 -85.3341 	 -13.7995 	 -53.3332
| 18> H 	 -86.6675 	 -14.614 	 -53.7835
| 19> C 	 -87.0397 	 -12.7214 	 -52.9276
| 20> H 	 -87.5374 	 -12.5489 	 -53.8878
| 21> H 	 -87.9002 	 -12.8419 	 -52.2194
| 22> H 	 -86.3632 	 -11.9509 	 -52.6328
| 23> S 	 -82.5317 	 -19.6687 	 -49.3954
| 24> C 	 -80.8782 	 -19.438 	 -48.9259
| 25> C 	 -80.3241 	 -18.529 	 -49.7727
| 26> C 	 -81.1712 	 -17.854 	 -50.6789
| 27> C 	 -82.5464 	 -18.2548 	 -50.4903
| 28> H 	 -79.2675 	 -18.413 	 -49.6965
| 29> C 	 -80.6078 	 -16.7595 	 -51.5919
| 30> H 	 -79.5504 	 -16.7247 	 -51.333
| 31> H 	 -80.9697 	 -15.7227 	 -51.247
| 32> C 	 -80.9204 	 -16.8989 	 -53.1197
| 33> H 	 -82.0193 	 -16.785 	 -53.2975
| 34> H 	 -80.7293 	 -17.959 	 -53.4159
| 35> C 	 -80.1673 	 -16.0464 	 -54.1221
| 36> H 	 -79.1021 	 -16.1603 	 -53.928
| 37> H 	 -80.5566 	 -15.0666 	 -54.0452
| 38> H 	 -80.3323 	 -16.3699 	 -55.1653
| 39> H 	 -86.994 	 -17.4284 	 -52.3654
| 40> H 	 -80.4318 	 -19.9821 	 -48.0781
| 41> *
| 42>
| 43>                          ****END OF INPUT****

CARTESIAN COORDINATES (ANGSTROEM)
---------------------------------
  S    -85.024400  -18.621900  -51.560100
  C    -86.002200  -17.276800  -51.866400
  C    -85.422100  -16.090100  -51.495100
  C    -84.021900  -16.307500  -51.179600
  C    -83.724800  -17.646700  -51.043000
  H    -83.350500  -15.508700  -50.874800
  C    -86.146500  -14.756900  -51.542700
  H    -85.473700  -14.197000  -50.884300
  H    -87.021800  -14.929300  -50.917500
  C    -86.276400  -14.062100  -52.931600
  H    -85.334100  -13.799500  -53.333200
  H    -86.667500  -14.614000  -53.783500
  C    -87.039700  -12.721400  -52.927600
  H    -87.537400  -12.548900  -53.887800
  H    -87.900200  -12.841900  -52.219400
  H    -86.363200  -11.950900  -52.632800
  S    -82.531700  -19.668700  -49.395400
  C    -80.878200  -19.438000  -48.925900
  C    -80.324100  -18.529000  -49.772700
  C    -81.171200  -17.854000  -50.678900
  C    -82.546400  -18.254800  -50.490300
  H    -79.267500  -18.413000  -49.696500
  C    -80.607800  -16.759500  -51.591900
  H    -79.550400  -16.724700  -51.333000
  H    -80.969700  -15.722700  -51.247000
  C    -80.920400  -16.898900  -53.119700
  H    -82.019300  -16.785000  -53.297500
  H    -80.729300  -17.959000  -53.415900
  C    -80.167300  -16.046400  -54.122100
  H    -79.102100  -16.160300  -53.928000
  H    -80.556600  -15.066600  -54.045200
  H    -80.332300  -16.369900  -55.165300
  H    -86.994000  -17.428400  -52.365400
  H    -80.431800  -19.982100  -48.078100

 Total Charge           Charge          ....    0
 Multiplicity           Mult            ....    1
 Number of Electrons    NEL             ....  134
 Basis Dimension        Dim             ....  322

ORBITAL ENERGIES
----------------

  NO   OCC          E(Eh)            E(eV)
   0   2.0000     -88.964155     -2420.8377
   1   2.0000     -88.962896     -2420.8035
   2   2.0000     -10.332882      -281.1720
   3   2.0000     -10.325080      -280.9597
   4   2.0000     -10.316312      -280.7211
   5   2.0000     -10.308748      -280.5153
   6   2.0000     -10.306872      -280.4642
   7   2.0000     -10.302476      -280.3446
   8   2.0000     -10.300428      -280.2889
   9   2.0000     -10.297916      -280.2205
  10   2.0000     -10.296295      -280.1764
  11   2.0000     -10.288136      -279.9544
  12   2.0000     -10.286789      -279.9178
  13   2.0000     -10.286396      -279.9071
  14   2.0000     -10.279353      -279.7154
  15   2.0000     -10.273892      -279.5668
  16   2.0000      -8.079942      -219.8664
  17   2.0000      -8.078584      -219.8294
  18   2.0000      -6.038235      -164.3087
  19   2.0000      -6.037157      -164.2794
  20   2.0000      -6.034090      -164.1959
  21   2.0000      -6.033030      -164.1671
  22   2.0000      -6.030831      -164.1073
  23   2.0000      -6.029399      -164.0683
  24   2.0000      -1.012940       -27.5635
  25   2.0000      -0.986502       -26.8441
  26   2.0000      -0.910249       -24.7691
  27   2.0000      -0.900167       -24.4948
  28   2.0000      -0.871983       -23.7279
  29   2.0000      -0.855185       -23.2708
  30   2.0000      -0.848968       -23.1016
  31   2.0000      -0.814839       -22.1729
  32   2.0000      -0.783646       -21.3241
  33   2.0000      -0.768504       -20.9120
  34   2.0000      -0.707811       -19.2605
  35   2.0000      -0.703785       -19.1510
  36   2.0000      -0.684397       -18.6234
  37   2.0000      -0.660440       -17.9715
  38   2.0000      -0.637199       -17.3391
  39   2.0000      -0.619198       -16.8492
  40   2.0000      -0.592712       -16.1285
  41   2.0000      -0.568472       -15.4689
  42   2.0000      -0.560726       -15.2581
  43   2.0000      -0.557179       -15.1616
  44   2.0000      -0.533658       -14.5216
  45   2.0000      -0.525181       -14.2909
  46   2.0000      -0.519283       -14.1304
  47   2.0000      -0.515033       -14.0148
  48   2.0000      -0.505330       -13.7507
  49   2.0000      -0.502281       -13.6678
  50   2.0000      -0.489778       -13.3275
  51   2.0000      -0.485566       -13.2129
  52   2.0000      -0.471832       -12.8392
  53   2.0000      -0.464315       -12.6346
  54   2.0000      -0.455532       -12.3957
  55   2.0000      -0.448213       -12.1965
  56   2.0000      -0.443523       -12.0689
  57   2.0000      -0.438270       -11.9259
  58   2.0000      -0.425975       -11.5914
  59   2.0000      -0.424579       -11.5534
  60   2.0000      -0.416097       -11.3226
  61   2.0000      -0.412326       -11.2200
  62   2.0000      -0.408014       -11.1026
  63   2.0000      -0.355046        -9.6613
  64   2.0000      -0.332249        -9.0410
  65   2.0000      -0.327701        -8.9172
  66   2.0000      -0.280178        -7.6240
  67   0.0000       0.023123         0.6292
  68   0.0000       0.073363         1.9963
  69   0.0000       0.116606         3.1730
  70   0.0000       0.119361         3.2480
  71   0.0000       0.133868         3.6427

MULLIKEN ATOMIC CHARGES
-----------------------
   0 S :    0.121542
   1 C :   -0.138905
   2 C :   -0.134163
   3 C :    0.019927
   4 C :   -0.161951
   5 H :    0.010908
   6 C :    0.094005
   7 H :    0.013753
   8 H :    0.038746
   9 C :   -0.041787
  10 H :    0.010020
  11 H :    0.023909
  12 C :   -0.058749
  13 H :    0.035016
  14 H :    0.030248
  15 H :    0.039001
  16 S :    0.102083
  17 C :   -0.113805
  18 C :   -0.029989
  19 C :   -0.020484
  20 C :   -0.131705
  21 H :    0.008904
  22 C :    0.058368
  23 H :    0.010629
  24 H :    0.038512
  25 C :   -0.117140
  26 H :    0.047697
  27 H :    0.029780
  28 C :   -0.017935
  29 H :    0.031642
  30 H :    0.023860
  31 H :    0.036437
  32 H :    0.066711
  33 H :    0.074916
Sum of atomic charges:   -0.0000000

LOEWDIN ATOMIC CHARGES
----------------------
   0 S :    0.447107
   1 C :   -0.220221
   2 C :   -0.067078
   3 C :   -0.064335
   4 C :   -0.207125
   5 H :    0.030413
   6 C :   -0.032445
   7 H :    0.033599
   8 H :    0.036450
   9 C :   -0.042346
  10 H :    0.020931
  11 H :    0.025101
  12 C :   -0.064029
  13 H :    0.028628
  14 H :    0.027658
  15 H :    0.021053
  16 S :    0.395465
  17 C :   -0.193968
  18 C :   -0.077723
  19 C :   -0.055611
  20 C :   -0.188874
  21 H :    0.026642
  22 C :   -0.036062
  23 H :    0.027418
  24 H :    0.035361
  25 C :   -0.051506
  26 H :    0.029870
  27 H :    0.025736
  28 C :   -0.062481
  29 H :    0.025285
  30 H :    0.018271
  31 H :    0.032565
  32 H :    0.036180
  33 H :    0.040071

  Mayer bond orders larger than 0.100000
B(  0-S ,  1-C ) :   1.1593 B(  0-S ,  4-C ) :   1.1696 B(  1-C ,  2-C ) :   1.5955
B(  1-C , 32-H ) :   0.9652 B(  2-C ,  3-C ) :   1.2669 B(  2-C ,  6-C ) :   1.0088
B(  3-C ,  4-C ) :   1.5396 B(  3-C ,  5-H ) :   0.9893 B(  4-C , 20-C ) :   1.0933
B(  6-C ,  7-H ) :   0.9364 B(  6-C ,  8-H ) :   0.9400 B(  6-C ,  9-C ) :   1.0481
B(  9-C , 10-H ) :   0.9545 B(  9-C , 11-H ) :   0.9655 B(  9-C , 12-C ) :   1.0751
B( 12-C , 13-H ) :   0.9765 B( 12-C , 14-H ) :   0.9783 B( 12-C , 15-H ) :   0.9819
B( 16-S , 17-C ) :   1.1560 B( 16-S , 20-C ) :   1.1484 B( 17-C , 18-C ) :   1.5747
B( 17-C , 20-C ) :   0.1108 B( 17-C , 33-H ) :   0.9679 B( 18-C , 19-C ) :   1.2818
B( 18-C , 21-H ) :   0.9920 B( 19-C , 20-C ) :   1.5060 B( 19-C , 22-C ) :   1.0450
B( 22-C , 23-H ) :   0.9345 B( 22-C , 24-H ) :   0.9310 B( 22-C , 25-C ) :   1.0406
B( 25-C , 26-H ) :   0.9530 B( 25-C , 27-H ) :   0.9603 B( 25-C , 28-C ) :   1.0906
B( 28-C , 29-H ) :   0.9742 B( 28-C , 30-H ) :   0.9749 B( 28-C , 31-H ) :   0.9730

Dispersion correction           -0.013930073
FINAL SINGLE POINT ENERGY     -1339.865758098863

DIPOLE MOMENT
-------------
                                X             Y             Z
Electronic contribution:     -1.00195     -26.23860      16.00429
Nuclear contribution   :      1.14473      26.80299     -16.18693
                        -----------------------------------------
Total Dipole Moment    :      0.14278       0.56439      -0.18264
                        -----------------------------------------
Magnitude (a.u.)       :      0.61015
Magnitude (Debye)      :      1.55088

Rotational constants in cm-1:     0.018889     0.008167     0.006400
Rotational constants in MHz :   566.291045   244.851662   191.866220

                             ****ORCA TERMINATED NORMALLY****
TOTAL RUN TIME: 0 days 0 hours 0 minutes 21 seconds 327 msec
