                         Program Version 4.2.1 -  RELEASE  -
|  1> ! wB97X-D3 SP def2-SVP
|  2> %pal
|  3> nprocs 24
|  4> end
|  5>
|  6> * xyz 0 1
|  7> S 	 -43.9109 	 17.4048 	 23.6028
|  8> C 	 -44.0077 	 19.1975 	 23.4315
|  9> C 	 -45.2201 	 19.5437 	 22.8378
| 10> C 	 -46.0762 	 18.417 	 22.7137
| 11> C 	 -45.563 	 17.1855 	 23.1066
| 12> H 	 -47.095 	 18.4926 	 22.5053
| 13> C 	 -45.5635 	 20.8728 	 22.373
| 14> H 	 -44.6664 	 21.4293 	 22.3753
| 15> H 	 -46.1666 	 21.4318 	 23.0608
| 16> C 	 -46.089 	 20.8387 	 20.9961
| 17> H 	 -47.0411 	 20.2423 	 20.9754
| 18> H 	 -46.3604 	 21.8255 	 20.774
| 19> C 	 -45.0524 	 20.2742 	 19.9613
| 20> H 	 -44.9617 	 20.6718 	 18.976
| 21> H 	 -44.0167 	 20.3132 	 20.243
| 22> H 	 -45.3201 	 19.1922 	 19.8425
| 23> S 	 -46.2847 	 15.0524 	 24.5429
| 24> C 	 -47.3146 	 13.8323 	 23.9282
| 25> C 	 -47.5399 	 14.024 	 22.6099
| 26> C 	 -47.1216 	 15.3317 	 22.1449
| 27> C 	 -46.3038 	 15.929 	 23.0474
| 28> H 	 -48.2218 	 13.3014 	 22.0831
| 29> C 	 -47.4022 	 15.8069 	 20.7404
| 30> H 	 -47.1936 	 16.8423 	 20.5985
| 31> H 	 -48.481 	 15.7787 	 20.6432
| 32> C 	 -46.8848 	 14.9547 	 19.5418
| 33> H 	 -47.269 	 13.9212 	 19.7798
| 34> H 	 -45.756 	 14.988 	 19.477
| 35> C 	 -47.4768 	 15.4528 	 18.2358
| 36> H 	 -47.6221 	 16.5479 	 18.2158
| 37> H 	 -48.4406 	 14.9789 	 17.9894
| 38> H 	 -46.7883 	 15.2287 	 17.4571
| 39> H 	 -43.2559 	 20.01 	 23.4796
| 40> H 	 -47.5805 	 12.9455 	 24.6024
| 41> *
| 42>
| 43>                          ****END OF INPUT****

CARTESIAN COORDINATES (ANGSTROEM)
---------------------------------
  S    -43.910900   17.404800   23.602800
  C    -44.007700   19.197500   23.431500
  C    -45.220100   19.543700   22.837800
  C    -46.076200   18.417000   22.713700
  C    -45.563000   17.185500   23.106600
  H    -47.095000   18.492600   22.505300
  C    -45.563500   20.872800   22.373000
  H    -44.666400   21.429300   22.375300
  H    -46.166600   21.431800   23.060800
  C    -46.089000   20.838700   20.996100
  H    -47.041100   20.242300   20.975400
  H    -46.360400   21.825500   20.774000
  C    -45.052400   20.274200   19.961300
  H    -44.961700   20.671800   18.976000
  H    -44.016700   20.313200   20.243000
  H    -45.320100   19.192200   19.842500
  S    -46.284700   15.052400   24.542900
  C    -47.314600   13.832300   23.928200
  C    -47.539900   14.024000   22.609900
  C    -47.121600   15.331700   22.144900
  C    -46.303800   15.929000   23.047400
  H    -48.221800   13.301400   22.083100
  C    -47.402200   15.806900   20.740400
  H    -47.193600   16.842300   20.598500
  H    -48.481000   15.778700   20.643200
  C    -46.884800   14.954700   19.541800
  H    -47.269000   13.921200   19.779800
  H    -45.756000   14.988000   19.477000
  C    -47.476800   15.452800   18.235800
  H    -47.622100   16.547900   18.215800
  H    -48.440600   14.978900   17.989400
  H    -46.788300   15.228700   17.457100
  H    -43.255900   20.010000   23.479600
  H    -47.580500   12.945500   24.602400

 Total Charge           Charge          ....    0
 Multiplicity           Mult            ....    1
 Number of Electrons    NEL             ....  134
 Basis Dimension        Dim             ....  322

ORBITAL ENERGIES
----------------

  NO   OCC          E(Eh)            E(eV)
   0   2.0000     -88.969222     -2420.9756
   1   2.0000     -88.957642     -2420.6605
   2   2.0000     -10.330277      -281.1011
   3   2.0000     -10.323610      -280.9197
   4   2.0000     -10.318444      -280.7791
   5   2.0000     -10.316889      -280.7368
   6   2.0000     -10.304929      -280.4114
   7   2.0000     -10.297341      -280.2049
   8   2.0000     -10.295143      -280.1451
   9   2.0000     -10.293511      -280.1007
  10   2.0000     -10.287748      -279.9438
  11   2.0000     -10.286749      -279.9167
  12   2.0000     -10.283943      -279.8403
  13   2.0000     -10.278933      -279.7040
  14   2.0000     -10.277806      -279.6733
  15   2.0000     -10.276357      -279.6339
  16   2.0000      -8.082699      -219.9414
  17   2.0000      -8.074299      -219.7129
  18   2.0000      -6.041403      -164.3949
  19   2.0000      -6.037385      -164.2856
  20   2.0000      -6.033290      -164.1742
  21   2.0000      -6.032708      -164.1583
  22   2.0000      -6.028529      -164.0446
  23   2.0000      -6.025024      -163.9492
  24   2.0000      -1.012977       -27.5645
  25   2.0000      -0.987038       -26.8587
  26   2.0000      -0.927521       -25.2391
  27   2.0000      -0.909734       -24.7551
  28   2.0000      -0.869662       -23.6647
  29   2.0000      -0.853418       -23.2227
  30   2.0000      -0.838856       -22.8264
  31   2.0000      -0.815415       -22.1886
  32   2.0000      -0.787079       -21.4175
  33   2.0000      -0.777378       -21.1535
  34   2.0000      -0.715884       -19.4802
  35   2.0000      -0.696836       -18.9619
  36   2.0000      -0.693065       -18.8593
  37   2.0000      -0.658096       -17.9077
  38   2.0000      -0.637698       -17.3526
  39   2.0000      -0.624509       -16.9938
  40   2.0000      -0.602618       -16.3981
  41   2.0000      -0.574043       -15.6205
  42   2.0000      -0.564768       -15.3681
  43   2.0000      -0.556905       -15.1541
  44   2.0000      -0.536736       -14.6053
  45   2.0000      -0.524149       -14.2628
  46   2.0000      -0.517970       -14.0947
  47   2.0000      -0.515137       -14.0176
  48   2.0000      -0.503314       -13.6959
  49   2.0000      -0.499138       -13.5822
  50   2.0000      -0.487096       -13.2546
  51   2.0000      -0.476752       -12.9731
  52   2.0000      -0.468820       -12.7572
  53   2.0000      -0.467667       -12.7259
  54   2.0000      -0.462211       -12.5774
  55   2.0000      -0.451902       -12.2969
  56   2.0000      -0.443065       -12.0564
  57   2.0000      -0.434164       -11.8142
  58   2.0000      -0.430537       -11.7155
  59   2.0000      -0.425668       -11.5830
  60   2.0000      -0.421219       -11.4620
  61   2.0000      -0.417777       -11.3683
  62   2.0000      -0.412908       -11.2358
  63   2.0000      -0.349517        -9.5109
  64   2.0000      -0.329791        -8.9741
  65   2.0000      -0.325836        -8.8665
  66   2.0000      -0.294665        -8.0183
  67   0.0000       0.034011         0.9255
  68   0.0000       0.074746         2.0339
  69   0.0000       0.107370         2.9217
  70   0.0000       0.120538         3.2800
  71   0.0000       0.129324         3.5191

MULLIKEN ATOMIC CHARGES
-----------------------
   0 S :    0.115484
   1 C :   -0.117466
   2 C :   -0.125089
   3 C :    0.024267
   4 C :   -0.121190
   5 H :   -0.005778
   6 C :    0.130604
   7 H :   -0.012437
   8 H :    0.033214
   9 C :   -0.062814
  10 H :    0.036826
  11 H :    0.013365
  12 C :   -0.054004
  13 H :    0.027867
  14 H :    0.022797
  15 H :    0.042106
  16 S :    0.094402
  17 C :   -0.119702
  18 C :   -0.048432
  19 C :   -0.039241
  20 C :   -0.149294
  21 H :    0.040014
  22 C :    0.067205
  23 H :    0.000728
  24 H :    0.016101
  25 C :   -0.097336
  26 H :    0.036277
  27 H :    0.051394
  28 C :   -0.035823
  29 H :    0.031024
  30 H :    0.036999
  31 H :    0.027423
  32 H :    0.051284
  33 H :    0.089227
Sum of atomic charges:    0.0000000

LOEWDIN ATOMIC CHARGES
----------------------
   0 S :    0.396272
   1 C :   -0.199153
   2 C :   -0.058337
   3 C :   -0.064555
   4 C :   -0.194749
   5 H :    0.017604
   6 C :   -0.033364
   7 H :    0.024324
   8 H :    0.033981
   9 C :   -0.031588
  10 H :    0.028207
  11 H :    0.016157
  12 C :   -0.071067
  13 H :    0.022954
  14 H :    0.023912
  15 H :    0.035241
  16 S :    0.418433
  17 C :   -0.201187
  18 C :   -0.083320
  19 C :   -0.055696
  20 C :   -0.196967
  21 H :    0.039471
  22 C :   -0.035237
  23 H :    0.020126
  24 H :    0.031614
  25 C :   -0.039661
  26 H :    0.028967
  27 H :    0.031641
  28 C :   -0.067564
  29 H :    0.027139
  30 H :    0.028699
  31 H :    0.024040
  32 H :    0.037184
  33 H :    0.046480

  Mayer bond orders larger than 0.100000
B(  0-S ,  1-C ) :   1.1153 B(  0-S ,  4-C ) :   1.1540 B(  1-C ,  2-C ) :   1.6190
B(  1-C , 32-H ) :   0.9558 B(  2-C ,  3-C ) :   1.2413 B(  2-C ,  6-C ) :   1.0366
B(  3-C ,  4-C ) :   1.5674 B(  3-C ,  5-H ) :   0.9996 B(  4-C , 20-C ) :   1.0210
B(  6-C ,  7-H ) :   0.9206 B(  6-C ,  8-H ) :   0.9229 B(  6-C ,  9-C ) :   1.0927
B(  9-C , 10-H ) :   0.9573 B(  9-C , 11-H ) :   0.9536 B(  9-C , 12-C ) :   1.0455
B( 12-C , 13-H ) :   0.9792 B( 12-C , 14-H ) :   0.9794 B( 12-C , 15-H ) :   0.9739
B( 16-S , 17-C ) :   1.1635 B( 16-S , 20-C ) :   1.1406 B( 17-C , 18-C ) :   1.6312
B( 17-C , 33-H ) :   0.9567 B( 18-C , 19-C ) :   1.2020 B( 18-C , 21-H ) :   0.9784
B( 19-C , 20-C ) :   1.6319 B( 19-C , 22-C ) :   1.0543 B( 22-C , 23-H ) :   0.9324
B( 22-C , 24-H ) :   0.9240 B( 22-C , 25-C ) :   1.0614 B( 25-C , 26-H ) :   0.9526
B( 25-C , 27-H ) :   0.9612 B( 25-C , 28-C ) :   1.0753 B( 28-C , 29-H ) :   0.9749
B( 28-C , 30-H ) :   0.9735 B( 28-C , 31-H ) :   0.9746

Dispersion correction           -0.014752438
FINAL SINGLE POINT ENERGY     -1339.864268424291

DIPOLE MOMENT
-------------
                                X             Y             Z
Electronic contribution:      7.76884     -10.71085      26.54041
Nuclear contribution   :     -8.19106      10.98197     -27.12213
                        -----------------------------------------
Total Dipole Moment    :     -0.42222       0.27112      -0.58172
                        -----------------------------------------
Magnitude (a.u.)       :      0.76823
Magnitude (Debye)      :      1.95268

Rotational constants in cm-1:     0.016607     0.010433     0.007156
Rotational constants in MHz :   497.875556   312.763941   214.535770

                             ****ORCA TERMINATED NORMALLY****
TOTAL RUN TIME: 0 days 0 hours 0 minutes 22 seconds 494 msec
