                         Program Version 4.2.1 -  RELEASE  -
|  1> ! wB97X-D3 SP def2-SVP
|  2> %pal
|  3> nprocs 24
|  4> end
|  5>
|  6> * xyz 0 1
|  7> S 	 -63.753 	 14.999 	 -122.871
|  8> C 	 -62.4769 	 14.6182 	 -121.797
|  9> C 	 -62.9501 	 14.1453 	 -120.635
| 10> C 	 -64.3423 	 13.8813 	 -120.618
| 11> C 	 -64.9936 	 14.2862 	 -121.77
| 12> H 	 -64.8128 	 13.309 	 -119.797
| 13> C 	 -62.1555 	 13.9673 	 -119.351
| 14> H 	 -62.7836 	 13.8214 	 -118.516
| 15> H 	 -61.7153 	 14.9743 	 -119.149
| 16> C 	 -61.1196 	 12.8395 	 -119.405
| 17> H 	 -61.699 	 11.9191 	 -119.462
| 18> H 	 -60.4405 	 12.983 	 -120.202
| 19> C 	 -60.337 	 12.7493 	 -118.066
| 20> H 	 -59.7641 	 13.6497 	 -117.799
| 21> H 	 -61.0574 	 12.5721 	 -117.232
| 22> H 	 -59.6272 	 11.8826 	 -118.155
| 23> S 	 -66.5163 	 13.393 	 -123.92
| 24> C 	 -68.2231 	 13.1553 	 -123.707
| 25> C 	 -68.615 	 13.3373 	 -122.378
| 26> C 	 -67.5413 	 13.9141 	 -121.603
| 27> C 	 -66.3436 	 13.9589 	 -122.241
| 28> H 	 -69.6534 	 13.0094 	 -122.154
| 29> C 	 -67.7876 	 14.3434 	 -120.154
| 30> H 	 -67.1994 	 13.7772 	 -119.427
| 31> H 	 -68.7745 	 14.1748 	 -119.88
| 32> C 	 -67.5212 	 15.896 	 -119.894
| 33> H 	 -68.2279 	 16.3668 	 -120.561
| 34> H 	 -66.571 	 16.2912 	 -120.24
| 35> C 	 -67.7617 	 16.2265 	 -118.388
| 36> H 	 -66.8962 	 16.593 	 -117.87
| 37> H 	 -68.1751 	 15.3034 	 -117.911
| 38> H 	 -68.4056 	 17.137 	 -118.192
| 39> H 	 -61.4493 	 14.9898 	 -121.951
| 40> H 	 -68.805 	 12.5776 	 -124.384
| 41> *
| 42>
| 43>                          ****END OF INPUT****

CARTESIAN COORDINATES (ANGSTROEM)
---------------------------------
  S    -63.753000   14.999000  -122.871000
  C    -62.476900   14.618200  -121.797000
  C    -62.950100   14.145300  -120.635000
  C    -64.342300   13.881300  -120.618000
  C    -64.993600   14.286200  -121.770000
  H    -64.812800   13.309000  -119.797000
  C    -62.155500   13.967300  -119.351000
  H    -62.783600   13.821400  -118.516000
  H    -61.715300   14.974300  -119.149000
  C    -61.119600   12.839500  -119.405000
  H    -61.699000   11.919100  -119.462000
  H    -60.440500   12.983000  -120.202000
  C    -60.337000   12.749300  -118.066000
  H    -59.764100   13.649700  -117.799000
  H    -61.057400   12.572100  -117.232000
  H    -59.627200   11.882600  -118.155000
  S    -66.516300   13.393000  -123.920000
  C    -68.223100   13.155300  -123.707000
  C    -68.615000   13.337300  -122.378000
  C    -67.541300   13.914100  -121.603000
  C    -66.343600   13.958900  -122.241000
  H    -69.653400   13.009400  -122.154000
  C    -67.787600   14.343400  -120.154000
  H    -67.199400   13.777200  -119.427000
  H    -68.774500   14.174800  -119.880000
  C    -67.521200   15.896000  -119.894000
  H    -68.227900   16.366800  -120.561000
  H    -66.571000   16.291200  -120.240000
  C    -67.761700   16.226500  -118.388000
  H    -66.896200   16.593000  -117.870000
  H    -68.175100   15.303400  -117.911000
  H    -68.405600   17.137000  -118.192000
  H    -61.449300   14.989800  -121.951000
  H    -68.805000   12.577600  -124.384000

 Total Charge           Charge          ....    0
 Multiplicity           Mult            ....    1
 Number of Electrons    NEL             ....  134
 Basis Dimension        Dim             ....  322

ORBITAL ENERGIES
----------------

  NO   OCC          E(Eh)            E(eV)
   0   2.0000     -88.964572     -2420.8491
   1   2.0000     -88.964473     -2420.8464
   2   2.0000     -10.336011      -281.2572
   3   2.0000     -10.328860      -281.0626
   4   2.0000     -10.314606      -280.6747
   5   2.0000     -10.310348      -280.5588
   6   2.0000     -10.305480      -280.4264
   7   2.0000     -10.301241      -280.3110
   8   2.0000     -10.296558      -280.1836
   9   2.0000     -10.293234      -280.0931
  10   2.0000     -10.290941      -280.0307
  11   2.0000     -10.288315      -279.9593
  12   2.0000     -10.285848      -279.8921
  13   2.0000     -10.285369      -279.8791
  14   2.0000     -10.284749      -279.8622
  15   2.0000     -10.282389      -279.7980
  16   2.0000      -8.079323      -219.8496
  17   2.0000      -8.079118      -219.8440
  18   2.0000      -6.037996      -164.3022
  19   2.0000      -6.037638      -164.2925
  20   2.0000      -6.033757      -164.1869
  21   2.0000      -6.033671      -164.1845
  22   2.0000      -6.029965      -164.0837
  23   2.0000      -6.029813      -164.0796
  24   2.0000      -1.007385       -27.4123
  25   2.0000      -0.987085       -26.8600
  26   2.0000      -0.910899       -24.7868
  27   2.0000      -0.900266       -24.4975
  28   2.0000      -0.869827       -23.6692
  29   2.0000      -0.850343       -23.1390
  30   2.0000      -0.843237       -22.9456
  31   2.0000      -0.814307       -22.1584
  32   2.0000      -0.777718       -21.1628
  33   2.0000      -0.769165       -20.9300
  34   2.0000      -0.709147       -19.2969
  35   2.0000      -0.701494       -19.0886
  36   2.0000      -0.694374       -18.8949
  37   2.0000      -0.664712       -18.0877
  38   2.0000      -0.637573       -17.3492
  39   2.0000      -0.620953       -16.8970
  40   2.0000      -0.594709       -16.1829
  41   2.0000      -0.578366       -15.7381
  42   2.0000      -0.561902       -15.2901
  43   2.0000      -0.551425       -15.0050
  44   2.0000      -0.527148       -14.3444
  45   2.0000      -0.522554       -14.2194
  46   2.0000      -0.514384       -13.9971
  47   2.0000      -0.508734       -13.8434
  48   2.0000      -0.504806       -13.7365
  49   2.0000      -0.499661       -13.5965
  50   2.0000      -0.487878       -13.2758
  51   2.0000      -0.483027       -13.1438
  52   2.0000      -0.473049       -12.8723
  53   2.0000      -0.460717       -12.5367
  54   2.0000      -0.458789       -12.4843
  55   2.0000      -0.446824       -12.1587
  56   2.0000      -0.442268       -12.0347
  57   2.0000      -0.434977       -11.8363
  58   2.0000      -0.432194       -11.7606
  59   2.0000      -0.428074       -11.6485
  60   2.0000      -0.421360       -11.4658
  61   2.0000      -0.413032       -11.2392
  62   2.0000      -0.409725       -11.1492
  63   2.0000      -0.357572        -9.7300
  64   2.0000      -0.330931        -9.0051
  65   2.0000      -0.327937        -8.9236
  66   2.0000      -0.290711        -7.9106
  67   0.0000       0.024088         0.6555
  68   0.0000       0.071872         1.9557
  69   0.0000       0.104549         2.8449
  70   0.0000       0.117208         3.1894
  71   0.0000       0.142430         3.8757

MULLIKEN ATOMIC CHARGES
-----------------------
   0 S :    0.094880
   1 C :   -0.127803
   2 C :   -0.083064
   3 C :    0.016183
   4 C :   -0.141987
   5 H :    0.027760
   6 C :    0.058889
   7 H :   -0.003963
   8 H :    0.032244
   9 C :   -0.048377
  10 H :    0.033684
  11 H :    0.027055
  12 C :   -0.077603
  13 H :    0.035327
  14 H :    0.032187
  15 H :    0.044617
  16 S :    0.103688
  17 C :   -0.087578
  18 C :   -0.062880
  19 C :   -0.044979
  20 C :   -0.121406
  21 H :    0.040395
  22 C :    0.082159
  23 H :    0.027967
  24 H :   -0.000926
  25 C :   -0.074632
  26 H :    0.027953
  27 H :    0.041315
  28 C :   -0.071672
  29 H :    0.029731
  30 H :    0.042078
  31 H :    0.037020
  32 H :    0.059747
  33 H :    0.051993
Sum of atomic charges:    0.0000000

LOEWDIN ATOMIC CHARGES
----------------------
   0 S :    0.394879
   1 C :   -0.206035
   2 C :   -0.073206
   3 C :   -0.061111
   4 C :   -0.173526
   5 H :    0.037351
   6 C :   -0.030145
   7 H :    0.018688
   8 H :    0.034112
   9 C :   -0.031364
  10 H :    0.029522
  11 H :    0.017188
  12 C :   -0.071609
  13 H :    0.023098
  14 H :    0.026010
  15 H :    0.030772
  16 S :    0.399336
  17 C :   -0.186901
  18 C :   -0.072819
  19 C :   -0.059032
  20 C :   -0.185442
  21 H :    0.041818
  22 C :   -0.022501
  23 H :    0.024583
  24 H :    0.018173
  25 C :   -0.035630
  26 H :    0.022567
  27 H :    0.023415
  28 C :   -0.078295
  29 H :    0.023760
  30 H :    0.029274
  31 H :    0.034239
  32 H :    0.036167
  33 H :    0.022663

  Mayer bond orders larger than 0.100000
B(  0-S ,  1-C ) :   1.1349 B(  0-S ,  4-C ) :   1.1427 B(  1-C ,  2-C ) :   1.6262
B(  1-C , 32-H ) :   0.9605 B(  2-C ,  3-C ) :   1.2650 B(  2-C ,  6-C ) :   1.0081
B(  3-C ,  4-C ) :   1.5592 B(  3-C ,  5-H ) :   0.9831 B(  4-C , 20-C ) :   1.0549
B(  6-C ,  7-H ) :   0.9432 B(  6-C ,  8-H ) :   0.9409 B(  6-C ,  9-C ) :   1.0665
B(  9-C , 10-H ) :   0.9542 B(  9-C , 11-H ) :   0.9605 B(  9-C , 12-C ) :   1.0818
B( 12-C , 13-H ) :   0.9765 B( 12-C , 14-H ) :   0.9743 B( 12-C , 15-H ) :   0.9759
B( 16-S , 17-C ) :   1.1602 B( 16-S , 20-C ) :   1.1252 B( 17-C , 18-C ) :   1.6300
B( 17-C , 33-H ) :   0.9634 B( 18-C , 19-C ) :   1.2151 B( 18-C , 21-H ) :   0.9857
B( 19-C , 20-C ) :   1.6248 B( 19-C , 22-C ) :   1.0468 B( 22-C , 23-H ) :   0.9372
B( 22-C , 24-H ) :   0.9315 B( 22-C , 25-C ) :   1.0512 B( 25-C , 26-H ) :   0.9612
B( 25-C , 27-H ) :   0.9670 B( 25-C , 28-C ) :   1.0542 B( 28-C , 29-H ) :   0.9763
B( 28-C , 30-H ) :   0.9776 B( 28-C , 31-H ) :   0.9749

Dispersion correction           -0.013794004
FINAL SINGLE POINT ENERGY     -1339.873746145141

DIPOLE MOMENT
-------------
                                X             Y             Z
Electronic contribution:     -5.76873      -1.14508     -28.42963
Nuclear contribution   :      5.77029       0.97945      29.10174
                        -----------------------------------------
Total Dipole Moment    :      0.00156      -0.16563       0.67210
                        -----------------------------------------
Magnitude (a.u.)       :      0.69221
Magnitude (Debye)      :      1.75946

Rotational constants in cm-1:     0.018396     0.008163     0.006525
Rotational constants in MHz :   551.494081   244.730071   195.612802

                             ****ORCA TERMINATED NORMALLY****
TOTAL RUN TIME: 0 days 0 hours 0 minutes 21 seconds 335 msec
