                         Program Version 4.2.1 -  RELEASE  -
|  1> ! wB97X-D3 SP def2-SVP
|  2> %pal
|  3> nprocs 24
|  4> end
|  5>
|  6> * xyz 0 1
|  7> S 	 -41.8244 	 13.3561 	 21.366
|  8> C 	 -43.5139 	 13.8449 	 21.3794
|  9> C 	 -43.7636 	 14.7398 	 20.3325
| 10> C 	 -42.6504 	 14.918 	 19.3944
| 11> C 	 -41.5243 	 14.2144 	 19.8484
| 12> H 	 -42.5706 	 15.5051 	 18.4989
| 13> C 	 -45.1343 	 15.2616 	 20.0854
| 14> H 	 -45.7405 	 14.366 	 20.043
| 15> H 	 -45.1657 	 15.7283 	 19.1417
| 16> C 	 -45.6751 	 16.2103 	 21.1178
| 17> H 	 -45.8127 	 15.7562 	 22.0736
| 18> H 	 -44.9516 	 16.9772 	 21.1912
| 19> C 	 -47.0995 	 16.7943 	 20.6622
| 20> H 	 -46.8876 	 17.4542 	 19.7529
| 21> H 	 -47.7129 	 15.9176 	 20.2778
| 22> H 	 -47.6036 	 17.3 	 21.4098
| 23> S 	 -39.6541 	 12.6457 	 18.7811
| 24> C 	 -38.2305 	 13.3553 	 18.099
| 25> C 	 -38.3289 	 14.7346 	 17.9871
| 26> C 	 -39.5036 	 15.2716 	 18.5149
| 27> C 	 -40.2696 	 14.2507 	 19.0845
| 28> H 	 -37.5013 	 15.3072 	 17.5961
| 29> C 	 -39.8411 	 16.7754 	 18.5197
| 30> H 	 -38.9368 	 17.251 	 18.7861
| 31> H 	 -40.4865 	 16.9205 	 19.4655
| 32> C 	 -40.521 	 17.4325 	 17.2612
| 33> H 	 -41.3533 	 16.9288 	 16.8853
| 34> H 	 -39.7669 	 17.5021 	 16.4747
| 35> C 	 -41.06 	 18.8401 	 17.4948
| 36> H 	 -41.9938 	 18.7971 	 18.0686
| 37> H 	 -41.3718 	 19.2355 	 16.5283
| 38> H 	 -40.4186 	 19.6797 	 17.9401
| 39> H 	 -44.1826 	 13.4353 	 22.067
| 40> H 	 -37.3647 	 12.7952 	 17.754
| 41> *
| 42>
| 43>                          ****END OF INPUT****

CARTESIAN COORDINATES (ANGSTROEM)
---------------------------------
  S    -41.824400   13.356100   21.366000
  C    -43.513900   13.844900   21.379400
  C    -43.763600   14.739800   20.332500
  C    -42.650400   14.918000   19.394400
  C    -41.524300   14.214400   19.848400
  H    -42.570600   15.505100   18.498900
  C    -45.134300   15.261600   20.085400
  H    -45.740500   14.366000   20.043000
  H    -45.165700   15.728300   19.141700
  C    -45.675100   16.210300   21.117800
  H    -45.812700   15.756200   22.073600
  H    -44.951600   16.977200   21.191200
  C    -47.099500   16.794300   20.662200
  H    -46.887600   17.454200   19.752900
  H    -47.712900   15.917600   20.277800
  H    -47.603600   17.300000   21.409800
  S    -39.654100   12.645700   18.781100
  C    -38.230500   13.355300   18.099000
  C    -38.328900   14.734600   17.987100
  C    -39.503600   15.271600   18.514900
  C    -40.269600   14.250700   19.084500
  H    -37.501300   15.307200   17.596100
  C    -39.841100   16.775400   18.519700
  H    -38.936800   17.251000   18.786100
  H    -40.486500   16.920500   19.465500
  C    -40.521000   17.432500   17.261200
  H    -41.353300   16.928800   16.885300
  H    -39.766900   17.502100   16.474700
  C    -41.060000   18.840100   17.494800
  H    -41.993800   18.797100   18.068600
  H    -41.371800   19.235500   16.528300
  H    -40.418600   19.679700   17.940100
  H    -44.182600   13.435300   22.067000
  H    -37.364700   12.795200   17.754000

 Total Charge           Charge          ....    0
 Multiplicity           Mult            ....    1
 Number of Electrons    NEL             ....  134
 Basis Dimension        Dim             ....  322

ORBITAL ENERGIES
----------------

  NO   OCC          E(Eh)            E(eV)
   0   2.0000     -88.967809     -2420.9372
   1   2.0000     -88.965885     -2420.8848
   2   2.0000     -10.330468      -281.1063
   3   2.0000     -10.324754      -280.9508
   4   2.0000     -10.313094      -280.6336
   5   2.0000     -10.311448      -280.5888
   6   2.0000     -10.304302      -280.3943
   7   2.0000     -10.303996      -280.3860
   8   2.0000     -10.299680      -280.2685
   9   2.0000     -10.297608      -280.2122
  10   2.0000     -10.291974      -280.0589
  11   2.0000     -10.289483      -279.9911
  12   2.0000     -10.286236      -279.9027
  13   2.0000     -10.285382      -279.8795
  14   2.0000     -10.281237      -279.7667
  15   2.0000     -10.279752      -279.7263
  16   2.0000      -8.081752      -219.9156
  17   2.0000      -8.081092      -219.8977
  18   2.0000      -6.040339      -164.3660
  19   2.0000      -6.039328      -164.3385
  20   2.0000      -6.036315      -164.2565
  21   2.0000      -6.035578      -164.2364
  22   2.0000      -6.032542      -164.1538
  23   2.0000      -6.032073      -164.1411
  24   2.0000      -1.005021       -27.3480
  25   2.0000      -0.979824       -26.6624
  26   2.0000      -0.914059       -24.8728
  27   2.0000      -0.905234       -24.6327
  28   2.0000      -0.865601       -23.5542
  29   2.0000      -0.858537       -23.3620
  30   2.0000      -0.842965       -22.9383
  31   2.0000      -0.810269       -22.0485
  32   2.0000      -0.780501       -21.2385
  33   2.0000      -0.766948       -20.8697
  34   2.0000      -0.707221       -19.2445
  35   2.0000      -0.705151       -19.1881
  36   2.0000      -0.693061       -18.8592
  37   2.0000      -0.665028       -18.0963
  38   2.0000      -0.646626       -17.5956
  39   2.0000      -0.610481       -16.6120
  40   2.0000      -0.592091       -16.1116
  41   2.0000      -0.576910       -15.6985
  42   2.0000      -0.567269       -15.4362
  43   2.0000      -0.556787       -15.1509
  44   2.0000      -0.526981       -14.3399
  45   2.0000      -0.524959       -14.2849
  46   2.0000      -0.518260       -14.1026
  47   2.0000      -0.513217       -13.9653
  48   2.0000      -0.505361       -13.7516
  49   2.0000      -0.496411       -13.5080
  50   2.0000      -0.491758       -13.3814
  51   2.0000      -0.478273       -13.0145
  52   2.0000      -0.472492       -12.8572
  53   2.0000      -0.462054       -12.5731
  54   2.0000      -0.455554       -12.3962
  55   2.0000      -0.448836       -12.2134
  56   2.0000      -0.441342       -12.0095
  57   2.0000      -0.439476       -11.9588
  58   2.0000      -0.437247       -11.8981
  59   2.0000      -0.428165       -11.6510
  60   2.0000      -0.426032       -11.5929
  61   2.0000      -0.419577       -11.4173
  62   2.0000      -0.413755       -11.2588
  63   2.0000      -0.342812        -9.3284
  64   2.0000      -0.334261        -9.0957
  65   2.0000      -0.325201        -8.8492
  66   2.0000      -0.289200        -7.8695
  67   0.0000       0.026426         0.7191
  68   0.0000       0.072768         1.9801
  69   0.0000       0.114379         3.1124
  70   0.0000       0.119714         3.2576
  71   0.0000       0.127767         3.4767

MULLIKEN ATOMIC CHARGES
-----------------------
   0 S :    0.116964
   1 C :   -0.116233
   2 C :   -0.078813
   3 C :    0.036201
   4 C :   -0.132595
   5 H :    0.001185
   6 C :    0.084319
   7 H :    0.031084
   8 H :   -0.003213
   9 C :   -0.056563
  10 H :    0.023156
  11 H :    0.021521
  12 C :   -0.066780
  13 H :    0.040059
  14 H :    0.037299
  15 H :    0.033241
  16 S :    0.119560
  17 C :   -0.091668
  18 C :   -0.048240
  19 C :    0.000344
  20 C :   -0.209373
  21 H :    0.012629
  22 C :    0.047738
  23 H :    0.014770
  24 H :    0.040979
  25 C :   -0.015128
  26 H :    0.022585
  27 H :    0.029610
  28 C :   -0.089705
  29 H :    0.030307
  30 H :    0.027434
  31 H :    0.047346
  32 H :    0.035183
  33 H :    0.054800
Sum of atomic charges:    0.0000000

LOEWDIN ATOMIC CHARGES
----------------------
   0 S :    0.396728
   1 C :   -0.190294
   2 C :   -0.052157
   3 C :   -0.060531
   4 C :   -0.194903
   5 H :    0.030047
   6 C :   -0.034930
   7 H :    0.033509
   8 H :    0.021093
   9 C :   -0.028714
  10 H :    0.017256
  11 H :    0.018341
  12 C :   -0.064160
  13 H :    0.031906
  14 H :    0.031344
  15 H :    0.012282
  16 S :    0.423540
  17 C :   -0.194899
  18 C :   -0.072643
  19 C :   -0.059666
  20 C :   -0.194184
  21 H :    0.030949
  22 C :   -0.032367
  23 H :    0.025030
  24 H :    0.041340
  25 C :   -0.031752
  26 H :    0.018517
  27 H :    0.026424
  28 C :   -0.074298
  29 H :    0.023685
  30 H :    0.026155
  31 H :    0.032692
  32 H :    0.016353
  33 H :    0.028306

  Mayer bond orders larger than 0.100000
B(  0-S ,  1-C ) :   1.1257 B(  0-S ,  4-C ) :   1.1576 B(  1-C ,  2-C ) :   1.5863
B(  1-C , 32-H ) :   0.9839 B(  2-C ,  3-C ) :   1.2209 B(  2-C ,  6-C ) :   1.0317
B(  3-C ,  4-C ) :   1.5512 B(  3-C ,  5-H ) :   0.9991 B(  4-C , 20-C ) :   1.0366
B(  6-C ,  7-H ) :   0.9327 B(  6-C ,  8-H ) :   0.9411 B(  6-C ,  9-C ) :   1.0648
B(  9-C , 10-H ) :   0.9573 B(  9-C , 11-H ) :   0.9590 B(  9-C , 12-C ) :   1.0723
B( 12-C , 13-H ) :   0.9772 B( 12-C , 14-H ) :   0.9760 B( 12-C , 15-H ) :   0.9785
B( 16-S , 17-C ) :   1.1580 B( 16-S , 20-C ) :   1.1723 B( 17-C , 18-C ) :   1.5905
B( 17-C , 20-C ) :   0.1062 B( 17-C , 33-H ) :   0.9679 B( 18-C , 19-C ) :   1.2645
B( 18-C , 21-H ) :   0.9915 B( 19-C , 20-C ) :   1.5665 B( 19-C , 22-C ) :   1.0273
B( 22-C , 23-H ) :   0.9315 B( 22-C , 24-H ) :   0.9402 B( 22-C , 25-C ) :   1.0530
B( 25-C , 26-H ) :   0.9531 B( 25-C , 27-H ) :   0.9543 B( 25-C , 28-C ) :   1.0833
B( 28-C , 29-H ) :   0.9753 B( 28-C , 30-H ) :   0.9724 B( 28-C , 31-H ) :   0.9758

Dispersion correction           -0.013836557
FINAL SINGLE POINT ENERGY     -1339.869072553306

DIPOLE MOMENT
-------------
                                X             Y             Z
Electronic contribution:     18.03889     -26.23680       5.75398
Nuclear contribution   :    -18.25021      26.74484      -6.03916
                        -----------------------------------------
Total Dipole Moment    :     -0.21131       0.50804      -0.28518
                        -----------------------------------------
Magnitude (a.u.)       :      0.61975
Magnitude (Debye)      :      1.57528

Rotational constants in cm-1:     0.017681     0.008731     0.006189
Rotational constants in MHz :   530.077302   261.746981   185.536324

                             ****ORCA TERMINATED NORMALLY****
TOTAL RUN TIME: 0 days 0 hours 0 minutes 20 seconds 110 msec
