                         Program Version 4.2.1 -  RELEASE  -
|  1> ! wB97X-D3 SP def2-SVP
|  2> %pal
|  3> nprocs 24
|  4> end
|  5>
|  6> * xyz 0 1
|  7> S 	 -52.4709 	 9.20751 	 -20.4678
|  8> C 	 -51.008 	 10.1075 	 -20.5933
|  9> C 	 -51.0806 	 11.2311 	 -21.4718
| 10> C 	 -52.3937 	 11.3823 	 -21.9287
| 11> C 	 -53.2693 	 10.4277 	 -21.5151
| 12> H 	 -52.8557 	 12.1945 	 -22.4891
| 13> C 	 -49.8745 	 12.1603 	 -21.8131
| 14> H 	 -49.7397 	 12.2567 	 -22.8568
| 15> H 	 -48.9678 	 11.7086 	 -21.4141
| 16> C 	 -49.9416 	 13.5658 	 -21.2224
| 17> H 	 -48.9704 	 14.0525 	 -21.3452
| 18> H 	 -50.5594 	 14.2461 	 -21.8006
| 19> C 	 -50.3155 	 13.7622 	 -19.7745
| 20> H 	 -49.9478 	 12.9736 	 -19.1873
| 21> H 	 -50.0683 	 14.6313 	 -19.3111
| 22> H 	 -51.4271 	 13.63 	 -19.6206
| 23> S 	 -55.7435 	 9.93883 	 -20.524
| 24> C 	 -57.0703 	 9.97833 	 -21.5716
| 25> C 	 -56.7228 	 10.3409 	 -22.8487
| 26> C 	 -55.316 	 10.5563 	 -23.0412
| 27> C 	 -54.6242 	 10.32 	 -21.8772
| 28> H 	 -57.4153 	 10.4116 	 -23.6659
| 29> C 	 -54.5759 	 10.9018 	 -24.3579
| 30> H 	 -53.6205 	 10.4064 	 -24.4217
| 31> H 	 -54.4087 	 11.9358 	 -24.3619
| 32> C 	 -55.426 	 10.6618 	 -25.6599
| 33> H 	 -56.3884 	 11.1344 	 -25.5668
| 34> H 	 -55.6895 	 9.64539 	 -25.7278
| 35> C 	 -54.9632 	 11.0149 	 -27.0862
| 36> H 	 -54.5151 	 12.0267 	 -27.0617
| 37> H 	 -55.8055 	 11.0109 	 -27.8423
| 38> H 	 -54.1638 	 10.3845 	 -27.4611
| 39> H 	 -50.1452 	 9.77449 	 -20.0296
| 40> H 	 -58.1431 	 9.80352 	 -21.2072
| 41> *
| 42>
| 43>                          ****END OF INPUT****

CARTESIAN COORDINATES (ANGSTROEM)
---------------------------------
  S    -52.470900    9.207510  -20.467800
  C    -51.008000   10.107500  -20.593300
  C    -51.080600   11.231100  -21.471800
  C    -52.393700   11.382300  -21.928700
  C    -53.269300   10.427700  -21.515100
  H    -52.855700   12.194500  -22.489100
  C    -49.874500   12.160300  -21.813100
  H    -49.739700   12.256700  -22.856800
  H    -48.967800   11.708600  -21.414100
  C    -49.941600   13.565800  -21.222400
  H    -48.970400   14.052500  -21.345200
  H    -50.559400   14.246100  -21.800600
  C    -50.315500   13.762200  -19.774500
  H    -49.947800   12.973600  -19.187300
  H    -50.068300   14.631300  -19.311100
  H    -51.427100   13.630000  -19.620600
  S    -55.743500    9.938830  -20.524000
  C    -57.070300    9.978330  -21.571600
  C    -56.722800   10.340900  -22.848700
  C    -55.316000   10.556300  -23.041200
  C    -54.624200   10.320000  -21.877200
  H    -57.415300   10.411600  -23.665900
  C    -54.575900   10.901800  -24.357900
  H    -53.620500   10.406400  -24.421700
  H    -54.408700   11.935800  -24.361900
  C    -55.426000   10.661800  -25.659900
  H    -56.388400   11.134400  -25.566800
  H    -55.689500    9.645390  -25.727800
  C    -54.963200   11.014900  -27.086200
  H    -54.515100   12.026700  -27.061700
  H    -55.805500   11.010900  -27.842300
  H    -54.163800   10.384500  -27.461100
  H    -50.145200    9.774490  -20.029600
  H    -58.143100    9.803520  -21.207200

 Total Charge           Charge          ....    0
 Multiplicity           Mult            ....    1
 Number of Electrons    NEL             ....  134
 Basis Dimension        Dim             ....  322

ORBITAL ENERGIES
----------------

  NO   OCC          E(Eh)            E(eV)
   0   2.0000     -88.967377     -2420.9254
   1   2.0000     -88.961810     -2420.7739
   2   2.0000     -10.322204      -280.8815
   3   2.0000     -10.320466      -280.8342
   4   2.0000     -10.319339      -280.8035
   5   2.0000     -10.317607      -280.7564
   6   2.0000     -10.307990      -280.4947
   7   2.0000     -10.306875      -280.4643
   8   2.0000     -10.296497      -280.1819
   9   2.0000     -10.295118      -280.1444
  10   2.0000     -10.292573      -280.0751
  11   2.0000     -10.290699      -280.0241
  12   2.0000     -10.286010      -279.8966
  13   2.0000     -10.282909      -279.8122
  14   2.0000     -10.282140      -279.7912
  15   2.0000     -10.262709      -279.2625
  16   2.0000      -8.082041      -219.9235
  17   2.0000      -8.077438      -219.7983
  18   2.0000      -6.040320      -164.3655
  19   2.0000      -6.036686      -164.2666
  20   2.0000      -6.035833      -164.2434
  21   2.0000      -6.032924      -164.1642
  22   2.0000      -6.031851      -164.1350
  23   2.0000      -6.028226      -164.0364
  24   2.0000      -1.009366       -27.4662
  25   2.0000      -0.984027       -26.7767
  26   2.0000      -0.910248       -24.7691
  27   2.0000      -0.905573       -24.6419
  28   2.0000      -0.874520       -23.7969
  29   2.0000      -0.854874       -23.2623
  30   2.0000      -0.847870       -23.0717
  31   2.0000      -0.813215       -22.1287
  32   2.0000      -0.790965       -21.5233
  33   2.0000      -0.774137       -21.0653
  34   2.0000      -0.709612       -19.3095
  35   2.0000      -0.701179       -19.0800
  36   2.0000      -0.693025       -18.8582
  37   2.0000      -0.656792       -17.8722
  38   2.0000      -0.643283       -17.5046
  39   2.0000      -0.620184       -16.8761
  40   2.0000      -0.599098       -16.3023
  41   2.0000      -0.568420       -15.4675
  42   2.0000      -0.563937       -15.3455
  43   2.0000      -0.552629       -15.0378
  44   2.0000      -0.540716       -14.7136
  45   2.0000      -0.524245       -14.2654
  46   2.0000      -0.516280       -14.0487
  47   2.0000      -0.515291       -14.0218
  48   2.0000      -0.497591       -13.5401
  49   2.0000      -0.492898       -13.4124
  50   2.0000      -0.484792       -13.1919
  51   2.0000      -0.483667       -13.1612
  52   2.0000      -0.475325       -12.9343
  53   2.0000      -0.469226       -12.7683
  54   2.0000      -0.463586       -12.6148
  55   2.0000      -0.456519       -12.4225
  56   2.0000      -0.450781       -12.2664
  57   2.0000      -0.445581       -12.1249
  58   2.0000      -0.425476       -11.5778
  59   2.0000      -0.423203       -11.5159
  60   2.0000      -0.421858       -11.4793
  61   2.0000      -0.416956       -11.3459
  62   2.0000      -0.404340       -11.0026
  63   2.0000      -0.353597        -9.6219
  64   2.0000      -0.336692        -9.1619
  65   2.0000      -0.331479        -9.0200
  66   2.0000      -0.282890        -7.6978
  67   0.0000       0.025664         0.6983
  68   0.0000       0.072544         1.9740
  69   0.0000       0.108307         2.9472
  70   0.0000       0.124006         3.3744
  71   0.0000       0.138913         3.7800

MULLIKEN ATOMIC CHARGES
-----------------------
   0 S :    0.117192
   1 C :   -0.129045
   2 C :   -0.080874
   3 C :   -0.000461
   4 C :   -0.150456
   5 H :    0.017179
   6 C :    0.139662
   7 H :    0.025975
   8 H :    0.014740
   9 C :   -0.106282
  10 H :    0.021923
  11 H :    0.018634
  12 C :    0.003631
  13 H :    0.001301
  14 H :    0.014233
  15 H :    0.030359
  16 S :    0.100367
  17 C :   -0.096164
  18 C :   -0.039307
  19 C :   -0.042245
  20 C :   -0.175109
  21 H :    0.006204
  22 C :    0.121415
  23 H :    0.046003
  24 H :    0.022576
  25 C :   -0.109898
  26 H :    0.024016
  27 H :    0.019316
  28 C :   -0.056872
  29 H :    0.024534
  30 H :    0.048143
  31 H :    0.033229
  32 H :    0.051442
  33 H :    0.084639
Sum of atomic charges:   -0.0000000

LOEWDIN ATOMIC CHARGES
----------------------
   0 S :    0.399883
   1 C :   -0.200049
   2 C :   -0.060228
   3 C :   -0.062960
   4 C :   -0.186329
   5 H :    0.037570
   6 C :   -0.018337
   7 H :    0.029834
   8 H :    0.031027
   9 C :   -0.047687
  10 H :    0.026275
  11 H :    0.019231
  12 C :   -0.060056
  13 H :    0.017484
  14 H :    0.012941
  15 H :    0.034295
  16 S :    0.405526
  17 C :   -0.209336
  18 C :   -0.078097
  19 C :   -0.047761
  20 C :   -0.185809
  21 H :    0.026007
  22 C :   -0.017227
  23 H :    0.034296
  24 H :    0.023849
  25 C :   -0.047570
  26 H :    0.021142
  27 H :    0.017353
  28 C :   -0.068122
  29 H :    0.023556
  30 H :    0.037111
  31 H :    0.021560
  32 H :    0.023301
  33 H :    0.047326

  Mayer bond orders larger than 0.100000
B(  0-S ,  1-C ) :   1.1653 B(  0-S ,  4-C ) :   1.1258 B(  1-C ,  2-C ) :   1.5731
B(  1-C ,  4-C ) :   0.1054 B(  1-C , 32-H ) :   0.9670 B(  2-C ,  3-C ) :   1.2373
B(  2-C ,  6-C ) :   1.0268 B(  3-C ,  4-C ) :   1.5854 B(  3-C ,  5-H ) :   0.9933
B(  4-C , 20-C ) :   1.0885 B(  6-C ,  7-H ) :   0.9389 B(  6-C ,  8-H ) :   0.9355
B(  6-C ,  9-C ) :   1.0759 B(  9-C , 10-H ) :   0.9546 B(  9-C , 11-H ) :   0.9545
B(  9-C , 12-C ) :   1.0829 B( 12-C , 13-H ) :   0.9717 B( 12-C , 14-H ) :   0.9741
B( 12-C , 15-H ) :   0.9662 B( 16-S , 17-C ) :   1.1653 B( 16-S , 20-C ) :   1.1277
B( 17-C , 18-C ) :   1.5920 B( 17-C , 33-H ) :   0.9544 B( 18-C , 19-C ) :   1.2469
B( 18-C , 21-H ) :   0.9916 B( 19-C , 20-C ) :   1.6106 B( 19-C , 22-C ) :   1.0248
B( 22-C , 23-H ) :   0.9399 B( 22-C , 24-H ) :   0.9213 B( 22-C , 25-C ) :   1.0619
B( 25-C , 26-H ) :   0.9494 B( 25-C , 27-H ) :   0.9587 B( 25-C , 28-C ) :   1.0856
B( 28-C , 29-H ) :   0.9735 B( 28-C , 30-H ) :   0.9735 B( 28-C , 31-H ) :   0.9762

Dispersion correction           -0.013959976
FINAL SINGLE POINT ENERGY     -1339.872508988844

DIPOLE MOMENT
-------------
                                X             Y             Z
Electronic contribution:     -9.39890     -16.28364      17.51133
Nuclear contribution   :      9.55074      16.66863     -17.97157
                        -----------------------------------------
Total Dipole Moment    :      0.15184       0.38499      -0.46024
                        -----------------------------------------
Magnitude (a.u.)       :      0.61895
Magnitude (Debye)      :      1.57323

Rotational constants in cm-1:     0.017020     0.008592     0.006637
Rotational constants in MHz :   510.233229   257.595685   198.984032

                             ****ORCA TERMINATED NORMALLY****
TOTAL RUN TIME: 0 days 0 hours 0 minutes 21 seconds 195 msec
