                         Program Version 4.2.1 -  RELEASE  -
|  1> ! wB97X-D3 SP def2-SVP
|  2> %pal
|  3> nprocs 24
|  4> end
|  5>
|  6> * xyz 0 1
|  7> S 	 -46.3792 	 17.971 	 25.3077
|  8> C 	 -46.9089 	 16.9734 	 24.0116
|  9> C 	 -47.6344 	 15.8705 	 24.4689
| 10> C 	 -47.6195 	 15.7917 	 25.8555
| 11> C 	 -46.8222 	 16.745 	 26.4824
| 12> H 	 -48.2252 	 15.0005 	 26.4568
| 13> C 	 -48.3461 	 14.8597 	 23.7039
| 14> H 	 -48.5088 	 15.2868 	 22.7374
| 15> H 	 -49.2939 	 14.8609 	 24.1301
| 16> C 	 -47.9186 	 13.3911 	 23.7097
| 17> H 	 -47.7298 	 13.0976 	 24.7546
| 18> H 	 -48.768 	 12.7842 	 23.317
| 19> C 	 -46.5808 	 13.1471 	 23.0325
| 20> H 	 -46.149 	 12.2088 	 23.2611
| 21> H 	 -46.5122 	 13.2776 	 21.9365
| 22> H 	 -45.7926 	 13.8826 	 23.3965
| 23> S 	 -48.001 	 17.6957 	 28.8278
| 24> C 	 -47.1595 	 17.6123 	 30.2887
| 25> C 	 -45.9219 	 16.9853 	 30.1292
| 26> C 	 -45.595 	 16.6074 	 28.7593
| 27> C 	 -46.6542 	 16.918 	 27.9486
| 28> H 	 -45.3076 	 16.8262 	 31.0263
| 29> C 	 -44.1861 	 16.1334 	 28.3447
| 30> H 	 -43.4531 	 16.8655 	 28.5839
| 31> H 	 -44.2119 	 16.1166 	 27.2731
| 32> C 	 -43.8648 	 14.8053 	 28.9878
| 33> H 	 -44.1265 	 14.7964 	 30.0424
| 34> H 	 -42.8396 	 14.4535 	 28.8848
| 35> C 	 -44.7716 	 13.7407 	 28.4116
| 36> H 	 -44.8171 	 12.8254 	 29.0419
| 37> H 	 -44.4732 	 13.5779 	 27.3559
| 38> H 	 -45.7606 	 14.0073 	 28.4183
| 39> H 	 -46.6998 	 17.1243 	 22.9499
| 40> H 	 -47.4405 	 17.9911 	 31.2539
| 41> *
| 42>
| 43>                          ****END OF INPUT****

CARTESIAN COORDINATES (ANGSTROEM)
---------------------------------
  S    -46.379200   17.971000   25.307700
  C    -46.908900   16.973400   24.011600
  C    -47.634400   15.870500   24.468900
  C    -47.619500   15.791700   25.855500
  C    -46.822200   16.745000   26.482400
  H    -48.225200   15.000500   26.456800
  C    -48.346100   14.859700   23.703900
  H    -48.508800   15.286800   22.737400
  H    -49.293900   14.860900   24.130100
  C    -47.918600   13.391100   23.709700
  H    -47.729800   13.097600   24.754600
  H    -48.768000   12.784200   23.317000
  C    -46.580800   13.147100   23.032500
  H    -46.149000   12.208800   23.261100
  H    -46.512200   13.277600   21.936500
  H    -45.792600   13.882600   23.396500
  S    -48.001000   17.695700   28.827800
  C    -47.159500   17.612300   30.288700
  C    -45.921900   16.985300   30.129200
  C    -45.595000   16.607400   28.759300
  C    -46.654200   16.918000   27.948600
  H    -45.307600   16.826200   31.026300
  C    -44.186100   16.133400   28.344700
  H    -43.453100   16.865500   28.583900
  H    -44.211900   16.116600   27.273100
  C    -43.864800   14.805300   28.987800
  H    -44.126500   14.796400   30.042400
  H    -42.839600   14.453500   28.884800
  C    -44.771600   13.740700   28.411600
  H    -44.817100   12.825400   29.041900
  H    -44.473200   13.577900   27.355900
  H    -45.760600   14.007300   28.418300
  H    -46.699800   17.124300   22.949900
  H    -47.440500   17.991100   31.253900

 Total Charge           Charge          ....    0
 Multiplicity           Mult            ....    1
 Number of Electrons    NEL             ....  134
 Basis Dimension        Dim             ....  322

ORBITAL ENERGIES
----------------

  NO   OCC          E(Eh)            E(eV)
   0   2.0000     -88.968439     -2420.9543
   1   2.0000     -88.964670     -2420.8517
   2   2.0000     -10.328373      -281.0493
   3   2.0000     -10.326674      -281.0031
   4   2.0000     -10.313978      -280.6576
   5   2.0000     -10.313372      -280.6411
   6   2.0000     -10.307034      -280.4686
   7   2.0000     -10.296632      -280.1856
   8   2.0000     -10.294547      -280.1289
   9   2.0000     -10.292878      -280.0834
  10   2.0000     -10.292405      -280.0706
  11   2.0000     -10.288927      -279.9759
  12   2.0000     -10.280587      -279.7490
  13   2.0000     -10.278127      -279.6821
  14   2.0000     -10.276611      -279.6408
  15   2.0000     -10.264421      -279.3091
  16   2.0000      -8.083284      -219.9573
  17   2.0000      -8.080024      -219.8686
  18   2.0000      -6.041715      -164.4034
  19   2.0000      -6.038520      -164.3165
  20   2.0000      -6.037788      -164.2966
  21   2.0000      -6.034421      -164.2049
  22   2.0000      -6.034103      -164.1963
  23   2.0000      -6.030777      -164.1058
  24   2.0000      -1.007379       -27.4122
  25   2.0000      -0.988275       -26.8923
  26   2.0000      -0.918935       -25.0055
  27   2.0000      -0.916774       -24.9467
  28   2.0000      -0.864770       -23.5316
  29   2.0000      -0.851552       -23.1719
  30   2.0000      -0.846026       -23.0215
  31   2.0000      -0.809427       -22.0256
  32   2.0000      -0.786671       -21.4064
  33   2.0000      -0.776713       -21.1354
  34   2.0000      -0.707494       -19.2519
  35   2.0000      -0.699917       -19.0457
  36   2.0000      -0.693773       -18.8785
  37   2.0000      -0.654216       -17.8021
  38   2.0000      -0.631655       -17.1882
  39   2.0000      -0.621298       -16.9064
  40   2.0000      -0.600358       -16.3366
  41   2.0000      -0.570445       -15.5226
  42   2.0000      -0.555250       -15.1091
  43   2.0000      -0.549372       -14.9492
  44   2.0000      -0.546616       -14.8742
  45   2.0000      -0.535151       -14.5622
  46   2.0000      -0.525371       -14.2961
  47   2.0000      -0.518849       -14.1186
  48   2.0000      -0.499141       -13.5823
  49   2.0000      -0.494554       -13.4575
  50   2.0000      -0.480137       -13.0652
  51   2.0000      -0.478631       -13.0242
  52   2.0000      -0.471860       -12.8400
  53   2.0000      -0.458841       -12.4857
  54   2.0000      -0.455429       -12.3929
  55   2.0000      -0.446211       -12.1420
  56   2.0000      -0.443717       -12.0741
  57   2.0000      -0.436129       -11.8677
  58   2.0000      -0.434149       -11.8138
  59   2.0000      -0.426082       -11.5943
  60   2.0000      -0.423990       -11.5374
  61   2.0000      -0.418354       -11.3840
  62   2.0000      -0.413691       -11.2571
  63   2.0000      -0.335650        -9.1335
  64   2.0000      -0.329581        -8.9684
  65   2.0000      -0.319130        -8.6840
  66   2.0000      -0.309554        -8.4234
  67   0.0000       0.042481         1.1560
  68   0.0000       0.055629         1.5138
  69   0.0000       0.110729         3.0131
  70   0.0000       0.122773         3.3408
  71   0.0000       0.129832         3.5329

MULLIKEN ATOMIC CHARGES
-----------------------
   0 S :    0.128678
   1 C :   -0.122757
   2 C :   -0.111831
   3 C :   -0.009011
   4 C :   -0.177216
   5 H :    0.051696
   6 C :    0.125418
   7 H :    0.000576
   8 H :    0.008000
   9 C :   -0.051198
  10 H :    0.028463
  11 H :    0.043249
  12 C :   -0.067519
  13 H :    0.024854
  14 H :    0.029032
  15 H :    0.034750
  16 S :    0.127239
  17 C :   -0.074554
  18 C :   -0.069951
  19 C :   -0.039654
  20 C :   -0.205606
  21 H :    0.025176
  22 C :    0.141350
  23 H :    0.030828
  24 H :    0.015658
  25 C :   -0.066355
  26 H :    0.024734
  27 H :    0.033684
  28 C :   -0.044074
  29 H :    0.028057
  30 H :    0.030785
  31 H :    0.009617
  32 H :    0.048396
  33 H :    0.049485
Sum of atomic charges:   -0.0000000

LOEWDIN ATOMIC CHARGES
----------------------
   0 S :    0.424585
   1 C :   -0.209805
   2 C :   -0.073493
   3 C :   -0.065225
   4 C :   -0.206657
   5 H :    0.047506
   6 C :   -0.034317
   7 H :    0.026513
   8 H :    0.031303
   9 C :   -0.036567
  10 H :    0.028831
  11 H :    0.031964
  12 C :   -0.075760
  13 H :    0.018535
  14 H :    0.023740
  15 H :    0.034677
  16 S :    0.416371
  17 C :   -0.203223
  18 C :   -0.079920
  19 C :   -0.044490
  20 C :   -0.198476
  21 H :    0.030072
  22 C :   -0.016596
  23 H :    0.030392
  24 H :    0.027400
  25 C :   -0.040884
  26 H :    0.023746
  27 H :    0.024828
  28 C :   -0.061483
  29 H :    0.028473
  30 H :    0.027370
  31 H :    0.009726
  32 H :    0.030955
  33 H :    0.029908

  Mayer bond orders larger than 0.100000
B(  0-S ,  1-C ) :   1.1607 B(  0-S ,  4-C ) :   1.1624 B(  1-C ,  2-C ) :   1.5582
B(  1-C ,  4-C ) :   0.1053 B(  1-C , 32-H ) :   0.9648 B(  2-C ,  3-C ) :   1.2812
B(  2-C ,  6-C ) :   1.0348 B(  3-C ,  4-C ) :   1.5544 B(  3-C ,  5-H ) :   0.9763
B(  4-C , 20-C ) :   1.0011 B(  6-C ,  7-H ) :   0.9286 B(  6-C ,  8-H ) :   0.9164
B(  6-C ,  9-C ) :   1.0753 B(  9-C , 10-H ) :   0.9506 B(  9-C , 11-H ) :   0.9530
B(  9-C , 12-C ) :   1.0738 B( 12-C , 13-H ) :   0.9760 B( 12-C , 14-H ) :   0.9756
B( 12-C , 15-H ) :   0.9715 B( 16-S , 17-C ) :   1.1579 B( 16-S , 20-C ) :   1.1433
B( 17-C , 18-C ) :   1.6327 B( 17-C , 33-H ) :   0.9666 B( 18-C , 19-C ) :   1.2092
B( 18-C , 21-H ) :   0.9828 B( 19-C , 20-C ) :   1.6292 B( 19-C , 22-C ) :   1.0238
B( 22-C , 23-H ) :   0.9387 B( 22-C , 24-H ) :   0.9322 B( 22-C , 25-C ) :   1.0622
B( 25-C , 26-H ) :   0.9596 B( 25-C , 27-H ) :   0.9581 B( 25-C , 28-C ) :   1.0734
B( 28-C , 29-H ) :   0.9703 B( 28-C , 30-H ) :   0.9740 B( 28-C , 31-H ) :   0.9734

Dispersion correction           -0.015182505
FINAL SINGLE POINT ENERGY     -1339.872715818021

DIPOLE MOMENT
-------------
                                X             Y             Z
Electronic contribution:     -8.11766      24.09185       6.92195
Nuclear contribution   :      8.19109     -24.47389      -6.90668
                        -----------------------------------------
Total Dipole Moment    :      0.07343      -0.38204       0.01527
                        -----------------------------------------
Magnitude (a.u.)       :      0.38933
Magnitude (Debye)      :      0.98960

Rotational constants in cm-1:     0.019180     0.009136     0.007557
Rotational constants in MHz :   575.006129   273.876451   226.541022

                             ****ORCA TERMINATED NORMALLY****
TOTAL RUN TIME: 0 days 0 hours 0 minutes 22 seconds 384 msec
