                         Program Version 4.2.1 -  RELEASE  -
|  1> ! wB97X-D3 SP def2-SVP
|  2> %pal
|  3> nprocs 24
|  4> end
|  5>
|  6> * xyz 0 1
|  7> S 	 -62.4792 	 9.24915 	 21.2772
|  8> C 	 -61.1149 	 10.2878 	 21.3807
|  9> C 	 -60.2741 	 9.87213 	 22.4116
| 10> C 	 -60.6407 	 8.55458 	 22.961
| 11> C 	 -61.8983 	 8.14326 	 22.5372
| 12> H 	 -60.1175 	 7.95536 	 23.7222
| 13> C 	 -59.0044 	 10.5623 	 22.8779
| 14> H 	 -58.2508 	 10.5386 	 22.0631
| 15> H 	 -58.5842 	 9.98743 	 23.716
| 16> C 	 -59.1174 	 11.9679 	 23.3096
| 17> H 	 -58.1432 	 12.4146 	 23.1961
| 18> H 	 -59.8213 	 12.5069 	 22.6419
| 19> C 	 -59.4703 	 12.0945 	 24.7736
| 20> H 	 -59.7417 	 13.0562 	 25.0932
| 21> H 	 -60.2856 	 11.3529 	 24.9742
| 22> H 	 -58.6535 	 11.7239 	 25.2907
| 23> S 	 -62.4143 	 6.39461 	 24.5874
| 24> C 	 -63.3971 	 4.97112 	 24.3049
| 25> C 	 -63.7557 	 4.87737 	 22.9905
| 26> C 	 -63.187 	 5.90529 	 22.1747
| 27> C 	 -62.5439 	 6.8331 	 22.9324
| 28> H 	 -64.3302 	 3.95272 	 22.7567
| 29> C 	 -63.4726 	 5.7907 	 20.6929
| 30> H 	 -63.2526 	 4.73283 	 20.5408
| 31> H 	 -62.8692 	 6.48094 	 20.1237
| 32> C 	 -64.949 	 6.19009 	 20.2604
| 33> H 	 -65.5963 	 5.45475 	 20.6907
| 34> H 	 -65.0279 	 6.11461 	 19.1776
| 35> C 	 -65.4966 	 7.55525 	 20.7182
| 36> H 	 -66.5504 	 7.59727 	 20.4599
| 37> H 	 -64.9129 	 8.33977 	 20.3516
| 38> H 	 -65.6301 	 7.69289 	 21.7744
| 39> H 	 -60.9636 	 11.3325 	 21.0164
| 40> H 	 -63.6614 	 4.19233 	 25.0136
| 41> *
| 42>
| 43>                          ****END OF INPUT****

CARTESIAN COORDINATES (ANGSTROEM)
---------------------------------
  S    -62.479200    9.249150   21.277200
  C    -61.114900   10.287800   21.380700
  C    -60.274100    9.872130   22.411600
  C    -60.640700    8.554580   22.961000
  C    -61.898300    8.143260   22.537200
  H    -60.117500    7.955360   23.722200
  C    -59.004400   10.562300   22.877900
  H    -58.250800   10.538600   22.063100
  H    -58.584200    9.987430   23.716000
  C    -59.117400   11.967900   23.309600
  H    -58.143200   12.414600   23.196100
  H    -59.821300   12.506900   22.641900
  C    -59.470300   12.094500   24.773600
  H    -59.741700   13.056200   25.093200
  H    -60.285600   11.352900   24.974200
  H    -58.653500   11.723900   25.290700
  S    -62.414300    6.394610   24.587400
  C    -63.397100    4.971120   24.304900
  C    -63.755700    4.877370   22.990500
  C    -63.187000    5.905290   22.174700
  C    -62.543900    6.833100   22.932400
  H    -64.330200    3.952720   22.756700
  C    -63.472600    5.790700   20.692900
  H    -63.252600    4.732830   20.540800
  H    -62.869200    6.480940   20.123700
  C    -64.949000    6.190090   20.260400
  H    -65.596300    5.454750   20.690700
  H    -65.027900    6.114610   19.177600
  C    -65.496600    7.555250   20.718200
  H    -66.550400    7.597270   20.459900
  H    -64.912900    8.339770   20.351600
  H    -65.630100    7.692890   21.774400
  H    -60.963600   11.332500   21.016400
  H    -63.661400    4.192330   25.013600

 Total Charge           Charge          ....    0
 Multiplicity           Mult            ....    1
 Number of Electrons    NEL             ....  134
 Basis Dimension        Dim             ....  322

ORBITAL ENERGIES
----------------

  NO   OCC          E(Eh)            E(eV)
   0   2.0000     -88.971326     -2421.0329
   1   2.0000     -88.966615     -2420.9047
   2   2.0000     -10.336502      -281.2705
   3   2.0000     -10.327685      -281.0306
   4   2.0000     -10.316687      -280.7313
   5   2.0000     -10.314673      -280.6765
   6   2.0000     -10.305815      -280.4355
   7   2.0000     -10.299680      -280.2685
   8   2.0000     -10.299480      -280.2631
   9   2.0000     -10.292785      -280.0809
  10   2.0000     -10.291018      -280.0328
  11   2.0000     -10.289107      -279.9808
  12   2.0000     -10.285220      -279.8751
  13   2.0000     -10.279698      -279.7248
  14   2.0000     -10.266717      -279.3716
  15   2.0000     -10.265384      -279.3353
  16   2.0000      -8.084948      -220.0026
  17   2.0000      -8.081849      -219.9183
  18   2.0000      -6.043629      -164.4555
  19   2.0000      -6.040428      -164.3684
  20   2.0000      -6.039475      -164.3425
  21   2.0000      -6.036350      -164.2574
  22   2.0000      -6.035713      -164.2401
  23   2.0000      -6.032453      -164.1514
  24   2.0000      -1.008887       -27.4532
  25   2.0000      -0.986542       -26.8452
  26   2.0000      -0.921809       -25.0837
  27   2.0000      -0.903239       -24.5784
  28   2.0000      -0.869481       -23.6598
  29   2.0000      -0.849758       -23.1231
  30   2.0000      -0.845458       -23.0061
  31   2.0000      -0.815947       -22.2031
  32   2.0000      -0.785492       -21.3743
  33   2.0000      -0.773668       -21.0526
  34   2.0000      -0.707436       -19.2503
  35   2.0000      -0.699388       -19.0313
  36   2.0000      -0.688680       -18.7399
  37   2.0000      -0.661033       -17.9876
  38   2.0000      -0.634363       -17.2619
  39   2.0000      -0.608079       -16.5467
  40   2.0000      -0.592723       -16.1288
  41   2.0000      -0.581360       -15.8196
  42   2.0000      -0.562683       -15.3114
  43   2.0000      -0.552472       -15.0335
  44   2.0000      -0.541153       -14.7255
  45   2.0000      -0.535346       -14.5675
  46   2.0000      -0.521447       -14.1893
  47   2.0000      -0.512665       -13.9503
  48   2.0000      -0.501710       -13.6522
  49   2.0000      -0.492880       -13.4120
  50   2.0000      -0.488524       -13.2934
  51   2.0000      -0.476755       -12.9732
  52   2.0000      -0.474447       -12.9104
  53   2.0000      -0.469110       -12.7651
  54   2.0000      -0.459580       -12.5058
  55   2.0000      -0.444722       -12.1015
  56   2.0000      -0.441402       -12.0112
  57   2.0000      -0.440689       -11.9917
  58   2.0000      -0.428441       -11.6585
  59   2.0000      -0.423835       -11.5331
  60   2.0000      -0.419527       -11.4159
  61   2.0000      -0.413797       -11.2600
  62   2.0000      -0.407172       -11.0797
  63   2.0000      -0.356187        -9.6923
  64   2.0000      -0.331864        -9.0305
  65   2.0000      -0.324665        -8.8346
  66   2.0000      -0.294701        -8.0192
  67   0.0000       0.031698         0.8626
  68   0.0000       0.075762         2.0616
  69   0.0000       0.106465         2.8971
  70   0.0000       0.120239         3.2719
  71   0.0000       0.131321         3.5734

MULLIKEN ATOMIC CHARGES
-----------------------
   0 S :    0.101224
   1 C :   -0.103158
   2 C :   -0.124407
   3 C :   -0.006354
   4 C :   -0.108068
   5 H :    0.031962
   6 C :    0.043708
   7 H :    0.044081
   8 H :    0.013526
   9 C :   -0.066721
  10 H :    0.018137
  11 H :    0.021549
  12 C :   -0.002965
  13 H :    0.028119
  14 H :    0.029877
  15 H :    0.008637
  16 S :    0.104451
  17 C :   -0.095428
  18 C :   -0.066477
  19 C :   -0.048017
  20 C :   -0.154726
  21 H :    0.035639
  22 C :    0.083537
  23 H :    0.037266
  24 H :    0.017853
  25 C :   -0.070802
  26 H :    0.014739
  27 H :    0.036935
  28 C :   -0.033040
  29 H :    0.025350
  30 H :    0.032655
  31 H :    0.027381
  32 H :    0.069103
  33 H :    0.054436
Sum of atomic charges:    0.0000000

LOEWDIN ATOMIC CHARGES
----------------------
   0 S :    0.429046
   1 C :   -0.226499
   2 C :   -0.060379
   3 C :   -0.072693
   4 C :   -0.180932
   5 H :    0.031985
   6 C :   -0.037764
   7 H :    0.038975
   8 H :    0.029462
   9 C :   -0.043628
  10 H :    0.022021
  11 H :    0.020771
  12 C :   -0.052457
  13 H :    0.018522
  14 H :    0.031846
  15 H :    0.015358
  16 S :    0.415587
  17 C :   -0.186470
  18 C :   -0.076152
  19 C :   -0.064564
  20 C :   -0.202870
  21 H :    0.040798
  22 C :   -0.028046
  23 H :    0.037417
  24 H :    0.019956
  25 C :   -0.031197
  26 H :    0.015786
  27 H :    0.025262
  28 C :   -0.067701
  29 H :    0.032035
  30 H :    0.005093
  31 H :    0.026105
  32 H :    0.043411
  33 H :    0.031915

  Mayer bond orders larger than 0.100000
B(  0-S ,  1-C ) :   1.1336 B(  0-S ,  4-C ) :   1.1447 B(  1-C ,  2-C ) :   1.6241
B(  1-C , 32-H ) :   0.9535 B(  2-C ,  3-C ) :   1.2286 B(  2-C ,  6-C ) :   1.0269
B(  3-C ,  4-C ) :   1.5905 B(  3-C ,  5-H ) :   0.9798 B(  4-C , 20-C ) :   1.0017
B(  6-C ,  7-H ) :   0.9364 B(  6-C ,  8-H ) :   0.9447 B(  6-C ,  9-C ) :   1.0739
B(  9-C , 10-H ) :   0.9502 B(  9-C , 11-H ) :   0.9542 B(  9-C , 12-C ) :   1.0802
B( 12-C , 13-H ) :   0.9738 B( 12-C , 14-H ) :   0.9780 B( 12-C , 15-H ) :   0.9700
B( 16-S , 17-C ) :   1.1373 B( 16-S , 20-C ) :   1.1437 B( 17-C , 18-C ) :   1.6585
B( 17-C , 33-H ) :   0.9647 B( 18-C , 19-C ) :   1.1969 B( 18-C , 21-H ) :   0.9813
B( 19-C , 20-C ) :   1.6200 B( 19-C , 22-C ) :   1.0380 B( 22-C , 23-H ) :   0.9351
B( 22-C , 24-H ) :   0.9322 B( 22-C , 25-C ) :   1.0650 B( 25-C , 26-H ) :   0.9551
B( 25-C , 27-H ) :   0.9603 B( 25-C , 28-C ) :   1.0827 B( 28-C , 29-H ) :   0.9661
B( 28-C , 30-H ) :   0.9733 B( 28-C , 31-H ) :   0.9700

Dispersion correction           -0.014849872
FINAL SINGLE POINT ENERGY     -1339.869104354956

DIPOLE MOMENT
-------------
                                X             Y             Z
Electronic contribution:     -1.73742      -9.50264       3.43369
Nuclear contribution   :      1.86935       9.42801      -3.43011
                        -----------------------------------------
Total Dipole Moment    :      0.13192      -0.07463       0.00358
                        -----------------------------------------
Magnitude (a.u.)       :      0.15161
Magnitude (Debye)      :      0.38537

Rotational constants in cm-1:     0.023670     0.008203     0.006587
Rotational constants in MHz :   709.599538   245.906034   197.476794

                             ****ORCA TERMINATED NORMALLY****
TOTAL RUN TIME: 0 days 0 hours 0 minutes 21 seconds 632 msec
