                         Program Version 4.2.1 -  RELEASE  -
|  1> ! wB97X-D3 SP def2-SVP
|  2> %pal
|  3> nprocs 24
|  4> end
|  5>
|  6> * xyz 0 1
|  7> S 	 -112.742 	 56.8289 	 -80.2716
|  8> C 	 -113.86 	 58.1304 	 -80.7888
|  9> C 	 -113.924 	 59.1437 	 -79.7985
| 10> C 	 -113.175 	 58.7957 	 -78.6205
| 11> C 	 -112.396 	 57.6239 	 -78.7448
| 12> H 	 -113.205 	 59.3111 	 -77.7052
| 13> C 	 -114.828 	 60.3442 	 -79.8308
| 14> H 	 -115.006 	 60.5761 	 -80.8292
| 15> H 	 -114.355 	 61.3208 	 -79.4097
| 16> C 	 -116.246 	 60.0976 	 -79.2
| 17> H 	 -116.76 	 61.0202 	 -79.3346
| 18> H 	 -116.792 	 59.3667 	 -79.8434
| 19> C 	 -116.263 	 59.6629 	 -77.7457
| 20> H 	 -115.496 	 58.9406 	 -77.6813
| 21> H 	 -115.987 	 60.2844 	 -76.913
| 22> H 	 -117.236 	 59.1831 	 -77.5602
| 23> S 	 -110.978 	 55.3645 	 -77.9044
| 24> C 	 -109.907 	 55.4516 	 -76.5803
| 25> C 	 -109.741 	 56.8147 	 -76.1726
| 26> C 	 -110.553 	 57.7073 	 -76.9092
| 27> C 	 -111.376 	 57.0624 	 -77.843
| 28> H 	 -108.983 	 57.1129 	 -75.498
| 29> C 	 -110.419 	 59.1652 	 -76.5552
| 30> H 	 -109.77 	 59.2346 	 -75.6793
| 31> H 	 -111.294 	 59.6597 	 -76.2319
| 32> C 	 -109.843 	 59.9059 	 -77.7291
| 33> H 	 -110.558 	 59.8554 	 -78.5817
| 34> H 	 -108.926 	 59.4645 	 -78.0479
| 35> C 	 -109.459 	 61.2735 	 -77.2939
| 36> H 	 -110.296 	 61.8018 	 -76.83
| 37> H 	 -109.075 	 61.8549 	 -78.1155
| 38> H 	 -108.736 	 61.1766 	 -76.4658
| 39> H 	 -114.555 	 58.2645 	 -81.6635
| 40> H 	 -109.48 	 54.6212 	 -76.0846
| 41> *
| 42>
| 43>                          ****END OF INPUT****

CARTESIAN COORDINATES (ANGSTROEM)
---------------------------------
  S    -112.742000   56.828900  -80.271600
  C    -113.860000   58.130400  -80.788800
  C    -113.924000   59.143700  -79.798500
  C    -113.175000   58.795700  -78.620500
  C    -112.396000   57.623900  -78.744800
  H    -113.205000   59.311100  -77.705200
  C    -114.828000   60.344200  -79.830800
  H    -115.006000   60.576100  -80.829200
  H    -114.355000   61.320800  -79.409700
  C    -116.246000   60.097600  -79.200000
  H    -116.760000   61.020200  -79.334600
  H    -116.792000   59.366700  -79.843400
  C    -116.263000   59.662900  -77.745700
  H    -115.496000   58.940600  -77.681300
  H    -115.987000   60.284400  -76.913000
  H    -117.236000   59.183100  -77.560200
  S    -110.978000   55.364500  -77.904400
  C    -109.907000   55.451600  -76.580300
  C    -109.741000   56.814700  -76.172600
  C    -110.553000   57.707300  -76.909200
  C    -111.376000   57.062400  -77.843000
  H    -108.983000   57.112900  -75.498000
  C    -110.419000   59.165200  -76.555200
  H    -109.770000   59.234600  -75.679300
  H    -111.294000   59.659700  -76.231900
  C    -109.843000   59.905900  -77.729100
  H    -110.558000   59.855400  -78.581700
  H    -108.926000   59.464500  -78.047900
  C    -109.459000   61.273500  -77.293900
  H    -110.296000   61.801800  -76.830000
  H    -109.075000   61.854900  -78.115500
  H    -108.736000   61.176600  -76.465800
  H    -114.555000   58.264500  -81.663500
  H    -109.480000   54.621200  -76.084600

 Total Charge           Charge          ....    0
 Multiplicity           Mult            ....    1
 Number of Electrons    NEL             ....  134
 Basis Dimension        Dim             ....  322

ORBITAL ENERGIES
----------------

  NO   OCC          E(Eh)            E(eV)
   0   2.0000     -88.972081     -2421.0534
   1   2.0000     -88.971758     -2421.0446
   2   2.0000     -10.338383      -281.3217
   3   2.0000     -10.331438      -281.1327
   4   2.0000     -10.324188      -280.9354
   5   2.0000     -10.320463      -280.8341
   6   2.0000     -10.305794      -280.4349
   7   2.0000     -10.303715      -280.3783
   8   2.0000     -10.295448      -280.1534
   9   2.0000     -10.294952      -280.1399
  10   2.0000     -10.294387      -280.1245
  11   2.0000     -10.289443      -279.9900
  12   2.0000     -10.285914      -279.8940
  13   2.0000     -10.274541      -279.5845
  14   2.0000     -10.272215      -279.5212
  15   2.0000     -10.269053      -279.4351
  16   2.0000      -8.087303      -220.0667
  17   2.0000      -8.085159      -220.0084
  18   2.0000      -6.045662      -164.5108
  19   2.0000      -6.043898      -164.4628
  20   2.0000      -6.041549      -164.3989
  21   2.0000      -6.039802      -164.3514
  22   2.0000      -6.038405      -164.3134
  23   2.0000      -6.035811      -164.2428
  24   2.0000      -1.007009       -27.4021
  25   2.0000      -0.979833       -26.6626
  26   2.0000      -0.924036       -25.1443
  27   2.0000      -0.910646       -24.7799
  28   2.0000      -0.864135       -23.5143
  29   2.0000      -0.859590       -23.3906
  30   2.0000      -0.841635       -22.9021
  31   2.0000      -0.813245       -22.1295
  32   2.0000      -0.785267       -21.3682
  33   2.0000      -0.773490       -21.0477
  34   2.0000      -0.705509       -19.1979
  35   2.0000      -0.702650       -19.1201
  36   2.0000      -0.692507       -18.8441
  37   2.0000      -0.669741       -18.2246
  38   2.0000      -0.633697       -17.2438
  39   2.0000      -0.621865       -16.9218
  40   2.0000      -0.604139       -16.4395
  41   2.0000      -0.571550       -15.5527
  42   2.0000      -0.569630       -15.5004
  43   2.0000      -0.544544       -14.8178
  44   2.0000      -0.540029       -14.6949
  45   2.0000      -0.532313       -14.4850
  46   2.0000      -0.520170       -14.1545
  47   2.0000      -0.515288       -14.0217
  48   2.0000      -0.507441       -13.8082
  49   2.0000      -0.498317       -13.5599
  50   2.0000      -0.493944       -13.4409
  51   2.0000      -0.480345       -13.0709
  52   2.0000      -0.474620       -12.9151
  53   2.0000      -0.467116       -12.7109
  54   2.0000      -0.456968       -12.4347
  55   2.0000      -0.450891       -12.2694
  56   2.0000      -0.442037       -12.0284
  57   2.0000      -0.434635       -11.8270
  58   2.0000      -0.431533       -11.7426
  59   2.0000      -0.429108       -11.6766
  60   2.0000      -0.418264       -11.3815
  61   2.0000      -0.415308       -11.3011
  62   2.0000      -0.413363       -11.2482
  63   2.0000      -0.352969        -9.6048
  64   2.0000      -0.335994        -9.1429
  65   2.0000      -0.329289        -8.9604
  66   2.0000      -0.279684        -7.6106
  67   0.0000       0.015552         0.4232
  68   0.0000       0.075097         2.0435
  69   0.0000       0.095824         2.6075
  70   0.0000       0.116467         3.1692
  71   0.0000       0.133965         3.6454

MULLIKEN ATOMIC CHARGES
-----------------------
   0 S :    0.103832
   1 C :   -0.115639
   2 C :   -0.113774
   3 C :    0.022164
   4 C :   -0.129848
   5 H :   -0.005988
   6 C :    0.042407
   7 H :    0.001931
   8 H :    0.046024
   9 C :   -0.058114
  10 H :    0.023840
  11 H :    0.030340
  12 C :   -0.030261
  13 H :    0.015243
  14 H :    0.027091
  15 H :    0.037743
  16 S :    0.123178
  17 C :   -0.079946
  18 C :   -0.031727
  19 C :   -0.040539
  20 C :   -0.129670
  21 H :    0.011011
  22 C :    0.065614
  23 H :    0.002995
  24 H :    0.016461
  25 C :   -0.076042
  26 H :    0.053072
  27 H :    0.017475
  28 C :   -0.013745
  29 H :    0.012620
  30 H :    0.036456
  31 H :    0.020110
  32 H :    0.063207
  33 H :    0.052479
Sum of atomic charges:    0.0000000

LOEWDIN ATOMIC CHARGES
----------------------
   0 S :    0.392330
   1 C :   -0.208637
   2 C :   -0.060406
   3 C :   -0.070740
   4 C :   -0.179176
   5 H :    0.020102
   6 C :   -0.037829
   7 H :    0.019873
   8 H :    0.041467
   9 C :   -0.031076
  10 H :    0.017862
  11 H :    0.030142
  12 C :   -0.072461
  13 H :    0.021910
  14 H :    0.024281
  15 H :    0.033497
  16 S :    0.439701
  17 C :   -0.192003
  18 C :   -0.067154
  19 C :   -0.047544
  20 C :   -0.212223
  21 H :    0.024692
  22 C :   -0.025604
  23 H :    0.028153
  24 H :    0.021354
  25 C :   -0.040610
  26 H :    0.031176
  27 H :    0.021908
  28 C :   -0.061588
  29 H :    0.019938
  30 H :    0.024676
  31 H :    0.025656
  32 H :    0.044295
  33 H :    0.024037

  Mayer bond orders larger than 0.100000
B(  0-S ,  1-C ) :   1.1220 B(  0-S ,  4-C ) :   1.1521 B(  1-C ,  2-C ) :   1.6086
B(  1-C ,  4-C ) :   0.1054 B(  1-C , 32-H ) :   0.9567 B(  2-C ,  3-C ) :   1.2382
B(  2-C ,  6-C ) :   1.0422 B(  3-C ,  4-C ) :   1.5444 B(  3-C ,  5-H ) :   0.9963
B(  4-C , 20-C ) :   1.0736 B(  6-C ,  7-H ) :   0.9291 B(  6-C ,  8-H ) :   0.9444
B(  6-C ,  9-C ) :   1.0748 B(  9-C , 10-H ) :   0.9550 B(  9-C , 11-H ) :   0.9539
B(  9-C , 12-C ) :   1.0731 B( 12-C , 13-H ) :   0.9692 B( 12-C , 14-H ) :   0.9739
B( 12-C , 15-H ) :   0.9708 B( 16-S , 17-C ) :   1.1995 B( 16-S , 20-C ) :   1.1501
B( 17-C , 18-C ) :   1.5236 B( 17-C , 20-C ) :   0.1096 B( 17-C , 33-H ) :   0.9753
B( 18-C , 19-C ) :   1.3194 B( 18-C , 21-H ) :   0.9923 B( 19-C , 20-C ) :   1.5216
B( 19-C , 22-C ) :   1.0392 B( 22-C , 23-H ) :   0.9333 B( 22-C , 24-H ) :   0.9307
B( 22-C , 25-C ) :   1.0642 B( 25-C , 26-H ) :   0.9492 B( 25-C , 27-H ) :   0.9491
B( 25-C , 28-C ) :   1.0944 B( 28-C , 29-H ) :   0.9673 B( 28-C , 30-H ) :   0.9709
B( 28-C , 31-H ) :   0.9711

Dispersion correction           -0.014757857
FINAL SINGLE POINT ENERGY     -1339.866390383177

DIPOLE MOMENT
-------------
                                X             Y             Z
Electronic contribution:      6.52902     -25.69416      -7.21122
Nuclear contribution   :     -6.53894      26.18791       7.54192
                        -----------------------------------------
Total Dipole Moment    :     -0.00992       0.49375       0.33070
                        -----------------------------------------
Magnitude (a.u.)       :      0.59435
Magnitude (Debye)      :      1.51072

Rotational constants in cm-1:     0.017908     0.009438     0.007413
Rotational constants in MHz :   536.860618   282.935082   222.229624

                             ****ORCA TERMINATED NORMALLY****
TOTAL RUN TIME: 0 days 0 hours 0 minutes 22 seconds 334 msec
