                         Program Version 4.2.1 -  RELEASE  -
|  1> ! wB97X-D3 SP def2-SVP
|  2> %pal
|  3> nprocs 24
|  4> end
|  5>
|  6> * xyz 0 1
|  7> S 	 -103.547 	 44.1219 	 -97.6239
|  8> C 	 -103.323 	 42.6104 	 -96.7717
|  9> C 	 -103.621 	 42.7721 	 -95.4587
| 10> C 	 -104.181 	 44.001 	 -95.1838
| 11> C 	 -104.118 	 44.8771 	 -96.2396
| 12> H 	 -104.641 	 44.3965 	 -94.2647
| 13> C 	 -103.586 	 41.6424 	 -94.4258
| 14> H 	 -104.098 	 40.7642 	 -94.8308
| 15> H 	 -104.162 	 42.1737 	 -93.5887
| 16> C 	 -102.212 	 41.4309 	 -93.9072
| 17> H 	 -101.629 	 41.1615 	 -94.7696
| 18> H 	 -101.756 	 42.2998 	 -93.4571
| 19> C 	 -102.118 	 40.2028 	 -92.9031
| 20> H 	 -102.676 	 40.4269 	 -92.0029
| 21> H 	 -102.597 	 39.3331 	 -93.3555
| 22> H 	 -101.132 	 39.8447 	 -92.6175
| 23> S 	 -106.194 	 46.645 	 -96.3271
| 24> C 	 -105.806 	 48.4126 	 -96.4207
| 25> C 	 -104.448 	 48.602 	 -96.3808
| 26> C 	 -103.69 	 47.413 	 -96.3388
| 27> C 	 -104.504 	 46.247 	 -96.2191
| 28> H 	 -104.043 	 49.6307 	 -96.3883
| 29> C 	 -102.185 	 47.4372 	 -96.3698
| 30> H 	 -101.896 	 46.4717 	 -95.9953
| 31> H 	 -101.841 	 48.0685 	 -95.6096
| 32> C 	 -101.507 	 47.7546 	 -97.76
| 33> H 	 -100.418 	 47.7389 	 -97.6599
| 34> H 	 -101.658 	 48.7872 	 -97.9943
| 35> C 	 -101.967 	 46.8072 	 -98.8511
| 36> H 	 -101.519 	 45.8413 	 -98.7007
| 37> H 	 -101.502 	 47.2018 	 -99.8108
| 38> H 	 -103.052 	 46.7412 	 -98.9198
| 39> H 	 -103.012 	 41.6718 	 -97.2041
| 40> H 	 -106.577 	 49.1992 	 -96.4954
| 41> *
| 42>
| 43>                          ****END OF INPUT****

CARTESIAN COORDINATES (ANGSTROEM)
---------------------------------
  S    -103.547000   44.121900  -97.623900
  C    -103.323000   42.610400  -96.771700
  C    -103.621000   42.772100  -95.458700
  C    -104.181000   44.001000  -95.183800
  C    -104.118000   44.877100  -96.239600
  H    -104.641000   44.396500  -94.264700
  C    -103.586000   41.642400  -94.425800
  H    -104.098000   40.764200  -94.830800
  H    -104.162000   42.173700  -93.588700
  C    -102.212000   41.430900  -93.907200
  H    -101.629000   41.161500  -94.769600
  H    -101.756000   42.299800  -93.457100
  C    -102.118000   40.202800  -92.903100
  H    -102.676000   40.426900  -92.002900
  H    -102.597000   39.333100  -93.355500
  H    -101.132000   39.844700  -92.617500
  S    -106.194000   46.645000  -96.327100
  C    -105.806000   48.412600  -96.420700
  C    -104.448000   48.602000  -96.380800
  C    -103.690000   47.413000  -96.338800
  C    -104.504000   46.247000  -96.219100
  H    -104.043000   49.630700  -96.388300
  C    -102.185000   47.437200  -96.369800
  H    -101.896000   46.471700  -95.995300
  H    -101.841000   48.068500  -95.609600
  C    -101.507000   47.754600  -97.760000
  H    -100.418000   47.738900  -97.659900
  H    -101.658000   48.787200  -97.994300
  C    -101.967000   46.807200  -98.851100
  H    -101.519000   45.841300  -98.700700
  H    -101.502000   47.201800  -99.810800
  H    -103.052000   46.741200  -98.919800
  H    -103.012000   41.671800  -97.204100
  H    -106.577000   49.199200  -96.495400

 Total Charge           Charge          ....    0
 Multiplicity           Mult            ....    1
 Number of Electrons    NEL             ....  134
 Basis Dimension        Dim             ....  322

ORBITAL ENERGIES
----------------

  NO   OCC          E(Eh)            E(eV)
   0   2.0000     -88.966415     -2420.8992
   1   2.0000     -88.966187     -2420.8930
   2   2.0000     -10.324443      -280.9424
   3   2.0000     -10.322130      -280.8794
   4   2.0000     -10.316175      -280.7174
   5   2.0000     -10.308002      -280.4950
   6   2.0000     -10.302437      -280.3436
   7   2.0000     -10.294678      -280.1324
   8   2.0000     -10.294205      -280.1196
   9   2.0000     -10.291743      -280.0526
  10   2.0000     -10.286828      -279.9188
  11   2.0000     -10.284085      -279.8442
  12   2.0000     -10.283632      -279.8318
  13   2.0000     -10.281884      -279.7843
  14   2.0000     -10.277738      -279.6715
  15   2.0000     -10.272739      -279.5354
  16   2.0000      -8.081937      -219.9207
  17   2.0000      -8.080032      -219.8689
  18   2.0000      -6.040261      -164.3639
  19   2.0000      -6.038558      -164.3175
  20   2.0000      -6.036124      -164.2513
  21   2.0000      -6.034643      -164.2110
  22   2.0000      -6.033012      -164.1666
  23   2.0000      -6.030848      -164.1077
  24   2.0000      -1.018040       -27.7023
  25   2.0000      -0.984126       -26.7794
  26   2.0000      -0.917231       -24.9591
  27   2.0000      -0.902968       -24.5710
  28   2.0000      -0.872547       -23.7432
  29   2.0000      -0.850778       -23.1509
  30   2.0000      -0.844563       -22.9817
  31   2.0000      -0.813339       -22.1321
  32   2.0000      -0.784485       -21.3469
  33   2.0000      -0.767461       -20.8837
  34   2.0000      -0.709363       -19.3027
  35   2.0000      -0.702150       -19.1065
  36   2.0000      -0.694571       -18.9002
  37   2.0000      -0.658177       -17.9099
  38   2.0000      -0.642326       -17.4786
  39   2.0000      -0.616944       -16.7879
  40   2.0000      -0.592303       -16.1174
  41   2.0000      -0.569488       -15.4965
  42   2.0000      -0.562128       -15.2963
  43   2.0000      -0.550052       -14.9677
  44   2.0000      -0.542732       -14.7685
  45   2.0000      -0.523308       -14.2399
  46   2.0000      -0.516782       -14.0624
  47   2.0000      -0.514809       -14.0087
  48   2.0000      -0.506264       -13.7761
  49   2.0000      -0.497582       -13.5399
  50   2.0000      -0.494306       -13.4507
  51   2.0000      -0.473950       -12.8968
  52   2.0000      -0.470704       -12.8085
  53   2.0000      -0.461532       -12.5589
  54   2.0000      -0.460121       -12.5205
  55   2.0000      -0.449127       -12.2214
  56   2.0000      -0.445336       -12.1182
  57   2.0000      -0.436655       -11.8820
  58   2.0000      -0.428565       -11.6619
  59   2.0000      -0.425906       -11.5895
  60   2.0000      -0.421619       -11.4728
  61   2.0000      -0.414127       -11.2690
  62   2.0000      -0.402901       -10.9635
  63   2.0000      -0.341949        -9.3049
  64   2.0000      -0.335008        -9.1160
  65   2.0000      -0.322551        -8.7771
  66   2.0000      -0.300311        -8.1719
  67   0.0000       0.040685         1.1071
  68   0.0000       0.057380         1.5614
  69   0.0000       0.114107         3.1050
  70   0.0000       0.118289         3.2188
  71   0.0000       0.128853         3.5063

MULLIKEN ATOMIC CHARGES
-----------------------
   0 S :    0.135796
   1 C :   -0.131926
   2 C :   -0.065749
   3 C :    0.015690
   4 C :   -0.173537
   5 H :    0.017933
   6 C :    0.055510
   7 H :    0.044011
   8 H :    0.028726
   9 C :   -0.062894
  10 H :    0.016665
  11 H :    0.033707
  12 C :   -0.036387
  13 H :    0.026969
  14 H :    0.018680
  15 H :    0.034017
  16 S :    0.108024
  17 C :   -0.116252
  18 C :   -0.024079
  19 C :   -0.057708
  20 C :   -0.185351
  21 H :    0.030941
  22 C :    0.106221
  23 H :    0.010899
  24 H :    0.010807
  25 C :   -0.055048
  26 H :    0.025422
  27 H :    0.015480
  28 C :   -0.055662
  29 H :    0.034113
  30 H :    0.034314
  31 H :    0.053590
  32 H :    0.039486
  33 H :    0.067593
Sum of atomic charges:    0.0000000

LOEWDIN ATOMIC CHARGES
----------------------
   0 S :    0.470108
   1 C :   -0.199340
   2 C :   -0.070609
   3 C :   -0.068851
   4 C :   -0.228313
   5 H :    0.037293
   6 C :   -0.028265
   7 H :    0.033537
   8 H :    0.038043
   9 C :   -0.037745
  10 H :    0.018544
  11 H :    0.026287
  12 C :   -0.066593
  13 H :    0.021809
  14 H :    0.022717
  15 H :    0.024236
  16 S :    0.392204
  17 C :   -0.173160
  18 C :   -0.072747
  19 C :   -0.055919
  20 C :   -0.210597
  21 H :    0.039361
  22 C :   -0.030125
  23 H :    0.026892
  24 H :    0.024409
  25 C :   -0.036316
  26 H :    0.026207
  27 H :    0.015655
  28 C :   -0.070053
  29 H :    0.015519
  30 H :    0.033547
  31 H :    0.021303
  32 H :    0.026615
  33 H :    0.034345

  Mayer bond orders larger than 0.100000
B(  0-S ,  1-C ) :   1.1525 B(  0-S ,  4-C ) :   1.1887 B(  1-C ,  2-C ) :   1.5806
B(  1-C , 32-H ) :   0.9736 B(  2-C ,  3-C ) :   1.2831 B(  2-C ,  6-C ) :   0.9920
B(  3-C ,  4-C ) :   1.5505 B(  3-C ,  5-H ) :   0.9913 B(  4-C , 20-C ) :   1.0238
B(  6-C ,  7-H ) :   0.9466 B(  6-C ,  8-H ) :   0.9418 B(  6-C ,  9-C ) :   1.0657
B(  9-C , 10-H ) :   0.9588 B(  9-C , 11-H ) :   0.9552 B(  9-C , 12-C ) :   1.0728
B( 12-C , 13-H ) :   0.9769 B( 12-C , 14-H ) :   0.9748 B( 12-C , 15-H ) :   0.9780
B( 16-S , 17-C ) :   1.1404 B( 16-S , 20-C ) :   1.1588 B( 17-C , 18-C ) :   1.6062
B( 17-C , 20-C ) :   0.1095 B( 17-C , 33-H ) :   0.9653 B( 18-C , 19-C ) :   1.2484
B( 18-C , 21-H ) :   0.9851 B( 19-C , 20-C ) :   1.5558 B( 19-C , 22-C ) :   1.0492
B( 22-C , 23-H ) :   0.9274 B( 22-C , 24-H ) :   0.9323 B( 22-C , 25-C ) :   1.0581
B( 25-C , 26-H ) :   0.9541 B( 25-C , 27-H ) :   0.9583 B( 25-C , 28-C ) :   1.0758
B( 28-C , 29-H ) :   0.9711 B( 28-C , 30-H ) :   0.9684 B( 28-C , 31-H ) :   0.9727

Dispersion correction           -0.015096461
FINAL SINGLE POINT ENERGY     -1339.878488211310

DIPOLE MOMENT
-------------
                                X             Y             Z
Electronic contribution:    -17.10545       9.03971      -7.23205
Nuclear contribution   :     17.45998      -9.02304       7.41203
                        -----------------------------------------
Total Dipole Moment    :      0.35453       0.01667       0.17998
                        -----------------------------------------
Magnitude (a.u.)       :      0.39794
Magnitude (Debye)      :      1.01149

Rotational constants in cm-1:     0.022867     0.007816     0.006920
Rotational constants in MHz :   685.539618   234.315399   207.442327

                             ****ORCA TERMINATED NORMALLY****
TOTAL RUN TIME: 0 days 0 hours 0 minutes 20 seconds 931 msec
