                         Program Version 4.2.1 -  RELEASE  -
|  1> ! wB97X-D3 SP def2-SVP
|  2> %pal
|  3> nprocs 24
|  4> end
|  5>
|  6> * xyz 0 1
|  7> S 	 -88.6266 	 -33.4677 	 -62.6339
|  8> C 	 -89.4826 	 -34.5353 	 -63.6767
|  9> C 	 -90.3237 	 -35.3548 	 -62.9044
| 10> C 	 -90.1575 	 -35.1878 	 -61.4971
| 11> C 	 -89.3007 	 -34.1127 	 -61.2172
| 12> H 	 -90.6958 	 -35.7182 	 -60.6711
| 13> C 	 -91.1779 	 -36.4702 	 -63.503
| 14> H 	 -92.1561 	 -36.0784 	 -63.8387
| 15> H 	 -91.4018 	 -37.1783 	 -62.7065
| 16> C 	 -90.5277 	 -37.2224 	 -64.6926
| 17> H 	 -89.9473 	 -36.5903 	 -65.2571
| 18> H 	 -89.8357 	 -37.9854 	 -64.3793
| 19> C 	 -91.5537 	 -37.7819 	 -65.7696
| 20> H 	 -92.2146 	 -38.5976 	 -65.4764
| 21> H 	 -92.1239 	 -36.9662 	 -66.2542
| 22> H 	 -90.8931 	 -38.1645 	 -66.5156
| 23> S 	 -87.275 	 -34.5509 	 -59.3031
| 24> C 	 -87.1873 	 -33.4286 	 -57.9503
| 25> C 	 -88.4048 	 -32.7485 	 -57.7878
| 26> C 	 -89.1763 	 -32.819 	 -58.9461
| 27> C 	 -88.7164 	 -33.715 	 -59.9281
| 28> H 	 -88.5979 	 -32.182 	 -56.9261
| 29> C 	 -90.4098 	 -31.9503 	 -59.1665
| 30> H 	 -90.6975 	 -32.0996 	 -60.221
| 31> H 	 -90.1646 	 -30.9284 	 -59.0688
| 32> C 	 -91.591 	 -32.161 	 -58.27
| 33> H 	 -92.3461 	 -31.4614 	 -58.5554
| 34> H 	 -91.2497 	 -32.0059 	 -57.2858
| 35> C 	 -92.0632 	 -33.6418 	 -58.2222
| 36> H 	 -92.7216 	 -33.7025 	 -57.3293
| 37> H 	 -91.2965 	 -34.3672 	 -58.1234
| 38> H 	 -92.6768 	 -33.8552 	 -59.1564
| 39> H 	 -89.4458 	 -34.6594 	 -64.6954
| 40> H 	 -86.4865 	 -33.5494 	 -57.2298
| 41> *
| 42>
| 43>                          ****END OF INPUT****

CARTESIAN COORDINATES (ANGSTROEM)
---------------------------------
  S    -88.626600  -33.467700  -62.633900
  C    -89.482600  -34.535300  -63.676700
  C    -90.323700  -35.354800  -62.904400
  C    -90.157500  -35.187800  -61.497100
  C    -89.300700  -34.112700  -61.217200
  H    -90.695800  -35.718200  -60.671100
  C    -91.177900  -36.470200  -63.503000
  H    -92.156100  -36.078400  -63.838700
  H    -91.401800  -37.178300  -62.706500
  C    -90.527700  -37.222400  -64.692600
  H    -89.947300  -36.590300  -65.257100
  H    -89.835700  -37.985400  -64.379300
  C    -91.553700  -37.781900  -65.769600
  H    -92.214600  -38.597600  -65.476400
  H    -92.123900  -36.966200  -66.254200
  H    -90.893100  -38.164500  -66.515600
  S    -87.275000  -34.550900  -59.303100
  C    -87.187300  -33.428600  -57.950300
  C    -88.404800  -32.748500  -57.787800
  C    -89.176300  -32.819000  -58.946100
  C    -88.716400  -33.715000  -59.928100
  H    -88.597900  -32.182000  -56.926100
  C    -90.409800  -31.950300  -59.166500
  H    -90.697500  -32.099600  -60.221000
  H    -90.164600  -30.928400  -59.068800
  C    -91.591000  -32.161000  -58.270000
  H    -92.346100  -31.461400  -58.555400
  H    -91.249700  -32.005900  -57.285800
  C    -92.063200  -33.641800  -58.222200
  H    -92.721600  -33.702500  -57.329300
  H    -91.296500  -34.367200  -58.123400
  H    -92.676800  -33.855200  -59.156400
  H    -89.445800  -34.659400  -64.695400
  H    -86.486500  -33.549400  -57.229800

 Total Charge           Charge          ....    0
 Multiplicity           Mult            ....    1
 Number of Electrons    NEL             ....  134
 Basis Dimension        Dim             ....  322

ORBITAL ENERGIES
----------------

  NO   OCC          E(Eh)            E(eV)
   0   2.0000     -88.967542     -2420.9299
   1   2.0000     -88.964995     -2420.8606
   2   2.0000     -10.326989      -281.0116
   3   2.0000     -10.326210      -280.9905
   4   2.0000     -10.314702      -280.6773
   5   2.0000     -10.307853      -280.4909
   6   2.0000     -10.301448      -280.3167
   7   2.0000     -10.301002      -280.3045
   8   2.0000     -10.299568      -280.2655
   9   2.0000     -10.292097      -280.0622
  10   2.0000     -10.291831      -280.0550
  11   2.0000     -10.283718      -279.8342
  12   2.0000     -10.280767      -279.7539
  13   2.0000     -10.278934      -279.7040
  14   2.0000     -10.277036      -279.6524
  15   2.0000     -10.276607      -279.6407
  16   2.0000      -8.083251      -219.9564
  17   2.0000      -8.079144      -219.8447
  18   2.0000      -6.041583      -164.3998
  19   2.0000      -6.037474      -164.2880
  20   2.0000      -6.037290      -164.2830
  21   2.0000      -6.034457      -164.2059
  22   2.0000      -6.033828      -164.1888
  23   2.0000      -6.030034      -164.0856
  24   2.0000      -1.008127       -27.4325
  25   2.0000      -0.984736       -26.7960
  26   2.0000      -0.911044       -24.7908
  27   2.0000      -0.907245       -24.6874
  28   2.0000      -0.865208       -23.5435
  29   2.0000      -0.848795       -23.0969
  30   2.0000      -0.844867       -22.9900
  31   2.0000      -0.812274       -22.1031
  32   2.0000      -0.782601       -21.2957
  33   2.0000      -0.773104       -21.0372
  34   2.0000      -0.712902       -19.3990
  35   2.0000      -0.701240       -19.0817
  36   2.0000      -0.697068       -18.9682
  37   2.0000      -0.659539       -17.9470
  38   2.0000      -0.643212       -17.5027
  39   2.0000      -0.610963       -16.6251
  40   2.0000      -0.599670       -16.3178
  41   2.0000      -0.578904       -15.7528
  42   2.0000      -0.559467       -15.2239
  43   2.0000      -0.550758       -14.9869
  44   2.0000      -0.545449       -14.8424
  45   2.0000      -0.525003       -14.2861
  46   2.0000      -0.517955       -14.0943
  47   2.0000      -0.511591       -13.9211
  48   2.0000      -0.506574       -13.7846
  49   2.0000      -0.500182       -13.6106
  50   2.0000      -0.491202       -13.3663
  51   2.0000      -0.478444       -13.0191
  52   2.0000      -0.469263       -12.7693
  53   2.0000      -0.465340       -12.6626
  54   2.0000      -0.460232       -12.5235
  55   2.0000      -0.450761       -12.2658
  56   2.0000      -0.444917       -12.1068
  57   2.0000      -0.437993       -11.9184
  58   2.0000      -0.425574       -11.5805
  59   2.0000      -0.421755       -11.4765
  60   2.0000      -0.421113       -11.4591
  61   2.0000      -0.419292       -11.4095
  62   2.0000      -0.410086       -11.1590
  63   2.0000      -0.336813        -9.1651
  64   2.0000      -0.328255        -8.9323
  65   2.0000      -0.314328        -8.5533
  66   2.0000      -0.311559        -8.4779
  67   0.0000       0.037984         1.0336
  68   0.0000       0.049346         1.3428
  69   0.0000       0.110235         2.9996
  70   0.0000       0.128671         3.5013
  71   0.0000       0.133733         3.6391

MULLIKEN ATOMIC CHARGES
-----------------------
   0 S :    0.145296
   1 C :   -0.086377
   2 C :   -0.113016
   3 C :    0.027165
   4 C :   -0.201986
   5 H :    0.037252
   6 C :    0.094957
   7 H :    0.035997
   8 H :    0.023157
   9 C :   -0.070180
  10 H :   -0.000434
  11 H :    0.033254
  12 C :   -0.072917
  13 H :    0.043636
  14 H :    0.038404
  15 H :    0.023359
  16 S :    0.109046
  17 C :   -0.054297
  18 C :   -0.023446
  19 C :   -0.034042
  20 C :   -0.166459
  21 H :    0.006766
  22 C :    0.098540
  23 H :    0.023241
  24 H :    0.017747
  25 C :   -0.048593
  26 H :    0.033920
  27 H :    0.009455
  28 C :   -0.080517
  29 H :    0.033968
  30 H :    0.040860
  31 H :    0.039338
  32 H :    0.013843
  33 H :    0.023063
Sum of atomic charges:   -0.0000000

LOEWDIN ATOMIC CHARGES
----------------------
   0 S :    0.462419
   1 C :   -0.204400
   2 C :   -0.062406
   3 C :   -0.065515
   4 C :   -0.223743
   5 H :    0.042707
   6 C :   -0.032712
   7 H :    0.034127
   8 H :    0.029613
   9 C :   -0.029531
  10 H :    0.009194
  11 H :    0.026358
  12 C :   -0.065198
  13 H :    0.023427
  14 H :    0.027625
  15 H :    0.023602
  16 S :    0.397229
  17 C :   -0.155095
  18 C :   -0.062186
  19 C :   -0.050199
  20 C :   -0.206233
  21 H :    0.024906
  22 C :   -0.029972
  23 H :    0.029628
  24 H :    0.025042
  25 C :   -0.033018
  26 H :    0.026497
  27 H :    0.014396
  28 C :   -0.065878
  29 H :    0.027835
  30 H :    0.017760
  31 H :    0.029734
  32 H :    0.010810
  33 H :    0.003180

  Mayer bond orders larger than 0.100000
B(  0-S ,  1-C ) :   1.1642 B(  0-S ,  4-C ) :   1.1994 B(  1-C ,  2-C ) :   1.5640
B(  1-C ,  4-C ) :   0.1031 B(  1-C , 32-H ) :   0.9791 B(  2-C ,  3-C ) :   1.2851
B(  2-C ,  6-C ) :   1.0160 B(  3-C ,  4-C ) :   1.5388 B(  3-C ,  5-H ) :   0.9863
B(  4-C , 20-C ) :   0.9996 B(  6-C ,  7-H ) :   0.9384 B(  6-C ,  8-H ) :   0.9468
B(  6-C ,  9-C ) :   1.0565 B(  9-C , 10-H ) :   0.9616 B(  9-C , 11-H ) :   0.9573
B(  9-C , 12-C ) :   1.0754 B( 12-C , 13-H ) :   0.9800 B( 12-C , 14-H ) :   0.9762
B( 12-C , 15-H ) :   0.9757 B( 16-S , 17-C ) :   1.1797 B( 16-S , 20-C ) :   1.1447
B( 17-C , 18-C ) :   1.5693 B( 17-C , 20-C ) :   0.1132 B( 17-C , 33-H ) :   0.9777
B( 18-C , 19-C ) :   1.2678 B( 18-C , 21-H ) :   0.9997 B( 19-C , 20-C ) :   1.5699
B( 19-C , 22-C ) :   1.0373 B( 22-C , 23-H ) :   0.9280 B( 22-C , 24-H ) :   0.9344
B( 22-C , 25-C ) :   1.0822 B( 25-C , 26-H ) :   0.9544 B( 25-C , 27-H ) :   0.9562
B( 25-C , 28-C ) :   1.0721 B( 28-C , 29-H ) :   0.9771 B( 28-C , 30-H ) :   0.9735
B( 28-C , 31-H ) :   0.9771

Dispersion correction           -0.014641782
FINAL SINGLE POINT ENERGY     -1339.862414073611

DIPOLE MOMENT
-------------
                                X             Y             Z
Electronic contribution:     21.52580       7.96830       5.55995
Nuclear contribution   :    -21.90451      -8.08336      -5.46868
                        -----------------------------------------
Total Dipole Moment    :     -0.37871      -0.11506       0.09126
                        -----------------------------------------
Magnitude (a.u.)       :      0.40619
Magnitude (Debye)      :      1.03245

Rotational constants in cm-1:     0.023272     0.007336     0.006464
Rotational constants in MHz :   697.690739   219.931943   193.775348

                             ****ORCA TERMINATED NORMALLY****
TOTAL RUN TIME: 0 days 0 hours 0 minutes 21 seconds 593 msec
