                         Program Version 4.2.1 -  RELEASE  -
|  1> ! wB97X-D3 SP def2-SVP
|  2> %pal
|  3> nprocs 24
|  4> end
|  5>
|  6> * xyz 0 1
|  7> S 	 -132.944 	 63.5659 	 -55.4425
|  8> C 	 -133.612 	 65.2083 	 -55.5971
|  9> C 	 -133.205 	 65.8713 	 -56.8014
| 10> C 	 -132.299 	 65.0595 	 -57.5599
| 11> C 	 -132.125 	 63.8219 	 -56.9921
| 12> H 	 -131.915 	 65.2613 	 -58.5194
| 13> C 	 -133.653 	 67.2064 	 -57.2746
| 14> H 	 -134.616 	 67.5132 	 -56.7547
| 15> H 	 -133.908 	 67.1905 	 -58.3272
| 16> C 	 -132.738 	 68.365 	 -57.0595
| 17> H 	 -131.901 	 68.3334 	 -57.7777
| 18> H 	 -133.288 	 69.2828 	 -57.2746
| 19> C 	 -132.074 	 68.3882 	 -55.6689
| 20> H 	 -131.348 	 67.5162 	 -55.5513
| 21> H 	 -131.327 	 69.2193 	 -55.4687
| 22> H 	 -132.864 	 68.2083 	 -54.8545
| 23> S 	 -132.103 	 61.3953 	 -58.3217
| 24> C 	 -130.642 	 60.7771 	 -58.9439
| 25> C 	 -129.567 	 61.5839 	 -58.6244
| 26> C 	 -129.989 	 62.77 	 -57.9299
| 27> C 	 -131.277 	 62.7377 	 -57.5505
| 28> H 	 -128.604 	 61.2896 	 -58.9075
| 29> C 	 -128.989 	 63.7574 	 -57.3786
| 30> H 	 -129.631 	 64.2572 	 -56.6749
| 31> H 	 -128.768 	 64.5562 	 -58.1178
| 32> C 	 -127.809 	 63.1242 	 -56.6579
| 33> H 	 -127.247 	 62.543 	 -57.3824
| 34> H 	 -128.343 	 62.4478 	 -55.963
| 35> C 	 -126.967 	 64.1767 	 -55.9622
| 36> H 	 -126.561 	 65.0465 	 -56.4853
| 37> H 	 -126.037 	 63.5728 	 -55.6946
| 38> H 	 -127.454 	 64.5508 	 -55.0617
| 39> H 	 -134.377 	 65.6469 	 -54.9167
| 40> H 	 -130.623 	 59.9126 	 -59.5422
| 41> *
| 42>
| 43>                          ****END OF INPUT****

CARTESIAN COORDINATES (ANGSTROEM)
---------------------------------
  S    -132.944000   63.565900  -55.442500
  C    -133.612000   65.208300  -55.597100
  C    -133.205000   65.871300  -56.801400
  C    -132.299000   65.059500  -57.559900
  C    -132.125000   63.821900  -56.992100
  H    -131.915000   65.261300  -58.519400
  C    -133.653000   67.206400  -57.274600
  H    -134.616000   67.513200  -56.754700
  H    -133.908000   67.190500  -58.327200
  C    -132.738000   68.365000  -57.059500
  H    -131.901000   68.333400  -57.777700
  H    -133.288000   69.282800  -57.274600
  C    -132.074000   68.388200  -55.668900
  H    -131.348000   67.516200  -55.551300
  H    -131.327000   69.219300  -55.468700
  H    -132.864000   68.208300  -54.854500
  S    -132.103000   61.395300  -58.321700
  C    -130.642000   60.777100  -58.943900
  C    -129.567000   61.583900  -58.624400
  C    -129.989000   62.770000  -57.929900
  C    -131.277000   62.737700  -57.550500
  H    -128.604000   61.289600  -58.907500
  C    -128.989000   63.757400  -57.378600
  H    -129.631000   64.257200  -56.674900
  H    -128.768000   64.556200  -58.117800
  C    -127.809000   63.124200  -56.657900
  H    -127.247000   62.543000  -57.382400
  H    -128.343000   62.447800  -55.963000
  C    -126.967000   64.176700  -55.962200
  H    -126.561000   65.046500  -56.485300
  H    -126.037000   63.572800  -55.694600
  H    -127.454000   64.550800  -55.061700
  H    -134.377000   65.646900  -54.916700
  H    -130.623000   59.912600  -59.542200

 Total Charge           Charge          ....    0
 Multiplicity           Mult            ....    1
 Number of Electrons    NEL             ....  134
 Basis Dimension        Dim             ....  322

ORBITAL ENERGIES
----------------

  NO   OCC          E(Eh)            E(eV)
   0   2.0000     -88.972266     -2421.0584
   1   2.0000     -88.958677     -2420.6887
   2   2.0000     -10.331038      -281.1218
   3   2.0000     -10.324028      -280.9311
   4   2.0000     -10.317270      -280.7472
   5   2.0000     -10.311129      -280.5801
   6   2.0000     -10.307554      -280.4828
   7   2.0000     -10.295118      -280.1444
   8   2.0000     -10.293811      -280.1088
   9   2.0000     -10.293117      -280.0899
  10   2.0000     -10.289009      -279.9782
  11   2.0000     -10.287547      -279.9384
  12   2.0000     -10.287342      -279.9328
  13   2.0000     -10.287246      -279.9302
  14   2.0000     -10.281714      -279.7797
  15   2.0000     -10.280788      -279.7545
  16   2.0000      -8.085863      -220.0275
  17   2.0000      -8.074810      -219.7268
  18   2.0000      -6.044284      -164.4733
  19   2.0000      -6.040685      -164.3754
  20   2.0000      -6.036649      -164.2656
  21   2.0000      -6.033150      -164.1704
  22   2.0000      -6.029095      -164.0600
  23   2.0000      -6.025694      -163.9675
  24   2.0000      -1.008246       -27.4358
  25   2.0000      -0.981859       -26.7177
  26   2.0000      -0.917371       -24.9629
  27   2.0000      -0.913073       -24.8460
  28   2.0000      -0.865458       -23.5503
  29   2.0000      -0.850071       -23.1316
  30   2.0000      -0.846731       -23.0407
  31   2.0000      -0.810370       -22.0513
  32   2.0000      -0.780578       -21.2406
  33   2.0000      -0.770933       -20.9781
  34   2.0000      -0.704197       -19.1622
  35   2.0000      -0.698992       -19.0206
  36   2.0000      -0.690229       -18.7821
  37   2.0000      -0.658303       -17.9133
  38   2.0000      -0.640404       -17.4263
  39   2.0000      -0.620595       -16.8873
  40   2.0000      -0.596237       -16.2244
  41   2.0000      -0.570753       -15.5310
  42   2.0000      -0.566080       -15.4038
  43   2.0000      -0.557941       -15.1823
  44   2.0000      -0.542929       -14.7739
  45   2.0000      -0.526412       -14.3244
  46   2.0000      -0.516915       -14.0660
  47   2.0000      -0.509685       -13.8692
  48   2.0000      -0.499606       -13.5950
  49   2.0000      -0.493713       -13.4346
  50   2.0000      -0.490035       -13.3345
  51   2.0000      -0.472194       -12.8490
  52   2.0000      -0.467300       -12.7159
  53   2.0000      -0.466684       -12.6991
  54   2.0000      -0.454646       -12.3715
  55   2.0000      -0.450412       -12.2563
  56   2.0000      -0.444560       -12.0971
  57   2.0000      -0.440682       -11.9916
  58   2.0000      -0.426343       -11.6014
  59   2.0000      -0.423482       -11.5235
  60   2.0000      -0.418880       -11.3983
  61   2.0000      -0.409273       -11.1369
  62   2.0000      -0.405465       -11.0333
  63   2.0000      -0.341519        -9.2932
  64   2.0000      -0.330517        -8.9938
  65   2.0000      -0.327174        -8.9029
  66   2.0000      -0.300876        -8.1873
  67   0.0000       0.037374         1.0170
  68   0.0000       0.064626         1.7586
  69   0.0000       0.108617         2.9556
  70   0.0000       0.119981         3.2648
  71   0.0000       0.128768         3.5040

MULLIKEN ATOMIC CHARGES
-----------------------
   0 S :    0.119081
   1 C :   -0.126881
   2 C :   -0.097725
   3 C :    0.061309
   4 C :   -0.173595
   5 H :    0.003342
   6 C :    0.052592
   7 H :    0.027837
   8 H :    0.032667
   9 C :   -0.057568
  10 H :    0.022445
  11 H :    0.035216
  12 C :   -0.107391
  13 H :    0.044237
  14 H :    0.047175
  15 H :    0.037713
  16 S :    0.100858
  17 C :   -0.070915
  18 C :   -0.015900
  19 C :   -0.051740
  20 C :   -0.151241
  21 H :   -0.005686
  22 C :    0.070259
  23 H :    0.012292
  24 H :    0.027938
  25 C :   -0.078194
  26 H :    0.032856
  27 H :    0.045159
  28 C :   -0.053295
  29 H :    0.037200
  30 H :    0.036494
  31 H :    0.040157
  32 H :    0.062195
  33 H :    0.041109
Sum of atomic charges:   -0.0000000

LOEWDIN ATOMIC CHARGES
----------------------
   0 S :    0.392560
   1 C :   -0.198780
   2 C :   -0.054536
   3 C :   -0.049617
   4 C :   -0.183479
   5 H :    0.029139
   6 C :   -0.041266
   7 H :    0.037127
   8 H :    0.034590
   9 C :   -0.046096
  10 H :    0.021672
  11 H :    0.026111
  12 C :   -0.086538
  13 H :    0.032578
  14 H :    0.032686
  15 H :    0.028523
  16 S :    0.415437
  17 C :   -0.179110
  18 C :   -0.068763
  19 C :   -0.057063
  20 C :   -0.212177
  21 H :    0.020317
  22 C :   -0.038778
  23 H :    0.026086
  24 H :    0.029344
  25 C :   -0.039246
  26 H :    0.019866
  27 H :    0.037281
  28 C :   -0.070605
  29 H :    0.026702
  30 H :    0.036149
  31 H :    0.027991
  32 H :    0.032735
  33 H :    0.019159

  Mayer bond orders larger than 0.100000
B(  0-S ,  1-C ) :   1.1342 B(  0-S ,  4-C ) :   1.1490 B(  1-C ,  2-C ) :   1.6096
B(  1-C , 32-H ) :   0.9589 B(  2-C ,  3-C ) :   1.2151 B(  2-C ,  6-C ) :   1.0421
B(  3-C ,  4-C ) :   1.6034 B(  3-C ,  5-H ) :   1.0019 B(  4-C , 20-C ) :   0.9770
B(  6-C ,  7-H ) :   0.9360 B(  6-C ,  8-H ) :   0.9379 B(  6-C ,  9-C ) :   1.0775
B(  9-C , 10-H ) :   0.9503 B(  9-C , 11-H ) :   0.9563 B(  9-C , 12-C ) :   1.0754
B( 12-C , 13-H ) :   0.9638 B( 12-C , 14-H ) :   0.9735 B( 12-C , 15-H ) :   0.9742
B( 16-S , 17-C ) :   1.1793 B( 16-S , 20-C ) :   1.1356 B( 17-C , 18-C ) :   1.5939
B( 17-C , 33-H ) :   0.9740 B( 18-C , 19-C ) :   1.2076 B( 18-C , 21-H ) :   1.0076
B( 19-C , 20-C ) :   1.6414 B( 19-C , 22-C ) :   1.0338 B( 22-C , 23-H ) :   0.9399
B( 22-C , 24-H ) :   0.9207 B( 22-C , 25-C ) :   1.0629 B( 25-C , 26-H ) :   0.9546
B( 25-C , 27-H ) :   0.9522 B( 25-C , 28-C ) :   1.0824 B( 28-C , 29-H ) :   0.9761
B( 28-C , 30-H ) :   0.9739 B( 28-C , 31-H ) :   0.9741

Dispersion correction           -0.014744716
FINAL SINGLE POINT ENERGY     -1339.873149454200

DIPOLE MOMENT
-------------
                                X             Y             Z
Electronic contribution:    -15.09700     -21.89489      -3.74737
Nuclear contribution   :     15.41438      22.30164       3.47287
                        -----------------------------------------
Total Dipole Moment    :      0.31738       0.40675      -0.27450
                        -----------------------------------------
Magnitude (a.u.)       :      0.58440
Magnitude (Debye)      :      1.48542

Rotational constants in cm-1:     0.017788     0.009087     0.007124
Rotational constants in MHz :   533.276868   272.426959   213.576390

                             ****ORCA TERMINATED NORMALLY****
TOTAL RUN TIME: 0 days 0 hours 0 minutes 21 seconds 993 msec
