                         Program Version 4.2.1 -  RELEASE  -
|  1> ! wB97X-D3 SP def2-SVP
|  2> %pal
|  3> nprocs 24
|  4> end
|  5>
|  6> * xyz 0 1
|  7> S 	 -134.249 	 69.5575 	 -61.0958
|  8> C 	 -134.981 	 71.0898 	 -61.6824
|  9> C 	 -136.167 	 71.2917 	 -60.9853
| 10> C 	 -136.422 	 70.3397 	 -59.9139
| 11> C 	 -135.364 	 69.418 	 -59.8114
| 12> H 	 -137.177 	 70.45 	 -59.1869
| 13> C 	 -136.99 	 72.5857 	 -61.2053
| 14> H 	 -138.018 	 72.3513 	 -60.9617
| 15> H 	 -137.012 	 72.811 	 -62.2489
| 16> C 	 -136.615 	 73.8652 	 -60.4461
| 17> H 	 -135.635 	 74.3299 	 -60.7532
| 18> H 	 -137.302 	 74.6794 	 -60.6412
| 19> C 	 -136.539 	 73.6107 	 -58.8906
| 20> H 	 -135.8 	 72.7673 	 -58.8378
| 21> H 	 -136.155 	 74.4932 	 -58.3574
| 22> H 	 -137.479 	 73.1635 	 -58.4812
| 23> S 	 -134.59 	 66.8656 	 -59.1939
| 24> C 	 -134.483 	 66.3267 	 -57.4442
| 25> C 	 -134.813 	 67.4025 	 -56.5923
| 26> C 	 -134.989 	 68.6054 	 -57.335
| 27> C 	 -135.054 	 68.5198 	 -58.7063
| 28> H 	 -134.828 	 67.4161 	 -55.5175
| 29> C 	 -135.02 	 69.9505 	 -56.619
| 30> H 	 -135.24 	 70.8042 	 -57.2664
| 31> H 	 -134.007 	 70.2089 	 -56.3176
| 32> C 	 -136.055 	 70.0897 	 -55.4459
| 33> H 	 -136.127 	 70.9733 	 -54.9051
| 34> H 	 -135.911 	 69.314 	 -54.7332
| 35> C 	 -137.46 	 69.8537 	 -55.8847
| 36> H 	 -137.639 	 68.9132 	 -56.4617
| 37> H 	 -137.867 	 70.6091 	 -56.5555
| 38> H 	 -138.182 	 69.7942 	 -55.0831
| 39> H 	 -134.604 	 71.8208 	 -62.4054
| 40> H 	 -134.302 	 65.2332 	 -57.1033
| 41> *
| 42>
| 43>                          ****END OF INPUT****

CARTESIAN COORDINATES (ANGSTROEM)
---------------------------------
  S    -134.249000   69.557500  -61.095800
  C    -134.981000   71.089800  -61.682400
  C    -136.167000   71.291700  -60.985300
  C    -136.422000   70.339700  -59.913900
  C    -135.364000   69.418000  -59.811400
  H    -137.177000   70.450000  -59.186900
  C    -136.990000   72.585700  -61.205300
  H    -138.018000   72.351300  -60.961700
  H    -137.012000   72.811000  -62.248900
  C    -136.615000   73.865200  -60.446100
  H    -135.635000   74.329900  -60.753200
  H    -137.302000   74.679400  -60.641200
  C    -136.539000   73.610700  -58.890600
  H    -135.800000   72.767300  -58.837800
  H    -136.155000   74.493200  -58.357400
  H    -137.479000   73.163500  -58.481200
  S    -134.590000   66.865600  -59.193900
  C    -134.483000   66.326700  -57.444200
  C    -134.813000   67.402500  -56.592300
  C    -134.989000   68.605400  -57.335000
  C    -135.054000   68.519800  -58.706300
  H    -134.828000   67.416100  -55.517500
  C    -135.020000   69.950500  -56.619000
  H    -135.240000   70.804200  -57.266400
  H    -134.007000   70.208900  -56.317600
  C    -136.055000   70.089700  -55.445900
  H    -136.127000   70.973300  -54.905100
  H    -135.911000   69.314000  -54.733200
  C    -137.460000   69.853700  -55.884700
  H    -137.639000   68.913200  -56.461700
  H    -137.867000   70.609100  -56.555500
  H    -138.182000   69.794200  -55.083100
  H    -134.604000   71.820800  -62.405400
  H    -134.302000   65.233200  -57.103300

 Total Charge           Charge          ....    0
 Multiplicity           Mult            ....    1
 Number of Electrons    NEL             ....  134
 Basis Dimension        Dim             ....  322

ORBITAL ENERGIES
----------------

  NO   OCC          E(Eh)            E(eV)
   0   2.0000     -88.969605     -2420.9860
   1   2.0000     -88.965928     -2420.8860
   2   2.0000     -10.339829      -281.3610
   3   2.0000     -10.335442      -281.2417
   4   2.0000     -10.332043      -281.1492
   5   2.0000     -10.321170      -280.8533
   6   2.0000     -10.309164      -280.5266
   7   2.0000     -10.307160      -280.4721
   8   2.0000     -10.303723      -280.3786
   9   2.0000     -10.300665      -280.2953
  10   2.0000     -10.294105      -280.1169
  11   2.0000     -10.293533      -280.1013
  12   2.0000     -10.293142      -280.0906
  13   2.0000     -10.286073      -279.8983
  14   2.0000     -10.279915      -279.7307
  15   2.0000     -10.272105      -279.5182
  16   2.0000      -8.084297      -219.9849
  17   2.0000      -8.079111      -219.8438
  18   2.0000      -6.042875      -164.4350
  19   2.0000      -6.038693      -164.3212
  20   2.0000      -6.037853      -164.2983
  21   2.0000      -6.035065      -164.2225
  22   2.0000      -6.033848      -164.1894
  23   2.0000      -6.029683      -164.0760
  24   2.0000      -1.005179       -27.3523
  25   2.0000      -0.977501       -26.5991
  26   2.0000      -0.911122       -24.7929
  27   2.0000      -0.906460       -24.6660
  28   2.0000      -0.866657       -23.5829
  29   2.0000      -0.849418       -23.1138
  30   2.0000      -0.839822       -22.8527
  31   2.0000      -0.815267       -22.1845
  32   2.0000      -0.782328       -21.2882
  33   2.0000      -0.770864       -20.9763
  34   2.0000      -0.708202       -19.2712
  35   2.0000      -0.700352       -19.0575
  36   2.0000      -0.696147       -18.9431
  37   2.0000      -0.666774       -18.1438
  38   2.0000      -0.639934       -17.4135
  39   2.0000      -0.615037       -16.7360
  40   2.0000      -0.595596       -16.2070
  41   2.0000      -0.569441       -15.4953
  42   2.0000      -0.554939       -15.1007
  43   2.0000      -0.552161       -15.0251
  44   2.0000      -0.549618       -14.9559
  45   2.0000      -0.539369       -14.6770
  46   2.0000      -0.514352       -13.9962
  47   2.0000      -0.511819       -13.9273
  48   2.0000      -0.507510       -13.8100
  49   2.0000      -0.496453       -13.5092
  50   2.0000      -0.488311       -13.2876
  51   2.0000      -0.475717       -12.9449
  52   2.0000      -0.472420       -12.8552
  53   2.0000      -0.461887       -12.5686
  54   2.0000      -0.457967       -12.4619
  55   2.0000      -0.444877       -12.1057
  56   2.0000      -0.442828       -12.0500
  57   2.0000      -0.438836       -11.9413
  58   2.0000      -0.434541       -11.8245
  59   2.0000      -0.424404       -11.5486
  60   2.0000      -0.416199       -11.3253
  61   2.0000      -0.413253       -11.2452
  62   2.0000      -0.408040       -11.1033
  63   2.0000      -0.347726        -9.4621
  64   2.0000      -0.332724        -9.0539
  65   2.0000      -0.331050        -9.0083
  66   2.0000      -0.292434        -7.9575
  67   0.0000       0.022423         0.6102
  68   0.0000       0.058591         1.5943
  69   0.0000       0.091098         2.4789
  70   0.0000       0.116194         3.1618
  71   0.0000       0.125540         3.4161

MULLIKEN ATOMIC CHARGES
-----------------------
   0 S :    0.116101
   1 C :   -0.117076
   2 C :   -0.128602
   3 C :    0.066976
   4 C :   -0.132057
   5 H :   -0.008808
   6 C :    0.078254
   7 H :    0.019776
   8 H :    0.023119
   9 C :   -0.068838
  10 H :    0.027763
  11 H :    0.030179
  12 C :   -0.111603
  13 H :    0.061175
  14 H :    0.049281
  15 H :    0.037398
  16 S :    0.072994
  17 C :   -0.123649
  18 C :   -0.002310
  19 C :   -0.058994
  20 C :   -0.133185
  21 H :    0.024010
  22 C :    0.068154
  23 H :    0.015845
  24 H :    0.038364
  25 C :   -0.018338
  26 H :    0.019184
  27 H :    0.010780
  28 C :   -0.092014
  29 H :    0.036621
  30 H :    0.017858
  31 H :    0.024874
  32 H :    0.058173
  33 H :    0.098597
Sum of atomic charges:   -0.0000000

LOEWDIN ATOMIC CHARGES
----------------------
   0 S :    0.412765
   1 C :   -0.190915
   2 C :   -0.059240
   3 C :   -0.056892
   4 C :   -0.200855
   5 H :    0.022934
   6 C :   -0.032586
   7 H :    0.029652
   8 H :    0.028322
   9 C :   -0.041172
  10 H :    0.025588
  11 H :    0.020989
  12 C :   -0.076785
  13 H :    0.030288
  14 H :    0.028395
  15 H :    0.024257
  16 S :    0.355034
  17 C :   -0.168867
  18 C :   -0.065220
  19 C :   -0.058266
  20 C :   -0.183321
  21 H :    0.032744
  22 C :   -0.027212
  23 H :    0.030005
  24 H :    0.033952
  25 C :   -0.037080
  26 H :    0.021245
  27 H :    0.016796
  28 C :   -0.071713
  29 H :    0.027733
  30 H :    0.016646
  31 H :    0.023710
  32 H :    0.037252
  33 H :    0.051815

  Mayer bond orders larger than 0.100000
B(  0-S ,  1-C ) :   1.1173 B(  0-S ,  4-C ) :   1.1760 B(  1-C ,  2-C ) :   1.6186
B(  1-C , 32-H ) :   0.9716 B(  2-C ,  3-C ) :   1.2192 B(  2-C ,  6-C ) :   1.0271
B(  3-C ,  4-C ) :   1.5474 B(  3-C ,  5-H ) :   1.0083 B(  4-C , 20-C ) :   1.0185
B(  6-C ,  7-H ) :   0.9391 B(  6-C ,  8-H ) :   0.9413 B(  6-C ,  9-C ) :   1.0676
B(  9-C , 10-H ) :   0.9565 B(  9-C , 11-H ) :   0.9558 B(  9-C , 12-C ) :   1.0669
B( 12-C , 13-H ) :   0.9715 B( 12-C , 14-H ) :   0.9724 B( 12-C , 15-H ) :   0.9750
B( 16-S , 17-C ) :   1.1413 B( 16-S , 20-C ) :   1.1080 B( 17-C , 18-C ) :   1.6006
B( 17-C , 20-C ) :   0.1066 B( 17-C , 33-H ) :   0.9549 B( 18-C , 19-C ) :   1.2351
B( 18-C , 21-H ) :   0.9877 B( 19-C , 20-C ) :   1.6325 B( 19-C , 22-C ) :   1.0283
B( 22-C , 23-H ) :   0.9445 B( 22-C , 24-H ) :   0.9372 B( 22-C , 25-C ) :   1.0557
B( 25-C , 26-H ) :   0.9562 B( 25-C , 27-H ) :   0.9562 B( 25-C , 28-C ) :   1.0774
B( 28-C , 29-H ) :   0.9700 B( 28-C , 30-H ) :   0.9720 B( 28-C , 31-H ) :   0.9711

Dispersion correction           -0.016144274
FINAL SINGLE POINT ENERGY     -1339.860659520099

DIPOLE MOMENT
-------------
                                X             Y             Z
Electronic contribution:     13.75365     -22.35972     -14.54512
Nuclear contribution   :    -13.96273      22.95388      15.01945
                        -----------------------------------------
Total Dipole Moment    :     -0.20908       0.59416       0.47433
                        -----------------------------------------
Magnitude (a.u.)       :      0.78850
Magnitude (Debye)      :      2.00420

Rotational constants in cm-1:     0.018726     0.010435     0.007229
Rotational constants in MHz :   561.391197   312.835619   216.722615

                             ****ORCA TERMINATED NORMALLY****
TOTAL RUN TIME: 0 days 0 hours 0 minutes 23 seconds 57 msec
