                         Program Version 4.2.1 -  RELEASE  -
|  1> ! wB97X-D3 SP def2-SVP
|  2> %pal
|  3> nprocs 24
|  4> end
|  5>
|  6> * xyz 0 1
|  7> S 	 -139.048 	 10.6109 	 6.03701
|  8> C 	 -140.455 	 11.249 	 5.26143
|  9> C 	 -141.481 	 11.5913 	 6.14952
| 10> C 	 -141.052 	 11.4171 	 7.50422
| 11> C 	 -139.725 	 10.9806 	 7.65223
| 12> H 	 -141.64 	 11.6074 	 8.43671
| 13> C 	 -142.928 	 12.0384 	 5.81139
| 14> H 	 -142.826 	 12.752 	 5.07891
| 15> H 	 -143.298 	 12.5123 	 6.67838
| 16> C 	 -143.884 	 10.9632 	 5.46973
| 17> H 	 -143.403 	 10.3037 	 4.7926
| 18> H 	 -144.087 	 10.3281 	 6.33419
| 19> C 	 -145.276 	 11.3483 	 4.8346
| 20> H 	 -145.034 	 11.9373 	 3.99329
| 21> H 	 -145.889 	 10.5141 	 4.59022
| 22> H 	 -145.801 	 12.018 	 5.54675
| 23> S 	 -137.091 	 10.8553 	 8.67785
| 24> C 	 -136.842 	 10.5741 	 10.4057
| 25> C 	 -137.994 	 10.083 	 10.9187
| 26> C 	 -139.147 	 10.1228 	 10.0474
| 27> C 	 -138.888 	 10.7211 	 8.81558
| 28> H 	 -138.022 	 9.60303 	 11.8841
| 29> C 	 -140.588 	 9.70196 	 10.5652
| 30> H 	 -141.289 	 9.57703 	 9.77386
| 31> H 	 -140.968 	 10.5219 	 11.2223
| 32> C 	 -140.635 	 8.43636 	 11.4002
| 33> H 	 -140.465 	 8.81606 	 12.3542
| 34> H 	 -139.889 	 7.63504 	 11.2067
| 35> C 	 -142.01 	 7.65101 	 11.1967
| 36> H 	 -142.069 	 6.75322 	 11.7797
| 37> H 	 -142.108 	 7.17556 	 10.2716
| 38> H 	 -142.858 	 8.3426 	 11.3651
| 39> H 	 -140.604 	 11.1658 	 4.20086
| 40> H 	 -135.872 	 10.4706 	 10.8037
| 41> *
| 42>
| 43>                          ****END OF INPUT****

CARTESIAN COORDINATES (ANGSTROEM)
---------------------------------
  S    -139.048000   10.610900    6.037010
  C    -140.455000   11.249000    5.261430
  C    -141.481000   11.591300    6.149520
  C    -141.052000   11.417100    7.504220
  C    -139.725000   10.980600    7.652230
  H    -141.640000   11.607400    8.436710
  C    -142.928000   12.038400    5.811390
  H    -142.826000   12.752000    5.078910
  H    -143.298000   12.512300    6.678380
  C    -143.884000   10.963200    5.469730
  H    -143.403000   10.303700    4.792600
  H    -144.087000   10.328100    6.334190
  C    -145.276000   11.348300    4.834600
  H    -145.034000   11.937300    3.993290
  H    -145.889000   10.514100    4.590220
  H    -145.801000   12.018000    5.546750
  S    -137.091000   10.855300    8.677850
  C    -136.842000   10.574100   10.405700
  C    -137.994000   10.083000   10.918700
  C    -139.147000   10.122800   10.047400
  C    -138.888000   10.721100    8.815580
  H    -138.022000    9.603030   11.884100
  C    -140.588000    9.701960   10.565200
  H    -141.289000    9.577030    9.773860
  H    -140.968000   10.521900   11.222300
  C    -140.635000    8.436360   11.400200
  H    -140.465000    8.816060   12.354200
  H    -139.889000    7.635040   11.206700
  C    -142.010000    7.651010   11.196700
  H    -142.069000    6.753220   11.779700
  H    -142.108000    7.175560   10.271600
  H    -142.858000    8.342600   11.365100
  H    -140.604000   11.165800    4.200860
  H    -135.872000   10.470600   10.803700

 Total Charge           Charge          ....    0
 Multiplicity           Mult            ....    1
 Number of Electrons    NEL             ....  134
 Basis Dimension        Dim             ....  322

ORBITAL ENERGIES
----------------

  NO   OCC          E(Eh)            E(eV)
   0   2.0000     -88.968102     -2420.9451
   1   2.0000     -88.959646     -2420.7150
   2   2.0000     -10.336499      -281.2704
   3   2.0000     -10.334839      -281.2253
   4   2.0000     -10.316785      -280.7340
   5   2.0000     -10.315970      -280.7118
   6   2.0000     -10.311196      -280.5819
   7   2.0000     -10.307502      -280.4814
   8   2.0000     -10.303206      -280.3645
   9   2.0000     -10.296422      -280.1799
  10   2.0000     -10.294950      -280.1398
  11   2.0000     -10.287109      -279.9265
  12   2.0000     -10.284450      -279.8541
  13   2.0000     -10.280827      -279.7555
  14   2.0000     -10.279047      -279.7071
  15   2.0000     -10.278852      -279.7018
  16   2.0000      -8.082554      -219.9375
  17   2.0000      -8.073790      -219.6990
  18   2.0000      -6.041095      -164.3866
  19   2.0000      -6.037090      -164.2776
  20   2.0000      -6.033315      -164.1748
  21   2.0000      -6.032537      -164.1537
  22   2.0000      -6.028610      -164.0468
  23   2.0000      -6.024071      -163.9233
  24   2.0000      -1.000608       -27.2279
  25   2.0000      -0.980045       -26.6684
  26   2.0000      -0.915906       -24.9231
  27   2.0000      -0.905478       -24.6393
  28   2.0000      -0.870491       -23.6873
  29   2.0000      -0.849589       -23.1185
  30   2.0000      -0.837685       -22.7946
  31   2.0000      -0.814879       -22.1740
  32   2.0000      -0.786637       -21.4055
  33   2.0000      -0.778477       -21.1834
  34   2.0000      -0.708491       -19.2790
  35   2.0000      -0.704226       -19.1630
  36   2.0000      -0.702244       -19.1090
  37   2.0000      -0.656433       -17.8624
  38   2.0000      -0.642067       -17.4715
  39   2.0000      -0.618076       -16.8187
  40   2.0000      -0.602076       -16.3833
  41   2.0000      -0.574557       -15.6345
  42   2.0000      -0.568620       -15.4729
  43   2.0000      -0.559884       -15.2352
  44   2.0000      -0.532802       -14.4983
  45   2.0000      -0.529957       -14.4209
  46   2.0000      -0.517280       -14.0759
  47   2.0000      -0.508005       -13.8235
  48   2.0000      -0.505005       -13.7419
  49   2.0000      -0.498023       -13.5519
  50   2.0000      -0.491277       -13.3683
  51   2.0000      -0.479820       -13.0566
  52   2.0000      -0.474956       -12.9242
  53   2.0000      -0.470190       -12.7945
  54   2.0000      -0.465295       -12.6613
  55   2.0000      -0.449127       -12.2214
  56   2.0000      -0.446485       -12.1495
  57   2.0000      -0.442958       -12.0535
  58   2.0000      -0.430706       -11.7201
  59   2.0000      -0.427364       -11.6292
  60   2.0000      -0.419848       -11.4246
  61   2.0000      -0.415878       -11.3166
  62   2.0000      -0.399004       -10.8575
  63   2.0000      -0.358393        -9.7524
  64   2.0000      -0.334736        -9.1086
  65   2.0000      -0.325157        -8.8480
  66   2.0000      -0.286196        -7.7878
  67   0.0000       0.018074         0.4918
  68   0.0000       0.068601         1.8667
  69   0.0000       0.099980         2.7206
  70   0.0000       0.126062         3.4303
  71   0.0000       0.134255         3.6533

MULLIKEN ATOMIC CHARGES
-----------------------
   0 S :    0.106208
   1 C :   -0.109732
   2 C :   -0.126406
   3 C :    0.005155
   4 C :   -0.155334
   5 H :    0.032919
   6 C :    0.157856
   7 H :    0.003348
   8 H :    0.002489
   9 C :   -0.077744
  10 H :    0.010205
  11 H :    0.019883
  12 C :   -0.024022
  13 H :    0.020530
  14 H :    0.041286
  15 H :    0.029028
  16 S :    0.063673
  17 C :   -0.057782
  18 C :   -0.025122
  19 C :   -0.039424
  20 C :   -0.135314
  21 H :    0.020190
  22 C :    0.056247
  23 H :    0.016988
  24 H :    0.050243
  25 C :   -0.087485
  26 H :    0.022886
  27 H :    0.043280
  28 C :   -0.051880
  29 H :    0.022726
  30 H :    0.025596
  31 H :    0.040204
  32 H :    0.046802
  33 H :    0.052500
Sum of atomic charges:    0.0000000

LOEWDIN ATOMIC CHARGES
----------------------
   0 S :    0.403553
   1 C :   -0.199333
   2 C :   -0.056950
   3 C :   -0.068127
   4 C :   -0.177210
   5 H :    0.039051
   6 C :   -0.017744
   7 H :    0.020558
   8 H :    0.025936
   9 C :   -0.040165
  10 H :    0.015401
  11 H :    0.023158
  12 C :   -0.054523
  13 H :    0.017947
  14 H :    0.025339
  15 H :    0.026709
  16 S :    0.360361
  17 C :   -0.163862
  18 C :   -0.071455
  19 C :   -0.051398
  20 C :   -0.181037
  21 H :    0.029975
  22 C :   -0.028447
  23 H :    0.020363
  24 H :    0.039427
  25 C :   -0.039972
  26 H :    0.013857
  27 H :    0.029912
  28 C :   -0.063759
  29 H :    0.025372
  30 H :    0.021243
  31 H :    0.026951
  32 H :    0.024376
  33 H :    0.024489

  Mayer bond orders larger than 0.100000
B(  0-S ,  1-C ) :   1.1543 B(  0-S ,  4-C ) :   1.1447 B(  1-C ,  2-C ) :   1.5993
B(  1-C ,  4-C ) :   0.1025 B(  1-C , 32-H ) :   0.9684 B(  2-C ,  3-C ) :   1.2591
B(  2-C ,  6-C ) :   1.0145 B(  3-C ,  4-C ) :   1.5665 B(  3-C ,  5-H ) :   0.9816
B(  4-C , 20-C ) :   1.0879 B(  6-C ,  7-H ) :   0.9321 B(  6-C ,  8-H ) :   0.9315
B(  6-C ,  9-C ) :   1.0718 B(  9-C , 10-H ) :   0.9572 B(  9-C , 11-H ) :   0.9520
B(  9-C , 12-C ) :   1.0761 B( 12-C , 13-H ) :   0.9769 B( 12-C , 14-H ) :   0.9759
B( 12-C , 15-H ) :   0.9772 B( 16-S , 17-C ) :   1.1335 B( 16-S , 20-C ) :   1.1158
B( 17-C , 18-C ) :   1.6215 B( 17-C , 33-H ) :   0.9738 B( 18-C , 19-C ) :   1.2304
B( 18-C , 21-H ) :   0.9867 B( 19-C , 20-C ) :   1.5939 B( 19-C , 22-C ) :   1.0300
B( 22-C , 23-H ) :   0.9450 B( 22-C , 24-H ) :   0.9429 B( 22-C , 25-C ) :   1.0370
B( 25-C , 26-H ) :   0.9588 B( 25-C , 27-H ) :   0.9668 B( 25-C , 28-C ) :   1.0835
B( 28-C , 29-H ) :   0.9732 B( 28-C , 30-H ) :   0.9726 B( 28-C , 31-H ) :   0.9767

Dispersion correction           -0.013197979
FINAL SINGLE POINT ENERGY     -1339.854484160760

DIPOLE MOMENT
-------------
                                X             Y             Z
Electronic contribution:     30.40379       6.66178      -4.76464
Nuclear contribution   :    -31.06997      -6.98334       5.04624
                        -----------------------------------------
Total Dipole Moment    :     -0.66617      -0.32156       0.28160
                        -----------------------------------------
Magnitude (a.u.)       :      0.79151
Magnitude (Debye)      :      2.01186

Rotational constants in cm-1:     0.017787     0.008036     0.005887
Rotational constants in MHz :   533.230829   240.908551   176.494915

                             ****ORCA TERMINATED NORMALLY****
TOTAL RUN TIME: 0 days 0 hours 0 minutes 20 seconds 759 msec
