                         Program Version 4.2.1 -  RELEASE  -
|  1> ! wB97X-D3 SP def2-SVP
|  2> %pal
|  3> nprocs 24
|  4> end
|  5>
|  6> * xyz 0 1
|  7> S 	 -112.074 	 48.7218 	 -73.1856
|  8> C 	 -112.431 	 48.449 	 -74.9039
|  9> C 	 -111.837 	 49.4384 	 -75.6733
| 10> C 	 -111.219 	 50.4111 	 -74.799
| 11> C 	 -111.157 	 50.1337 	 -73.4771
| 12> H 	 -110.615 	 51.236 	 -75.0942
| 13> C 	 -111.922 	 49.7013 	 -77.1997
| 14> H 	 -110.91 	 49.8609 	 -77.528
| 15> H 	 -112.488 	 50.6534 	 -77.3267
| 16> C 	 -112.675 	 48.6489 	 -78.1035
| 17> H 	 -112.436 	 48.8254 	 -79.121
| 18> H 	 -112.047 	 47.7832 	 -77.9339
| 19> C 	 -114.176 	 48.5832 	 -77.8444
| 20> H 	 -114.384 	 48.7486 	 -76.82
| 21> H 	 -114.623 	 49.4415 	 -78.3852
| 22> H 	 -114.732 	 47.7707 	 -78.0748
| 23> S 	 -109.482 	 50.1777 	 -71.401
| 24> C 	 -109.6 	 51.5284 	 -70.2843
| 25> C 	 -110.23 	 52.6272 	 -70.8264
| 26> C 	 -110.893 	 52.314 	 -72.0229
| 27> C 	 -110.682 	 50.9161 	 -72.378
| 28> H 	 -110.375 	 53.5764 	 -70.3442
| 29> C 	 -111.749 	 53.2312 	 -72.7839
| 30> H 	 -112.446 	 52.624 	 -73.4187
| 31> H 	 -111.117 	 53.794 	 -73.516
| 32> C 	 -112.687 	 54.1731 	 -71.9942
| 33> H 	 -112.117 	 54.7842 	 -71.3808
| 34> H 	 -113.278 	 53.4661 	 -71.3971
| 35> C 	 -113.673 	 54.8516 	 -72.9883
| 36> H 	 -114.337 	 55.4417 	 -72.3298
| 37> H 	 -114.282 	 54.0265 	 -73.4275
| 38> H 	 -113.264 	 55.5085 	 -73.7568
| 39> H 	 -113.073 	 47.6547 	 -75.2854
| 40> H 	 -109.028 	 51.6481 	 -69.4003
| 41> *
| 42>
| 43>                          ****END OF INPUT****

CARTESIAN COORDINATES (ANGSTROEM)
---------------------------------
  S    -112.074000   48.721800  -73.185600
  C    -112.431000   48.449000  -74.903900
  C    -111.837000   49.438400  -75.673300
  C    -111.219000   50.411100  -74.799000
  C    -111.157000   50.133700  -73.477100
  H    -110.615000   51.236000  -75.094200
  C    -111.922000   49.701300  -77.199700
  H    -110.910000   49.860900  -77.528000
  H    -112.488000   50.653400  -77.326700
  C    -112.675000   48.648900  -78.103500
  H    -112.436000   48.825400  -79.121000
  H    -112.047000   47.783200  -77.933900
  C    -114.176000   48.583200  -77.844400
  H    -114.384000   48.748600  -76.820000
  H    -114.623000   49.441500  -78.385200
  H    -114.732000   47.770700  -78.074800
  S    -109.482000   50.177700  -71.401000
  C    -109.600000   51.528400  -70.284300
  C    -110.230000   52.627200  -70.826400
  C    -110.893000   52.314000  -72.022900
  C    -110.682000   50.916100  -72.378000
  H    -110.375000   53.576400  -70.344200
  C    -111.749000   53.231200  -72.783900
  H    -112.446000   52.624000  -73.418700
  H    -111.117000   53.794000  -73.516000
  C    -112.687000   54.173100  -71.994200
  H    -112.117000   54.784200  -71.380800
  H    -113.278000   53.466100  -71.397100
  C    -113.673000   54.851600  -72.988300
  H    -114.337000   55.441700  -72.329800
  H    -114.282000   54.026500  -73.427500
  H    -113.264000   55.508500  -73.756800
  H    -113.073000   47.654700  -75.285400
  H    -109.028000   51.648100  -69.400300

 Total Charge           Charge          ....    0
 Multiplicity           Mult            ....    1
 Number of Electrons    NEL             ....  134
 Basis Dimension        Dim             ....  322

ORBITAL ENERGIES
----------------

  NO   OCC          E(Eh)            E(eV)
   0   2.0000     -88.969953     -2420.9955
   1   2.0000     -88.958545     -2420.6851
   2   2.0000     -10.323570      -280.9186
   3   2.0000     -10.318206      -280.7727
   4   2.0000     -10.316958      -280.7387
   5   2.0000     -10.312955      -280.6298
   6   2.0000     -10.306738      -280.4606
   7   2.0000     -10.303048      -280.3602
   8   2.0000     -10.300257      -280.2842
   9   2.0000     -10.291110      -280.0353
  10   2.0000     -10.289166      -279.9825
  11   2.0000     -10.287757      -279.9441
  12   2.0000     -10.285773      -279.8901
  13   2.0000     -10.285521      -279.8833
  14   2.0000     -10.285257      -279.8761
  15   2.0000     -10.272034      -279.5163
  16   2.0000      -8.084847      -219.9999
  17   2.0000      -8.074032      -219.7056
  18   2.0000      -6.043131      -164.4420
  19   2.0000      -6.039389      -164.3401
  20   2.0000      -6.035791      -164.2422
  21   2.0000      -6.032532      -164.1535
  22   2.0000      -6.028382      -164.0406
  23   2.0000      -6.024766      -163.9422
  24   2.0000      -1.010882       -27.5075
  25   2.0000      -0.984783       -26.7973
  26   2.0000      -0.913024       -24.8446
  27   2.0000      -0.908869       -24.7316
  28   2.0000      -0.872338       -23.7375
  29   2.0000      -0.852321       -23.1928
  30   2.0000      -0.844663       -22.9845
  31   2.0000      -0.813321       -22.1316
  32   2.0000      -0.789051       -21.4712
  33   2.0000      -0.767051       -20.8725
  34   2.0000      -0.715218       -19.4621
  35   2.0000      -0.707239       -19.2449
  36   2.0000      -0.698153       -18.9977
  37   2.0000      -0.655425       -17.8350
  38   2.0000      -0.642802       -17.4915
  39   2.0000      -0.609778       -16.5929
  40   2.0000      -0.596191       -16.2232
  41   2.0000      -0.573949       -15.6179
  42   2.0000      -0.571986       -15.5645
  43   2.0000      -0.562925       -15.3180
  44   2.0000      -0.538758       -14.6604
  45   2.0000      -0.519800       -14.1445
  46   2.0000      -0.517141       -14.0721
  47   2.0000      -0.508557       -13.8385
  48   2.0000      -0.503706       -13.7065
  49   2.0000      -0.496634       -13.5141
  50   2.0000      -0.490819       -13.3559
  51   2.0000      -0.482271       -13.1233
  52   2.0000      -0.472472       -12.8566
  53   2.0000      -0.469806       -12.7841
  54   2.0000      -0.461433       -12.5562
  55   2.0000      -0.452312       -12.3080
  56   2.0000      -0.448913       -12.2156
  57   2.0000      -0.435012       -11.8373
  58   2.0000      -0.432890       -11.7795
  59   2.0000      -0.429515       -11.6877
  60   2.0000      -0.421965       -11.4822
  61   2.0000      -0.415708       -11.3120
  62   2.0000      -0.407791       -11.0966
  63   2.0000      -0.345356        -9.3976
  64   2.0000      -0.330831        -9.0024
  65   2.0000      -0.324257        -8.8235
  66   2.0000      -0.290224        -7.8974
  67   0.0000       0.029682         0.8077
  68   0.0000       0.070737         1.9248
  69   0.0000       0.109110         2.9690
  70   0.0000       0.122843         3.3427
  71   0.0000       0.131163         3.5691

MULLIKEN ATOMIC CHARGES
-----------------------
   0 S :    0.101111
   1 C :   -0.143066
   2 C :   -0.070979
   3 C :    0.010581
   4 C :   -0.140218
   5 H :   -0.001151
   6 C :    0.015095
   7 H :    0.036741
   8 H :    0.041211
   9 C :   -0.042862
  10 H :    0.018082
  11 H :    0.021235
  12 C :   -0.000181
  13 H :    0.017397
  14 H :    0.029898
  15 H :    0.015458
  16 S :    0.132135
  17 C :   -0.062098
  18 C :   -0.040899
  19 C :   -0.000753
  20 C :   -0.184414
  21 H :    0.015341
  22 C :    0.010887
  23 H :    0.029835
  24 H :    0.041231
  25 C :   -0.074494
  26 H :    0.021487
  27 H :    0.036137
  28 C :   -0.053900
  29 H :    0.035625
  30 H :    0.042255
  31 H :    0.043265
  32 H :    0.059977
  33 H :    0.040032
Sum of atomic charges:    0.0000000

LOEWDIN ATOMIC CHARGES
----------------------
   0 S :    0.408139
   1 C :   -0.195272
   2 C :   -0.061858
   3 C :   -0.068187
   4 C :   -0.217120
   5 H :    0.024513
   6 C :   -0.026449
   7 H :    0.030959
   8 H :    0.035108
   9 C :   -0.042141
  10 H :    0.021949
  11 H :    0.022662
  12 C :   -0.057634
  13 H :    0.022504
  14 H :    0.036020
  15 H :    0.013345
  16 S :    0.435604
  17 C :   -0.179896
  18 C :   -0.067245
  19 C :   -0.049919
  20 C :   -0.219715
  21 H :    0.031264
  22 C :   -0.046911
  23 H :    0.035882
  24 H :    0.034297
  25 C :   -0.032102
  26 H :    0.007206
  27 H :    0.031943
  28 C :   -0.063814
  29 H :    0.028920
  30 H :    0.032862
  31 H :    0.024756
  32 H :    0.030480
  33 H :    0.019851

  Mayer bond orders larger than 0.100000
B(  0-S ,  1-C ) :   1.1363 B(  0-S ,  4-C ) :   1.1450 B(  1-C ,  2-C ) :   1.6172
B(  1-C , 32-H ) :   0.9634 B(  2-C ,  3-C ) :   1.2256 B(  2-C ,  6-C ) :   0.9978
B(  3-C ,  4-C ) :   1.6057 B(  3-C ,  5-H ) :   1.0027 B(  4-C , 20-C ) :   1.0274
B(  6-C ,  7-H ) :   0.9423 B(  6-C ,  8-H ) :   0.9473 B(  6-C ,  9-C ) :   1.0749
B(  9-C , 10-H ) :   0.9573 B(  9-C , 11-H ) :   0.9559 B(  9-C , 12-C ) :   1.0535
B( 12-C , 13-H ) :   0.9782 B( 12-C , 14-H ) :   0.9694 B( 12-C , 15-H ) :   0.9768
B( 16-S , 17-C ) :   1.1626 B( 16-S , 20-C ) :   1.1813 B( 17-C , 18-C ) :   1.5733
B( 17-C , 20-C ) :   0.1139 B( 17-C , 33-H ) :   0.9690 B( 18-C , 19-C ) :   1.2928
B( 18-C , 21-H ) :   0.9871 B( 19-C , 20-C ) :   1.5111 B( 19-C , 22-C ) :   1.0567
B( 22-C , 23-H ) :   0.9368 B( 22-C , 24-H ) :   0.9216 B( 22-C , 25-C ) :   1.0561
B( 25-C , 26-H ) :   0.9558 B( 25-C , 27-H ) :   0.9589 B( 25-C , 28-C ) :   1.0811
B( 28-C , 29-H ) :   0.9750 B( 28-C , 30-H ) :   0.9731 B( 28-C , 31-H ) :   0.9772

Dispersion correction           -0.013893189
FINAL SINGLE POINT ENERGY     -1339.857803937441

DIPOLE MOMENT
-------------
                                X             Y             Z
Electronic contribution:     15.94109     -13.10489      18.51132
Nuclear contribution   :    -16.12823      13.65507     -18.95093
                        -----------------------------------------
Total Dipole Moment    :     -0.18714       0.55018      -0.43961
                        -----------------------------------------
Magnitude (a.u.)       :      0.72868
Magnitude (Debye)      :      1.85217

Rotational constants in cm-1:     0.019320     0.008075     0.006278
Rotational constants in MHz :   579.205538   242.082956   188.202014

                             ****ORCA TERMINATED NORMALLY****
TOTAL RUN TIME: 0 days 0 hours 0 minutes 21 seconds 405 msec
