                         Program Version 4.2.1 -  RELEASE  -
|  1> ! wB97X-D3 SP def2-SVP
|  2> %pal
|  3> nprocs 24
|  4> end
|  5>
|  6> * xyz 0 1
|  7> S 	 -50.1701 	 -49.6469 	 -78.829
|  8> C 	 -51.1761 	 -49.0826 	 -77.5617
|  9> C 	 -51.1244 	 -47.7173 	 -77.4981
| 10> C 	 -50.4003 	 -47.0435 	 -78.5639
| 11> C 	 -49.7546 	 -48.0122 	 -79.2819
| 12> H 	 -50.2439 	 -45.9462 	 -78.6798
| 13> C 	 -51.9137 	 -46.8597 	 -76.4983
| 14> H 	 -51.3507 	 -46.1315 	 -76.008
| 15> H 	 -52.1199 	 -47.506 	 -75.7008
| 16> C 	 -53.1247 	 -46.2335 	 -77.1653
| 17> H 	 -52.7386 	 -45.3321 	 -77.6862
| 18> H 	 -53.769 	 -46.8549 	 -77.8562
| 19> C 	 -53.972 	 -45.6161 	 -76.096
| 20> H 	 -53.4393 	 -44.872 	 -75.5102
| 21> H 	 -54.8063 	 -45.0719 	 -76.5854
| 22> H 	 -54.3541 	 -46.3158 	 -75.3702
| 23> S 	 -47.5106 	 -46.5698 	 -80.1511
| 24> C 	 -47.0561 	 -46.6144 	 -81.8088
| 25> C 	 -47.8455 	 -47.478 	 -82.5266
| 26> C 	 -48.9104 	 -48.1099 	 -81.7759
| 27> C 	 -48.8817 	 -47.709 	 -80.4273
| 28> H 	 -47.653 	 -47.6618 	 -83.5993
| 29> C 	 -49.9935 	 -48.9048 	 -82.4087
| 30> H 	 -50.8426 	 -48.4117 	 -82.002
| 31> H 	 -49.9343 	 -49.9672 	 -82.0723
| 32> C 	 -50.2048 	 -48.8186 	 -83.9559
| 33> H 	 -49.7987 	 -47.8497 	 -84.3133
| 34> H 	 -51.2052 	 -48.959 	 -84.186
| 35> C 	 -49.3518 	 -49.9868 	 -84.585
| 36> H 	 -49.6833 	 -50.9925 	 -84.2517
| 37> H 	 -48.2438 	 -49.8619 	 -84.366
| 38> H 	 -49.515 	 -49.9504 	 -85.6938
| 39> H 	 -51.7955 	 -49.6518 	 -76.9382
| 40> H 	 -46.269 	 -45.9462 	 -82.2455
| 41> *
| 42>
| 43>                          ****END OF INPUT****

CARTESIAN COORDINATES (ANGSTROEM)
---------------------------------
  S    -50.170100  -49.646900  -78.829000
  C    -51.176100  -49.082600  -77.561700
  C    -51.124400  -47.717300  -77.498100
  C    -50.400300  -47.043500  -78.563900
  C    -49.754600  -48.012200  -79.281900
  H    -50.243900  -45.946200  -78.679800
  C    -51.913700  -46.859700  -76.498300
  H    -51.350700  -46.131500  -76.008000
  H    -52.119900  -47.506000  -75.700800
  C    -53.124700  -46.233500  -77.165300
  H    -52.738600  -45.332100  -77.686200
  H    -53.769000  -46.854900  -77.856200
  C    -53.972000  -45.616100  -76.096000
  H    -53.439300  -44.872000  -75.510200
  H    -54.806300  -45.071900  -76.585400
  H    -54.354100  -46.315800  -75.370200
  S    -47.510600  -46.569800  -80.151100
  C    -47.056100  -46.614400  -81.808800
  C    -47.845500  -47.478000  -82.526600
  C    -48.910400  -48.109900  -81.775900
  C    -48.881700  -47.709000  -80.427300
  H    -47.653000  -47.661800  -83.599300
  C    -49.993500  -48.904800  -82.408700
  H    -50.842600  -48.411700  -82.002000
  H    -49.934300  -49.967200  -82.072300
  C    -50.204800  -48.818600  -83.955900
  H    -49.798700  -47.849700  -84.313300
  H    -51.205200  -48.959000  -84.186000
  C    -49.351800  -49.986800  -84.585000
  H    -49.683300  -50.992500  -84.251700
  H    -48.243800  -49.861900  -84.366000
  H    -49.515000  -49.950400  -85.693800
  H    -51.795500  -49.651800  -76.938200
  H    -46.269000  -45.946200  -82.245500

 Total Charge           Charge          ....    0
 Multiplicity           Mult            ....    1
 Number of Electrons    NEL             ....  134
 Basis Dimension        Dim             ....  322

ORBITAL ENERGIES
----------------

  NO   OCC          E(Eh)            E(eV)
   0   2.0000     -88.966609     -2420.9045
   1   2.0000     -88.963132     -2420.8099
   2   2.0000     -10.328205      -281.0448
   3   2.0000     -10.326713      -281.0041
   4   2.0000     -10.317116      -280.7430
   5   2.0000     -10.305685      -280.4320
   6   2.0000     -10.304817      -280.4083
   7   2.0000     -10.297858      -280.2190
   8   2.0000     -10.296452      -280.1807
   9   2.0000     -10.293370      -280.0968
  10   2.0000     -10.289054      -279.9794
  11   2.0000     -10.288386      -279.9612
  12   2.0000     -10.288142      -279.9546
  13   2.0000     -10.286525      -279.9106
  14   2.0000     -10.279203      -279.7113
  15   2.0000     -10.273216      -279.5484
  16   2.0000      -8.081805      -219.9171
  17   2.0000      -8.077500      -219.7999
  18   2.0000      -6.040315      -164.3653
  19   2.0000      -6.036304      -164.2562
  20   2.0000      -6.036016      -164.2483
  21   2.0000      -6.032486      -164.1523
  22   2.0000      -6.032007      -164.1393
  23   2.0000      -6.028339      -164.0394
  24   2.0000      -1.005923       -27.3726
  25   2.0000      -0.982572       -26.7371
  26   2.0000      -0.917501       -24.9665
  27   2.0000      -0.907576       -24.6964
  28   2.0000      -0.869933       -23.6721
  29   2.0000      -0.851014       -23.1573
  30   2.0000      -0.842272       -22.9194
  31   2.0000      -0.812068       -22.0975
  32   2.0000      -0.779454       -21.2100
  33   2.0000      -0.766502       -20.8576
  34   2.0000      -0.706942       -19.2369
  35   2.0000      -0.698211       -18.9993
  36   2.0000      -0.690142       -18.7797
  37   2.0000      -0.656653       -17.8684
  38   2.0000      -0.639209       -17.3938
  39   2.0000      -0.612858       -16.6767
  40   2.0000      -0.598040       -16.2735
  41   2.0000      -0.575920       -15.6716
  42   2.0000      -0.559979       -15.2378
  43   2.0000      -0.549505       -14.9528
  44   2.0000      -0.538561       -14.6550
  45   2.0000      -0.533381       -14.5140
  46   2.0000      -0.515743       -14.0341
  47   2.0000      -0.512479       -13.9453
  48   2.0000      -0.503224       -13.6934
  49   2.0000      -0.499193       -13.5837
  50   2.0000      -0.491153       -13.3649
  51   2.0000      -0.471686       -12.8352
  52   2.0000      -0.467050       -12.7091
  53   2.0000      -0.464230       -12.6323
  54   2.0000      -0.462280       -12.5793
  55   2.0000      -0.447778       -12.1846
  56   2.0000      -0.445197       -12.1144
  57   2.0000      -0.442592       -12.0435
  58   2.0000      -0.438615       -11.9353
  59   2.0000      -0.422371       -11.4933
  60   2.0000      -0.418736       -11.3944
  61   2.0000      -0.409190       -11.1346
  62   2.0000      -0.404347       -11.0029
  63   2.0000      -0.344943        -9.3864
  64   2.0000      -0.328379        -8.9356
  65   2.0000      -0.324342        -8.8258
  66   2.0000      -0.294384        -8.0106
  67   0.0000       0.033167         0.9025
  68   0.0000       0.077635         2.1126
  69   0.0000       0.113518         3.0890
  70   0.0000       0.120538         3.2800
  71   0.0000       0.130433         3.5492

MULLIKEN ATOMIC CHARGES
-----------------------
   0 S :    0.123485
   1 C :   -0.093168
   2 C :   -0.101725
   3 C :    0.001837
   4 C :   -0.145007
   5 H :    0.045053
   6 C :    0.117040
   7 H :    0.005199
   8 H :   -0.011301
   9 C :   -0.087207
  10 H :    0.031984
  11 H :    0.051694
  12 C :   -0.042264
  13 H :    0.017782
  14 H :    0.033497
  15 H :    0.024531
  16 S :    0.100870
  17 C :   -0.102111
  18 C :   -0.064289
  19 C :   -0.024535
  20 C :   -0.180203
  21 H :    0.028091
  22 C :    0.051537
  23 H :    0.035128
  24 H :    0.046215
  25 C :   -0.038514
  26 H :    0.038807
  27 H :    0.023510
  28 C :   -0.113678
  29 H :    0.039792
  30 H :    0.049109
  31 H :    0.040303
  32 H :    0.022720
  33 H :    0.075818
Sum of atomic charges:   -0.0000000

LOEWDIN ATOMIC CHARGES
----------------------
   0 S :    0.422035
   1 C :   -0.207385
   2 C :   -0.053738
   3 C :   -0.064367
   4 C :   -0.193120
   5 H :    0.043598
   6 C :   -0.027459
   7 H :    0.024099
   8 H :    0.017632
   9 C :   -0.042486
  10 H :    0.030563
  11 H :    0.033936
  12 C :   -0.067019
  13 H :    0.021586
  14 H :    0.028087
  15 H :    0.018269
  16 S :    0.396360
  17 C :   -0.202697
  18 C :   -0.086878
  19 C :   -0.051770
  20 C :   -0.189350
  21 H :    0.033132
  22 C :   -0.039600
  23 H :    0.034769
  24 H :    0.037089
  25 C :   -0.027261
  26 H :    0.028453
  27 H :    0.016937
  28 C :   -0.076017
  29 H :    0.025054
  30 H :    0.029778
  31 H :    0.025858
  32 H :    0.020068
  33 H :    0.041847

  Mayer bond orders larger than 0.100000
B(  0-S ,  1-C ) :   1.1216 B(  0-S ,  4-C ) :   1.1542 B(  1-C ,  2-C ) :   1.6424
B(  1-C , 32-H ) :   0.9735 B(  2-C ,  3-C ) :   1.2081 B(  2-C ,  6-C ) :   1.0291
B(  3-C ,  4-C ) :   1.5813 B(  3-C ,  5-H ) :   0.9868 B(  4-C , 20-C ) :   1.0329
B(  6-C ,  7-H ) :   0.9301 B(  6-C ,  8-H ) :   0.9408 B(  6-C ,  9-C ) :   1.0588
B(  9-C , 10-H ) :   0.9478 B(  9-C , 11-H ) :   0.9613 B(  9-C , 12-C ) :   1.0895
B( 12-C , 13-H ) :   0.9695 B( 12-C , 14-H ) :   0.9724 B( 12-C , 15-H ) :   0.9756
B( 16-S , 17-C ) :   1.1615 B( 16-S , 20-C ) :   1.1349 B( 17-C , 18-C ) :   1.6055
B( 17-C , 33-H ) :   0.9575 B( 18-C , 19-C ) :   1.2433 B( 18-C , 21-H ) :   0.9770
B( 19-C , 20-C ) :   1.5855 B( 19-C , 22-C ) :   1.0305 B( 22-C , 23-H ) :   0.9295
B( 22-C , 24-H ) :   0.9245 B( 22-C , 25-C ) :   1.0791 B( 25-C , 26-H ) :   0.9547
B( 25-C , 27-H ) :   0.9570 B( 25-C , 28-C ) :   1.0685 B( 28-C , 29-H ) :   0.9757
B( 28-C , 30-H ) :   0.9772 B( 28-C , 31-H ) :   0.9759

Dispersion correction           -0.013902543
FINAL SINGLE POINT ENERGY     -1339.872074134682

DIPOLE MOMENT
-------------
                                X             Y             Z
Electronic contribution:     17.05673      -3.00809       4.63596
Nuclear contribution   :    -17.53072       3.24190      -4.77095
                        -----------------------------------------
Total Dipole Moment    :     -0.47399       0.23381      -0.13499
                        -----------------------------------------
Magnitude (a.u.)       :      0.54549
Magnitude (Debye)      :      1.38652

Rotational constants in cm-1:     0.021702     0.007101     0.006384
Rotational constants in MHz :   650.601802   212.886446   191.384759

                             ****ORCA TERMINATED NORMALLY****
TOTAL RUN TIME: 0 days 0 hours 0 minutes 20 seconds 58 msec
