                         Program Version 4.2.1 -  RELEASE  -
|  1> ! wB97X-D3 SP def2-SVP
|  2> %pal
|  3> nprocs 24
|  4> end
|  5>
|  6> * xyz 0 1
|  7> S 	 -143.343 	 27.0551 	 -17.6097
|  8> C 	 -144.543 	 25.7922 	 -17.9311
|  9> C 	 -144.201 	 25.0072 	 -19.001
| 10> C 	 -142.892 	 25.3505 	 -19.4953
| 11> C 	 -142.271 	 26.1982 	 -18.6477
| 12> H 	 -142.305 	 24.8662 	 -20.282
| 13> C 	 -145.169 	 24.0377 	 -19.6218
| 14> H 	 -146.021 	 24.1494 	 -19.0011
| 15> H 	 -144.785 	 23.0636 	 -19.5199
| 16> C 	 -145.577 	 24.2811 	 -21.0856
| 17> H 	 -145.983 	 25.2805 	 -21.2097
| 18> H 	 -144.608 	 24.3254 	 -21.6652
| 19> C 	 -146.508 	 23.2106 	 -21.6876
| 20> H 	 -147.414 	 23.0649 	 -21.0852
| 21> H 	 -146.808 	 23.4511 	 -22.7348
| 22> H 	 -145.927 	 22.2921 	 -21.6454
| 23> S 	 -140.722 	 28.192 	 -19.563
| 24> C 	 -139.025 	 28.0491 	 -19.3927
| 25> C 	 -138.595 	 26.926 	 -18.7093
| 26> C 	 -139.678 	 26.0959 	 -18.4143
| 27> C 	 -140.911 	 26.7052 	 -18.7836
| 28> H 	 -137.596 	 26.6691 	 -18.5102
| 29> C 	 -139.411 	 24.7177 	 -17.9009
| 30> H 	 -140.225 	 24.5002 	 -17.1362
| 31> H 	 -138.428 	 24.8336 	 -17.4077
| 32> C 	 -139.438 	 23.7055 	 -19.0404
| 33> H 	 -138.833 	 24.0248 	 -19.8469
| 34> H 	 -140.468 	 23.5087 	 -19.451
| 35> C 	 -139.124 	 22.245 	 -18.6287
| 36> H 	 -139.181 	 21.6036 	 -19.4533
| 37> H 	 -139.771 	 21.9575 	 -17.8591
| 38> H 	 -138.08 	 22.1896 	 -18.3715
| 39> H 	 -145.491 	 25.7397 	 -17.5265
| 40> H 	 -138.414 	 28.8695 	 -19.6456
| 41> *
| 42>
| 43>                          ****END OF INPUT****

CARTESIAN COORDINATES (ANGSTROEM)
---------------------------------
  S    -143.343000   27.055100  -17.609700
  C    -144.543000   25.792200  -17.931100
  C    -144.201000   25.007200  -19.001000
  C    -142.892000   25.350500  -19.495300
  C    -142.271000   26.198200  -18.647700
  H    -142.305000   24.866200  -20.282000
  C    -145.169000   24.037700  -19.621800
  H    -146.021000   24.149400  -19.001100
  H    -144.785000   23.063600  -19.519900
  C    -145.577000   24.281100  -21.085600
  H    -145.983000   25.280500  -21.209700
  H    -144.608000   24.325400  -21.665200
  C    -146.508000   23.210600  -21.687600
  H    -147.414000   23.064900  -21.085200
  H    -146.808000   23.451100  -22.734800
  H    -145.927000   22.292100  -21.645400
  S    -140.722000   28.192000  -19.563000
  C    -139.025000   28.049100  -19.392700
  C    -138.595000   26.926000  -18.709300
  C    -139.678000   26.095900  -18.414300
  C    -140.911000   26.705200  -18.783600
  H    -137.596000   26.669100  -18.510200
  C    -139.411000   24.717700  -17.900900
  H    -140.225000   24.500200  -17.136200
  H    -138.428000   24.833600  -17.407700
  C    -139.438000   23.705500  -19.040400
  H    -138.833000   24.024800  -19.846900
  H    -140.468000   23.508700  -19.451000
  C    -139.124000   22.245000  -18.628700
  H    -139.181000   21.603600  -19.453300
  H    -139.771000   21.957500  -17.859100
  H    -138.080000   22.189600  -18.371500
  H    -145.491000   25.739700  -17.526500
  H    -138.414000   28.869500  -19.645600

 Total Charge           Charge          ....    0
 Multiplicity           Mult            ....    1
 Number of Electrons    NEL             ....  134
 Basis Dimension        Dim             ....  322

ORBITAL ENERGIES
----------------

  NO   OCC          E(Eh)            E(eV)
   0   2.0000     -88.967532     -2420.9296
   1   2.0000     -88.962120     -2420.7824
   2   2.0000     -10.318882      -280.7911
   3   2.0000     -10.315011      -280.6857
   4   2.0000     -10.306934      -280.4659
   5   2.0000     -10.304677      -280.4045
   6   2.0000     -10.298021      -280.2234
   7   2.0000     -10.295303      -280.1494
   8   2.0000     -10.294570      -280.1295
   9   2.0000     -10.290416      -280.0165
  10   2.0000     -10.290217      -280.0110
  11   2.0000     -10.284992      -279.8689
  12   2.0000     -10.284612      -279.8585
  13   2.0000     -10.284427      -279.8535
  14   2.0000     -10.284221      -279.8479
  15   2.0000     -10.265534      -279.3394
  16   2.0000      -8.083973      -219.9761
  17   2.0000      -8.077511      -219.8003
  18   2.0000      -6.042056      -164.4127
  19   2.0000      -6.038236      -164.3087
  20   2.0000      -6.035967      -164.2470
  21   2.0000      -6.035103      -164.2235
  22   2.0000      -6.032275      -164.1465
  23   2.0000      -6.027938      -164.0285
  24   2.0000      -1.015015       -27.6200
  25   2.0000      -0.990272       -26.9467
  26   2.0000      -0.914551       -24.8862
  27   2.0000      -0.911626       -24.8066
  28   2.0000      -0.870522       -23.6881
  29   2.0000      -0.856821       -23.3153
  30   2.0000      -0.846220       -23.0268
  31   2.0000      -0.817182       -22.2367
  32   2.0000      -0.785763       -21.3817
  33   2.0000      -0.769045       -20.9268
  34   2.0000      -0.706930       -19.2366
  35   2.0000      -0.698001       -18.9936
  36   2.0000      -0.688108       -18.7244
  37   2.0000      -0.668820       -18.1995
  38   2.0000      -0.644848       -17.5472
  39   2.0000      -0.616618       -16.7790
  40   2.0000      -0.597121       -16.2485
  41   2.0000      -0.574889       -15.6435
  42   2.0000      -0.567581       -15.4447
  43   2.0000      -0.554937       -15.1006
  44   2.0000      -0.527996       -14.3675
  45   2.0000      -0.524234       -14.2651
  46   2.0000      -0.519405       -14.1337
  47   2.0000      -0.511764       -13.9258
  48   2.0000      -0.507292       -13.8041
  49   2.0000      -0.503563       -13.7026
  50   2.0000      -0.495521       -13.4838
  51   2.0000      -0.477245       -12.9865
  52   2.0000      -0.470383       -12.7998
  53   2.0000      -0.463410       -12.6100
  54   2.0000      -0.460892       -12.5415
  55   2.0000      -0.457824       -12.4580
  56   2.0000      -0.449389       -12.2285
  57   2.0000      -0.441951       -12.0261
  58   2.0000      -0.433187       -11.7876
  59   2.0000      -0.427808       -11.6413
  60   2.0000      -0.425557       -11.5800
  61   2.0000      -0.416270       -11.3273
  62   2.0000      -0.406763       -11.0686
  63   2.0000      -0.341453        -9.2914
  64   2.0000      -0.327849        -8.9212
  65   2.0000      -0.320799        -8.7294
  66   2.0000      -0.299279        -8.1438
  67   0.0000       0.044319         1.2060
  68   0.0000       0.058493         1.5917
  69   0.0000       0.109654         2.9838
  70   0.0000       0.127305         3.4641
  71   0.0000       0.131934         3.5901

MULLIKEN ATOMIC CHARGES
-----------------------
   0 S :    0.106070
   1 C :   -0.081755
   2 C :   -0.107363
   3 C :    0.042622
   4 C :   -0.171631
   5 H :    0.027489
   6 C :    0.135074
   7 H :   -0.004897
   8 H :    0.016235
   9 C :   -0.111530
  10 H :    0.028311
  11 H :    0.031761
  12 C :   -0.041090
  13 H :    0.034981
  14 H :    0.048554
  15 H :    0.028957
  16 S :    0.146943
  17 C :   -0.079806
  18 C :   -0.015009
  19 C :   -0.038790
  20 C :   -0.214402
  21 H :   -0.003036
  22 C :    0.083952
  23 H :    0.042973
  24 H :    0.025425
  25 C :   -0.102228
  26 H :    0.019530
  27 H :    0.032794
  28 C :    0.015644
  29 H :    0.015724
  30 H :    0.026121
  31 H :    0.014223
  32 H :    0.010310
  33 H :    0.037843
Sum of atomic charges:    0.0000000

LOEWDIN ATOMIC CHARGES
----------------------
   0 S :    0.399011
   1 C :   -0.180561
   2 C :   -0.054368
   3 C :   -0.062576
   4 C :   -0.198983
   5 H :    0.033830
   6 C :   -0.024915
   7 H :    0.023733
   8 H :    0.023631
   9 C :   -0.042741
  10 H :    0.021171
  11 H :    0.026492
  12 C :   -0.065501
  13 H :    0.025682
  14 H :    0.033573
  15 H :    0.025041
  16 S :    0.462356
  17 C :   -0.192723
  18 C :   -0.065511
  19 C :   -0.053630
  20 C :   -0.236500
  21 H :    0.024454
  22 C :   -0.033791
  23 H :    0.041578
  24 H :    0.033199
  25 C :   -0.038367
  26 H :    0.016708
  27 H :    0.031081
  28 C :   -0.052435
  29 H :    0.019037
  30 H :    0.019139
  31 H :    0.019677
  32 H :    0.009235
  33 H :    0.013973

  Mayer bond orders larger than 0.100000
B(  0-S ,  1-C ) :   1.1155 B(  0-S ,  4-C ) :   1.1534 B(  1-C ,  2-C ) :   1.6579
B(  1-C , 32-H ) :   0.9702 B(  2-C ,  3-C ) :   1.1880 B(  2-C ,  6-C ) :   1.0308
B(  3-C ,  4-C ) :   1.6317 B(  3-C ,  5-H ) :   0.9852 B(  4-C , 20-C ) :   0.9932
B(  6-C ,  7-H ) :   0.9287 B(  6-C ,  8-H ) :   0.9287 B(  6-C ,  9-C ) :   1.0626
B(  9-C , 10-H ) :   0.9568 B(  9-C , 11-H ) :   0.9555 B(  9-C , 12-C ) :   1.0775
B( 12-C , 13-H ) :   0.9762 B( 12-C , 14-H ) :   0.9741 B( 12-C , 15-H ) :   0.9746
B( 16-S , 17-C ) :   1.1875 B( 16-S , 20-C ) :   1.2006 B( 17-C , 18-C ) :   1.5523
B( 17-C , 20-C ) :   0.1103 B( 17-C , 33-H ) :   0.9708 B( 18-C , 19-C ) :   1.3044
B( 18-C , 21-H ) :   0.9974 B( 19-C , 20-C ) :   1.5413 B( 19-C , 22-C ) :   1.0481
B( 22-C , 23-H ) :   0.9208 B( 22-C , 24-H ) :   0.9334 B( 22-C , 25-C ) :   1.0698
B( 25-C , 26-H ) :   0.9579 B( 25-C , 27-H ) :   0.9517 B( 25-C , 28-C ) :   1.0844
B( 28-C , 29-H ) :   0.9731 B( 28-C , 30-H ) :   0.9751 B( 28-C , 31-H ) :   0.9728

Dispersion correction           -0.014135561
FINAL SINGLE POINT ENERGY     -1339.865893499718

DIPOLE MOMENT
-------------
                                X             Y             Z
Electronic contribution:      4.19925      26.45152       8.63153
Nuclear contribution   :     -4.16434     -26.91936      -8.92772
                        -----------------------------------------
Total Dipole Moment    :      0.03491      -0.46784      -0.29619
                        -----------------------------------------
Magnitude (a.u.)       :      0.55482
Magnitude (Debye)      :      1.41024

Rotational constants in cm-1:     0.017804     0.008525     0.006891
Rotational constants in MHz :   533.735878   255.587945   206.587898

                             ****ORCA TERMINATED NORMALLY****
TOTAL RUN TIME: 0 days 0 hours 0 minutes 22 seconds 752 msec
