                         Program Version 4.2.1 -  RELEASE  -
|  1> ! wB97X-D3 SP def2-SVP
|  2> %pal
|  3> nprocs 24
|  4> end
|  5>
|  6> * xyz 0 1
|  7> S 	 -126.426 	 60.5786 	 -57.1735
|  8> C 	 -125.944 	 60.9824 	 -58.8383
|  9> C 	 -126.122 	 62.3382 	 -59.1107
| 10> C 	 -126.696 	 63.0314 	 -58.016
| 11> C 	 -127.071 	 62.1948 	 -56.9623
| 12> H 	 -126.938 	 64.0626 	 -57.9668
| 13> C 	 -125.761 	 62.9676 	 -60.4736
| 14> H 	 -126.44 	 62.5112 	 -61.1526
| 15> H 	 -124.872 	 62.5013 	 -60.8643
| 16> C 	 -125.692 	 64.5139 	 -60.6186
| 17> H 	 -125.517 	 64.7839 	 -61.6685
| 18> H 	 -126.707 	 65.003 	 -60.47
| 19> C 	 -124.446 	 65.0679 	 -59.8421
| 20> H 	 -123.646 	 64.6541 	 -60.4422
| 21> H 	 -124.501 	 66.1418 	 -59.7422
| 22> H 	 -124.369 	 64.689 	 -58.8346
| 23> S 	 -126.953 	 62.52 	 -54.2559
| 24> C 	 -128.304 	 62.9862 	 -53.3451
| 25> C 	 -129.405 	 63.1655 	 -54.1438
| 26> C 	 -129.076 	 62.919 	 -55.5067
| 27> C 	 -127.762 	 62.6021 	 -55.7251
| 28> H 	 -130.285 	 63.652 	 -53.7785
| 29> C 	 -130.101 	 62.8786 	 -56.6601
| 30> H 	 -130.824 	 62.1282 	 -56.3681
| 31> H 	 -129.606 	 62.5524 	 -57.6523
| 32> C 	 -130.868 	 64.1607 	 -56.9181
| 33> H 	 -130.138 	 64.9355 	 -57.2389
| 34> H 	 -131.359 	 64.4776 	 -56.0259
| 35> C 	 -132.042 	 64.0652 	 -57.9063
| 36> H 	 -132.892 	 63.4201 	 -57.6082
| 37> H 	 -131.649 	 63.7039 	 -58.8899
| 38> H 	 -132.619 	 64.9622 	 -58.1727
| 39> H 	 -125.651 	 60.2411 	 -59.6208
| 40> H 	 -128.321 	 63.2749 	 -52.2868
| 41> *
| 42>
| 43>                          ****END OF INPUT****

CARTESIAN COORDINATES (ANGSTROEM)
---------------------------------
  S    -126.426000   60.578600  -57.173500
  C    -125.944000   60.982400  -58.838300
  C    -126.122000   62.338200  -59.110700
  C    -126.696000   63.031400  -58.016000
  C    -127.071000   62.194800  -56.962300
  H    -126.938000   64.062600  -57.966800
  C    -125.761000   62.967600  -60.473600
  H    -126.440000   62.511200  -61.152600
  H    -124.872000   62.501300  -60.864300
  C    -125.692000   64.513900  -60.618600
  H    -125.517000   64.783900  -61.668500
  H    -126.707000   65.003000  -60.470000
  C    -124.446000   65.067900  -59.842100
  H    -123.646000   64.654100  -60.442200
  H    -124.501000   66.141800  -59.742200
  H    -124.369000   64.689000  -58.834600
  S    -126.953000   62.520000  -54.255900
  C    -128.304000   62.986200  -53.345100
  C    -129.405000   63.165500  -54.143800
  C    -129.076000   62.919000  -55.506700
  C    -127.762000   62.602100  -55.725100
  H    -130.285000   63.652000  -53.778500
  C    -130.101000   62.878600  -56.660100
  H    -130.824000   62.128200  -56.368100
  H    -129.606000   62.552400  -57.652300
  C    -130.868000   64.160700  -56.918100
  H    -130.138000   64.935500  -57.238900
  H    -131.359000   64.477600  -56.025900
  C    -132.042000   64.065200  -57.906300
  H    -132.892000   63.420100  -57.608200
  H    -131.649000   63.703900  -58.889900
  H    -132.619000   64.962200  -58.172700
  H    -125.651000   60.241100  -59.620800
  H    -128.321000   63.274900  -52.286800

 Total Charge           Charge          ....    0
 Multiplicity           Mult            ....    1
 Number of Electrons    NEL             ....  134
 Basis Dimension        Dim             ....  322

ORBITAL ENERGIES
----------------

  NO   OCC          E(Eh)            E(eV)
   0   2.0000     -88.968940     -2420.9679
   1   2.0000     -88.962952     -2420.8050
   2   2.0000     -10.331437      -281.1327
   3   2.0000     -10.317922      -280.7649
   4   2.0000     -10.317247      -280.7466
   5   2.0000     -10.313241      -280.6376
   6   2.0000     -10.305384      -280.4238
   7   2.0000     -10.299365      -280.2600
   8   2.0000     -10.299099      -280.2527
   9   2.0000     -10.293443      -280.0988
  10   2.0000     -10.293304      -280.0950
  11   2.0000     -10.291266      -280.0396
  12   2.0000     -10.289906      -280.0026
  13   2.0000     -10.284097      -279.8445
  14   2.0000     -10.281223      -279.7663
  15   2.0000     -10.278847      -279.7016
  16   2.0000      -8.082860      -219.9458
  17   2.0000      -8.080151      -219.8721
  18   2.0000      -6.041331      -164.3930
  19   2.0000      -6.038467      -164.3150
  20   2.0000      -6.037506      -164.2889
  21   2.0000      -6.034158      -164.1978
  22   2.0000      -6.033683      -164.1849
  23   2.0000      -6.031105      -164.1147
  24   2.0000      -1.017329       -27.6829
  25   2.0000      -0.985953       -26.8291
  26   2.0000      -0.907132       -24.6843
  27   2.0000      -0.905849       -24.6494
  28   2.0000      -0.869382       -23.6571
  29   2.0000      -0.849553       -23.1175
  30   2.0000      -0.843986       -22.9660
  31   2.0000      -0.817788       -22.2531
  32   2.0000      -0.782881       -21.3033
  33   2.0000      -0.770552       -20.9678
  34   2.0000      -0.708700       -19.2847
  35   2.0000      -0.694594       -18.9009
  36   2.0000      -0.690499       -18.7894
  37   2.0000      -0.659186       -17.9374
  38   2.0000      -0.639696       -17.4070
  39   2.0000      -0.623401       -16.9636
  40   2.0000      -0.595146       -16.1948
  41   2.0000      -0.571227       -15.5439
  42   2.0000      -0.565098       -15.3771
  43   2.0000      -0.553409       -15.0590
  44   2.0000      -0.536850       -14.6084
  45   2.0000      -0.521281       -14.1848
  46   2.0000      -0.512162       -13.9366
  47   2.0000      -0.511361       -13.9148
  48   2.0000      -0.506629       -13.7861
  49   2.0000      -0.496090       -13.4993
  50   2.0000      -0.485511       -13.2114
  51   2.0000      -0.484414       -13.1816
  52   2.0000      -0.467808       -12.7297
  53   2.0000      -0.465041       -12.6544
  54   2.0000      -0.460588       -12.5332
  55   2.0000      -0.451862       -12.2958
  56   2.0000      -0.446280       -12.1439
  57   2.0000      -0.433801       -11.8043
  58   2.0000      -0.429134       -11.6773
  59   2.0000      -0.423368       -11.5204
  60   2.0000      -0.418717       -11.3939
  61   2.0000      -0.418119       -11.3776
  62   2.0000      -0.410676       -11.1751
  63   2.0000      -0.339758        -9.2453
  64   2.0000      -0.331921        -9.0320
  65   2.0000      -0.328657        -8.9432
  66   2.0000      -0.298902        -8.1336
  67   0.0000       0.039747         1.0816
  68   0.0000       0.061576         1.6756
  69   0.0000       0.116752         3.1770
  70   0.0000       0.125454         3.4138
  71   0.0000       0.132512         3.6058

MULLIKEN ATOMIC CHARGES
-----------------------
   0 S :    0.125172
   1 C :   -0.153413
   2 C :   -0.075583
   3 C :    0.046819
   4 C :   -0.173403
   5 H :    0.002838
   6 C :    0.079989
   7 H :    0.023118
   8 H :    0.010496
   9 C :   -0.097198
  10 H :    0.030351
  11 H :    0.039903
  12 C :   -0.036549
  13 H :    0.034035
  14 H :    0.040661
  15 H :    0.038829
  16 S :    0.126228
  17 C :   -0.100142
  18 C :   -0.032341
  19 C :   -0.030050
  20 C :   -0.174078
  21 H :    0.017992
  22 C :    0.051750
  23 H :    0.025640
  24 H :    0.050368
  25 C :   -0.063969
  26 H :    0.033873
  27 H :    0.017170
  28 C :   -0.075074
  29 H :    0.030369
  30 H :    0.026421
  31 H :    0.032533
  32 H :    0.062875
  33 H :    0.064369
Sum of atomic charges:    0.0000000

LOEWDIN ATOMIC CHARGES
----------------------
   0 S :    0.400411
   1 C :   -0.203858
   2 C :   -0.057901
   3 C :   -0.059422
   4 C :   -0.189709
   5 H :    0.027175
   6 C :   -0.035235
   7 H :    0.031826
   8 H :    0.029271
   9 C :   -0.048691
  10 H :    0.028123
  11 H :    0.026693
  12 C :   -0.059039
  13 H :    0.029531
  14 H :    0.026308
  15 H :    0.023967
  16 S :    0.459237
  17 C :   -0.203373
  18 C :   -0.075527
  19 C :   -0.056709
  20 C :   -0.233469
  21 H :    0.029768
  22 C :   -0.032988
  23 H :    0.029491
  24 H :    0.039986
  25 C :   -0.045320
  26 H :    0.027969
  27 H :    0.016945
  28 C :   -0.078422
  29 H :    0.026693
  30 H :    0.024523
  31 H :    0.028005
  32 H :    0.037066
  33 H :    0.036675

  Mayer bond orders larger than 0.100000
B(  0-S ,  1-C ) :   1.1347 B(  0-S ,  4-C ) :   1.1642 B(  1-C ,  2-C ) :   1.6109
B(  1-C ,  4-C ) :   0.1080 B(  1-C , 32-H ) :   0.9644 B(  2-C ,  3-C ) :   1.2507
B(  2-C ,  6-C ) :   0.9942 B(  3-C ,  4-C ) :   1.5621 B(  3-C ,  5-H ) :   0.9981
B(  4-C , 20-C ) :   1.0002 B(  6-C ,  7-H ) :   0.9299 B(  6-C ,  8-H ) :   0.9384
B(  6-C ,  9-C ) :   1.0806 B(  9-C , 10-H ) :   0.9561 B(  9-C , 11-H ) :   0.9534
B(  9-C , 12-C ) :   1.0479 B( 12-C , 13-H ) :   0.9760 B( 12-C , 14-H ) :   0.9765
B( 12-C , 15-H ) :   0.9833 B( 16-S , 17-C ) :   1.1881 B( 16-S , 20-C ) :   1.1642
B( 17-C , 18-C ) :   1.5851 B( 17-C , 33-H ) :   0.9625 B( 18-C , 19-C ) :   1.2661
B( 18-C , 21-H ) :   0.9926 B( 19-C , 20-C ) :   1.6006 B( 19-C , 22-C ) :   1.0307
B( 22-C , 23-H ) :   0.9346 B( 22-C , 24-H ) :   0.9347 B( 22-C , 25-C ) :   1.0658
B( 25-C , 26-H ) :   0.9543 B( 25-C , 27-H ) :   0.9550 B( 25-C , 28-C ) :   1.0787
B( 28-C , 29-H ) :   0.9734 B( 28-C , 30-H ) :   0.9748 B( 28-C , 31-H ) :   0.9751

Dispersion correction           -0.014186586
FINAL SINGLE POINT ENERGY     -1339.875545205424

DIPOLE MOMENT
-------------
                                X             Y             Z
Electronic contribution:      9.68168     -16.33234      20.10081
Nuclear contribution   :     -9.94214      16.74344     -20.54725
                        -----------------------------------------
Total Dipole Moment    :     -0.26046       0.41110      -0.44645
                        -----------------------------------------
Magnitude (a.u.)       :      0.66042
Magnitude (Debye)      :      1.67865

Rotational constants in cm-1:     0.016101     0.009101     0.007245
Rotational constants in MHz :   482.696745   272.841150   217.187876

                             ****ORCA TERMINATED NORMALLY****
TOTAL RUN TIME: 0 days 0 hours 0 minutes 21 seconds 583 msec
