                         Program Version 4.2.1 -  RELEASE  -
|  1> ! wB97X-D3 SP def2-SVP
|  2> %pal
|  3> nprocs 24
|  4> end
|  5>
|  6> * xyz 0 1
|  7> S 	 -53.043 	 20.8265 	 30.4521
|  8> C 	 -51.8975 	 22.1493 	 30.8051
|  9> C 	 -51.136 	 21.8416 	 31.895
| 10> C 	 -51.2574 	 20.4629 	 32.2165
| 11> C 	 -52.1133 	 19.7318 	 31.4063
| 12> H 	 -50.6454 	 19.9088 	 32.888
| 13> C 	 -50.237 	 22.7798 	 32.6893
| 14> H 	 -49.9805 	 22.3396 	 33.7266
| 15> H 	 -50.8045 	 23.7296 	 32.8483
| 16> C 	 -48.8925 	 23.1529 	 32.1047
| 17> H 	 -49.0244 	 23.8533 	 31.2669
| 18> H 	 -48.3992 	 23.7421 	 32.8747
| 19> C 	 -48.1022 	 21.8152 	 31.6619
| 20> H 	 -47.0577 	 22.0218 	 31.3368
| 21> H 	 -48.1436 	 21.0416 	 32.4585
| 22> H 	 -48.5638 	 21.2562 	 30.886
| 23> S 	 -54.0361 	 17.893 	 31.7246
| 24> C 	 -53.6437 	 16.1738 	 31.8559
| 25> C 	 -52.2687 	 15.9565 	 31.7021
| 26> C 	 -51.5137 	 17.1554 	 31.5379
| 27> C 	 -52.3425 	 18.2771 	 31.492
| 28> H 	 -51.933 	 14.9346 	 31.6585
| 29> C 	 -49.9666 	 17.1205 	 31.4241
| 30> H 	 -49.6343 	 18.0944 	 31.0567
| 31> H 	 -49.7612 	 16.3858 	 30.683
| 32> C 	 -49.2269 	 16.9649 	 32.7427
| 33> H 	 -49.5801 	 16.147 	 33.3413
| 34> H 	 -49.5663 	 17.8512 	 33.3027
| 35> C 	 -47.6329 	 16.7979 	 32.6732
| 36> H 	 -47.3713 	 15.8217 	 32.4043
| 37> H 	 -47.1056 	 16.9499 	 33.5709
| 38> H 	 -47.1605 	 17.4992 	 31.9586
| 39> H 	 -51.9671 	 23.0833 	 30.2705
| 40> H 	 -54.2512 	 15.3658 	 32.2758
| 41> *
| 42>
| 43>                          ****END OF INPUT****

CARTESIAN COORDINATES (ANGSTROEM)
---------------------------------
  S    -53.043000   20.826500   30.452100
  C    -51.897500   22.149300   30.805100
  C    -51.136000   21.841600   31.895000
  C    -51.257400   20.462900   32.216500
  C    -52.113300   19.731800   31.406300
  H    -50.645400   19.908800   32.888000
  C    -50.237000   22.779800   32.689300
  H    -49.980500   22.339600   33.726600
  H    -50.804500   23.729600   32.848300
  C    -48.892500   23.152900   32.104700
  H    -49.024400   23.853300   31.266900
  H    -48.399200   23.742100   32.874700
  C    -48.102200   21.815200   31.661900
  H    -47.057700   22.021800   31.336800
  H    -48.143600   21.041600   32.458500
  H    -48.563800   21.256200   30.886000
  S    -54.036100   17.893000   31.724600
  C    -53.643700   16.173800   31.855900
  C    -52.268700   15.956500   31.702100
  C    -51.513700   17.155400   31.537900
  C    -52.342500   18.277100   31.492000
  H    -51.933000   14.934600   31.658500
  C    -49.966600   17.120500   31.424100
  H    -49.634300   18.094400   31.056700
  H    -49.761200   16.385800   30.683000
  C    -49.226900   16.964900   32.742700
  H    -49.580100   16.147000   33.341300
  H    -49.566300   17.851200   33.302700
  C    -47.632900   16.797900   32.673200
  H    -47.371300   15.821700   32.404300
  H    -47.105600   16.949900   33.570900
  H    -47.160500   17.499200   31.958600
  H    -51.967100   23.083300   30.270500
  H    -54.251200   15.365800   32.275800

 Total Charge           Charge          ....    0
 Multiplicity           Mult            ....    1
 Number of Electrons    NEL             ....  134
 Basis Dimension        Dim             ....  322

ORBITAL ENERGIES
----------------

  NO   OCC          E(Eh)            E(eV)
   0   2.0000     -88.968294     -2420.9504
   1   2.0000     -88.964796     -2420.8552
   2   2.0000     -10.332399      -281.1589
   3   2.0000     -10.329453      -281.0787
   4   2.0000     -10.319935      -280.8197
   5   2.0000     -10.315670      -280.7036
   6   2.0000     -10.309727      -280.5419
   7   2.0000     -10.302987      -280.3585
   8   2.0000     -10.301542      -280.3192
   9   2.0000     -10.296528      -280.1828
  10   2.0000     -10.294852      -280.1372
  11   2.0000     -10.293455      -280.0991
  12   2.0000     -10.292289      -280.0674
  13   2.0000     -10.289845      -280.0009
  14   2.0000     -10.284229      -279.8481
  15   2.0000     -10.278735      -279.6986
  16   2.0000      -8.082674      -219.9407
  17   2.0000      -8.079749      -219.8612
  18   2.0000      -6.041216      -164.3898
  19   2.0000      -6.038382      -164.3127
  20   2.0000      -6.037234      -164.2815
  21   2.0000      -6.034341      -164.2028
  22   2.0000      -6.033405      -164.1773
  23   2.0000      -6.030250      -164.0914
  24   2.0000      -1.008030       -27.4299
  25   2.0000      -0.983755       -26.7693
  26   2.0000      -0.910635       -24.7796
  27   2.0000      -0.904998       -24.6262
  28   2.0000      -0.866375       -23.5753
  29   2.0000      -0.847485       -23.0612
  30   2.0000      -0.839723       -22.8500
  31   2.0000      -0.812166       -22.1002
  32   2.0000      -0.786405       -21.3992
  33   2.0000      -0.778085       -21.1728
  34   2.0000      -0.709321       -19.3016
  35   2.0000      -0.706394       -19.2220
  36   2.0000      -0.695193       -18.9172
  37   2.0000      -0.663964       -18.0674
  38   2.0000      -0.642543       -17.4845
  39   2.0000      -0.613260       -16.6877
  40   2.0000      -0.590272       -16.0621
  41   2.0000      -0.571648       -15.5553
  42   2.0000      -0.565820       -15.3967
  43   2.0000      -0.549096       -14.9417
  44   2.0000      -0.536223       -14.5914
  45   2.0000      -0.520803       -14.1718
  46   2.0000      -0.513837       -13.9822
  47   2.0000      -0.509322       -13.8594
  48   2.0000      -0.508052       -13.8248
  49   2.0000      -0.498440       -13.5632
  50   2.0000      -0.495538       -13.4843
  51   2.0000      -0.474085       -12.9005
  52   2.0000      -0.472154       -12.8480
  53   2.0000      -0.466941       -12.7061
  54   2.0000      -0.457975       -12.4621
  55   2.0000      -0.453190       -12.3319
  56   2.0000      -0.442634       -12.0447
  57   2.0000      -0.438262       -11.9257
  58   2.0000      -0.436148       -11.8682
  59   2.0000      -0.423557       -11.5256
  60   2.0000      -0.422334       -11.4923
  61   2.0000      -0.420132       -11.4324
  62   2.0000      -0.414530       -11.2799
  63   2.0000      -0.347888        -9.4665
  64   2.0000      -0.333650        -9.0791
  65   2.0000      -0.330628        -8.9968
  66   2.0000      -0.289534        -7.8786
  67   0.0000       0.028061         0.7636
  68   0.0000       0.060098         1.6353
  69   0.0000       0.096364         2.6222
  70   0.0000       0.119546         3.2530
  71   0.0000       0.126760         3.4493

MULLIKEN ATOMIC CHARGES
-----------------------
   0 S :    0.100051
   1 C :   -0.142657
   2 C :   -0.024489
   3 C :    0.029570
   4 C :   -0.138052
   5 H :   -0.018731
   6 C :    0.000945
   7 H :    0.044760
   8 H :    0.041242
   9 C :   -0.043564
  10 H :    0.029820
  11 H :    0.034613
  12 C :   -0.077144
  13 H :    0.046597
  14 H :    0.022920
  15 H :    0.040465
  16 S :    0.102929
  17 C :   -0.097850
  18 C :   -0.055022
  19 C :   -0.045483
  20 C :   -0.158618
  21 H :    0.021259
  22 C :    0.103449
  23 H :    0.019253
  24 H :    0.023200
  25 C :   -0.078514
  26 H :    0.022950
  27 H :    0.023936
  28 C :   -0.014956
  29 H :    0.019642
  30 H :    0.023042
  31 H :    0.029008
  32 H :    0.047406
  33 H :    0.068021
Sum of atomic charges:   -0.0000000

LOEWDIN ATOMIC CHARGES
----------------------
   0 S :    0.394452
   1 C :   -0.177286
   2 C :   -0.063535
   3 C :   -0.064643
   4 C :   -0.201022
   5 H :    0.019760
   6 C :   -0.040578
   7 H :    0.040029
   8 H :    0.036485
   9 C :   -0.036311
  10 H :    0.021808
  11 H :    0.025851
  12 C :   -0.072105
  13 H :    0.029816
  14 H :    0.025070
  15 H :    0.022875
  16 S :    0.402115
  17 C :   -0.191807
  18 C :   -0.066371
  19 C :   -0.056469
  20 C :   -0.187466
  21 H :    0.031656
  22 C :   -0.023794
  23 H :    0.030374
  24 H :    0.025036
  25 C :   -0.037781
  26 H :    0.018959
  27 H :    0.023621
  28 C :   -0.059334
  29 H :    0.018626
  30 H :    0.022551
  31 H :    0.027839
  32 H :    0.025250
  33 H :    0.036327

  Mayer bond orders larger than 0.100000
B(  0-S ,  1-C ) :   1.1301 B(  0-S ,  4-C ) :   1.1523 B(  1-C ,  2-C ) :   1.6018
B(  1-C , 32-H ) :   0.9792 B(  2-C ,  3-C ) :   1.2251 B(  2-C ,  6-C ) :   1.0103
B(  3-C ,  4-C ) :   1.5683 B(  3-C ,  5-H ) :   1.0045 B(  4-C , 20-C ) :   1.0203
B(  6-C ,  7-H ) :   0.9477 B(  6-C ,  8-H ) :   0.9390 B(  6-C ,  9-C ) :   1.0840
B(  9-C , 10-H ) :   0.9566 B(  9-C , 11-H ) :   0.9587 B(  9-C , 12-C ) :   1.0516
B( 12-C , 13-H ) :   0.9776 B( 12-C , 14-H ) :   0.9767 B( 12-C , 15-H ) :   0.9731
B( 16-S , 17-C ) :   1.1440 B( 16-S , 20-C ) :   1.1514 B( 17-C , 18-C ) :   1.6281
B( 17-C , 20-C ) :   0.1037 B( 17-C , 33-H ) :   0.9614 B( 18-C , 19-C ) :   1.2285
B( 18-C , 21-H ) :   0.9891 B( 19-C , 20-C ) :   1.6109 B( 19-C , 22-C ) :   1.0385
B( 22-C , 23-H ) :   0.9311 B( 22-C , 24-H ) :   0.9378 B( 22-C , 25-C ) :   1.0566
B( 25-C , 26-H ) :   0.9594 B( 25-C , 27-H ) :   0.9538 B( 25-C , 28-C ) :   1.0664
B( 28-C , 29-H ) :   0.9763 B( 28-C , 30-H ) :   0.9764 B( 28-C , 31-H ) :   0.9778

Dispersion correction           -0.015054857
FINAL SINGLE POINT ENERGY     -1339.865612295542

DIPOLE MOMENT
-------------
                                X             Y             Z
Electronic contribution:    -30.93029      -1.92906      -7.56553
Nuclear contribution   :     31.59348       1.87977       7.87305
                        -----------------------------------------
Total Dipole Moment    :      0.66319      -0.04929       0.30751
                        -----------------------------------------
Magnitude (a.u.)       :      0.73267
Magnitude (Debye)      :      1.86231

Rotational constants in cm-1:     0.016399     0.010481     0.006806
Rotational constants in MHz :   491.619091   314.200255   204.031678

                             ****ORCA TERMINATED NORMALLY****
TOTAL RUN TIME: 0 days 0 hours 0 minutes 22 seconds 154 msec
