                         Program Version 4.2.1 -  RELEASE  -
|  1> ! wB97X-D3 SP def2-SVP
|  2> %pal
|  3> nprocs 24
|  4> end
|  5>
|  6> * xyz 0 1
|  7> S 	 -80.8803 	 -42.8172 	 -85.0246
|  8> C 	 -80.6605 	 -42.0308 	 -83.4176
|  9> C 	 -81.06 	 -42.8476 	 -82.3897
| 10> C 	 -81.6165 	 -44.1022 	 -82.8906
| 11> C 	 -81.6352 	 -44.1801 	 -84.2705
| 12> H 	 -81.9011 	 -44.9545 	 -82.3498
| 13> C 	 -81.2273 	 -42.424 	 -80.9048
| 14> H 	 -82.0852 	 -41.779 	 -81.0029
| 15> H 	 -80.3506 	 -41.7768 	 -80.6901
| 16> C 	 -81.438 	 -43.5152 	 -79.7916
| 17> H 	 -82.1834 	 -44.1658 	 -80.322
| 18> H 	 -80.4797 	 -44.0494 	 -79.685
| 19> C 	 -81.8671 	 -43.005 	 -78.4115
| 20> H 	 -80.8673 	 -42.6044 	 -77.9873
| 21> H 	 -82.62 	 -42.1982 	 -78.4868
| 22> H 	 -82.4279 	 -43.697 	 -77.8157
| 23> S 	 -83.5628 	 -46.0058 	 -85.1162
| 24> C 	 -83.0068 	 -47.3233 	 -86.1598
| 25> C 	 -81.6555 	 -47.2637 	 -86.3682
| 26> C 	 -81.0234 	 -46.2057 	 -85.7297
| 27> C 	 -81.8864 	 -45.4043 	 -85.0116
| 28> H 	 -81.1108 	 -47.9754 	 -87.0017
| 29> C 	 -79.4954 	 -45.9966 	 -85.6773
| 30> H 	 -79.1869 	 -45.1295 	 -85.1225
| 31> H 	 -79.2484 	 -45.5956 	 -86.6587
| 32> C 	 -78.4329 	 -47.1358 	 -85.4733
| 33> H 	 -77.4561 	 -46.6338 	 -85.4974
| 34> H 	 -78.4617 	 -47.9754 	 -86.2142
| 35> C 	 -78.4492 	 -47.7161 	 -84.1056
| 36> H 	 -77.6497 	 -48.4159 	 -83.9926
| 37> H 	 -79.3227 	 -48.2091 	 -83.8329
| 38> H 	 -78.2129 	 -47.0337 	 -83.2932
| 39> H 	 -80.168 	 -41.1361 	 -83.2251
| 40> H 	 -83.7094 	 -48.0148 	 -86.695
| 41> *
| 42>
| 43>                          ****END OF INPUT****

CARTESIAN COORDINATES (ANGSTROEM)
---------------------------------
  S    -80.880300  -42.817200  -85.024600
  C    -80.660500  -42.030800  -83.417600
  C    -81.060000  -42.847600  -82.389700
  C    -81.616500  -44.102200  -82.890600
  C    -81.635200  -44.180100  -84.270500
  H    -81.901100  -44.954500  -82.349800
  C    -81.227300  -42.424000  -80.904800
  H    -82.085200  -41.779000  -81.002900
  H    -80.350600  -41.776800  -80.690100
  C    -81.438000  -43.515200  -79.791600
  H    -82.183400  -44.165800  -80.322000
  H    -80.479700  -44.049400  -79.685000
  C    -81.867100  -43.005000  -78.411500
  H    -80.867300  -42.604400  -77.987300
  H    -82.620000  -42.198200  -78.486800
  H    -82.427900  -43.697000  -77.815700
  S    -83.562800  -46.005800  -85.116200
  C    -83.006800  -47.323300  -86.159800
  C    -81.655500  -47.263700  -86.368200
  C    -81.023400  -46.205700  -85.729700
  C    -81.886400  -45.404300  -85.011600
  H    -81.110800  -47.975400  -87.001700
  C    -79.495400  -45.996600  -85.677300
  H    -79.186900  -45.129500  -85.122500
  H    -79.248400  -45.595600  -86.658700
  C    -78.432900  -47.135800  -85.473300
  H    -77.456100  -46.633800  -85.497400
  H    -78.461700  -47.975400  -86.214200
  C    -78.449200  -47.716100  -84.105600
  H    -77.649700  -48.415900  -83.992600
  H    -79.322700  -48.209100  -83.832900
  H    -78.212900  -47.033700  -83.293200
  H    -80.168000  -41.136100  -83.225100
  H    -83.709400  -48.014800  -86.695000

 Total Charge           Charge          ....    0
 Multiplicity           Mult            ....    1
 Number of Electrons    NEL             ....  134
 Basis Dimension        Dim             ....  322

ORBITAL ENERGIES
----------------

  NO   OCC          E(Eh)            E(eV)
   0   2.0000     -88.968411     -2420.9535
   1   2.0000     -88.965366     -2420.8707
   2   2.0000     -10.325369      -280.9676
   3   2.0000     -10.323646      -280.9207
   4   2.0000     -10.320885      -280.8456
   5   2.0000     -10.311580      -280.5924
   6   2.0000     -10.307394      -280.4785
   7   2.0000     -10.300581      -280.2931
   8   2.0000     -10.299059      -280.2516
   9   2.0000     -10.297819      -280.2179
  10   2.0000     -10.291351      -280.0419
  11   2.0000     -10.290960      -280.0313
  12   2.0000     -10.290906      -280.0298
  13   2.0000     -10.290796      -280.0268
  14   2.0000     -10.288144      -279.9546
  15   2.0000     -10.259324      -279.1704
  16   2.0000      -8.082158      -219.9267
  17   2.0000      -8.079285      -219.8485
  18   2.0000      -6.040770      -164.3777
  19   2.0000      -6.037717      -164.2946
  20   2.0000      -6.036854      -164.2711
  21   2.0000      -6.033993      -164.1933
  22   2.0000      -6.032804      -164.1609
  23   2.0000      -6.030096      -164.0873
  24   2.0000      -1.003895       -27.3174
  25   2.0000      -0.979937       -26.6654
  26   2.0000      -0.906297       -24.6616
  27   2.0000      -0.903474       -24.5848
  28   2.0000      -0.870100       -23.6766
  29   2.0000      -0.853450       -23.2236
  30   2.0000      -0.843807       -22.9612
  31   2.0000      -0.813766       -22.1437
  32   2.0000      -0.785282       -21.3686
  33   2.0000      -0.774787       -21.0830
  34   2.0000      -0.709496       -19.3064
  35   2.0000      -0.696280       -18.9467
  36   2.0000      -0.689081       -18.7509
  37   2.0000      -0.660174       -17.9643
  38   2.0000      -0.638398       -17.3717
  39   2.0000      -0.613269       -16.6879
  40   2.0000      -0.597894       -16.2695
  41   2.0000      -0.570851       -15.5336
  42   2.0000      -0.560783       -15.2597
  43   2.0000      -0.549771       -14.9600
  44   2.0000      -0.541653       -14.7391
  45   2.0000      -0.522804       -14.2262
  46   2.0000      -0.519655       -14.1405
  47   2.0000      -0.512021       -13.9328
  48   2.0000      -0.505763       -13.7625
  49   2.0000      -0.496675       -13.5152
  50   2.0000      -0.485164       -13.2020
  51   2.0000      -0.476072       -12.9546
  52   2.0000      -0.470979       -12.8160
  53   2.0000      -0.467183       -12.7127
  54   2.0000      -0.453430       -12.3385
  55   2.0000      -0.451361       -12.2822
  56   2.0000      -0.442957       -12.0535
  57   2.0000      -0.433368       -11.7925
  58   2.0000      -0.428791       -11.6680
  59   2.0000      -0.423761       -11.5311
  60   2.0000      -0.419420       -11.4130
  61   2.0000      -0.415006       -11.2929
  62   2.0000      -0.411019       -11.1844
  63   2.0000      -0.338312        -9.2059
  64   2.0000      -0.334460        -9.1011
  65   2.0000      -0.326319        -8.8796
  66   2.0000      -0.297314        -8.0903
  67   0.0000       0.035783         0.9737
  68   0.0000       0.062453         1.6994
  69   0.0000       0.109846         2.9891
  70   0.0000       0.114326         3.1110
  71   0.0000       0.128594         3.4992

MULLIKEN ATOMIC CHARGES
-----------------------
   0 S :    0.107922
   1 C :   -0.108244
   2 C :   -0.061047
   3 C :    0.030824
   4 C :   -0.149370
   5 H :    0.003883
   6 C :    0.022562
   7 H :    0.048661
   8 H :    0.027439
   9 C :   -0.109406
  10 H :    0.043126
  11 H :    0.044484
  12 C :   -0.041370
  13 H :    0.054130
  14 H :    0.027552
  15 H :    0.039440
  16 S :    0.102527
  17 C :   -0.111991
  18 C :   -0.035997
  19 C :    0.009491
  20 C :   -0.200380
  21 H :    0.021073
  22 C :    0.069040
  23 H :    0.017147
  24 H :    0.020776
  25 C :   -0.066837
  26 H :    0.029059
  27 H :    0.036668
  28 C :   -0.015283
  29 H :    0.012465
  30 H :    0.019481
  31 H :    0.016068
  32 H :    0.019790
  33 H :    0.076316
Sum of atomic charges:   -0.0000000

LOEWDIN ATOMIC CHARGES
----------------------
   0 S :    0.401214
   1 C :   -0.180504
   2 C :   -0.052124
   3 C :   -0.059849
   4 C :   -0.198337
   5 H :    0.021994
   6 C :   -0.033991
   7 H :    0.035134
   8 H :    0.028161
   9 C :   -0.049685
  10 H :    0.026782
  11 H :    0.028577
  12 C :   -0.070794
  13 H :    0.042583
  14 H :    0.027140
  15 H :    0.027330
  16 S :    0.384855
  17 C :   -0.183675
  18 C :   -0.075764
  19 C :   -0.058113
  20 C :   -0.191277
  21 H :    0.036188
  22 C :   -0.039518
  23 H :    0.025413
  24 H :    0.034712
  25 C :   -0.038388
  26 H :    0.033996
  27 H :    0.026809
  28 C :   -0.066220
  29 H :    0.022220
  30 H :    0.014671
  31 H :    0.025359
  32 H :    0.015025
  33 H :    0.040078

  Mayer bond orders larger than 0.100000
B(  0-S ,  1-C ) :   1.1138 B(  0-S ,  4-C ) :   1.1412 B(  1-C ,  2-C ) :   1.6553
B(  1-C , 32-H ) :   0.9764 B(  2-C ,  3-C ) :   1.2030 B(  2-C ,  6-C ) :   0.9979
B(  3-C ,  4-C ) :   1.6099 B(  3-C ,  5-H ) :   0.9897 B(  4-C , 20-C ) :   1.0086
B(  6-C ,  7-H ) :   0.9466 B(  6-C ,  8-H ) :   0.9419 B(  6-C ,  9-C ) :   1.0542
B(  9-C , 10-H ) :   0.9485 B(  9-C , 11-H ) :   0.9639 B(  9-C , 12-C ) :   1.0734
B( 12-C , 13-H ) :   0.9750 B( 12-C , 14-H ) :   0.9748 B( 12-C , 15-H ) :   0.9737
B( 16-S , 17-C ) :   1.1515 B( 16-S , 20-C ) :   1.1371 B( 17-C , 18-C ) :   1.5982
B( 17-C , 20-C ) :   0.1023 B( 17-C , 33-H ) :   0.9605 B( 18-C , 19-C ) :   1.2617
B( 18-C , 21-H ) :   0.9876 B( 19-C , 20-C ) :   1.5993 B( 19-C , 22-C ) :   1.0223
B( 22-C , 23-H ) :   0.9306 B( 22-C , 24-H ) :   0.9226 B( 22-C , 25-C ) :   1.0837
B( 25-C , 26-H ) :   0.9471 B( 25-C , 27-H ) :   0.9545 B( 25-C , 28-C ) :   1.0907
B( 28-C , 29-H ) :   0.9691 B( 28-C , 30-H ) :   0.9755 B( 28-C , 31-H ) :   0.9687

Dispersion correction           -0.014134000
FINAL SINGLE POINT ENERGY     -1339.860114188907

DIPOLE MOMENT
-------------
                                X             Y             Z
Electronic contribution:    -13.69837       4.30860     -19.20720
Nuclear contribution   :     14.08424      -4.42602      19.57728
                        -----------------------------------------
Total Dipole Moment    :      0.38587      -0.11743       0.37008
                        -----------------------------------------
Magnitude (a.u.)       :      0.54739
Magnitude (Debye)      :      1.39136

Rotational constants in cm-1:     0.017837     0.007777     0.007352
Rotational constants in MHz :   534.746859   233.153038   220.402730

                             ****ORCA TERMINATED NORMALLY****
TOTAL RUN TIME: 0 days 0 hours 0 minutes 20 seconds 135 msec
