                         Program Version 4.2.1 -  RELEASE  -
|  1> ! wB97X-D3 SP def2-SVP
|  2> %pal
|  3> nprocs 24
|  4> end
|  5>
|  6> * xyz 0 1
|  7> S 	 -101.539 	 59.8958 	 -97.3907
|  8> C 	 -102.921 	 59.1431 	 -98.1588
|  9> C 	 -102.514 	 58.5275 	 -99.3485
| 10> C 	 -101.133 	 58.7404 	 -99.5936
| 11> C 	 -100.409 	 59.518 	 -98.7029
| 12> H 	 -100.603 	 58.2714 	 -100.412
| 13> C 	 -103.4 	 57.6073 	 -100.172
| 14> H 	 -103.337 	 56.5747 	 -99.8854
| 15> H 	 -102.864 	 57.5495 	 -101.087
| 16> C 	 -104.799 	 58.1107 	 -100.571
| 17> H 	 -105.4 	 58.185 	 -99.6683
| 18> H 	 -104.773 	 59.1747 	 -100.835
| 19> C 	 -105.506 	 57.2911 	 -101.649
| 20> H 	 -104.864 	 57.3812 	 -102.541
| 21> H 	 -105.8 	 56.2672 	 -101.391
| 22> H 	 -106.408 	 57.8548 	 -101.77
| 23> S 	 -98.3561 	 60.804 	 -100.018
| 24> C 	 -96.7485 	 60.6839 	 -99.3703
| 25> C 	 -96.7036 	 60.1476 	 -98.1073
| 26> C 	 -98.0244 	 59.7879 	 -97.6447
| 27> C 	 -98.9897 	 59.8467 	 -98.6789
| 28> H 	 -95.7215 	 60.0737 	 -97.6158
| 29> C 	 -98.1992 	 59.1907 	 -96.2153
| 30> H 	 -99.1497 	 58.8671 	 -96.2109
| 31> H 	 -98.1504 	 59.9878 	 -95.4303
| 32> C 	 -97.2629 	 58.0516 	 -95.8575
| 33> H 	 -97.5657 	 57.7481 	 -94.927
| 34> H 	 -96.2178 	 58.3676 	 -95.6916
| 35> C 	 -97.3892 	 56.9592 	 -96.8995
| 36> H 	 -97.0348 	 56.0907 	 -96.4118
| 37> H 	 -96.783 	 57.1017 	 -97.8462
| 38> H 	 -98.3832 	 56.6244 	 -97.0668
| 39> H 	 -103.885 	 58.9434 	 -97.6675
| 40> H 	 -95.8461 	 60.9762 	 -99.8273
| 41> *
| 42>
| 43>                          ****END OF INPUT****

CARTESIAN COORDINATES (ANGSTROEM)
---------------------------------
  S    -101.539000   59.895800  -97.390700
  C    -102.921000   59.143100  -98.158800
  C    -102.514000   58.527500  -99.348500
  C    -101.133000   58.740400  -99.593600
  C    -100.409000   59.518000  -98.702900
  H    -100.603000   58.271400  -100.412000
  C    -103.400000   57.607300  -100.172000
  H    -103.337000   56.574700  -99.885400
  H    -102.864000   57.549500  -101.087000
  C    -104.799000   58.110700  -100.571000
  H    -105.400000   58.185000  -99.668300
  H    -104.773000   59.174700  -100.835000
  C    -105.506000   57.291100  -101.649000
  H    -104.864000   57.381200  -102.541000
  H    -105.800000   56.267200  -101.391000
  H    -106.408000   57.854800  -101.770000
  S    -98.356100   60.804000  -100.018000
  C    -96.748500   60.683900  -99.370300
  C    -96.703600   60.147600  -98.107300
  C    -98.024400   59.787900  -97.644700
  C    -98.989700   59.846700  -98.678900
  H    -95.721500   60.073700  -97.615800
  C    -98.199200   59.190700  -96.215300
  H    -99.149700   58.867100  -96.210900
  H    -98.150400   59.987800  -95.430300
  C    -97.262900   58.051600  -95.857500
  H    -97.565700   57.748100  -94.927000
  H    -96.217800   58.367600  -95.691600
  C    -97.389200   56.959200  -96.899500
  H    -97.034800   56.090700  -96.411800
  H    -96.783000   57.101700  -97.846200
  H    -98.383200   56.624400  -97.066800
  H    -103.885000   58.943400  -97.667500
  H    -95.846100   60.976200  -99.827300

 Total Charge           Charge          ....    0
 Multiplicity           Mult            ....    1
 Number of Electrons    NEL             ....  134
 Basis Dimension        Dim             ....  322

ORBITAL ENERGIES
----------------

  NO   OCC          E(Eh)            E(eV)
   0   2.0000     -88.966593     -2420.9041
   1   2.0000     -88.964302     -2420.8417
   2   2.0000     -10.332140      -281.1518
   3   2.0000     -10.331689      -281.1395
   4   2.0000     -10.317424      -280.7514
   5   2.0000     -10.311433      -280.5884
   6   2.0000     -10.310270      -280.5567
   7   2.0000     -10.302049      -280.3330
   8   2.0000     -10.294057      -280.1155
   9   2.0000     -10.293195      -280.0921
  10   2.0000     -10.287070      -279.9254
  11   2.0000     -10.285671      -279.8873
  12   2.0000     -10.281755      -279.7808
  13   2.0000     -10.280784      -279.7544
  14   2.0000     -10.277867      -279.6750
  15   2.0000     -10.268050      -279.4078
  16   2.0000      -8.081158      -219.8995
  17   2.0000      -8.078195      -219.8189
  18   2.0000      -6.039734      -164.3495
  19   2.0000      -6.036716      -164.2674
  20   2.0000      -6.035778      -164.2419
  21   2.0000      -6.032670      -164.1573
  22   2.0000      -6.031765      -164.1327
  23   2.0000      -6.029112      -164.0605
  24   2.0000      -1.002247       -27.2725
  25   2.0000      -0.981826       -26.7168
  26   2.0000      -0.912920       -24.8418
  27   2.0000      -0.910941       -24.7880
  28   2.0000      -0.869771       -23.6677
  29   2.0000      -0.849230       -23.1087
  30   2.0000      -0.841874       -22.9085
  31   2.0000      -0.815280       -22.1849
  32   2.0000      -0.785361       -21.3708
  33   2.0000      -0.773171       -21.0390
  34   2.0000      -0.711851       -19.3705
  35   2.0000      -0.703922       -19.1547
  36   2.0000      -0.695728       -18.9317
  37   2.0000      -0.655711       -17.8428
  38   2.0000      -0.636105       -17.3093
  39   2.0000      -0.615028       -16.7358
  40   2.0000      -0.595852       -16.2140
  41   2.0000      -0.571754       -15.5582
  42   2.0000      -0.562200       -15.2982
  43   2.0000      -0.549777       -14.9602
  44   2.0000      -0.542393       -14.7593
  45   2.0000      -0.526031       -14.3140
  46   2.0000      -0.521534       -14.1917
  47   2.0000      -0.512813       -13.9543
  48   2.0000      -0.507057       -13.7977
  49   2.0000      -0.498646       -13.5688
  50   2.0000      -0.494488       -13.4557
  51   2.0000      -0.476304       -12.9609
  52   2.0000      -0.470569       -12.8048
  53   2.0000      -0.460248       -12.5240
  54   2.0000      -0.458289       -12.4707
  55   2.0000      -0.450776       -12.2663
  56   2.0000      -0.447233       -12.1698
  57   2.0000      -0.434337       -11.8189
  58   2.0000      -0.430093       -11.7034
  59   2.0000      -0.419883       -11.4256
  60   2.0000      -0.418150       -11.3785
  61   2.0000      -0.414696       -11.2845
  62   2.0000      -0.407872       -11.0988
  63   2.0000      -0.344054        -9.3622
  64   2.0000      -0.331765        -9.0278
  65   2.0000      -0.324979        -8.8431
  66   2.0000      -0.293077        -7.9750
  67   0.0000       0.025571         0.6958
  68   0.0000       0.071921         1.9571
  69   0.0000       0.107146         2.9156
  70   0.0000       0.116087         3.1589
  71   0.0000       0.138157         3.7594

MULLIKEN ATOMIC CHARGES
-----------------------
   0 S :    0.101607
   1 C :   -0.135873
   2 C :   -0.102262
   3 C :    0.026448
   4 C :   -0.147991
   5 H :    0.007332
   6 C :    0.109000
   7 H :    0.034931
   8 H :   -0.008615
   9 C :   -0.109895
  10 H :    0.016066
  11 H :    0.030441
  12 C :   -0.024836
  13 H :    0.040897
  14 H :    0.042019
  15 H :    0.029323
  16 S :    0.118910
  17 C :   -0.062909
  18 C :   -0.053739
  19 C :   -0.062154
  20 C :   -0.161391
  21 H :    0.031325
  22 C :    0.122459
  23 H :   -0.028314
  24 H :    0.038667
  25 C :   -0.037870
  26 H :    0.001829
  27 H :    0.025756
  28 C :   -0.023610
  29 H :    0.005693
  30 H :    0.057295
  31 H :    0.018054
  32 H :    0.067438
  33 H :    0.033971
Sum of atomic charges:    0.0000000

LOEWDIN ATOMIC CHARGES
----------------------
   0 S :    0.404524
   1 C :   -0.200558
   2 C :   -0.066762
   3 C :   -0.064446
   4 C :   -0.195281
   5 H :    0.029110
   6 C :   -0.036903
   7 H :    0.032168
   8 H :    0.024314
   9 C :   -0.043583
  10 H :    0.015931
  11 H :    0.029763
  12 C :   -0.059935
  13 H :    0.029966
  14 H :    0.027649
  15 H :    0.028457
  16 S :    0.410736
  17 C :   -0.180587
  18 C :   -0.074700
  19 C :   -0.040798
  20 C :   -0.202074
  21 H :    0.038600
  22 C :   -0.023593
  23 H :   -0.000367
  24 H :    0.036971
  25 C :   -0.033106
  26 H :    0.015295
  27 H :    0.024837
  28 C :   -0.065737
  29 H :    0.021151
  30 H :    0.038583
  31 H :    0.023948
  32 H :    0.035775
  33 H :    0.020652

  Mayer bond orders larger than 0.100000
B(  0-S ,  1-C ) :   1.1616 B(  0-S ,  4-C ) :   1.1362 B(  1-C ,  2-C ) :   1.5644
B(  1-C ,  4-C ) :   0.1015 B(  1-C , 32-H ) :   0.9672 B(  2-C ,  3-C ) :   1.2904
B(  2-C ,  6-C ) :   1.0126 B(  3-C ,  4-C ) :   1.5473 B(  3-C ,  5-H ) :   0.9922
B(  4-C , 20-C ) :   1.0536 B(  6-C ,  7-H ) :   0.9333 B(  6-C ,  8-H ) :   0.9319
B(  6-C ,  9-C ) :   1.0590 B(  9-C , 10-H ) :   0.9519 B(  9-C , 11-H ) :   0.9568
B(  9-C , 12-C ) :   1.0848 B( 12-C , 13-H ) :   0.9752 B( 12-C , 14-H ) :   0.9746
B( 12-C , 15-H ) :   0.9717 B( 16-S , 17-C ) :   1.1501 B( 16-S , 20-C ) :   1.1395
B( 17-C , 18-C ) :   1.6369 B( 17-C , 33-H ) :   0.9676 B( 18-C , 19-C ) :   1.2160
B( 18-C , 21-H ) :   0.9876 B( 19-C , 20-C ) :   1.5753 B( 19-C , 22-C ) :   1.0342
B( 22-C , 23-H ) :   0.9226 B( 22-C , 24-H ) :   0.9312 B( 22-C , 25-C ) :   1.0876
B( 25-C , 26-H ) :   0.9473 B( 25-C , 27-H ) :   0.9480 B( 25-C , 28-C ) :   1.0861
B( 28-C , 29-H ) :   0.9660 B( 28-C , 30-H ) :   0.9701 B( 28-C , 31-H ) :   0.9717

Dispersion correction           -0.014259947
FINAL SINGLE POINT ENERGY     -1339.859262200807

DIPOLE MOMENT
-------------
                                X             Y             Z
Electronic contribution:      8.15952      17.31718       0.48243
Nuclear contribution   :     -8.13022     -17.85526      -0.37727
                        -----------------------------------------
Total Dipole Moment    :      0.02931      -0.53808       0.10516
                        -----------------------------------------
Magnitude (a.u.)       :      0.54904
Magnitude (Debye)      :      1.39555

Rotational constants in cm-1:     0.023843     0.006905     0.006230
Rotational constants in MHz :   714.788912   206.996056   186.782485

                             ****ORCA TERMINATED NORMALLY****
TOTAL RUN TIME: 0 days 0 hours 0 minutes 21 seconds 278 msec
