                         Program Version 4.2.1 -  RELEASE  -
|  1> ! wB97X-D3 SP def2-SVP
|  2> %pal
|  3> nprocs 24
|  4> end
|  5>
|  6> * xyz 0 1
|  7> S 	 46.7805 	 -20.4002 	 -111.859
|  8> C 	 47.1366 	 -20.129 	 -110.187
|  9> C 	 46.3779 	 -20.9348 	 -109.383
| 10> C 	 45.4163 	 -21.6528 	 -110.102
| 11> C 	 45.5798 	 -21.6117 	 -111.481
| 12> H 	 44.5316 	 -22.1856 	 -109.699
| 13> C 	 46.3759 	 -20.8424 	 -107.861
| 14> H 	 46.9125 	 -19.9489 	 -107.625
| 15> H 	 47.016 	 -21.6178 	 -107.532
| 16> C 	 44.9227 	 -20.8064 	 -107.235
| 17> H 	 44.2827 	 -20.1954 	 -107.859
| 18> H 	 44.4987 	 -21.7666 	 -107.044
| 19> C 	 44.9954 	 -20.1508 	 -105.835
| 20> H 	 45.502 	 -20.6408 	 -105.011
| 21> H 	 45.4734 	 -19.1865 	 -105.98
| 22> H 	 44.0292 	 -19.8162 	 -105.575
| 23> S 	 45.4878 	 -23.3709 	 -113.61
| 24> C 	 43.9269 	 -24.017 	 -114.03
| 25> C 	 42.8974 	 -23.2746 	 -113.464
| 26> C 	 43.3187 	 -22.2711 	 -112.527
| 27> C 	 44.7041 	 -22.2124 	 -112.48
| 28> H 	 41.9234 	 -23.5789 	 -113.749
| 29> C 	 42.3396 	 -21.3645 	 -111.754
| 30> H 	 42.941 	 -20.4974 	 -111.449
| 31> H 	 42.0522 	 -21.8661 	 -110.813
| 32> C 	 41.0515 	 -20.9937 	 -112.41
| 33> H 	 40.6074 	 -21.9712 	 -112.492
| 34> H 	 41.1969 	 -20.5949 	 -113.388
| 35> C 	 40.0271 	 -20.1333 	 -111.573
| 36> H 	 40.3691 	 -19.1813 	 -111.203
| 37> H 	 39.746 	 -20.6582 	 -110.699
| 38> H 	 39.1858 	 -19.8793 	 -112.187
| 39> H 	 47.9276 	 -19.4704 	 -109.791
| 40> H 	 43.6478 	 -24.8824 	 -114.619
| 41> *
| 42>
| 43>                          ****END OF INPUT****

CARTESIAN COORDINATES (ANGSTROEM)
---------------------------------
  S     46.780500  -20.400200  -111.859000
  C     47.136600  -20.129000  -110.187000
  C     46.377900  -20.934800  -109.383000
  C     45.416300  -21.652800  -110.102000
  C     45.579800  -21.611700  -111.481000
  H     44.531600  -22.185600  -109.699000
  C     46.375900  -20.842400  -107.861000
  H     46.912500  -19.948900  -107.625000
  H     47.016000  -21.617800  -107.532000
  C     44.922700  -20.806400  -107.235000
  H     44.282700  -20.195400  -107.859000
  H     44.498700  -21.766600  -107.044000
  C     44.995400  -20.150800  -105.835000
  H     45.502000  -20.640800  -105.011000
  H     45.473400  -19.186500  -105.980000
  H     44.029200  -19.816200  -105.575000
  S     45.487800  -23.370900  -113.610000
  C     43.926900  -24.017000  -114.030000
  C     42.897400  -23.274600  -113.464000
  C     43.318700  -22.271100  -112.527000
  C     44.704100  -22.212400  -112.480000
  H     41.923400  -23.578900  -113.749000
  C     42.339600  -21.364500  -111.754000
  H     42.941000  -20.497400  -111.449000
  H     42.052200  -21.866100  -110.813000
  C     41.051500  -20.993700  -112.410000
  H     40.607400  -21.971200  -112.492000
  H     41.196900  -20.594900  -113.388000
  C     40.027100  -20.133300  -111.573000
  H     40.369100  -19.181300  -111.203000
  H     39.746000  -20.658200  -110.699000
  H     39.185800  -19.879300  -112.187000
  H     47.927600  -19.470400  -109.791000
  H     43.647800  -24.882400  -114.619000

 Total Charge           Charge          ....    0
 Multiplicity           Mult            ....    1
 Number of Electrons    NEL             ....  134
 Basis Dimension        Dim             ....  322

ORBITAL ENERGIES
----------------

  NO   OCC          E(Eh)            E(eV)
   0   2.0000     -88.965879     -2420.8846
   1   2.0000     -88.962891     -2420.8033
   2   2.0000     -10.327830      -281.0346
   3   2.0000     -10.324752      -280.9508
   4   2.0000     -10.316893      -280.7369
   5   2.0000     -10.310210      -280.5551
   6   2.0000     -10.309304      -280.5304
   7   2.0000     -10.293911      -280.1116
   8   2.0000     -10.292688      -280.0783
   9   2.0000     -10.291680      -280.0508
  10   2.0000     -10.290677      -280.0235
  11   2.0000     -10.290675      -280.0235
  12   2.0000     -10.288371      -279.9608
  13   2.0000     -10.285151      -279.8732
  14   2.0000     -10.277644      -279.6689
  15   2.0000     -10.273329      -279.5515
  16   2.0000      -8.080033      -219.8689
  17   2.0000      -8.078029      -219.8144
  18   2.0000      -6.038591      -164.3184
  19   2.0000      -6.036414      -164.2592
  20   2.0000      -6.034643      -164.2110
  21   2.0000      -6.032487      -164.1523
  22   2.0000      -6.030754      -164.1052
  23   2.0000      -6.028883      -164.0542
  24   2.0000      -1.005501       -27.3611
  25   2.0000      -0.982881       -26.7455
  26   2.0000      -0.911591       -24.8057
  27   2.0000      -0.908391       -24.7186
  28   2.0000      -0.869344       -23.6560
  29   2.0000      -0.851020       -23.1574
  30   2.0000      -0.844601       -22.9828
  31   2.0000      -0.813614       -22.1396
  32   2.0000      -0.787698       -21.4344
  33   2.0000      -0.772979       -21.0338
  34   2.0000      -0.716084       -19.4856
  35   2.0000      -0.704416       -19.1681
  36   2.0000      -0.693176       -18.8623
  37   2.0000      -0.651434       -17.7264
  38   2.0000      -0.638498       -17.3744
  39   2.0000      -0.617338       -16.7986
  40   2.0000      -0.593713       -16.1557
  41   2.0000      -0.575582       -15.6624
  42   2.0000      -0.574227       -15.6255
  43   2.0000      -0.561129       -15.2691
  44   2.0000      -0.529798       -14.4165
  45   2.0000      -0.524239       -14.2653
  46   2.0000      -0.519706       -14.1419
  47   2.0000      -0.506952       -13.7949
  48   2.0000      -0.500778       -13.6269
  49   2.0000      -0.497557       -13.5392
  50   2.0000      -0.485356       -13.2072
  51   2.0000      -0.481643       -13.1062
  52   2.0000      -0.474043       -12.8994
  53   2.0000      -0.468630       -12.7521
  54   2.0000      -0.459197       -12.4954
  55   2.0000      -0.451388       -12.2829
  56   2.0000      -0.446169       -12.1409
  57   2.0000      -0.439546       -11.9607
  58   2.0000      -0.434730       -11.8296
  59   2.0000      -0.428938       -11.6720
  60   2.0000      -0.422732       -11.5031
  61   2.0000      -0.416195       -11.3252
  62   2.0000      -0.414829       -11.2881
  63   2.0000      -0.339774        -9.2457
  64   2.0000      -0.331751        -9.0274
  65   2.0000      -0.328921        -8.9504
  66   2.0000      -0.291640        -7.9359
  67   0.0000       0.034987         0.9520
  68   0.0000       0.062458         1.6996
  69   0.0000       0.117847         3.2068
  70   0.0000       0.126860         3.4520
  71   0.0000       0.131335         3.5738

MULLIKEN ATOMIC CHARGES
-----------------------
   0 S :    0.111097
   1 C :   -0.135553
   2 C :   -0.108633
   3 C :   -0.007389
   4 C :   -0.140420
   5 H :    0.028852
   6 C :    0.119813
   7 H :   -0.001224
   8 H :    0.031732
   9 C :   -0.080678
  10 H :    0.038625
  11 H :    0.037718
  12 C :   -0.032768
  13 H :    0.044483
  14 H :    0.011678
  15 H :    0.013125
  16 S :    0.111670
  17 C :   -0.084225
  18 C :   -0.060511
  19 C :   -0.007145
  20 C :   -0.176837
  21 H :    0.003574
  22 C :    0.079376
  23 H :    0.033025
  24 H :    0.027592
  25 C :   -0.091972
  26 H :    0.028191
  27 H :    0.032320
  28 C :   -0.007280
  29 H :    0.021336
  30 H :    0.017734
  31 H :    0.033000
  32 H :    0.055780
  33 H :    0.053913
Sum of atomic charges:    0.0000000

LOEWDIN ATOMIC CHARGES
----------------------
   0 S :    0.414038
   1 C :   -0.209434
   2 C :   -0.072497
   3 C :   -0.066193
   4 C :   -0.203906
   5 H :    0.037314
   6 C :   -0.021484
   7 H :    0.023528
   8 H :    0.029917
   9 C :   -0.028515
  10 H :    0.028065
  11 H :    0.022131
  12 C :   -0.064578
  13 H :    0.026357
  14 H :    0.022851
  15 H :    0.019850
  16 S :    0.393709
  17 C :   -0.186458
  18 C :   -0.074234
  19 C :   -0.046317
  20 C :   -0.188882
  21 H :    0.022915
  22 C :   -0.033529
  23 H :    0.030025
  24 H :    0.032660
  25 C :   -0.037300
  26 H :    0.024992
  27 H :    0.021090
  28 C :   -0.054038
  29 H :    0.022230
  30 H :    0.019762
  31 H :    0.028127
  32 H :    0.034140
  33 H :    0.033663

  Mayer bond orders larger than 0.100000
B(  0-S ,  1-C ) :   1.1486 B(  0-S ,  4-C ) :   1.1623 B(  1-C ,  2-C ) :   1.6060
B(  1-C ,  4-C ) :   0.1013 B(  1-C , 32-H ) :   0.9613 B(  2-C ,  3-C ) :   1.2651
B(  2-C ,  6-C ) :   1.0117 B(  3-C ,  4-C ) :   1.5579 B(  3-C ,  5-H ) :   0.9918
B(  4-C , 20-C ) :   1.0093 B(  6-C ,  7-H ) :   0.9466 B(  6-C ,  8-H ) :   0.9235
B(  6-C ,  9-C ) :   1.0622 B(  9-C , 10-H ) :   0.9607 B(  9-C , 11-H ) :   0.9512
B(  9-C , 12-C ) :   1.0892 B( 12-C , 13-H ) :   0.9777 B( 12-C , 14-H ) :   0.9721
B( 12-C , 15-H ) :   0.9708 B( 16-S , 17-C ) :   1.1518 B( 16-S , 20-C ) :   1.1268
B( 17-C , 18-C ) :   1.6415 B( 17-C , 33-H ) :   0.9618 B( 18-C , 19-C ) :   1.2039
B( 18-C , 21-H ) :   0.9933 B( 19-C , 20-C ) :   1.6262 B( 19-C , 22-C ) :   1.0269
B( 22-C , 23-H ) :   0.9353 B( 22-C , 24-H ) :   0.9270 B( 22-C , 25-C ) :   1.0657
B( 25-C , 26-H ) :   0.9460 B( 25-C , 27-H ) :   0.9634 B( 25-C , 28-C ) :   1.0848
B( 28-C , 29-H ) :   0.9772 B( 28-C , 30-H ) :   0.9726 B( 28-C , 31-H ) :   0.9750

Dispersion correction           -0.013736258
FINAL SINGLE POINT ENERGY     -1339.868758038051

DIPOLE MOMENT
-------------
                                X             Y             Z
Electronic contribution:     19.99831      -9.01124     -22.53421
Nuclear contribution   :    -20.63872       9.08293      23.13300
                        -----------------------------------------
Total Dipole Moment    :     -0.64042       0.07168       0.59879
                        -----------------------------------------
Magnitude (a.u.)       :      0.87967
Magnitude (Debye)      :      2.23594

Rotational constants in cm-1:     0.015614     0.008965     0.006551
Rotational constants in MHz :   468.086433   268.755651   196.382930

                             ****ORCA TERMINATED NORMALLY****
TOTAL RUN TIME: 0 days 0 hours 0 minutes 21 seconds 227 msec
