                         Program Version 4.2.1 -  RELEASE  -
|  1> ! wB97X-D3 SP def2-SVP
|  2> %pal
|  3> nprocs 24
|  4> end
|  5>
|  6> * xyz 0 1
|  7> S 	 31.711 	 -28.4116 	 -118.192
|  8> C 	 32.3115 	 -27.0262 	 -117.358
|  9> C 	 33.6641 	 -27.0403 	 -117.232
| 10> C 	 34.1997 	 -28.2683 	 -117.745
| 11> C 	 33.2892 	 -29.1696 	 -118.236
| 12> H 	 35.2107 	 -28.4613 	 -117.688
| 13> C 	 34.5105 	 -26.0306 	 -116.356
| 14> H 	 33.7353 	 -25.3654 	 -115.829
| 15> H 	 35.1041 	 -25.4482 	 -117.052
| 16> C 	 35.572 	 -26.6937 	 -115.41
| 17> H 	 36.2065 	 -27.3969 	 -115.871
| 18> H 	 36.1535 	 -25.8586 	 -114.981
| 19> C 	 34.8359 	 -27.4373 	 -114.299
| 20> H 	 35.4381 	 -27.5164 	 -113.474
| 21> H 	 33.9488 	 -26.9318 	 -113.907
| 22> H 	 34.6089 	 -28.4834 	 -114.556
| 23> S 	 32.8534 	 -30.86 	 -120.336
| 24> C 	 32.9029 	 -32.609 	 -120.114
| 25> C 	 33.3765 	 -32.8912 	 -118.827
| 26> C 	 33.6458 	 -31.7049 	 -118.041
| 27> C 	 33.4729 	 -30.525 	 -118.728
| 28> H 	 33.393 	 -33.915 	 -118.483
| 29> C 	 34.0695 	 -31.8184 	 -116.564
| 30> H 	 33.3416 	 -32.361 	 -116.023
| 31> H 	 33.9141 	 -30.8484 	 -116.086
| 32> C 	 35.4339 	 -32.3744 	 -116.274
| 33> H 	 35.5335 	 -33.2653 	 -116.785
| 34> H 	 35.6995 	 -32.5984 	 -115.274
| 35> C 	 36.5877 	 -31.5419 	 -116.786
| 36> H 	 36.5183 	 -30.5487 	 -116.405
| 37> H 	 36.7306 	 -31.5458 	 -117.853
| 38> H 	 37.5161 	 -31.9653 	 -116.318
| 39> H 	 31.6524 	 -26.1889 	 -117.092
| 40> H 	 32.6312 	 -33.2338 	 -120.958
| 41> *
| 42>
| 43>                          ****END OF INPUT****

CARTESIAN COORDINATES (ANGSTROEM)
---------------------------------
  S     31.711000  -28.411600  -118.192000
  C     32.311500  -27.026200  -117.358000
  C     33.664100  -27.040300  -117.232000
  C     34.199700  -28.268300  -117.745000
  C     33.289200  -29.169600  -118.236000
  H     35.210700  -28.461300  -117.688000
  C     34.510500  -26.030600  -116.356000
  H     33.735300  -25.365400  -115.829000
  H     35.104100  -25.448200  -117.052000
  C     35.572000  -26.693700  -115.410000
  H     36.206500  -27.396900  -115.871000
  H     36.153500  -25.858600  -114.981000
  C     34.835900  -27.437300  -114.299000
  H     35.438100  -27.516400  -113.474000
  H     33.948800  -26.931800  -113.907000
  H     34.608900  -28.483400  -114.556000
  S     32.853400  -30.860000  -120.336000
  C     32.902900  -32.609000  -120.114000
  C     33.376500  -32.891200  -118.827000
  C     33.645800  -31.704900  -118.041000
  C     33.472900  -30.525000  -118.728000
  H     33.393000  -33.915000  -118.483000
  C     34.069500  -31.818400  -116.564000
  H     33.341600  -32.361000  -116.023000
  H     33.914100  -30.848400  -116.086000
  C     35.433900  -32.374400  -116.274000
  H     35.533500  -33.265300  -116.785000
  H     35.699500  -32.598400  -115.274000
  C     36.587700  -31.541900  -116.786000
  H     36.518300  -30.548700  -116.405000
  H     36.730600  -31.545800  -117.853000
  H     37.516100  -31.965300  -116.318000
  H     31.652400  -26.188900  -117.092000
  H     32.631200  -33.233800  -120.958000

 Total Charge           Charge          ....    0
 Multiplicity           Mult            ....    1
 Number of Electrons    NEL             ....  134
 Basis Dimension        Dim             ....  322

ORBITAL ENERGIES
----------------

  NO   OCC          E(Eh)            E(eV)
   0   2.0000     -88.962081     -2420.7813
   1   2.0000     -88.961068     -2420.7537
   2   2.0000     -10.327178      -281.0168
   3   2.0000     -10.326740      -281.0049
   4   2.0000     -10.325532      -280.9720
   5   2.0000     -10.310110      -280.5524
   6   2.0000     -10.309725      -280.5419
   7   2.0000     -10.304419      -280.3975
   8   2.0000     -10.301530      -280.3189
   9   2.0000     -10.298382      -280.2332
  10   2.0000     -10.290169      -280.0097
  11   2.0000     -10.286634      -279.9135
  12   2.0000     -10.285772      -279.8901
  13   2.0000     -10.272244      -279.5220
  14   2.0000     -10.270180      -279.4658
  15   2.0000     -10.267386      -279.3898
  16   2.0000      -8.076964      -219.7854
  17   2.0000      -8.076527      -219.7735
  18   2.0000      -6.035433      -164.2325
  19   2.0000      -6.035013      -164.2210
  20   2.0000      -6.031325      -164.1207
  21   2.0000      -6.030912      -164.1094
  22   2.0000      -6.027864      -164.0265
  23   2.0000      -6.027261      -164.0101
  24   2.0000      -1.007602       -27.4182
  25   2.0000      -0.983918       -26.7738
  26   2.0000      -0.914173       -24.8759
  27   2.0000      -0.906134       -24.6572
  28   2.0000      -0.871499       -23.7147
  29   2.0000      -0.849294       -23.1105
  30   2.0000      -0.842545       -22.9268
  31   2.0000      -0.815393       -22.1880
  32   2.0000      -0.784737       -21.3538
  33   2.0000      -0.775352       -21.0984
  34   2.0000      -0.710025       -19.3208
  35   2.0000      -0.700503       -19.0616
  36   2.0000      -0.691117       -18.8062
  37   2.0000      -0.661800       -18.0085
  38   2.0000      -0.642712       -17.4891
  39   2.0000      -0.625454       -17.0195
  40   2.0000      -0.602233       -16.3876
  41   2.0000      -0.567100       -15.4316
  42   2.0000      -0.559034       -15.2121
  43   2.0000      -0.551004       -14.9936
  44   2.0000      -0.549678       -14.9575
  45   2.0000      -0.539879       -14.6909
  46   2.0000      -0.523098       -14.2342
  47   2.0000      -0.513231       -13.9657
  48   2.0000      -0.501825       -13.6554
  49   2.0000      -0.494543       -13.4572
  50   2.0000      -0.486122       -13.2280
  51   2.0000      -0.477527       -12.9942
  52   2.0000      -0.469577       -12.7778
  53   2.0000      -0.466504       -12.6942
  54   2.0000      -0.457317       -12.4442
  55   2.0000      -0.443128       -12.0581
  56   2.0000      -0.441508       -12.0140
  57   2.0000      -0.440999       -12.0002
  58   2.0000      -0.434487       -11.8230
  59   2.0000      -0.424984       -11.5644
  60   2.0000      -0.416821       -11.3423
  61   2.0000      -0.416164       -11.3244
  62   2.0000      -0.411440       -11.1958
  63   2.0000      -0.340714        -9.2713
  64   2.0000      -0.333065        -9.0632
  65   2.0000      -0.326015        -8.8713
  66   2.0000      -0.303023        -8.2457
  67   0.0000       0.037435         1.0187
  68   0.0000       0.063220         1.7203
  69   0.0000       0.117546         3.1986
  70   0.0000       0.123886         3.3711
  71   0.0000       0.125050         3.4028

MULLIKEN ATOMIC CHARGES
-----------------------
   0 S :    0.116660
   1 C :   -0.156018
   2 C :   -0.067726
   3 C :    0.049043
   4 C :   -0.137082
   5 H :   -0.033151
   6 C :    0.045749
   7 H :    0.043150
   8 H :    0.034199
   9 C :   -0.072678
  10 H :    0.030197
  11 H :    0.039350
  12 C :   -0.026551
  13 H :    0.003419
  14 H :    0.024950
  15 H :    0.038363
  16 S :    0.082146
  17 C :   -0.110973
  18 C :   -0.014864
  19 C :   -0.048115
  20 C :   -0.156836
  21 H :    0.027168
  22 C :    0.103094
  23 H :    0.012966
  24 H :    0.017403
  25 C :   -0.010420
  26 H :    0.000516
  27 H :    0.018136
  28 C :   -0.063972
  29 H :    0.013302
  30 H :    0.043309
  31 H :    0.025276
  32 H :    0.056773
  33 H :    0.073217
Sum of atomic charges:   -0.0000000

LOEWDIN ATOMIC CHARGES
----------------------
   0 S :    0.412312
   1 C :   -0.203946
   2 C :   -0.070719
   3 C :   -0.053703
   4 C :   -0.194583
   5 H :    0.014026
   6 C :   -0.026213
   7 H :    0.038165
   8 H :    0.027292
   9 C :   -0.034555
  10 H :    0.019195
  11 H :    0.030822
  12 C :   -0.063619
  13 H :    0.012215
  14 H :    0.026249
  15 H :    0.028439
  16 S :    0.396423
  17 C :   -0.172975
  18 C :   -0.071753
  19 C :   -0.044476
  20 C :   -0.203285
  21 H :    0.032170
  22 C :   -0.029188
  23 H :    0.028183
  24 H :    0.030277
  25 C :   -0.036841
  26 H :    0.015212
  27 H :    0.023933
  28 C :   -0.059997
  29 H :    0.013997
  30 H :    0.023235
  31 H :    0.030745
  32 H :    0.031818
  33 H :    0.031144

  Mayer bond orders larger than 0.100000
B(  0-S ,  1-C ) :   1.1523 B(  0-S ,  4-C ) :   1.1436 B(  1-C ,  2-C ) :   1.6265
B(  1-C , 32-H ) :   0.9605 B(  2-C ,  3-C ) :   1.2440 B(  2-C ,  6-C ) :   0.9970
B(  3-C ,  4-C ) :   1.5842 B(  3-C ,  5-H ) :   1.0134 B(  4-C , 20-C ) :   1.0247
B(  6-C ,  7-H ) :   0.9555 B(  6-C ,  8-H ) :   0.9357 B(  6-C ,  9-C ) :   1.0775
B(  9-C , 10-H ) :   0.9535 B(  9-C , 11-H ) :   0.9562 B(  9-C , 12-C ) :   1.0766
B( 12-C , 13-H ) :   0.9694 B( 12-C , 14-H ) :   0.9759 B( 12-C , 15-H ) :   0.9728
B( 16-S , 17-C ) :   1.1686 B( 16-S , 20-C ) :   1.1379 B( 17-C , 18-C ) :   1.5782
B( 17-C , 33-H ) :   0.9719 B( 18-C , 19-C ) :   1.2399 B( 18-C , 21-H ) :   0.9947
B( 19-C , 20-C ) :   1.6007 B( 19-C , 22-C ) :   1.0332 B( 22-C , 23-H ) :   0.9267
B( 22-C , 24-H ) :   0.9337 B( 22-C , 25-C ) :   1.0744 B( 25-C , 26-H ) :   0.9497
B( 25-C , 27-H ) :   0.9539 B( 25-C , 28-C ) :   1.0842 B( 28-C , 29-H ) :   0.9737
B( 28-C , 30-H ) :   0.9765 B( 28-C , 31-H ) :   0.9723

Dispersion correction           -0.015756550
FINAL SINGLE POINT ENERGY     -1339.873885746846

DIPOLE MOMENT
-------------
                                X             Y             Z
Electronic contribution:    -18.99316      -1.64723     -22.40898
Nuclear contribution   :     19.33975       1.50125      22.98409
                        -----------------------------------------
Total Dipole Moment    :      0.34658      -0.14598       0.57511
                        -----------------------------------------
Magnitude (a.u.)       :      0.68715
Magnitude (Debye)      :      1.74661

Rotational constants in cm-1:     0.018793     0.010391     0.007430
Rotational constants in MHz :   563.399453   311.515875   222.734201

                             ****ORCA TERMINATED NORMALLY****
TOTAL RUN TIME: 0 days 0 hours 0 minutes 21 seconds 667 msec
