                         Program Version 4.2.1 -  RELEASE  -
|  1> ! wB97X-D3 SP def2-SVP
|  2> %pal
|  3> nprocs 24
|  4> end
|  5>
|  6> * xyz 0 1
|  7> S 	 15.9507 	 -11.3704 	 -125.379
|  8> C 	 15.242 	 -11.2468 	 -126.971
|  9> C 	 15.3895 	 -12.4639 	 -127.672
| 10> C 	 16.047 	 -13.4286 	 -126.835
| 11> C 	 16.3382 	 -13.0537 	 -125.577
| 12> H 	 16.1451 	 -14.4404 	 -127.159
| 13> C 	 14.7922 	 -12.7037 	 -129.05
| 14> H 	 15.6853 	 -13.1171 	 -129.621
| 15> H 	 14.5306 	 -11.6913 	 -129.41
| 16> C 	 13.5671 	 -13.6135 	 -129.26
| 17> H 	 13.8705 	 -14.6464 	 -128.884
| 18> H 	 12.7606 	 -13.308 	 -128.626
| 19> C 	 13.2511 	 -13.5896 	 -130.808
| 20> H 	 12.1385 	 -13.6995 	 -130.989
| 21> H 	 13.5733 	 -12.657 	 -131.213
| 22> H 	 13.8367 	 -14.3442 	 -131.351
| 23> S 	 18.5886 	 -13.193 	 -124.013
| 24> C 	 19.1446 	 -14.6572 	 -123.34
| 25> C 	 18.1683 	 -15.618 	 -123.398
| 26> C 	 16.9789 	 -15.2669 	 -124.135
| 27> C 	 17.0644 	 -13.9014 	 -124.576
| 28> H 	 18.4443 	 -16.5949 	 -123.066
| 29> C 	 15.7855 	 -16.1932 	 -124.31
| 30> H 	 15.1315 	 -15.7313 	 -125.024
| 31> H 	 15.2229 	 -16.2542 	 -123.323
| 32> C 	 16.069 	 -17.6277 	 -124.753
| 33> H 	 15.2299 	 -18.2316 	 -124.766
| 34> H 	 16.7827 	 -18.1083 	 -124.177
| 35> C 	 16.6852 	 -17.4698 	 -126.204
| 36> H 	 17.0499 	 -18.3807 	 -126.737
| 37> H 	 17.5985 	 -16.8807 	 -126.168
| 38> H 	 15.9457 	 -16.9933 	 -126.973
| 39> H 	 14.7947 	 -10.3408 	 -127.382
| 40> H 	 20.141 	 -14.7966 	 -122.945
| 41> *
| 42>
| 43>                          ****END OF INPUT****

CARTESIAN COORDINATES (ANGSTROEM)
---------------------------------
  S     15.950700  -11.370400  -125.379000
  C     15.242000  -11.246800  -126.971000
  C     15.389500  -12.463900  -127.672000
  C     16.047000  -13.428600  -126.835000
  C     16.338200  -13.053700  -125.577000
  H     16.145100  -14.440400  -127.159000
  C     14.792200  -12.703700  -129.050000
  H     15.685300  -13.117100  -129.621000
  H     14.530600  -11.691300  -129.410000
  C     13.567100  -13.613500  -129.260000
  H     13.870500  -14.646400  -128.884000
  H     12.760600  -13.308000  -128.626000
  C     13.251100  -13.589600  -130.808000
  H     12.138500  -13.699500  -130.989000
  H     13.573300  -12.657000  -131.213000
  H     13.836700  -14.344200  -131.351000
  S     18.588600  -13.193000  -124.013000
  C     19.144600  -14.657200  -123.340000
  C     18.168300  -15.618000  -123.398000
  C     16.978900  -15.266900  -124.135000
  C     17.064400  -13.901400  -124.576000
  H     18.444300  -16.594900  -123.066000
  C     15.785500  -16.193200  -124.310000
  H     15.131500  -15.731300  -125.024000
  H     15.222900  -16.254200  -123.323000
  C     16.069000  -17.627700  -124.753000
  H     15.229900  -18.231600  -124.766000
  H     16.782700  -18.108300  -124.177000
  C     16.685200  -17.469800  -126.204000
  H     17.049900  -18.380700  -126.737000
  H     17.598500  -16.880700  -126.168000
  H     15.945700  -16.993300  -126.973000
  H     14.794700  -10.340800  -127.382000
  H     20.141000  -14.796600  -122.945000

 Total Charge           Charge          ....    0
 Multiplicity           Mult            ....    1
 Number of Electrons    NEL             ....  134
 Basis Dimension        Dim             ....  322

ORBITAL ENERGIES
----------------

  NO   OCC          E(Eh)            E(eV)
   0   2.0000     -88.965136     -2420.8644
   1   2.0000     -88.963138     -2420.8101
   2   2.0000     -10.336983      -281.2836
   3   2.0000     -10.329300      -281.0745
   4   2.0000     -10.316535      -280.7272
   5   2.0000     -10.315609      -280.7020
   6   2.0000     -10.315268      -280.6927
   7   2.0000     -10.302202      -280.3372
   8   2.0000     -10.299775      -280.2711
   9   2.0000     -10.297147      -280.1996
  10   2.0000     -10.296270      -280.1758
  11   2.0000     -10.292547      -280.0744
  12   2.0000     -10.287595      -279.9397
  13   2.0000     -10.287136      -279.9272
  14   2.0000     -10.286364      -279.9062
  15   2.0000     -10.284105      -279.8447
  16   2.0000      -8.080055      -219.8695
  17   2.0000      -8.078611      -219.8302
  18   2.0000      -6.038633      -164.3196
  19   2.0000      -6.036966      -164.2742
  20   2.0000      -6.034463      -164.2061
  21   2.0000      -6.032865      -164.1626
  22   2.0000      -6.030800      -164.1064
  23   2.0000      -6.029622      -164.0744
  24   2.0000      -1.005225       -27.3536
  25   2.0000      -0.984973       -26.8025
  26   2.0000      -0.912918       -24.8418
  27   2.0000      -0.907512       -24.6947
  28   2.0000      -0.865957       -23.5639
  29   2.0000      -0.846913       -23.0457
  30   2.0000      -0.841202       -22.8903
  31   2.0000      -0.815124       -22.1807
  32   2.0000      -0.776307       -21.1244
  33   2.0000      -0.766718       -20.8635
  34   2.0000      -0.716234       -19.4897
  35   2.0000      -0.704136       -19.1605
  36   2.0000      -0.693241       -18.8640
  37   2.0000      -0.652897       -17.7662
  38   2.0000      -0.639207       -17.3937
  39   2.0000      -0.624794       -17.0015
  40   2.0000      -0.602082       -16.3835
  41   2.0000      -0.568021       -15.4566
  42   2.0000      -0.559461       -15.2237
  43   2.0000      -0.551630       -15.0106
  44   2.0000      -0.544275       -14.8105
  45   2.0000      -0.521931       -14.2025
  46   2.0000      -0.519897       -14.1471
  47   2.0000      -0.505618       -13.7586
  48   2.0000      -0.499936       -13.6039
  49   2.0000      -0.497766       -13.5449
  50   2.0000      -0.487229       -13.2582
  51   2.0000      -0.478836       -13.0298
  52   2.0000      -0.465894       -12.6776
  53   2.0000      -0.461214       -12.5503
  54   2.0000      -0.459191       -12.4952
  55   2.0000      -0.448542       -12.2054
  56   2.0000      -0.447710       -12.1828
  57   2.0000      -0.441172       -12.0049
  58   2.0000      -0.431457       -11.7405
  59   2.0000      -0.427261       -11.6264
  60   2.0000      -0.423146       -11.5144
  61   2.0000      -0.422315       -11.4918
  62   2.0000      -0.412852       -11.2343
  63   2.0000      -0.348715        -9.4890
  64   2.0000      -0.329098        -8.9552
  65   2.0000      -0.325670        -8.8619
  66   2.0000      -0.293126        -7.9764
  67   0.0000       0.035159         0.9567
  68   0.0000       0.066777         1.8171
  69   0.0000       0.117680         3.2022
  70   0.0000       0.119137         3.2419
  71   0.0000       0.125759         3.4221

MULLIKEN ATOMIC CHARGES
-----------------------
   0 S :    0.107159
   1 C :   -0.133162
   2 C :   -0.093733
   3 C :    0.052089
   4 C :   -0.129916
   5 H :   -0.018979
   6 C :    0.000247
   7 H :    0.046975
   8 H :    0.022258
   9 C :   -0.057118
  10 H :    0.034225
  11 H :    0.033024
  12 C :   -0.049402
  13 H :    0.049335
  14 H :    0.022903
  15 H :    0.041850
  16 S :    0.102327
  17 C :   -0.094905
  18 C :   -0.027459
  19 C :   -0.058710
  20 C :   -0.148185
  21 H :    0.010264
  22 C :    0.058254
  23 H :    0.017262
  24 H :    0.056254
  25 C :    0.014372
  26 H :    0.019673
  27 H :    0.017222
  28 C :   -0.139680
  29 H :    0.033080
  30 H :    0.049430
  31 H :    0.046424
  32 H :    0.054879
  33 H :    0.061744
Sum of atomic charges:    0.0000000

LOEWDIN ATOMIC CHARGES
----------------------
   0 S :    0.407708
   1 C :   -0.201815
   2 C :   -0.066000
   3 C :   -0.065885
   4 C :   -0.202756
   5 H :    0.023337
   6 C :   -0.041495
   7 H :    0.040438
   8 H :    0.028686
   9 C :   -0.039449
  10 H :    0.028061
  11 H :    0.020988
  12 C :   -0.064115
  13 H :    0.035138
  14 H :    0.018840
  15 H :    0.030331
  16 S :    0.419044
  17 C :   -0.194448
  18 C :   -0.077933
  19 C :   -0.050367
  20 C :   -0.187987
  21 H :    0.025517
  22 C :   -0.029357
  23 H :    0.027235
  24 H :    0.043356
  25 C :   -0.023134
  26 H :    0.018458
  27 H :    0.015198
  28 C :   -0.080019
  29 H :    0.024074
  30 H :    0.025455
  31 H :    0.030374
  32 H :    0.030127
  33 H :    0.032396

  Mayer bond orders larger than 0.100000
B(  0-S ,  1-C ) :   1.1462 B(  0-S ,  4-C ) :   1.1471 B(  1-C ,  2-C ) :   1.5920
B(  1-C , 32-H ) :   0.9660 B(  2-C ,  3-C ) :   1.2523 B(  2-C ,  6-C ) :   1.0229
B(  3-C ,  4-C ) :   1.5802 B(  3-C ,  5-H ) :   0.9994 B(  4-C , 20-C ) :   1.0018
B(  6-C ,  7-H ) :   0.9397 B(  6-C ,  8-H ) :   0.9402 B(  6-C ,  9-C ) :   1.0621
B(  9-C , 10-H ) :   0.9572 B(  9-C , 11-H ) :   0.9603 B(  9-C , 12-C ) :   1.0542
B( 12-C , 13-H ) :   0.9771 B( 12-C , 14-H ) :   0.9770 B( 12-C , 15-H ) :   0.9768
B( 16-S , 17-C ) :   1.1743 B( 16-S , 20-C ) :   1.1636 B( 17-C , 18-C ) :   1.5972
B( 17-C , 33-H ) :   0.9681 B( 18-C , 19-C ) :   1.2406 B( 18-C , 21-H ) :   0.9928
B( 19-C , 20-C ) :   1.5672 B( 19-C , 22-C ) :   1.0395 B( 22-C , 23-H ) :   0.9391
B( 22-C , 24-H ) :   0.9345 B( 22-C , 25-C ) :   1.0704 B( 25-C , 26-H ) :   0.9557
B( 25-C , 27-H ) :   0.9550 B( 25-C , 28-C ) :   1.0575 B( 28-C , 29-H ) :   0.9743
B( 28-C , 30-H ) :   0.9738 B( 28-C , 31-H ) :   0.9717

Dispersion correction           -0.014423016
FINAL SINGLE POINT ENERGY     -1339.872174570617

DIPOLE MOMENT
-------------
                                X             Y             Z
Electronic contribution:     13.73338      18.84282      20.23266
Nuclear contribution   :    -13.90369     -19.45803     -20.60945
                        -----------------------------------------
Total Dipole Moment    :     -0.17031      -0.61522      -0.37678
                        -----------------------------------------
Magnitude (a.u.)       :      0.74126
Magnitude (Debye)      :      1.88412

Rotational constants in cm-1:     0.018449     0.008738     0.006405
Rotational constants in MHz :   553.095890   261.963532   192.007096

                             ****ORCA TERMINATED NORMALLY****
TOTAL RUN TIME: 0 days 0 hours 0 minutes 21 seconds 482 msec
