                         Program Version 4.2.1 -  RELEASE  -
|  1> ! wB97X-D3 SP def2-SVP
|  2> %pal
|  3> nprocs 24
|  4> end
|  5>
|  6> * xyz 0 1
|  7> S 	 -38.12 	 -8.51387 	 19.2401
|  8> C 	 -38.0671 	 -9.50881 	 20.6151
|  9> C 	 -38.2655 	 -10.821 	 20.2976
| 10> C 	 -38.2734 	 -10.9799 	 18.8797
| 11> C 	 -38.0935 	 -9.8183 	 18.1174
| 12> H 	 -38.3658 	 -11.9368 	 18.3231
| 13> C 	 -38.326 	 -11.996 	 21.3128
| 14> H 	 -39.0639 	 -11.8401 	 22.035
| 15> H 	 -37.4243 	 -11.8476 	 21.865
| 16> C 	 -38.5966 	 -13.4484 	 20.8654
| 17> H 	 -38.7089 	 -14.1062 	 21.7293
| 18> H 	 -39.5812 	 -13.5038 	 20.4048
| 19> C 	 -37.5913 	 -14.0429 	 19.841
| 20> H 	 -36.9991 	 -13.244 	 19.3149
| 21> H 	 -36.8889 	 -14.7414 	 20.4054
| 22> H 	 -38.0541 	 -14.4693 	 18.9464
| 23> S 	 -39.4404 	 -9.03036 	 15.9549
| 24> C 	 -38.8943 	 -9.55367 	 14.3356
| 25> C 	 -37.7011 	 -10.2524 	 14.3809
| 26> C 	 -37.1246 	 -10.2692 	 15.7127
| 27> C 	 -37.972 	 -9.65312 	 16.6264
| 28> H 	 -37.2021 	 -10.5295 	 13.4309
| 29> C 	 -35.7364 	 -10.7708 	 15.9797
| 30> H 	 -35.5865 	 -11.6724 	 15.347
| 31> H 	 -35.5289 	 -11.1339 	 17.0306
| 32> C 	 -34.539 	 -9.92056 	 15.6283
| 33> H 	 -34.7668 	 -9.38133 	 14.7161
| 34> H 	 -33.6744 	 -10.5056 	 15.5614
| 35> C 	 -34.3226 	 -8.80788 	 16.801
| 36> H 	 -33.9376 	 -9.29073 	 17.6853
| 37> H 	 -35.1515 	 -8.23913 	 17.1287
| 38> H 	 -33.577 	 -8.06307 	 16.4314
| 39> H 	 -37.8189 	 -9.11098 	 21.542
| 40> H 	 -39.4454 	 -9.47319 	 13.389
| 41> *
| 42>
| 43>                          ****END OF INPUT****

CARTESIAN COORDINATES (ANGSTROEM)
---------------------------------
  S    -38.120000   -8.513870   19.240100
  C    -38.067100   -9.508810   20.615100
  C    -38.265500  -10.821000   20.297600
  C    -38.273400  -10.979900   18.879700
  C    -38.093500   -9.818300   18.117400
  H    -38.365800  -11.936800   18.323100
  C    -38.326000  -11.996000   21.312800
  H    -39.063900  -11.840100   22.035000
  H    -37.424300  -11.847600   21.865000
  C    -38.596600  -13.448400   20.865400
  H    -38.708900  -14.106200   21.729300
  H    -39.581200  -13.503800   20.404800
  C    -37.591300  -14.042900   19.841000
  H    -36.999100  -13.244000   19.314900
  H    -36.888900  -14.741400   20.405400
  H    -38.054100  -14.469300   18.946400
  S    -39.440400   -9.030360   15.954900
  C    -38.894300   -9.553670   14.335600
  C    -37.701100  -10.252400   14.380900
  C    -37.124600  -10.269200   15.712700
  C    -37.972000   -9.653120   16.626400
  H    -37.202100  -10.529500   13.430900
  C    -35.736400  -10.770800   15.979700
  H    -35.586500  -11.672400   15.347000
  H    -35.528900  -11.133900   17.030600
  C    -34.539000   -9.920560   15.628300
  H    -34.766800   -9.381330   14.716100
  H    -33.674400  -10.505600   15.561400
  C    -34.322600   -8.807880   16.801000
  H    -33.937600   -9.290730   17.685300
  H    -35.151500   -8.239130   17.128700
  H    -33.577000   -8.063070   16.431400
  H    -37.818900   -9.110980   21.542000
  H    -39.445400   -9.473190   13.389000

 Total Charge           Charge          ....    0
 Multiplicity           Mult            ....    1
 Number of Electrons    NEL             ....  134
 Basis Dimension        Dim             ....  322

ORBITAL ENERGIES
----------------

  NO   OCC          E(Eh)            E(eV)
   0   2.0000     -88.968612     -2420.9590
   1   2.0000     -88.961780     -2420.7731
   2   2.0000     -10.331135      -281.1245
   3   2.0000     -10.329262      -281.0735
   4   2.0000     -10.323634      -280.9204
   5   2.0000     -10.310465      -280.5620
   6   2.0000     -10.304220      -280.3921
   7   2.0000     -10.302905      -280.3563
   8   2.0000     -10.301699      -280.3235
   9   2.0000     -10.295039      -280.1422
  10   2.0000     -10.292982      -280.0863
  11   2.0000     -10.290939      -280.0307
  12   2.0000     -10.289903      -280.0025
  13   2.0000     -10.285634      -279.8863
  14   2.0000     -10.284522      -279.8561
  15   2.0000     -10.271469      -279.5009
  16   2.0000      -8.083185      -219.9547
  17   2.0000      -8.078031      -219.8144
  18   2.0000      -6.041780      -164.4052
  19   2.0000      -6.037691      -164.2939
  20   2.0000      -6.036336      -164.2571
  21   2.0000      -6.033863      -164.1898
  22   2.0000      -6.032130      -164.1426
  23   2.0000      -6.029129      -164.0609
  24   2.0000      -1.010145       -27.4874
  25   2.0000      -0.987756       -26.8782
  26   2.0000      -0.907733       -24.7007
  27   2.0000      -0.905463       -24.6389
  28   2.0000      -0.868614       -23.6362
  29   2.0000      -0.842138       -22.9157
  30   2.0000      -0.840518       -22.8717
  31   2.0000      -0.815576       -22.1929
  32   2.0000      -0.785105       -21.3638
  33   2.0000      -0.772978       -21.0338
  34   2.0000      -0.707551       -19.2534
  35   2.0000      -0.698654       -19.0113
  36   2.0000      -0.687902       -18.7188
  37   2.0000      -0.659207       -17.9379
  38   2.0000      -0.647151       -17.6099
  39   2.0000      -0.619216       -16.8497
  40   2.0000      -0.598200       -16.2779
  41   2.0000      -0.565911       -15.3992
  42   2.0000      -0.554127       -15.0786
  43   2.0000      -0.548453       -14.9242
  44   2.0000      -0.538338       -14.6489
  45   2.0000      -0.529734       -14.4148
  46   2.0000      -0.513523       -13.9737
  47   2.0000      -0.505251       -13.7486
  48   2.0000      -0.503348       -13.6968
  49   2.0000      -0.496209       -13.5025
  50   2.0000      -0.491296       -13.3688
  51   2.0000      -0.485635       -13.2148
  52   2.0000      -0.474345       -12.9076
  53   2.0000      -0.461449       -12.5567
  54   2.0000      -0.457205       -12.4412
  55   2.0000      -0.452183       -12.3045
  56   2.0000      -0.439691       -11.9646
  57   2.0000      -0.435380       -11.8473
  58   2.0000      -0.426969       -11.6184
  59   2.0000      -0.423108       -11.5133
  60   2.0000      -0.420579       -11.4445
  61   2.0000      -0.415834       -11.3154
  62   2.0000      -0.403115       -10.9693
  63   2.0000      -0.344971        -9.3872
  64   2.0000      -0.328210        -8.9310
  65   2.0000      -0.325428        -8.8553
  66   2.0000      -0.299702        -8.1553
  67   0.0000       0.038884         1.0581
  68   0.0000       0.057031         1.5519
  69   0.0000       0.109626         2.9831
  70   0.0000       0.118595         3.2271
  71   0.0000       0.132005         3.5920

MULLIKEN ATOMIC CHARGES
-----------------------
   0 S :    0.113349
   1 C :   -0.117813
   2 C :   -0.063279
   3 C :    0.010657
   4 C :   -0.188409
   5 H :    0.019502
   6 C :    0.100885
   7 H :    0.017816
   8 H :    0.024897
   9 C :   -0.067557
  10 H :    0.034576
  11 H :    0.030206
  12 C :   -0.104301
  13 H :    0.041980
  14 H :    0.051708
  15 H :    0.037613
  16 S :    0.112668
  17 C :   -0.099878
  18 C :   -0.045929
  19 C :   -0.028073
  20 C :   -0.127904
  21 H :    0.039354
  22 C :    0.020972
  23 H :    0.021394
  24 H :    0.034629
  25 C :   -0.024031
  26 H :    0.025591
  27 H :    0.026306
  28 C :   -0.076625
  29 H :    0.025315
  30 H :    0.031732
  31 H :    0.033844
  32 H :    0.024907
  33 H :    0.063898
Sum of atomic charges:    0.0000000

LOEWDIN ATOMIC CHARGES
----------------------
   0 S :    0.437712
   1 C :   -0.201341
   2 C :   -0.061121
   3 C :   -0.074061
   4 C :   -0.218737
   5 H :    0.035296
   6 C :   -0.026284
   7 H :    0.027305
   8 H :    0.030924
   9 C :   -0.044228
  10 H :    0.030252
  11 H :    0.026716
  12 C :   -0.085804
  13 H :    0.029680
  14 H :    0.034682
  15 H :    0.026358
  16 S :    0.407541
  17 C :   -0.177311
  18 C :   -0.071431
  19 C :   -0.054506
  20 C :   -0.202276
  21 H :    0.039896
  22 C :   -0.043695
  23 H :    0.032355
  24 H :    0.035557
  25 C :   -0.022542
  26 H :    0.022106
  27 H :    0.019351
  28 C :   -0.067329
  29 H :    0.020264
  30 H :    0.017846
  31 H :    0.027412
  32 H :    0.015046
  33 H :    0.034368

  Mayer bond orders larger than 0.100000
B(  0-S ,  1-C ) :   1.1746 B(  0-S ,  4-C ) :   1.1789 B(  1-C ,  2-C ) :   1.5743
B(  1-C ,  4-C ) :   0.1047 B(  1-C , 32-H ) :   0.9859 B(  2-C ,  3-C ) :   1.2749
B(  2-C ,  6-C ) :   0.9864 B(  3-C ,  4-C ) :   1.5536 B(  3-C ,  5-H ) :   0.9874
B(  4-C , 20-C ) :   0.9686 B(  6-C ,  7-H ) :   0.9378 B(  6-C ,  8-H ) :   0.9396
B(  6-C ,  9-C ) :   1.0841 B(  9-C , 10-H ) :   0.9593 B(  9-C , 11-H ) :   0.9578
B(  9-C , 12-C ) :   1.0502 B( 12-C , 13-H ) :   0.9786 B( 12-C , 14-H ) :   0.9756
B( 12-C , 15-H ) :   0.9765 B( 16-S , 17-C ) :   1.1425 B( 16-S , 20-C ) :   1.1503
B( 17-C , 18-C ) :   1.6479 B( 17-C , 33-H ) :   0.9626 B( 18-C , 19-C ) :   1.2148
B( 18-C , 21-H ) :   0.9792 B( 19-C , 20-C ) :   1.6285 B( 19-C , 22-C ) :   1.0594
B( 22-C , 23-H ) :   0.9270 B( 22-C , 24-H ) :   0.9371 B( 22-C , 25-C ) :   1.0799
B( 25-C , 26-H ) :   0.9557 B( 25-C , 27-H ) :   0.9548 B( 25-C , 28-C ) :   1.0654
B( 28-C , 29-H ) :   0.9777 B( 28-C , 30-H ) :   0.9799 B( 28-C , 31-H ) :   0.9781

Dispersion correction           -0.014913838
FINAL SINGLE POINT ENERGY     -1339.856098340701

DIPOLE MOMENT
-------------
                                X             Y             Z
Electronic contribution:    -15.63666      16.96494      -4.97868
Nuclear contribution   :     15.89390     -17.51455       4.98126
                        -----------------------------------------
Total Dipole Moment    :      0.25724      -0.54961       0.00258
                        -----------------------------------------
Magnitude (a.u.)       :      0.60684
Magnitude (Debye)      :      1.54246

Rotational constants in cm-1:     0.017600     0.008833     0.008306
Rotational constants in MHz :   527.644642   264.817364   249.017429

                             ****ORCA TERMINATED NORMALLY****
TOTAL RUN TIME: 0 days 0 hours 0 minutes 22 seconds 162 msec
