                         Program Version 4.2.1 -  RELEASE  -
|  1> ! wB97X-D3 SP def2-SVP
|  2> %pal
|  3> nprocs 24
|  4> end
|  5>
|  6> * xyz 0 1
|  7> S 	 17.8372 	 -16.2851 	 -123.135
|  8> C 	 17.1158 	 -16.8939 	 -124.548
|  9> C 	 17.8863 	 -16.5376 	 -125.652
| 10> C 	 19.2595 	 -16.1452 	 -125.256
| 11> C 	 19.3656 	 -16.0185 	 -123.874
| 12> H 	 20.1416 	 -16.0818 	 -125.893
| 13> C 	 17.5626 	 -16.7257 	 -127.091
| 14> H 	 17.603 	 -15.7552 	 -127.637
| 15> H 	 16.486 	 -16.9007 	 -127.201
| 16> C 	 18.269 	 -17.7964 	 -127.868
| 17> H 	 19.3541 	 -17.5992 	 -127.622
| 18> H 	 17.8896 	 -18.7907 	 -127.571
| 19> C 	 17.9011 	 -17.572 	 -129.357
| 20> H 	 16.8885 	 -17.9096 	 -129.384
| 21> H 	 17.9087 	 -16.5376 	 -129.828
| 22> H 	 18.3725 	 -18.2667 	 -130.064
| 23> S 	 20.6761 	 -14.0635 	 -122.423
| 24> C 	 22.4144 	 -14.2967 	 -122.131
| 25> C 	 22.8126 	 -15.583 	 -122.556
| 26> C 	 21.7823 	 -16.2393 	 -123.29
| 27> C 	 20.5638 	 -15.6049 	 -123.243
| 28> H 	 23.842 	 -15.9443 	 -122.407
| 29> C 	 21.9701 	 -17.6239 	 -123.975
| 30> H 	 22.7213 	 -17.6767 	 -124.735
| 31> H 	 21.051 	 -17.9832 	 -124.43
| 32> C 	 22.479 	 -18.7155 	 -123.038
| 33> H 	 21.6735 	 -18.9629 	 -122.308
| 34> H 	 23.3349 	 -18.5035 	 -122.339
| 35> C 	 22.754 	 -20.0367 	 -123.811
| 36> H 	 21.9494 	 -20.4804 	 -124.309
| 37> H 	 23.0218 	 -20.8235 	 -123.136
| 38> H 	 23.5735 	 -20.1011 	 -124.544
| 39> H 	 16.0602 	 -17.1062 	 -124.588
| 40> H 	 22.948 	 -13.6599 	 -121.394
| 41> *
| 42>
| 43>                          ****END OF INPUT****

CARTESIAN COORDINATES (ANGSTROEM)
---------------------------------
  S     17.837200  -16.285100  -123.135000
  C     17.115800  -16.893900  -124.548000
  C     17.886300  -16.537600  -125.652000
  C     19.259500  -16.145200  -125.256000
  C     19.365600  -16.018500  -123.874000
  H     20.141600  -16.081800  -125.893000
  C     17.562600  -16.725700  -127.091000
  H     17.603000  -15.755200  -127.637000
  H     16.486000  -16.900700  -127.201000
  C     18.269000  -17.796400  -127.868000
  H     19.354100  -17.599200  -127.622000
  H     17.889600  -18.790700  -127.571000
  C     17.901100  -17.572000  -129.357000
  H     16.888500  -17.909600  -129.384000
  H     17.908700  -16.537600  -129.828000
  H     18.372500  -18.266700  -130.064000
  S     20.676100  -14.063500  -122.423000
  C     22.414400  -14.296700  -122.131000
  C     22.812600  -15.583000  -122.556000
  C     21.782300  -16.239300  -123.290000
  C     20.563800  -15.604900  -123.243000
  H     23.842000  -15.944300  -122.407000
  C     21.970100  -17.623900  -123.975000
  H     22.721300  -17.676700  -124.735000
  H     21.051000  -17.983200  -124.430000
  C     22.479000  -18.715500  -123.038000
  H     21.673500  -18.962900  -122.308000
  H     23.334900  -18.503500  -122.339000
  C     22.754000  -20.036700  -123.811000
  H     21.949400  -20.480400  -124.309000
  H     23.021800  -20.823500  -123.136000
  H     23.573500  -20.101100  -124.544000
  H     16.060200  -17.106200  -124.588000
  H     22.948000  -13.659900  -121.394000

 Total Charge           Charge          ....    0
 Multiplicity           Mult            ....    1
 Number of Electrons    NEL             ....  134
 Basis Dimension        Dim             ....  322

ORBITAL ENERGIES
----------------

  NO   OCC          E(Eh)            E(eV)
   0   2.0000     -88.965365     -2420.8707
   1   2.0000     -88.965132     -2420.8643
   2   2.0000     -10.325065      -280.9593
   3   2.0000     -10.323720      -280.9227
   4   2.0000     -10.322112      -280.8790
   5   2.0000     -10.313815      -280.6532
   6   2.0000     -10.306438      -280.4524
   7   2.0000     -10.303810      -280.3809
   8   2.0000     -10.302187      -280.3368
   9   2.0000     -10.298392      -280.2335
  10   2.0000     -10.295935      -280.1666
  11   2.0000     -10.291620      -280.0492
  12   2.0000     -10.289219      -279.9839
  13   2.0000     -10.287886      -279.9476
  14   2.0000     -10.283721      -279.8343
  15   2.0000     -10.270856      -279.4842
  16   2.0000      -8.081442      -219.9072
  17   2.0000      -8.079841      -219.8636
  18   2.0000      -6.039895      -164.3539
  19   2.0000      -6.038390      -164.3129
  20   2.0000      -6.035674      -164.2390
  21   2.0000      -6.034371      -164.2036
  22   2.0000      -6.032215      -164.1449
  23   2.0000      -6.030575      -164.1003
  24   2.0000      -1.011934       -27.5361
  25   2.0000      -0.984659       -26.7939
  26   2.0000      -0.919603       -25.0237
  27   2.0000      -0.904297       -24.6072
  28   2.0000      -0.876636       -23.8545
  29   2.0000      -0.849563       -23.1178
  30   2.0000      -0.844098       -22.9691
  31   2.0000      -0.810744       -22.0615
  32   2.0000      -0.782277       -21.2868
  33   2.0000      -0.771684       -20.9986
  34   2.0000      -0.707350       -19.2480
  35   2.0000      -0.697916       -18.9913
  36   2.0000      -0.696699       -18.9582
  37   2.0000      -0.659835       -17.9550
  38   2.0000      -0.646855       -17.6018
  39   2.0000      -0.619580       -16.8596
  40   2.0000      -0.599228       -16.3058
  41   2.0000      -0.572211       -15.5706
  42   2.0000      -0.564167       -15.3518
  43   2.0000      -0.557704       -15.1759
  44   2.0000      -0.524734       -14.2787
  45   2.0000      -0.520037       -14.1509
  46   2.0000      -0.512713       -13.9516
  47   2.0000      -0.508583       -13.8392
  48   2.0000      -0.504234       -13.7209
  49   2.0000      -0.500643       -13.6232
  50   2.0000      -0.495489       -13.4829
  51   2.0000      -0.481531       -13.1031
  52   2.0000      -0.469486       -12.7754
  53   2.0000      -0.461353       -12.5541
  54   2.0000      -0.454453       -12.3663
  55   2.0000      -0.449473       -12.2308
  56   2.0000      -0.448541       -12.2054
  57   2.0000      -0.441377       -12.0105
  58   2.0000      -0.437226       -11.8975
  59   2.0000      -0.421695       -11.4749
  60   2.0000      -0.418488       -11.3876
  61   2.0000      -0.411880       -11.2078
  62   2.0000      -0.410526       -11.1710
  63   2.0000      -0.344550        -9.3757
  64   2.0000      -0.330531        -8.9942
  65   2.0000      -0.324030        -8.8173
  66   2.0000      -0.298314        -8.1175
  67   0.0000       0.033675         0.9163
  68   0.0000       0.062662         1.7051
  69   0.0000       0.107685         2.9302
  70   0.0000       0.123586         3.3629
  71   0.0000       0.124144         3.3781

MULLIKEN ATOMIC CHARGES
-----------------------
   0 S :    0.123523
   1 C :   -0.098034
   2 C :   -0.080150
   3 C :    0.017686
   4 C :   -0.178134
   5 H :    0.032900
   6 C :    0.009398
   7 H :    0.035968
   8 H :   -0.000580
   9 C :   -0.048116
  10 H :    0.038297
  11 H :    0.042032
  12 C :   -0.069554
  13 H :    0.016516
  14 H :    0.049213
  15 H :    0.033924
  16 S :    0.105251
  17 C :   -0.118945
  18 C :   -0.039844
  19 C :   -0.015301
  20 C :   -0.148972
  21 H :    0.036158
  22 C :    0.099586
  23 H :    0.017287
  24 H :    0.033650
  25 C :   -0.115965
  26 H :    0.032861
  27 H :    0.040675
  28 C :   -0.039999
  29 H :    0.013968
  30 H :    0.015756
  31 H :    0.025118
  32 H :    0.054686
  33 H :    0.079141
Sum of atomic charges:    0.0000000

LOEWDIN ATOMIC CHARGES
----------------------
   0 S :    0.438439
   1 C :   -0.212854
   2 C :   -0.058878
   3 C :   -0.053563
   4 C :   -0.211820
   5 H :    0.033474
   6 C :   -0.052614
   7 H :    0.037752
   8 H :    0.024686
   9 C :   -0.035458
  10 H :    0.026028
  11 H :    0.032559
  12 C :   -0.075892
  13 H :    0.022873
  14 H :    0.034341
  15 H :    0.025763
  16 S :    0.395459
  17 C :   -0.186970
  18 C :   -0.066076
  19 C :   -0.054738
  20 C :   -0.201162
  21 H :    0.037465
  22 C :   -0.029188
  23 H :    0.025640
  24 H :    0.032422
  25 C :   -0.043501
  26 H :    0.028603
  27 H :    0.027719
  28 C :   -0.073310
  29 H :    0.017689
  30 H :    0.025936
  31 H :    0.024544
  32 H :    0.028727
  33 H :    0.035908

  Mayer bond orders larger than 0.100000
B(  0-S ,  1-C ) :   1.1490 B(  0-S ,  4-C ) :   1.1600 B(  1-C ,  2-C ) :   1.6047
B(  1-C , 32-H ) :   0.9658 B(  2-C ,  3-C ) :   1.2138 B(  2-C ,  6-C ) :   1.0447
B(  3-C ,  4-C ) :   1.5594 B(  3-C ,  5-H ) :   0.9912 B(  4-C , 20-C ) :   1.0579
B(  6-C ,  7-H ) :   0.9379 B(  6-C ,  8-H ) :   0.9325 B(  6-C ,  9-C ) :   1.0570
B(  9-C , 10-H ) :   0.9579 B(  9-C , 11-H ) :   0.9535 B(  9-C , 12-C ) :   1.0610
B( 12-C , 13-H ) :   0.9725 B( 12-C , 14-H ) :   0.9767 B( 12-C , 15-H ) :   0.9731
B( 16-S , 17-C ) :   1.1532 B( 16-S , 20-C ) :   1.1373 B( 17-C , 18-C ) :   1.6001
B( 17-C , 20-C ) :   0.1060 B( 17-C , 33-H ) :   0.9608 B( 18-C , 19-C ) :   1.2435
B( 18-C , 21-H ) :   0.9844 B( 19-C , 20-C ) :   1.6081 B( 19-C , 22-C ) :   1.0340
B( 22-C , 23-H ) :   0.9403 B( 22-C , 24-H ) :   0.9343 B( 22-C , 25-C ) :   1.0522
B( 25-C , 26-H ) :   0.9524 B( 25-C , 27-H ) :   0.9586 B( 25-C , 28-C ) :   1.0800
B( 28-C , 29-H ) :   0.9738 B( 28-C , 30-H ) :   0.9698 B( 28-C , 31-H ) :   0.9740

Dispersion correction           -0.013853550
FINAL SINGLE POINT ENERGY     -1339.862529610158

DIPOLE MOMENT
-------------
                                X             Y             Z
Electronic contribution:     -5.63557      20.72736      20.90513
Nuclear contribution   :      5.71715     -21.14548     -21.35165
                        -----------------------------------------
Total Dipole Moment    :      0.08158      -0.41812      -0.44652
                        -----------------------------------------
Magnitude (a.u.)       :      0.61714
Magnitude (Debye)      :      1.56864

Rotational constants in cm-1:     0.016677     0.008708     0.006885
Rotational constants in MHz :   499.959153   261.049652   206.417191

                             ****ORCA TERMINATED NORMALLY****
TOTAL RUN TIME: 0 days 0 hours 0 minutes 21 seconds 439 msec
