                         Program Version 4.2.1 -  RELEASE  -
|  1> ! wB97X-D3 SP def2-SVP
|  2> %pal
|  3> nprocs 24
|  4> end
|  5>
|  6> * xyz 0 1
|  7> S 	 -143.556 	 9.05858 	 5.66823
|  8> C 	 -143.763 	 7.84744 	 6.97484
|  9> C 	 -143.877 	 6.58017 	 6.4493
| 10> C 	 -143.97 	 6.58108 	 5.02429
| 11> C 	 -143.698 	 7.76077 	 4.41194
| 12> H 	 -144.267 	 5.80072 	 4.45987
| 13> C 	 -144.13 	 5.32323 	 7.1899
| 14> H 	 -143.863 	 5.52292 	 8.19745
| 15> H 	 -143.233 	 4.72158 	 6.81083
| 16> C 	 -145.56 	 4.76322 	 6.88961
| 17> H 	 -145.691 	 4.58914 	 5.9072
| 18> H 	 -145.506 	 3.72842 	 7.15904
| 19> C 	 -146.68 	 5.50607 	 7.54711
| 20> H 	 -146.631 	 6.57854 	 7.40404
| 21> H 	 -147.607 	 5.18995 	 7.0258
| 22> H 	 -146.795 	 5.29838 	 8.59466
| 23> S 	 -144.416 	 9.62013 	 2.51041
| 24> C 	 -144.016 	 9.35957 	 0.775716
| 25> C 	 -143.345 	 8.2172 	 0.651015
| 26> C 	 -143.256 	 7.35975 	 1.84853
| 27> C 	 -143.645 	 8.11138 	 2.96907
| 28> H 	 -142.842 	 8.10921 	 -0.294403
| 29> C 	 -142.566 	 6.04892 	 1.82694
| 30> H 	 -142.793 	 5.46954 	 0.846877
| 31> H 	 -142.987 	 5.42954 	 2.61098
| 32> C 	 -141.087 	 6.087 	 2.07263
| 33> H 	 -140.939 	 6.71309 	 2.97644
| 34> H 	 -140.586 	 6.6602 	 1.20015
| 35> C 	 -140.47 	 4.70978 	 2.07974
| 36> H 	 -139.377 	 4.7569 	 2.23892
| 37> H 	 -140.608 	 4.09784 	 1.1159
| 38> H 	 -140.916 	 4.1969 	 3.00128
| 39> H 	 -143.996 	 8.14287 	 7.95266
| 40> H 	 -143.927 	 10.1574 	 0.0772766
| 41> *
| 42>
| 43>                          ****END OF INPUT****

CARTESIAN COORDINATES (ANGSTROEM)
---------------------------------
  S    -143.556000    9.058580    5.668230
  C    -143.763000    7.847440    6.974840
  C    -143.877000    6.580170    6.449300
  C    -143.970000    6.581080    5.024290
  C    -143.698000    7.760770    4.411940
  H    -144.267000    5.800720    4.459870
  C    -144.130000    5.323230    7.189900
  H    -143.863000    5.522920    8.197450
  H    -143.233000    4.721580    6.810830
  C    -145.560000    4.763220    6.889610
  H    -145.691000    4.589140    5.907200
  H    -145.506000    3.728420    7.159040
  C    -146.680000    5.506070    7.547110
  H    -146.631000    6.578540    7.404040
  H    -147.607000    5.189950    7.025800
  H    -146.795000    5.298380    8.594660
  S    -144.416000    9.620130    2.510410
  C    -144.016000    9.359570    0.775716
  C    -143.345000    8.217200    0.651015
  C    -143.256000    7.359750    1.848530
  C    -143.645000    8.111380    2.969070
  H    -142.842000    8.109210   -0.294403
  C    -142.566000    6.048920    1.826940
  H    -142.793000    5.469540    0.846877
  H    -142.987000    5.429540    2.610980
  C    -141.087000    6.087000    2.072630
  H    -140.939000    6.713090    2.976440
  H    -140.586000    6.660200    1.200150
  C    -140.470000    4.709780    2.079740
  H    -139.377000    4.756900    2.238920
  H    -140.608000    4.097840    1.115900
  H    -140.916000    4.196900    3.001280
  H    -143.996000    8.142870    7.952660
  H    -143.927000   10.157400    0.077277

 Total Charge           Charge          ....    0
 Multiplicity           Mult            ....    1
 Number of Electrons    NEL             ....  134
 Basis Dimension        Dim             ....  322

ORBITAL ENERGIES
----------------

  NO   OCC          E(Eh)            E(eV)
   0   2.0000     -88.960835     -2420.7474
   1   2.0000     -88.960239     -2420.7312
   2   2.0000     -10.335805      -281.2515
   3   2.0000     -10.334916      -281.2274
   4   2.0000     -10.313361      -280.6408
   5   2.0000     -10.311364      -280.5865
   6   2.0000     -10.310498      -280.5629
   7   2.0000     -10.298772      -280.2438
   8   2.0000     -10.294705      -280.1332
   9   2.0000     -10.294477      -280.1270
  10   2.0000     -10.293855      -280.1100
  11   2.0000     -10.291691      -280.0511
  12   2.0000     -10.291095      -280.0349
  13   2.0000     -10.285212      -279.8748
  14   2.0000     -10.282174      -279.7922
  15   2.0000     -10.277931      -279.6767
  16   2.0000      -8.074589      -219.7207
  17   2.0000      -8.074304      -219.7130
  18   2.0000      -6.033374      -164.1765
  19   2.0000      -6.033108      -164.1692
  20   2.0000      -6.029221      -164.0634
  21   2.0000      -6.029070      -164.0593
  22   2.0000      -6.024986      -163.9482
  23   2.0000      -6.024750      -163.9418
  24   2.0000      -1.000933       -27.2368
  25   2.0000      -0.980247       -26.6739
  26   2.0000      -0.916961       -24.9518
  27   2.0000      -0.915595       -24.9146
  28   2.0000      -0.872472       -23.7412
  29   2.0000      -0.850935       -23.1551
  30   2.0000      -0.843226       -22.9454
  31   2.0000      -0.825771       -22.4704
  32   2.0000      -0.780292       -21.2328
  33   2.0000      -0.769594       -20.9417
  34   2.0000      -0.722261       -19.6537
  35   2.0000      -0.702877       -19.1263
  36   2.0000      -0.687194       -18.6995
  37   2.0000      -0.658613       -17.9218
  38   2.0000      -0.646067       -17.5804
  39   2.0000      -0.630043       -17.1444
  40   2.0000      -0.599358       -16.3094
  41   2.0000      -0.569552       -15.4983
  42   2.0000      -0.561680       -15.2841
  43   2.0000      -0.557045       -15.1580
  44   2.0000      -0.536333       -14.5944
  45   2.0000      -0.530724       -14.4417
  46   2.0000      -0.524523       -14.2730
  47   2.0000      -0.512833       -13.9549
  48   2.0000      -0.503104       -13.6902
  49   2.0000      -0.501742       -13.6531
  50   2.0000      -0.491909       -13.3855
  51   2.0000      -0.486853       -13.2480
  52   2.0000      -0.468549       -12.7499
  53   2.0000      -0.460698       -12.5362
  54   2.0000      -0.458901       -12.4873
  55   2.0000      -0.448343       -12.2000
  56   2.0000      -0.439890       -11.9700
  57   2.0000      -0.438131       -11.9222
  58   2.0000      -0.436542       -11.8789
  59   2.0000      -0.430400       -11.7118
  60   2.0000      -0.421246       -11.4627
  61   2.0000      -0.407317       -11.0837
  62   2.0000      -0.405525       -11.0349
  63   2.0000      -0.355054        -9.6615
  64   2.0000      -0.328921        -8.9504
  65   2.0000      -0.322599        -8.7784
  66   2.0000      -0.293668        -7.9911
  67   0.0000       0.019824         0.5394
  68   0.0000       0.078507         2.1363
  69   0.0000       0.105005         2.8573
  70   0.0000       0.111475         3.0334
  71   0.0000       0.132565         3.6073

MULLIKEN ATOMIC CHARGES
-----------------------
   0 S :    0.069409
   1 C :   -0.107459
   2 C :   -0.093379
   3 C :    0.026610
   4 C :   -0.108520
   5 H :   -0.024856
   6 C :    0.051383
   7 H :    0.006297
   8 H :    0.044907
   9 C :    0.006803
  10 H :   -0.008979
  11 H :    0.010420
  12 C :   -0.024082
  13 H :    0.038394
  14 H :    0.032640
  15 H :    0.033778
  16 S :    0.072248
  17 C :   -0.072465
  18 C :   -0.034655
  19 C :   -0.032530
  20 C :   -0.120472
  21 H :    0.021706
  22 C :    0.036617
  23 H :    0.036587
  24 H :    0.000769
  25 C :   -0.089937
  26 H :    0.047066
  27 H :    0.029405
  28 C :   -0.070626
  29 H :    0.043312
  30 H :    0.050835
  31 H :    0.038342
  32 H :    0.035530
  33 H :    0.054901
Sum of atomic charges:    0.0000000

LOEWDIN ATOMIC CHARGES
----------------------
   0 S :    0.346812
   1 C :   -0.176306
   2 C :   -0.060745
   3 C :   -0.054386
   4 C :   -0.161759
   5 H :    0.010481
   6 C :   -0.032486
   7 H :    0.022887
   8 H :    0.046303
   9 C :   -0.031408
  10 H :    0.010926
  11 H :    0.027789
  12 C :   -0.058231
  13 H :    0.027599
  14 H :    0.035182
  15 H :    0.024835
  16 S :    0.369821
  17 C :   -0.171141
  18 C :   -0.060361
  19 C :   -0.055964
  20 C :   -0.183483
  21 H :    0.032683
  22 C :   -0.046828
  23 H :    0.040490
  24 H :    0.023967
  25 C :   -0.050810
  26 H :    0.032945
  27 H :    0.027690
  28 C :   -0.077688
  29 H :    0.028980
  30 H :    0.036031
  31 H :    0.031209
  32 H :    0.017521
  33 H :    0.027446

  Mayer bond orders larger than 0.100000
B(  0-S ,  1-C ) :   1.1120 B(  0-S ,  4-C ) :   1.1180 B(  1-C ,  2-C ) :   1.6286
B(  1-C , 32-H ) :   0.9760 B(  2-C ,  3-C ) :   1.1953 B(  2-C ,  6-C ) :   1.0200
B(  3-C ,  4-C ) :   1.6246 B(  3-C ,  5-H ) :   1.0071 B(  4-C , 20-C ) :   1.0317
B(  6-C ,  7-H ) :   0.9441 B(  6-C ,  8-H ) :   0.9321 B(  6-C ,  9-C ) :   1.0542
B(  9-C , 10-H ) :   0.9537 B(  9-C , 11-H ) :   0.9406 B(  9-C , 12-C ) :   1.0717
B( 12-C , 13-H ) :   0.9763 B( 12-C , 14-H ) :   0.9691 B( 12-C , 15-H ) :   0.9757
B( 16-S , 17-C ) :   1.0998 B( 16-S , 20-C ) :   1.1393 B( 17-C , 18-C ) :   1.7112
B( 17-C , 33-H ) :   0.9606 B( 18-C , 19-C ) :   1.1688 B( 18-C , 21-H ) :   0.9812
B( 19-C , 20-C ) :   1.6121 B( 19-C , 22-C ) :   1.0718 B( 22-C , 23-H ) :   0.9271
B( 22-C , 24-H ) :   0.9244 B( 22-C , 25-C ) :   1.0694 B( 25-C , 26-H ) :   0.9512
B( 25-C , 27-H ) :   0.9502 B( 25-C , 28-C ) :   1.0775 B( 28-C , 29-H ) :   0.9721
B( 28-C , 30-H ) :   0.9701 B( 28-C , 31-H ) :   0.9710

Dispersion correction           -0.014443336
FINAL SINGLE POINT ENERGY     -1339.850314120903

DIPOLE MOMENT
-------------
                                X             Y             Z
Electronic contribution:     -3.26448      24.56991      -3.68741
Nuclear contribution   :      3.35995     -25.33075       3.63653
                        -----------------------------------------
Total Dipole Moment    :      0.09548      -0.76084      -0.05088
                        -----------------------------------------
Magnitude (a.u.)       :      0.76849
Magnitude (Debye)      :      1.95335

Rotational constants in cm-1:     0.017558     0.009106     0.007163
Rotational constants in MHz :   526.380787   272.992190   214.730821

                             ****ORCA TERMINATED NORMALLY****
TOTAL RUN TIME: 0 days 0 hours 0 minutes 22 seconds 128 msec
