                         Program Version 4.2.1 -  RELEASE  -
|  1> ! wB97X-D3 SP def2-SVP
|  2> %pal
|  3> nprocs 24
|  4> end
|  5>
|  6> * xyz 0 1
|  7> S 	 -85.0019 	 0.0266692 	 5.58268
|  8> C 	 -84.7309 	 -0.451504 	 3.94871
|  9> C 	 -85.7822 	 -1.12914 	 3.35096
| 10> C 	 -86.9416 	 -1.18645 	 4.20626
| 11> C 	 -86.6085 	 -0.689957 	 5.44469
| 12> H 	 -87.8853 	 -1.71075 	 3.96734
| 13> C 	 -85.7398 	 -1.92833 	 1.99593
| 14> H 	 -86.3134 	 -2.84066 	 2.21348
| 15> H 	 -84.7999 	 -2.26171 	 1.73906
| 16> C 	 -86.4333 	 -1.24686 	 0.817706
| 17> H 	 -86.4726 	 -1.97444 	 0.0459723
| 18> H 	 -87.4254 	 -0.98772 	 1.02223
| 19> C 	 -85.8086 	 0.116704 	 0.536128
| 20> H 	 -84.7603 	 0.0427908 	 0.525785
| 21> H 	 -86.2072 	 0.64509 	 -0.414878
| 22> H 	 -85.9826 	 0.967611 	 1.24537
| 23> S 	 -87.8503 	 0.805919 	 7.35905
| 24> C 	 -89.119 	 0.063252 	 8.39515
| 25> C 	 -89.194 	 -1.27725 	 8.0924
| 26> C 	 -88.289 	 -1.7349 	 7.08697
| 27> C 	 -87.4638 	 -0.683215 	 6.63038
| 28> H 	 -89.9557 	 -1.87192 	 8.60387
| 29> C 	 -88.2839 	 -3.15646 	 6.67443
| 30> H 	 -88.1646 	 -3.28555 	 5.59083
| 31> H 	 -89.248 	 -3.4994 	 6.98663
| 32> C 	 -87.3617 	 -4.10111 	 7.48002
| 33> H 	 -87.7599 	 -4.12301 	 8.48726
| 34> H 	 -86.3269 	 -3.78349 	 7.4765
| 35> C 	 -87.3935 	 -5.5987 	 7.00986
| 36> H 	 -86.6045 	 -6.22171 	 7.3794
| 37> H 	 -87.3915 	 -5.5645 	 5.87783
| 38> H 	 -88.3773 	 -6.10472 	 7.14179
| 39> H 	 -83.725 	 -0.249984 	 3.57569
| 40> H 	 -89.8031 	 0.485156 	 9.09183
| 41> *
| 42>
| 43>                          ****END OF INPUT****

CARTESIAN COORDINATES (ANGSTROEM)
---------------------------------
  S    -85.001900    0.026669    5.582680
  C    -84.730900   -0.451504    3.948710
  C    -85.782200   -1.129140    3.350960
  C    -86.941600   -1.186450    4.206260
  C    -86.608500   -0.689957    5.444690
  H    -87.885300   -1.710750    3.967340
  C    -85.739800   -1.928330    1.995930
  H    -86.313400   -2.840660    2.213480
  H    -84.799900   -2.261710    1.739060
  C    -86.433300   -1.246860    0.817706
  H    -86.472600   -1.974440    0.045972
  H    -87.425400   -0.987720    1.022230
  C    -85.808600    0.116704    0.536128
  H    -84.760300    0.042791    0.525785
  H    -86.207200    0.645090   -0.414878
  H    -85.982600    0.967611    1.245370
  S    -87.850300    0.805919    7.359050
  C    -89.119000    0.063252    8.395150
  C    -89.194000   -1.277250    8.092400
  C    -88.289000   -1.734900    7.086970
  C    -87.463800   -0.683215    6.630380
  H    -89.955700   -1.871920    8.603870
  C    -88.283900   -3.156460    6.674430
  H    -88.164600   -3.285550    5.590830
  H    -89.248000   -3.499400    6.986630
  C    -87.361700   -4.101110    7.480020
  H    -87.759900   -4.123010    8.487260
  H    -86.326900   -3.783490    7.476500
  C    -87.393500   -5.598700    7.009860
  H    -86.604500   -6.221710    7.379400
  H    -87.391500   -5.564500    5.877830
  H    -88.377300   -6.104720    7.141790
  H    -83.725000   -0.249984    3.575690
  H    -89.803100    0.485156    9.091830

 Total Charge           Charge          ....    0
 Multiplicity           Mult            ....    1
 Number of Electrons    NEL             ....  134
 Basis Dimension        Dim             ....  322

ORBITAL ENERGIES
----------------

  NO   OCC          E(Eh)            E(eV)
   0   2.0000     -88.967276     -2420.9226
   1   2.0000     -88.967117     -2420.9183
   2   2.0000     -10.329748      -281.0867
   3   2.0000     -10.322818      -280.8982
   4   2.0000     -10.316322      -280.7214
   5   2.0000     -10.313146      -280.6350
   6   2.0000     -10.306929      -280.4658
   7   2.0000     -10.300313      -280.2858
   8   2.0000     -10.300226      -280.2834
   9   2.0000     -10.293318      -280.0954
  10   2.0000     -10.291694      -280.0512
  11   2.0000     -10.288271      -279.9581
  12   2.0000     -10.285771      -279.8901
  13   2.0000     -10.282942      -279.8131
  14   2.0000     -10.280005      -279.7332
  15   2.0000     -10.278439      -279.6905
  16   2.0000      -8.082676      -219.9408
  17   2.0000      -8.081641      -219.9126
  18   2.0000      -6.040917      -164.3817
  19   2.0000      -6.040218      -164.3627
  20   2.0000      -6.037349      -164.2846
  21   2.0000      -6.036017      -164.2484
  22   2.0000      -6.033428      -164.1779
  23   2.0000      -6.032498      -164.1526
  24   2.0000      -1.007975       -27.4284
  25   2.0000      -0.983210       -26.7545
  26   2.0000      -0.912508       -24.8306
  27   2.0000      -0.907883       -24.7048
  28   2.0000      -0.868972       -23.6459
  29   2.0000      -0.853257       -23.2183
  30   2.0000      -0.844123       -22.9698
  31   2.0000      -0.811808       -22.0904
  32   2.0000      -0.782718       -21.2989
  33   2.0000      -0.768124       -20.9017
  34   2.0000      -0.709352       -19.3025
  35   2.0000      -0.699374       -19.0309
  36   2.0000      -0.690547       -18.7907
  37   2.0000      -0.663291       -18.0491
  38   2.0000      -0.643683       -17.5155
  39   2.0000      -0.626034       -17.0352
  40   2.0000      -0.593043       -16.1375
  41   2.0000      -0.567995       -15.4559
  42   2.0000      -0.561774       -15.2867
  43   2.0000      -0.551147       -14.9975
  44   2.0000      -0.536786       -14.6067
  45   2.0000      -0.522188       -14.2095
  46   2.0000      -0.519622       -14.1396
  47   2.0000      -0.511493       -13.9184
  48   2.0000      -0.505386       -13.7522
  49   2.0000      -0.496813       -13.5190
  50   2.0000      -0.486670       -13.2430
  51   2.0000      -0.482149       -13.1200
  52   2.0000      -0.470608       -12.8059
  53   2.0000      -0.465715       -12.6727
  54   2.0000      -0.455528       -12.3956
  55   2.0000      -0.448557       -12.2059
  56   2.0000      -0.443515       -12.0686
  57   2.0000      -0.439172       -11.9505
  58   2.0000      -0.435779       -11.8582
  59   2.0000      -0.426784       -11.6134
  60   2.0000      -0.418564       -11.3897
  61   2.0000      -0.415706       -11.3119
  62   2.0000      -0.406795       -11.0695
  63   2.0000      -0.350149        -9.5280
  64   2.0000      -0.334170        -9.0932
  65   2.0000      -0.325215        -8.8496
  66   2.0000      -0.290351        -7.9009
  67   0.0000       0.032153         0.8749
  68   0.0000       0.070009         1.9051
  69   0.0000       0.102451         2.7878
  70   0.0000       0.111577         3.0362
  71   0.0000       0.135700         3.6926

MULLIKEN ATOMIC CHARGES
-----------------------
   0 S :    0.111656
   1 C :   -0.135896
   2 C :   -0.079357
   3 C :    0.020005
   4 C :   -0.171342
   5 H :    0.039674
   6 C :    0.070381
   7 H :    0.022264
   8 H :    0.009428
   9 C :    0.001481
  10 H :    0.025333
  11 H :    0.011488
  12 C :   -0.090581
  13 H :    0.013820
  14 H :    0.039284
  15 H :    0.045555
  16 S :    0.110369
  17 C :   -0.082592
  18 C :   -0.051543
  19 C :   -0.046766
  20 C :   -0.120571
  21 H :    0.023444
  22 C :    0.086902
  23 H :    0.018229
  24 H :    0.001860
  25 C :   -0.054540
  26 H :    0.024524
  27 H :    0.038635
  28 C :   -0.070520
  29 H :    0.046876
  30 H :    0.021012
  31 H :    0.027508
  32 H :    0.051235
  33 H :    0.042748
Sum of atomic charges:   -0.0000000

LOEWDIN ATOMIC CHARGES
----------------------
   0 S :    0.406794
   1 C :   -0.205277
   2 C :   -0.056205
   3 C :   -0.058873
   4 C :   -0.183130
   5 H :    0.041111
   6 C :   -0.016241
   7 H :    0.033168
   8 H :    0.016625
   9 C :   -0.034623
  10 H :    0.022840
  11 H :    0.018787
  12 C :   -0.075877
  13 H :    0.010942
  14 H :    0.034173
  15 H :    0.034838
  16 S :    0.414251
  17 C :   -0.179175
  18 C :   -0.067893
  19 C :   -0.062043
  20 C :   -0.218485
  21 H :    0.033057
  22 C :   -0.033281
  23 H :    0.026042
  24 H :    0.028838
  25 C :   -0.030734
  26 H :    0.022656
  27 H :    0.023890
  28 C :   -0.074708
  29 H :    0.024631
  30 H :    0.026769
  31 H :    0.025510
  32 H :    0.023497
  33 H :    0.028126

  Mayer bond orders larger than 0.100000
B(  0-S ,  1-C ) :   1.1381 B(  0-S ,  4-C ) :   1.1584 B(  1-C ,  2-C ) :   1.6243
B(  1-C , 32-H ) :   0.9700 B(  2-C ,  3-C ) :   1.2207 B(  2-C ,  6-C ) :   1.0044
B(  3-C ,  4-C ) :   1.6065 B(  3-C ,  5-H ) :   0.9819 B(  4-C , 20-C ) :   1.0084
B(  6-C ,  7-H ) :   0.9426 B(  6-C ,  8-H ) :   0.9501 B(  6-C ,  9-C ) :   1.0798
B(  9-C , 10-H ) :   0.9562 B(  9-C , 11-H ) :   0.9538 B(  9-C , 12-C ) :   1.0615
B( 12-C , 13-H ) :   0.9804 B( 12-C , 14-H ) :   0.9735 B( 12-C , 15-H ) :   0.9708
B( 16-S , 17-C ) :   1.1351 B( 16-S , 20-C ) :   1.1655 B( 17-C , 18-C ) :   1.6228
B( 17-C , 33-H ) :   0.9698 B( 18-C , 19-C ) :   1.2587 B( 18-C , 21-H ) :   0.9802
B( 19-C , 20-C ) :   1.5556 B( 19-C , 22-C ) :   1.0640 B( 22-C , 23-H ) :   0.9268
B( 22-C , 24-H ) :   0.9228 B( 22-C , 25-C ) :   1.0655 B( 25-C , 26-H ) :   0.9556
B( 25-C , 27-H ) :   0.9613 B( 25-C , 28-C ) :   1.0728 B( 28-C , 29-H ) :   0.9765
B( 28-C , 30-H ) :   0.9746 B( 28-C , 31-H ) :   0.9748

Dispersion correction           -0.014240669
FINAL SINGLE POINT ENERGY     -1339.864993681425

DIPOLE MOMENT
-------------
                                X             Y             Z
Electronic contribution:      2.36615      19.53871      15.72497
Nuclear contribution   :     -2.62545     -20.10254     -15.99144
                        -----------------------------------------
Total Dipole Moment    :     -0.25930      -0.56384      -0.26648
                        -----------------------------------------
Magnitude (a.u.)       :      0.67540
Magnitude (Debye)      :      1.71672

Rotational constants in cm-1:     0.017918     0.008680     0.006952
Rotational constants in MHz :   537.156356   260.215832   208.424752

                             ****ORCA TERMINATED NORMALLY****
TOTAL RUN TIME: 0 days 0 hours 0 minutes 21 seconds 617 msec
