                         Program Version 4.2.1 -  RELEASE  -
|  1> ! wB97X-D3 SP def2-SVP
|  2> %pal
|  3> nprocs 24
|  4> end
|  5>
|  6> * xyz 0 1
|  7> S 	 -63.5642 	 -0.501767 	 -19.9336
|  8> C 	 -63.9665 	 -0.473019 	 -18.28
|  9> C 	 -62.9076 	 -1.09232 	 -17.5847
| 10> C 	 -61.7733 	 -1.40911 	 -18.337
| 11> C 	 -61.9383 	 -1.21448 	 -19.6955
| 12> H 	 -60.8044 	 -1.78782 	 -17.9413
| 13> C 	 -62.918 	 -1.37281 	 -16.0967
| 14> H 	 -63.6954 	 -0.71985 	 -15.693
| 15> H 	 -62.0178 	 -0.908174 	 -15.6171
| 16> C 	 -63.1623 	 -2.8607 	 -15.6446
| 17> H 	 -62.6207 	 -3.52486 	 -16.3619
| 18> H 	 -62.6565 	 -2.94194 	 -14.7444
| 19> C 	 -64.6396 	 -3.24086 	 -15.3223
| 20> H 	 -65.3116 	 -2.88353 	 -16.1092
| 21> H 	 -64.7846 	 -4.30668 	 -15.1935
| 22> H 	 -65.0044 	 -2.7276 	 -14.375
| 23> S 	 -60.814 	 -0.17839 	 -21.9815
| 24> C 	 -59.5202 	 -1.03489 	 -22.8225
| 25> C 	 -59.2454 	 -2.25332 	 -22.2334
| 26> C 	 -60.0223 	 -2.36485 	 -21.0688
| 27> C 	 -60.9381 	 -1.38876 	 -20.777
| 28> H 	 -58.4461 	 -2.84053 	 -22.6454
| 29> C 	 -59.9987 	 -3.64744 	 -20.2181
| 30> H 	 -60.6883 	 -3.73994 	 -19.3848
| 31> H 	 -58.9415 	 -3.88461 	 -19.8971
| 32> C 	 -60.3767 	 -4.90698 	 -20.9256
| 33> H 	 -60.125 	 -5.85167 	 -20.3813
| 34> H 	 -59.7864 	 -4.95317 	 -21.8805
| 35> C 	 -61.8594 	 -4.83002 	 -21.3022
| 36> H 	 -62.0972 	 -5.74726 	 -21.8735
| 37> H 	 -62.0704 	 -3.8993 	 -21.8925
| 38> H 	 -62.4464 	 -4.72157 	 -20.3633
| 39> H 	 -64.9375 	 -0.311091 	 -17.8433
| 40> H 	 -59.031 	 -0.670854 	 -23.7154
| 41> *
| 42>
| 43>                          ****END OF INPUT****

CARTESIAN COORDINATES (ANGSTROEM)
---------------------------------
  S    -63.564200   -0.501767  -19.933600
  C    -63.966500   -0.473019  -18.280000
  C    -62.907600   -1.092320  -17.584700
  C    -61.773300   -1.409110  -18.337000
  C    -61.938300   -1.214480  -19.695500
  H    -60.804400   -1.787820  -17.941300
  C    -62.918000   -1.372810  -16.096700
  H    -63.695400   -0.719850  -15.693000
  H    -62.017800   -0.908174  -15.617100
  C    -63.162300   -2.860700  -15.644600
  H    -62.620700   -3.524860  -16.361900
  H    -62.656500   -2.941940  -14.744400
  C    -64.639600   -3.240860  -15.322300
  H    -65.311600   -2.883530  -16.109200
  H    -64.784600   -4.306680  -15.193500
  H    -65.004400   -2.727600  -14.375000
  S    -60.814000   -0.178390  -21.981500
  C    -59.520200   -1.034890  -22.822500
  C    -59.245400   -2.253320  -22.233400
  C    -60.022300   -2.364850  -21.068800
  C    -60.938100   -1.388760  -20.777000
  H    -58.446100   -2.840530  -22.645400
  C    -59.998700   -3.647440  -20.218100
  H    -60.688300   -3.739940  -19.384800
  H    -58.941500   -3.884610  -19.897100
  C    -60.376700   -4.906980  -20.925600
  H    -60.125000   -5.851670  -20.381300
  H    -59.786400   -4.953170  -21.880500
  C    -61.859400   -4.830020  -21.302200
  H    -62.097200   -5.747260  -21.873500
  H    -62.070400   -3.899300  -21.892500
  H    -62.446400   -4.721570  -20.363300
  H    -64.937500   -0.311091  -17.843300
  H    -59.031000   -0.670854  -23.715400

 Total Charge           Charge          ....    0
 Multiplicity           Mult            ....    1
 Number of Electrons    NEL             ....  134
 Basis Dimension        Dim             ....  322

ORBITAL ENERGIES
----------------

  NO   OCC          E(Eh)            E(eV)
   0   2.0000     -88.969763     -2420.9903
   1   2.0000     -88.966492     -2420.9013
   2   2.0000     -10.338515      -281.3253
   3   2.0000     -10.328969      -281.0655
   4   2.0000     -10.321929      -280.8740
   5   2.0000     -10.316331      -280.7217
   6   2.0000     -10.305267      -280.4206
   7   2.0000     -10.299791      -280.2716
   8   2.0000     -10.298435      -280.2347
   9   2.0000     -10.295302      -280.1494
  10   2.0000     -10.293248      -280.0935
  11   2.0000     -10.289195      -279.9832
  12   2.0000     -10.286205      -279.9019
  13   2.0000     -10.286167      -279.9008
  14   2.0000     -10.282147      -279.7914
  15   2.0000     -10.274147      -279.5737
  16   2.0000      -8.084241      -219.9834
  17   2.0000      -8.081795      -219.9168
  18   2.0000      -6.042760      -164.4318
  19   2.0000      -6.040207      -164.3624
  20   2.0000      -6.038577      -164.3180
  21   2.0000      -6.036083      -164.2502
  22   2.0000      -6.035189      -164.2258
  23   2.0000      -6.032743      -164.1593
  24   2.0000      -1.013820       -27.5874
  25   2.0000      -0.992793       -27.0153
  26   2.0000      -0.913365       -24.8539
  27   2.0000      -0.903143       -24.5758
  28   2.0000      -0.874802       -23.8046
  29   2.0000      -0.851633       -23.1741
  30   2.0000      -0.842342       -22.9213
  31   2.0000      -0.819297       -22.2942
  32   2.0000      -0.775650       -21.1065
  33   2.0000      -0.767949       -20.8969
  34   2.0000      -0.710466       -19.3328
  35   2.0000      -0.698804       -19.0154
  36   2.0000      -0.686261       -18.6741
  37   2.0000      -0.658585       -17.9210
  38   2.0000      -0.641187       -17.4476
  39   2.0000      -0.625398       -17.0180
  40   2.0000      -0.603096       -16.4111
  41   2.0000      -0.575978       -15.6732
  42   2.0000      -0.552701       -15.0398
  43   2.0000      -0.551239       -15.0000
  44   2.0000      -0.535937       -14.5836
  45   2.0000      -0.527946       -14.3661
  46   2.0000      -0.520105       -14.1528
  47   2.0000      -0.515279       -14.0215
  48   2.0000      -0.509866       -13.8742
  49   2.0000      -0.493615       -13.4320
  50   2.0000      -0.489074       -13.3084
  51   2.0000      -0.480089       -13.0639
  52   2.0000      -0.476464       -12.9652
  53   2.0000      -0.463494       -12.6123
  54   2.0000      -0.460752       -12.5377
  55   2.0000      -0.446399       -12.1471
  56   2.0000      -0.439993       -11.9728
  57   2.0000      -0.434484       -11.8229
  58   2.0000      -0.427166       -11.6238
  59   2.0000      -0.420064       -11.4305
  60   2.0000      -0.412854       -11.2343
  61   2.0000      -0.409259       -11.1365
  62   2.0000      -0.405314       -11.0292
  63   2.0000      -0.360685        -9.8147
  64   2.0000      -0.336119        -9.1463
  65   2.0000      -0.329100        -8.9553
  66   2.0000      -0.290929        -7.9166
  67   0.0000       0.025320         0.6890
  68   0.0000       0.071458         1.9445
  69   0.0000       0.115085         3.1316
  70   0.0000       0.118479         3.2240
  71   0.0000       0.129136         3.5140

MULLIKEN ATOMIC CHARGES
-----------------------
   0 S :    0.112675
   1 C :   -0.094006
   2 C :   -0.120111
   3 C :    0.022924
   4 C :   -0.134945
   5 H :    0.037270
   6 C :    0.016177
   7 H :    0.006913
   8 H :    0.038793
   9 C :   -0.024367
  10 H :    0.035061
  11 H :    0.013974
  12 C :   -0.070700
  13 H :    0.032104
  14 H :    0.041691
  15 H :    0.038585
  16 S :    0.103849
  17 C :   -0.100738
  18 C :   -0.025203
  19 C :   -0.035721
  20 C :   -0.131199
  21 H :    0.029108
  22 C :    0.046801
  23 H :    0.020245
  24 H :    0.029183
  25 C :   -0.108416
  26 H :    0.038629
  27 H :    0.017587
  28 C :   -0.076629
  29 H :    0.041954
  30 H :    0.054293
  31 H :    0.031591
  32 H :    0.055704
  33 H :    0.056918
Sum of atomic charges:   -0.0000000

LOEWDIN ATOMIC CHARGES
----------------------
   0 S :    0.416623
   1 C :   -0.216351
   2 C :   -0.071105
   3 C :   -0.067047
   4 C :   -0.180028
   5 H :    0.042133
   6 C :   -0.039551
   7 H :    0.025809
   8 H :    0.036939
   9 C :   -0.036956
  10 H :    0.028116
  11 H :    0.016013
  12 C :   -0.068199
  13 H :    0.022593
  14 H :    0.026581
  15 H :    0.032460
  16 S :    0.418689
  17 C :   -0.169388
  18 C :   -0.068360
  19 C :   -0.060243
  20 C :   -0.210994
  21 H :    0.038387
  22 C :   -0.041633
  23 H :    0.025824
  24 H :    0.033448
  25 C :   -0.051636
  26 H :    0.026761
  27 H :    0.017194
  28 C :   -0.072894
  29 H :    0.026917
  30 H :    0.033392
  31 H :    0.024980
  32 H :    0.033028
  33 H :    0.028497

  Mayer bond orders larger than 0.100000
B(  0-S ,  1-C ) :   1.1552 B(  0-S ,  4-C ) :   1.1619 B(  1-C ,  2-C ) :   1.5623
B(  1-C ,  4-C ) :   0.1099 B(  1-C , 32-H ) :   0.9668 B(  2-C ,  3-C ) :   1.2801
B(  2-C ,  6-C ) :   1.0341 B(  3-C ,  4-C ) :   1.5395 B(  3-C ,  5-H ) :   0.9867
B(  4-C , 20-C ) :   1.0303 B(  6-C ,  7-H ) :   0.9423 B(  6-C ,  8-H ) :   0.9483
B(  6-C ,  9-C ) :   1.0426 B(  9-C , 10-H ) :   0.9621 B(  9-C , 11-H ) :   0.9547
B(  9-C , 12-C ) :   1.0724 B( 12-C , 13-H ) :   0.9804 B( 12-C , 14-H ) :   0.9757
B( 12-C , 15-H ) :   0.9748 B( 16-S , 17-C ) :   1.1761 B( 16-S , 20-C ) :   1.1374
B( 17-C , 18-C ) :   1.5873 B( 17-C , 33-H ) :   0.9677 B( 18-C , 19-C ) :   1.2387
B( 18-C , 21-H ) :   0.9988 B( 19-C , 20-C ) :   1.5949 B( 19-C , 22-C ) :   1.0405
B( 22-C , 23-H ) :   0.9478 B( 22-C , 24-H ) :   0.9292 B( 22-C , 25-C ) :   1.0688
B( 25-C , 26-H ) :   0.9558 B( 25-C , 27-H ) :   0.9488 B( 25-C , 28-C ) :   1.0698
B( 28-C , 29-H ) :   0.9740 B( 28-C , 30-H ) :   0.9736 B( 28-C , 31-H ) :   0.9728

Dispersion correction           -0.014966885
FINAL SINGLE POINT ENERGY     -1339.872687512002

DIPOLE MOMENT
-------------
                                X             Y             Z
Electronic contribution:      2.79247      21.29866     -16.96538
Nuclear contribution   :     -2.52962     -21.72257      17.32524
                        -----------------------------------------
Total Dipole Moment    :      0.26284      -0.42391       0.35986
                        -----------------------------------------
Magnitude (a.u.)       :      0.61505
Magnitude (Debye)      :      1.56332

Rotational constants in cm-1:     0.021363     0.008688     0.007044
Rotational constants in MHz :   640.442205   260.457202   211.186348

                             ****ORCA TERMINATED NORMALLY****
TOTAL RUN TIME: 0 days 0 hours 0 minutes 22 seconds 486 msec
