                         Program Version 4.2.1 -  RELEASE  -
|  1> ! wB97X-D3 SP def2-SVP
|  2> %pal
|  3> nprocs 24
|  4> end
|  5>
|  6> * xyz 0 1
|  7> S 	 -126.876 	 63.4266 	 -44.735
|  8> C 	 -125.158 	 63.1575 	 -44.785
|  9> C 	 -124.549 	 63.1377 	 -43.5535
| 10> C 	 -125.546 	 63.3246 	 -42.4954
| 11> C 	 -126.825 	 63.7371 	 -42.9948
| 12> H 	 -125.543 	 63.256 	 -41.4544
| 13> C 	 -123.083 	 62.8505 	 -43.3358
| 14> H 	 -122.631 	 63.8314 	 -43.365
| 15> H 	 -122.729 	 62.2739 	 -44.1733
| 16> C 	 -122.731 	 62.0592 	 -42.0795
| 17> H 	 -121.689 	 62.0891 	 -41.8702
| 18> H 	 -123.159 	 62.5707 	 -41.2381
| 19> C 	 -123.261 	 60.6543 	 -42.1452
| 20> H 	 -122.657 	 59.9908 	 -41.496
| 21> H 	 -124.286 	 60.4028 	 -41.8359
| 22> H 	 -122.968 	 60.235 	 -43.1111
| 23> S 	 -129.35 	 63.321 	 -41.8206
| 24> C 	 -129.866 	 64.4159 	 -40.6341
| 25> C 	 -129.299 	 65.6826 	 -40.8726
| 26> C 	 -128.241 	 65.5795 	 -41.8016
| 27> C 	 -127.987 	 64.2877 	 -42.2559
| 28> H 	 -129.51 	 66.4653 	 -40.1946
| 29> C 	 -127.395 	 66.7969 	 -42.0379
| 30> H 	 -126.446 	 66.4059 	 -42.3599
| 31> H 	 -127.275 	 67.3579 	 -41.0812
| 32> C 	 -127.983 	 67.5923 	 -43.1745
| 33> H 	 -129.042 	 67.7486 	 -43.0101
| 34> H 	 -127.773 	 67.0271 	 -44.1359
| 35> C 	 -127.338 	 68.9895 	 -43.409
| 36> H 	 -127.647 	 69.658 	 -42.6515
| 37> H 	 -127.739 	 69.5229 	 -44.3009
| 38> H 	 -126.197 	 68.8528 	 -43.5151
| 39> H 	 -124.608 	 63.1064 	 -45.7148
| 40> H 	 -130.732 	 64.3356 	 -39.9123
| 41> *
| 42>
| 43>                          ****END OF INPUT****

CARTESIAN COORDINATES (ANGSTROEM)
---------------------------------
  S    -126.876000   63.426600  -44.735000
  C    -125.158000   63.157500  -44.785000
  C    -124.549000   63.137700  -43.553500
  C    -125.546000   63.324600  -42.495400
  C    -126.825000   63.737100  -42.994800
  H    -125.543000   63.256000  -41.454400
  C    -123.083000   62.850500  -43.335800
  H    -122.631000   63.831400  -43.365000
  H    -122.729000   62.273900  -44.173300
  C    -122.731000   62.059200  -42.079500
  H    -121.689000   62.089100  -41.870200
  H    -123.159000   62.570700  -41.238100
  C    -123.261000   60.654300  -42.145200
  H    -122.657000   59.990800  -41.496000
  H    -124.286000   60.402800  -41.835900
  H    -122.968000   60.235000  -43.111100
  S    -129.350000   63.321000  -41.820600
  C    -129.866000   64.415900  -40.634100
  C    -129.299000   65.682600  -40.872600
  C    -128.241000   65.579500  -41.801600
  C    -127.987000   64.287700  -42.255900
  H    -129.510000   66.465300  -40.194600
  C    -127.395000   66.796900  -42.037900
  H    -126.446000   66.405900  -42.359900
  H    -127.275000   67.357900  -41.081200
  C    -127.983000   67.592300  -43.174500
  H    -129.042000   67.748600  -43.010100
  H    -127.773000   67.027100  -44.135900
  C    -127.338000   68.989500  -43.409000
  H    -127.647000   69.658000  -42.651500
  H    -127.739000   69.522900  -44.300900
  H    -126.197000   68.852800  -43.515100
  H    -124.608000   63.106400  -45.714800
  H    -130.732000   64.335600  -39.912300

 Total Charge           Charge          ....    0
 Multiplicity           Mult            ....    1
 Number of Electrons    NEL             ....  134
 Basis Dimension        Dim             ....  322

ORBITAL ENERGIES
----------------

  NO   OCC          E(Eh)            E(eV)
   0   2.0000     -88.964111     -2420.8365
   1   2.0000     -88.964031     -2420.8343
   2   2.0000     -10.335891      -281.2539
   3   2.0000     -10.324061      -280.9320
   4   2.0000     -10.319453      -280.8066
   5   2.0000     -10.311562      -280.5919
   6   2.0000     -10.306179      -280.4454
   7   2.0000     -10.301378      -280.3147
   8   2.0000     -10.300099      -280.2799
   9   2.0000     -10.289714      -279.9974
  10   2.0000     -10.288363      -279.9606
  11   2.0000     -10.284082      -279.8441
  12   2.0000     -10.283586      -279.8306
  13   2.0000     -10.282575      -279.8031
  14   2.0000     -10.279295      -279.7138
  15   2.0000     -10.277287      -279.6592
  16   2.0000      -8.080252      -219.8748
  17   2.0000      -8.078670      -219.8318
  18   2.0000      -6.038594      -164.3185
  19   2.0000      -6.037103      -164.2779
  20   2.0000      -6.034558      -164.2087
  21   2.0000      -6.033208      -164.1719
  22   2.0000      -6.031089      -164.1143
  23   2.0000      -6.029513      -164.0714
  24   2.0000      -1.008742       -27.4493
  25   2.0000      -0.984055       -26.7775
  26   2.0000      -0.917448       -24.9650
  27   2.0000      -0.910832       -24.7850
  28   2.0000      -0.866924       -23.5902
  29   2.0000      -0.847231       -23.0543
  30   2.0000      -0.843252       -22.9461
  31   2.0000      -0.814327       -22.1590
  32   2.0000      -0.782487       -21.2925
  33   2.0000      -0.769859       -20.9489
  34   2.0000      -0.710981       -19.3468
  35   2.0000      -0.691335       -18.8122
  36   2.0000      -0.684939       -18.6381
  37   2.0000      -0.659256       -17.9393
  38   2.0000      -0.647411       -17.6169
  39   2.0000      -0.617604       -16.8059
  40   2.0000      -0.592935       -16.1346
  41   2.0000      -0.571295       -15.5457
  42   2.0000      -0.565300       -15.3826
  43   2.0000      -0.560343       -15.2477
  44   2.0000      -0.539843       -14.6899
  45   2.0000      -0.518459       -14.1080
  46   2.0000      -0.517853       -14.0915
  47   2.0000      -0.515629       -14.0310
  48   2.0000      -0.506146       -13.7729
  49   2.0000      -0.498440       -13.5632
  50   2.0000      -0.485319       -13.2062
  51   2.0000      -0.475984       -12.9522
  52   2.0000      -0.473981       -12.8977
  53   2.0000      -0.463227       -12.6051
  54   2.0000      -0.460596       -12.5335
  55   2.0000      -0.446183       -12.1412
  56   2.0000      -0.443494       -12.0681
  57   2.0000      -0.437326       -11.9003
  58   2.0000      -0.423024       -11.5111
  59   2.0000      -0.421396       -11.4668
  60   2.0000      -0.418923       -11.3995
  61   2.0000      -0.416695       -11.3389
  62   2.0000      -0.410164       -11.1611
  63   2.0000      -0.330418        -8.9911
  64   2.0000      -0.325737        -8.8638
  65   2.0000      -0.322307        -8.7704
  66   2.0000      -0.303225        -8.2512
  67   0.0000       0.042495         1.1563
  68   0.0000       0.042817         1.1651
  69   0.0000       0.114255         3.1090
  70   0.0000       0.117832         3.2064
  71   0.0000       0.136068         3.7026

MULLIKEN ATOMIC CHARGES
-----------------------
   0 S :    0.113016
   1 C :   -0.120596
   2 C :   -0.091921
   3 C :    0.071030
   4 C :   -0.210277
   5 H :   -0.004969
   6 C :    0.084532
   7 H :    0.040909
   8 H :    0.017364
   9 C :   -0.042008
  10 H :    0.022538
  11 H :    0.020167
  12 C :   -0.051736
  13 H :    0.018307
  14 H :    0.053986
  15 H :    0.018552
  16 S :    0.130444
  17 C :   -0.114158
  18 C :   -0.041626
  19 C :   -0.028726
  20 C :   -0.180719
  21 H :    0.013452
  22 C :    0.097121
  23 H :    0.015184
  24 H :    0.031928
  25 C :   -0.108884
  26 H :    0.028434
  27 H :    0.044859
  28 C :   -0.050989
  29 H :    0.020286
  30 H :    0.034334
  31 H :    0.045847
  32 H :    0.047706
  33 H :    0.076613
Sum of atomic charges:   -0.0000000

LOEWDIN ATOMIC CHARGES
----------------------
   0 S :    0.398663
   1 C :   -0.198422
   2 C :   -0.061021
   3 C :   -0.047694
   4 C :   -0.191720
   5 H :    0.021820
   6 C :   -0.027511
   7 H :    0.035308
   8 H :    0.026108
   9 C :   -0.040313
  10 H :    0.025453
  11 H :    0.021800
  12 C :   -0.070682
  13 H :    0.029049
  14 H :    0.032410
  15 H :    0.025358
  16 S :    0.440087
  17 C :   -0.205515
  18 C :   -0.078921
  19 C :   -0.044014
  20 C :   -0.229670
  21 H :    0.025656
  22 C :   -0.032216
  23 H :    0.027613
  24 H :    0.031640
  25 C :   -0.042436
  26 H :    0.019954
  27 H :    0.034600
  28 C :   -0.074289
  29 H :    0.014638
  30 H :    0.029254
  31 H :    0.034405
  32 H :    0.027274
  33 H :    0.043335

  Mayer bond orders larger than 0.100000
B(  0-S ,  1-C ) :   1.1437 B(  0-S ,  4-C ) :   1.1541 B(  1-C ,  2-C ) :   1.6328
B(  1-C , 32-H ) :   0.9657 B(  2-C ,  3-C ) :   1.1965 B(  2-C ,  6-C ) :   1.0050
B(  3-C ,  4-C ) :   1.5938 B(  3-C ,  5-H ) :   1.0014 B(  4-C , 20-C ) :   1.0220
B(  6-C ,  7-H ) :   0.9277 B(  6-C ,  8-H ) :   0.9477 B(  6-C ,  9-C ) :   1.0930
B(  9-C , 10-H ) :   0.9515 B(  9-C , 11-H ) :   0.9451 B(  9-C , 12-C ) :   1.0782
B( 12-C , 13-H ) :   0.9704 B( 12-C , 14-H ) :   0.9746 B( 12-C , 15-H ) :   0.9726
B( 16-S , 17-C ) :   1.1990 B( 16-S , 20-C ) :   1.1453 B( 17-C , 18-C ) :   1.5668
B( 17-C , 20-C ) :   0.1060 B( 17-C , 33-H ) :   0.9585 B( 18-C , 19-C ) :   1.2659
B( 18-C , 21-H ) :   0.9975 B( 19-C , 20-C ) :   1.5674 B( 19-C , 22-C ) :   1.0461
B( 22-C , 23-H ) :   0.9170 B( 22-C , 24-H ) :   0.9464 B( 22-C , 25-C ) :   1.0617
B( 25-C , 26-H ) :   0.9613 B( 25-C , 27-H ) :   0.9529 B( 25-C , 28-C ) :   1.0839
B( 28-C , 29-H ) :   0.9750 B( 28-C , 30-H ) :   0.9740 B( 28-C , 31-H ) :   0.9720

Dispersion correction           -0.014303580
FINAL SINGLE POINT ENERGY     -1339.854548994621

DIPOLE MOMENT
-------------
                                X             Y             Z
Electronic contribution:    -17.66481      -8.86740      -3.15030
Nuclear contribution   :     18.14844       9.10630       3.49484
                        -----------------------------------------
Total Dipole Moment    :      0.48363       0.23890       0.34453
                        -----------------------------------------
Magnitude (a.u.)       :      0.64006
Magnitude (Debye)      :      1.62691

Rotational constants in cm-1:     0.018575     0.008246     0.007063
Rotational constants in MHz :   556.869257   247.204471   211.741190

                             ****ORCA TERMINATED NORMALLY****
TOTAL RUN TIME: 0 days 0 hours 0 minutes 21 seconds 473 msec
