                         Program Version 4.2.1 -  RELEASE  -
|  1> ! wB97X-D3 SP def2-SVP
|  2> %pal
|  3> nprocs 24
|  4> end
|  5>
|  6> * xyz 0 1
|  7> S 	 -104.726 	 3.3733 	 -111.213
|  8> C 	 -106.412 	 3.62239 	 -111.405
|  9> C 	 -106.979 	 2.60134 	 -112.161
| 10> C 	 -106.016 	 1.60668 	 -112.574
| 11> C 	 -104.793 	 1.88806 	 -112.073
| 12> H 	 -106.106 	 0.846815 	 -113.261
| 13> C 	 -108.412 	 2.60355 	 -112.651
| 14> H 	 -109.069 	 2.99875 	 -111.874
| 15> H 	 -108.888 	 1.58249 	 -112.709
| 16> C 	 -108.683 	 3.23275 	 -113.995
| 17> H 	 -108.06 	 4.13795 	 -114.093
| 18> H 	 -108.31 	 2.56458 	 -114.737
| 19> C 	 -110.176 	 3.53635 	 -114.28
| 20> H 	 -110.589 	 4.06641 	 -113.451
| 21> H 	 -110.247 	 4.18561 	 -115.156
| 22> H 	 -110.672 	 2.63401 	 -114.588
| 23> S 	 -102.381 	 1.90859 	 -113.121
| 24> C 	 -101.392 	 0.451401 	 -113.063
| 25> C 	 -102.059 	 -0.692195 	 -112.612
| 26> C 	 -103.335 	 -0.30635 	 -112.076
| 27> C 	 -103.605 	 1.05261 	 -112.29
| 28> H 	 -101.655 	 -1.66904 	 -112.615
| 29> C 	 -104.312 	 -1.37161 	 -111.49
| 30> H 	 -103.999 	 -2.3163 	 -111.765
| 31> H 	 -105.314 	 -1.20561 	 -111.896
| 32> C 	 -104.543 	 -1.38365 	 -109.959
| 33> H 	 -104.819 	 -0.333768 	 -109.668
| 34> H 	 -103.604 	 -1.60274 	 -109.484
| 35> C 	 -105.632 	 -2.38269 	 -109.472
| 36> H 	 -105.572 	 -3.33598 	 -109.946
| 37> H 	 -106.62 	 -2.04425 	 -109.742
| 38> H 	 -105.458 	 -2.59042 	 -108.401
| 39> H 	 -106.914 	 4.51516 	 -111.131
| 40> H 	 -100.45 	 0.3785 	 -113.641
| 41> *
| 42>
| 43>                          ****END OF INPUT****

CARTESIAN COORDINATES (ANGSTROEM)
---------------------------------
  S    -104.726000    3.373300  -111.213000
  C    -106.412000    3.622390  -111.405000
  C    -106.979000    2.601340  -112.161000
  C    -106.016000    1.606680  -112.574000
  C    -104.793000    1.888060  -112.073000
  H    -106.106000    0.846815  -113.261000
  C    -108.412000    2.603550  -112.651000
  H    -109.069000    2.998750  -111.874000
  H    -108.888000    1.582490  -112.709000
  C    -108.683000    3.232750  -113.995000
  H    -108.060000    4.137950  -114.093000
  H    -108.310000    2.564580  -114.737000
  C    -110.176000    3.536350  -114.280000
  H    -110.589000    4.066410  -113.451000
  H    -110.247000    4.185610  -115.156000
  H    -110.672000    2.634010  -114.588000
  S    -102.381000    1.908590  -113.121000
  C    -101.392000    0.451401  -113.063000
  C    -102.059000   -0.692195  -112.612000
  C    -103.335000   -0.306350  -112.076000
  C    -103.605000    1.052610  -112.290000
  H    -101.655000   -1.669040  -112.615000
  C    -104.312000   -1.371610  -111.490000
  H    -103.999000   -2.316300  -111.765000
  H    -105.314000   -1.205610  -111.896000
  C    -104.543000   -1.383650  -109.959000
  H    -104.819000   -0.333768  -109.668000
  H    -103.604000   -1.602740  -109.484000
  C    -105.632000   -2.382690  -109.472000
  H    -105.572000   -3.335980  -109.946000
  H    -106.620000   -2.044250  -109.742000
  H    -105.458000   -2.590420  -108.401000
  H    -106.914000    4.515160  -111.131000
  H    -100.450000    0.378500  -113.641000

 Total Charge           Charge          ....    0
 Multiplicity           Mult            ....    1
 Number of Electrons    NEL             ....  134
 Basis Dimension        Dim             ....  322

ORBITAL ENERGIES
----------------

  NO   OCC          E(Eh)            E(eV)
   0   2.0000     -88.969069     -2420.9714
   1   2.0000     -88.965728     -2420.8805
   2   2.0000     -10.322840      -280.8987
   3   2.0000     -10.321203      -280.8542
   4   2.0000     -10.319123      -280.7976
   5   2.0000     -10.310030      -280.5502
   6   2.0000     -10.307833      -280.4904
   7   2.0000     -10.303326      -280.3677
   8   2.0000     -10.297115      -280.1987
   9   2.0000     -10.289402      -279.9889
  10   2.0000     -10.287240      -279.9300
  11   2.0000     -10.284643      -279.8594
  12   2.0000     -10.284117      -279.8451
  13   2.0000     -10.281119      -279.7635
  14   2.0000     -10.276655      -279.6420
  15   2.0000     -10.275905      -279.6216
  16   2.0000      -8.084316      -219.9854
  17   2.0000      -8.081794      -219.9168
  18   2.0000      -6.042626      -164.4282
  19   2.0000      -6.040160      -164.3611
  20   2.0000      -6.038815      -164.3245
  21   2.0000      -6.036109      -164.2509
  22   2.0000      -6.035189      -164.2259
  23   2.0000      -6.032623      -164.1560
  24   2.0000      -1.013714       -27.5846
  25   2.0000      -0.986569       -26.8459
  26   2.0000      -0.911349       -24.7991
  27   2.0000      -0.901414       -24.5287
  28   2.0000      -0.871273       -23.7085
  29   2.0000      -0.854054       -23.2400
  30   2.0000      -0.846872       -23.0446
  31   2.0000      -0.814204       -22.1556
  32   2.0000      -0.782548       -21.2942
  33   2.0000      -0.770448       -20.9650
  34   2.0000      -0.703058       -19.1312
  35   2.0000      -0.698082       -18.9958
  36   2.0000      -0.686391       -18.6777
  37   2.0000      -0.669384       -18.2149
  38   2.0000      -0.652365       -17.7517
  39   2.0000      -0.619773       -16.8649
  40   2.0000      -0.593029       -16.1371
  41   2.0000      -0.573574       -15.6077
  42   2.0000      -0.566747       -15.4220
  43   2.0000      -0.556879       -15.1535
  44   2.0000      -0.522906       -14.2290
  45   2.0000      -0.518976       -14.1220
  46   2.0000      -0.514385       -13.9971
  47   2.0000      -0.510213       -13.8836
  48   2.0000      -0.505674       -13.7601
  49   2.0000      -0.499368       -13.5885
  50   2.0000      -0.494400       -13.4533
  51   2.0000      -0.481806       -13.1106
  52   2.0000      -0.475325       -12.9343
  53   2.0000      -0.465220       -12.6593
  54   2.0000      -0.457132       -12.4392
  55   2.0000      -0.455748       -12.4015
  56   2.0000      -0.449726       -12.2377
  57   2.0000      -0.434801       -11.8315
  58   2.0000      -0.429591       -11.6898
  59   2.0000      -0.424771       -11.5586
  60   2.0000      -0.423623       -11.5274
  61   2.0000      -0.417553       -11.3622
  62   2.0000      -0.407139       -11.0788
  63   2.0000      -0.346042        -9.4163
  64   2.0000      -0.332669        -9.0524
  65   2.0000      -0.328590        -8.9414
  66   2.0000      -0.295071        -8.0293
  67   0.0000       0.036105         0.9825
  68   0.0000       0.068230         1.8566
  69   0.0000       0.102495         2.7890
  70   0.0000       0.123590         3.3630
  71   0.0000       0.136387         3.7113

MULLIKEN ATOMIC CHARGES
-----------------------
   0 S :    0.125050
   1 C :   -0.105150
   2 C :   -0.065742
   3 C :    0.062628
   4 C :   -0.150352
   5 H :   -0.011113
   6 C :    0.027445
   7 H :    0.013060
   8 H :    0.019819
   9 C :   -0.066227
  10 H :    0.025826
  11 H :    0.016993
  12 C :   -0.024499
  13 H :    0.032396
  14 H :    0.030285
  15 H :    0.031896
  16 S :    0.120812
  17 C :   -0.099507
  18 C :   -0.031061
  19 C :   -0.029151
  20 C :   -0.180218
  21 H :    0.012974
  22 C :    0.105401
  23 H :   -0.010411
  24 H :    0.015009
  25 C :   -0.089401
  26 H :    0.043909
  27 H :    0.019806
  28 C :   -0.033000
  29 H :    0.012665
  30 H :    0.032135
  31 H :    0.045093
  32 H :    0.037629
  33 H :    0.065001
Sum of atomic charges:   -0.0000000

LOEWDIN ATOMIC CHARGES
----------------------
   0 S :    0.431192
   1 C :   -0.203711
   2 C :   -0.054397
   3 C :   -0.054520
   4 C :   -0.208343
   5 H :    0.020910
   6 C :   -0.047344
   7 H :    0.025862
   8 H :    0.033126
   9 C :   -0.041048
  10 H :    0.022663
  11 H :    0.018901
  12 C :   -0.057342
  13 H :    0.021912
  14 H :    0.029810
  15 H :    0.024707
  16 S :    0.428690
  17 C :   -0.190655
  18 C :   -0.058854
  19 C :   -0.051697
  20 C :   -0.210747
  21 H :    0.028476
  22 C :   -0.024150
  23 H :    0.013695
  24 H :    0.028197
  25 C :   -0.037431
  26 H :    0.030396
  27 H :    0.016640
  28 C :   -0.064809
  29 H :    0.018533
  30 H :    0.024595
  31 H :    0.034477
  32 H :    0.022839
  33 H :    0.029428

  Mayer bond orders larger than 0.100000
B(  0-S ,  1-C ) :   1.1405 B(  0-S ,  4-C ) :   1.1651 B(  1-C ,  2-C ) :   1.6050
B(  1-C , 32-H ) :   0.9759 B(  2-C ,  3-C ) :   1.2196 B(  2-C ,  6-C ) :   1.0363
B(  3-C ,  4-C ) :   1.5878 B(  3-C ,  5-H ) :   1.0101 B(  4-C , 20-C ) :   0.9904
B(  6-C ,  7-H ) :   0.9409 B(  6-C ,  8-H ) :   0.9384 B(  6-C ,  9-C ) :   1.0569
B(  9-C , 10-H ) :   0.9589 B(  9-C , 11-H ) :   0.9530 B(  9-C , 12-C ) :   1.0820
B( 12-C , 13-H ) :   0.9776 B( 12-C , 14-H ) :   0.9735 B( 12-C , 15-H ) :   0.9757
B( 16-S , 17-C ) :   1.1575 B( 16-S , 20-C ) :   1.1778 B( 17-C , 18-C ) :   1.6032
B( 17-C , 20-C ) :   0.1020 B( 17-C , 33-H ) :   0.9617 B( 18-C , 19-C ) :   1.2475
B( 18-C , 21-H ) :   0.9951 B( 19-C , 20-C ) :   1.5939 B( 19-C , 22-C ) :   1.0360
B( 22-C , 23-H ) :   0.9303 B( 22-C , 24-H ) :   0.9397 B( 22-C , 25-C ) :   1.0636
B( 25-C , 26-H ) :   0.9598 B( 25-C , 27-H ) :   0.9574 B( 25-C , 28-C ) :   1.0754
B( 28-C , 29-H ) :   0.9736 B( 28-C , 30-H ) :   0.9751 B( 28-C , 31-H ) :   0.9757

Dispersion correction           -0.013853635
FINAL SINGLE POINT ENERGY     -1339.877013215732

DIPOLE MOMENT
-------------
                                X             Y             Z
Electronic contribution:     23.73835      11.68140      -0.82991
Nuclear contribution   :    -24.12453     -12.05199       0.54682
                        -----------------------------------------
Total Dipole Moment    :     -0.38618      -0.37060      -0.28309
                        -----------------------------------------
Magnitude (a.u.)       :      0.60549
Magnitude (Debye)      :      1.53902

Rotational constants in cm-1:     0.017712     0.008181     0.006717
Rotational constants in MHz :   530.994391   245.247288   201.371634

                             ****ORCA TERMINATED NORMALLY****
TOTAL RUN TIME: 0 days 0 hours 0 minutes 21 seconds 192 msec
