                         Program Version 4.2.1 -  RELEASE  -
|  1> ! wB97X-D3 SP def2-SVP
|  2> %pal
|  3> nprocs 24
|  4> end
|  5>
|  6> * xyz 0 1
|  7> S 	 -124.75 	 60.298 	 -58.2917
|  8> C 	 -124.679 	 61.5077 	 -59.6091
|  9> C 	 -125.691 	 62.4334 	 -59.4853
| 10> C 	 -126.542 	 62.0962 	 -58.4215
| 11> C 	 -126.112 	 61.0787 	 -57.5983
| 12> H 	 -127.514 	 62.5571 	 -58.2079
| 13> C 	 -125.911 	 63.6535 	 -60.4861
| 14> H 	 -125.096 	 64.3043 	 -60.3712
| 15> H 	 -126.804 	 64.1653 	 -60.1226
| 16> C 	 -126.122 	 63.3255 	 -61.9877
| 17> H 	 -125.993 	 64.1984 	 -62.6205
| 18> H 	 -125.244 	 62.6321 	 -62.1692
| 19> C 	 -127.49 	 62.7661 	 -62.4213
| 20> H 	 -128.325 	 63.3416 	 -62.1285
| 21> H 	 -127.506 	 62.6785 	 -63.5553
| 22> H 	 -127.64 	 61.73 	 -62.0355
| 23> S 	 -125.486 	 60.3907 	 -54.98
| 24> C 	 -126.745 	 59.7509 	 -53.9431
| 25> C 	 -127.953 	 59.9495 	 -54.5572
| 26> C 	 -127.916 	 60.337 	 -55.897
| 27> C 	 -126.644 	 60.6245 	 -56.3045
| 28> H 	 -128.76 	 59.7946 	 -53.8552
| 29> C 	 -129.158 	 60.4398 	 -56.7075
| 30> H 	 -129.017 	 61.435 	 -57.3311
| 31> H 	 -130.088 	 60.5823 	 -56.1358
| 32> C 	 -129.412 	 59.1803 	 -57.5795
| 33> H 	 -129.68 	 58.4305 	 -56.8168
| 34> H 	 -128.53 	 58.8306 	 -58.1021
| 35> C 	 -130.694 	 59.3164 	 -58.4377
| 36> H 	 -130.505 	 60.0934 	 -59.1823
| 37> H 	 -131.522 	 59.6928 	 -57.8888
| 38> H 	 -131.077 	 58.354 	 -58.9142
| 39> H 	 -123.826 	 61.7581 	 -60.2204
| 40> H 	 -126.667 	 59.4918 	 -52.8976
| 41> *
| 42>
| 43>                          ****END OF INPUT****

CARTESIAN COORDINATES (ANGSTROEM)
---------------------------------
  S    -124.750000   60.298000  -58.291700
  C    -124.679000   61.507700  -59.609100
  C    -125.691000   62.433400  -59.485300
  C    -126.542000   62.096200  -58.421500
  C    -126.112000   61.078700  -57.598300
  H    -127.514000   62.557100  -58.207900
  C    -125.911000   63.653500  -60.486100
  H    -125.096000   64.304300  -60.371200
  H    -126.804000   64.165300  -60.122600
  C    -126.122000   63.325500  -61.987700
  H    -125.993000   64.198400  -62.620500
  H    -125.244000   62.632100  -62.169200
  C    -127.490000   62.766100  -62.421300
  H    -128.325000   63.341600  -62.128500
  H    -127.506000   62.678500  -63.555300
  H    -127.640000   61.730000  -62.035500
  S    -125.486000   60.390700  -54.980000
  C    -126.745000   59.750900  -53.943100
  C    -127.953000   59.949500  -54.557200
  C    -127.916000   60.337000  -55.897000
  C    -126.644000   60.624500  -56.304500
  H    -128.760000   59.794600  -53.855200
  C    -129.158000   60.439800  -56.707500
  H    -129.017000   61.435000  -57.331100
  H    -130.088000   60.582300  -56.135800
  C    -129.412000   59.180300  -57.579500
  H    -129.680000   58.430500  -56.816800
  H    -128.530000   58.830600  -58.102100
  C    -130.694000   59.316400  -58.437700
  H    -130.505000   60.093400  -59.182300
  H    -131.522000   59.692800  -57.888800
  H    -131.077000   58.354000  -58.914200
  H    -123.826000   61.758100  -60.220400
  H    -126.667000   59.491800  -52.897600

 Total Charge           Charge          ....    0
 Multiplicity           Mult            ....    1
 Number of Electrons    NEL             ....  134
 Basis Dimension        Dim             ....  322

ORBITAL ENERGIES
----------------

  NO   OCC          E(Eh)            E(eV)
   0   2.0000     -88.967776     -2420.9362
   1   2.0000     -88.966174     -2420.8927
   2   2.0000     -10.329235      -281.0728
   3   2.0000     -10.328924      -281.0643
   4   2.0000     -10.314997      -280.6853
   5   2.0000     -10.312568      -280.6193
   6   2.0000     -10.303414      -280.3701
   7   2.0000     -10.301652      -280.3222
   8   2.0000     -10.300026      -280.2780
   9   2.0000     -10.296789      -280.1899
  10   2.0000     -10.293900      -280.1113
  11   2.0000     -10.292560      -280.0748
  12   2.0000     -10.288534      -279.9652
  13   2.0000     -10.288257      -279.9577
  14   2.0000     -10.282523      -279.8017
  15   2.0000     -10.280347      -279.7425
  16   2.0000      -8.082316      -219.9310
  17   2.0000      -8.080492      -219.8814
  18   2.0000      -6.040799      -164.3785
  19   2.0000      -6.039039      -164.3306
  20   2.0000      -6.036777      -164.2691
  21   2.0000      -6.035045      -164.2219
  22   2.0000      -6.033161      -164.1707
  23   2.0000      -6.031229      -164.1181
  24   2.0000      -1.011287       -27.5185
  25   2.0000      -0.988466       -26.8975
  26   2.0000      -0.908527       -24.7223
  27   2.0000      -0.905545       -24.6411
  28   2.0000      -0.868777       -23.6406
  29   2.0000      -0.852470       -23.1969
  30   2.0000      -0.842708       -22.9313
  31   2.0000      -0.814977       -22.1766
  32   2.0000      -0.786058       -21.3897
  33   2.0000      -0.773171       -21.0391
  34   2.0000      -0.708176       -19.2704
  35   2.0000      -0.699751       -19.0412
  36   2.0000      -0.693273       -18.8649
  37   2.0000      -0.662459       -18.0264
  38   2.0000      -0.636553       -17.3215
  39   2.0000      -0.616594       -16.7784
  40   2.0000      -0.593725       -16.1561
  41   2.0000      -0.573397       -15.6029
  42   2.0000      -0.563872       -15.3437
  43   2.0000      -0.548103       -14.9146
  44   2.0000      -0.544892       -14.8273
  45   2.0000      -0.520635       -14.1672
  46   2.0000      -0.517831       -14.0909
  47   2.0000      -0.511387       -13.9155
  48   2.0000      -0.505736       -13.7618
  49   2.0000      -0.499460       -13.5910
  50   2.0000      -0.490014       -13.3339
  51   2.0000      -0.479333       -13.0433
  52   2.0000      -0.471185       -12.8216
  53   2.0000      -0.465833       -12.6760
  54   2.0000      -0.455328       -12.3901
  55   2.0000      -0.449927       -12.2431
  56   2.0000      -0.442088       -12.0298
  57   2.0000      -0.436162       -11.8686
  58   2.0000      -0.433325       -11.7914
  59   2.0000      -0.425531       -11.5793
  60   2.0000      -0.422770       -11.5042
  61   2.0000      -0.411192       -11.1891
  62   2.0000      -0.407717       -11.0945
  63   2.0000      -0.344487        -9.3740
  64   2.0000      -0.337437        -9.1821
  65   2.0000      -0.330828        -9.0023
  66   2.0000      -0.294384        -8.0106
  67   0.0000       0.023919         0.6509
  68   0.0000       0.069849         1.9007
  69   0.0000       0.110216         2.9991
  70   0.0000       0.117703         3.2029
  71   0.0000       0.129776         3.5314

MULLIKEN ATOMIC CHARGES
-----------------------
   0 S :    0.117477
   1 C :   -0.125842
   2 C :   -0.106999
   3 C :    0.020092
   4 C :   -0.157782
   5 H :    0.011945
   6 C :    0.097375
   7 H :    0.029726
   8 H :    0.012574
   9 C :   -0.088063
  10 H :    0.032199
  11 H :    0.034110
  12 C :   -0.063878
  13 H :    0.027756
  14 H :    0.042680
  15 H :    0.043222
  16 S :    0.107288
  17 C :   -0.100060
  18 C :   -0.054434
  19 C :    0.028474
  20 C :   -0.159138
  21 H :    0.014202
  22 C :    0.010477
  23 H :    0.032092
  24 H :    0.025210
  25 C :   -0.065247
  26 H :    0.026108
  27 H :    0.046256
  28 C :   -0.038049
  29 H :    0.027971
  30 H :    0.013559
  31 H :    0.049692
  32 H :    0.052185
  33 H :    0.056825
Sum of atomic charges:   -0.0000000

LOEWDIN ATOMIC CHARGES
----------------------
   0 S :    0.412656
   1 C :   -0.196861
   2 C :   -0.060058
   3 C :   -0.073144
   4 C :   -0.201996
   5 H :    0.028900
   6 C :   -0.020294
   7 H :    0.026897
   8 H :    0.025370
   9 C :   -0.045598
  10 H :    0.024388
  11 H :    0.029716
  12 C :   -0.069201
  13 H :    0.017366
  14 H :    0.035545
  15 H :    0.030588
  16 S :    0.396848
  17 C :   -0.184526
  18 C :   -0.072609
  19 C :   -0.064012
  20 C :   -0.187266
  21 H :    0.032359
  22 C :   -0.036013
  23 H :    0.035070
  24 H :    0.031473
  25 C :   -0.035849
  26 H :    0.027486
  27 H :    0.025940
  28 C :   -0.070120
  29 H :    0.024305
  30 H :    0.017726
  31 H :    0.035486
  32 H :    0.027737
  33 H :    0.031691

  Mayer bond orders larger than 0.100000
B(  0-S ,  1-C ) :   1.1310 B(  0-S ,  4-C ) :   1.1661 B(  1-C ,  2-C ) :   1.6244
B(  1-C ,  4-C ) :   0.1057 B(  1-C , 32-H ) :   0.9579 B(  2-C ,  3-C ) :   1.2740
B(  2-C ,  6-C ) :   0.9955 B(  3-C ,  4-C ) :   1.5659 B(  3-C ,  5-H ) :   0.9823
B(  4-C , 20-C ) :   1.0292 B(  6-C ,  7-H ) :   0.9397 B(  6-C ,  8-H ) :   0.9460
B(  6-C ,  9-C ) :   1.0693 B(  9-C , 10-H ) :   0.9565 B(  9-C , 11-H ) :   0.9557
B(  9-C , 12-C ) :   1.0754 B( 12-C , 13-H ) :   0.9748 B( 12-C , 14-H ) :   0.9749
B( 12-C , 15-H ) :   0.9767 B( 16-S , 17-C ) :   1.1467 B( 16-S , 20-C ) :   1.1456
B( 17-C , 18-C ) :   1.6267 B( 17-C , 20-C ) :   0.1024 B( 17-C , 33-H ) :   0.9647
B( 18-C , 19-C ) :   1.2275 B( 18-C , 21-H ) :   0.9918 B( 19-C , 20-C ) :   1.5922
B( 19-C , 22-C ) :   1.0408 B( 22-C , 23-H ) :   0.9333 B( 22-C , 24-H ) :   0.9365
B( 22-C , 25-C ) :   1.0494 B( 25-C , 26-H ) :   0.9520 B( 25-C , 27-H ) :   0.9632
B( 25-C , 28-C ) :   1.0752 B( 28-C , 29-H ) :   0.9761 B( 28-C , 30-H ) :   0.9693
B( 28-C , 31-H ) :   0.9751

Dispersion correction           -0.014066433
FINAL SINGLE POINT ENERGY     -1339.868050360256

DIPOLE MOMENT
-------------
                                X             Y             Z
Electronic contribution:     20.67389      -5.83211      20.84920
Nuclear contribution   :    -21.23004       6.16185     -20.94927
                        -----------------------------------------
Total Dipole Moment    :     -0.55614       0.32974      -0.10007
                        -----------------------------------------
Magnitude (a.u.)       :      0.65425
Magnitude (Debye)      :      1.66296

Rotational constants in cm-1:     0.018738     0.008859     0.006669
Rotational constants in MHz :   561.741543   265.576474   199.929862

                             ****ORCA TERMINATED NORMALLY****
TOTAL RUN TIME: 0 days 0 hours 0 minutes 21 seconds 357 msec
