                         Program Version 4.2.1 -  RELEASE  -
|  1> ! wB97X-D3 SP def2-SVP
|  2> %pal
|  3> nprocs 24
|  4> end
|  5>
|  6> * xyz 0 1
|  7> S 	 -98.3191 	 -23.9702 	 -66.0906
|  8> C 	 -99.7559 	 -23.1835 	 -65.6571
|  9> C 	 -99.5585 	 -22.2991 	 -64.6035
| 10> C 	 -98.2279 	 -22.3042 	 -64.0999
| 11> C 	 -97.4744 	 -23.2738 	 -64.6481
| 12> H 	 -97.6885 	 -21.6824 	 -63.3494
| 13> C 	 -100.741 	 -21.4345 	 -64.0674
| 14> H 	 -101.547 	 -21.5046 	 -64.8129
| 15> H 	 -100.34 	 -20.395 	 -64.0721
| 16> C 	 -101.306 	 -21.8652 	 -62.7191
| 17> H 	 -101.518 	 -22.8826 	 -62.6581
| 18> H 	 -100.59 	 -21.5656 	 -62.0416
| 19> C 	 -102.56 	 -21.0024 	 -62.5473
| 20> H 	 -103.103 	 -21.3153 	 -61.6373
| 21> H 	 -102.418 	 -19.9768 	 -62.428
| 22> H 	 -103.267 	 -21.1576 	 -63.3497
| 23> S 	 -95.0023 	 -23.8384 	 -65.7126
| 24> C 	 -93.6894 	 -24.1625 	 -64.6609
| 25> C 	 -94.0027 	 -23.9118 	 -63.3383
| 26> C 	 -95.3823 	 -23.4951 	 -63.1826
| 27> C 	 -96.0996 	 -23.5292 	 -64.3965
| 28> H 	 -93.2765 	 -23.9508 	 -62.539
| 29> C 	 -96.0299 	 -23.3426 	 -61.7996
| 30> H 	 -95.7288 	 -24.1796 	 -61.2057
| 31> H 	 -97.1284 	 -23.4504 	 -61.951
| 32> C 	 -95.7113 	 -22.0138 	 -61.0538
| 33> H 	 -96.0569 	 -21.1311 	 -61.5415
| 34> H 	 -94.6389 	 -21.9251 	 -61.1004
| 35> C 	 -96.1399 	 -21.915 	 -59.6202
| 36> H 	 -97.1727 	 -21.7136 	 -59.45
| 37> H 	 -95.5618 	 -21.1348 	 -59.1199
| 38> H 	 -95.9023 	 -22.8046 	 -59.0565
| 39> H 	 -100.691 	 -23.1605 	 -66.2476
| 40> H 	 -92.736 	 -24.3517 	 -65.0324
| 41> *
| 42>
| 43>                          ****END OF INPUT****

CARTESIAN COORDINATES (ANGSTROEM)
---------------------------------
  S    -98.319100  -23.970200  -66.090600
  C    -99.755900  -23.183500  -65.657100
  C    -99.558500  -22.299100  -64.603500
  C    -98.227900  -22.304200  -64.099900
  C    -97.474400  -23.273800  -64.648100
  H    -97.688500  -21.682400  -63.349400
  C    -100.741000  -21.434500  -64.067400
  H    -101.547000  -21.504600  -64.812900
  H    -100.340000  -20.395000  -64.072100
  C    -101.306000  -21.865200  -62.719100
  H    -101.518000  -22.882600  -62.658100
  H    -100.590000  -21.565600  -62.041600
  C    -102.560000  -21.002400  -62.547300
  H    -103.103000  -21.315300  -61.637300
  H    -102.418000  -19.976800  -62.428000
  H    -103.267000  -21.157600  -63.349700
  S    -95.002300  -23.838400  -65.712600
  C    -93.689400  -24.162500  -64.660900
  C    -94.002700  -23.911800  -63.338300
  C    -95.382300  -23.495100  -63.182600
  C    -96.099600  -23.529200  -64.396500
  H    -93.276500  -23.950800  -62.539000
  C    -96.029900  -23.342600  -61.799600
  H    -95.728800  -24.179600  -61.205700
  H    -97.128400  -23.450400  -61.951000
  C    -95.711300  -22.013800  -61.053800
  H    -96.056900  -21.131100  -61.541500
  H    -94.638900  -21.925100  -61.100400
  C    -96.139900  -21.915000  -59.620200
  H    -97.172700  -21.713600  -59.450000
  H    -95.561800  -21.134800  -59.119900
  H    -95.902300  -22.804600  -59.056500
  H    -100.691000  -23.160500  -66.247600
  H    -92.736000  -24.351700  -65.032400

 Total Charge           Charge          ....    0
 Multiplicity           Mult            ....    1
 Number of Electrons    NEL             ....  134
 Basis Dimension        Dim             ....  322

ORBITAL ENERGIES
----------------

  NO   OCC          E(Eh)            E(eV)
   0   2.0000     -88.965106     -2420.8636
   1   2.0000     -88.963628     -2420.8234
   2   2.0000     -10.325545      -280.9724
   3   2.0000     -10.325012      -280.9578
   4   2.0000     -10.312193      -280.6090
   5   2.0000     -10.311697      -280.5955
   6   2.0000     -10.306127      -280.4440
   7   2.0000     -10.300111      -280.2803
   8   2.0000     -10.296491      -280.1818
   9   2.0000     -10.294949      -280.1398
  10   2.0000     -10.293786      -280.1081
  11   2.0000     -10.292429      -280.0712
  12   2.0000     -10.283369      -279.8247
  13   2.0000     -10.275563      -279.6123
  14   2.0000     -10.273223      -279.5486
  15   2.0000     -10.271990      -279.5150
  16   2.0000      -8.080785      -219.8893
  17   2.0000      -8.078641      -219.8310
  18   2.0000      -6.039259      -164.3366
  19   2.0000      -6.037174      -164.2798
  20   2.0000      -6.035106      -164.2236
  21   2.0000      -6.033229      -164.1725
  22   2.0000      -6.031584      -164.1277
  23   2.0000      -6.029229      -164.0637
  24   2.0000      -1.010777       -27.5046
  25   2.0000      -0.986630       -26.8476
  26   2.0000      -0.914326       -24.8801
  27   2.0000      -0.909330       -24.7441
  28   2.0000      -0.878752       -23.9121
  29   2.0000      -0.856312       -23.3014
  30   2.0000      -0.847180       -23.0530
  31   2.0000      -0.816726       -22.2242
  32   2.0000      -0.782483       -21.2924
  33   2.0000      -0.765654       -20.8345
  34   2.0000      -0.713130       -19.4053
  35   2.0000      -0.703461       -19.1422
  36   2.0000      -0.697740       -18.9865
  37   2.0000      -0.665431       -18.1073
  38   2.0000      -0.641866       -17.4661
  39   2.0000      -0.616833       -16.7849
  40   2.0000      -0.596874       -16.2418
  41   2.0000      -0.579830       -15.7780
  42   2.0000      -0.566834       -15.4244
  43   2.0000      -0.559625       -15.2282
  44   2.0000      -0.528159       -14.3719
  45   2.0000      -0.520269       -14.1572
  46   2.0000      -0.517897       -14.0927
  47   2.0000      -0.514837       -14.0094
  48   2.0000      -0.506867       -13.7926
  49   2.0000      -0.501865       -13.6564
  50   2.0000      -0.495737       -13.4897
  51   2.0000      -0.483815       -13.1653
  52   2.0000      -0.471632       -12.8338
  53   2.0000      -0.467589       -12.7238
  54   2.0000      -0.464826       -12.6486
  55   2.0000      -0.456090       -12.4108
  56   2.0000      -0.445114       -12.1122
  57   2.0000      -0.437060       -11.8930
  58   2.0000      -0.435640       -11.8544
  59   2.0000      -0.433358       -11.7923
  60   2.0000      -0.421837       -11.4788
  61   2.0000      -0.415048       -11.2940
  62   2.0000      -0.406942       -11.0735
  63   2.0000      -0.361855        -9.8466
  64   2.0000      -0.331414        -9.0182
  65   2.0000      -0.327573        -8.9137
  66   2.0000      -0.283335        -7.7099
  67   0.0000       0.023267         0.6331
  68   0.0000       0.079594         2.1659
  69   0.0000       0.105377         2.8675
  70   0.0000       0.126790         3.4501
  71   0.0000       0.132996         3.6190

MULLIKEN ATOMIC CHARGES
-----------------------
   0 S :    0.102171
   1 C :   -0.109590
   2 C :   -0.095517
   3 C :    0.009182
   4 C :   -0.149775
   5 H :    0.027303
   6 C :    0.013788
   7 H :    0.007693
   8 H :    0.039744
   9 C :    0.019474
  10 H :    0.024660
  11 H :    0.010845
  12 C :   -0.040139
  13 H :    0.024885
  14 H :    0.019452
  15 H :    0.023048
  16 S :    0.110764
  17 C :   -0.066640
  18 C :   -0.019208
  19 C :   -0.048567
  20 C :   -0.141576
  21 H :    0.018238
  22 C :    0.034387
  23 H :    0.022475
  24 H :    0.035289
  25 C :   -0.058308
  26 H :    0.019763
  27 H :    0.014353
  28 C :   -0.019054
  29 H :    0.027829
  30 H :    0.028281
  31 H :    0.016546
  32 H :    0.061150
  33 H :    0.037052
Sum of atomic charges:    0.0000000

LOEWDIN ATOMIC CHARGES
----------------------
   0 S :    0.394126
   1 C :   -0.218935
   2 C :   -0.068213
   3 C :   -0.065630
   4 C :   -0.173305
   5 H :    0.044055
   6 C :   -0.027567
   7 H :    0.022602
   8 H :    0.035006
   9 C :   -0.022671
  10 H :    0.021103
  11 H :    0.016424
  12 C :   -0.058418
  13 H :    0.026643
  14 H :    0.017130
  15 H :    0.022201
  16 S :    0.423849
  17 C :   -0.184090
  18 C :   -0.067788
  19 C :   -0.055711
  20 C :   -0.202615
  21 H :    0.030291
  22 C :   -0.032271
  23 H :    0.027534
  24 H :    0.031454
  25 C :   -0.041132
  26 H :    0.018866
  27 H :    0.022225
  28 C :   -0.062195
  29 H :    0.020596
  30 H :    0.030692
  31 H :    0.022371
  32 H :    0.037287
  33 H :    0.016085

  Mayer bond orders larger than 0.100000
B(  0-S ,  1-C ) :   1.1415 B(  0-S ,  4-C ) :   1.1196 B(  1-C ,  2-C ) :   1.6223
B(  1-C , 32-H ) :   0.9594 B(  2-C ,  3-C ) :   1.2162 B(  2-C ,  6-C ) :   1.0135
B(  3-C ,  4-C ) :   1.5873 B(  3-C ,  5-H ) :   0.9883 B(  4-C , 20-C ) :   1.1015
B(  6-C ,  7-H ) :   0.9480 B(  6-C ,  8-H ) :   0.9420 B(  6-C ,  9-C ) :   1.0665
B(  9-C , 10-H ) :   0.9559 B(  9-C , 11-H ) :   0.9495 B(  9-C , 12-C ) :   1.0900
B( 12-C , 13-H ) :   0.9721 B( 12-C , 14-H ) :   0.9742 B( 12-C , 15-H ) :   0.9758
B( 16-S , 17-C ) :   1.1663 B( 16-S , 20-C ) :   1.1424 B( 17-C , 18-C ) :   1.5819
B( 17-C , 33-H ) :   0.9776 B( 18-C , 19-C ) :   1.2563 B( 18-C , 21-H ) :   0.9925
B( 19-C , 20-C ) :   1.5605 B( 19-C , 22-C ) :   1.0406 B( 22-C , 23-H ) :   0.9390
B( 22-C , 24-H ) :   0.9388 B( 22-C , 25-C ) :   1.0545 B( 25-C , 26-H ) :   0.9489
B( 25-C , 27-H ) :   0.9540 B( 25-C , 28-C ) :   1.0951 B( 28-C , 29-H ) :   0.9751
B( 28-C , 30-H ) :   0.9710 B( 28-C , 31-H ) :   0.9703

Dispersion correction           -0.013666074
FINAL SINGLE POINT ENERGY     -1339.877336522659

DIPOLE MOMENT
-------------
                                X             Y             Z
Electronic contribution:     14.73622     -13.78461     -26.43126
Nuclear contribution   :    -14.81377      14.18599      27.01793
                        -----------------------------------------
Total Dipole Moment    :     -0.07755       0.40138       0.58667
                        -----------------------------------------
Magnitude (a.u.)       :      0.71506
Magnitude (Debye)      :      1.81753

Rotational constants in cm-1:     0.017078     0.009296     0.006217
Rotational constants in MHz :   511.992522   278.697061   186.374318

                             ****ORCA TERMINATED NORMALLY****
TOTAL RUN TIME: 0 days 0 hours 0 minutes 20 seconds 419 msec
