                         Program Version 4.2.1 -  RELEASE  -
|  1> ! wB97X-D3 SP def2-SVP
|  2> %pal
|  3> nprocs 24
|  4> end
|  5>
|  6> * xyz 0 1
|  7> S 	 -132.624 	 28.1046 	 -16.9676
|  8> C 	 -131.513 	 28.9016 	 -15.7982
|  9> C 	 -130.433 	 29.5114 	 -16.4397
| 10> C 	 -130.576 	 29.3969 	 -17.8667
| 11> C 	 -131.685 	 28.6404 	 -18.2615
| 12> H 	 -129.865 	 29.7779 	 -18.6592
| 13> C 	 -129.353 	 30.2502 	 -15.6939
| 14> H 	 -128.465 	 30.054 	 -16.2935
| 15> H 	 -129.2 	 29.9059 	 -14.6718
| 16> C 	 -129.632 	 31.7579 	 -15.7616
| 17> H 	 -128.917 	 32.4187 	 -15.1766
| 18> H 	 -129.331 	 31.9858 	 -16.786
| 19> C 	 -131.086 	 32.2276 	 -15.5134
| 20> H 	 -130.969 	 33.3627 	 -15.4328
| 21> H 	 -131.647 	 32.095 	 -16.419
| 22> H 	 -131.457 	 31.6526 	 -14.6727
| 23> S 	 -131.38 	 26.6924 	 -20.1646
| 24> C 	 -131.989 	 27.0518 	 -21.8231
| 25> C 	 -132.206 	 28.3976 	 -21.9691
| 26> C 	 -132.119 	 29.1339 	 -20.7567
| 27> C 	 -131.902 	 28.3277 	 -19.6532
| 28> H 	 -132.369 	 28.8692 	 -22.8901
| 29> C 	 -132.205 	 30.6839 	 -20.6984
| 30> H 	 -131.833 	 30.9403 	 -19.7428
| 31> H 	 -133.237 	 31.045 	 -20.6451
| 32> C 	 -131.367 	 31.4094 	 -21.7921
| 33> H 	 -131.858 	 31.3434 	 -22.7824
| 34> H 	 -130.323 	 31.1127 	 -21.8941
| 35> C 	 -131.309 	 32.9303 	 -21.5835
| 36> H 	 -130.78 	 33.4338 	 -22.4402
| 37> H 	 -130.951 	 33.221 	 -20.5568
| 38> H 	 -132.304 	 33.3296 	 -21.6519
| 39> H 	 -131.546 	 28.8974 	 -14.6922
| 40> H 	 -131.868 	 26.4486 	 -22.6993
| 41> *
| 42>
| 43>                          ****END OF INPUT****

CARTESIAN COORDINATES (ANGSTROEM)
---------------------------------
  S    -132.624000   28.104600  -16.967600
  C    -131.513000   28.901600  -15.798200
  C    -130.433000   29.511400  -16.439700
  C    -130.576000   29.396900  -17.866700
  C    -131.685000   28.640400  -18.261500
  H    -129.865000   29.777900  -18.659200
  C    -129.353000   30.250200  -15.693900
  H    -128.465000   30.054000  -16.293500
  H    -129.200000   29.905900  -14.671800
  C    -129.632000   31.757900  -15.761600
  H    -128.917000   32.418700  -15.176600
  H    -129.331000   31.985800  -16.786000
  C    -131.086000   32.227600  -15.513400
  H    -130.969000   33.362700  -15.432800
  H    -131.647000   32.095000  -16.419000
  H    -131.457000   31.652600  -14.672700
  S    -131.380000   26.692400  -20.164600
  C    -131.989000   27.051800  -21.823100
  C    -132.206000   28.397600  -21.969100
  C    -132.119000   29.133900  -20.756700
  C    -131.902000   28.327700  -19.653200
  H    -132.369000   28.869200  -22.890100
  C    -132.205000   30.683900  -20.698400
  H    -131.833000   30.940300  -19.742800
  H    -133.237000   31.045000  -20.645100
  C    -131.367000   31.409400  -21.792100
  H    -131.858000   31.343400  -22.782400
  H    -130.323000   31.112700  -21.894100
  C    -131.309000   32.930300  -21.583500
  H    -130.780000   33.433800  -22.440200
  H    -130.951000   33.221000  -20.556800
  H    -132.304000   33.329600  -21.651900
  H    -131.546000   28.897400  -14.692200
  H    -131.868000   26.448600  -22.699300

 Total Charge           Charge          ....    0
 Multiplicity           Mult            ....    1
 Number of Electrons    NEL             ....  134
 Basis Dimension        Dim             ....  322

ORBITAL ENERGIES
----------------

  NO   OCC          E(Eh)            E(eV)
   0   2.0000     -88.972861     -2421.0746
   1   2.0000     -88.963682     -2420.8249
   2   2.0000     -10.326007      -280.9849
   3   2.0000     -10.325400      -280.9684
   4   2.0000     -10.319354      -280.8039
   5   2.0000     -10.317424      -280.7514
   6   2.0000     -10.305169      -280.4179
   7   2.0000     -10.303873      -280.3826
   8   2.0000     -10.301015      -280.3049
   9   2.0000     -10.294485      -280.1272
  10   2.0000     -10.294083      -280.1162
  11   2.0000     -10.293515      -280.1008
  12   2.0000     -10.289101      -279.9807
  13   2.0000     -10.288777      -279.9718
  14   2.0000     -10.284305      -279.8502
  15   2.0000     -10.280131      -279.7366
  16   2.0000      -8.087479      -220.0715
  17   2.0000      -8.077133      -219.7900
  18   2.0000      -6.045976      -164.5194
  19   2.0000      -6.041933      -164.4093
  20   2.0000      -6.038311      -164.3108
  21   2.0000      -6.035832      -164.2433
  22   2.0000      -6.032099      -164.1418
  23   2.0000      -6.027480      -164.0161
  24   2.0000      -1.006399       -27.3855
  25   2.0000      -0.979309       -26.6484
  26   2.0000      -0.917463       -24.9654
  27   2.0000      -0.904159       -24.6034
  28   2.0000      -0.867145       -23.5962
  29   2.0000      -0.847987       -23.0749
  30   2.0000      -0.844162       -22.9708
  31   2.0000      -0.809367       -22.0240
  32   2.0000      -0.787720       -21.4349
  33   2.0000      -0.771473       -20.9929
  34   2.0000      -0.705801       -19.2058
  35   2.0000      -0.700182       -19.0529
  36   2.0000      -0.688938       -18.7470
  37   2.0000      -0.659127       -17.9358
  38   2.0000      -0.634892       -17.2763
  39   2.0000      -0.614471       -16.7206
  40   2.0000      -0.593460       -16.1489
  41   2.0000      -0.567532       -15.4433
  42   2.0000      -0.564505       -15.3610
  43   2.0000      -0.556167       -15.1341
  44   2.0000      -0.546161       -14.8618
  45   2.0000      -0.528949       -14.3934
  46   2.0000      -0.518150       -14.0996
  47   2.0000      -0.511657       -13.9229
  48   2.0000      -0.502484       -13.6733
  49   2.0000      -0.494586       -13.4584
  50   2.0000      -0.489625       -13.3234
  51   2.0000      -0.475954       -12.9514
  52   2.0000      -0.465222       -12.6593
  53   2.0000      -0.463367       -12.6089
  54   2.0000      -0.456568       -12.4238
  55   2.0000      -0.451361       -12.2822
  56   2.0000      -0.445124       -12.1124
  57   2.0000      -0.436432       -11.8759
  58   2.0000      -0.434459       -11.8222
  59   2.0000      -0.423714       -11.5298
  60   2.0000      -0.418462       -11.3869
  61   2.0000      -0.417327       -11.3560
  62   2.0000      -0.411757       -11.2045
  63   2.0000      -0.337260        -9.1773
  64   2.0000      -0.331658        -9.0249
  65   2.0000      -0.324592        -8.8326
  66   2.0000      -0.301749        -8.2110
  67   0.0000       0.033247         0.9047
  68   0.0000       0.057081         1.5532
  69   0.0000       0.099899         2.7184
  70   0.0000       0.113503         3.0886
  71   0.0000       0.117607         3.2003

MULLIKEN ATOMIC CHARGES
-----------------------
   0 S :    0.140422
   1 C :   -0.136207
   2 C :   -0.115408
   3 C :    0.010475
   4 C :   -0.186893
   5 H :    0.039524
   6 C :    0.108928
   7 H :    0.029895
   8 H :    0.029356
   9 C :   -0.136137
  10 H :    0.037564
  11 H :    0.013861
  12 C :   -0.022645
  13 H :    0.043242
  14 H :    0.040305
  15 H :    0.037487
  16 S :    0.090248
  17 C :   -0.063229
  18 C :   -0.018116
  19 C :   -0.029921
  20 C :   -0.172659
  21 H :   -0.002931
  22 C :    0.124709
  23 H :   -0.007641
  24 H :    0.036756
  25 C :   -0.102511
  26 H :    0.035454
  27 H :    0.041540
  28 C :   -0.072102
  29 H :    0.045326
  30 H :    0.037706
  31 H :    0.017764
  32 H :    0.054507
  33 H :    0.051334
Sum of atomic charges:   -0.0000000

LOEWDIN ATOMIC CHARGES
----------------------
   0 S :    0.430264
   1 C :   -0.198028
   2 C :   -0.056485
   3 C :   -0.070815
   4 C :   -0.228813
   5 H :    0.040835
   6 C :   -0.030613
   7 H :    0.035980
   8 H :    0.028143
   9 C :   -0.051844
  10 H :    0.025989
  11 H :    0.018837
  12 C :   -0.065417
  13 H :    0.038517
  14 H :    0.024486
  15 H :    0.024691
  16 S :    0.366915
  17 C :   -0.165078
  18 C :   -0.060739
  19 C :   -0.050335
  20 C :   -0.185608
  21 H :    0.022705
  22 C :   -0.025270
  23 H :    0.019882
  24 H :    0.036147
  25 C :   -0.043700
  26 H :    0.026864
  27 H :    0.026273
  28 C :   -0.071838
  29 H :    0.033724
  30 H :    0.026341
  31 H :    0.018023
  32 H :    0.032945
  33 H :    0.027024

  Mayer bond orders larger than 0.100000
B(  0-S ,  1-C ) :   1.1308 B(  0-S ,  4-C ) :   1.1746 B(  1-C ,  2-C ) :   1.6063
B(  1-C , 32-H ) :   0.9611 B(  2-C ,  3-C ) :   1.2429 B(  2-C ,  6-C ) :   1.0262
B(  3-C ,  4-C ) :   1.5534 B(  3-C ,  5-H ) :   0.9806 B(  4-C , 20-C ) :   1.0279
B(  6-C ,  7-H ) :   0.9410 B(  6-C ,  8-H ) :   0.9429 B(  6-C ,  9-C ) :   1.0531
B(  9-C , 10-H ) :   0.9636 B(  9-C , 11-H ) :   0.9568 B(  9-C , 12-C ) :   1.0722
B( 12-C , 13-H ) :   0.9722 B( 12-C , 14-H ) :   0.9695 B( 12-C , 15-H ) :   0.9772
B( 16-S , 17-C ) :   1.1259 B( 16-S , 20-C ) :   1.1337 B( 17-C , 18-C ) :   1.6318
B( 17-C , 20-C ) :   0.1006 B( 17-C , 33-H ) :   0.9656 B( 18-C , 19-C ) :   1.2338
B( 18-C , 21-H ) :   0.9942 B( 19-C , 20-C ) :   1.6248 B( 19-C , 22-C ) :   1.0306
B( 22-C , 23-H ) :   0.9295 B( 22-C , 24-H ) :   0.9306 B( 22-C , 25-C ) :   1.0579
B( 25-C , 26-H ) :   0.9495 B( 25-C , 27-H ) :   0.9628 B( 25-C , 28-C ) :   1.0878
B( 28-C , 29-H ) :   0.9739 B( 28-C , 30-H ) :   0.9746 B( 28-C , 31-H ) :   0.9734

Dispersion correction           -0.014982088
FINAL SINGLE POINT ENERGY     -1339.862579048851

DIPOLE MOMENT
-------------
                                X             Y             Z
Electronic contribution:     -7.66839     -29.09982       0.24050
Nuclear contribution   :      8.04016      29.79044      -0.43415
                        -----------------------------------------
Total Dipole Moment    :      0.37177       0.69061      -0.19364
                        -----------------------------------------
Magnitude (a.u.)       :      0.80787
Magnitude (Debye)      :      2.05344

Rotational constants in cm-1:     0.016922     0.009998     0.007060
Rotational constants in MHz :   507.316574   299.723570   211.656010

                             ****ORCA TERMINATED NORMALLY****
TOTAL RUN TIME: 0 days 0 hours 0 minutes 22 seconds 314 msec
