                         Program Version 4.2.1 -  RELEASE  -
|  1> ! wB97X-D3 SP def2-SVP
|  2> %pal
|  3> nprocs 24
|  4> end
|  5>
|  6> * xyz 0 1
|  7> S 	 -125.347 	 65.0309 	 -48.9342
|  8> C 	 -125.102 	 66.7775 	 -48.8433
|  9> C 	 -125.967 	 67.447 	 -49.6644
| 10> C 	 -126.987 	 66.5816 	 -50.1748
| 11> C 	 -126.715 	 65.2306 	 -50.0476
| 12> H 	 -127.788 	 66.9468 	 -50.8066
| 13> C 	 -125.904 	 68.9043 	 -50.0688
| 14> H 	 -126.924 	 69.3309 	 -49.8994
| 15> H 	 -125.539 	 69.0068 	 -51.1022
| 16> C 	 -124.943 	 69.7742 	 -49.1971
| 17> H 	 -125.328 	 69.7346 	 -48.2068
| 18> H 	 -123.927 	 69.473 	 -49.3118
| 19> C 	 -125.058 	 71.2555 	 -49.5461
| 20> H 	 -124.272 	 71.778 	 -48.9701
| 21> H 	 -124.79 	 71.4042 	 -50.5819
| 22> H 	 -126.025 	 71.6478 	 -49.1965
| 23> S 	 -126.146 	 63.4128 	 -52.0566
| 24> C 	 -127.489 	 62.5704 	 -52.7708
| 25> C 	 -128.716 	 62.8462 	 -52.1083
| 26> C 	 -128.577 	 63.7105 	 -50.9307
| 27> C 	 -127.219 	 64.16 	 -50.8592
| 28> H 	 -129.604 	 62.3977 	 -52.4677
| 29> C 	 -129.793 	 64.1937 	 -50.04
| 30> H 	 -129.549 	 65.1926 	 -49.7741
| 31> H 	 -129.946 	 63.6702 	 -49.1326
| 32> C 	 -131.169 	 64.0763 	 -50.7615
| 33> H 	 -131.413 	 63.0405 	 -50.6703
| 34> H 	 -131.017 	 64.2594 	 -51.8627
| 35> C 	 -132.428 	 64.8657 	 -50.2861
| 36> H 	 -132.324 	 65.9462 	 -50.104
| 37> H 	 -132.706 	 64.3378 	 -49.3353
| 38> H 	 -133.197 	 64.7487 	 -51.0861
| 39> H 	 -124.209 	 67.2489 	 -48.3884
| 40> H 	 -127.408 	 61.8585 	 -53.6282
| 41> *
| 42>
| 43>                          ****END OF INPUT****

CARTESIAN COORDINATES (ANGSTROEM)
---------------------------------
  S    -125.347000   65.030900  -48.934200
  C    -125.102000   66.777500  -48.843300
  C    -125.967000   67.447000  -49.664400
  C    -126.987000   66.581600  -50.174800
  C    -126.715000   65.230600  -50.047600
  H    -127.788000   66.946800  -50.806600
  C    -125.904000   68.904300  -50.068800
  H    -126.924000   69.330900  -49.899400
  H    -125.539000   69.006800  -51.102200
  C    -124.943000   69.774200  -49.197100
  H    -125.328000   69.734600  -48.206800
  H    -123.927000   69.473000  -49.311800
  C    -125.058000   71.255500  -49.546100
  H    -124.272000   71.778000  -48.970100
  H    -124.790000   71.404200  -50.581900
  H    -126.025000   71.647800  -49.196500
  S    -126.146000   63.412800  -52.056600
  C    -127.489000   62.570400  -52.770800
  C    -128.716000   62.846200  -52.108300
  C    -128.577000   63.710500  -50.930700
  C    -127.219000   64.160000  -50.859200
  H    -129.604000   62.397700  -52.467700
  C    -129.793000   64.193700  -50.040000
  H    -129.549000   65.192600  -49.774100
  H    -129.946000   63.670200  -49.132600
  C    -131.169000   64.076300  -50.761500
  H    -131.413000   63.040500  -50.670300
  H    -131.017000   64.259400  -51.862700
  C    -132.428000   64.865700  -50.286100
  H    -132.324000   65.946200  -50.104000
  H    -132.706000   64.337800  -49.335300
  H    -133.197000   64.748700  -51.086100
  H    -124.209000   67.248900  -48.388400
  H    -127.408000   61.858500  -53.628200

 Total Charge           Charge          ....    0
 Multiplicity           Mult            ....    1
 Number of Electrons    NEL             ....  134
 Basis Dimension        Dim             ....  322

ORBITAL ENERGIES
----------------

  NO   OCC          E(Eh)            E(eV)
   0   2.0000     -88.971090     -2421.0264
   1   2.0000     -88.961283     -2420.7596
   2   2.0000     -10.329991      -281.0933
   3   2.0000     -10.327490      -281.0253
   4   2.0000     -10.323836      -280.9259
   5   2.0000     -10.317522      -280.7540
   6   2.0000     -10.312704      -280.6229
   7   2.0000     -10.298460      -280.2354
   8   2.0000     -10.297988      -280.2225
   9   2.0000     -10.297627      -280.2127
  10   2.0000     -10.293961      -280.1129
  11   2.0000     -10.292743      -280.0798
  12   2.0000     -10.290593      -280.0213
  13   2.0000     -10.290112      -280.0082
  14   2.0000     -10.281650      -279.7779
  15   2.0000     -10.279852      -279.7290
  16   2.0000      -8.085210      -220.0098
  17   2.0000      -8.075608      -219.7485
  18   2.0000      -6.043685      -164.4570
  19   2.0000      -6.039769      -164.3505
  20   2.0000      -6.036071      -164.2498
  21   2.0000      -6.034179      -164.1984
  22   2.0000      -6.030206      -164.0903
  23   2.0000      -6.026284      -163.9835
  24   2.0000      -0.999582       -27.2000
  25   2.0000      -0.974883       -26.5279
  26   2.0000      -0.911839       -24.8124
  27   2.0000      -0.901293       -24.5254
  28   2.0000      -0.867202       -23.5978
  29   2.0000      -0.848266       -23.0825
  30   2.0000      -0.842449       -22.9242
  31   2.0000      -0.807658       -21.9775
  32   2.0000      -0.784474       -21.3466
  33   2.0000      -0.767397       -20.8819
  34   2.0000      -0.705758       -19.2046
  35   2.0000      -0.698599       -19.0098
  36   2.0000      -0.688728       -18.7412
  37   2.0000      -0.648561       -17.6482
  38   2.0000      -0.633186       -17.2299
  39   2.0000      -0.612861       -16.6768
  40   2.0000      -0.595011       -16.1911
  41   2.0000      -0.588153       -16.0045
  42   2.0000      -0.565642       -15.3919
  43   2.0000      -0.559892       -15.2354
  44   2.0000      -0.524071       -14.2607
  45   2.0000      -0.517922       -14.0934
  46   2.0000      -0.516369       -14.0511
  47   2.0000      -0.509491       -13.8639
  48   2.0000      -0.500608       -13.6222
  49   2.0000      -0.497347       -13.5335
  50   2.0000      -0.494727       -13.4622
  51   2.0000      -0.476680       -12.9711
  52   2.0000      -0.474464       -12.9108
  53   2.0000      -0.460585       -12.5332
  54   2.0000      -0.457248       -12.4423
  55   2.0000      -0.448727       -12.2105
  56   2.0000      -0.442979       -12.0541
  57   2.0000      -0.437342       -11.9007
  58   2.0000      -0.431195       -11.7334
  59   2.0000      -0.423819       -11.5327
  60   2.0000      -0.420457       -11.4412
  61   2.0000      -0.416598       -11.3362
  62   2.0000      -0.413483       -11.2514
  63   2.0000      -0.336928        -9.1683
  64   2.0000      -0.331450        -9.0192
  65   2.0000      -0.324046        -8.8177
  66   2.0000      -0.292210        -7.9515
  67   0.0000       0.031083         0.8458
  68   0.0000       0.059619         1.6223
  69   0.0000       0.119110         3.2411
  70   0.0000       0.120498         3.2789
  71   0.0000       0.126999         3.4558

MULLIKEN ATOMIC CHARGES
-----------------------
   0 S :    0.097390
   1 C :   -0.128802
   2 C :   -0.107885
   3 C :    0.062008
   4 C :   -0.186425
   5 H :    0.013571
   6 C :    0.043094
   7 H :    0.037069
   8 H :    0.048853
   9 C :   -0.106562
  10 H :    0.026510
  11 H :    0.033786
  12 C :   -0.033996
  13 H :    0.030136
  14 H :    0.028335
  15 H :    0.037766
  16 S :    0.135016
  17 C :   -0.112236
  18 C :   -0.039977
  19 C :   -0.045818
  20 C :   -0.162665
  21 H :    0.009779
  22 C :    0.157785
  23 H :    0.010058
  24 H :    0.030594
  25 C :   -0.170077
  26 H :    0.032572
  27 H :    0.041195
  28 C :   -0.049016
  29 H :    0.043441
  30 H :    0.040548
  31 H :    0.045964
  32 H :    0.062745
  33 H :    0.075242
Sum of atomic charges:    0.0000000

LOEWDIN ATOMIC CHARGES
----------------------
   0 S :    0.381133
   1 C :   -0.201019
   2 C :   -0.070832
   3 C :   -0.054510
   4 C :   -0.190854
   5 H :    0.029877
   6 C :   -0.031050
   7 H :    0.037118
   8 H :    0.036238
   9 C :   -0.040092
  10 H :    0.021887
  11 H :    0.018061
  12 C :   -0.060637
  13 H :    0.029172
  14 H :    0.021025
  15 H :    0.026829
  16 S :    0.415851
  17 C :   -0.202246
  18 C :   -0.070454
  19 C :   -0.038422
  20 C :   -0.203928
  21 H :    0.022115
  22 C :   -0.019427
  23 H :    0.023282
  24 H :    0.029927
  25 C :   -0.050989
  26 H :    0.020674
  27 H :    0.024509
  28 C :   -0.067922
  29 H :    0.025307
  30 H :    0.031088
  31 H :    0.034778
  32 H :    0.034403
  33 H :    0.039107

  Mayer bond orders larger than 0.100000
B(  0-S ,  1-C ) :   1.1152 B(  0-S ,  4-C ) :   1.1391 B(  1-C ,  2-C ) :   1.6509
B(  1-C , 32-H ) :   0.9545 B(  2-C ,  3-C ) :   1.2432 B(  2-C ,  6-C ) :   1.0122
B(  3-C ,  4-C ) :   1.5811 B(  3-C ,  5-H ) :   0.9867 B(  4-C , 20-C ) :   1.0578
B(  6-C ,  7-H ) :   0.9444 B(  6-C ,  8-H ) :   0.9343 B(  6-C ,  9-C ) :   1.0888
B(  9-C , 10-H ) :   0.9566 B(  9-C , 11-H ) :   0.9501 B(  9-C , 12-C ) :   1.0969
B( 12-C , 13-H ) :   0.9721 B( 12-C , 14-H ) :   0.9729 B( 12-C , 15-H ) :   0.9763
B( 16-S , 17-C ) :   1.1566 B( 16-S , 20-C ) :   1.1518 B( 17-C , 18-C ) :   1.5999
B( 17-C , 20-C ) :   0.1020 B( 17-C , 33-H ) :   0.9600 B( 18-C , 19-C ) :   1.2453
B( 18-C , 21-H ) :   0.9891 B( 19-C , 20-C ) :   1.5720 B( 19-C , 22-C ) :   1.0222
B( 22-C , 23-H ) :   0.9342 B( 22-C , 24-H ) :   0.9339 B( 22-C , 25-C ) :   1.0574
B( 25-C , 26-H ) :   0.9553 B( 25-C , 27-H ) :   0.9630 B( 25-C , 28-C ) :   1.0728
B( 28-C , 29-H ) :   0.9782 B( 28-C , 30-H ) :   0.9763 B( 28-C , 31-H ) :   0.9737

Dispersion correction           -0.013134250
FINAL SINGLE POINT ENERGY     -1339.864565581350

DIPOLE MOMENT
-------------
                                X             Y             Z
Electronic contribution:     15.95109     -20.80495      -2.72267
Nuclear contribution   :    -16.34155      21.26781       2.50208
                        -----------------------------------------
Total Dipole Moment    :     -0.39046       0.46286      -0.22059
                        -----------------------------------------
Magnitude (a.u.)       :      0.64448
Magnitude (Debye)      :      1.63815

Rotational constants in cm-1:     0.018244     0.007230     0.005893
Rotational constants in MHz :   546.950542   216.735160   176.666623

                             ****ORCA TERMINATED NORMALLY****
TOTAL RUN TIME: 0 days 0 hours 0 minutes 20 seconds 467 msec
