                         Program Version 4.2.1 -  RELEASE  -
|  1> ! wB97X-D3 SP def2-SVP
|  2> %pal
|  3> nprocs 24
|  4> end
|  5>
|  6> * xyz 0 1
|  7> S 	 -104.901 	 58.6508 	 -91.4747
|  8> C 	 -103.179 	 58.8993 	 -91.6111
|  9> C 	 -102.47 	 58.0219 	 -90.8106
| 10> C 	 -103.295 	 57.1244 	 -90.101
| 11> C 	 -104.618 	 57.2427 	 -90.385
| 12> H 	 -103.014 	 56.3958 	 -89.3577
| 13> C 	 -101.019 	 58.0757 	 -90.538
| 14> H 	 -100.819 	 57.7192 	 -89.5568
| 15> H 	 -100.773 	 59.1399 	 -90.3435
| 16> C 	 -100.138 	 57.434 	 -91.608
| 17> H 	 -100.265 	 56.361 	 -91.5413
| 18> H 	 -100.485 	 57.6763 	 -92.5989
| 19> C 	 -98.6859 	 57.7928 	 -91.4965
| 20> H 	 -98.5598 	 58.852 	 -91.7831
| 21> H 	 -98.4104 	 57.6941 	 -90.4939
| 22> H 	 -97.9668 	 57.0976 	 -92.0131
| 23> S 	 -106.425 	 56.726 	 -88.3944
| 24> C 	 -107.035 	 55.1048 	 -88.2982
| 25> C 	 -106.54 	 54.2985 	 -89.2583
| 26> C 	 -105.631 	 54.9769 	 -90.1145
| 27> C 	 -105.592 	 56.318 	 -89.8368
| 28> H 	 -106.76 	 53.2536 	 -89.2366
| 29> C 	 -105.229 	 54.3078 	 -91.3816
| 30> H 	 -105.034 	 53.311 	 -91.0912
| 31> H 	 -104.376 	 54.7184 	 -91.7519
| 32> C 	 -106.196 	 54.5349 	 -92.5634
| 33> H 	 -106.277 	 55.6333 	 -92.7351
| 34> H 	 -107.21 	 54.2513 	 -92.3398
| 35> C 	 -105.775 	 53.8942 	 -93.8562
| 36> H 	 -106.306 	 54.4497 	 -94.6031
| 37> H 	 -106.232 	 52.9929 	 -94.1034
| 38> H 	 -104.751 	 53.8945 	 -94.1207
| 39> H 	 -102.685 	 59.7458 	 -92.1437
| 40> H 	 -107.675 	 54.7221 	 -87.497
| 41> *
| 42>
| 43>                          ****END OF INPUT****

CARTESIAN COORDINATES (ANGSTROEM)
---------------------------------
  S    -104.901000   58.650800  -91.474700
  C    -103.179000   58.899300  -91.611100
  C    -102.470000   58.021900  -90.810600
  C    -103.295000   57.124400  -90.101000
  C    -104.618000   57.242700  -90.385000
  H    -103.014000   56.395800  -89.357700
  C    -101.019000   58.075700  -90.538000
  H    -100.819000   57.719200  -89.556800
  H    -100.773000   59.139900  -90.343500
  C    -100.138000   57.434000  -91.608000
  H    -100.265000   56.361000  -91.541300
  H    -100.485000   57.676300  -92.598900
  C    -98.685900   57.792800  -91.496500
  H    -98.559800   58.852000  -91.783100
  H    -98.410400   57.694100  -90.493900
  H    -97.966800   57.097600  -92.013100
  S    -106.425000   56.726000  -88.394400
  C    -107.035000   55.104800  -88.298200
  C    -106.540000   54.298500  -89.258300
  C    -105.631000   54.976900  -90.114500
  C    -105.592000   56.318000  -89.836800
  H    -106.760000   53.253600  -89.236600
  C    -105.229000   54.307800  -91.381600
  H    -105.034000   53.311000  -91.091200
  H    -104.376000   54.718400  -91.751900
  C    -106.196000   54.534900  -92.563400
  H    -106.277000   55.633300  -92.735100
  H    -107.210000   54.251300  -92.339800
  C    -105.775000   53.894200  -93.856200
  H    -106.306000   54.449700  -94.603100
  H    -106.232000   52.992900  -94.103400
  H    -104.751000   53.894500  -94.120700
  H    -102.685000   59.745800  -92.143700
  H    -107.675000   54.722100  -87.497000

 Total Charge           Charge          ....    0
 Multiplicity           Mult            ....    1
 Number of Electrons    NEL             ....  134
 Basis Dimension        Dim             ....  322

ORBITAL ENERGIES
----------------

  NO   OCC          E(Eh)            E(eV)
   0   2.0000     -88.967101     -2420.9179
   1   2.0000     -88.963760     -2420.8270
   2   2.0000     -10.323564      -280.9185
   3   2.0000     -10.315987      -280.7123
   4   2.0000     -10.315675      -280.7038
   5   2.0000     -10.311013      -280.5769
   6   2.0000     -10.293968      -280.1131
   7   2.0000     -10.292679      -280.0780
   8   2.0000     -10.286354      -279.9059
   9   2.0000     -10.285294      -279.8771
  10   2.0000     -10.283926      -279.8398
  11   2.0000     -10.281252      -279.7671
  12   2.0000     -10.280540      -279.7477
  13   2.0000     -10.275408      -279.6081
  14   2.0000     -10.272939      -279.5409
  15   2.0000     -10.260993      -279.2158
  16   2.0000      -8.080774      -219.8890
  17   2.0000      -8.079637      -219.8581
  18   2.0000      -6.039289      -164.3374
  19   2.0000      -6.037986      -164.3019
  20   2.0000      -6.035480      -164.2338
  21   2.0000      -6.034060      -164.1951
  22   2.0000      -6.031546      -164.1267
  23   2.0000      -6.030432      -164.0964
  24   2.0000      -1.012103       -27.5407
  25   2.0000      -0.987077       -26.8597
  26   2.0000      -0.915722       -24.9181
  27   2.0000      -0.912388       -24.8273
  28   2.0000      -0.873850       -23.7787
  29   2.0000      -0.857411       -23.3313
  30   2.0000      -0.853102       -23.2141
  31   2.0000      -0.817652       -22.2494
  32   2.0000      -0.785021       -21.3615
  33   2.0000      -0.768831       -20.9209
  34   2.0000      -0.706987       -19.2381
  35   2.0000      -0.705259       -19.1911
  36   2.0000      -0.694820       -18.9070
  37   2.0000      -0.662295       -18.0220
  38   2.0000      -0.642611       -17.4863
  39   2.0000      -0.618398       -16.8275
  40   2.0000      -0.600968       -16.3532
  41   2.0000      -0.574196       -15.6247
  42   2.0000      -0.562454       -15.3052
  43   2.0000      -0.555522       -15.1165
  44   2.0000      -0.527789       -14.3619
  45   2.0000      -0.525776       -14.3071
  46   2.0000      -0.521361       -14.1870
  47   2.0000      -0.515196       -14.0192
  48   2.0000      -0.506835       -13.7917
  49   2.0000      -0.499089       -13.5809
  50   2.0000      -0.494365       -13.4523
  51   2.0000      -0.479813       -13.0564
  52   2.0000      -0.470689       -12.8081
  53   2.0000      -0.463395       -12.6096
  54   2.0000      -0.459225       -12.4961
  55   2.0000      -0.452694       -12.3184
  56   2.0000      -0.443917       -12.0796
  57   2.0000      -0.434848       -11.8328
  58   2.0000      -0.431941       -11.7537
  59   2.0000      -0.427467       -11.6320
  60   2.0000      -0.423682       -11.5290
  61   2.0000      -0.414762       -11.2863
  62   2.0000      -0.407793       -11.0966
  63   2.0000      -0.340976        -9.2784
  64   2.0000      -0.331096        -9.0096
  65   2.0000      -0.320543        -8.7224
  66   2.0000      -0.304668        -8.2904
  67   0.0000       0.042197         1.1482
  68   0.0000       0.060446         1.6448
  69   0.0000       0.116639         3.1739
  70   0.0000       0.124517         3.3883
  71   0.0000       0.131206         3.5703

MULLIKEN ATOMIC CHARGES
-----------------------
   0 S :    0.108427
   1 C :   -0.127837
   2 C :   -0.079570
   3 C :    0.043875
   4 C :   -0.172478
   5 H :    0.015548
   6 C :    0.057173
   7 H :    0.003953
   8 H :    0.019189
   9 C :   -0.037996
  10 H :    0.019157
  11 H :    0.020095
  12 C :   -0.028620
  13 H :    0.035812
  14 H :    0.007870
  15 H :    0.040436
  16 S :    0.119071
  17 C :   -0.092624
  18 C :   -0.026174
  19 C :   -0.049360
  20 C :   -0.177647
  21 H :    0.009921
  22 C :    0.159987
  23 H :    0.007673
  24 H :   -0.013526
  25 C :   -0.081266
  26 H :    0.028566
  27 H :    0.012473
  28 C :    0.021961
  29 H :    0.006165
  30 H :    0.007042
  31 H :    0.027006
  32 H :    0.061134
  33 H :    0.054566
Sum of atomic charges:   -0.0000000

LOEWDIN ATOMIC CHARGES
----------------------
   0 S :    0.383597
   1 C :   -0.201554
   2 C :   -0.068789
   3 C :   -0.052335
   4 C :   -0.185226
   5 H :    0.035299
   6 C :   -0.035258
   7 H :    0.025112
   8 H :    0.032977
   9 C :   -0.038182
  10 H :    0.023857
  11 H :    0.020376
  12 C :   -0.064677
  13 H :    0.028758
  14 H :    0.014427
  15 H :    0.033722
  16 S :    0.425147
  17 C :   -0.186710
  18 C :   -0.070337
  19 C :   -0.051136
  20 C :   -0.215504
  21 H :    0.030062
  22 C :   -0.021313
  23 H :    0.024236
  24 H :    0.016399
  25 C :   -0.029696
  26 H :    0.028771
  27 H :    0.019922
  28 C :   -0.064932
  29 H :    0.032306
  30 H :    0.019100
  31 H :    0.021581
  32 H :    0.038315
  33 H :    0.031687

  Mayer bond orders larger than 0.100000
B(  0-S ,  1-C ) :   1.1383 B(  0-S ,  4-C ) :   1.1223 B(  1-C ,  2-C ) :   1.6145
B(  1-C , 32-H ) :   0.9614 B(  2-C ,  3-C ) :   1.2325 B(  2-C ,  6-C ) :   1.0217
B(  3-C ,  4-C ) :   1.6012 B(  3-C ,  5-H ) :   0.9997 B(  4-C , 20-C ) :   1.0114
B(  6-C ,  7-H ) :   0.9336 B(  6-C ,  8-H ) :   0.9422 B(  6-C ,  9-C ) :   1.0498
B(  9-C , 10-H ) :   0.9484 B(  9-C , 11-H ) :   0.9622 B(  9-C , 12-C ) :   1.0843
B( 12-C , 13-H ) :   0.9753 B( 12-C , 14-H ) :   0.9705 B( 12-C , 15-H ) :   0.9723
B( 16-S , 17-C ) :   1.1559 B( 16-S , 20-C ) :   1.1531 B( 17-C , 18-C ) :   1.6279
B( 17-C , 33-H ) :   0.9627 B( 18-C , 19-C ) :   1.2284 B( 18-C , 21-H ) :   0.9953
B( 19-C , 20-C ) :   1.5939 B( 19-C , 22-C ) :   1.0754 B( 22-C , 23-H ) :   0.9282
B( 22-C , 24-H ) :   0.9111 B( 22-C , 25-C ) :   1.0608 B( 25-C , 26-H ) :   0.9569
B( 25-C , 27-H ) :   0.9527 B( 25-C , 28-C ) :   1.0892 B( 28-C , 29-H ) :   0.9608
B( 28-C , 30-H ) :   0.9679 B( 28-C , 31-H ) :   0.9741

Dispersion correction           -0.014379746
FINAL SINGLE POINT ENERGY     -1339.864921686168

DIPOLE MOMENT
-------------
                                X             Y             Z
Electronic contribution:    -18.91012      10.28742      14.46550
Nuclear contribution   :     19.31558     -10.70269     -14.48537
                        -----------------------------------------
Total Dipole Moment    :      0.40546      -0.41527      -0.01987
                        -----------------------------------------
Magnitude (a.u.)       :      0.58073
Magnitude (Debye)      :      1.47609

Rotational constants in cm-1:     0.018293     0.008146     0.007099
Rotational constants in MHz :   548.411841   244.197600   212.812389

                             ****ORCA TERMINATED NORMALLY****
TOTAL RUN TIME: 0 days 0 hours 0 minutes 21 seconds 807 msec
