                         Program Version 4.2.1 -  RELEASE  -
|  1> ! wB97X-D3 SP def2-SVP
|  2> %pal
|  3> nprocs 24
|  4> end
|  5>
|  6> * xyz 0 1
|  7> S 	 -40.7383 	 21.3091 	 21.6972
|  8> C 	 -41.9595 	 20.0311 	 22.141
|  9> C 	 -41.5998 	 19.4998 	 23.4034
| 10> C 	 -40.2806 	 19.8504 	 23.7682
| 11> C 	 -39.6003 	 20.6686 	 22.8694
| 12> H 	 -39.7753 	 19.4926 	 24.5991
| 13> C 	 -42.4298 	 18.6818 	 24.3119
| 14> H 	 -42.997 	 19.2817 	 25.0347
| 15> H 	 -41.7127 	 18.1794 	 25.0123
| 16> C 	 -43.2633 	 17.5982 	 23.5806
| 17> H 	 -43.9817 	 17.9744 	 22.8552
| 18> H 	 -42.718 	 16.8111 	 23.0289
| 19> C 	 -43.9715 	 16.622 	 24.5222
| 20> H 	 -44.372 	 15.7565 	 23.9904
| 21> H 	 -43.2888 	 16.2079 	 25.2481
| 22> H 	 -44.8117 	 17.1085 	 24.9246
| 23> S 	 -37.9579 	 22.8003 	 22.4274
| 24> C 	 -36.3832 	 22.8469 	 22.9883
| 25> C 	 -36.1046 	 21.6555 	 23.7196
| 26> C 	 -37.2403 	 20.8119 	 23.8201
| 27> C 	 -38.2554 	 21.2296 	 23.0164
| 28> H 	 -35.1628 	 21.4132 	 24.1725
| 29> C 	 -37.0182 	 19.37 	 24.3309
| 30> H 	 -36.4116 	 18.8838 	 23.606
| 31> H 	 -37.8786 	 18.8107 	 24.3901
| 32> C 	 -36.3673 	 19.2794 	 25.6868
| 33> H 	 -35.3931 	 19.7403 	 25.7303
| 34> H 	 -36.2405 	 18.1975 	 25.8778
| 35> C 	 -37.2924 	 19.928 	 26.7138
| 36> H 	 -37.5751 	 20.9605 	 26.3409
| 37> H 	 -36.8871 	 20.0349 	 27.7016
| 38> H 	 -38.2176 	 19.3111 	 26.8133
| 39> H 	 -42.9217 	 19.9469 	 21.5721
| 40> H 	 -35.7392 	 23.6499 	 22.7575
| 41> *
| 42>
| 43>                          ****END OF INPUT****

CARTESIAN COORDINATES (ANGSTROEM)
---------------------------------
  S    -40.738300   21.309100   21.697200
  C    -41.959500   20.031100   22.141000
  C    -41.599800   19.499800   23.403400
  C    -40.280600   19.850400   23.768200
  C    -39.600300   20.668600   22.869400
  H    -39.775300   19.492600   24.599100
  C    -42.429800   18.681800   24.311900
  H    -42.997000   19.281700   25.034700
  H    -41.712700   18.179400   25.012300
  C    -43.263300   17.598200   23.580600
  H    -43.981700   17.974400   22.855200
  H    -42.718000   16.811100   23.028900
  C    -43.971500   16.622000   24.522200
  H    -44.372000   15.756500   23.990400
  H    -43.288800   16.207900   25.248100
  H    -44.811700   17.108500   24.924600
  S    -37.957900   22.800300   22.427400
  C    -36.383200   22.846900   22.988300
  C    -36.104600   21.655500   23.719600
  C    -37.240300   20.811900   23.820100
  C    -38.255400   21.229600   23.016400
  H    -35.162800   21.413200   24.172500
  C    -37.018200   19.370000   24.330900
  H    -36.411600   18.883800   23.606000
  H    -37.878600   18.810700   24.390100
  C    -36.367300   19.279400   25.686800
  H    -35.393100   19.740300   25.730300
  H    -36.240500   18.197500   25.877800
  C    -37.292400   19.928000   26.713800
  H    -37.575100   20.960500   26.340900
  H    -36.887100   20.034900   27.701600
  H    -38.217600   19.311100   26.813300
  H    -42.921700   19.946900   21.572100
  H    -35.739200   23.649900   22.757500

 Total Charge           Charge          ....    0
 Multiplicity           Mult            ....    1
 Number of Electrons    NEL             ....  134
 Basis Dimension        Dim             ....  322

ORBITAL ENERGIES
----------------

  NO   OCC          E(Eh)            E(eV)
   0   2.0000     -88.966690     -2420.9067
   1   2.0000     -88.963722     -2420.8259
   2   2.0000     -10.331199      -281.1262
   3   2.0000     -10.323513      -280.9171
   4   2.0000     -10.321429      -280.8604
   5   2.0000     -10.315543      -280.7002
   6   2.0000     -10.304352      -280.3957
   7   2.0000     -10.298793      -280.2444
   8   2.0000     -10.298226      -280.2290
   9   2.0000     -10.295865      -280.1647
  10   2.0000     -10.288514      -279.9647
  11   2.0000     -10.285956      -279.8951
  12   2.0000     -10.285086      -279.8714
  13   2.0000     -10.282422      -279.7989
  14   2.0000     -10.280012      -279.7333
  15   2.0000     -10.271401      -279.4990
  16   2.0000      -8.083840      -219.9725
  17   2.0000      -8.077398      -219.7972
  18   2.0000      -6.042028      -164.4119
  19   2.0000      -6.037889      -164.2993
  20   2.0000      -6.036034      -164.2488
  21   2.0000      -6.034917      -164.2184
  22   2.0000      -6.032312      -164.1476
  23   2.0000      -6.027852      -164.0262
  24   2.0000      -1.017697       -27.6930
  25   2.0000      -0.982840       -26.7444
  26   2.0000      -0.921237       -25.0681
  27   2.0000      -0.912845       -24.8398
  28   2.0000      -0.868903       -23.6440
  29   2.0000      -0.856432       -23.3047
  30   2.0000      -0.844670       -22.9846
  31   2.0000      -0.810372       -22.0513
  32   2.0000      -0.786507       -21.4019
  33   2.0000      -0.772580       -21.0230
  34   2.0000      -0.708970       -19.2921
  35   2.0000      -0.703509       -19.1434
  36   2.0000      -0.691483       -18.8162
  37   2.0000      -0.664174       -18.0731
  38   2.0000      -0.638387       -17.3714
  39   2.0000      -0.624013       -16.9803
  40   2.0000      -0.609096       -16.5743
  41   2.0000      -0.570510       -15.5244
  42   2.0000      -0.564267       -15.3545
  43   2.0000      -0.562025       -15.2935
  44   2.0000      -0.541924       -14.7465
  45   2.0000      -0.529555       -14.4099
  46   2.0000      -0.523806       -14.2535
  47   2.0000      -0.514955       -14.0127
  48   2.0000      -0.504775       -13.7356
  49   2.0000      -0.499284       -13.5862
  50   2.0000      -0.493564       -13.4306
  51   2.0000      -0.482526       -13.1302
  52   2.0000      -0.472269       -12.8511
  53   2.0000      -0.464523       -12.6403
  54   2.0000      -0.459366       -12.5000
  55   2.0000      -0.449916       -12.2428
  56   2.0000      -0.441359       -12.0100
  57   2.0000      -0.439827       -11.9683
  58   2.0000      -0.432769       -11.7763
  59   2.0000      -0.429764       -11.6945
  60   2.0000      -0.423614       -11.5271
  61   2.0000      -0.412584       -11.2270
  62   2.0000      -0.408831       -11.1248
  63   2.0000      -0.356462        -9.6998
  64   2.0000      -0.334891        -9.1129
  65   2.0000      -0.324888        -8.8406
  66   2.0000      -0.279909        -7.6167
  67   0.0000       0.017108         0.4655
  68   0.0000       0.075553         2.0559
  69   0.0000       0.096315         2.6209
  70   0.0000       0.118947         3.2367
  71   0.0000       0.132295         3.5999

MULLIKEN ATOMIC CHARGES
-----------------------
   0 S :    0.074399
   1 C :   -0.155451
   2 C :   -0.042581
   3 C :    0.023592
   4 C :   -0.099494
   5 H :   -0.040207
   6 C :    0.076296
   7 H :    0.048730
   8 H :    0.016183
   9 C :   -0.112342
  10 H :    0.031315
  11 H :    0.035063
  12 C :   -0.033964
  13 H :    0.025907
  14 H :    0.029215
  15 H :    0.019026
  16 S :    0.118834
  17 C :   -0.078746
  18 C :   -0.026941
  19 C :   -0.092648
  20 C :   -0.099869
  21 H :    0.012309
  22 C :    0.097407
  23 H :    0.035366
  24 H :   -0.012027
  25 C :   -0.073154
  26 H :    0.025986
  27 H :    0.032301
  28 C :   -0.078489
  29 H :    0.055428
  30 H :    0.032416
  31 H :    0.032470
  32 H :    0.073768
  33 H :    0.049903
Sum of atomic charges:   -0.0000000

LOEWDIN ATOMIC CHARGES
----------------------
   0 S :    0.367301
   1 C :   -0.189061
   2 C :   -0.055750
   3 C :   -0.064248
   4 C :   -0.172750
   5 H :    0.012830
   6 C :   -0.033856
   7 H :    0.038990
   8 H :    0.034062
   9 C :   -0.045417
  10 H :    0.021727
  11 H :    0.032634
  12 C :   -0.060149
  13 H :    0.026819
  14 H :    0.023013
  15 H :    0.014045
  16 S :    0.463641
  17 C :   -0.203447
  18 C :   -0.063928
  19 C :   -0.066634
  20 C :   -0.212841
  21 H :    0.025419
  22 C :   -0.016011
  23 H :    0.033310
  24 H :    0.013828
  25 C :   -0.040060
  26 H :    0.017182
  27 H :    0.028707
  28 C :   -0.069117
  29 H :    0.035675
  30 H :    0.020382
  31 H :    0.025547
  32 H :    0.036406
  33 H :    0.021751

  Mayer bond orders larger than 0.100000
B(  0-S ,  1-C ) :   1.1167 B(  0-S ,  4-C ) :   1.1531 B(  1-C ,  2-C ) :   1.5669
B(  1-C ,  4-C ) :   0.1071 B(  1-C , 32-H ) :   0.9699 B(  2-C ,  3-C ) :   1.2671
B(  2-C ,  6-C ) :   1.0279 B(  3-C ,  4-C ) :   1.5436 B(  3-C ,  5-H ) :   0.9952
B(  4-C , 20-C ) :   1.0603 B(  6-C ,  7-H ) :   0.9296 B(  6-C ,  8-H ) :   0.9425
B(  6-C ,  9-C ) :   1.0515 B(  9-C , 10-H ) :   0.9560 B(  9-C , 11-H ) :   0.9668
B(  9-C , 12-C ) :   1.0849 B( 12-C , 13-H ) :   0.9765 B( 12-C , 14-H ) :   0.9752
B( 12-C , 15-H ) :   0.9752 B( 16-S , 17-C ) :   1.2040 B( 16-S , 20-C ) :   1.1640
B( 17-C , 18-C ) :   1.5245 B( 17-C , 20-C ) :   0.1007 B( 17-C , 33-H ) :   0.9815
B( 18-C , 19-C ) :   1.2781 B( 18-C , 21-H ) :   0.9974 B( 19-C , 20-C ) :   1.5715
B( 19-C , 22-C ) :   1.0300 B( 22-C , 23-H ) :   0.9385 B( 22-C , 24-H ) :   0.9387
B( 22-C , 25-C ) :   1.0737 B( 25-C , 26-H ) :   0.9547 B( 25-C , 27-H ) :   0.9532
B( 25-C , 28-C ) :   1.0758 B( 28-C , 29-H ) :   0.9699 B( 28-C , 30-H ) :   0.9744
B( 28-C , 31-H ) :   0.9701

Dispersion correction           -0.014156030
FINAL SINGLE POINT ENERGY     -1339.859855595131

DIPOLE MOMENT
-------------
                                X             Y             Z
Electronic contribution:      6.16703      22.83247     -19.02270
Nuclear contribution   :     -6.08500     -23.29364      19.51735
                        -----------------------------------------
Total Dipole Moment    :      0.08203      -0.46117       0.49466
                        -----------------------------------------
Magnitude (a.u.)       :      0.68125
Magnitude (Debye)      :      1.73159

Rotational constants in cm-1:     0.020450     0.008368     0.006196
Rotational constants in MHz :   613.084847   250.864674   185.753613

                             ****ORCA TERMINATED NORMALLY****
TOTAL RUN TIME: 0 days 0 hours 0 minutes 20 seconds 546 msec
