                         Program Version 4.2.1 -  RELEASE  -
|  1> ! wB97X-D3 SP def2-SVP
|  2> %pal
|  3> nprocs 24
|  4> end
|  5>
|  6> * xyz 0 1
|  7> S 	 -47.7294 	 -4.66185 	 -19.2492
|  8> C 	 -48.6338 	 -5.95477 	 -18.5349
|  9> C 	 -49.7953 	 -5.53175 	 -17.8947
| 10> C 	 -49.948 	 -4.10995 	 -18.0369
| 11> C 	 -48.8726 	 -3.47268 	 -18.6497
| 12> H 	 -50.7944 	 -3.63865 	 -17.597
| 13> C 	 -50.7453 	 -6.4893 	 -17.2058
| 14> H 	 -50.7778 	 -6.24572 	 -16.1836
| 15> H 	 -50.5407 	 -7.57122 	 -17.222
| 16> C 	 -52.2053 	 -6.21651 	 -17.6754
| 17> H 	 -52.8902 	 -6.80392 	 -16.9954
| 18> H 	 -52.4834 	 -5.19481 	 -17.4927
| 19> C 	 -52.4443 	 -6.53446 	 -19.1467
| 20> H 	 -52.589 	 -7.5793 	 -19.3128
| 21> H 	 -53.3692 	 -6.08716 	 -19.4628
| 22> H 	 -51.6478 	 -6.21747 	 -19.7575
| 23> S 	 -48.4808 	 -1.66319 	 -20.6716
| 24> C 	 -48.7348 	 0.047753 	 -20.3625
| 25> C 	 -48.9288 	 0.244485 	 -19.0232
| 26> C 	 -48.8761 	 -0.954467 	 -18.2121
| 27> C 	 -48.6681 	 -2.09799 	 -18.988
| 28> H 	 -49.1959 	 1.26318 	 -18.7892
| 29> C 	 -49.0622 	 -0.941321 	 -16.6768
| 30> H 	 -50.0187 	 -1.49233 	 -16.4398
| 31> H 	 -49.2442 	 0.0875628 	 -16.3534
| 32> C 	 -47.9057 	 -1.43679 	 -15.8119
| 33> H 	 -47.1919 	 -0.664712 	 -15.6513
| 34> H 	 -47.4634 	 -2.25519 	 -16.4006
| 35> C 	 -48.4038 	 -1.87936 	 -14.3774
| 36> H 	 -49.3483 	 -1.54204 	 -14.0761
| 37> H 	 -47.7234 	 -1.64107 	 -13.6044
| 38> H 	 -48.5296 	 -2.94298 	 -14.1862
| 39> H 	 -48.3691 	 -7.02322 	 -18.5462
| 40> H 	 -48.6548 	 0.92432 	 -21.0719
| 41> *
| 42>
| 43>                          ****END OF INPUT****

CARTESIAN COORDINATES (ANGSTROEM)
---------------------------------
  S    -47.729400   -4.661850  -19.249200
  C    -48.633800   -5.954770  -18.534900
  C    -49.795300   -5.531750  -17.894700
  C    -49.948000   -4.109950  -18.036900
  C    -48.872600   -3.472680  -18.649700
  H    -50.794400   -3.638650  -17.597000
  C    -50.745300   -6.489300  -17.205800
  H    -50.777800   -6.245720  -16.183600
  H    -50.540700   -7.571220  -17.222000
  C    -52.205300   -6.216510  -17.675400
  H    -52.890200   -6.803920  -16.995400
  H    -52.483400   -5.194810  -17.492700
  C    -52.444300   -6.534460  -19.146700
  H    -52.589000   -7.579300  -19.312800
  H    -53.369200   -6.087160  -19.462800
  H    -51.647800   -6.217470  -19.757500
  S    -48.480800   -1.663190  -20.671600
  C    -48.734800    0.047753  -20.362500
  C    -48.928800    0.244485  -19.023200
  C    -48.876100   -0.954467  -18.212100
  C    -48.668100   -2.097990  -18.988000
  H    -49.195900    1.263180  -18.789200
  C    -49.062200   -0.941321  -16.676800
  H    -50.018700   -1.492330  -16.439800
  H    -49.244200    0.087563  -16.353400
  C    -47.905700   -1.436790  -15.811900
  H    -47.191900   -0.664712  -15.651300
  H    -47.463400   -2.255190  -16.400600
  C    -48.403800   -1.879360  -14.377400
  H    -49.348300   -1.542040  -14.076100
  H    -47.723400   -1.641070  -13.604400
  H    -48.529600   -2.942980  -14.186200
  H    -48.369100   -7.023220  -18.546200
  H    -48.654800    0.924320  -21.071900

 Total Charge           Charge          ....    0
 Multiplicity           Mult            ....    1
 Number of Electrons    NEL             ....  134
 Basis Dimension        Dim             ....  322

ORBITAL ENERGIES
----------------

  NO   OCC          E(Eh)            E(eV)
   0   2.0000     -88.967425     -2420.9267
   1   2.0000     -88.964498     -2420.8471
   2   2.0000     -10.332131      -281.1516
   3   2.0000     -10.325998      -280.9847
   4   2.0000     -10.320793      -280.8431
   5   2.0000     -10.313549      -280.6459
   6   2.0000     -10.309129      -280.5257
   7   2.0000     -10.302671      -280.3499
   8   2.0000     -10.298458      -280.2353
   9   2.0000     -10.295077      -280.1433
  10   2.0000     -10.293813      -280.1089
  11   2.0000     -10.293059      -280.0884
  12   2.0000     -10.288631      -279.9679
  13   2.0000     -10.285332      -279.8781
  14   2.0000     -10.268784      -279.4278
  15   2.0000     -10.264051      -279.2990
  16   2.0000      -8.082362      -219.9323
  17   2.0000      -8.079204      -219.8463
  18   2.0000      -6.040837      -164.3795
  19   2.0000      -6.037848      -164.2982
  20   2.0000      -6.036793      -164.2695
  21   2.0000      -6.033614      -164.1830
  22   2.0000      -6.033201      -164.1717
  23   2.0000      -6.029889      -164.0816
  24   2.0000      -1.007877       -27.4257
  25   2.0000      -0.982912       -26.7464
  26   2.0000      -0.913839       -24.8668
  27   2.0000      -0.901777       -24.5386
  28   2.0000      -0.871681       -23.7196
  29   2.0000      -0.847786       -23.0694
  30   2.0000      -0.841323       -22.8936
  31   2.0000      -0.816554       -22.2196
  32   2.0000      -0.787469       -21.4281
  33   2.0000      -0.774454       -21.0740
  34   2.0000      -0.716581       -19.4992
  35   2.0000      -0.698050       -18.9949
  36   2.0000      -0.687344       -18.7036
  37   2.0000      -0.657143       -17.8818
  38   2.0000      -0.637867       -17.3573
  39   2.0000      -0.629911       -17.1408
  40   2.0000      -0.588555       -16.0154
  41   2.0000      -0.570953       -15.5364
  42   2.0000      -0.558640       -15.2014
  43   2.0000      -0.553672       -15.0662
  44   2.0000      -0.540300       -14.7023
  45   2.0000      -0.518405       -14.1065
  46   2.0000      -0.515125       -14.0173
  47   2.0000      -0.509084       -13.8529
  48   2.0000      -0.506217       -13.7749
  49   2.0000      -0.498340       -13.5605
  50   2.0000      -0.493243       -13.4218
  51   2.0000      -0.481808       -13.1107
  52   2.0000      -0.472501       -12.8574
  53   2.0000      -0.464143       -12.6300
  54   2.0000      -0.461599       -12.5607
  55   2.0000      -0.448425       -12.2023
  56   2.0000      -0.441548       -12.0151
  57   2.0000      -0.435940       -11.8625
  58   2.0000      -0.431730       -11.7480
  59   2.0000      -0.426392       -11.6027
  60   2.0000      -0.420365       -11.4387
  61   2.0000      -0.416335       -11.3290
  62   2.0000      -0.409378       -11.1397
  63   2.0000      -0.348663        -9.4876
  64   2.0000      -0.331417        -9.0183
  65   2.0000      -0.328359        -8.9351
  66   2.0000      -0.292496        -7.9592
  67   0.0000       0.027204         0.7403
  68   0.0000       0.069926         1.9028
  69   0.0000       0.112298         3.0558
  70   0.0000       0.120372         3.2755
  71   0.0000       0.134524         3.6606

MULLIKEN ATOMIC CHARGES
-----------------------
   0 S :    0.114217
   1 C :   -0.121768
   2 C :   -0.121798
   3 C :    0.057603
   4 C :   -0.165898
   5 H :   -0.000442
   6 C :    0.111171
   7 H :    0.019546
   8 H :    0.030469
   9 C :   -0.132102
  10 H :    0.029234
  11 H :    0.022344
  12 C :    0.002490
  13 H :    0.015793
  14 H :    0.022879
  15 H :    0.034951
  16 S :    0.105712
  17 C :   -0.119555
  18 C :   -0.043836
  19 C :   -0.035903
  20 C :   -0.131333
  21 H :    0.016797
  22 C :    0.050545
  23 H :    0.039777
  24 H :    0.014263
  25 C :   -0.041259
  26 H :    0.030336
  27 H :    0.049063
  28 C :   -0.033628
  29 H :    0.010328
  30 H :    0.016857
  31 H :    0.021938
  32 H :    0.051533
  33 H :    0.079677
Sum of atomic charges:   -0.0000000

LOEWDIN ATOMIC CHARGES
----------------------
   0 S :    0.413739
   1 C :   -0.207000
   2 C :   -0.062703
   3 C :   -0.051878
   4 C :   -0.192606
   5 H :    0.024438
   6 C :   -0.027775
   7 H :    0.027658
   8 H :    0.034080
   9 C :   -0.039611
  10 H :    0.026940
  11 H :    0.015961
  12 C :   -0.058870
  13 H :    0.021541
  14 H :    0.025617
  15 H :    0.022196
  16 S :    0.403174
  17 C :   -0.195868
  18 C :   -0.076985
  19 C :   -0.052936
  20 C :   -0.209630
  21 H :    0.031531
  22 C :   -0.035908
  23 H :    0.034562
  24 H :    0.027801
  25 C :   -0.030557
  26 H :    0.022312
  27 H :    0.030528
  28 C :   -0.067221
  29 H :    0.016077
  30 H :    0.021380
  31 H :    0.029525
  32 H :    0.032329
  33 H :    0.048157

  Mayer bond orders larger than 0.100000
B(  0-S ,  1-C ) :   1.1448 B(  0-S ,  4-C ) :   1.1500 B(  1-C ,  2-C ) :   1.6060
B(  1-C , 32-H ) :   0.9639 B(  2-C ,  3-C ) :   1.2538 B(  2-C ,  6-C ) :   1.0222
B(  3-C ,  4-C ) :   1.5530 B(  3-C ,  5-H ) :   0.9956 B(  4-C , 20-C ) :   1.0498
B(  6-C ,  7-H ) :   0.9248 B(  6-C ,  8-H ) :   0.9523 B(  6-C ,  9-C ) :   1.0730
B(  9-C , 10-H ) :   0.9550 B(  9-C , 11-H ) :   0.9590 B(  9-C , 12-C ) :   1.0726
B( 12-C , 13-H ) :   0.9735 B( 12-C , 14-H ) :   0.9729 B( 12-C , 15-H ) :   0.9755
B( 16-S , 17-C ) :   1.1445 B( 16-S , 20-C ) :   1.1390 B( 17-C , 18-C ) :   1.6391
B( 17-C , 33-H ) :   0.9556 B( 18-C , 19-C ) :   1.2337 B( 18-C , 21-H ) :   0.9905
B( 19-C , 20-C ) :   1.5811 B( 19-C , 22-C ) :   1.0368 B( 22-C , 23-H ) :   0.9397
B( 22-C , 24-H ) :   0.9325 B( 22-C , 25-C ) :   1.0560 B( 25-C , 26-H ) :   0.9622
B( 25-C , 27-H ) :   0.9673 B( 25-C , 28-C ) :   1.0553 B( 28-C , 29-H ) :   0.9787
B( 28-C , 30-H ) :   0.9782 B( 28-C , 31-H ) :   0.9738

Dispersion correction           -0.014646258
FINAL SINGLE POINT ENERGY     -1339.875542496489

DIPOLE MOMENT
-------------
                                X             Y             Z
Electronic contribution:     13.99493       5.89460     -19.83119
Nuclear contribution   :    -14.46866      -5.85276      20.36002
                        -----------------------------------------
Total Dipole Moment    :     -0.47373       0.04184       0.52883
                        -----------------------------------------
Magnitude (a.u.)       :      0.71122
Magnitude (Debye)      :      1.80777

Rotational constants in cm-1:     0.017196     0.009400     0.007713
Rotational constants in MHz :   515.527950   281.819693   231.228699

                             ****ORCA TERMINATED NORMALLY****
TOTAL RUN TIME: 0 days 0 hours 0 minutes 21 seconds 993 msec
