                         Program Version 4.2.1 -  RELEASE  -
|  1> ! wB97X-D3 SP def2-SVP
|  2> %pal
|  3> nprocs 24
|  4> end
|  5>
|  6> * xyz 0 1
|  7> S 	 33.3445 	 -30.5674 	 -131.9
|  8> C 	 34.9284 	 -30.979 	 -132.578
|  9> C 	 35.5301 	 -31.9342 	 -131.803
| 10> C 	 34.6608 	 -32.5154 	 -130.841
| 11> C 	 33.4646 	 -31.8859 	 -130.799
| 12> H 	 34.8452 	 -33.3598 	 -130.181
| 13> C 	 36.8631 	 -32.6276 	 -132.055
| 14> H 	 37.2042 	 -32.4459 	 -133.022
| 15> H 	 36.6719 	 -33.6779 	 -132.116
| 16> C 	 37.9758 	 -32.3542 	 -131.02
| 17> H 	 37.7326 	 -32.9175 	 -130.064
| 18> H 	 38.8798 	 -32.8226 	 -131.338
| 19> C 	 38.2844 	 -30.8887 	 -130.596
| 20> H 	 37.3508 	 -30.3942 	 -130.332
| 21> H 	 39.036 	 -30.8566 	 -129.796
| 22> H 	 38.8576 	 -30.3001 	 -131.271
| 23> S 	 31.3867 	 -33.7192 	 -130.557
| 24> C 	 30.3036 	 -33.6972 	 -129.142
| 25> C 	 30.6357 	 -32.6318 	 -128.252
| 26> C 	 31.8019 	 -31.8708 	 -128.756
| 27> C 	 32.3134 	 -32.327 	 -129.987
| 28> H 	 30.1877 	 -32.4295 	 -127.353
| 29> C 	 32.2129 	 -30.5738 	 -127.978
| 30> H 	 31.3561 	 -30.1822 	 -127.417
| 31> H 	 32.5052 	 -29.7185 	 -128.631
| 32> C 	 33.4506 	 -30.7094 	 -127.101
| 33> H 	 33.681 	 -29.6963 	 -126.699
| 34> H 	 34.3323 	 -31.0006 	 -127.799
| 35> C 	 33.3194 	 -31.8024 	 -125.976
| 36> H 	 32.4285 	 -31.5506 	 -125.441
| 37> H 	 34.1754 	 -31.6438 	 -125.275
| 38> H 	 33.2529 	 -32.8979 	 -126.183
| 39> H 	 35.4452 	 -30.4513 	 -133.415
| 40> H 	 29.4701 	 -34.3976 	 -129.074
| 41> *
| 42>
| 43>                          ****END OF INPUT****

CARTESIAN COORDINATES (ANGSTROEM)
---------------------------------
  S     33.344500  -30.567400  -131.900000
  C     34.928400  -30.979000  -132.578000
  C     35.530100  -31.934200  -131.803000
  C     34.660800  -32.515400  -130.841000
  C     33.464600  -31.885900  -130.799000
  H     34.845200  -33.359800  -130.181000
  C     36.863100  -32.627600  -132.055000
  H     37.204200  -32.445900  -133.022000
  H     36.671900  -33.677900  -132.116000
  C     37.975800  -32.354200  -131.020000
  H     37.732600  -32.917500  -130.064000
  H     38.879800  -32.822600  -131.338000
  C     38.284400  -30.888700  -130.596000
  H     37.350800  -30.394200  -130.332000
  H     39.036000  -30.856600  -129.796000
  H     38.857600  -30.300100  -131.271000
  S     31.386700  -33.719200  -130.557000
  C     30.303600  -33.697200  -129.142000
  C     30.635700  -32.631800  -128.252000
  C     31.801900  -31.870800  -128.756000
  C     32.313400  -32.327000  -129.987000
  H     30.187700  -32.429500  -127.353000
  C     32.212900  -30.573800  -127.978000
  H     31.356100  -30.182200  -127.417000
  H     32.505200  -29.718500  -128.631000
  C     33.450600  -30.709400  -127.101000
  H     33.681000  -29.696300  -126.699000
  H     34.332300  -31.000600  -127.799000
  C     33.319400  -31.802400  -125.976000
  H     32.428500  -31.550600  -125.441000
  H     34.175400  -31.643800  -125.275000
  H     33.252900  -32.897900  -126.183000
  H     35.445200  -30.451300  -133.415000
  H     29.470100  -34.397600  -129.074000

 Total Charge           Charge          ....    0
 Multiplicity           Mult            ....    1
 Number of Electrons    NEL             ....  134
 Basis Dimension        Dim             ....  322

ORBITAL ENERGIES
----------------

  NO   OCC          E(Eh)            E(eV)
   0   2.0000     -88.967136     -2420.9188
   1   2.0000     -88.966930     -2420.9132
   2   2.0000     -10.330618      -281.1104
   3   2.0000     -10.328630      -281.0563
   4   2.0000     -10.325280      -280.9652
   5   2.0000     -10.318520      -280.7812
   6   2.0000     -10.312913      -280.6286
   7   2.0000     -10.300861      -280.3007
   8   2.0000     -10.299833      -280.2727
   9   2.0000     -10.295108      -280.1441
  10   2.0000     -10.294650      -280.1317
  11   2.0000     -10.290518      -280.0192
  12   2.0000     -10.290300      -280.0133
  13   2.0000     -10.285686      -279.8877
  14   2.0000     -10.278706      -279.6978
  15   2.0000     -10.274689      -279.5885
  16   2.0000      -8.081989      -219.9221
  17   2.0000      -8.080705      -219.8872
  18   2.0000      -6.040491      -164.3701
  19   2.0000      -6.039301      -164.3377
  20   2.0000      -6.036499      -164.2615
  21   2.0000      -6.035176      -164.2255
  22   2.0000      -6.032722      -164.1587
  23   2.0000      -6.031607      -164.1284
  24   2.0000      -1.006885       -27.3987
  25   2.0000      -0.974499       -26.5175
  26   2.0000      -0.907527       -24.6951
  27   2.0000      -0.898399       -24.4467
  28   2.0000      -0.863777       -23.5046
  29   2.0000      -0.847719       -23.0676
  30   2.0000      -0.835378       -22.7318
  31   2.0000      -0.811701       -22.0875
  32   2.0000      -0.787265       -21.4226
  33   2.0000      -0.773925       -21.0596
  34   2.0000      -0.704348       -19.1663
  35   2.0000      -0.697268       -18.9736
  36   2.0000      -0.678268       -18.4566
  37   2.0000      -0.668664       -18.1953
  38   2.0000      -0.641541       -17.4572
  39   2.0000      -0.618993       -16.8437
  40   2.0000      -0.589965       -16.0538
  41   2.0000      -0.568517       -15.4701
  42   2.0000      -0.550046       -14.9675
  43   2.0000      -0.544240       -14.8095
  44   2.0000      -0.539016       -14.6674
  45   2.0000      -0.534952       -14.5568
  46   2.0000      -0.515168       -14.0184
  47   2.0000      -0.508795       -13.8450
  48   2.0000      -0.499387       -13.5890
  49   2.0000      -0.490138       -13.3373
  50   2.0000      -0.484067       -13.1721
  51   2.0000      -0.481825       -13.1111
  52   2.0000      -0.471881       -12.8405
  53   2.0000      -0.464586       -12.6420
  54   2.0000      -0.460771       -12.5382
  55   2.0000      -0.447531       -12.1779
  56   2.0000      -0.440519       -11.9871
  57   2.0000      -0.438493       -11.9320
  58   2.0000      -0.427083       -11.6215
  59   2.0000      -0.419657       -11.4194
  60   2.0000      -0.418766       -11.3952
  61   2.0000      -0.410817       -11.1789
  62   2.0000      -0.404362       -11.0033
  63   2.0000      -0.336224        -9.1491
  64   2.0000      -0.328771        -8.9463
  65   2.0000      -0.325911        -8.8685
  66   2.0000      -0.309249        -8.4151
  67   0.0000       0.044815         1.2195
  68   0.0000       0.051791         1.4093
  69   0.0000       0.111153         3.0246
  70   0.0000       0.114922         3.1272
  71   0.0000       0.120464         3.2780

MULLIKEN ATOMIC CHARGES
-----------------------
   0 S :    0.120839
   1 C :   -0.140827
   2 C :   -0.085667
   3 C :    0.035361
   4 C :   -0.160714
   5 H :    0.022616
   6 C :    0.118166
   7 H :   -0.007457
   8 H :    0.023095
   9 C :   -0.088464
  10 H :    0.031763
  11 H :    0.020091
  12 C :   -0.040105
  13 H :    0.051438
  14 H :    0.023423
  15 H :    0.014755
  16 S :    0.107594
  17 C :   -0.109391
  18 C :    0.014605
  19 C :   -0.020286
  20 C :   -0.176023
  21 H :   -0.007263
  22 C :    0.036851
  23 H :    0.026432
  24 H :    0.033576
  25 C :   -0.104766
  26 H :    0.038622
  27 H :    0.047759
  28 C :   -0.070580
  29 H :    0.014222
  30 H :    0.037533
  31 H :    0.057015
  32 H :    0.064404
  33 H :    0.071382
Sum of atomic charges:   -0.0000000

LOEWDIN ATOMIC CHARGES
----------------------
   0 S :    0.409634
   1 C :   -0.195525
   2 C :   -0.065114
   3 C :   -0.058494
   4 C :   -0.204655
   5 H :    0.037936
   6 C :   -0.025601
   7 H :    0.018048
   8 H :    0.033844
   9 C :   -0.040508
  10 H :    0.028475
  11 H :    0.019538
  12 C :   -0.069343
  13 H :    0.028439
  14 H :    0.030412
  15 H :    0.018428
  16 S :    0.395044
  17 C :   -0.176201
  18 C :   -0.055416
  19 C :   -0.047669
  20 C :   -0.202384
  21 H :    0.015159
  22 C :   -0.041025
  23 H :    0.026931
  24 H :    0.035429
  25 C :   -0.045889
  26 H :    0.028210
  27 H :    0.032605
  28 C :   -0.080628
  29 H :    0.015939
  30 H :    0.030590
  31 H :    0.033925
  32 H :    0.039785
  33 H :    0.030081

  Mayer bond orders larger than 0.100000
B(  0-S ,  1-C ) :   1.1267 B(  0-S ,  4-C ) :   1.1570 B(  1-C ,  2-C ) :   1.6327
B(  1-C , 32-H ) :   0.9620 B(  2-C ,  3-C ) :   1.1985 B(  2-C ,  6-C ) :   1.0224
B(  3-C ,  4-C ) :   1.6114 B(  3-C ,  5-H ) :   0.9989 B(  4-C , 20-C ) :   0.9942
B(  6-C ,  7-H ) :   0.9396 B(  6-C ,  8-H ) :   0.9412 B(  6-C ,  9-C ) :   1.0664
B(  9-C , 10-H ) :   0.9582 B(  9-C , 11-H ) :   0.9560 B(  9-C , 12-C ) :   1.0777
B( 12-C , 13-H ) :   0.9738 B( 12-C , 14-H ) :   0.9706 B( 12-C , 15-H ) :   0.9739
B( 16-S , 17-C ) :   1.1633 B( 16-S , 20-C ) :   1.1399 B( 17-C , 18-C ) :   1.5783
B( 17-C , 20-C ) :   0.1003 B( 17-C , 33-H ) :   0.9688 B( 18-C , 19-C ) :   1.2390
B( 18-C , 21-H ) :   1.0003 B( 19-C , 20-C ) :   1.6165 B( 19-C , 22-C ) :   1.0225
B( 22-C , 23-H ) :   0.9452 B( 22-C , 24-H ) :   0.9424 B( 22-C , 25-C ) :   1.0749
B( 25-C , 26-H ) :   0.9558 B( 25-C , 27-H ) :   0.9559 B( 25-C , 28-C ) :   1.0587
B( 28-C , 29-H ) :   0.9757 B( 28-C , 30-H ) :   0.9761 B( 28-C , 31-H ) :   0.9755

Dispersion correction           -0.015069590
FINAL SINGLE POINT ENERGY     -1339.870530806884

DIPOLE MOMENT
-------------
                                X             Y             Z
Electronic contribution:    -20.38474      -4.24568     -15.30039
Nuclear contribution   :     20.75918       4.23103      15.55196
                        -----------------------------------------
Total Dipole Moment    :      0.37443      -0.01465       0.25157
                        -----------------------------------------
Magnitude (a.u.)       :      0.45133
Magnitude (Debye)      :      1.14720

Rotational constants in cm-1:     0.018889     0.008864     0.007403
Rotational constants in MHz :   566.279534   265.723602   221.932708

                             ****ORCA TERMINATED NORMALLY****
TOTAL RUN TIME: 0 days 0 hours 0 minutes 20 seconds 552 msec
