                         Program Version 4.2.1 -  RELEASE  -
|  1> ! wB97X-D3 SP def2-SVP
|  2> %pal
|  3> nprocs 24
|  4> end
|  5>
|  6> * xyz 0 1
|  7> S 	 -84.193 	 -20.9425 	 -46.4423
|  8> C 	 -85.1539 	 -19.5715 	 -46.8173
|  9> C 	 -84.4852 	 -18.6415 	 -47.6047
| 10> C 	 -83.2637 	 -19.2605 	 -48.1342
| 11> C 	 -83.0895 	 -20.5495 	 -47.6847
| 12> H 	 -82.5755 	 -18.7533 	 -48.7957
| 13> C 	 -84.9106 	 -17.1679 	 -47.7103
| 14> H 	 -84.1364 	 -16.6286 	 -47.1089
| 15> H 	 -85.9051 	 -17.0533 	 -47.255
| 16> C 	 -85.0042 	 -16.506 	 -49.0605
| 17> H 	 -84.1762 	 -16.8052 	 -49.7164
| 18> H 	 -85.9717 	 -16.7503 	 -49.5232
| 19> C 	 -85.0065 	 -14.9379 	 -49.0133
| 20> H 	 -85.7449 	 -14.3979 	 -48.4066
| 21> H 	 -84.0896 	 -14.6836 	 -48.5774
| 22> H 	 -84.9281 	 -14.5197 	 -50.0472
| 23> S 	 -80.8522 	 -22.0769 	 -47.0945
| 24> C 	 -80.1791 	 -23.1328 	 -48.3033
| 25> C 	 -80.8658 	 -22.9251 	 -49.4747
| 26> C 	 -81.943 	 -21.9594 	 -49.413
| 27> C 	 -82.1504 	 -21.5476 	 -48.1402
| 28> H 	 -80.4985 	 -23.3103 	 -50.3887
| 29> C 	 -82.6565 	 -21.5027 	 -50.6092
| 30> H 	 -82.003 	 -21.3828 	 -51.5265
| 31> H 	 -83.1645 	 -20.559 	 -50.4311
| 32> C 	 -83.8076 	 -22.4079 	 -51.0856
| 33> H 	 -84.4358 	 -22.5484 	 -50.2683
| 34> H 	 -83.478 	 -23.44 	 -51.3154
| 35> C 	 -84.5416 	 -21.9614 	 -52.3884
| 36> H 	 -83.8803 	 -22.3494 	 -53.1934
| 37> H 	 -84.5973 	 -20.9063 	 -52.4728
| 38> H 	 -85.5667 	 -22.3213 	 -52.4317
| 39> H 	 -86.0232 	 -19.231 	 -46.1955
| 40> H 	 -79.2303 	 -23.7388 	 -48.2201
| 41> *
| 42>
| 43>                          ****END OF INPUT****

CARTESIAN COORDINATES (ANGSTROEM)
---------------------------------
  S    -84.193000  -20.942500  -46.442300
  C    -85.153900  -19.571500  -46.817300
  C    -84.485200  -18.641500  -47.604700
  C    -83.263700  -19.260500  -48.134200
  C    -83.089500  -20.549500  -47.684700
  H    -82.575500  -18.753300  -48.795700
  C    -84.910600  -17.167900  -47.710300
  H    -84.136400  -16.628600  -47.108900
  H    -85.905100  -17.053300  -47.255000
  C    -85.004200  -16.506000  -49.060500
  H    -84.176200  -16.805200  -49.716400
  H    -85.971700  -16.750300  -49.523200
  C    -85.006500  -14.937900  -49.013300
  H    -85.744900  -14.397900  -48.406600
  H    -84.089600  -14.683600  -48.577400
  H    -84.928100  -14.519700  -50.047200
  S    -80.852200  -22.076900  -47.094500
  C    -80.179100  -23.132800  -48.303300
  C    -80.865800  -22.925100  -49.474700
  C    -81.943000  -21.959400  -49.413000
  C    -82.150400  -21.547600  -48.140200
  H    -80.498500  -23.310300  -50.388700
  C    -82.656500  -21.502700  -50.609200
  H    -82.003000  -21.382800  -51.526500
  H    -83.164500  -20.559000  -50.431100
  C    -83.807600  -22.407900  -51.085600
  H    -84.435800  -22.548400  -50.268300
  H    -83.478000  -23.440000  -51.315400
  C    -84.541600  -21.961400  -52.388400
  H    -83.880300  -22.349400  -53.193400
  H    -84.597300  -20.906300  -52.472800
  H    -85.566700  -22.321300  -52.431700
  H    -86.023200  -19.231000  -46.195500
  H    -79.230300  -23.738800  -48.220100

 Total Charge           Charge          ....    0
 Multiplicity           Mult            ....    1
 Number of Electrons    NEL             ....  134
 Basis Dimension        Dim             ....  322

ORBITAL ENERGIES
----------------

  NO   OCC          E(Eh)            E(eV)
   0   2.0000     -88.965475     -2420.8736
   1   2.0000     -88.962890     -2420.8033
   2   2.0000     -10.325263      -280.9647
   3   2.0000     -10.321121      -280.8520
   4   2.0000     -10.320895      -280.8458
   5   2.0000     -10.312962      -280.6300
   6   2.0000     -10.307859      -280.4911
   7   2.0000     -10.300678      -280.2957
   8   2.0000     -10.299324      -280.2589
   9   2.0000     -10.298092      -280.2253
  10   2.0000     -10.291683      -280.0509
  11   2.0000     -10.289931      -280.0033
  12   2.0000     -10.289455      -279.9903
  13   2.0000     -10.280587      -279.7490
  14   2.0000     -10.276737      -279.6442
  15   2.0000     -10.276172      -279.6289
  16   2.0000      -8.081784      -219.9165
  17   2.0000      -8.077999      -219.8135
  18   2.0000      -6.040104      -164.3596
  19   2.0000      -6.036639      -164.2653
  20   2.0000      -6.036279      -164.2555
  21   2.0000      -6.032479      -164.1521
  22   2.0000      -6.032426      -164.1507
  23   2.0000      -6.028566      -164.0456
  24   2.0000      -1.014762       -27.6131
  25   2.0000      -0.989630       -26.9292
  26   2.0000      -0.913005       -24.8441
  27   2.0000      -0.909043       -24.7363
  28   2.0000      -0.872680       -23.7468
  29   2.0000      -0.851422       -23.1684
  30   2.0000      -0.844860       -22.9898
  31   2.0000      -0.815739       -22.1974
  32   2.0000      -0.784133       -21.3374
  33   2.0000      -0.772714       -21.0266
  34   2.0000      -0.708759       -19.2863
  35   2.0000      -0.695399       -18.9228
  36   2.0000      -0.689359       -18.7584
  37   2.0000      -0.662150       -18.0180
  38   2.0000      -0.640520       -17.4294
  39   2.0000      -0.623621       -16.9696
  40   2.0000      -0.600019       -16.3274
  41   2.0000      -0.570894       -15.5348
  42   2.0000      -0.568073       -15.4581
  43   2.0000      -0.561132       -15.2692
  44   2.0000      -0.527528       -14.3548
  45   2.0000      -0.521114       -14.1802
  46   2.0000      -0.518888       -14.1197
  47   2.0000      -0.507268       -13.8035
  48   2.0000      -0.502772       -13.6811
  49   2.0000      -0.496396       -13.5076
  50   2.0000      -0.494895       -13.4668
  51   2.0000      -0.488709       -13.2985
  52   2.0000      -0.469501       -12.7758
  53   2.0000      -0.466350       -12.6900
  54   2.0000      -0.458178       -12.4677
  55   2.0000      -0.451512       -12.2863
  56   2.0000      -0.443490       -12.0680
  57   2.0000      -0.436850       -11.8873
  58   2.0000      -0.432059       -11.7569
  59   2.0000      -0.430002       -11.7009
  60   2.0000      -0.420975       -11.4553
  61   2.0000      -0.414834       -11.2882
  62   2.0000      -0.411770       -11.2048
  63   2.0000      -0.343022        -9.3341
  64   2.0000      -0.328745        -8.9456
  65   2.0000      -0.325239        -8.8502
  66   2.0000      -0.300469        -8.1762
  67   0.0000       0.037621         1.0237
  68   0.0000       0.065114         1.7718
  69   0.0000       0.105577         2.8729
  70   0.0000       0.111696         3.0394
  71   0.0000       0.138284         3.7629

MULLIKEN ATOMIC CHARGES
-----------------------
   0 S :    0.130837
   1 C :   -0.125748
   2 C :   -0.117013
   3 C :    0.050401
   4 C :   -0.190272
   5 H :    0.016305
   6 C :    0.055697
   7 H :    0.046878
   8 H :    0.025304
   9 C :   -0.085306
  10 H :    0.032974
  11 H :    0.037146
  12 C :   -0.057386
  13 H :    0.039784
  14 H :    0.006211
  15 H :    0.041167
  16 S :    0.100238
  17 C :   -0.105987
  18 C :   -0.012467
  19 C :   -0.017381
  20 C :   -0.133406
  21 H :   -0.000384
  22 C :    0.053483
  23 H :    0.029922
  24 H :    0.017368
  25 C :   -0.083841
  26 H :    0.012640
  27 H :    0.020651
  28 C :   -0.030953
  29 H :    0.037605
  30 H :    0.017523
  31 H :    0.042555
  32 H :    0.061764
  33 H :    0.083693
Sum of atomic charges:    0.0000000

LOEWDIN ATOMIC CHARGES
----------------------
   0 S :    0.439913
   1 C :   -0.220157
   2 C :   -0.061335
   3 C :   -0.059336
   4 C :   -0.207515
   5 H :    0.029440
   6 C :   -0.036032
   7 H :    0.039720
   8 H :    0.034155
   9 C :   -0.043290
  10 H :    0.024680
  11 H :    0.026132
  12 C :   -0.068852
  13 H :    0.026817
  14 H :    0.013143
  15 H :    0.034191
  16 S :    0.402583
  17 C :   -0.196713
  18 C :   -0.064930
  19 C :   -0.054822
  20 C :   -0.203398
  21 H :    0.021744
  22 C :   -0.037162
  23 H :    0.036162
  24 H :    0.029876
  25 C :   -0.037144
  26 H :    0.011717
  27 H :    0.021418
  28 C :   -0.061763
  29 H :    0.031325
  30 H :    0.015471
  31 H :    0.030848
  32 H :    0.034906
  33 H :    0.048206

  Mayer bond orders larger than 0.100000
B(  0-S ,  1-C ) :   1.1484 B(  0-S ,  4-C ) :   1.1700 B(  1-C ,  2-C ) :   1.6277
B(  1-C , 32-H ) :   0.9571 B(  2-C ,  3-C ) :   1.2223 B(  2-C ,  6-C ) :   1.0221
B(  3-C ,  4-C ) :   1.5778 B(  3-C ,  5-H ) :   0.9982 B(  4-C , 20-C ) :   0.9997
B(  6-C ,  7-H ) :   0.9416 B(  6-C ,  8-H ) :   0.9395 B(  6-C ,  9-C ) :   1.0619
B(  9-C , 10-H ) :   0.9587 B(  9-C , 11-H ) :   0.9581 B(  9-C , 12-C ) :   1.0723
B( 12-C , 13-H ) :   0.9781 B( 12-C , 14-H ) :   0.9737 B( 12-C , 15-H ) :   0.9744
B( 16-S , 17-C ) :   1.1427 B( 16-S , 20-C ) :   1.1410 B( 17-C , 18-C ) :   1.6186
B( 17-C , 33-H ) :   0.9612 B( 18-C , 19-C ) :   1.2229 B( 18-C , 21-H ) :   0.9917
B( 19-C , 20-C ) :   1.6157 B( 19-C , 22-C ) :   1.0766 B( 22-C , 23-H ) :   0.9320
B( 22-C , 24-H ) :   0.9163 B( 22-C , 25-C ) :   1.0621 B( 25-C , 26-H ) :   0.9559
B( 25-C , 27-H ) :   0.9619 B( 25-C , 28-C ) :   1.0674 B( 28-C , 29-H ) :   0.9794
B( 28-C , 30-H ) :   0.9777 B( 28-C , 31-H ) :   0.9750

Dispersion correction           -0.013820448
FINAL SINGLE POINT ENERGY     -1339.871697434584

DIPOLE MOMENT
-------------
                                X             Y             Z
Electronic contribution:     12.28864     -17.00196      21.81250
Nuclear contribution   :    -12.28192      17.50993     -22.27437
                        -----------------------------------------
Total Dipole Moment    :      0.00672       0.50798      -0.46187
                        -----------------------------------------
Magnitude (a.u.)       :      0.68659
Magnitude (Debye)      :      1.74518

Rotational constants in cm-1:     0.017523     0.008386     0.006788
Rotational constants in MHz :   525.335820   251.405078   203.494782

                             ****ORCA TERMINATED NORMALLY****
TOTAL RUN TIME: 0 days 0 hours 0 minutes 20 seconds 711 msec
