                         Program Version 4.2.1 -  RELEASE  -
|  1> ! wB97X-D3 SP def2-SVP
|  2> %pal
|  3> nprocs 24
|  4> end
|  5>
|  6> * xyz 0 1
|  7> S 	 -105.828 	 37.059 	 -14.1056
|  8> C 	 -106.605 	 37.073 	 -15.6281
|  9> C 	 -107.714 	 36.2334 	 -15.6383
| 10> C 	 -107.955 	 35.4931 	 -14.4645
| 11> C 	 -106.994 	 35.7841 	 -13.4981
| 12> H 	 -108.816 	 34.8515 	 -14.4272
| 13> C 	 -108.8 	 36.2953 	 -16.6973
| 14> H 	 -108.289 	 36.5416 	 -17.5929
| 15> H 	 -109.457 	 37.1136 	 -16.4364
| 16> C 	 -109.551 	 34.9526 	 -17.0408
| 17> H 	 -108.854 	 34.2286 	 -17.231
| 18> H 	 -110.107 	 34.5984 	 -16.204
| 19> C 	 -110.51 	 35.1413 	 -18.172
| 20> H 	 -111.208 	 35.9158 	 -17.9216
| 21> H 	 -110.036 	 35.5309 	 -19.0611
| 22> H 	 -110.956 	 34.1456 	 -18.3917
| 23> S 	 -106.739 	 36.4645 	 -10.9033
| 24> C 	 -106.841 	 35.1911 	 -9.71771
| 25> C 	 -106.633 	 33.9745 	 -10.2977
| 26> C 	 -106.772 	 33.9917 	 -11.7314
| 27> C 	 -106.895 	 35.2592 	 -12.1236
| 28> H 	 -106.493 	 33.1773 	 -9.55286
| 29> C 	 -106.643 	 32.7417 	 -12.6342
| 30> H 	 -107.465 	 32.8054 	 -13.3191
| 31> H 	 -106.838 	 31.8567 	 -12.0278
| 32> C 	 -105.425 	 32.6799 	 -13.5407
| 33> H 	 -104.466 	 32.5373 	 -12.9925
| 34> H 	 -105.328 	 33.6188 	 -14.0931
| 35> C 	 -105.492 	 31.5375 	 -14.6153
| 36> H 	 -104.612 	 31.4684 	 -15.3366
| 37> H 	 -106.325 	 31.7635 	 -15.2252
| 38> H 	 -105.624 	 30.4877 	 -14.3669
| 39> H 	 -106.293 	 37.7705 	 -16.4132
| 40> H 	 -106.737 	 35.39 	 -8.68379
| 41> *
| 42>
| 43>                          ****END OF INPUT****

CARTESIAN COORDINATES (ANGSTROEM)
---------------------------------
  S    -105.828000   37.059000  -14.105600
  C    -106.605000   37.073000  -15.628100
  C    -107.714000   36.233400  -15.638300
  C    -107.955000   35.493100  -14.464500
  C    -106.994000   35.784100  -13.498100
  H    -108.816000   34.851500  -14.427200
  C    -108.800000   36.295300  -16.697300
  H    -108.289000   36.541600  -17.592900
  H    -109.457000   37.113600  -16.436400
  C    -109.551000   34.952600  -17.040800
  H    -108.854000   34.228600  -17.231000
  H    -110.107000   34.598400  -16.204000
  C    -110.510000   35.141300  -18.172000
  H    -111.208000   35.915800  -17.921600
  H    -110.036000   35.530900  -19.061100
  H    -110.956000   34.145600  -18.391700
  S    -106.739000   36.464500  -10.903300
  C    -106.841000   35.191100   -9.717710
  C    -106.633000   33.974500  -10.297700
  C    -106.772000   33.991700  -11.731400
  C    -106.895000   35.259200  -12.123600
  H    -106.493000   33.177300   -9.552860
  C    -106.643000   32.741700  -12.634200
  H    -107.465000   32.805400  -13.319100
  H    -106.838000   31.856700  -12.027800
  C    -105.425000   32.679900  -13.540700
  H    -104.466000   32.537300  -12.992500
  H    -105.328000   33.618800  -14.093100
  C    -105.492000   31.537500  -14.615300
  H    -104.612000   31.468400  -15.336600
  H    -106.325000   31.763500  -15.225200
  H    -105.624000   30.487700  -14.366900
  H    -106.293000   37.770500  -16.413200
  H    -106.737000   35.390000   -8.683790

 Total Charge           Charge          ....    0
 Multiplicity           Mult            ....    1
 Number of Electrons    NEL             ....  134
 Basis Dimension        Dim             ....  322

ORBITAL ENERGIES
----------------

  NO   OCC          E(Eh)            E(eV)
   0   2.0000     -88.967621     -2420.9320
   1   2.0000     -88.961269     -2420.7592
   2   2.0000     -10.336596      -281.2731
   3   2.0000     -10.318346      -280.7765
   4   2.0000     -10.311763      -280.5973
   5   2.0000     -10.308462      -280.5075
   6   2.0000     -10.301702      -280.3236
   7   2.0000     -10.294965      -280.1402
   8   2.0000     -10.294181      -280.1189
   9   2.0000     -10.293478      -280.0998
  10   2.0000     -10.293196      -280.0921
  11   2.0000     -10.289120      -279.9812
  12   2.0000     -10.285979      -279.8957
  13   2.0000     -10.277762      -279.6721
  14   2.0000     -10.277221      -279.6574
  15   2.0000     -10.276115      -279.6273
  16   2.0000      -8.081760      -219.9159
  17   2.0000      -8.077262      -219.7935
  18   2.0000      -6.040295      -164.3648
  19   2.0000      -6.036340      -164.2572
  20   2.0000      -6.035667      -164.2388
  21   2.0000      -6.032551      -164.1541
  22   2.0000      -6.031887      -164.1360
  23   2.0000      -6.027767      -164.0239
  24   2.0000      -1.011606       -27.5272
  25   2.0000      -0.985418       -26.8146
  26   2.0000      -0.912377       -24.8270
  27   2.0000      -0.905691       -24.6451
  28   2.0000      -0.869440       -23.6587
  29   2.0000      -0.856271       -23.3003
  30   2.0000      -0.847675       -23.0664
  31   2.0000      -0.816825       -22.2270
  32   2.0000      -0.782513       -21.2933
  33   2.0000      -0.765576       -20.8324
  34   2.0000      -0.715459       -19.4686
  35   2.0000      -0.700958       -19.0740
  36   2.0000      -0.691055       -18.8046
  37   2.0000      -0.662931       -18.0393
  38   2.0000      -0.638131       -17.3644
  39   2.0000      -0.626612       -17.0510
  40   2.0000      -0.595006       -16.1909
  41   2.0000      -0.575758       -15.6672
  42   2.0000      -0.563733       -15.3399
  43   2.0000      -0.554926       -15.1003
  44   2.0000      -0.530362       -14.4319
  45   2.0000      -0.520016       -14.1504
  46   2.0000      -0.514539       -14.0013
  47   2.0000      -0.510411       -13.8890
  48   2.0000      -0.503965       -13.7136
  49   2.0000      -0.494630       -13.4596
  50   2.0000      -0.488550       -13.2941
  51   2.0000      -0.485877       -13.2214
  52   2.0000      -0.476171       -12.9573
  53   2.0000      -0.468049       -12.7363
  54   2.0000      -0.457662       -12.4536
  55   2.0000      -0.449319       -12.2266
  56   2.0000      -0.444783       -12.1032
  57   2.0000      -0.438010       -11.9189
  58   2.0000      -0.432139       -11.7591
  59   2.0000      -0.427993       -11.6463
  60   2.0000      -0.421663       -11.4740
  61   2.0000      -0.415256       -11.2997
  62   2.0000      -0.412068       -11.2130
  63   2.0000      -0.350697        -9.5429
  64   2.0000      -0.331896        -9.0313
  65   2.0000      -0.330103        -8.9826
  66   2.0000      -0.289634        -7.8814
  67   0.0000       0.032422         0.8822
  68   0.0000       0.063463         1.7269
  69   0.0000       0.110063         2.9950
  70   0.0000       0.123908         3.3717
  71   0.0000       0.128876         3.5069

MULLIKEN ATOMIC CHARGES
-----------------------
   0 S :    0.104470
   1 C :   -0.136425
   2 C :   -0.090286
   3 C :    0.042093
   4 C :   -0.152779
   5 H :    0.014428
   6 C :    0.044921
   7 H :    0.006442
   8 H :    0.047448
   9 C :   -0.063173
  10 H :    0.009750
  11 H :    0.023444
  12 C :   -0.018047
  13 H :    0.023290
  14 H :    0.018099
  15 H :    0.042379
  16 S :    0.103374
  17 C :   -0.083705
  18 C :   -0.056927
  19 C :   -0.023258
  20 C :   -0.164648
  21 H :    0.025988
  22 C :    0.137795
  23 H :    0.000552
  24 H :    0.021155
  25 C :   -0.064255
  26 H :    0.035597
  27 H :    0.047918
  28 C :   -0.074612
  29 H :    0.038819
  30 H :    0.013786
  31 H :    0.028187
  32 H :    0.057082
  33 H :    0.041097
Sum of atomic charges:    0.0000000

LOEWDIN ATOMIC CHARGES
----------------------
   0 S :    0.389840
   1 C :   -0.217745
   2 C :   -0.069225
   3 C :   -0.061541
   4 C :   -0.160812
   5 H :    0.032597
   6 C :   -0.026538
   7 H :    0.023448
   8 H :    0.032980
   9 C :   -0.034182
  10 H :    0.013166
  11 H :    0.017228
  12 C :   -0.058274
  13 H :    0.023850
  14 H :    0.021199
  15 H :    0.033469
  16 S :    0.407980
  17 C :   -0.180771
  18 C :   -0.067362
  19 C :   -0.056122
  20 C :   -0.202167
  21 H :    0.036340
  22 C :   -0.024926
  23 H :    0.028135
  24 H :    0.031032
  25 C :   -0.035617
  26 H :    0.025297
  27 H :    0.031992
  28 C :   -0.077068
  29 H :    0.034886
  30 H :    0.015809
  31 H :    0.022009
  32 H :    0.032105
  33 H :    0.018987

  Mayer bond orders larger than 0.100000
B(  0-S ,  1-C ) :   1.1378 B(  0-S ,  4-C ) :   1.1474 B(  1-C ,  2-C ) :   1.5942
B(  1-C ,  4-C ) :   0.1034 B(  1-C , 32-H ) :   0.9694 B(  2-C ,  3-C ) :   1.2677
B(  2-C ,  6-C ) :   1.0186 B(  3-C ,  4-C ) :   1.5526 B(  3-C ,  5-H ) :   0.9951
B(  4-C , 20-C ) :   1.0147 B(  6-C ,  7-H ) :   0.9383 B(  6-C ,  8-H ) :   0.9438
B(  6-C ,  9-C ) :   1.0654 B(  9-C , 10-H ) :   0.9569 B(  9-C , 11-H ) :   0.9457
B(  9-C , 12-C ) :   1.0991 B( 12-C , 13-H ) :   0.9719 B( 12-C , 14-H ) :   0.9728
B( 12-C , 15-H ) :   0.9711 B( 16-S , 17-C ) :   1.1354 B( 16-S , 20-C ) :   1.1451
B( 17-C , 18-C ) :   1.6603 B( 17-C , 33-H ) :   0.9710 B( 18-C , 19-C ) :   1.1860
B( 18-C , 21-H ) :   0.9867 B( 19-C , 20-C ) :   1.6451 B( 19-C , 22-C ) :   1.0364
B( 22-C , 23-H ) :   0.9210 B( 22-C , 24-H ) :   0.9325 B( 22-C , 25-C ) :   1.0636
B( 25-C , 26-H ) :   0.9587 B( 25-C , 27-H ) :   0.9513 B( 25-C , 28-C ) :   1.0664
B( 28-C , 29-H ) :   0.9764 B( 28-C , 30-H ) :   0.9750 B( 28-C , 31-H ) :   0.9793

Dispersion correction           -0.014341464
FINAL SINGLE POINT ENERGY     -1339.865867349752

DIPOLE MOMENT
-------------
                                X             Y             Z
Electronic contribution:      9.33473      18.48925      21.44474
Nuclear contribution   :     -9.59189     -18.84576     -21.73129
                        -----------------------------------------
Total Dipole Moment    :     -0.25716      -0.35651      -0.28655
                        -----------------------------------------
Magnitude (a.u.)       :      0.52473
Magnitude (Debye)      :      1.33375

Rotational constants in cm-1:     0.017958     0.008785     0.007270
Rotational constants in MHz :   538.377547   263.370160   217.940868

                             ****ORCA TERMINATED NORMALLY****
TOTAL RUN TIME: 0 days 0 hours 0 minutes 20 seconds 871 msec
