                         Program Version 4.2.1 -  RELEASE  -
|  1> ! wB97X-D3 SP def2-SVP
|  2> %pal
|  3> nprocs 24
|  4> end
|  5>
|  6> * xyz 0 1
|  7> S 	 -127.392 	 60.369 	 -54.935
|  8> C 	 -128.469 	 59.9212 	 -56.1986
|  9> C 	 -128.273 	 60.6949 	 -57.3183
| 10> C 	 -127.179 	 61.603 	 -57.1979
| 11> C 	 -126.68 	 61.6505 	 -55.8946
| 12> H 	 -126.722 	 62.2135 	 -57.9627
| 13> C 	 -129.197 	 60.6509 	 -58.5296
| 14> H 	 -130.216 	 60.2661 	 -58.4235
| 15> H 	 -128.683 	 60.045 	 -59.2702
| 16> C 	 -129.42 	 62.1156 	 -59.0444
| 17> H 	 -129.79 	 62.665 	 -58.1865
| 18> H 	 -128.563 	 62.7472 	 -59.374
| 19> C 	 -130.473 	 62.2796 	 -60.1667
| 20> H 	 -130.755 	 63.3302 	 -60.2961
| 21> H 	 -130.03 	 61.8625 	 -61.1074
| 22> H 	 -131.416 	 61.7373 	 -59.8481
| 23> S 	 -125.864 	 64.2723 	 -56.1927
| 24> C 	 -124.677 	 64.9632 	 -55.1276
| 25> C 	 -124.182 	 63.9576 	 -54.2477
| 26> C 	 -124.739 	 62.6545 	 -54.364
| 27> C 	 -125.743 	 62.6393 	 -55.4001
| 28> H 	 -123.457 	 64.1841 	 -53.4839
| 29> C 	 -124.306 	 61.5245 	 -53.4382
| 30> H 	 -125.021 	 60.6819 	 -53.3949
| 31> H 	 -124.094 	 61.9226 	 -52.3918
| 32> C 	 -123.001 	 60.8992 	 -53.9682
| 33> H 	 -122.318 	 61.7551 	 -54.0699
| 34> H 	 -123.322 	 60.5776 	 -54.9452
| 35> C 	 -122.492 	 59.8226 	 -53.0198
| 36> H 	 -123.38 	 59.2214 	 -52.7266
| 37> H 	 -122.137 	 60.3243 	 -52.1073
| 38> H 	 -121.712 	 59.1499 	 -53.4503
| 39> H 	 -129.347 	 59.2409 	 -56.1415
| 40> H 	 -124.234 	 65.9346 	 -55.1727
| 41> *
| 42>
| 43>                          ****END OF INPUT****

CARTESIAN COORDINATES (ANGSTROEM)
---------------------------------
  S    -127.392000   60.369000  -54.935000
  C    -128.469000   59.921200  -56.198600
  C    -128.273000   60.694900  -57.318300
  C    -127.179000   61.603000  -57.197900
  C    -126.680000   61.650500  -55.894600
  H    -126.722000   62.213500  -57.962700
  C    -129.197000   60.650900  -58.529600
  H    -130.216000   60.266100  -58.423500
  H    -128.683000   60.045000  -59.270200
  C    -129.420000   62.115600  -59.044400
  H    -129.790000   62.665000  -58.186500
  H    -128.563000   62.747200  -59.374000
  C    -130.473000   62.279600  -60.166700
  H    -130.755000   63.330200  -60.296100
  H    -130.030000   61.862500  -61.107400
  H    -131.416000   61.737300  -59.848100
  S    -125.864000   64.272300  -56.192700
  C    -124.677000   64.963200  -55.127600
  C    -124.182000   63.957600  -54.247700
  C    -124.739000   62.654500  -54.364000
  C    -125.743000   62.639300  -55.400100
  H    -123.457000   64.184100  -53.483900
  C    -124.306000   61.524500  -53.438200
  H    -125.021000   60.681900  -53.394900
  H    -124.094000   61.922600  -52.391800
  C    -123.001000   60.899200  -53.968200
  H    -122.318000   61.755100  -54.069900
  H    -123.322000   60.577600  -54.945200
  C    -122.492000   59.822600  -53.019800
  H    -123.380000   59.221400  -52.726600
  H    -122.137000   60.324300  -52.107300
  H    -121.712000   59.149900  -53.450300
  H    -129.347000   59.240900  -56.141500
  H    -124.234000   65.934600  -55.172700

 Total Charge           Charge          ....    0
 Multiplicity           Mult            ....    1
 Number of Electrons    NEL             ....  134
 Basis Dimension        Dim             ....  322

ORBITAL ENERGIES
----------------

  NO   OCC          E(Eh)            E(eV)
   0   2.0000     -88.972599     -2421.0675
   1   2.0000     -88.968881     -2420.9663
   2   2.0000     -10.339778      -281.3597
   3   2.0000     -10.332769      -281.1689
   4   2.0000     -10.322028      -280.8767
   5   2.0000     -10.313124      -280.6344
   6   2.0000     -10.311597      -280.5928
   7   2.0000     -10.301365      -280.3144
   8   2.0000     -10.300567      -280.2927
   9   2.0000     -10.297995      -280.2227
  10   2.0000     -10.297135      -280.1993
  11   2.0000     -10.294612      -280.1306
  12   2.0000     -10.286471      -279.9091
  13   2.0000     -10.284931      -279.8672
  14   2.0000     -10.284266      -279.8491
  15   2.0000     -10.282878      -279.8113
  16   2.0000      -8.085767      -220.0249
  17   2.0000      -8.083517      -219.9637
  18   2.0000      -6.044360      -164.4754
  19   2.0000      -6.042073      -164.4132
  20   2.0000      -6.040386      -164.3673
  21   2.0000      -6.038022      -164.3029
  22   2.0000      -6.036636      -164.2652
  23   2.0000      -6.034262      -164.2006
  24   2.0000      -1.005019       -27.3480
  25   2.0000      -0.978974       -26.6392
  26   2.0000      -0.913790       -24.8655
  27   2.0000      -0.906714       -24.6729
  28   2.0000      -0.868785       -23.6408
  29   2.0000      -0.852184       -23.1891
  30   2.0000      -0.844419       -22.9778
  31   2.0000      -0.806709       -21.9517
  32   2.0000      -0.780220       -21.2309
  33   2.0000      -0.767275       -20.8786
  34   2.0000      -0.708454       -19.2780
  35   2.0000      -0.691770       -18.8240
  36   2.0000      -0.683725       -18.6051
  37   2.0000      -0.667990       -18.1769
  38   2.0000      -0.635507       -17.2930
  39   2.0000      -0.617030       -16.7902
  40   2.0000      -0.599135       -16.3033
  41   2.0000      -0.571016       -15.5381
  42   2.0000      -0.565326       -15.3833
  43   2.0000      -0.563212       -15.3258
  44   2.0000      -0.522411       -14.2155
  45   2.0000      -0.518887       -14.1196
  46   2.0000      -0.517435       -14.0801
  47   2.0000      -0.508097       -13.8260
  48   2.0000      -0.505565       -13.7571
  49   2.0000      -0.502052       -13.6615
  50   2.0000      -0.488166       -13.2837
  51   2.0000      -0.480779       -13.0827
  52   2.0000      -0.473250       -12.8778
  53   2.0000      -0.463654       -12.6167
  54   2.0000      -0.458900       -12.4873
  55   2.0000      -0.448835       -12.2134
  56   2.0000      -0.447634       -12.1807
  57   2.0000      -0.428315       -11.6551
  58   2.0000      -0.426970       -11.6185
  59   2.0000      -0.425326       -11.5737
  60   2.0000      -0.424349       -11.5471
  61   2.0000      -0.417959       -11.3732
  62   2.0000      -0.411575       -11.1995
  63   2.0000      -0.355376        -9.6703
  64   2.0000      -0.333588        -9.0774
  65   2.0000      -0.329874        -8.9763
  66   2.0000      -0.279197        -7.5973
  67   0.0000       0.014827         0.4035
  68   0.0000       0.075861         2.0643
  69   0.0000       0.105706         2.8764
  70   0.0000       0.117288         3.1916
  71   0.0000       0.125135         3.4051

MULLIKEN ATOMIC CHARGES
-----------------------
   0 S :    0.110192
   1 C :   -0.122433
   2 C :   -0.087953
   3 C :   -0.006740
   4 C :   -0.119416
   5 H :    0.022850
   6 C :    0.097603
   7 H :    0.025860
   8 H :    0.039733
   9 C :   -0.149128
  10 H :    0.032409
  11 H :    0.038378
  12 C :   -0.061796
  13 H :    0.040384
  14 H :    0.043187
  15 H :    0.032212
  16 S :    0.102898
  17 C :   -0.077588
  18 C :   -0.048367
  19 C :   -0.016165
  20 C :   -0.162197
  21 H :    0.014262
  22 C :    0.003401
  23 H :    0.028605
  24 H :    0.038626
  25 C :   -0.081968
  26 H :    0.027342
  27 H :    0.029151
  28 C :   -0.027010
  29 H :    0.031260
  30 H :    0.031664
  31 H :    0.053385
  32 H :    0.059653
  33 H :    0.057704
Sum of atomic charges:   -0.0000000

LOEWDIN ATOMIC CHARGES
----------------------
   0 S :    0.419642
   1 C :   -0.220051
   2 C :   -0.062110
   3 C :   -0.069803
   4 C :   -0.192068
   5 H :    0.027774
   6 C :   -0.026190
   7 H :    0.032126
   8 H :    0.032063
   9 C :   -0.053380
  10 H :    0.023328
  11 H :    0.025646
  12 C :   -0.071754
  13 H :    0.027633
  14 H :    0.028195
  15 H :    0.026137
  16 S :    0.404174
  17 C :   -0.194806
  18 C :   -0.068494
  19 C :   -0.053207
  20 C :   -0.175463
  21 H :    0.026125
  22 C :   -0.035513
  23 H :    0.020626
  24 H :    0.034753
  25 C :   -0.040723
  26 H :    0.021537
  27 H :    0.023048
  28 C :   -0.069288
  29 H :    0.029152
  30 H :    0.028132
  31 H :    0.033014
  32 H :    0.040106
  33 H :    0.029639

  Mayer bond orders larger than 0.100000
B(  0-S ,  1-C ) :   1.1292 B(  0-S ,  4-C ) :   1.1499 B(  1-C ,  2-C ) :   1.6249
B(  1-C , 32-H ) :   0.9619 B(  2-C ,  3-C ) :   1.2411 B(  2-C ,  6-C ) :   1.0192
B(  3-C ,  4-C ) :   1.5353 B(  3-C ,  5-H ) :   0.9881 B(  4-C , 20-C ) :   1.1098
B(  6-C ,  7-H ) :   0.9517 B(  6-C ,  8-H ) :   0.9329 B(  6-C ,  9-C ) :   1.0459
B(  9-C , 10-H ) :   0.9605 B(  9-C , 11-H ) :   0.9521 B(  9-C , 12-C ) :   1.0897
B( 12-C , 13-H ) :   0.9741 B( 12-C , 14-H ) :   0.9760 B( 12-C , 15-H ) :   0.9729
B( 16-S , 17-C ) :   1.1578 B( 16-S , 20-C ) :   1.1454 B( 17-C , 18-C ) :   1.5681
B( 17-C , 20-C ) :   0.1108 B( 17-C , 33-H ) :   0.9704 B( 18-C , 19-C ) :   1.2881
B( 18-C , 21-H ) :   0.9809 B( 19-C , 20-C ) :   1.5072 B( 19-C , 22-C ) :   1.0435
B( 22-C , 23-H ) :   0.9384 B( 22-C , 24-H ) :   0.9390 B( 22-C , 25-C ) :   1.0434
B( 25-C , 26-H ) :   0.9613 B( 25-C , 27-H ) :   0.9555 B( 25-C , 28-C ) :   1.0738
B( 28-C , 29-H ) :   0.9700 B( 28-C , 30-H ) :   0.9708 B( 28-C , 31-H ) :   0.9742

Dispersion correction           -0.013712532
FINAL SINGLE POINT ENERGY     -1339.879538066873

DIPOLE MOMENT
-------------
                                X             Y             Z
Electronic contribution:     -0.29914       6.37745       5.69330
Nuclear contribution   :      0.37757      -6.36873      -5.76139
                        -----------------------------------------
Total Dipole Moment    :      0.07843       0.00872      -0.06809
                        -----------------------------------------
Magnitude (a.u.)       :      0.10423
Magnitude (Debye)      :      0.26493

Rotational constants in cm-1:     0.021898     0.007789     0.006110
Rotational constants in MHz :   656.487930   233.515918   183.179383

                             ****ORCA TERMINATED NORMALLY****
TOTAL RUN TIME: 0 days 0 hours 0 minutes 19 seconds 782 msec
