                         Program Version 4.2.1 -  RELEASE  -
|  1> ! wB97X-D3 SP def2-SVP
|  2> %pal
|  3> nprocs 24
|  4> end
|  5>
|  6> * xyz 0 1
|  7> S 	 41.912 	 -23.0658 	 -124.249
|  8> C 	 40.2493 	 -22.5685 	 -124.092
|  9> C 	 39.4375 	 -23.5139 	 -123.481
| 10> C 	 40.2062 	 -24.6039 	 -122.974
| 11> C 	 41.5906 	 -24.52 	 -123.255
| 12> H 	 39.7506 	 -25.3932 	 -122.402
| 13> C 	 37.9173 	 -23.4081 	 -123.367
| 14> H 	 37.4793 	 -24.3886 	 -123.433
| 15> H 	 37.595 	 -23.0294 	 -124.347
| 16> C 	 37.3478 	 -22.6032 	 -122.181
| 17> H 	 37.5251 	 -21.6038 	 -122.337
| 18> H 	 36.2923 	 -22.7063 	 -122.116
| 19> C 	 37.5861 	 -23.0146 	 -120.723
| 20> H 	 38.6285 	 -22.9482 	 -120.413
| 21> H 	 37.0425 	 -22.4602 	 -119.953
| 22> H 	 37.3631 	 -24.1302 	 -120.642
| 23> S 	 44.2332 	 -24.773 	 -122.32
| 24> C 	 44.7318 	 -26.3235 	 -121.732
| 25> C 	 43.7565 	 -27.335 	 -121.94
| 26> C 	 42.6189 	 -26.8287 	 -122.641
| 27> C 	 42.6901 	 -25.4362 	 -122.873
| 28> H 	 43.9896 	 -28.3344 	 -121.691
| 29> C 	 41.4027 	 -27.6191 	 -123.054
| 30> H 	 40.6939 	 -26.9274 	 -123.525
| 31> H 	 40.9006 	 -27.9759 	 -122.154
| 32> C 	 41.7163 	 -28.757 	 -124.129
| 33> H 	 42.3919 	 -29.5237 	 -123.704
| 34> H 	 42.2169 	 -28.3517 	 -124.989
| 35> C 	 40.4432 	 -29.3808 	 -124.692
| 36> H 	 39.8139 	 -29.9358 	 -123.984
| 37> H 	 40.8678 	 -30.2224 	 -125.307
| 38> H 	 39.7971 	 -28.6362 	 -125.132
| 39> H 	 39.8275 	 -21.6861 	 -124.569
| 40> H 	 45.6016 	 -26.5512 	 -121.14
| 41> *
| 42>
| 43>                          ****END OF INPUT****

CARTESIAN COORDINATES (ANGSTROEM)
---------------------------------
  S     41.912000  -23.065800  -124.249000
  C     40.249300  -22.568500  -124.092000
  C     39.437500  -23.513900  -123.481000
  C     40.206200  -24.603900  -122.974000
  C     41.590600  -24.520000  -123.255000
  H     39.750600  -25.393200  -122.402000
  C     37.917300  -23.408100  -123.367000
  H     37.479300  -24.388600  -123.433000
  H     37.595000  -23.029400  -124.347000
  C     37.347800  -22.603200  -122.181000
  H     37.525100  -21.603800  -122.337000
  H     36.292300  -22.706300  -122.116000
  C     37.586100  -23.014600  -120.723000
  H     38.628500  -22.948200  -120.413000
  H     37.042500  -22.460200  -119.953000
  H     37.363100  -24.130200  -120.642000
  S     44.233200  -24.773000  -122.320000
  C     44.731800  -26.323500  -121.732000
  C     43.756500  -27.335000  -121.940000
  C     42.618900  -26.828700  -122.641000
  C     42.690100  -25.436200  -122.873000
  H     43.989600  -28.334400  -121.691000
  C     41.402700  -27.619100  -123.054000
  H     40.693900  -26.927400  -123.525000
  H     40.900600  -27.975900  -122.154000
  C     41.716300  -28.757000  -124.129000
  H     42.391900  -29.523700  -123.704000
  H     42.216900  -28.351700  -124.989000
  C     40.443200  -29.380800  -124.692000
  H     39.813900  -29.935800  -123.984000
  H     40.867800  -30.222400  -125.307000
  H     39.797100  -28.636200  -125.132000
  H     39.827500  -21.686100  -124.569000
  H     45.601600  -26.551200  -121.140000

 Total Charge           Charge          ....    0
 Multiplicity           Mult            ....    1
 Number of Electrons    NEL             ....  134
 Basis Dimension        Dim             ....  322

ORBITAL ENERGIES
----------------

  NO   OCC          E(Eh)            E(eV)
   0   2.0000     -88.970528     -2421.0111
   1   2.0000     -88.968861     -2420.9658
   2   2.0000     -10.338832      -281.3339
   3   2.0000     -10.329562      -281.0817
   4   2.0000     -10.320497      -280.8350
   5   2.0000     -10.313339      -280.6402
   6   2.0000     -10.305465      -280.4260
   7   2.0000     -10.301301      -280.3126
   8   2.0000     -10.297357      -280.2053
   9   2.0000     -10.297138      -280.1994
  10   2.0000     -10.295949      -280.1670
  11   2.0000     -10.291085      -280.0347
  12   2.0000     -10.288875      -279.9745
  13   2.0000     -10.281885      -279.7843
  14   2.0000     -10.279806      -279.7277
  15   2.0000     -10.279756      -279.7264
  16   2.0000      -8.084840      -219.9997
  17   2.0000      -8.082903      -219.9470
  18   2.0000      -6.043234      -164.4448
  19   2.0000      -6.041424      -164.3955
  20   2.0000      -6.039350      -164.3391
  21   2.0000      -6.037544      -164.2899
  22   2.0000      -6.035809      -164.2427
  23   2.0000      -6.033678      -164.1847
  24   2.0000      -0.999237       -27.1906
  25   2.0000      -0.978781       -26.6340
  26   2.0000      -0.908568       -24.7234
  27   2.0000      -0.902993       -24.5717
  28   2.0000      -0.864093       -23.5132
  29   2.0000      -0.854870       -23.2622
  30   2.0000      -0.845821       -23.0160
  31   2.0000      -0.812104       -22.0985
  32   2.0000      -0.784170       -21.3383
  33   2.0000      -0.767274       -20.8786
  34   2.0000      -0.705769       -19.2050
  35   2.0000      -0.700417       -19.0593
  36   2.0000      -0.696737       -18.9592
  37   2.0000      -0.658852       -17.9283
  38   2.0000      -0.635575       -17.2949
  39   2.0000      -0.619393       -16.8545
  40   2.0000      -0.589965       -16.0538
  41   2.0000      -0.575553       -15.6616
  42   2.0000      -0.564344       -15.3566
  43   2.0000      -0.548510       -14.9257
  44   2.0000      -0.546242       -14.8640
  45   2.0000      -0.526025       -14.3139
  46   2.0000      -0.516694       -14.0600
  47   2.0000      -0.503577       -13.7030
  48   2.0000      -0.502703       -13.6793
  49   2.0000      -0.493957       -13.4412
  50   2.0000      -0.485221       -13.2035
  51   2.0000      -0.475645       -12.9430
  52   2.0000      -0.473124       -12.8744
  53   2.0000      -0.463565       -12.6142
  54   2.0000      -0.462174       -12.5764
  55   2.0000      -0.451751       -12.2928
  56   2.0000      -0.448474       -12.2036
  57   2.0000      -0.437496       -11.9049
  58   2.0000      -0.434556       -11.8249
  59   2.0000      -0.422053       -11.4847
  60   2.0000      -0.421723       -11.4757
  61   2.0000      -0.409313       -11.1380
  62   2.0000      -0.408392       -11.1129
  63   2.0000      -0.350295        -9.5320
  64   2.0000      -0.333687        -9.0801
  65   2.0000      -0.331544        -9.0218
  66   2.0000      -0.281124        -7.6498
  67   0.0000       0.021664         0.5895
  68   0.0000       0.070860         1.9282
  69   0.0000       0.101619         2.7652
  70   0.0000       0.118741         3.2311
  71   0.0000       0.139835         3.8051

MULLIKEN ATOMIC CHARGES
-----------------------
   0 S :    0.106712
   1 C :   -0.115362
   2 C :   -0.109503
   3 C :    0.026207
   4 C :   -0.153195
   5 H :    0.012072
   6 C :    0.082519
   7 H :    0.010403
   8 H :    0.023862
   9 C :   -0.011629
  10 H :    0.010770
  11 H :    0.021029
  12 C :   -0.085090
  13 H :    0.032337
  14 H :    0.042823
  15 H :    0.028233
  16 S :    0.120669
  17 C :   -0.094748
  18 C :   -0.025105
  19 C :   -0.046880
  20 C :   -0.129605
  21 H :    0.006718
  22 C :    0.046545
  23 H :    0.021121
  24 H :    0.036282
  25 C :   -0.078000
  26 H :    0.031603
  27 H :    0.035011
  28 C :   -0.054280
  29 H :    0.021366
  30 H :    0.041627
  31 H :    0.041688
  32 H :    0.046090
  33 H :    0.057704
Sum of atomic charges:   -0.0000000

LOEWDIN ATOMIC CHARGES
----------------------
   0 S :    0.394306
   1 C :   -0.200643
   2 C :   -0.066162
   3 C :   -0.065196
   4 C :   -0.176579
   5 H :    0.028701
   6 C :   -0.028683
   7 H :    0.027741
   8 H :    0.037552
   9 C :   -0.036990
  10 H :    0.012506
  11 H :    0.027319
  12 C :   -0.068984
  13 H :    0.019870
  14 H :    0.029676
  15 H :    0.029598
  16 S :    0.414927
  17 C :   -0.188976
  18 C :   -0.065319
  19 C :   -0.049997
  20 C :   -0.206572
  21 H :    0.024773
  22 C :   -0.036649
  23 H :    0.029930
  24 H :    0.030739
  25 C :   -0.035008
  26 H :    0.022683
  27 H :    0.026625
  28 C :   -0.071579
  29 H :    0.020940
  30 H :    0.037660
  31 H :    0.024866
  32 H :    0.027617
  33 H :    0.029307

  Mayer bond orders larger than 0.100000
B(  0-S ,  1-C ) :   1.1415 B(  0-S ,  4-C ) :   1.1523 B(  1-C ,  2-C ) :   1.6101
B(  1-C ,  4-C ) :   0.1011 B(  1-C , 32-H ) :   0.9635 B(  2-C ,  3-C ) :   1.2675
B(  2-C ,  6-C ) :   1.0125 B(  3-C ,  4-C ) :   1.5373 B(  3-C ,  5-H ) :   0.9883
B(  4-C , 20-C ) :   1.0496 B(  6-C ,  7-H ) :   0.9389 B(  6-C ,  8-H ) :   0.9376
B(  6-C ,  9-C ) :   1.0748 B(  9-C , 10-H ) :   0.9571 B(  9-C , 11-H ) :   0.9539
B(  9-C , 12-C ) :   1.0660 B( 12-C , 13-H ) :   0.9755 B( 12-C , 14-H ) :   0.9754
B( 12-C , 15-H ) :   0.9738 B( 16-S , 17-C ) :   1.1759 B( 16-S , 20-C ) :   1.1360
B( 17-C , 18-C ) :   1.5793 B( 17-C , 20-C ) :   0.1003 B( 17-C , 33-H ) :   0.9666
B( 18-C , 19-C ) :   1.2608 B( 18-C , 21-H ) :   0.9985 B( 19-C , 20-C ) :   1.5598
B( 19-C , 22-C ) :   1.0487 B( 22-C , 23-H ) :   0.9314 B( 22-C , 24-H ) :   0.9326
B( 22-C , 25-C ) :   1.0500 B( 25-C , 26-H ) :   0.9594 B( 25-C , 27-H ) :   0.9562
B( 25-C , 28-C ) :   1.0855 B( 28-C , 29-H ) :   0.9744 B( 28-C , 30-H ) :   0.9731
B( 28-C , 31-H ) :   0.9744

Dispersion correction           -0.013896044
FINAL SINGLE POINT ENERGY     -1339.871695851272

DIPOLE MOMENT
-------------
                                X             Y             Z
Electronic contribution:     24.25055      12.42636      -2.28371
Nuclear contribution   :    -24.79264     -12.83302       2.42528
                        -----------------------------------------
Total Dipole Moment    :     -0.54209      -0.40666       0.14157
                        -----------------------------------------
Magnitude (a.u.)       :      0.69230
Magnitude (Debye)      :      1.75968

Rotational constants in cm-1:     0.016613     0.008593     0.006948
Rotational constants in MHz :   498.033618   257.617933   208.297174

                             ****ORCA TERMINATED NORMALLY****
TOTAL RUN TIME: 0 days 0 hours 0 minutes 21 seconds 264 msec
