                         Program Version 4.2.1 -  RELEASE  -
|  1> ! wB97X-D3 SP def2-SVP
|  2> %pal
|  3> nprocs 24
|  4> end
|  5>
|  6> * xyz 0 1
|  7> S 	 -50.784 	 19.2922 	 -100.856
|  8> C 	 -52.481 	 18.9165 	 -100.926
|  9> C 	 -53.1518 	 19.8467 	 -101.701
| 10> C 	 -52.2669 	 20.7729 	 -102.37
| 11> C 	 -50.9557 	 20.4633 	 -102.124
| 12> H 	 -52.4408 	 21.6189 	 -103.036
| 13> C 	 -54.6409 	 19.9355 	 -101.827
| 14> H 	 -55.0036 	 18.9389 	 -102.037
| 15> H 	 -54.8914 	 20.5491 	 -102.689
| 16> C 	 -55.3649 	 20.5554 	 -100.627
| 17> H 	 -54.8326 	 21.359 	 -100.261
| 18> H 	 -56.3874 	 20.9825 	 -100.879
| 19> C 	 -55.5439 	 19.5831 	 -99.4146
| 20> H 	 -56.0971 	 20.1564 	 -98.6413
| 21> H 	 -56.2415 	 18.7737 	 -99.6877
| 22> H 	 -54.634 	 19.1253 	 -98.9537
| 23> S 	 -48.9236 	 22.0715 	 -101.224
| 24> C 	 -47.717 	 22.6771 	 -102.296
| 25> C 	 -48.0707 	 22.4382 	 -103.599
| 26> C 	 -49.1437 	 21.5432 	 -103.708
| 27> C 	 -49.7657 	 21.2779 	 -102.486
| 28> H 	 -47.4581 	 22.9311 	 -104.332
| 29> C 	 -49.5071 	 20.9412 	 -105.038
| 30> H 	 -50.5471 	 20.6026 	 -105.017
| 31> H 	 -48.9489 	 20.0544 	 -105.176
| 32> C 	 -49.3807 	 21.8376 	 -106.3
| 33> H 	 -49.5978 	 21.2618 	 -107.229
| 34> H 	 -48.3658 	 22.1211 	 -106.44
| 35> C 	 -50.2768 	 23.0661 	 -106.268
| 36> H 	 -50.1665 	 23.6482 	 -105.397
| 37> H 	 -51.3754 	 22.7989 	 -106.327
| 38> H 	 -50.0111 	 23.7257 	 -107.137
| 39> H 	 -52.9492 	 18.0992 	 -100.396
| 40> H 	 -46.893 	 23.2743 	 -101.946
| 41> *
| 42>
| 43>                          ****END OF INPUT****

CARTESIAN COORDINATES (ANGSTROEM)
---------------------------------
  S    -50.784000   19.292200  -100.856000
  C    -52.481000   18.916500  -100.926000
  C    -53.151800   19.846700  -101.701000
  C    -52.266900   20.772900  -102.370000
  C    -50.955700   20.463300  -102.124000
  H    -52.440800   21.618900  -103.036000
  C    -54.640900   19.935500  -101.827000
  H    -55.003600   18.938900  -102.037000
  H    -54.891400   20.549100  -102.689000
  C    -55.364900   20.555400  -100.627000
  H    -54.832600   21.359000  -100.261000
  H    -56.387400   20.982500  -100.879000
  C    -55.543900   19.583100  -99.414600
  H    -56.097100   20.156400  -98.641300
  H    -56.241500   18.773700  -99.687700
  H    -54.634000   19.125300  -98.953700
  S    -48.923600   22.071500  -101.224000
  C    -47.717000   22.677100  -102.296000
  C    -48.070700   22.438200  -103.599000
  C    -49.143700   21.543200  -103.708000
  C    -49.765700   21.277900  -102.486000
  H    -47.458100   22.931100  -104.332000
  C    -49.507100   20.941200  -105.038000
  H    -50.547100   20.602600  -105.017000
  H    -48.948900   20.054400  -105.176000
  C    -49.380700   21.837600  -106.300000
  H    -49.597800   21.261800  -107.229000
  H    -48.365800   22.121100  -106.440000
  C    -50.276800   23.066100  -106.268000
  H    -50.166500   23.648200  -105.397000
  H    -51.375400   22.798900  -106.327000
  H    -50.011100   23.725700  -107.137000
  H    -52.949200   18.099200  -100.396000
  H    -46.893000   23.274300  -101.946000

 Total Charge           Charge          ....    0
 Multiplicity           Mult            ....    1
 Number of Electrons    NEL             ....  134
 Basis Dimension        Dim             ....  322

ORBITAL ENERGIES
----------------

  NO   OCC          E(Eh)            E(eV)
   0   2.0000     -88.964554     -2420.8486
   1   2.0000     -88.962619     -2420.7959
   2   2.0000     -10.327107      -281.0149
   3   2.0000     -10.322866      -280.8995
   4   2.0000     -10.313391      -280.6416
   5   2.0000     -10.311149      -280.5806
   6   2.0000     -10.302977      -280.3583
   7   2.0000     -10.300266      -280.2845
   8   2.0000     -10.296146      -280.1724
   9   2.0000     -10.288075      -279.9528
  10   2.0000     -10.287757      -279.9441
  11   2.0000     -10.286880      -279.9202
  12   2.0000     -10.285612      -279.8857
  13   2.0000     -10.283760      -279.8353
  14   2.0000     -10.283059      -279.8163
  15   2.0000     -10.277959      -279.6775
  16   2.0000      -8.079892      -219.8650
  17   2.0000      -8.078632      -219.8308
  18   2.0000      -6.038317      -164.3110
  19   2.0000      -6.036922      -164.2730
  20   2.0000      -6.034363      -164.2034
  21   2.0000      -6.032858      -164.1624
  22   2.0000      -6.030645      -164.1022
  23   2.0000      -6.029643      -164.0749
  24   2.0000      -1.012940       -27.5635
  25   2.0000      -0.990801       -26.9611
  26   2.0000      -0.911613       -24.8063
  27   2.0000      -0.907989       -24.7076
  28   2.0000      -0.867195       -23.5976
  29   2.0000      -0.850033       -23.1306
  30   2.0000      -0.845130       -22.9972
  31   2.0000      -0.817042       -22.2328
  32   2.0000      -0.782532       -21.2938
  33   2.0000      -0.773357       -21.0441
  34   2.0000      -0.705985       -19.2108
  35   2.0000      -0.698713       -19.0130
  36   2.0000      -0.693850       -18.8806
  37   2.0000      -0.656214       -17.8565
  38   2.0000      -0.646917       -17.6035
  39   2.0000      -0.617610       -16.8060
  40   2.0000      -0.600125       -16.3302
  41   2.0000      -0.573107       -15.5950
  42   2.0000      -0.554581       -15.0909
  43   2.0000      -0.543668       -14.7939
  44   2.0000      -0.539051       -14.6683
  45   2.0000      -0.535393       -14.5688
  46   2.0000      -0.522710       -14.2237
  47   2.0000      -0.511298       -13.9131
  48   2.0000      -0.505378       -13.7520
  49   2.0000      -0.493466       -13.4279
  50   2.0000      -0.490932       -13.3589
  51   2.0000      -0.481156       -13.0929
  52   2.0000      -0.473808       -12.8930
  53   2.0000      -0.463299       -12.6070
  54   2.0000      -0.457344       -12.4450
  55   2.0000      -0.449358       -12.2277
  56   2.0000      -0.443892       -12.0789
  57   2.0000      -0.437126       -11.8948
  58   2.0000      -0.434139       -11.8135
  59   2.0000      -0.421217       -11.4619
  60   2.0000      -0.420002       -11.4288
  61   2.0000      -0.417252       -11.3540
  62   2.0000      -0.414817       -11.2878
  63   2.0000      -0.343639        -9.3509
  64   2.0000      -0.330295        -8.9878
  65   2.0000      -0.326803        -8.8928
  66   2.0000      -0.297075        -8.0838
  67   0.0000       0.038072         1.0360
  68   0.0000       0.064289         1.7494
  69   0.0000       0.116523         3.1707
  70   0.0000       0.125695         3.4203
  71   0.0000       0.130603         3.5539

MULLIKEN ATOMIC CHARGES
-----------------------
   0 S :    0.109936
   1 C :   -0.114709
   2 C :   -0.103455
   3 C :    0.047793
   4 C :   -0.163883
   5 H :    0.022231
   6 C :    0.097761
   7 H :    0.023663
   8 H :    0.015875
   9 C :   -0.046533
  10 H :    0.014940
  11 H :    0.036414
  12 C :   -0.097464
  13 H :    0.035010
  14 H :    0.028812
  15 H :    0.047885
  16 S :    0.116293
  17 C :   -0.106256
  18 C :   -0.035557
  19 C :   -0.045004
  20 C :   -0.169136
  21 H :    0.016318
  22 C :    0.112806
  23 H :    0.012473
  24 H :    0.031736
  25 C :   -0.081688
  26 H :    0.031935
  27 H :    0.016629
  28 C :   -0.061953
  29 H :    0.029535
  30 H :    0.034681
  31 H :    0.038731
  32 H :    0.050003
  33 H :    0.054176
Sum of atomic charges:    0.0000000

LOEWDIN ATOMIC CHARGES
----------------------
   0 S :    0.415664
   1 C :   -0.198600
   2 C :   -0.059762
   3 C :   -0.059770
   4 C :   -0.196809
   5 H :    0.038254
   6 C :   -0.033155
   7 H :    0.029835
   8 H :    0.030459
   9 C :   -0.034185
  10 H :    0.014090
  11 H :    0.032794
  12 C :   -0.076229
  13 H :    0.029379
  14 H :    0.022220
  15 H :    0.026958
  16 S :    0.433136
  17 C :   -0.189611
  18 C :   -0.074362
  19 C :   -0.061966
  20 C :   -0.218654
  21 H :    0.032161
  22 C :   -0.028241
  23 H :    0.029061
  24 H :    0.030804
  25 C :   -0.042397
  26 H :    0.031522
  27 H :    0.014010
  28 C :   -0.068900
  29 H :    0.016354
  30 H :    0.029853
  31 H :    0.032479
  32 H :    0.027372
  33 H :    0.026237

  Mayer bond orders larger than 0.100000
B(  0-S ,  1-C ) :   1.1371 B(  0-S ,  4-C ) :   1.1649 B(  1-C ,  2-C ) :   1.6055
B(  1-C , 32-H ) :   0.9701 B(  2-C ,  3-C ) :   1.2220 B(  2-C ,  6-C ) :   1.0321
B(  3-C ,  4-C ) :   1.5914 B(  3-C ,  5-H ) :   0.9934 B(  4-C , 20-C ) :   0.9947
B(  6-C ,  7-H ) :   0.9416 B(  6-C ,  8-H ) :   0.9364 B(  6-C ,  9-C ) :   1.0621
B(  9-C , 10-H ) :   0.9542 B(  9-C , 11-H ) :   0.9566 B(  9-C , 12-C ) :   1.0782
B( 12-C , 13-H ) :   0.9734 B( 12-C , 14-H ) :   0.9771 B( 12-C , 15-H ) :   0.9722
B( 16-S , 17-C ) :   1.1783 B( 16-S , 20-C ) :   1.1722 B( 17-C , 18-C ) :   1.5835
B( 17-C , 20-C ) :   0.1013 B( 17-C , 33-H ) :   0.9685 B( 18-C , 19-C ) :   1.2498
B( 18-C , 21-H ) :   0.9990 B( 19-C , 20-C ) :   1.5808 B( 19-C , 22-C ) :   1.0378
B( 22-C , 23-H ) :   0.9297 B( 22-C , 24-H ) :   0.9275 B( 22-C , 25-C ) :   1.0792
B( 25-C , 26-H ) :   0.9528 B( 25-C , 27-H ) :   0.9495 B( 25-C , 28-C ) :   1.0807
B( 28-C , 29-H ) :   0.9752 B( 28-C , 30-H ) :   0.9739 B( 28-C , 31-H ) :   0.9729

Dispersion correction           -0.014359769
FINAL SINGLE POINT ENERGY     -1339.887090418504

DIPOLE MOMENT
-------------
                                X             Y             Z
Electronic contribution:     17.68117      -3.06449      12.26467
Nuclear contribution   :    -17.96150       3.26590     -12.61239
                        -----------------------------------------
Total Dipole Moment    :     -0.28032       0.20141      -0.34773
                        -----------------------------------------
Magnitude (a.u.)       :      0.48996
Magnitude (Debye)      :      1.24538

Rotational constants in cm-1:     0.022709     0.007631     0.006464
Rotational constants in MHz :   680.796727   228.774502   193.776117

                             ****ORCA TERMINATED NORMALLY****
TOTAL RUN TIME: 0 days 0 hours 0 minutes 21 seconds 488 msec
