                         Program Version 4.2.1 -  RELEASE  -
|  1> ! wB97X-D3 SP def2-SVP
|  2> %pal
|  3> nprocs 24
|  4> end
|  5>
|  6> * xyz 0 1
|  7> S 	 -98.7833 	 -0.451651 	 -116.984
|  8> C 	 -97.7276 	 -1.22321 	 -118.106
|  9> C 	 -98.0316 	 -0.899193 	 -119.413
| 10> C 	 -99.1224 	 0.0475211 	 -119.476
| 11> C 	 -99.7275 	 0.358373 	 -118.258
| 12> H 	 -99.4134 	 0.591644 	 -120.374
| 13> C 	 -97.1911 	 -1.30951 	 -120.591
| 14> H 	 -96.3015 	 -1.77968 	 -120.287
| 15> H 	 -96.8413 	 -0.39237 	 -121.101
| 16> C 	 -97.8287 	 -2.34168 	 -121.514
| 17> H 	 -98.8102 	 -1.97469 	 -121.816
| 18> H 	 -97.3056 	 -2.44065 	 -122.423
| 19> C 	 -98.0114 	 -3.76687 	 -121.058
| 20> H 	 -96.9823 	 -4.17669 	 -120.977
| 21> H 	 -98.4291 	 -3.94322 	 -120.103
| 22> H 	 -98.4861 	 -4.36718 	 -121.855
| 23> S 	 -100.594 	 2.69696 	 -117.091
| 24> C 	 -102.343 	 2.96575 	 -116.863
| 25> C 	 -103.04 	 2.03201 	 -117.577
| 26> C 	 -102.217 	 1.09832 	 -118.221
| 27> C 	 -100.839 	 1.26734 	 -117.961
| 28> H 	 -104.095 	 2.03552 	 -117.346
| 29> C 	 -102.746 	 -0.123273 	 -118.95
| 30> H 	 -103.672 	 -0.265889 	 -118.513
| 31> H 	 -102.174 	 -0.964762 	 -118.576
| 32> C 	 -102.78 	 0.0969592 	 -120.515
| 33> H 	 -101.799 	 0.337102 	 -120.824
| 34> H 	 -103.506 	 0.944578 	 -120.693
| 35> C 	 -103.299 	 -1.12577 	 -121.32
| 36> H 	 -102.642 	 -2.00998 	 -121.279
| 37> H 	 -103.443 	 -0.824213 	 -122.374
| 38> H 	 -104.303 	 -1.38386 	 -120.985
| 39> H 	 -96.8864 	 -1.74102 	 -117.804
| 40> H 	 -102.64 	 3.75127 	 -116.166
| 41> *
| 42>
| 43>                          ****END OF INPUT****

CARTESIAN COORDINATES (ANGSTROEM)
---------------------------------
  S    -98.783300   -0.451651  -116.984000
  C    -97.727600   -1.223210  -118.106000
  C    -98.031600   -0.899193  -119.413000
  C    -99.122400    0.047521  -119.476000
  C    -99.727500    0.358373  -118.258000
  H    -99.413400    0.591644  -120.374000
  C    -97.191100   -1.309510  -120.591000
  H    -96.301500   -1.779680  -120.287000
  H    -96.841300   -0.392370  -121.101000
  C    -97.828700   -2.341680  -121.514000
  H    -98.810200   -1.974690  -121.816000
  H    -97.305600   -2.440650  -122.423000
  C    -98.011400   -3.766870  -121.058000
  H    -96.982300   -4.176690  -120.977000
  H    -98.429100   -3.943220  -120.103000
  H    -98.486100   -4.367180  -121.855000
  S    -100.594000    2.696960  -117.091000
  C    -102.343000    2.965750  -116.863000
  C    -103.040000    2.032010  -117.577000
  C    -102.217000    1.098320  -118.221000
  C    -100.839000    1.267340  -117.961000
  H    -104.095000    2.035520  -117.346000
  C    -102.746000   -0.123273  -118.950000
  H    -103.672000   -0.265889  -118.513000
  H    -102.174000   -0.964762  -118.576000
  C    -102.780000    0.096959  -120.515000
  H    -101.799000    0.337102  -120.824000
  H    -103.506000    0.944578  -120.693000
  C    -103.299000   -1.125770  -121.320000
  H    -102.642000   -2.009980  -121.279000
  H    -103.443000   -0.824213  -122.374000
  H    -104.303000   -1.383860  -120.985000
  H    -96.886400   -1.741020  -117.804000
  H    -102.640000    3.751270  -116.166000

 Total Charge           Charge          ....    0
 Multiplicity           Mult            ....    1
 Number of Electrons    NEL             ....  134
 Basis Dimension        Dim             ....  322

ORBITAL ENERGIES
----------------

  NO   OCC          E(Eh)            E(eV)
   0   2.0000     -88.964382     -2420.8439
   1   2.0000     -88.961419     -2420.7633
   2   2.0000     -10.334299      -281.2106
   3   2.0000     -10.322947      -280.9017
   4   2.0000     -10.318993      -280.7941
   5   2.0000     -10.310381      -280.5597
   6   2.0000     -10.302497      -280.3452
   7   2.0000     -10.300805      -280.2992
   8   2.0000     -10.299892      -280.2743
   9   2.0000     -10.293286      -280.0946
  10   2.0000     -10.290387      -280.0157
  11   2.0000     -10.289956      -280.0039
  12   2.0000     -10.280599      -279.7493
  13   2.0000     -10.279200      -279.7112
  14   2.0000     -10.278843      -279.7015
  15   2.0000     -10.275153      -279.6011
  16   2.0000      -8.079187      -219.8459
  17   2.0000      -8.077010      -219.7866
  18   2.0000      -6.037611      -164.2917
  19   2.0000      -6.035231      -164.2270
  20   2.0000      -6.033587      -164.1823
  21   2.0000      -6.031285      -164.1196
  22   2.0000      -6.030116      -164.0878
  23   2.0000      -6.028125      -164.0336
  24   2.0000      -1.007445       -27.4140
  25   2.0000      -0.986491       -26.8438
  26   2.0000      -0.915299       -24.9066
  27   2.0000      -0.900150       -24.4943
  28   2.0000      -0.873940       -23.7811
  29   2.0000      -0.848109       -23.0782
  30   2.0000      -0.846548       -23.0357
  31   2.0000      -0.820733       -22.3333
  32   2.0000      -0.784389       -21.3443
  33   2.0000      -0.768227       -20.9045
  34   2.0000      -0.708551       -19.2807
  35   2.0000      -0.698726       -19.0133
  36   2.0000      -0.693217       -18.8634
  37   2.0000      -0.661164       -17.9912
  38   2.0000      -0.648571       -17.6485
  39   2.0000      -0.622980       -16.9521
  40   2.0000      -0.590922       -16.0798
  41   2.0000      -0.574334       -15.6284
  42   2.0000      -0.563606       -15.3365
  43   2.0000      -0.555267       -15.1096
  44   2.0000      -0.543761       -14.7965
  45   2.0000      -0.521715       -14.1966
  46   2.0000      -0.519094       -14.1253
  47   2.0000      -0.510823       -13.9002
  48   2.0000      -0.508757       -13.8440
  49   2.0000      -0.501131       -13.6365
  50   2.0000      -0.489352       -13.3159
  51   2.0000      -0.477389       -12.9904
  52   2.0000      -0.474298       -12.9063
  53   2.0000      -0.466478       -12.6935
  54   2.0000      -0.461914       -12.5693
  55   2.0000      -0.448316       -12.1993
  56   2.0000      -0.440369       -11.9830
  57   2.0000      -0.437658       -11.9093
  58   2.0000      -0.429304       -11.6820
  59   2.0000      -0.425847       -11.5879
  60   2.0000      -0.416329       -11.3289
  61   2.0000      -0.412519       -11.2252
  62   2.0000      -0.410052       -11.1581
  63   2.0000      -0.344764        -9.3815
  64   2.0000      -0.329563        -8.9679
  65   2.0000      -0.325298        -8.8518
  66   2.0000      -0.299862        -8.1597
  67   0.0000       0.030685         0.8350
  68   0.0000       0.066445         1.8081
  69   0.0000       0.118442         3.2230
  70   0.0000       0.127185         3.4609
  71   0.0000       0.128968         3.5094

MULLIKEN ATOMIC CHARGES
-----------------------
   0 S :    0.112267
   1 C :   -0.092580
   2 C :   -0.096262
   3 C :    0.039324
   4 C :   -0.172134
   5 H :    0.027837
   6 C :    0.103320
   7 H :   -0.008873
   8 H :    0.039341
   9 C :   -0.055170
  10 H :    0.012411
  11 H :    0.014866
  12 C :   -0.048012
  13 H :    0.013831
  14 H :    0.032082
  15 H :    0.041906
  16 S :    0.101964
  17 C :   -0.132315
  18 C :   -0.017537
  19 C :   -0.056964
  20 C :   -0.167313
  21 H :    0.027884
  22 C :    0.125934
  23 H :   -0.014655
  24 H :    0.029158
  25 C :   -0.062710
  26 H :    0.014204
  27 H :    0.038020
  28 C :   -0.045384
  29 H :    0.042718
  30 H :    0.034531
  31 H :    0.023676
  32 H :    0.025439
  33 H :    0.069195
Sum of atomic charges:   -0.0000000

LOEWDIN ATOMIC CHARGES
----------------------
   0 S :    0.406193
   1 C :   -0.186585
   2 C :   -0.065135
   3 C :   -0.056481
   4 C :   -0.190320
   5 H :    0.031963
   6 C :   -0.028108
   7 H :    0.020755
   8 H :    0.040016
   9 C :   -0.041708
  10 H :    0.017712
  11 H :    0.020768
  12 C :   -0.062532
  13 H :    0.024264
  14 H :    0.017583
  15 H :    0.034035
  16 S :    0.417719
  17 C :   -0.172024
  18 C :   -0.077536
  19 C :   -0.051590
  20 C :   -0.229727
  21 H :    0.038288
  22 C :   -0.025970
  23 H :    0.015765
  24 H :    0.032526
  25 C :   -0.028700
  26 H :    0.012870
  27 H :    0.033000
  28 C :   -0.069745
  29 H :    0.026808
  30 H :    0.028379
  31 H :    0.022321
  32 H :    0.014383
  33 H :    0.030814

  Mayer bond orders larger than 0.100000
B(  0-S ,  1-C ) :   1.1580 B(  0-S ,  4-C ) :   1.1421 B(  1-C ,  2-C ) :   1.5931
B(  1-C , 32-H ) :   0.9768 B(  2-C ,  3-C ) :   1.2399 B(  2-C ,  6-C ) :   1.0350
B(  3-C ,  4-C ) :   1.5870 B(  3-C ,  5-H ) :   0.9843 B(  4-C , 20-C ) :   1.0318
B(  6-C ,  7-H ) :   0.9363 B(  6-C ,  8-H ) :   0.9375 B(  6-C ,  9-C ) :   1.0666
B(  9-C , 10-H ) :   0.9563 B(  9-C , 11-H ) :   0.9518 B(  9-C , 12-C ) :   1.0829
B( 12-C , 13-H ) :   0.9708 B( 12-C , 14-H ) :   0.9777 B( 12-C , 15-H ) :   0.9716
B( 16-S , 17-C ) :   1.1689 B( 16-S , 20-C ) :   1.1757 B( 17-C , 18-C ) :   1.5717
B( 17-C , 20-C ) :   0.1057 B( 17-C , 33-H ) :   0.9698 B( 18-C , 19-C ) :   1.2720
B( 18-C , 21-H ) :   0.9938 B( 19-C , 20-C ) :   1.5440 B( 19-C , 22-C ) :   1.0374
B( 22-C , 23-H ) :   0.9279 B( 22-C , 24-H ) :   0.9290 B( 22-C , 25-C ) :   1.0478
B( 25-C , 26-H ) :   0.9583 B( 25-C , 27-H ) :   0.9562 B( 25-C , 28-C ) :   1.0854
B( 28-C , 29-H ) :   0.9758 B( 28-C , 30-H ) :   0.9748 B( 28-C , 31-H ) :   0.9735

Dispersion correction           -0.014574889
FINAL SINGLE POINT ENERGY     -1339.877749557988

DIPOLE MOMENT
-------------
                                X             Y             Z
Electronic contribution:      4.04195      18.52905      23.82796
Nuclear contribution   :     -4.12932     -18.73672     -24.19531
                        -----------------------------------------
Total Dipole Moment    :     -0.08737      -0.20767      -0.36735
                        -----------------------------------------
Magnitude (a.u.)       :      0.43093
Magnitude (Debye)      :      1.09535

Rotational constants in cm-1:     0.018788     0.009287     0.006842
Rotational constants in MHz :   563.251485   278.424764   205.125089

                             ****ORCA TERMINATED NORMALLY****
TOTAL RUN TIME: 0 days 0 hours 0 minutes 21 seconds 844 msec
