                         Program Version 4.2.1 -  RELEASE  -
|  1> ! wB97X-D3 SP def2-SVP
|  2> %pal
|  3> nprocs 24
|  4> end
|  5>
|  6> * xyz 0 1
|  7> S 	 -60.1066 	 -4.29049 	 -23.7179
|  8> C 	 -61.1424 	 -5.61641 	 -24.0252
|  9> C 	 -62.4627 	 -5.19128 	 -23.827
| 10> C 	 -62.5939 	 -3.83529 	 -23.4042
| 11> C 	 -61.3957 	 -3.16586 	 -23.3995
| 12> H 	 -63.4635 	 -3.15579 	 -23.1993
| 13> C 	 -63.683 	 -6.09836 	 -23.9696
| 14> H 	 -64.5732 	 -5.5329 	 -23.6151
| 15> H 	 -63.7268 	 -6.86101 	 -23.1653
| 16> C 	 -63.8004 	 -6.75229 	 -25.3053
| 17> H 	 -63.4468 	 -6.04991 	 -26.1604
| 18> H 	 -63.1076 	 -7.57368 	 -25.2887
| 19> C 	 -65.2015 	 -7.42117 	 -25.4425
| 20> H 	 -65.3324 	 -8.07303 	 -24.612
| 21> H 	 -66.0318 	 -6.64909 	 -25.3004
| 22> H 	 -65.2392 	 -7.97444 	 -26.3959
| 23> S 	 -60.3642 	 -1.41157 	 -21.5035
| 24> C 	 -60.0864 	 0.27491 	 -21.9774
| 25> C 	 -60.702 	 0.531284 	 -23.1995
| 26> C 	 -61.3759 	 -0.61773 	 -23.722
| 27> C 	 -61.0694 	 -1.81067 	 -23.0816
| 28> H 	 -60.6592 	 1.53892 	 -23.6723
| 29> C 	 -62.1159 	 -0.542466 	 -24.9864
| 30> H 	 -62.5817 	 0.385674 	 -24.8683
| 31> H 	 -62.987 	 -1.10656 	 -25.0225
| 32> C 	 -61.4125 	 -0.825728 	 -26.2634
| 33> H 	 -62.1619 	 -0.890268 	 -27.0681
| 34> H 	 -60.9981 	 -1.79741 	 -26.0913
| 35> C 	 -60.2729 	 0.168844 	 -26.6191
| 36> H 	 -60.6646 	 1.17792 	 -26.7363
| 37> H 	 -59.9072 	 -0.0567787 	 -27.5896
| 38> H 	 -59.4148 	 0.166371 	 -25.9465
| 39> H 	 -60.931 	 -6.51276 	 -24.4544
| 40> H 	 -59.4734 	 1.03368 	 -21.4669
| 41> *
| 42>
| 43>                          ****END OF INPUT****

CARTESIAN COORDINATES (ANGSTROEM)
---------------------------------
  S    -60.106600   -4.290490  -23.717900
  C    -61.142400   -5.616410  -24.025200
  C    -62.462700   -5.191280  -23.827000
  C    -62.593900   -3.835290  -23.404200
  C    -61.395700   -3.165860  -23.399500
  H    -63.463500   -3.155790  -23.199300
  C    -63.683000   -6.098360  -23.969600
  H    -64.573200   -5.532900  -23.615100
  H    -63.726800   -6.861010  -23.165300
  C    -63.800400   -6.752290  -25.305300
  H    -63.446800   -6.049910  -26.160400
  H    -63.107600   -7.573680  -25.288700
  C    -65.201500   -7.421170  -25.442500
  H    -65.332400   -8.073030  -24.612000
  H    -66.031800   -6.649090  -25.300400
  H    -65.239200   -7.974440  -26.395900
  S    -60.364200   -1.411570  -21.503500
  C    -60.086400    0.274910  -21.977400
  C    -60.702000    0.531284  -23.199500
  C    -61.375900   -0.617730  -23.722000
  C    -61.069400   -1.810670  -23.081600
  H    -60.659200    1.538920  -23.672300
  C    -62.115900   -0.542466  -24.986400
  H    -62.581700    0.385674  -24.868300
  H    -62.987000   -1.106560  -25.022500
  C    -61.412500   -0.825728  -26.263400
  H    -62.161900   -0.890268  -27.068100
  H    -60.998100   -1.797410  -26.091300
  C    -60.272900    0.168844  -26.619100
  H    -60.664600    1.177920  -26.736300
  H    -59.907200   -0.056779  -27.589600
  H    -59.414800    0.166371  -25.946500
  H    -60.931000   -6.512760  -24.454400
  H    -59.473400    1.033680  -21.466900

 Total Charge           Charge          ....    0
 Multiplicity           Mult            ....    1
 Number of Electrons    NEL             ....  134
 Basis Dimension        Dim             ....  322

ORBITAL ENERGIES
----------------

  NO   OCC          E(Eh)            E(eV)
   0   2.0000     -88.965757     -2420.8813
   1   2.0000     -88.963439     -2420.8182
   2   2.0000     -10.325198      -280.9629
   3   2.0000     -10.324109      -280.9333
   4   2.0000     -10.321651      -280.8664
   5   2.0000     -10.308819      -280.5172
   6   2.0000     -10.304079      -280.3882
   7   2.0000     -10.299452      -280.2623
   8   2.0000     -10.298508      -280.2367
   9   2.0000     -10.297638      -280.2130
  10   2.0000     -10.291801      -280.0541
  11   2.0000     -10.291137      -280.0361
  12   2.0000     -10.286088      -279.8987
  13   2.0000     -10.281151      -279.7643
  14   2.0000     -10.270489      -279.4742
  15   2.0000     -10.267856      -279.4026
  16   2.0000      -8.081137      -219.8989
  17   2.0000      -8.077420      -219.7978
  18   2.0000      -6.039560      -164.3448
  19   2.0000      -6.036029      -164.2487
  20   2.0000      -6.035273      -164.2281
  21   2.0000      -6.032194      -164.1443
  22   2.0000      -6.032066      -164.1408
  23   2.0000      -6.028069      -164.0321
  24   2.0000      -1.010677       -27.5019
  25   2.0000      -0.985052       -26.8046
  26   2.0000      -0.916269       -24.9330
  27   2.0000      -0.914658       -24.8891
  28   2.0000      -0.873166       -23.7601
  29   2.0000      -0.849151       -23.1066
  30   2.0000      -0.842934       -22.9374
  31   2.0000      -0.815936       -22.2027
  32   2.0000      -0.786005       -21.3883
  33   2.0000      -0.770919       -20.9778
  34   2.0000      -0.715844       -19.4791
  35   2.0000      -0.703987       -19.1565
  36   2.0000      -0.691311       -18.8115
  37   2.0000      -0.659342       -17.9416
  38   2.0000      -0.651972       -17.7411
  39   2.0000      -0.610810       -16.6210
  40   2.0000      -0.598581       -16.2882
  41   2.0000      -0.573058       -15.5937
  42   2.0000      -0.559142       -15.2150
  43   2.0000      -0.549987       -14.9659
  44   2.0000      -0.541802       -14.7432
  45   2.0000      -0.527747       -14.3607
  46   2.0000      -0.524043       -14.2599
  47   2.0000      -0.520043       -14.1511
  48   2.0000      -0.510021       -13.8784
  49   2.0000      -0.496118       -13.5001
  50   2.0000      -0.486085       -13.2270
  51   2.0000      -0.480260       -13.0685
  52   2.0000      -0.473226       -12.8771
  53   2.0000      -0.465405       -12.6643
  54   2.0000      -0.456131       -12.4120
  55   2.0000      -0.451647       -12.2899
  56   2.0000      -0.438602       -11.9350
  57   2.0000      -0.437210       -11.8971
  58   2.0000      -0.432480       -11.7684
  59   2.0000      -0.423732       -11.5303
  60   2.0000      -0.418260       -11.3814
  61   2.0000      -0.409119       -11.1327
  62   2.0000      -0.405561       -11.0359
  63   2.0000      -0.341407        -9.2902
  64   2.0000      -0.327558        -8.9133
  65   2.0000      -0.325404        -8.8547
  66   2.0000      -0.301134        -8.1943
  67   0.0000       0.032634         0.8880
  68   0.0000       0.055346         1.5061
  69   0.0000       0.111038         3.0215
  70   0.0000       0.125862         3.4249
  71   0.0000       0.134137         3.6501

MULLIKEN ATOMIC CHARGES
-----------------------
   0 S :    0.125229
   1 C :   -0.055114
   2 C :   -0.106457
   3 C :    0.051174
   4 C :   -0.210260
   5 H :    0.034744
   6 C :    0.044733
   7 H :    0.011118
   8 H :    0.031548
   9 C :   -0.103164
  10 H :    0.055924
  11 H :    0.025354
  12 C :   -0.044217
  13 H :    0.020514
  14 H :    0.040092
  15 H :    0.048401
  16 S :    0.107621
  17 C :   -0.098749
  18 C :   -0.054148
  19 C :   -0.050304
  20 C :   -0.158414
  21 H :    0.039069
  22 C :    0.130149
  23 H :   -0.010985
  24 H :   -0.015398
  25 C :   -0.029923
  26 H :    0.029229
  27 H :    0.022040
  28 C :   -0.037517
  29 H :    0.017934
  30 H :    0.017212
  31 H :    0.044288
  32 H :    0.011052
  33 H :    0.067226
Sum of atomic charges:   -0.0000000

LOEWDIN ATOMIC CHARGES
----------------------
   0 S :    0.439381
   1 C :   -0.195478
   2 C :   -0.060139
   3 C :   -0.066875
   4 C :   -0.206236
   5 H :    0.045914
   6 C :   -0.045578
   7 H :    0.027850
   8 H :    0.033856
   9 C :   -0.049549
  10 H :    0.035247
  11 H :    0.020303
  12 C :   -0.063897
  13 H :    0.019867
  14 H :    0.031523
  15 H :    0.030183
  16 S :    0.387523
  17 C :   -0.183235
  18 C :   -0.075631
  19 C :   -0.050416
  20 C :   -0.201150
  21 H :    0.040698
  22 C :   -0.042020
  23 H :    0.023680
  24 H :    0.024171
  25 C :   -0.025933
  26 H :    0.028079
  27 H :    0.024091
  28 C :   -0.064983
  29 H :    0.021866
  30 H :    0.020996
  31 H :    0.027844
  32 H :    0.010771
  33 H :    0.037278

  Mayer bond orders larger than 0.100000
B(  0-S ,  1-C ) :   1.1580 B(  0-S ,  4-C ) :   1.1662 B(  1-C ,  2-C ) :   1.5708
B(  1-C ,  4-C ) :   0.1076 B(  1-C , 32-H ) :   0.9859 B(  2-C ,  3-C ) :   1.2460
B(  2-C ,  6-C ) :   1.0173 B(  3-C ,  4-C ) :   1.5783 B(  3-C ,  5-H ) :   0.9851
B(  4-C , 20-C ) :   1.0317 B(  6-C ,  7-H ) :   0.9500 B(  6-C ,  8-H ) :   0.9316
B(  6-C ,  9-C ) :   1.0477 B(  9-C , 10-H ) :   0.9643 B(  9-C , 11-H ) :   0.9460
B(  9-C , 12-C ) :   1.0754 B( 12-C , 13-H ) :   0.9700 B( 12-C , 14-H ) :   0.9783
B( 12-C , 15-H ) :   0.9749 B( 16-S , 17-C ) :   1.1495 B( 16-S , 20-C ) :   1.1322
B( 17-C , 18-C ) :   1.6117 B( 17-C , 20-C ) :   0.1064 B( 17-C , 33-H ) :   0.9635
B( 18-C , 19-C ) :   1.2385 B( 18-C , 21-H ) :   0.9814 B( 19-C , 20-C ) :   1.5824
B( 19-C , 22-C ) :   1.0631 B( 22-C , 23-H ) :   0.9098 B( 22-C , 24-H ) :   0.9091
B( 22-C , 25-C ) :   1.0772 B( 25-C , 26-H ) :   0.9518 B( 25-C , 27-H ) :   0.9486
B( 25-C , 28-C ) :   1.0852 B( 28-C , 29-H ) :   0.9744 B( 28-C , 30-H ) :   0.9720
B( 28-C , 31-H ) :   0.9729

Dispersion correction           -0.014736796
FINAL SINGLE POINT ENERGY     -1339.857580672931

DIPOLE MOMENT
-------------
                                X             Y             Z
Electronic contribution:     15.38117       4.94905      19.28241
Nuclear contribution   :    -15.83233      -4.95842     -19.70228
                        -----------------------------------------
Total Dipole Moment    :     -0.45116      -0.00937      -0.41988
                        -----------------------------------------
Magnitude (a.u.)       :      0.61638
Magnitude (Debye)      :      1.56672

Rotational constants in cm-1:     0.022275     0.007685     0.006662
Rotational constants in MHz :   667.796691   230.390403   199.726828

                             ****ORCA TERMINATED NORMALLY****
TOTAL RUN TIME: 0 days 0 hours 0 minutes 20 seconds 801 msec
