                         Program Version 4.2.1 -  RELEASE  -
|  1> ! wB97X-D3 SP def2-SVP
|  2> %pal
|  3> nprocs 24
|  4> end
|  5>
|  6> * xyz 0 1
|  7> S 	 -32.1775 	 -33.6679 	 -93.1552
|  8> C 	 -32.1678 	 -31.9751 	 -93.6776
|  9> C 	 -31.0667 	 -31.6377 	 -94.3931
| 10> C 	 -30.1739 	 -32.7419 	 -94.4718
| 11> C 	 -30.564 	 -33.858 	 -93.8281
| 12> H 	 -29.3444 	 -32.9716 	 -95.0975
| 13> C 	 -30.8896 	 -30.3143 	 -95.1488
| 14> H 	 -29.8616 	 -30.2649 	 -95.4023
| 15> H 	 -30.9473 	 -29.4866 	 -94.438
| 16> C 	 -31.7418 	 -30.1308 	 -96.4022
| 17> H 	 -32.755 	 -30.1399 	 -96.1363
| 18> H 	 -31.5679 	 -29.2469 	 -96.9896
| 19> C 	 -31.5693 	 -31.3044 	 -97.3523
| 20> H 	 -32.3223 	 -31.2723 	 -98.1207
| 21> H 	 -30.5982 	 -31.0671 	 -97.7778
| 22> H 	 -31.4767 	 -32.2626 	 -96.9336
| 23> S 	 -29.9402 	 -36.2566 	 -95.0224
| 24> C 	 -29.2569 	 -37.5013 	 -94.1004
| 25> C 	 -28.8694 	 -37.0845 	 -92.8219
| 26> C 	 -29.3113 	 -35.7661 	 -92.586
| 27> C 	 -29.9122 	 -35.1552 	 -93.6725
| 28> H 	 -28.4295 	 -37.8027 	 -92.0966
| 29> C 	 -29.0964 	 -35.0588 	 -91.2708
| 30> H 	 -29.8524 	 -35.44 	 -90.5414
| 31> H 	 -29.426 	 -34.0342 	 -91.4365
| 32> C 	 -27.6748 	 -35.0451 	 -90.7575
| 33> H 	 -26.9658 	 -34.743 	 -91.5114
| 34> H 	 -27.2081 	 -36.0543 	 -90.5895
| 35> C 	 -27.6622 	 -33.9661 	 -89.614
| 36> H 	 -26.6992 	 -33.8125 	 -89.1159
| 37> H 	 -28.4708 	 -34.1517 	 -88.8551
| 38> H 	 -27.9801 	 -33.0079 	 -89.9943
| 39> H 	 -33.1246 	 -31.4363 	 -93.6486
| 40> H 	 -29.0972 	 -38.4945 	 -94.5044
| 41> *
| 42>
| 43>                          ****END OF INPUT****

CARTESIAN COORDINATES (ANGSTROEM)
---------------------------------
  S    -32.177500  -33.667900  -93.155200
  C    -32.167800  -31.975100  -93.677600
  C    -31.066700  -31.637700  -94.393100
  C    -30.173900  -32.741900  -94.471800
  C    -30.564000  -33.858000  -93.828100
  H    -29.344400  -32.971600  -95.097500
  C    -30.889600  -30.314300  -95.148800
  H    -29.861600  -30.264900  -95.402300
  H    -30.947300  -29.486600  -94.438000
  C    -31.741800  -30.130800  -96.402200
  H    -32.755000  -30.139900  -96.136300
  H    -31.567900  -29.246900  -96.989600
  C    -31.569300  -31.304400  -97.352300
  H    -32.322300  -31.272300  -98.120700
  H    -30.598200  -31.067100  -97.777800
  H    -31.476700  -32.262600  -96.933600
  S    -29.940200  -36.256600  -95.022400
  C    -29.256900  -37.501300  -94.100400
  C    -28.869400  -37.084500  -92.821900
  C    -29.311300  -35.766100  -92.586000
  C    -29.912200  -35.155200  -93.672500
  H    -28.429500  -37.802700  -92.096600
  C    -29.096400  -35.058800  -91.270800
  H    -29.852400  -35.440000  -90.541400
  H    -29.426000  -34.034200  -91.436500
  C    -27.674800  -35.045100  -90.757500
  H    -26.965800  -34.743000  -91.511400
  H    -27.208100  -36.054300  -90.589500
  C    -27.662200  -33.966100  -89.614000
  H    -26.699200  -33.812500  -89.115900
  H    -28.470800  -34.151700  -88.855100
  H    -27.980100  -33.007900  -89.994300
  H    -33.124600  -31.436300  -93.648600
  H    -29.097200  -38.494500  -94.504400

 Total Charge           Charge          ....    0
 Multiplicity           Mult            ....    1
 Number of Electrons    NEL             ....  134
 Basis Dimension        Dim             ....  322

ORBITAL ENERGIES
----------------

  NO   OCC          E(Eh)            E(eV)
   0   2.0000     -88.965224     -2420.8668
   1   2.0000     -88.961372     -2420.7620
   2   2.0000     -10.324381      -280.9407
   3   2.0000     -10.319864      -280.8178
   4   2.0000     -10.315741      -280.7056
   5   2.0000     -10.314560      -280.6734
   6   2.0000     -10.303491      -280.3722
   7   2.0000     -10.299001      -280.2501
   8   2.0000     -10.295053      -280.1426
   9   2.0000     -10.290628      -280.0222
  10   2.0000     -10.289398      -279.9888
  11   2.0000     -10.289391      -279.9886
  12   2.0000     -10.286730      -279.9162
  13   2.0000     -10.281291      -279.7682
  14   2.0000     -10.279202      -279.7113
  15   2.0000     -10.265423      -279.3364
  16   2.0000      -8.081185      -219.9002
  17   2.0000      -8.076140      -219.7629
  18   2.0000      -6.039410      -164.3407
  19   2.0000      -6.035410      -164.2318
  20   2.0000      -6.034530      -164.2079
  21   2.0000      -6.032300      -164.1472
  22   2.0000      -6.030787      -164.1061
  23   2.0000      -6.026872      -163.9995
  24   2.0000      -1.011843       -27.5337
  25   2.0000      -0.989999       -26.9392
  26   2.0000      -0.916370       -24.9357
  27   2.0000      -0.909741       -24.7553
  28   2.0000      -0.870799       -23.6956
  29   2.0000      -0.849646       -23.1200
  30   2.0000      -0.846759       -23.0415
  31   2.0000      -0.816575       -22.2201
  32   2.0000      -0.783730       -21.3264
  33   2.0000      -0.768203       -20.9039
  34   2.0000      -0.709690       -19.3116
  35   2.0000      -0.706410       -19.2224
  36   2.0000      -0.695139       -18.9157
  37   2.0000      -0.659394       -17.9430
  38   2.0000      -0.648047       -17.6342
  39   2.0000      -0.611814       -16.6483
  40   2.0000      -0.598491       -16.2858
  41   2.0000      -0.579739       -15.7755
  42   2.0000      -0.556674       -15.1479
  43   2.0000      -0.554032       -15.0760
  44   2.0000      -0.544359       -14.8128
  45   2.0000      -0.526600       -14.3295
  46   2.0000      -0.516078       -14.0432
  47   2.0000      -0.511712       -13.9244
  48   2.0000      -0.505367       -13.7517
  49   2.0000      -0.494439       -13.4544
  50   2.0000      -0.485078       -13.1996
  51   2.0000      -0.474590       -12.9143
  52   2.0000      -0.473662       -12.8890
  53   2.0000      -0.460279       -12.5248
  54   2.0000      -0.456805       -12.4303
  55   2.0000      -0.452847       -12.3226
  56   2.0000      -0.444645       -12.0994
  57   2.0000      -0.440963       -11.9992
  58   2.0000      -0.439488       -11.9591
  59   2.0000      -0.427260       -11.6263
  60   2.0000      -0.419545       -11.4164
  61   2.0000      -0.411321       -11.1926
  62   2.0000      -0.405184       -11.0256
  63   2.0000      -0.336747        -9.1633
  64   2.0000      -0.333529        -9.0758
  65   2.0000      -0.326983        -8.8977
  66   2.0000      -0.307648        -8.3715
  67   0.0000       0.046377         1.2620
  68   0.0000       0.055495         1.5101
  69   0.0000       0.112351         3.0572
  70   0.0000       0.119092         3.2407
  71   0.0000       0.133794         3.6407

MULLIKEN ATOMIC CHARGES
-----------------------
   0 S :    0.100779
   1 C :   -0.137580
   2 C :   -0.093494
   3 C :    0.059514
   4 C :   -0.201739
   5 H :    0.000418
   6 C :    0.105806
   7 H :    0.000869
   8 H :    0.031311
   9 C :   -0.022313
  10 H :    0.008979
  11 H :    0.028976
  12 C :   -0.048156
  13 H :    0.030364
  14 H :    0.012744
  15 H :    0.037869
  16 S :    0.127144
  17 C :   -0.098721
  18 C :   -0.053398
  19 C :   -0.023522
  20 C :   -0.184692
  21 H :    0.037457
  22 C :    0.064023
  23 H :    0.044417
  24 H :    0.020495
  25 C :   -0.074451
  26 H :    0.025371
  27 H :    0.033979
  28 C :   -0.045837
  29 H :    0.038514
  30 H :    0.029510
  31 H :    0.025367
  32 H :    0.061898
  33 H :    0.058099
Sum of atomic charges:   -0.0000000

LOEWDIN ATOMIC CHARGES
----------------------
   0 S :    0.385927
   1 C :   -0.179655
   2 C :   -0.065200
   3 C :   -0.064374
   4 C :   -0.189465
   5 H :    0.031305
   6 C :   -0.026157
   7 H :    0.023312
   8 H :    0.034008
   9 C :   -0.031444
  10 H :    0.011915
  11 H :    0.026025
  12 C :   -0.055287
  13 H :    0.024075
  14 H :    0.023723
  15 H :    0.018716
  16 S :    0.437987
  17 C :   -0.196496
  18 C :   -0.082602
  19 C :   -0.053105
  20 C :   -0.223052
  21 H :    0.040160
  22 C :   -0.035531
  23 H :    0.038790
  24 H :    0.029618
  25 C :   -0.045811
  26 H :    0.025317
  27 H :    0.027342
  28 C :   -0.065843
  29 H :    0.024326
  30 H :    0.029492
  31 H :    0.024379
  32 H :    0.030053
  33 H :    0.027550

  Mayer bond orders larger than 0.100000
B(  0-S ,  1-C ) :   1.1411 B(  0-S ,  4-C ) :   1.1353 B(  1-C ,  2-C ) :   1.6411
B(  1-C , 32-H ) :   0.9658 B(  2-C ,  3-C ) :   1.1924 B(  2-C ,  6-C ) :   1.0090
B(  3-C ,  4-C ) :   1.6543 B(  3-C ,  5-H ) :   0.9943 B(  4-C , 20-C ) :   0.9871
B(  6-C ,  7-H ) :   0.9370 B(  6-C ,  8-H ) :   0.9376 B(  6-C ,  9-C ) :   1.0679
B(  9-C , 10-H ) :   0.9580 B(  9-C , 11-H ) :   0.9593 B(  9-C , 12-C ) :   1.0668
B( 12-C , 13-H ) :   0.9738 B( 12-C , 14-H ) :   0.9796 B( 12-C , 15-H ) :   0.9779
B( 16-S , 17-C ) :   1.2028 B( 16-S , 20-C ) :   1.1505 B( 17-C , 18-C ) :   1.5602
B( 17-C , 20-C ) :   0.1037 B( 17-C , 33-H ) :   0.9667 B( 18-C , 19-C ) :   1.2641
B( 18-C , 21-H ) :   0.9897 B( 19-C , 20-C ) :   1.5906 B( 19-C , 22-C ) :   1.0394
B( 22-C , 23-H ) :   0.9241 B( 22-C , 24-H ) :   0.9362 B( 22-C , 25-C ) :   1.0532
B( 25-C , 26-H ) :   0.9545 B( 25-C , 27-H ) :   0.9550 B( 25-C , 28-C ) :   1.0664
B( 28-C , 29-H ) :   0.9757 B( 28-C , 30-H ) :   0.9739 B( 28-C , 31-H ) :   0.9750

Dispersion correction           -0.014654587
FINAL SINGLE POINT ENERGY     -1339.874897038598

DIPOLE MOMENT
-------------
                                X             Y             Z
Electronic contribution:     -7.78393     -14.58438      -3.37035
Nuclear contribution   :      7.95990      14.79920       3.29188
                        -----------------------------------------
Total Dipole Moment    :      0.17597       0.21482      -0.07847
                        -----------------------------------------
Magnitude (a.u.)       :      0.28856
Magnitude (Debye)      :      0.73347

Rotational constants in cm-1:     0.020250     0.008338     0.006881
Rotational constants in MHz :   607.091348   249.952683   206.292876

                             ****ORCA TERMINATED NORMALLY****
TOTAL RUN TIME: 0 days 0 hours 0 minutes 21 seconds 572 msec
