                         Program Version 4.2.1 -  RELEASE  -
|  1> ! wB97X-D3 SP def2-SVP
|  2> %pal
|  3> nprocs 24
|  4> end
|  5>
|  6> * xyz 0 1
|  7> S 	 -101.319 	 2.19108 	 -104.789
|  8> C 	 -101.106 	 1.85311 	 -106.486
|  9> C 	 -101.536 	 0.635604 	 -106.89
| 10> C 	 -102.118 	 -0.031961 	 -105.755
| 11> C 	 -102.229 	 0.700501 	 -104.613
| 12> H 	 -102.472 	 -1.03896 	 -105.808
| 13> C 	 -101.393 	 -0.0468474 	 -108.25
| 14> H 	 -101.17 	 0.681844 	 -109.034
| 15> H 	 -102.374 	 -0.522471 	 -108.408
| 16> C 	 -100.167 	 -0.99583 	 -108.247
| 17> H 	 -99.2392 	 -0.429047 	 -108.09
| 18> H 	 -100.237 	 -1.52439 	 -107.32
| 19> C 	 -100.1 	 -1.91993 	 -109.505
| 20> H 	 -100.889 	 -2.615 	 -109.79
| 21> H 	 -100.119 	 -1.32385 	 -110.404
| 22> H 	 -99.1981 	 -2.5105 	 -109.539
| 23> S 	 -102.142 	 1.17141 	 -101.932
| 24> C 	 -103.175 	 0.32661 	 -100.872
| 25> C 	 -104.206 	 -0.270512 	 -101.548
| 26> C 	 -104.009 	 -0.237977 	 -102.957
| 27> C 	 -102.84 	 0.332249 	 -103.326
| 28> H 	 -104.99 	 -0.857653 	 -100.98
| 29> C 	 -105.057 	 -0.973779 	 -103.743
| 30> H 	 -105.748 	 -1.55884 	 -103.07
| 31> H 	 -104.519 	 -1.782 	 -104.147
| 32> C 	 -105.709 	 -0.13831 	 -104.859
| 33> H 	 -104.956 	 0.370083 	 -105.429
| 34> H 	 -106.321 	 0.601502 	 -104.309
| 35> C 	 -106.674 	 -1.02142 	 -105.643
| 36> H 	 -107.28 	 -0.567107 	 -106.348
| 37> H 	 -107.303 	 -1.31367 	 -104.82
| 38> H 	 -106.223 	 -1.89179 	 -106.132
| 39> H 	 -100.347 	 2.24187 	 -107.1
| 40> H 	 -103.201 	 0.474402 	 -99.7845
| 41> *
| 42>
| 43>                          ****END OF INPUT****

CARTESIAN COORDINATES (ANGSTROEM)
---------------------------------
  S    -101.319000    2.191080  -104.789000
  C    -101.106000    1.853110  -106.486000
  C    -101.536000    0.635604  -106.890000
  C    -102.118000   -0.031961  -105.755000
  C    -102.229000    0.700501  -104.613000
  H    -102.472000   -1.038960  -105.808000
  C    -101.393000   -0.046847  -108.250000
  H    -101.170000    0.681844  -109.034000
  H    -102.374000   -0.522471  -108.408000
  C    -100.167000   -0.995830  -108.247000
  H    -99.239200   -0.429047  -108.090000
  H    -100.237000   -1.524390  -107.320000
  C    -100.100000   -1.919930  -109.505000
  H    -100.889000   -2.615000  -109.790000
  H    -100.119000   -1.323850  -110.404000
  H    -99.198100   -2.510500  -109.539000
  S    -102.142000    1.171410  -101.932000
  C    -103.175000    0.326610  -100.872000
  C    -104.206000   -0.270512  -101.548000
  C    -104.009000   -0.237977  -102.957000
  C    -102.840000    0.332249  -103.326000
  H    -104.990000   -0.857653  -100.980000
  C    -105.057000   -0.973779  -103.743000
  H    -105.748000   -1.558840  -103.070000
  H    -104.519000   -1.782000  -104.147000
  C    -105.709000   -0.138310  -104.859000
  H    -104.956000    0.370083  -105.429000
  H    -106.321000    0.601502  -104.309000
  C    -106.674000   -1.021420  -105.643000
  H    -107.280000   -0.567107  -106.348000
  H    -107.303000   -1.313670  -104.820000
  H    -106.223000   -1.891790  -106.132000
  H    -100.347000    2.241870  -107.100000
  H    -103.201000    0.474402  -99.784500

 Total Charge           Charge          ....    0
 Multiplicity           Mult            ....    1
 Number of Electrons    NEL             ....  134
 Basis Dimension        Dim             ....  322

ORBITAL ENERGIES
----------------

  NO   OCC          E(Eh)            E(eV)
   0   2.0000     -88.964744     -2420.8538
   1   2.0000     -88.962418     -2420.7905
   2   2.0000     -10.330074      -281.0956
   3   2.0000     -10.326244      -280.9914
   4   2.0000     -10.315183      -280.6904
   5   2.0000     -10.302700      -280.3507
   6   2.0000     -10.300408      -280.2883
   7   2.0000     -10.299167      -280.2546
   8   2.0000     -10.297913      -280.2204
   9   2.0000     -10.293726      -280.1065
  10   2.0000     -10.293386      -280.0973
  11   2.0000     -10.289018      -279.9784
  12   2.0000     -10.288636      -279.9680
  13   2.0000     -10.284046      -279.8431
  14   2.0000     -10.280299      -279.7412
  15   2.0000     -10.269590      -279.4498
  16   2.0000      -8.079645      -219.8583
  17   2.0000      -8.078294      -219.8216
  18   2.0000      -6.038318      -164.3110
  19   2.0000      -6.036824      -164.2703
  20   2.0000      -6.034361      -164.2033
  21   2.0000      -6.032797      -164.1607
  22   2.0000      -6.029985      -164.0842
  23   2.0000      -6.028820      -164.0525
  24   2.0000      -1.014311       -27.6008
  25   2.0000      -0.991690       -26.9853
  26   2.0000      -0.915196       -24.9038
  27   2.0000      -0.911411       -24.8007
  28   2.0000      -0.870134       -23.6775
  29   2.0000      -0.858192       -23.3526
  30   2.0000      -0.844351       -22.9759
  31   2.0000      -0.816495       -22.2179
  32   2.0000      -0.784366       -21.3437
  33   2.0000      -0.778265       -21.1777
  34   2.0000      -0.712187       -19.3796
  35   2.0000      -0.710170       -19.3247
  36   2.0000      -0.694743       -18.9049
  37   2.0000      -0.664835       -18.0911
  38   2.0000      -0.637336       -17.3428
  39   2.0000      -0.624686       -16.9986
  40   2.0000      -0.598171       -16.2770
  41   2.0000      -0.570968       -15.5368
  42   2.0000      -0.563207       -15.3256
  43   2.0000      -0.555647       -15.1199
  44   2.0000      -0.527214       -14.3462
  45   2.0000      -0.524425       -14.2703
  46   2.0000      -0.522779       -14.2255
  47   2.0000      -0.510135       -13.8815
  48   2.0000      -0.502460       -13.6726
  49   2.0000      -0.499464       -13.5911
  50   2.0000      -0.494070       -13.4443
  51   2.0000      -0.491588       -13.3768
  52   2.0000      -0.471946       -12.8423
  53   2.0000      -0.467313       -12.7162
  54   2.0000      -0.457439       -12.4475
  55   2.0000      -0.453730       -12.3466
  56   2.0000      -0.446239       -12.1428
  57   2.0000      -0.437673       -11.9097
  58   2.0000      -0.434258       -11.8168
  59   2.0000      -0.425510       -11.5787
  60   2.0000      -0.419381       -11.4119
  61   2.0000      -0.416394       -11.3307
  62   2.0000      -0.414398       -11.2763
  63   2.0000      -0.356559        -9.7025
  64   2.0000      -0.334248        -9.0954
  65   2.0000      -0.326317        -8.8795
  66   2.0000      -0.290237        -7.8977
  67   0.0000       0.024692         0.6719
  68   0.0000       0.074202         2.0191
  69   0.0000       0.097950         2.6653
  70   0.0000       0.123227         3.3532
  71   0.0000       0.136097         3.7034

MULLIKEN ATOMIC CHARGES
-----------------------
   0 S :    0.091950
   1 C :   -0.065025
   2 C :   -0.138408
   3 C :   -0.002337
   4 C :   -0.111629
   5 H :   -0.002821
   6 C :    0.068568
   7 H :    0.025356
   8 H :    0.042254
   9 C :   -0.058901
  10 H :    0.030312
  11 H :    0.019374
  12 C :   -0.028204
  13 H :    0.028344
  14 H :    0.015033
  15 H :    0.033418
  16 S :    0.079694
  17 C :   -0.074304
  18 C :   -0.074021
  19 C :   -0.032889
  20 C :   -0.124133
  21 H :    0.042714
  22 C :    0.042999
  23 H :    0.018993
  24 H :    0.014271
  25 C :   -0.070842
  26 H :    0.045750
  27 H :    0.032220
  28 C :   -0.002267
  29 H :    0.018434
  30 H :    0.016674
  31 H :    0.028923
  32 H :    0.027051
  33 H :    0.063450
Sum of atomic charges:   -0.0000000

LOEWDIN ATOMIC CHARGES
----------------------
   0 S :    0.391716
   1 C :   -0.199477
   2 C :   -0.059398
   3 C :   -0.069948
   4 C :   -0.182443
   5 H :    0.023100
   6 C :   -0.026218
   7 H :    0.030121
   8 H :    0.036417
   9 C :   -0.035380
  10 H :    0.030864
  11 H :    0.019216
  12 C :   -0.073769
  13 H :    0.028180
  14 H :    0.023640
  15 H :    0.026606
  16 S :    0.404709
  17 C :   -0.191220
  18 C :   -0.084371
  19 C :   -0.052838
  20 C :   -0.187806
  21 H :    0.042044
  22 C :   -0.033295
  23 H :    0.033769
  24 H :    0.024249
  25 C :   -0.031292
  26 H :    0.020978
  27 H :    0.029834
  28 C :   -0.059321
  29 H :    0.014318
  30 H :    0.027565
  31 H :    0.024700
  32 H :    0.020321
  33 H :    0.034433

  Mayer bond orders larger than 0.100000
B(  0-S ,  1-C ) :   1.1228 B(  0-S ,  4-C ) :   1.1253 B(  1-C ,  2-C ) :   1.6761
B(  1-C , 32-H ) :   0.9508 B(  2-C ,  3-C ) :   1.2225 B(  2-C ,  6-C ) :   1.0209
B(  3-C ,  4-C ) :   1.6031 B(  3-C ,  5-H ) :   0.9998 B(  4-C , 20-C ) :   1.0578
B(  6-C ,  7-H ) :   0.9396 B(  6-C ,  8-H ) :   0.9428 B(  6-C ,  9-C ) :   1.0541
B(  9-C , 10-H ) :   0.9532 B(  9-C , 11-H ) :   0.9623 B(  9-C , 12-C ) :   1.0634
B( 12-C , 13-H ) :   0.9775 B( 12-C , 14-H ) :   0.9716 B( 12-C , 15-H ) :   0.9764
B( 16-S , 17-C ) :   1.1731 B( 16-S , 20-C ) :   1.1096 B( 17-C , 18-C ) :   1.6174
B( 17-C , 33-H ) :   0.9618 B( 18-C , 19-C ) :   1.2366 B( 18-C , 21-H ) :   0.9805
B( 19-C , 20-C ) :   1.6211 B( 19-C , 22-C ) :   1.0195 B( 22-C , 23-H ) :   0.9389
B( 22-C , 24-H ) :   0.9315 B( 22-C , 25-C ) :   1.0424 B( 25-C , 26-H ) :   0.9585
B( 25-C , 27-H ) :   0.9576 B( 25-C , 28-C ) :   1.0702 B( 28-C , 29-H ) :   0.9750
B( 28-C , 30-H ) :   0.9730 B( 28-C , 31-H ) :   0.9769

Dispersion correction           -0.014059458
FINAL SINGLE POINT ENERGY     -1339.856322707345

DIPOLE MOMENT
-------------
                                X             Y             Z
Electronic contribution:      8.89191      17.11275      22.53840
Nuclear contribution   :     -9.15209     -17.70638     -22.84000
                        -----------------------------------------
Total Dipole Moment    :     -0.26018      -0.59363      -0.30159
                        -----------------------------------------
Magnitude (a.u.)       :      0.71488
Magnitude (Debye)      :      1.81708

Rotational constants in cm-1:     0.018298     0.008603     0.006665
Rotational constants in MHz :   548.562429   257.925315   199.804151

                             ****ORCA TERMINATED NORMALLY****
TOTAL RUN TIME: 0 days 0 hours 0 minutes 21 seconds 787 msec
