                         Program Version 4.2.1 -  RELEASE  -
|  1> ! wB97X-D3 SP def2-SVP
|  2> %pal
|  3> nprocs 24
|  4> end
|  5>
|  6> * xyz 0 1
|  7> S 	 -131.036 	 61.9916 	 -60.7339
|  8> C 	 -132.02 	 60.6943 	 -61.2975
|  9> C 	 -131.216 	 59.5996 	 -61.7344
| 10> C 	 -129.791 	 59.9059 	 -61.511
| 11> C 	 -129.482 	 61.1206 	 -60.9823
| 12> H 	 -128.951 	 59.3059 	 -61.8978
| 13> C 	 -131.746 	 58.2399 	 -62.2587
| 14> H 	 -131.43 	 58.1252 	 -63.2349
| 15> H 	 -132.801 	 58.3591 	 -62.2528
| 16> C 	 -131.388 	 56.9157 	 -61.5192
| 17> H 	 -130.392 	 57.0318 	 -61.0627
| 18> H 	 -132.049 	 56.7653 	 -60.6555
| 19> C 	 -131.513 	 55.6604 	 -62.4155
| 20> H 	 -132.534 	 55.5574 	 -62.7955
| 21> H 	 -130.925 	 55.667 	 -63.2653
| 22> H 	 -131.301 	 54.8313 	 -61.7816
| 23> S 	 -127.967 	 63.3971 	 -61.2155
| 24> C 	 -126.229 	 63.2509 	 -60.9395
| 25> C 	 -125.812 	 61.9387 	 -60.6616
| 26> C 	 -126.864 	 60.9774 	 -60.638
| 27> C 	 -128.08 	 61.6501 	 -60.8957
| 28> H 	 -124.756 	 61.7265 	 -60.5868
| 29> C 	 -126.656 	 59.5119 	 -60.4453
| 30> H 	 -127.533 	 59.0806 	 -59.9474
| 31> H 	 -125.824 	 59.2575 	 -59.6832
| 32> C 	 -126.271 	 58.6934 	 -61.7273
| 33> H 	 -125.503 	 59.3748 	 -62.2433
| 34> H 	 -127.063 	 58.7015 	 -62.4392
| 35> C 	 -125.627 	 57.3482 	 -61.5584
| 36> H 	 -124.552 	 57.4183 	 -61.2331
| 37> H 	 -125.539 	 56.8327 	 -62.5139
| 38> H 	 -126.191 	 56.7996 	 -60.7638
| 39> H 	 -133.066 	 60.6881 	 -61.0952
| 40> H 	 -125.5 	 64.0737 	 -61.1233
| 41> *
| 42>
| 43>                          ****END OF INPUT****

CARTESIAN COORDINATES (ANGSTROEM)
---------------------------------
  S    -131.036000   61.991600  -60.733900
  C    -132.020000   60.694300  -61.297500
  C    -131.216000   59.599600  -61.734400
  C    -129.791000   59.905900  -61.511000
  C    -129.482000   61.120600  -60.982300
  H    -128.951000   59.305900  -61.897800
  C    -131.746000   58.239900  -62.258700
  H    -131.430000   58.125200  -63.234900
  H    -132.801000   58.359100  -62.252800
  C    -131.388000   56.915700  -61.519200
  H    -130.392000   57.031800  -61.062700
  H    -132.049000   56.765300  -60.655500
  C    -131.513000   55.660400  -62.415500
  H    -132.534000   55.557400  -62.795500
  H    -130.925000   55.667000  -63.265300
  H    -131.301000   54.831300  -61.781600
  S    -127.967000   63.397100  -61.215500
  C    -126.229000   63.250900  -60.939500
  C    -125.812000   61.938700  -60.661600
  C    -126.864000   60.977400  -60.638000
  C    -128.080000   61.650100  -60.895700
  H    -124.756000   61.726500  -60.586800
  C    -126.656000   59.511900  -60.445300
  H    -127.533000   59.080600  -59.947400
  H    -125.824000   59.257500  -59.683200
  C    -126.271000   58.693400  -61.727300
  H    -125.503000   59.374800  -62.243300
  H    -127.063000   58.701500  -62.439200
  C    -125.627000   57.348200  -61.558400
  H    -124.552000   57.418300  -61.233100
  H    -125.539000   56.832700  -62.513900
  H    -126.191000   56.799600  -60.763800
  H    -133.066000   60.688100  -61.095200
  H    -125.500000   64.073700  -61.123300

 Total Charge           Charge          ....    0
 Multiplicity           Mult            ....    1
 Number of Electrons    NEL             ....  134
 Basis Dimension        Dim             ....  322

ORBITAL ENERGIES
----------------

  NO   OCC          E(Eh)            E(eV)
   0   2.0000     -88.973194     -2421.0837
   1   2.0000     -88.965457     -2420.8732
   2   2.0000     -10.339666      -281.3566
   3   2.0000     -10.333197      -281.1806
   4   2.0000     -10.322938      -280.9014
   5   2.0000     -10.318208      -280.7727
   6   2.0000     -10.313051      -280.6324
   7   2.0000     -10.311252      -280.5834
   8   2.0000     -10.304267      -280.3934
   9   2.0000     -10.298556      -280.2379
  10   2.0000     -10.294593      -280.1301
  11   2.0000     -10.293516      -280.1008
  12   2.0000     -10.290447      -280.0173
  13   2.0000     -10.288620      -279.9676
  14   2.0000     -10.287297      -279.9316
  15   2.0000     -10.273955      -279.5685
  16   2.0000      -8.086958      -220.0573
  17   2.0000      -8.079730      -219.8606
  18   2.0000      -6.045392      -164.5035
  19   2.0000      -6.041818      -164.4062
  20   2.0000      -6.038490      -164.3157
  21   2.0000      -6.037639      -164.2925
  22   2.0000      -6.034180      -164.1984
  23   2.0000      -6.030368      -164.0946
  24   2.0000      -0.999046       -27.1854
  25   2.0000      -0.977077       -26.5876
  26   2.0000      -0.910280       -24.7700
  27   2.0000      -0.904768       -24.6200
  28   2.0000      -0.866058       -23.5666
  29   2.0000      -0.859059       -23.3762
  30   2.0000      -0.843122       -22.9425
  31   2.0000      -0.813761       -22.1436
  32   2.0000      -0.783682       -21.3251
  33   2.0000      -0.770016       -20.9532
  34   2.0000      -0.705654       -19.2018
  35   2.0000      -0.700617       -19.0648
  36   2.0000      -0.689690       -18.7674
  37   2.0000      -0.662529       -18.0283
  38   2.0000      -0.642267       -17.4770
  39   2.0000      -0.617124       -16.7928
  40   2.0000      -0.597810       -16.2672
  41   2.0000      -0.568029       -15.4569
  42   2.0000      -0.561496       -15.2791
  43   2.0000      -0.552961       -15.0468
  44   2.0000      -0.532994       -14.5035
  45   2.0000      -0.526674       -14.3315
  46   2.0000      -0.518379       -14.1058
  47   2.0000      -0.516757       -14.0617
  48   2.0000      -0.505054       -13.7432
  49   2.0000      -0.494395       -13.4532
  50   2.0000      -0.490287       -13.3414
  51   2.0000      -0.482596       -13.1321
  52   2.0000      -0.469326       -12.7710
  53   2.0000      -0.463681       -12.6174
  54   2.0000      -0.456624       -12.4254
  55   2.0000      -0.453107       -12.3297
  56   2.0000      -0.445917       -12.1340
  57   2.0000      -0.440251       -11.9798
  58   2.0000      -0.437293       -11.8993
  59   2.0000      -0.431700       -11.7472
  60   2.0000      -0.418560       -11.3896
  61   2.0000      -0.414188       -11.2706
  62   2.0000      -0.408178       -11.1071
  63   2.0000      -0.358096        -9.7443
  64   2.0000      -0.337679        -9.1887
  65   2.0000      -0.323279        -8.7969
  66   2.0000      -0.284572        -7.7436
  67   0.0000       0.023506         0.6396
  68   0.0000       0.072200         1.9647
  69   0.0000       0.098318         2.6754
  70   0.0000       0.116732         3.1764
  71   0.0000       0.126385         3.4391

MULLIKEN ATOMIC CHARGES
-----------------------
   0 S :    0.091949
   1 C :   -0.118440
   2 C :   -0.106994
   3 C :   -0.009201
   4 C :   -0.098859
   5 H :    0.001543
   6 C :    0.125272
   7 H :    0.013726
   8 H :    0.008321
   9 C :   -0.101163
  10 H :    0.030473
  11 H :    0.030848
  12 C :   -0.020532
  13 H :    0.027968
  14 H :    0.019843
  15 H :    0.032303
  16 S :    0.116607
  17 C :   -0.110696
  18 C :   -0.030441
  19 C :   -0.014459
  20 C :   -0.162632
  21 H :    0.017964
  22 C :    0.011620
  23 H :    0.037974
  24 H :    0.035375
  25 C :   -0.085792
  26 H :    0.026622
  27 H :    0.027947
  28 C :   -0.047209
  29 H :    0.038405
  30 H :    0.043017
  31 H :    0.042606
  32 H :    0.055421
  33 H :    0.070616
Sum of atomic charges:   -0.0000000

LOEWDIN ATOMIC CHARGES
----------------------
   0 S :    0.388389
   1 C :   -0.202459
   2 C :   -0.055206
   3 C :   -0.075236
   4 C :   -0.185948
   5 H :    0.031635
   6 C :   -0.025536
   7 H :    0.021630
   8 H :    0.026360
   9 C :   -0.038183
  10 H :    0.022682
  11 H :    0.025550
  12 C :   -0.055179
  13 H :    0.028350
  14 H :    0.013177
  15 H :    0.027155
  16 S :    0.396231
  17 C :   -0.192677
  18 C :   -0.063136
  19 C :   -0.059242
  20 C :   -0.169022
  21 H :    0.031496
  22 C :   -0.043710
  23 H :    0.030749
  24 H :    0.041216
  25 C :   -0.048739
  26 H :    0.032160
  27 H :    0.013277
  28 C :   -0.071966
  29 H :    0.031855
  30 H :    0.032246
  31 H :    0.030238
  32 H :    0.025820
  33 H :    0.036023

  Mayer bond orders larger than 0.100000
B(  0-S ,  1-C ) :   1.1496 B(  0-S ,  4-C ) :   1.1223 B(  1-C ,  2-C ) :   1.5953
B(  1-C , 32-H ) :   0.9680 B(  2-C ,  3-C ) :   1.2315 B(  2-C ,  6-C ) :   1.0312
B(  3-C ,  4-C ) :   1.5975 B(  3-C ,  5-H ) :   0.9802 B(  4-C , 20-C ) :   1.0435
B(  6-C ,  7-H ) :   0.9386 B(  6-C ,  8-H ) :   0.9379 B(  6-C ,  9-C ) :   1.0496
B(  9-C , 10-H ) :   0.9617 B(  9-C , 11-H ) :   0.9586 B(  9-C , 12-C ) :   1.0776
B( 12-C , 13-H ) :   0.9750 B( 12-C , 14-H ) :   0.9775 B( 12-C , 15-H ) :   0.9735
B( 16-S , 17-C ) :   1.1388 B( 16-S , 20-C ) :   1.1502 B( 17-C , 18-C ) :   1.6226
B( 17-C , 33-H ) :   0.9614 B( 18-C , 19-C ) :   1.2375 B( 18-C , 21-H ) :   0.9869
B( 19-C , 20-C ) :   1.5811 B( 19-C , 22-C ) :   1.0612 B( 22-C , 23-H ) :   0.9222
B( 22-C , 24-H ) :   0.9375 B( 22-C , 25-C ) :   1.0433 B( 25-C , 26-H ) :   0.9502
B( 25-C , 27-H ) :   0.9501 B( 25-C , 28-C ) :   1.0845 B( 28-C , 29-H ) :   0.9717
B( 28-C , 30-H ) :   0.9698 B( 28-C , 31-H ) :   0.9739

Dispersion correction           -0.013870401
FINAL SINGLE POINT ENERGY     -1339.868223763433

DIPOLE MOMENT
-------------
                                X             Y             Z
Electronic contribution:     -4.54026      33.85995       5.37890
Nuclear contribution   :      4.82324     -34.60409      -5.61508
                        -----------------------------------------
Total Dipole Moment    :      0.28299      -0.74414      -0.23618
                        -----------------------------------------
Magnitude (a.u.)       :      0.83042
Magnitude (Debye)      :      2.11076

Rotational constants in cm-1:     0.016185     0.009649     0.006259
Rotational constants in MHz :   485.222721   289.259385   187.626806

                             ****ORCA TERMINATED NORMALLY****
TOTAL RUN TIME: 0 days 0 hours 0 minutes 20 seconds 260 msec
