                         Program Version 4.2.1 -  RELEASE  -
|  1> ! wB97X-D3 SP def2-SVP
|  2> %pal
|  3> nprocs 24
|  4> end
|  5>
|  6> * xyz 0 1
|  7> S 	 45.097 	 -16.1406 	 -108.887
|  8> C 	 44.1522 	 -15.9742 	 -110.312
|  9> C 	 44.2233 	 -14.7094 	 -110.781
| 10> C 	 44.953 	 -13.8502 	 -109.896
| 11> C 	 45.2287 	 -14.3572 	 -108.673
| 12> H 	 45.156 	 -12.7822 	 -110.038
| 13> C 	 43.7056 	 -14.2058 	 -112.141
| 14> H 	 43.5559 	 -14.9743 	 -112.87
| 15> H 	 44.5449 	 -13.5852 	 -112.419
| 16> C 	 42.4292 	 -13.3001 	 -112.124
| 17> H 	 41.5927 	 -13.8409 	 -111.663
| 18> H 	 42.5298 	 -12.3432 	 -111.618
| 19> C 	 42.0287 	 -12.8277 	 -113.523
| 20> H 	 41.7939 	 -13.5787 	 -114.241
| 21> H 	 41.2335 	 -12.0689 	 -113.54
| 22> H 	 42.8424 	 -12.2019 	 -114.052
| 23> S 	 45.4472 	 -14.1314 	 -106.006
| 24> C 	 46.5786 	 -13.0889 	 -105.249
| 25> C 	 47.3401 	 -12.3949 	 -106.163
| 26> C 	 46.9583 	 -12.7615 	 -107.532
| 27> C 	 45.9348 	 -13.738 	 -107.526
| 28> H 	 48.1278 	 -11.7548 	 -105.691
| 29> C 	 47.6631 	 -12.2849 	 -108.797
| 30> H 	 46.9203 	 -11.5615 	 -109.208
| 31> H 	 47.7904 	 -13.1366 	 -109.467
| 32> C 	 48.9978 	 -11.4661 	 -108.669
| 33> H 	 48.792 	 -10.5781 	 -108.07
| 34> H 	 49.301 	 -11.098 	 -109.701
| 35> C 	 50.2104 	 -12.2663 	 -108.089
| 36> H 	 51.1366 	 -11.719 	 -108.295
| 37> H 	 50.3354 	 -13.2209 	 -108.615
| 38> H 	 50.2336 	 -12.4124 	 -107.032
| 39> H 	 43.6549 	 -16.7842 	 -110.89
| 40> H 	 46.7661 	 -12.9749 	 -104.225
| 41> *
| 42>
| 43>                          ****END OF INPUT****

CARTESIAN COORDINATES (ANGSTROEM)
---------------------------------
  S     45.097000  -16.140600  -108.887000
  C     44.152200  -15.974200  -110.312000
  C     44.223300  -14.709400  -110.781000
  C     44.953000  -13.850200  -109.896000
  C     45.228700  -14.357200  -108.673000
  H     45.156000  -12.782200  -110.038000
  C     43.705600  -14.205800  -112.141000
  H     43.555900  -14.974300  -112.870000
  H     44.544900  -13.585200  -112.419000
  C     42.429200  -13.300100  -112.124000
  H     41.592700  -13.840900  -111.663000
  H     42.529800  -12.343200  -111.618000
  C     42.028700  -12.827700  -113.523000
  H     41.793900  -13.578700  -114.241000
  H     41.233500  -12.068900  -113.540000
  H     42.842400  -12.201900  -114.052000
  S     45.447200  -14.131400  -106.006000
  C     46.578600  -13.088900  -105.249000
  C     47.340100  -12.394900  -106.163000
  C     46.958300  -12.761500  -107.532000
  C     45.934800  -13.738000  -107.526000
  H     48.127800  -11.754800  -105.691000
  C     47.663100  -12.284900  -108.797000
  H     46.920300  -11.561500  -109.208000
  H     47.790400  -13.136600  -109.467000
  C     48.997800  -11.466100  -108.669000
  H     48.792000  -10.578100  -108.070000
  H     49.301000  -11.098000  -109.701000
  C     50.210400  -12.266300  -108.089000
  H     51.136600  -11.719000  -108.295000
  H     50.335400  -13.220900  -108.615000
  H     50.233600  -12.412400  -107.032000
  H     43.654900  -16.784200  -110.890000
  H     46.766100  -12.974900  -104.225000

 Total Charge           Charge          ....    0
 Multiplicity           Mult            ....    1
 Number of Electrons    NEL             ....  134
 Basis Dimension        Dim             ....  322

ORBITAL ENERGIES
----------------

  NO   OCC          E(Eh)            E(eV)
   0   2.0000     -88.966263     -2420.8951
   1   2.0000     -88.958591     -2420.6863
   2   2.0000     -10.330940      -281.1192
   3   2.0000     -10.323245      -280.9098
   4   2.0000     -10.312075      -280.6058
   5   2.0000     -10.310980      -280.5760
   6   2.0000     -10.308602      -280.5113
   7   2.0000     -10.300959      -280.3033
   8   2.0000     -10.298904      -280.2474
   9   2.0000     -10.298211      -280.2286
  10   2.0000     -10.297514      -280.2096
  11   2.0000     -10.294610      -280.1306
  12   2.0000     -10.292436      -280.0714
  13   2.0000     -10.290029      -280.0059
  14   2.0000     -10.281624      -279.7772
  15   2.0000     -10.277556      -279.6665
  16   2.0000      -8.083469      -219.9624
  17   2.0000      -8.073607      -219.6940
  18   2.0000      -6.041679      -164.4024
  19   2.0000      -6.037439      -164.2871
  20   2.0000      -6.034577      -164.2092
  21   2.0000      -6.032247      -164.1458
  22   2.0000      -6.028342      -164.0395
  23   2.0000      -6.023910      -163.9189
  24   2.0000      -1.015920       -27.6446
  25   2.0000      -0.992877       -27.0176
  26   2.0000      -0.905566       -24.6417
  27   2.0000      -0.902257       -24.5517
  28   2.0000      -0.874409       -23.7939
  29   2.0000      -0.848255       -23.0822
  30   2.0000      -0.842644       -22.9295
  31   2.0000      -0.823035       -22.3959
  32   2.0000      -0.781448       -21.2643
  33   2.0000      -0.770853       -20.9760
  34   2.0000      -0.707374       -19.2486
  35   2.0000      -0.699180       -19.0257
  36   2.0000      -0.696162       -18.9435
  37   2.0000      -0.653746       -17.7893
  38   2.0000      -0.637467       -17.3464
  39   2.0000      -0.624378       -16.9902
  40   2.0000      -0.592999       -16.1363
  41   2.0000      -0.568804       -15.4780
  42   2.0000      -0.562862       -15.3163
  43   2.0000      -0.552354       -15.0303
  44   2.0000      -0.531400       -14.4601
  45   2.0000      -0.526036       -14.3142
  46   2.0000      -0.514462       -13.9992
  47   2.0000      -0.510505       -13.8915
  48   2.0000      -0.507452       -13.8085
  49   2.0000      -0.500538       -13.6203
  50   2.0000      -0.490898       -13.3580
  51   2.0000      -0.480099       -13.0642
  52   2.0000      -0.473646       -12.8886
  53   2.0000      -0.470591       -12.8054
  54   2.0000      -0.460551       -12.5322
  55   2.0000      -0.445887       -12.1332
  56   2.0000      -0.442480       -12.0405
  57   2.0000      -0.437016       -11.8918
  58   2.0000      -0.433886       -11.8066
  59   2.0000      -0.422068       -11.4851
  60   2.0000      -0.419872       -11.4253
  61   2.0000      -0.418573       -11.3900
  62   2.0000      -0.411168       -11.1884
  63   2.0000      -0.354176        -9.6376
  64   2.0000      -0.328391        -8.9360
  65   2.0000      -0.323378        -8.7996
  66   2.0000      -0.294204        -8.0057
  67   0.0000       0.031688         0.8623
  68   0.0000       0.078763         2.1432
  69   0.0000       0.109682         2.9846
  70   0.0000       0.125907         3.4261
  71   0.0000       0.136492         3.7141

MULLIKEN ATOMIC CHARGES
-----------------------
   0 S :    0.081646
   1 C :   -0.121129
   2 C :   -0.075094
   3 C :   -0.008424
   4 C :   -0.103518
   5 H :    0.013827
   6 C :    0.083182
   7 H :    0.017767
   8 H :    0.024904
   9 C :   -0.052983
  10 H :    0.037682
  11 H :    0.031575
  12 C :   -0.084664
  13 H :    0.026554
  14 H :    0.033269
  15 H :    0.024661
  16 S :    0.140760
  17 C :   -0.076488
  18 C :   -0.072470
  19 C :   -0.039278
  20 C :   -0.169828
  21 H :    0.041040
  22 C :    0.015480
  23 H :    0.052544
  24 H :    0.051284
  25 C :   -0.077254
  26 H :    0.030937
  27 H :    0.040415
  28 C :   -0.049039
  29 H :    0.027569
  30 H :    0.034736
  31 H :    0.030650
  32 H :    0.058147
  33 H :    0.031541
Sum of atomic charges:    0.0000000

LOEWDIN ATOMIC CHARGES
----------------------
   0 S :    0.379795
   1 C :   -0.204837
   2 C :   -0.072005
   3 C :   -0.066219
   4 C :   -0.172251
   5 H :    0.031251
   6 C :   -0.023000
   7 H :    0.025505
   8 H :    0.033876
   9 C :   -0.040427
  10 H :    0.026754
  11 H :    0.027409
  12 C :   -0.077109
  13 H :    0.015063
  14 H :    0.027401
  15 H :    0.030681
  16 S :    0.476811
  17 C :   -0.198024
  18 C :   -0.079875
  19 C :   -0.053060
  20 C :   -0.245154
  21 H :    0.043817
  22 C :   -0.040580
  23 H :    0.038955
  24 H :    0.033695
  25 C :   -0.040992
  26 H :    0.022212
  27 H :    0.034485
  28 C :   -0.069770
  29 H :    0.027574
  30 H :    0.028789
  31 H :    0.018808
  32 H :    0.040566
  33 H :    0.019855

  Mayer bond orders larger than 0.100000
B(  0-S ,  1-C ) :   1.1299 B(  0-S ,  4-C ) :   1.1247 B(  1-C ,  2-C ) :   1.6370
B(  1-C , 32-H ) :   0.9632 B(  2-C ,  3-C ) :   1.2130 B(  2-C ,  6-C ) :   1.0142
B(  3-C ,  4-C ) :   1.6187 B(  3-C ,  5-H ) :   0.9920 B(  4-C , 20-C ) :   1.0258
B(  6-C ,  7-H ) :   0.9493 B(  6-C ,  8-H ) :   0.9368 B(  6-C ,  9-C ) :   1.0619
B(  9-C , 10-H ) :   0.9566 B(  9-C , 11-H ) :   0.9559 B(  9-C , 12-C ) :   1.0775
B( 12-C , 13-H ) :   0.9768 B( 12-C , 14-H ) :   0.9751 B( 12-C , 15-H ) :   0.9723
B( 16-S , 17-C ) :   1.1773 B( 16-S , 20-C ) :   1.1852 B( 17-C , 18-C ) :   1.6071
B( 17-C , 33-H ) :   0.9697 B( 18-C , 19-C ) :   1.2482 B( 18-C , 21-H ) :   0.9824
B( 19-C , 20-C ) :   1.5484 B( 19-C , 22-C ) :   1.0177 B( 22-C , 23-H ) :   0.9259
B( 22-C , 24-H ) :   0.9436 B( 22-C , 25-C ) :   1.0852 B( 25-C , 26-H ) :   0.9503
B( 25-C , 27-H ) :   0.9559 B( 25-C , 28-C ) :   1.0736 B( 28-C , 29-H ) :   0.9748
B( 28-C , 30-H ) :   0.9750 B( 28-C , 31-H ) :   0.9773

Dispersion correction           -0.013748591
FINAL SINGLE POINT ENERGY     -1339.867402485468

DIPOLE MOMENT
-------------
                                X             Y             Z
Electronic contribution:     -4.34945     -15.96070      20.67202
Nuclear contribution   :      4.60816      16.49163     -21.07020
                        -----------------------------------------
Total Dipole Moment    :      0.25870       0.53093      -0.39819
                        -----------------------------------------
Magnitude (a.u.)       :      0.71229
Magnitude (Debye)      :      1.81051

Rotational constants in cm-1:     0.019233     0.007516     0.006320
Rotational constants in MHz :   576.578055   225.317674   189.458078

                             ****ORCA TERMINATED NORMALLY****
TOTAL RUN TIME: 0 days 0 hours 0 minutes 21 seconds 40 msec
