                         Program Version 4.2.1 -  RELEASE  -
|  1> ! wB97X-D3 SP def2-SVP
|  2> %pal
|  3> nprocs 24
|  4> end
|  5>
|  6> * xyz 0 1
|  7> S 	 -44.6807 	 11.3727 	 25.723
|  8> C 	 -44.2835 	 12.6689 	 26.8608
|  9> C 	 -45.2687 	 13.0173 	 27.716
| 10> C 	 -46.4121 	 12.1029 	 27.5765
| 11> C 	 -46.2401 	 11.1614 	 26.5229
| 12> H 	 -47.3448 	 12.0067 	 28.2239
| 13> C 	 -45.1858 	 13.8928 	 28.9779
| 14> H 	 -44.206 	 14.404 	 28.9038
| 15> H 	 -45.0834 	 13.2786 	 29.7983
| 16> C 	 -46.3823 	 14.7708 	 29.173
| 17> H 	 -47.3308 	 14.1889 	 28.9942
| 18> H 	 -46.4548 	 15.0809 	 30.234
| 19> C 	 -46.5205 	 16.1352 	 28.5541
| 20> H 	 -47.4253 	 16.5977 	 28.9341
| 21> H 	 -45.7722 	 16.8302 	 28.9035
| 22> H 	 -46.671 	 16.1934 	 27.4611
| 23> S 	 -46.3947 	 8.5396 	 25.7433
| 24> C 	 -47.9002 	 7.76477 	 25.4951
| 25> C 	 -48.9165 	 8.62022 	 25.7878
| 26> C 	 -48.547 	 9.89574 	 26.257
| 27> C 	 -47.1751 	 10.0675 	 26.1303
| 28> H 	 -49.9518 	 8.28871 	 25.429
| 29> C 	 -49.6645 	 10.9253 	 26.4376
| 30> H 	 -50.306 	 10.9142 	 25.5392
| 31> H 	 -49.1218 	 11.8987 	 26.4696
| 32> C 	 -50.6834 	 10.7241 	 27.534
| 33> H 	 -51.4086 	 9.95944 	 27.2851
| 34> H 	 -51.2239 	 11.6278 	 27.6363
| 35> C 	 -49.8829 	 10.3977 	 28.8556
| 36> H 	 -50.4347 	 10.3477 	 29.7429
| 37> H 	 -49.1039 	 11.1001 	 29.0256
| 38> H 	 -49.5607 	 9.34367 	 28.934
| 39> H 	 -43.3833 	 13.2657 	 26.9262
| 40> H 	 -48.0701 	 6.75879 	 25.161
| 41> *
| 42>
| 43>                          ****END OF INPUT****

CARTESIAN COORDINATES (ANGSTROEM)
---------------------------------
  S    -44.680700   11.372700   25.723000
  C    -44.283500   12.668900   26.860800
  C    -45.268700   13.017300   27.716000
  C    -46.412100   12.102900   27.576500
  C    -46.240100   11.161400   26.522900
  H    -47.344800   12.006700   28.223900
  C    -45.185800   13.892800   28.977900
  H    -44.206000   14.404000   28.903800
  H    -45.083400   13.278600   29.798300
  C    -46.382300   14.770800   29.173000
  H    -47.330800   14.188900   28.994200
  H    -46.454800   15.080900   30.234000
  C    -46.520500   16.135200   28.554100
  H    -47.425300   16.597700   28.934100
  H    -45.772200   16.830200   28.903500
  H    -46.671000   16.193400   27.461100
  S    -46.394700    8.539600   25.743300
  C    -47.900200    7.764770   25.495100
  C    -48.916500    8.620220   25.787800
  C    -48.547000    9.895740   26.257000
  C    -47.175100   10.067500   26.130300
  H    -49.951800    8.288710   25.429000
  C    -49.664500   10.925300   26.437600
  H    -50.306000   10.914200   25.539200
  H    -49.121800   11.898700   26.469600
  C    -50.683400   10.724100   27.534000
  H    -51.408600    9.959440   27.285100
  H    -51.223900   11.627800   27.636300
  C    -49.882900   10.397700   28.855600
  H    -50.434700   10.347700   29.742900
  H    -49.103900   11.100100   29.025600
  H    -49.560700    9.343670   28.934000
  H    -43.383300   13.265700   26.926200
  H    -48.070100    6.758790   25.161000

 Total Charge           Charge          ....    0
 Multiplicity           Mult            ....    1
 Number of Electrons    NEL             ....  134
 Basis Dimension        Dim             ....  322

ORBITAL ENERGIES
----------------

  NO   OCC          E(Eh)            E(eV)
   0   2.0000     -88.970129     -2421.0003
   1   2.0000     -88.963934     -2420.8317
   2   2.0000     -10.337371      -281.2942
   3   2.0000     -10.331618      -281.1376
   4   2.0000     -10.312243      -280.6104
   5   2.0000     -10.309817      -280.5444
   6   2.0000     -10.304200      -280.3915
   7   2.0000     -10.302752      -280.3521
   8   2.0000     -10.301913      -280.3293
   9   2.0000     -10.293816      -280.1090
  10   2.0000     -10.291629      -280.0495
  11   2.0000     -10.291026      -280.0331
  12   2.0000     -10.289567      -279.9934
  13   2.0000     -10.288174      -279.9554
  14   2.0000     -10.275213      -279.6027
  15   2.0000     -10.272199      -279.5208
  16   2.0000      -8.084013      -219.9772
  17   2.0000      -8.079367      -219.8507
  18   2.0000      -6.042753      -164.4317
  19   2.0000      -6.038753      -164.3228
  20   2.0000      -6.037844      -164.2981
  21   2.0000      -6.034462      -164.2060
  22   2.0000      -6.033750      -164.1867
  23   2.0000      -6.030142      -164.0885
  24   2.0000      -1.007115       -27.4050
  25   2.0000      -0.982554       -26.7366
  26   2.0000      -0.915933       -24.9238
  27   2.0000      -0.912127       -24.8202
  28   2.0000      -0.869098       -23.6494
  29   2.0000      -0.849245       -23.1091
  30   2.0000      -0.842499       -22.9255
  31   2.0000      -0.810081       -22.0434
  32   2.0000      -0.789698       -21.4888
  33   2.0000      -0.783197       -21.3119
  34   2.0000      -0.714434       -19.4407
  35   2.0000      -0.698511       -19.0074
  36   2.0000      -0.689832       -18.7713
  37   2.0000      -0.655011       -17.8238
  38   2.0000      -0.632512       -17.2115
  39   2.0000      -0.615099       -16.7377
  40   2.0000      -0.593340       -16.1456
  41   2.0000      -0.569594       -15.4994
  42   2.0000      -0.561133       -15.2692
  43   2.0000      -0.551447       -15.0056
  44   2.0000      -0.541743       -14.7416
  45   2.0000      -0.540537       -14.7088
  46   2.0000      -0.520179       -14.1548
  47   2.0000      -0.516139       -14.0449
  48   2.0000      -0.497910       -13.5488
  49   2.0000      -0.496136       -13.5005
  50   2.0000      -0.486784       -13.2461
  51   2.0000      -0.479394       -13.0450
  52   2.0000      -0.474244       -12.9048
  53   2.0000      -0.464236       -12.6325
  54   2.0000      -0.459655       -12.5078
  55   2.0000      -0.446792       -12.1578
  56   2.0000      -0.439792       -11.9673
  57   2.0000      -0.436351       -11.8737
  58   2.0000      -0.431709       -11.7474
  59   2.0000      -0.422428       -11.4948
  60   2.0000      -0.422115       -11.4863
  61   2.0000      -0.414088       -11.2679
  62   2.0000      -0.408172       -11.1069
  63   2.0000      -0.355354        -9.6697
  64   2.0000      -0.331039        -9.0080
  65   2.0000      -0.330134        -8.9834
  66   2.0000      -0.288276        -7.8444
  67   0.0000       0.026240         0.7140
  68   0.0000       0.080657         2.1948
  69   0.0000       0.108237         2.9453
  70   0.0000       0.116742         3.1767
  71   0.0000       0.126846         3.4517

MULLIKEN ATOMIC CHARGES
-----------------------
   0 S :    0.112617
   1 C :   -0.112069
   2 C :   -0.082901
   3 C :   -0.018686
   4 C :   -0.141133
   5 H :    0.029481
   6 C :    0.134825
   7 H :    0.011823
   8 H :    0.025046
   9 C :   -0.120009
  10 H :    0.033794
  11 H :    0.024720
  12 C :   -0.031918
  13 H :    0.017862
  14 H :    0.025232
  15 H :    0.038034
  16 S :    0.097947
  17 C :   -0.082346
  18 C :   -0.071972
  19 C :   -0.020226
  20 C :   -0.138698
  21 H :    0.041506
  22 C :    0.006696
  23 H :    0.036554
  24 H :    0.032576
  25 C :   -0.021084
  26 H :    0.030078
  27 H :    0.027546
  28 C :   -0.036549
  29 H :    0.004654
  30 H :    0.018592
  31 H :    0.039831
  32 H :    0.038635
  33 H :    0.049541
Sum of atomic charges:    0.0000000

LOEWDIN ATOMIC CHARGES
----------------------
   0 S :    0.388575
   1 C :   -0.193441
   2 C :   -0.062311
   3 C :   -0.074851
   4 C :   -0.186261
   5 H :    0.036117
   6 C :   -0.022024
   7 H :    0.032207
   8 H :    0.028296
   9 C :   -0.053005
  10 H :    0.030262
  11 H :    0.031097
  12 C :   -0.068153
  13 H :    0.027725
  14 H :    0.023107
  15 H :    0.025116
  16 S :    0.414864
  17 C :   -0.197486
  18 C :   -0.082736
  19 C :   -0.062547
  20 C :   -0.190266
  21 H :    0.041765
  22 C :   -0.034254
  23 H :    0.036241
  24 H :    0.032160
  25 C :   -0.029845
  26 H :    0.023783
  27 H :    0.023975
  28 C :   -0.068367
  29 H :    0.016639
  30 H :    0.016979
  31 H :    0.037211
  32 H :    0.029688
  33 H :    0.029738

  Mayer bond orders larger than 0.100000
B(  0-S ,  1-C ) :   1.1079 B(  0-S ,  4-C ) :   1.1372 B(  1-C ,  2-C ) :   1.6901
B(  1-C , 32-H ) :   0.9541 B(  2-C ,  3-C ) :   1.1879 B(  2-C ,  6-C ) :   1.0164
B(  3-C ,  4-C ) :   1.6184 B(  3-C ,  5-H ) :   0.9671 B(  4-C , 20-C ) :   1.0276
B(  6-C ,  7-H ) :   0.9391 B(  6-C ,  8-H ) :   0.9382 B(  6-C ,  9-C ) :   1.0620
B(  9-C , 10-H ) :   0.9543 B(  9-C , 11-H ) :   0.9524 B(  9-C , 12-C ) :   1.0935
B( 12-C , 13-H ) :   0.9684 B( 12-C , 14-H ) :   0.9719 B( 12-C , 15-H ) :   0.9727
B( 16-S , 17-C ) :   1.1529 B( 16-S , 20-C ) :   1.1488 B( 17-C , 18-C ) :   1.6303
B( 17-C , 33-H ) :   0.9681 B( 18-C , 19-C ) :   1.2327 B( 18-C , 21-H ) :   0.9744
B( 19-C , 20-C ) :   1.5973 B( 19-C , 22-C ) :   1.0318 B( 22-C , 23-H ) :   0.9447
B( 22-C , 24-H ) :   0.9434 B( 22-C , 25-C ) :   1.0728 B( 25-C , 26-H ) :   0.9527
B( 25-C , 27-H ) :   0.9545 B( 25-C , 28-C ) :   1.0758 B( 28-C , 29-H ) :   0.9654
B( 28-C , 30-H ) :   0.9788 B( 28-C , 31-H ) :   0.9643

Dispersion correction           -0.014525186
FINAL SINGLE POINT ENERGY     -1339.856569565675

DIPOLE MOMENT
-------------
                                X             Y             Z
Electronic contribution:     16.42330     -18.71281     -17.25572
Nuclear contribution   :    -16.96896      18.94884      17.72283
                        -----------------------------------------
Total Dipole Moment    :     -0.54567       0.23603       0.46711
                        -----------------------------------------
Magnitude (a.u.)       :      0.75608
Magnitude (Debye)      :      1.92180

Rotational constants in cm-1:     0.018454     0.009482     0.006740
Rotational constants in MHz :   553.238525   284.250924   202.056367

                             ****ORCA TERMINATED NORMALLY****
TOTAL RUN TIME: 0 days 0 hours 0 minutes 22 seconds 8 msec
