                         Program Version 4.2.1 -  RELEASE  -
|  1> ! wB97X-D3 SP def2-SVP
|  2> %pal
|  3> nprocs 24
|  4> end
|  5>
|  6> * xyz 0 1
|  7> S 	 -102.265 	 22.5567 	 -121.034
|  8> C 	 -101.312 	 23.1928 	 -119.66
|  9> C 	 -101.756 	 22.5906 	 -118.497
| 10> C 	 -102.847 	 21.7194 	 -118.673
| 11> C 	 -103.152 	 21.471 	 -119.991
| 12> H 	 -103.337 	 21.0665 	 -117.955
| 13> C 	 -101.121 	 22.8525 	 -117.158
| 14> H 	 -101.812 	 22.3456 	 -116.49
| 15> H 	 -101.271 	 23.9341 	 -116.955
| 16> C 	 -99.6627 	 22.3754 	 -117.061
| 17> H 	 -99.0895 	 22.8923 	 -117.905
| 18> H 	 -99.2512 	 22.4407 	 -116.044
| 19> C 	 -99.5361 	 20.8225 	 -117.226
| 20> H 	 -98.5799 	 20.4308 	 -116.98
| 21> H 	 -100.204 	 20.3659 	 -116.497
| 22> H 	 -99.6488 	 20.4849 	 -118.33
| 23> S 	 -105.731 	 20.6576 	 -120.493
| 24> C 	 -106.048 	 19.0216 	 -121.025
| 25> C 	 -104.902 	 18.259 	 -121.018
| 26> C 	 -103.762 	 19.0231 	 -120.713
| 27> C 	 -104.009 	 20.3535 	 -120.499
| 28> H 	 -104.925 	 17.2254 	 -121.375
| 29> C 	 -102.403 	 18.3722 	 -120.645
| 30> H 	 -101.667 	 19.2165 	 -120.792
| 31> H 	 -102.33 	 17.7606 	 -121.532
| 32> C 	 -102.172 	 17.6206 	 -119.363
| 33> H 	 -102.909 	 16.8098 	 -119.324
| 34> H 	 -102.345 	 18.266 	 -118.452
| 35> C 	 -100.791 	 16.9877 	 -119.181
| 36> H 	 -100.621 	 16.6942 	 -118.206
| 37> H 	 -100.004 	 17.7395 	 -119.386
| 38> H 	 -100.586 	 16.0959 	 -119.801
| 39> H 	 -100.587 	 23.9126 	 -119.76
| 40> H 	 -107.04 	 18.6103 	 -121.4
| 41> *
| 42>
| 43>                          ****END OF INPUT****

CARTESIAN COORDINATES (ANGSTROEM)
---------------------------------
  S    -102.265000   22.556700  -121.034000
  C    -101.312000   23.192800  -119.660000
  C    -101.756000   22.590600  -118.497000
  C    -102.847000   21.719400  -118.673000
  C    -103.152000   21.471000  -119.991000
  H    -103.337000   21.066500  -117.955000
  C    -101.121000   22.852500  -117.158000
  H    -101.812000   22.345600  -116.490000
  H    -101.271000   23.934100  -116.955000
  C    -99.662700   22.375400  -117.061000
  H    -99.089500   22.892300  -117.905000
  H    -99.251200   22.440700  -116.044000
  C    -99.536100   20.822500  -117.226000
  H    -98.579900   20.430800  -116.980000
  H    -100.204000   20.365900  -116.497000
  H    -99.648800   20.484900  -118.330000
  S    -105.731000   20.657600  -120.493000
  C    -106.048000   19.021600  -121.025000
  C    -104.902000   18.259000  -121.018000
  C    -103.762000   19.023100  -120.713000
  C    -104.009000   20.353500  -120.499000
  H    -104.925000   17.225400  -121.375000
  C    -102.403000   18.372200  -120.645000
  H    -101.667000   19.216500  -120.792000
  H    -102.330000   17.760600  -121.532000
  C    -102.172000   17.620600  -119.363000
  H    -102.909000   16.809800  -119.324000
  H    -102.345000   18.266000  -118.452000
  C    -100.791000   16.987700  -119.181000
  H    -100.621000   16.694200  -118.206000
  H    -100.004000   17.739500  -119.386000
  H    -100.586000   16.095900  -119.801000
  H    -100.587000   23.912600  -119.760000
  H    -107.040000   18.610300  -121.400000

 Total Charge           Charge          ....    0
 Multiplicity           Mult            ....    1
 Number of Electrons    NEL             ....  134
 Basis Dimension        Dim             ....  322

ORBITAL ENERGIES
----------------

  NO   OCC          E(Eh)            E(eV)
   0   2.0000     -88.965154     -2420.8649
   1   2.0000     -88.964097     -2420.8362
   2   2.0000     -10.330268      -281.1009
   3   2.0000     -10.324610      -280.9469
   4   2.0000     -10.321661      -280.8667
   5   2.0000     -10.311283      -280.5843
   6   2.0000     -10.299436      -280.2619
   7   2.0000     -10.299340      -280.2593
   8   2.0000     -10.298228      -280.2290
   9   2.0000     -10.292645      -280.0771
  10   2.0000     -10.291898      -280.0568
  11   2.0000     -10.291113      -280.0354
  12   2.0000     -10.288112      -279.9538
  13   2.0000     -10.288006      -279.9509
  14   2.0000     -10.282228      -279.7936
  15   2.0000     -10.272340      -279.5246
  16   2.0000      -8.079163      -219.8452
  17   2.0000      -8.078943      -219.8392
  18   2.0000      -6.037584      -164.2910
  19   2.0000      -6.037394      -164.2858
  20   2.0000      -6.033643      -164.1838
  21   2.0000      -6.033440      -164.1782
  22   2.0000      -6.030181      -164.0896
  23   2.0000      -6.029744      -164.0777
  24   2.0000      -1.007074       -27.4039
  25   2.0000      -0.986886       -26.8545
  26   2.0000      -0.910976       -24.7889
  27   2.0000      -0.909731       -24.7550
  28   2.0000      -0.864513       -23.5246
  29   2.0000      -0.850823       -23.1521
  30   2.0000      -0.845604       -23.0101
  31   2.0000      -0.816192       -22.2097
  32   2.0000      -0.782229       -21.2855
  33   2.0000      -0.771619       -20.9968
  34   2.0000      -0.705899       -19.2085
  35   2.0000      -0.697186       -18.9714
  36   2.0000      -0.689618       -18.7655
  37   2.0000      -0.661186       -17.9918
  38   2.0000      -0.646831       -17.6012
  39   2.0000      -0.608621       -16.5614
  40   2.0000      -0.589752       -16.0480
  41   2.0000      -0.577313       -15.7095
  42   2.0000      -0.562982       -15.3195
  43   2.0000      -0.549088       -14.9414
  44   2.0000      -0.544336       -14.8121
  45   2.0000      -0.526051       -14.3146
  46   2.0000      -0.521350       -14.1867
  47   2.0000      -0.513326       -13.9683
  48   2.0000      -0.510454       -13.8902
  49   2.0000      -0.497613       -13.5407
  50   2.0000      -0.482142       -13.1198
  51   2.0000      -0.475602       -12.9418
  52   2.0000      -0.467154       -12.7119
  53   2.0000      -0.463533       -12.6134
  54   2.0000      -0.458025       -12.4635
  55   2.0000      -0.447791       -12.1850
  56   2.0000      -0.443267       -12.0619
  57   2.0000      -0.441233       -12.0066
  58   2.0000      -0.433680       -11.8010
  59   2.0000      -0.417646       -11.3647
  60   2.0000      -0.417466       -11.3598
  61   2.0000      -0.413831       -11.2609
  62   2.0000      -0.407374       -11.0852
  63   2.0000      -0.337426        -9.1818
  64   2.0000      -0.331813        -9.0291
  65   2.0000      -0.321262        -8.7420
  66   2.0000      -0.311038        -8.4638
  67   0.0000       0.044350         1.2068
  68   0.0000       0.051054         1.3892
  69   0.0000       0.117103         3.1865
  70   0.0000       0.123529         3.3614
  71   0.0000       0.126464         3.4413

MULLIKEN ATOMIC CHARGES
-----------------------
   0 S :    0.105397
   1 C :   -0.102072
   2 C :   -0.109694
   3 C :    0.071067
   4 C :   -0.188759
   5 H :    0.017033
   6 C :    0.086266
   7 H :    0.008632
   8 H :    0.047532
   9 C :   -0.077916
  10 H :    0.048118
  11 H :    0.042248
  12 C :   -0.085581
  13 H :    0.022788
  14 H :    0.029869
  15 H :    0.057861
  16 S :    0.108811
  17 C :   -0.113063
  18 C :   -0.043766
  19 C :   -0.023406
  20 C :   -0.187451
  21 H :    0.026691
  22 C :    0.087488
  23 H :    0.028180
  24 H :    0.021309
  25 C :   -0.091117
  26 H :    0.022490
  27 H :    0.037262
  28 C :   -0.009611
  29 H :    0.012416
  30 H :    0.025021
  31 H :    0.030233
  32 H :    0.018328
  33 H :    0.077396
Sum of atomic charges:    0.0000000

LOEWDIN ATOMIC CHARGES
----------------------
   0 S :    0.395748
   1 C :   -0.173911
   2 C :   -0.062538
   3 C :   -0.065495
   4 C :   -0.196796
   5 H :    0.034498
   6 C :   -0.036340
   7 H :    0.025731
   8 H :    0.038257
   9 C :   -0.041726
  10 H :    0.032737
  11 H :    0.030261
  12 C :   -0.072797
  13 H :    0.017510
  14 H :    0.023728
  15 H :    0.035656
  16 S :    0.408929
  17 C :   -0.190384
  18 C :   -0.080208
  19 C :   -0.054709
  20 C :   -0.206627
  21 H :    0.036360
  22 C :   -0.032388
  23 H :    0.033840
  24 H :    0.028630
  25 C :   -0.042967
  26 H :    0.022884
  27 H :    0.032669
  28 C :   -0.063095
  29 H :    0.015363
  30 H :    0.027102
  31 H :    0.026376
  32 H :    0.009748
  33 H :    0.043955

  Mayer bond orders larger than 0.100000
B(  0-S ,  1-C ) :   1.1348 B(  0-S ,  4-C ) :   1.1662 B(  1-C ,  2-C ) :   1.5854
B(  1-C ,  4-C ) :   0.1042 B(  1-C , 32-H ) :   0.9892 B(  2-C ,  3-C ) :   1.2518
B(  2-C ,  6-C ) :   1.0008 B(  3-C ,  4-C ) :   1.5861 B(  3-C ,  5-H ) :   0.9876
B(  4-C , 20-C ) :   0.9753 B(  6-C ,  7-H ) :   0.9422 B(  6-C ,  8-H ) :   0.9401
B(  6-C ,  9-C ) :   1.0640 B(  9-C , 10-H ) :   0.9570 B(  9-C , 11-H ) :   0.9591
B(  9-C , 12-C ) :   1.0647 B( 12-C , 13-H ) :   0.9772 B( 12-C , 14-H ) :   0.9753
B( 12-C , 15-H ) :   0.9712 B( 16-S , 17-C ) :   1.1655 B( 16-S , 20-C ) :   1.1439
B( 17-C , 18-C ) :   1.6057 B( 17-C , 33-H ) :   0.9566 B( 18-C , 19-C ) :   1.2449
B( 18-C , 21-H ) :   0.9871 B( 19-C , 20-C ) :   1.6269 B( 19-C , 22-C ) :   1.0370
B( 22-C , 23-H ) :   0.9269 B( 22-C , 24-H ) :   0.9322 B( 22-C , 25-C ) :   1.0709
B( 25-C , 26-H ) :   0.9516 B( 25-C , 27-H ) :   0.9517 B( 25-C , 28-C ) :   1.0920
B( 28-C , 29-H ) :   0.9725 B( 28-C , 30-H ) :   0.9715 B( 28-C , 31-H ) :   0.9727

Dispersion correction           -0.015861283
FINAL SINGLE POINT ENERGY     -1339.877097467093

DIPOLE MOMENT
-------------
                                X             Y             Z
Electronic contribution:    -21.29689      13.57630     -15.28061
Nuclear contribution   :     21.66764     -14.00952      15.69523
                        -----------------------------------------
Total Dipole Moment    :      0.37075      -0.43321       0.41462
                        -----------------------------------------
Magnitude (a.u.)       :      0.70501
Magnitude (Debye)      :      1.79200

Rotational constants in cm-1:     0.017884     0.010169     0.007527
Rotational constants in MHz :   536.151221   304.872312   225.665647

                             ****ORCA TERMINATED NORMALLY****
TOTAL RUN TIME: 0 days 0 hours 0 minutes 22 seconds 964 msec
