                         Program Version 4.2.1 -  RELEASE  -
|  1> ! wB97X-D3 SP def2-SVP
|  2> %pal
|  3> nprocs 24
|  4> end
|  5>
|  6> * xyz 0 1
|  7> S 	 -12.1708 	 -30.8759 	 -105.684
|  8> C 	 -12.3561 	 -30.1394 	 -104.028
|  9> C 	 -13.5814 	 -30.5256 	 -103.455
| 10> C 	 -14.3268 	 -31.4467 	 -104.256
| 11> C 	 -13.6626 	 -31.887 	 -105.42
| 12> H 	 -15.2284 	 -31.9136 	 -103.928
| 13> C 	 -14.0937 	 -30.1247 	 -102.113
| 14> H 	 -15.146 	 -30.3226 	 -102.165
| 15> H 	 -14.083 	 -29.0357 	 -102.049
| 16> C 	 -13.487 	 -30.7559 	 -100.912
| 17> H 	 -13.932 	 -30.4307 	 -99.9895
| 18> H 	 -13.7818 	 -31.764 	 -100.935
| 19> C 	 -11.9462 	 -30.7242 	 -100.705
| 20> H 	 -11.6859 	 -31.1039 	 -99.6739
| 21> H 	 -11.2892 	 -31.0921 	 -101.461
| 22> H 	 -11.7086 	 -29.6897 	 -100.733
| 23> S 	 -15.7002 	 -32.812 	 -106.897
| 24> C 	 -15.7595 	 -34.5376 	 -107.374
| 25> C 	 -14.4641 	 -35.0896 	 -107.322
| 26> C 	 -13.4928 	 -34.2079 	 -106.721
| 27> C 	 -14.1128 	 -32.9771 	 -106.319
| 28> H 	 -14.2933 	 -36.0572 	 -107.708
| 29> C 	 -12.0374 	 -34.5653 	 -106.556
| 30> H 	 -11.9505 	 -35.544 	 -105.999
| 31> H 	 -11.5842 	 -33.8027 	 -105.855
| 32> C 	 -11.2913 	 -34.6023 	 -107.864
| 33> H 	 -11.7433 	 -35.2492 	 -108.582
| 34> H 	 -10.3029 	 -35.0939 	 -107.722
| 35> C 	 -11.0549 	 -33.1557 	 -108.411
| 36> H 	 -11.9528 	 -32.7868 	 -108.923
| 37> H 	 -10.2712 	 -33.2245 	 -109.168
| 38> H 	 -10.7687 	 -32.3612 	 -107.718
| 39> H 	 -11.805 	 -29.3643 	 -103.544
| 40> H 	 -16.5637 	 -35.0212 	 -107.814
| 41> *
| 42>
| 43>                          ****END OF INPUT****

CARTESIAN COORDINATES (ANGSTROEM)
---------------------------------
  S    -12.170800  -30.875900  -105.684000
  C    -12.356100  -30.139400  -104.028000
  C    -13.581400  -30.525600  -103.455000
  C    -14.326800  -31.446700  -104.256000
  C    -13.662600  -31.887000  -105.420000
  H    -15.228400  -31.913600  -103.928000
  C    -14.093700  -30.124700  -102.113000
  H    -15.146000  -30.322600  -102.165000
  H    -14.083000  -29.035700  -102.049000
  C    -13.487000  -30.755900  -100.912000
  H    -13.932000  -30.430700  -99.989500
  H    -13.781800  -31.764000  -100.935000
  C    -11.946200  -30.724200  -100.705000
  H    -11.685900  -31.103900  -99.673900
  H    -11.289200  -31.092100  -101.461000
  H    -11.708600  -29.689700  -100.733000
  S    -15.700200  -32.812000  -106.897000
  C    -15.759500  -34.537600  -107.374000
  C    -14.464100  -35.089600  -107.322000
  C    -13.492800  -34.207900  -106.721000
  C    -14.112800  -32.977100  -106.319000
  H    -14.293300  -36.057200  -107.708000
  C    -12.037400  -34.565300  -106.556000
  H    -11.950500  -35.544000  -105.999000
  H    -11.584200  -33.802700  -105.855000
  C    -11.291300  -34.602300  -107.864000
  H    -11.743300  -35.249200  -108.582000
  H    -10.302900  -35.093900  -107.722000
  C    -11.054900  -33.155700  -108.411000
  H    -11.952800  -32.786800  -108.923000
  H    -10.271200  -33.224500  -109.168000
  H    -10.768700  -32.361200  -107.718000
  H    -11.805000  -29.364300  -103.544000
  H    -16.563700  -35.021200  -107.814000

 Total Charge           Charge          ....    0
 Multiplicity           Mult            ....    1
 Number of Electrons    NEL             ....  134
 Basis Dimension        Dim             ....  322

ORBITAL ENERGIES
----------------

  NO   OCC          E(Eh)            E(eV)
   0   2.0000     -88.973300     -2421.0866
   1   2.0000     -88.969490     -2420.9829
   2   2.0000     -10.342856      -281.4434
   3   2.0000     -10.330651      -281.1113
   4   2.0000     -10.320852      -280.8447
   5   2.0000     -10.317976      -280.7664
   6   2.0000     -10.308873      -280.5187
   7   2.0000     -10.303081      -280.3611
   8   2.0000     -10.298066      -280.2246
   9   2.0000     -10.297981      -280.2223
  10   2.0000     -10.293200      -280.0922
  11   2.0000     -10.287206      -279.9291
  12   2.0000     -10.285793      -279.8906
  13   2.0000     -10.280102      -279.7358
  14   2.0000     -10.276097      -279.6268
  15   2.0000     -10.273211      -279.5483
  16   2.0000      -8.084776      -219.9979
  17   2.0000      -8.084060      -219.9785
  18   2.0000      -6.043514      -164.4524
  19   2.0000      -6.042526      -164.4255
  20   2.0000      -6.039791      -164.3511
  21   2.0000      -6.038557      -164.3175
  22   2.0000      -6.035431      -164.2324
  23   2.0000      -6.034908      -164.2182
  24   2.0000      -0.998552       -27.1720
  25   2.0000      -0.973335       -26.4858
  26   2.0000      -0.915177       -24.9032
  27   2.0000      -0.907738       -24.7008
  28   2.0000      -0.865106       -23.5407
  29   2.0000      -0.847115       -23.0512
  30   2.0000      -0.838469       -22.8159
  31   2.0000      -0.810869       -22.0649
  32   2.0000      -0.787051       -21.4167
  33   2.0000      -0.769828       -20.9481
  34   2.0000      -0.708955       -19.2916
  35   2.0000      -0.707277       -19.2460
  36   2.0000      -0.695955       -18.9379
  37   2.0000      -0.662609       -18.0305
  38   2.0000      -0.633579       -17.2406
  39   2.0000      -0.617622       -16.8063
  40   2.0000      -0.593728       -16.1562
  41   2.0000      -0.570894       -15.5348
  42   2.0000      -0.550762       -14.9870
  43   2.0000      -0.549045       -14.9403
  44   2.0000      -0.547643       -14.9021
  45   2.0000      -0.535071       -14.5600
  46   2.0000      -0.517435       -14.0801
  47   2.0000      -0.510209       -13.8835
  48   2.0000      -0.503048       -13.6886
  49   2.0000      -0.490939       -13.3591
  50   2.0000      -0.489021       -13.3069
  51   2.0000      -0.471612       -12.8332
  52   2.0000      -0.471150       -12.8206
  53   2.0000      -0.465035       -12.6542
  54   2.0000      -0.454804       -12.3759
  55   2.0000      -0.448399       -12.2016
  56   2.0000      -0.445938       -12.1346
  57   2.0000      -0.444186       -12.0869
  58   2.0000      -0.434092       -11.8122
  59   2.0000      -0.420389       -11.4394
  60   2.0000      -0.416392       -11.3306
  61   2.0000      -0.411960       -11.2100
  62   2.0000      -0.409089       -11.1319
  63   2.0000      -0.339962        -9.2508
  64   2.0000      -0.336131        -9.1466
  65   2.0000      -0.326126        -8.8744
  66   2.0000      -0.289343        -7.8734
  67   0.0000       0.019613         0.5337
  68   0.0000       0.062916         1.7120
  69   0.0000       0.094591         2.5740
  70   0.0000       0.111685         3.0391
  71   0.0000       0.120856         3.2887

MULLIKEN ATOMIC CHARGES
-----------------------
   0 S :    0.095106
   1 C :   -0.094129
   2 C :   -0.133714
   3 C :    0.051854
   4 C :   -0.140048
   5 H :    0.010624
   6 C :    0.080593
   7 H :    0.010566
   8 H :    0.024690
   9 C :   -0.010457
  10 H :    0.020055
  11 H :    0.006239
  12 C :   -0.055425
  13 H :    0.044294
  14 H :    0.040263
  15 H :    0.004462
  16 S :    0.121239
  17 C :   -0.082466
  18 C :   -0.023470
  19 C :   -0.022955
  20 C :   -0.176373
  21 H :    0.008932
  22 C :    0.032025
  23 H :    0.038097
  24 H :    0.036797
  25 C :   -0.047988
  26 H :    0.021226
  27 H :    0.029659
  28 C :   -0.069495
  29 H :    0.040945
  30 H :    0.027936
  31 H :    0.037912
  32 H :    0.038748
  33 H :    0.034259
Sum of atomic charges:   -0.0000000

LOEWDIN ATOMIC CHARGES
----------------------
   0 S :    0.367340
   1 C :   -0.180141
   2 C :   -0.056548
   3 C :   -0.056118
   4 C :   -0.170783
   5 H :    0.026841
   6 C :   -0.035670
   7 H :    0.032698
   8 H :    0.030499
   9 C :   -0.035372
  10 H :    0.026706
  11 H :    0.017726
  12 C :   -0.066684
  13 H :    0.036780
  14 H :    0.022088
  15 H :    0.016053
  16 S :    0.428075
  17 C :   -0.171430
  18 C :   -0.056174
  19 C :   -0.052466
  20 C :   -0.219879
  21 H :    0.025084
  22 C :   -0.043873
  23 H :    0.035510
  24 H :    0.032609
  25 C :   -0.039103
  26 H :    0.019472
  27 H :    0.027423
  28 C :   -0.070497
  29 H :    0.027634
  30 H :    0.025235
  31 H :    0.018021
  32 H :    0.025217
  33 H :    0.013727

  Mayer bond orders larger than 0.100000
B(  0-S ,  1-C ) :   1.1113 B(  0-S ,  4-C ) :   1.1260 B(  1-C ,  2-C ) :   1.6202
B(  1-C ,  4-C ) :   0.1003 B(  1-C , 32-H ) :   0.9662 B(  2-C ,  3-C ) :   1.2536
B(  2-C ,  6-C ) :   1.0252 B(  3-C ,  4-C ) :   1.5692 B(  3-C ,  5-H ) :   0.9859
B(  4-C , 20-C ) :   1.0334 B(  6-C ,  7-H ) :   0.9317 B(  6-C ,  8-H ) :   0.9314
B(  6-C ,  9-C ) :   1.0831 B(  9-C , 10-H ) :   0.9489 B(  9-C , 11-H ) :   0.9470
B(  9-C , 12-C ) :   1.0779 B( 12-C , 13-H ) :   0.9725 B( 12-C , 14-H ) :   0.9721
B( 12-C , 15-H ) :   0.9738 B( 16-S , 17-C ) :   1.1479 B( 16-S , 20-C ) :   1.1783
B( 17-C , 18-C ) :   1.5851 B( 17-C , 20-C ) :   0.1009 B( 17-C , 33-H ) :   0.9786
B( 18-C , 19-C ) :   1.2591 B( 18-C , 21-H ) :   0.9938 B( 19-C , 20-C ) :   1.5237
B( 19-C , 22-C ) :   1.0475 B( 22-C , 23-H ) :   0.9331 B( 22-C , 24-H ) :   0.9364
B( 22-C , 25-C ) :   1.0731 B( 25-C , 26-H ) :   0.9565 B( 25-C , 27-H ) :   0.9561
B( 25-C , 28-C ) :   1.0589 B( 28-C , 29-H ) :   0.9772 B( 28-C , 30-H ) :   0.9747
B( 28-C , 31-H ) :   0.9740

Dispersion correction           -0.015271739
FINAL SINGLE POINT ENERGY     -1339.862528080464

DIPOLE MOMENT
-------------
                                X             Y             Z
Electronic contribution:    -12.23328       1.85412     -11.74819
Nuclear contribution   :     12.18889      -2.08105      12.06196
                        -----------------------------------------
Total Dipole Moment    :     -0.04439      -0.22693       0.31377
                        -----------------------------------------
Magnitude (a.u.)       :      0.38977
Magnitude (Debye)      :      0.99072

Rotational constants in cm-1:     0.021594     0.008247     0.007026
Rotational constants in MHz :   647.362251   247.225470   210.620736

                             ****ORCA TERMINATED NORMALLY****
TOTAL RUN TIME: 0 days 0 hours 0 minutes 21 seconds 743 msec
