                         Program Version 4.2.1 -  RELEASE  -
|  1> ! wB97X-D3 SP def2-SVP
|  2> %pal
|  3> nprocs 24
|  4> end
|  5>
|  6> * xyz 0 1
|  7> S 	 -141.06 	 27.6878 	 -19.7502
|  8> C 	 -141.035 	 27.0022 	 -18.0837
|  9> C 	 -140.496 	 25.717 	 -18.074
| 10> C 	 -140.088 	 25.3429 	 -19.3959
| 11> C 	 -140.303 	 26.2451 	 -20.3774
| 12> H 	 -139.476 	 24.523 	 -19.6392
| 13> C 	 -140.124 	 24.8623 	 -16.9384
| 14> H 	 -140.333 	 25.3572 	 -15.971
| 15> H 	 -139.11 	 24.6461 	 -17.0109
| 16> C 	 -140.833 	 23.4729 	 -16.9286
| 17> H 	 -140.968 	 23.0051 	 -15.9
| 18> H 	 -141.849 	 23.4648 	 -17.2995
| 19> C 	 -140.023 	 22.4077 	 -17.7026
| 20> H 	 -139.028 	 22.2667 	 -17.2535
| 21> H 	 -140.611 	 21.451 	 -17.6739
| 22> H 	 -139.758 	 22.7472 	 -18.7117
| 23> S 	 -138.592 	 27.4993 	 -22.1384
| 24> C 	 -137.97 	 26.6705 	 -23.5483
| 25> C 	 -138.523 	 25.393 	 -23.5483
| 26> C 	 -139.364 	 25.1277 	 -22.4802
| 27> C 	 -139.624 	 26.1511 	 -21.6512
| 28> H 	 -138.126 	 24.7422 	 -24.3918
| 29> C 	 -140.068 	 23.7725 	 -22.4741
| 30> H 	 -140.372 	 23.5283 	 -23.499
| 31> H 	 -141.04 	 23.9149 	 -21.888
| 32> C 	 -139.381 	 22.5364 	 -21.8288
| 33> H 	 -138.805 	 22.8017 	 -20.9935
| 34> H 	 -138.688 	 22.1343 	 -22.5324
| 35> C 	 -140.349 	 21.442 	 -21.3574
| 36> H 	 -140.879 	 21.794 	 -20.4737
| 37> H 	 -139.954 	 20.5278 	 -20.9902
| 38> H 	 -141.223 	 21.2751 	 -22.03
| 39> H 	 -141.248 	 27.5275 	 -17.1722
| 40> H 	 -137.126 	 27.0384 	 -24.1196
| 41> *
| 42>
| 43>                          ****END OF INPUT****

CARTESIAN COORDINATES (ANGSTROEM)
---------------------------------
  S    -141.060000   27.687800  -19.750200
  C    -141.035000   27.002200  -18.083700
  C    -140.496000   25.717000  -18.074000
  C    -140.088000   25.342900  -19.395900
  C    -140.303000   26.245100  -20.377400
  H    -139.476000   24.523000  -19.639200
  C    -140.124000   24.862300  -16.938400
  H    -140.333000   25.357200  -15.971000
  H    -139.110000   24.646100  -17.010900
  C    -140.833000   23.472900  -16.928600
  H    -140.968000   23.005100  -15.900000
  H    -141.849000   23.464800  -17.299500
  C    -140.023000   22.407700  -17.702600
  H    -139.028000   22.266700  -17.253500
  H    -140.611000   21.451000  -17.673900
  H    -139.758000   22.747200  -18.711700
  S    -138.592000   27.499300  -22.138400
  C    -137.970000   26.670500  -23.548300
  C    -138.523000   25.393000  -23.548300
  C    -139.364000   25.127700  -22.480200
  C    -139.624000   26.151100  -21.651200
  H    -138.126000   24.742200  -24.391800
  C    -140.068000   23.772500  -22.474100
  H    -140.372000   23.528300  -23.499000
  H    -141.040000   23.914900  -21.888000
  C    -139.381000   22.536400  -21.828800
  H    -138.805000   22.801700  -20.993500
  H    -138.688000   22.134300  -22.532400
  C    -140.349000   21.442000  -21.357400
  H    -140.879000   21.794000  -20.473700
  H    -139.954000   20.527800  -20.990200
  H    -141.223000   21.275100  -22.030000
  H    -141.248000   27.527500  -17.172200
  H    -137.126000   27.038400  -24.119600

 Total Charge           Charge          ....    0
 Multiplicity           Mult            ....    1
 Number of Electrons    NEL             ....  134
 Basis Dimension        Dim             ....  322

ORBITAL ENERGIES
----------------

  NO   OCC          E(Eh)            E(eV)
   0   2.0000     -88.970142     -2421.0006
   1   2.0000     -88.961310     -2420.7603
   2   2.0000     -10.328255      -281.0461
   3   2.0000     -10.326284      -280.9925
   4   2.0000     -10.321222      -280.8547
   5   2.0000     -10.318659      -280.7850
   6   2.0000     -10.304477      -280.3991
   7   2.0000     -10.297467      -280.2083
   8   2.0000     -10.295970      -280.1676
   9   2.0000     -10.295623      -280.1581
  10   2.0000     -10.293546      -280.1016
  11   2.0000     -10.292795      -280.0812
  12   2.0000     -10.287563      -279.9388
  13   2.0000     -10.285324      -279.8779
  14   2.0000     -10.283330      -279.8236
  15   2.0000     -10.275987      -279.6238
  16   2.0000      -8.083982      -219.9763
  17   2.0000      -8.076211      -219.7649
  18   2.0000      -6.042737      -164.4312
  19   2.0000      -6.038681      -164.3209
  20   2.0000      -6.034642      -164.2110
  21   2.0000      -6.034453      -164.2058
  22   2.0000      -6.030599      -164.1010
  23   2.0000      -6.027100      -164.0057
  24   2.0000      -1.013658       -27.5830
  25   2.0000      -0.987898       -26.8821
  26   2.0000      -0.917978       -24.9795
  27   2.0000      -0.904985       -24.6259
  28   2.0000      -0.873533       -23.7700
  29   2.0000      -0.855021       -23.2663
  30   2.0000      -0.845575       -23.0093
  31   2.0000      -0.817759       -22.2524
  32   2.0000      -0.781282       -21.2598
  33   2.0000      -0.775664       -21.1069
  34   2.0000      -0.710651       -19.3378
  35   2.0000      -0.704058       -19.1584
  36   2.0000      -0.700757       -19.0686
  37   2.0000      -0.666138       -18.1265
  38   2.0000      -0.646617       -17.5954
  39   2.0000      -0.623307       -16.9610
  40   2.0000      -0.597579       -16.2610
  41   2.0000      -0.574740       -15.6395
  42   2.0000      -0.563341       -15.3293
  43   2.0000      -0.548961       -14.9380
  44   2.0000      -0.537825       -14.6350
  45   2.0000      -0.527855       -14.3637
  46   2.0000      -0.520958       -14.1760
  47   2.0000      -0.516921       -14.0661
  48   2.0000      -0.512433       -13.9440
  49   2.0000      -0.501061       -13.6346
  50   2.0000      -0.491007       -13.3610
  51   2.0000      -0.486790       -13.2462
  52   2.0000      -0.472478       -12.8568
  53   2.0000      -0.466177       -12.6853
  54   2.0000      -0.460995       -12.5443
  55   2.0000      -0.447639       -12.1809
  56   2.0000      -0.439914       -11.9707
  57   2.0000      -0.438809       -11.9406
  58   2.0000      -0.429822       -11.6961
  59   2.0000      -0.425446       -11.5770
  60   2.0000      -0.420926       -11.4540
  61   2.0000      -0.411618       -11.2007
  62   2.0000      -0.410645       -11.1742
  63   2.0000      -0.353561        -9.6209
  64   2.0000      -0.333496        -9.0749
  65   2.0000      -0.331105        -9.0098
  66   2.0000      -0.294229        -8.0064
  67   0.0000       0.025388         0.6908
  68   0.0000       0.070288         1.9126
  69   0.0000       0.111629         3.0376
  70   0.0000       0.119880         3.2621
  71   0.0000       0.130619         3.5543

MULLIKEN ATOMIC CHARGES
-----------------------
   0 S :    0.102307
   1 C :   -0.119279
   2 C :   -0.058832
   3 C :    0.025653
   4 C :   -0.118952
   5 H :   -0.020140
   6 C :    0.102326
   7 H :    0.025653
   8 H :    0.020631
   9 C :   -0.097951
  10 H :    0.037182
  11 H :    0.033971
  12 C :   -0.071139
  13 H :    0.028780
  14 H :    0.050968
  15 H :    0.013032
  16 S :    0.082497
  17 C :   -0.107984
  18 C :   -0.062878
  19 C :   -0.015564
  20 C :   -0.115617
  21 H :    0.045413
  22 C :   -0.005388
  23 H :    0.034101
  24 H :    0.034417
  25 C :   -0.006240
  26 H :    0.012171
  27 H :    0.017587
  28 C :   -0.052591
  29 H :    0.014584
  30 H :    0.029156
  31 H :    0.031379
  32 H :    0.042557
  33 H :    0.068190
Sum of atomic charges:    0.0000000

LOEWDIN ATOMIC CHARGES
----------------------
   0 S :    0.385606
   1 C :   -0.177285
   2 C :   -0.053715
   3 C :   -0.053999
   4 C :   -0.190080
   5 H :    0.019545
   6 C :   -0.025920
   7 H :    0.035536
   8 H :    0.027069
   9 C :   -0.041913
  10 H :    0.031189
  11 H :    0.022845
  12 C :   -0.071626
  13 H :    0.023992
  14 H :    0.034058
  15 H :    0.016361
  16 S :    0.396964
  17 C :   -0.184979
  18 C :   -0.081105
  19 C :   -0.075968
  20 C :   -0.181784
  21 H :    0.045443
  22 C :   -0.029923
  23 H :    0.031893
  24 H :    0.035116
  25 C :   -0.034475
  26 H :    0.011822
  27 H :    0.019317
  28 C :   -0.069560
  29 H :    0.023859
  30 H :    0.022547
  31 H :    0.029604
  32 H :    0.026715
  33 H :    0.032849

  Mayer bond orders larger than 0.100000
B(  0-S ,  1-C ) :   1.1159 B(  0-S ,  4-C ) :   1.1265 B(  1-C ,  2-C ) :   1.6310
B(  1-C , 32-H ) :   0.9670 B(  2-C ,  3-C ) :   1.2089 B(  2-C ,  6-C ) :   1.0521
B(  3-C ,  4-C ) :   1.6114 B(  3-C ,  5-H ) :   0.9865 B(  4-C , 20-C ) :   1.0361
B(  6-C ,  7-H ) :   0.9367 B(  6-C ,  8-H ) :   0.9403 B(  6-C ,  9-C ) :   1.0385
B(  9-C , 10-H ) :   0.9593 B(  9-C , 11-H ) :   0.9608 B(  9-C , 12-C ) :   1.0789
B( 12-C , 13-H ) :   0.9685 B( 12-C , 14-H ) :   0.9705 B( 12-C , 15-H ) :   0.9684
B( 16-S , 17-C ) :   1.1666 B( 16-S , 20-C ) :   1.1310 B( 17-C , 18-C ) :   1.5817
B( 17-C , 20-C ) :   0.1036 B( 17-C , 33-H ) :   0.9693 B( 18-C , 19-C ) :   1.2557
B( 18-C , 21-H ) :   0.9867 B( 19-C , 20-C ) :   1.6076 B( 19-C , 22-C ) :   1.0289
B( 22-C , 23-H ) :   0.9417 B( 22-C , 24-H ) :   0.9479 B( 22-C , 25-C ) :   1.0493
B( 25-C , 26-H ) :   0.9539 B( 25-C , 27-H ) :   0.9478 B( 25-C , 28-C ) :   1.0833
B( 28-C , 29-H ) :   0.9644 B( 28-C , 30-H ) :   0.9744 B( 28-C , 31-H ) :   0.9728

Dispersion correction           -0.015913957
FINAL SINGLE POINT ENERGY     -1339.865221062288

DIPOLE MOMENT
-------------
                                X             Y             Z
Electronic contribution:      1.33350      31.27332      -9.47262
Nuclear contribution   :     -1.00433     -31.93651       9.79900
                        -----------------------------------------
Total Dipole Moment    :      0.32917      -0.66319       0.32638
                        -----------------------------------------
Magnitude (a.u.)       :      0.80914
Magnitude (Debye)      :      2.05667

Rotational constants in cm-1:     0.016508     0.011490     0.007409
Rotational constants in MHz :   494.894488   344.459233   222.128193

                             ****ORCA TERMINATED NORMALLY****
TOTAL RUN TIME: 0 days 0 hours 0 minutes 21 seconds 946 msec
