                         Program Version 4.2.1 -  RELEASE  -
|  1> ! wB97X-D3 SP def2-SVP
|  2> %pal
|  3> nprocs 24
|  4> end
|  5>
|  6> * xyz 0 1
|  7> S 	 -103.437 	 57.363 	 -14.4539
|  8> C 	 -103.805 	 58.2586 	 -13.0207
|  9> C 	 -102.777 	 59.0634 	 -12.5922
| 10> C 	 -101.758 	 59.0381 	 -13.5286
| 11> C 	 -101.85 	 58.1417 	 -14.5564
| 12> H 	 -100.953 	 59.7344 	 -13.4738
| 13> C 	 -102.682 	 59.8417 	 -11.2653
| 14> H 	 -101.714 	 59.7522 	 -10.7935
| 15> H 	 -103.235 	 59.3459 	 -10.5247
| 16> C 	 -103.028 	 61.3878 	 -11.3233
| 17> H 	 -104.057 	 61.5017 	 -11.5371
| 18> H 	 -102.846 	 61.7704 	 -10.3365
| 19> C 	 -102.289 	 62.1791 	 -12.3869
| 20> H 	 -102.704 	 61.9777 	 -13.3463
| 21> H 	 -102.529 	 63.1979 	 -12.3389
| 22> H 	 -101.165 	 62.1545 	 -12.344
| 23> S 	 -101.771 	 58.1135 	 -17.2444
| 24> C 	 -100.27 	 57.7173 	 -18.081
| 25> C 	 -99.2022 	 57.6609 	 -17.2105
| 26> C 	 -99.6338 	 57.7053 	 -15.8339
| 27> C 	 -101.019 	 57.9932 	 -15.7269
| 28> H 	 -98.1609 	 57.5725 	 -17.4753
| 29> C 	 -98.6937 	 57.4387 	 -14.6291
| 30> H 	 -99.0403 	 57.9931 	 -13.7513
| 31> H 	 -97.8039 	 57.936 	 -14.9619
| 32> C 	 -98.3444 	 55.9272 	 -14.3961
| 33> H 	 -97.7607 	 55.8832 	 -13.5103
| 34> H 	 -97.6971 	 55.6167 	 -15.1237
| 35> C 	 -99.6116 	 55.0313 	 -14.4186
| 36> H 	 -100.344 	 55.4271 	 -13.7077
| 37> H 	 -99.5512 	 53.9834 	 -14.1974
| 38> H 	 -100.04 	 55.1034 	 -15.4206
| 39> H 	 -104.612 	 58.1016 	 -12.3424
| 40> H 	 -100.128 	 57.7843 	 -19.1686
| 41> *
| 42>
| 43>                          ****END OF INPUT****

CARTESIAN COORDINATES (ANGSTROEM)
---------------------------------
  S    -103.437000   57.363000  -14.453900
  C    -103.805000   58.258600  -13.020700
  C    -102.777000   59.063400  -12.592200
  C    -101.758000   59.038100  -13.528600
  C    -101.850000   58.141700  -14.556400
  H    -100.953000   59.734400  -13.473800
  C    -102.682000   59.841700  -11.265300
  H    -101.714000   59.752200  -10.793500
  H    -103.235000   59.345900  -10.524700
  C    -103.028000   61.387800  -11.323300
  H    -104.057000   61.501700  -11.537100
  H    -102.846000   61.770400  -10.336500
  C    -102.289000   62.179100  -12.386900
  H    -102.704000   61.977700  -13.346300
  H    -102.529000   63.197900  -12.338900
  H    -101.165000   62.154500  -12.344000
  S    -101.771000   58.113500  -17.244400
  C    -100.270000   57.717300  -18.081000
  C    -99.202200   57.660900  -17.210500
  C    -99.633800   57.705300  -15.833900
  C    -101.019000   57.993200  -15.726900
  H    -98.160900   57.572500  -17.475300
  C    -98.693700   57.438700  -14.629100
  H    -99.040300   57.993100  -13.751300
  H    -97.803900   57.936000  -14.961900
  C    -98.344400   55.927200  -14.396100
  H    -97.760700   55.883200  -13.510300
  H    -97.697100   55.616700  -15.123700
  C    -99.611600   55.031300  -14.418600
  H    -100.344000   55.427100  -13.707700
  H    -99.551200   53.983400  -14.197400
  H    -100.040000   55.103400  -15.420600
  H    -104.612000   58.101600  -12.342400
  H    -100.128000   57.784300  -19.168600

 Total Charge           Charge          ....    0
 Multiplicity           Mult            ....    1
 Number of Electrons    NEL             ....  134
 Basis Dimension        Dim             ....  322

ORBITAL ENERGIES
----------------

  NO   OCC          E(Eh)            E(eV)
   0   2.0000     -88.966863     -2420.9114
   1   2.0000     -88.966641     -2420.9054
   2   2.0000     -10.324993      -280.9573
   3   2.0000     -10.322048      -280.8772
   4   2.0000     -10.318299      -280.7752
   5   2.0000     -10.308510      -280.5088
   6   2.0000     -10.303963      -280.3851
   7   2.0000     -10.296094      -280.1710
   8   2.0000     -10.294596      -280.1302
   9   2.0000     -10.291986      -280.0592
  10   2.0000     -10.291249      -280.0391
  11   2.0000     -10.285610      -279.8857
  12   2.0000     -10.283490      -279.8280
  13   2.0000     -10.277931      -279.6767
  14   2.0000     -10.272842      -279.5382
  15   2.0000     -10.267444      -279.3914
  16   2.0000      -8.081950      -219.9210
  17   2.0000      -8.081468      -219.9079
  18   2.0000      -6.040439      -164.3687
  19   2.0000      -6.039960      -164.3557
  20   2.0000      -6.036307      -164.2563
  21   2.0000      -6.035992      -164.2477
  22   2.0000      -6.032754      -164.1596
  23   2.0000      -6.032247      -164.1458
  24   2.0000      -1.010358       -27.4932
  25   2.0000      -0.986269       -26.8377
  26   2.0000      -0.907681       -24.6992
  27   2.0000      -0.901111       -24.5205
  28   2.0000      -0.872097       -23.7310
  29   2.0000      -0.849861       -23.1259
  30   2.0000      -0.841736       -22.9048
  31   2.0000      -0.814900       -22.1746
  32   2.0000      -0.787957       -21.4414
  33   2.0000      -0.771552       -20.9950
  34   2.0000      -0.709801       -19.3147
  35   2.0000      -0.704358       -19.1665
  36   2.0000      -0.695584       -18.9278
  37   2.0000      -0.661452       -17.9990
  38   2.0000      -0.639950       -17.4139
  39   2.0000      -0.623442       -16.9647
  40   2.0000      -0.589673       -16.0458
  41   2.0000      -0.575043       -15.6477
  42   2.0000      -0.552662       -15.0387
  43   2.0000      -0.547544       -14.8994
  44   2.0000      -0.541865       -14.7449
  45   2.0000      -0.537388       -14.6231
  46   2.0000      -0.512234       -13.9386
  47   2.0000      -0.508448       -13.8356
  48   2.0000      -0.498088       -13.5537
  49   2.0000      -0.492642       -13.4055
  50   2.0000      -0.488209       -13.2848
  51   2.0000      -0.471055       -12.8181
  52   2.0000      -0.467761       -12.7284
  53   2.0000      -0.467148       -12.7117
  54   2.0000      -0.459895       -12.5144
  55   2.0000      -0.448835       -12.2134
  56   2.0000      -0.443456       -12.0670
  57   2.0000      -0.436873       -11.8879
  58   2.0000      -0.435975       -11.8635
  59   2.0000      -0.424990       -11.5646
  60   2.0000      -0.421582       -11.4718
  61   2.0000      -0.421015       -11.4564
  62   2.0000      -0.415128       -11.2962
  63   2.0000      -0.349811        -9.5188
  64   2.0000      -0.331486        -9.0202
  65   2.0000      -0.329833        -8.9752
  66   2.0000      -0.288127        -7.8403
  67   0.0000       0.032011         0.8711
  68   0.0000       0.070654         1.9226
  69   0.0000       0.110665         3.0114
  70   0.0000       0.116763         3.1773
  71   0.0000       0.140285         3.8173

MULLIKEN ATOMIC CHARGES
-----------------------
   0 S :    0.114992
   1 C :   -0.098481
   2 C :   -0.099256
   3 C :    0.043230
   4 C :   -0.152638
   5 H :   -0.003565
   6 C :    0.083470
   7 H :    0.020030
   8 H :    0.001191
   9 C :   -0.038394
  10 H :    0.019952
  11 H :    0.024464
  12 C :   -0.043359
  13 H :    0.031602
  14 H :    0.012411
  15 H :    0.040531
  16 S :    0.120402
  17 C :   -0.101535
  18 C :   -0.021379
  19 C :   -0.101736
  20 C :   -0.153626
  21 H :    0.018438
  22 C :    0.078151
  23 H :    0.028948
  24 H :    0.013747
  25 C :   -0.002583
  26 H :    0.020025
  27 H :    0.001878
  28 C :   -0.061858
  29 H :    0.033872
  30 H :    0.029382
  31 H :    0.045721
  32 H :    0.029793
  33 H :    0.066180
Sum of atomic charges:    0.0000000

LOEWDIN ATOMIC CHARGES
----------------------
   0 S :    0.406522
   1 C :   -0.194531
   2 C :   -0.068261
   3 C :   -0.055776
   4 C :   -0.191586
   5 H :    0.024489
   6 C :   -0.026201
   7 H :    0.030587
   8 H :    0.022709
   9 C :   -0.026782
  10 H :    0.020639
  11 H :    0.020753
  12 C :   -0.069324
  13 H :    0.027136
  14 H :    0.022351
  15 H :    0.029369
  16 S :    0.429134
  17 C :   -0.191955
  18 C :   -0.067120
  19 C :   -0.056635
  20 C :   -0.221214
  21 H :    0.031114
  22 C :   -0.025657
  23 H :    0.029212
  24 H :    0.027832
  25 C :   -0.025171
  26 H :    0.020726
  27 H :    0.010372
  28 C :   -0.067183
  29 H :    0.027077
  30 H :    0.021281
  31 H :    0.030092
  32 H :    0.022733
  33 H :    0.033268

  Mayer bond orders larger than 0.100000
B(  0-S ,  1-C ) :   1.1535 B(  0-S ,  4-C ) :   1.1302 B(  1-C ,  2-C ) :   1.6138
B(  1-C ,  4-C ) :   0.1004 B(  1-C , 32-H ) :   0.9578 B(  2-C ,  3-C ) :   1.2740
B(  2-C ,  6-C ) :   1.0099 B(  3-C ,  4-C ) :   1.5742 B(  3-C ,  5-H ) :   0.9908
B(  4-C , 20-C ) :   1.0458 B(  6-C ,  7-H ) :   0.9456 B(  6-C ,  8-H ) :   0.9364
B(  6-C ,  9-C ) :   1.0669 B(  9-C , 10-H ) :   0.9544 B(  9-C , 11-H ) :   0.9581
B(  9-C , 12-C ) :   1.0968 B( 12-C , 13-H ) :   0.9652 B( 12-C , 14-H ) :   0.9646
B( 12-C , 15-H ) :   0.9729 B( 16-S , 17-C ) :   1.1501 B( 16-S , 20-C ) :   1.1683
B( 17-C , 18-C ) :   1.5943 B( 17-C , 33-H ) :   0.9638 B( 18-C , 19-C ) :   1.2652
B( 18-C , 21-H ) :   0.9874 B( 19-C , 20-C ) :   1.5567 B( 19-C , 22-C ) :   1.0321
B( 22-C , 23-H ) :   0.9394 B( 22-C , 24-H ) :   0.9315 B( 22-C , 25-C ) :   1.0659
B( 25-C , 26-H ) :   0.9574 B( 25-C , 27-H ) :   0.9540 B( 25-C , 28-C ) :   1.0709
B( 28-C , 29-H ) :   0.9785 B( 28-C , 30-H ) :   0.9777 B( 28-C , 31-H ) :   0.9689

Dispersion correction           -0.015501069
FINAL SINGLE POINT ENERGY     -1339.873622091058

DIPOLE MOMENT
-------------
                                X             Y             Z
Electronic contribution:    -10.56645      -5.89916     -16.70760
Nuclear contribution   :     10.96750       6.22892      17.12767
                        -----------------------------------------
Total Dipole Moment    :      0.40106       0.32975       0.42007
                        -----------------------------------------
Magnitude (a.u.)       :      0.66786
Magnitude (Debye)      :      1.69758

Rotational constants in cm-1:     0.020175     0.008502     0.007987
Rotational constants in MHz :   604.841879   254.885002   239.454477

                             ****ORCA TERMINATED NORMALLY****
TOTAL RUN TIME: 0 days 0 hours 0 minutes 22 seconds 255 msec
