                         Program Version 4.2.1 -  RELEASE  -
|  1> ! wB97X-D3 SP def2-SVP
|  2> %pal
|  3> nprocs 24
|  4> end
|  5>
|  6> * xyz 0 1
|  7> S 	 -33.4096 	 -45.9945 	 -76.8858
|  8> C 	 -33.6014 	 -44.1832 	 -76.6983
|  9> C 	 -33.4788 	 -43.871 	 -75.333
| 10> C 	 -33.1958 	 -44.9424 	 -74.4739
| 11> C 	 -33.2298 	 -46.1491 	 -75.1534
| 12> H 	 -32.8627 	 -44.9336 	 -73.4497
| 13> C 	 -33.5065 	 -42.47 	 -74.843
| 14> H 	 -33.3252 	 -41.7092 	 -75.5982
| 15> H 	 -32.6234 	 -42.2397 	 -74.1293
| 16> C 	 -34.7466 	 -41.8908 	 -74.0666
| 17> H 	 -34.8468 	 -42.5589 	 -73.2647
| 18> H 	 -34.5999 	 -40.8731 	 -73.739
| 19> C 	 -35.9417 	 -41.8403 	 -74.9551
| 20> H 	 -36.6979 	 -41.3621 	 -74.3603
| 21> H 	 -35.8241 	 -41.2358 	 -75.8351
| 22> H 	 -36.3095 	 -42.7981 	 -75.2921
| 23> S 	 -31.7296 	 -48.4429 	 -75.809
| 24> C 	 -31.8589 	 -49.8385 	 -74.7885
| 25> C 	 -32.5432 	 -49.5749 	 -73.6487
| 26> C 	 -33.0303 	 -48.2365 	 -73.5872
| 27> C 	 -32.7288 	 -47.4934 	 -74.7386
| 28> H 	 -32.702 	 -50.3561 	 -72.9276
| 29> C 	 -33.8393 	 -47.8026 	 -72.3859
| 30> H 	 -34.6807 	 -48.5726 	 -72.0921
| 31> H 	 -34.2438 	 -46.8003 	 -72.6465
| 32> C 	 -32.8425 	 -47.572 	 -71.2389
| 33> H 	 -32.0429 	 -46.8647 	 -71.509
| 34> H 	 -32.2811 	 -48.5261 	 -71.1954
| 35> C 	 -33.4457 	 -47.2802 	 -69.8732
| 36> H 	 -33.8636 	 -46.2531 	 -69.9416
| 37> H 	 -32.796 	 -47.3488 	 -69.0372
| 38> H 	 -34.2135 	 -47.9896 	 -69.5189
| 39> H 	 -33.6828 	 -43.5635 	 -77.5085
| 40> H 	 -31.4877 	 -50.7809 	 -75.1057
| 41> *
| 42>
| 43>                          ****END OF INPUT****

CARTESIAN COORDINATES (ANGSTROEM)
---------------------------------
  S    -33.409600  -45.994500  -76.885800
  C    -33.601400  -44.183200  -76.698300
  C    -33.478800  -43.871000  -75.333000
  C    -33.195800  -44.942400  -74.473900
  C    -33.229800  -46.149100  -75.153400
  H    -32.862700  -44.933600  -73.449700
  C    -33.506500  -42.470000  -74.843000
  H    -33.325200  -41.709200  -75.598200
  H    -32.623400  -42.239700  -74.129300
  C    -34.746600  -41.890800  -74.066600
  H    -34.846800  -42.558900  -73.264700
  H    -34.599900  -40.873100  -73.739000
  C    -35.941700  -41.840300  -74.955100
  H    -36.697900  -41.362100  -74.360300
  H    -35.824100  -41.235800  -75.835100
  H    -36.309500  -42.798100  -75.292100
  S    -31.729600  -48.442900  -75.809000
  C    -31.858900  -49.838500  -74.788500
  C    -32.543200  -49.574900  -73.648700
  C    -33.030300  -48.236500  -73.587200
  C    -32.728800  -47.493400  -74.738600
  H    -32.702000  -50.356100  -72.927600
  C    -33.839300  -47.802600  -72.385900
  H    -34.680700  -48.572600  -72.092100
  H    -34.243800  -46.800300  -72.646500
  C    -32.842500  -47.572000  -71.238900
  H    -32.042900  -46.864700  -71.509000
  H    -32.281100  -48.526100  -71.195400
  C    -33.445700  -47.280200  -69.873200
  H    -33.863600  -46.253100  -69.941600
  H    -32.796000  -47.348800  -69.037200
  H    -34.213500  -47.989600  -69.518900
  H    -33.682800  -43.563500  -77.508500
  H    -31.487700  -50.780900  -75.105700

 Total Charge           Charge          ....    0
 Multiplicity           Mult            ....    1
 Number of Electrons    NEL             ....  134
 Basis Dimension        Dim             ....  322

ORBITAL ENERGIES
----------------

  NO   OCC          E(Eh)            E(eV)
   0   2.0000     -88.967539     -2420.9298
   1   2.0000     -88.965292     -2420.8687
   2   2.0000     -10.336104      -281.2597
   3   2.0000     -10.329891      -281.0906
   4   2.0000     -10.319175      -280.7990
   5   2.0000     -10.312554      -280.6189
   6   2.0000     -10.308300      -280.5031
   7   2.0000     -10.302907      -280.3564
   8   2.0000     -10.301715      -280.3239
   9   2.0000     -10.297131      -280.1992
  10   2.0000     -10.292368      -280.0696
  11   2.0000     -10.290569      -280.0206
  12   2.0000     -10.288659      -279.9686
  13   2.0000     -10.279967      -279.7321
  14   2.0000     -10.278640      -279.6960
  15   2.0000     -10.265256      -279.3318
  16   2.0000      -8.081322      -219.9039
  17   2.0000      -8.080507      -219.8818
  18   2.0000      -6.039800      -164.3513
  19   2.0000      -6.039003      -164.3296
  20   2.0000      -6.036014      -164.2483
  21   2.0000      -6.034893      -164.2178
  22   2.0000      -6.032089      -164.1415
  23   2.0000      -6.031293      -164.1198
  24   2.0000      -1.007892       -27.4261
  25   2.0000      -0.984076       -26.7781
  26   2.0000      -0.913480       -24.8571
  27   2.0000      -0.910774       -24.7834
  28   2.0000      -0.870623       -23.6908
  29   2.0000      -0.852503       -23.1978
  30   2.0000      -0.845874       -23.0174
  31   2.0000      -0.818969       -22.2853
  32   2.0000      -0.782292       -21.2873
  33   2.0000      -0.771594       -20.9961
  34   2.0000      -0.705530       -19.1984
  35   2.0000      -0.699098       -19.0234
  36   2.0000      -0.694485       -18.8979
  37   2.0000      -0.658914       -17.9300
  38   2.0000      -0.648464       -17.6456
  39   2.0000      -0.625423       -17.0186
  40   2.0000      -0.600164       -16.3313
  41   2.0000      -0.573714       -15.6115
  42   2.0000      -0.562563       -15.3081
  43   2.0000      -0.552220       -15.0267
  44   2.0000      -0.540109       -14.6971
  45   2.0000      -0.529744       -14.4151
  46   2.0000      -0.524070       -14.2607
  47   2.0000      -0.515793       -14.0354
  48   2.0000      -0.508380       -13.8337
  49   2.0000      -0.499569       -13.5940
  50   2.0000      -0.487677       -13.2704
  51   2.0000      -0.476449       -12.9648
  52   2.0000      -0.472954       -12.8697
  53   2.0000      -0.462807       -12.5936
  54   2.0000      -0.459096       -12.4926
  55   2.0000      -0.454660       -12.3719
  56   2.0000      -0.447287       -12.1713
  57   2.0000      -0.434531       -11.8242
  58   2.0000      -0.430696       -11.7198
  59   2.0000      -0.424879       -11.5615
  60   2.0000      -0.413837       -11.2611
  61   2.0000      -0.412992       -11.2381
  62   2.0000      -0.408878       -11.1261
  63   2.0000      -0.349498        -9.5103
  64   2.0000      -0.333407        -9.0725
  65   2.0000      -0.331504        -9.0207
  66   2.0000      -0.289550        -7.8791
  67   0.0000       0.021490         0.5848
  68   0.0000       0.072266         1.9665
  69   0.0000       0.103442         2.8148
  70   0.0000       0.118098         3.2136
  71   0.0000       0.126991         3.4556

MULLIKEN ATOMIC CHARGES
-----------------------
   0 S :    0.078243
   1 C :   -0.093495
   2 C :   -0.016973
   3 C :    0.023461
   4 C :   -0.116570
   5 H :    0.020991
   6 C :   -0.022734
   7 H :    0.011339
   8 H :    0.036378
   9 C :   -0.026012
  10 H :    0.013453
  11 H :    0.027138
  12 C :   -0.035686
  13 H :    0.022734
  14 H :    0.015438
  15 H :    0.034707
  16 S :    0.104044
  17 C :   -0.082106
  18 C :   -0.014629
  19 C :   -0.060696
  20 C :   -0.146584
  21 H :    0.018200
  22 C :    0.048278
  23 H :    0.058268
  24 H :    0.021756
  25 C :   -0.110523
  26 H :    0.035460
  27 H :    0.016811
  28 C :   -0.009938
  29 H :    0.033812
  30 H :    0.023723
  31 H :    0.025946
  32 H :    0.020788
  33 H :    0.044978
Sum of atomic charges:   -0.0000000

LOEWDIN ATOMIC CHARGES
----------------------
   0 S :    0.379173
   1 C :   -0.156194
   2 C :   -0.056330
   3 C :   -0.066166
   4 C :   -0.170685
   5 H :    0.035697
   6 C :   -0.044328
   7 H :    0.023139
   8 H :    0.037669
   9 C :   -0.029635
  10 H :    0.014363
  11 H :    0.026435
  12 C :   -0.063435
  13 H :    0.024770
  14 H :    0.020486
  15 H :    0.024126
  16 S :    0.408221
  17 C :   -0.178099
  18 C :   -0.070739
  19 C :   -0.057040
  20 C :   -0.209374
  21 H :    0.031563
  22 C :   -0.035893
  23 H :    0.045522
  24 H :    0.027088
  25 C :   -0.050287
  26 H :    0.027947
  27 H :    0.021575
  28 C :   -0.070800
  29 H :    0.029157
  30 H :    0.022020
  31 H :    0.028486
  32 H :    0.009145
  33 H :    0.022424

  Mayer bond orders larger than 0.100000
B(  0-S ,  1-C ) :   1.1160 B(  0-S ,  4-C ) :   1.1610 B(  1-C ,  2-C ) :   1.5766
B(  1-C , 32-H ) :   0.9914 B(  2-C ,  3-C ) :   1.2364 B(  2-C ,  6-C ) :   1.0346
B(  3-C ,  4-C ) :   1.5572 B(  3-C ,  5-H ) :   0.9913 B(  4-C , 20-C ) :   1.0271
B(  6-C ,  7-H ) :   0.9467 B(  6-C ,  8-H ) :   0.9435 B(  6-C ,  9-C ) :   1.0680
B(  9-C , 10-H ) :   0.9547 B(  9-C , 11-H ) :   0.9542 B(  9-C , 12-C ) :   1.0888
B( 12-C , 13-H ) :   0.9719 B( 12-C , 14-H ) :   0.9724 B( 12-C , 15-H ) :   0.9744
B( 16-S , 17-C ) :   1.1557 B( 16-S , 20-C ) :   1.1402 B( 17-C , 18-C ) :   1.6039
B( 17-C , 33-H ) :   0.9722 B( 18-C , 19-C ) :   1.2431 B( 18-C , 21-H ) :   0.9939
B( 19-C , 20-C ) :   1.5873 B( 19-C , 22-C ) :   1.0482 B( 22-C , 23-H ) :   0.9411
B( 22-C , 24-H ) :   0.9248 B( 22-C , 25-C ) :   1.0499 B( 25-C , 26-H ) :   0.9505
B( 25-C , 27-H ) :   0.9576 B( 25-C , 28-C ) :   1.0805 B( 28-C , 29-H ) :   0.9723
B( 28-C , 30-H ) :   0.9722 B( 28-C , 31-H ) :   0.9710

Dispersion correction           -0.014029476
FINAL SINGLE POINT ENERGY     -1339.868120646739

DIPOLE MOMENT
-------------
                                X             Y             Z
Electronic contribution:     10.15511     -15.99831     -22.47126
Nuclear contribution   :    -10.17432      16.15106      23.00230
                        -----------------------------------------
Total Dipole Moment    :     -0.01921       0.15275       0.53104
                        -----------------------------------------
Magnitude (a.u.)       :      0.55291
Magnitude (Debye)      :      1.40538

Rotational constants in cm-1:     0.018037     0.009037     0.006374
Rotational constants in MHz :   540.726906   270.925722   191.080793

                             ****ORCA TERMINATED NORMALLY****
TOTAL RUN TIME: 0 days 0 hours 0 minutes 21 seconds 568 msec
