                         Program Version 4.2.1 -  RELEASE  -
|  1> ! wB97X-D3 SP def2-SVP
|  2> %pal
|  3> nprocs 24
|  4> end
|  5>
|  6> * xyz 0 1
|  7> S 	 -97.6949 	 7.16425 	 -3.82118
|  8> C 	 -97.3749 	 8.62385 	 -4.71897
|  9> C 	 -96.0703 	 8.94944 	 -4.81177
| 10> C 	 -95.2446 	 7.92026 	 -4.19654
| 11> C 	 -95.9604 	 6.95348 	 -3.52561
| 12> H 	 -94.1722 	 8.04639 	 -4.21943
| 13> C 	 -95.3259 	 10.0151 	 -5.52891
| 14> H 	 -95.1425 	 9.61369 	 -6.45008
| 15> H 	 -94.3555 	 10.2351 	 -5.00091
| 16> C 	 -96.0532 	 11.4041 	 -5.66466
| 17> H 	 -97.1209 	 11.3325 	 -5.96546
| 18> H 	 -96.1935 	 11.9152 	 -4.66589
| 19> C 	 -95.3491 	 12.2703 	 -6.6866
| 20> H 	 -94.3548 	 12.4864 	 -6.26777
| 21> H 	 -95.3312 	 11.7624 	 -7.61176
| 22> H 	 -95.9578 	 13.1782 	 -6.85703
| 23> S 	 -96.1997 	 4.17448 	 -3.36153
| 24> C 	 -95.366 	 3.28112 	 -2.16601
| 25> C 	 -94.3909 	 4.04114 	 -1.59168
| 26> C 	 -94.4225 	 5.46035 	 -1.97826
| 27> C 	 -95.4529 	 5.70152 	 -2.90103
| 28> H 	 -93.7519 	 3.57543 	 -0.835327
| 29> C 	 -93.4954 	 6.53288 	 -1.38112
| 30> H 	 -94.0699 	 6.89798 	 -0.551368
| 31> H 	 -93.3938 	 7.39959 	 -2.14866
| 32> C 	 -92.0282 	 6.017 	 -1.08094
| 33> H 	 -91.5414 	 5.54741 	 -1.94628
| 34> H 	 -91.972 	 5.40998 	 -0.167663
| 35> C 	 -91.068 	 7.14503 	 -0.727604
| 36> H 	 -90.047 	 6.75193 	 -0.482477
| 37> H 	 -91.6209 	 7.61597 	 0.0868671
| 38> H 	 -90.8413 	 7.84 	 -1.56365
| 39> H 	 -98.1391 	 9.22537 	 -5.11429
| 40> H 	 -95.4881 	 2.17908 	 -2.01942
| 41> *
| 42>
| 43>                          ****END OF INPUT****

CARTESIAN COORDINATES (ANGSTROEM)
---------------------------------
  S    -97.694900    7.164250   -3.821180
  C    -97.374900    8.623850   -4.718970
  C    -96.070300    8.949440   -4.811770
  C    -95.244600    7.920260   -4.196540
  C    -95.960400    6.953480   -3.525610
  H    -94.172200    8.046390   -4.219430
  C    -95.325900   10.015100   -5.528910
  H    -95.142500    9.613690   -6.450080
  H    -94.355500   10.235100   -5.000910
  C    -96.053200   11.404100   -5.664660
  H    -97.120900   11.332500   -5.965460
  H    -96.193500   11.915200   -4.665890
  C    -95.349100   12.270300   -6.686600
  H    -94.354800   12.486400   -6.267770
  H    -95.331200   11.762400   -7.611760
  H    -95.957800   13.178200   -6.857030
  S    -96.199700    4.174480   -3.361530
  C    -95.366000    3.281120   -2.166010
  C    -94.390900    4.041140   -1.591680
  C    -94.422500    5.460350   -1.978260
  C    -95.452900    5.701520   -2.901030
  H    -93.751900    3.575430   -0.835327
  C    -93.495400    6.532880   -1.381120
  H    -94.069900    6.897980   -0.551368
  H    -93.393800    7.399590   -2.148660
  C    -92.028200    6.017000   -1.080940
  H    -91.541400    5.547410   -1.946280
  H    -91.972000    5.409980   -0.167663
  C    -91.068000    7.145030   -0.727604
  H    -90.047000    6.751930   -0.482477
  H    -91.620900    7.615970    0.086867
  H    -90.841300    7.840000   -1.563650
  H    -98.139100    9.225370   -5.114290
  H    -95.488100    2.179080   -2.019420

 Total Charge           Charge          ....    0
 Multiplicity           Mult            ....    1
 Number of Electrons    NEL             ....  134
 Basis Dimension        Dim             ....  322

ORBITAL ENERGIES
----------------

  NO   OCC          E(Eh)            E(eV)
   0   2.0000     -88.964854     -2420.8568
   1   2.0000     -88.960006     -2420.7248
   2   2.0000     -10.333412      -281.1864
   3   2.0000     -10.328380      -281.0495
   4   2.0000     -10.314390      -280.6688
   5   2.0000     -10.309213      -280.5280
   6   2.0000     -10.306681      -280.4590
   7   2.0000     -10.304210      -280.3918
   8   2.0000     -10.295429      -280.1529
   9   2.0000     -10.294102      -280.1168
  10   2.0000     -10.293425      -280.0983
  11   2.0000     -10.293233      -280.0931
  12   2.0000     -10.293070      -280.0887
  13   2.0000     -10.292445      -280.0717
  14   2.0000     -10.281967      -279.7865
  15   2.0000     -10.278544      -279.6934
  16   2.0000      -8.079477      -219.8538
  17   2.0000      -8.075451      -219.7442
  18   2.0000      -6.038118      -164.3055
  19   2.0000      -6.034122      -164.1968
  20   2.0000      -6.033989      -164.1932
  21   2.0000      -6.029982      -164.0842
  22   2.0000      -6.029783      -164.0787
  23   2.0000      -6.026205      -163.9814
  24   2.0000      -1.003291       -27.3009
  25   2.0000      -0.984014       -26.7764
  26   2.0000      -0.913709       -24.8633
  27   2.0000      -0.904500       -24.6127
  28   2.0000      -0.868617       -23.6363
  29   2.0000      -0.855385       -23.2762
  30   2.0000      -0.845419       -23.0050
  31   2.0000      -0.813651       -22.1406
  32   2.0000      -0.780566       -21.2403
  33   2.0000      -0.768861       -20.9218
  34   2.0000      -0.708418       -19.2770
  35   2.0000      -0.694918       -18.9097
  36   2.0000      -0.688642       -18.7389
  37   2.0000      -0.651175       -17.7194
  38   2.0000      -0.635742       -17.2994
  39   2.0000      -0.619868       -16.8675
  40   2.0000      -0.591087       -16.0843
  41   2.0000      -0.575730       -15.6664
  42   2.0000      -0.574664       -15.6374
  43   2.0000      -0.563204       -15.3256
  44   2.0000      -0.534145       -14.5348
  45   2.0000      -0.524805       -14.2807
  46   2.0000      -0.521437       -14.1890
  47   2.0000      -0.512965       -13.9585
  48   2.0000      -0.500722       -13.6253
  49   2.0000      -0.500347       -13.6151
  50   2.0000      -0.487719       -13.2715
  51   2.0000      -0.481075       -13.0907
  52   2.0000      -0.468995       -12.7620
  53   2.0000      -0.462857       -12.5950
  54   2.0000      -0.457733       -12.4556
  55   2.0000      -0.453110       -12.3298
  56   2.0000      -0.449498       -12.2315
  57   2.0000      -0.435080       -11.8391
  58   2.0000      -0.428988       -11.6734
  59   2.0000      -0.419987       -11.4284
  60   2.0000      -0.417317       -11.3558
  61   2.0000      -0.413893       -11.2626
  62   2.0000      -0.410566       -11.1721
  63   2.0000      -0.351200        -9.5566
  64   2.0000      -0.327893        -8.9224
  65   2.0000      -0.324364        -8.8264
  66   2.0000      -0.293017        -7.9734
  67   0.0000       0.032282         0.8784
  68   0.0000       0.079863         2.1732
  69   0.0000       0.110794         3.0149
  70   0.0000       0.121342         3.3019
  71   0.0000       0.133707         3.6383

MULLIKEN ATOMIC CHARGES
-----------------------
   0 S :    0.105307
   1 C :   -0.118533
   2 C :   -0.063911
   3 C :    0.011368
   4 C :   -0.129984
   5 H :    0.013354
   6 C :    0.078080
   7 H :    0.023785
   8 H :    0.039771
   9 C :   -0.136746
  10 H :    0.023418
  11 H :    0.040268
  12 C :   -0.015965
  13 H :    0.035947
  14 H :    0.025032
  15 H :    0.035895
  16 S :    0.101355
  17 C :   -0.109793
  18 C :   -0.042748
  19 C :   -0.047622
  20 C :   -0.150564
  21 H :    0.024766
  22 C :    0.049759
  23 H :    0.047815
  24 H :    0.033945
  25 C :   -0.087799
  26 H :    0.041567
  27 H :    0.040291
  28 C :   -0.077868
  29 H :    0.041071
  30 H :    0.035154
  31 H :    0.034002
  32 H :    0.023005
  33 H :    0.076578
Sum of atomic charges:   -0.0000000

LOEWDIN ATOMIC CHARGES
----------------------
   0 S :    0.395415
   1 C :   -0.189523
   2 C :   -0.063492
   3 C :   -0.056234
   4 C :   -0.183280
   5 H :    0.026204
   6 C :   -0.024532
   7 H :    0.024640
   8 H :    0.039534
   9 C :   -0.049833
  10 H :    0.019873
  11 H :    0.028996
  12 C :   -0.060684
  13 H :    0.027674
  14 H :    0.019462
  15 H :    0.030957
  16 S :    0.408449
  17 C :   -0.205485
  18 C :   -0.080548
  19 C :   -0.055360
  20 C :   -0.200842
  21 H :    0.032645
  22 C :   -0.034113
  23 H :    0.035354
  24 H :    0.039539
  25 C :   -0.044413
  26 H :    0.028245
  27 H :    0.026981
  28 C :   -0.071877
  29 H :    0.030510
  30 H :    0.025482
  31 H :    0.021912
  32 H :    0.016110
  33 H :    0.042234

  Mayer bond orders larger than 0.100000
B(  0-S ,  1-C ) :   1.1211 B(  0-S ,  4-C ) :   1.1370 B(  1-C ,  2-C ) :   1.6506
B(  1-C , 32-H ) :   0.9692 B(  2-C ,  3-C ) :   1.2281 B(  2-C ,  6-C ) :   1.0087
B(  3-C ,  4-C ) :   1.5928 B(  3-C ,  5-H ) :   0.9862 B(  4-C , 20-C ) :   1.0300
B(  6-C ,  7-H ) :   0.9362 B(  6-C ,  8-H ) :   0.9418 B(  6-C ,  9-C ) :   1.0532
B(  9-C , 10-H ) :   0.9557 B(  9-C , 11-H ) :   0.9590 B(  9-C , 12-C ) :   1.0858
B( 12-C , 13-H ) :   0.9738 B( 12-C , 14-H ) :   0.9756 B( 12-C , 15-H ) :   0.9716
B( 16-S , 17-C ) :   1.1577 B( 16-S , 20-C ) :   1.1448 B( 17-C , 18-C ) :   1.6182
B( 17-C , 33-H ) :   0.9601 B( 18-C , 19-C ) :   1.2258 B( 18-C , 21-H ) :   0.9897
B( 19-C , 20-C ) :   1.6052 B( 19-C , 22-C ) :   1.0297 B( 22-C , 23-H ) :   0.9275
B( 22-C , 24-H ) :   0.9434 B( 22-C , 25-C ) :   1.0583 B( 25-C , 26-H ) :   0.9628
B( 25-C , 27-H ) :   0.9514 B( 25-C , 28-C ) :   1.0797 B( 28-C , 29-H ) :   0.9742
B( 28-C , 30-H ) :   0.9770 B( 28-C , 31-H ) :   0.9754

Dispersion correction           -0.013028890
FINAL SINGLE POINT ENERGY     -1339.869598463599

DIPOLE MOMENT
-------------
                                X             Y             Z
Electronic contribution:    -20.36845     -22.09816       0.16597
Nuclear contribution   :     20.93613      22.48490      -0.18656
                        -----------------------------------------
Total Dipole Moment    :      0.56768       0.38674      -0.02059
                        -----------------------------------------
Magnitude (a.u.)       :      0.68721
Magnitude (Debye)      :      1.74674

Rotational constants in cm-1:     0.018069     0.007698     0.005654
Rotational constants in MHz :   541.704521   230.782598   169.498982

                             ****ORCA TERMINATED NORMALLY****
TOTAL RUN TIME: 0 days 0 hours 0 minutes 20 seconds 619 msec
