                         Program Version 4.2.1 -  RELEASE  -
|  1> ! wB97X-D3 SP def2-SVP
|  2> %pal
|  3> nprocs 24
|  4> end
|  5>
|  6> * xyz 0 1
|  7> S 	 -113.867 	 38.0581 	 -119.274
|  8> C 	 -113.257 	 36.4594 	 -119.89
|  9> C 	 -114.24 	 35.4859 	 -119.78
| 10> C 	 -115.509 	 36.0844 	 -119.358
| 11> C 	 -115.516 	 37.4216 	 -119.133
| 12> H 	 -116.415 	 35.4817 	 -119.13
| 13> C 	 -113.964 	 34.0465 	 -120.093
| 14> H 	 -113.16 	 33.7149 	 -119.528
| 15> H 	 -113.649 	 33.9801 	 -121.165
| 16> C 	 -115.175 	 33.0879 	 -119.948
| 17> H 	 -115.61 	 33.2361 	 -119.008
| 18> H 	 -115.94 	 33.4119 	 -120.672
| 19> C 	 -114.896 	 31.5916 	 -120.074
| 20> H 	 -114.109 	 31.2574 	 -120.727
| 21> H 	 -114.467 	 31.319 	 -119.153
| 22> H 	 -115.752 	 31.0044 	 -120.366
| 23> S 	 -117.336 	 38.8993 	 -120.175
| 24> C 	 -118.734 	 39.4648 	 -119.196
| 25> C 	 -118.776 	 38.9277 	 -117.957
| 26> C 	 -117.537 	 38.1873 	 -117.671
| 27> C 	 -116.692 	 38.1914 	 -118.759
| 28> H 	 -119.572 	 39.2239 	 -117.293
| 29> C 	 -117.263 	 37.4741 	 -116.354
| 30> H 	 -117.17 	 38.2142 	 -115.541
| 31> H 	 -116.325 	 36.9161 	 -116.409
| 32> C 	 -118.443 	 36.5911 	 -115.945
| 33> H 	 -118.719 	 35.9549 	 -116.811
| 34> H 	 -119.344 	 37.1419 	 -115.606
| 35> C 	 -118.007 	 35.6429 	 -114.906
| 36> H 	 -118.853 	 34.9909 	 -114.794
| 37> H 	 -117.941 	 36.2075 	 -114.03
| 38> H 	 -117.098 	 35.1004 	 -115.084
| 39> H 	 -112.324 	 36.2061 	 -120.195
| 40> H 	 -119.499 	 40.0772 	 -119.661
| 41> *
| 42>
| 43>                          ****END OF INPUT****

CARTESIAN COORDINATES (ANGSTROEM)
---------------------------------
  S    -113.867000   38.058100  -119.274000
  C    -113.257000   36.459400  -119.890000
  C    -114.240000   35.485900  -119.780000
  C    -115.509000   36.084400  -119.358000
  C    -115.516000   37.421600  -119.133000
  H    -116.415000   35.481700  -119.130000
  C    -113.964000   34.046500  -120.093000
  H    -113.160000   33.714900  -119.528000
  H    -113.649000   33.980100  -121.165000
  C    -115.175000   33.087900  -119.948000
  H    -115.610000   33.236100  -119.008000
  H    -115.940000   33.411900  -120.672000
  C    -114.896000   31.591600  -120.074000
  H    -114.109000   31.257400  -120.727000
  H    -114.467000   31.319000  -119.153000
  H    -115.752000   31.004400  -120.366000
  S    -117.336000   38.899300  -120.175000
  C    -118.734000   39.464800  -119.196000
  C    -118.776000   38.927700  -117.957000
  C    -117.537000   38.187300  -117.671000
  C    -116.692000   38.191400  -118.759000
  H    -119.572000   39.223900  -117.293000
  C    -117.263000   37.474100  -116.354000
  H    -117.170000   38.214200  -115.541000
  H    -116.325000   36.916100  -116.409000
  C    -118.443000   36.591100  -115.945000
  H    -118.719000   35.954900  -116.811000
  H    -119.344000   37.141900  -115.606000
  C    -118.007000   35.642900  -114.906000
  H    -118.853000   34.990900  -114.794000
  H    -117.941000   36.207500  -114.030000
  H    -117.098000   35.100400  -115.084000
  H    -112.324000   36.206100  -120.195000
  H    -119.499000   40.077200  -119.661000

 Total Charge           Charge          ....    0
 Multiplicity           Mult            ....    1
 Number of Electrons    NEL             ....  134
 Basis Dimension        Dim             ....  322

ORBITAL ENERGIES
----------------

  NO   OCC          E(Eh)            E(eV)
   0   2.0000     -88.963828     -2420.8288
   1   2.0000     -88.958426     -2420.6818
   2   2.0000     -10.326183      -280.9897
   3   2.0000     -10.319201      -280.7997
   4   2.0000     -10.316419      -280.7240
   5   2.0000     -10.309793      -280.5437
   6   2.0000     -10.307510      -280.4816
   7   2.0000     -10.302976      -280.3582
   8   2.0000     -10.296673      -280.1867
   9   2.0000     -10.294659      -280.1319
  10   2.0000     -10.291577      -280.0481
  11   2.0000     -10.291510      -280.0462
  12   2.0000     -10.285025      -279.8698
  13   2.0000     -10.284208      -279.8475
  14   2.0000     -10.273135      -279.5462
  15   2.0000     -10.264792      -279.3192
  16   2.0000      -8.076998      -219.7863
  17   2.0000      -8.073973      -219.7040
  18   2.0000      -6.035789      -164.2422
  19   2.0000      -6.032518      -164.1532
  20   2.0000      -6.031840      -164.1347
  21   2.0000      -6.028532      -164.0447
  22   2.0000      -6.027421      -164.0145
  23   2.0000      -6.024455      -163.9337
  24   2.0000      -1.004779       -27.3414
  25   2.0000      -0.975501       -26.5447
  26   2.0000      -0.919105       -25.0101
  27   2.0000      -0.912448       -24.8290
  28   2.0000      -0.874585       -23.7987
  29   2.0000      -0.852207       -23.1897
  30   2.0000      -0.843165       -22.9437
  31   2.0000      -0.818483       -22.2720
  32   2.0000      -0.783126       -21.3099
  33   2.0000      -0.771235       -20.9864
  34   2.0000      -0.715251       -19.4630
  35   2.0000      -0.696185       -18.9441
  36   2.0000      -0.692016       -18.8307
  37   2.0000      -0.658677       -17.9235
  38   2.0000      -0.641283       -17.4502
  39   2.0000      -0.612488       -16.6666
  40   2.0000      -0.597429       -16.2569
  41   2.0000      -0.579039       -15.7565
  42   2.0000      -0.575286       -15.6543
  43   2.0000      -0.565351       -15.3840
  44   2.0000      -0.533115       -14.5068
  45   2.0000      -0.530500       -14.4356
  46   2.0000      -0.520135       -14.1536
  47   2.0000      -0.510561       -13.8931
  48   2.0000      -0.503998       -13.7145
  49   2.0000      -0.501742       -13.6531
  50   2.0000      -0.489397       -13.3172
  51   2.0000      -0.480763       -13.0822
  52   2.0000      -0.472486       -12.8570
  53   2.0000      -0.466807       -12.7025
  54   2.0000      -0.454114       -12.3571
  55   2.0000      -0.452932       -12.3249
  56   2.0000      -0.446876       -12.1601
  57   2.0000      -0.440034       -11.9739
  58   2.0000      -0.429143       -11.6776
  59   2.0000      -0.422136       -11.4869
  60   2.0000      -0.417629       -11.3643
  61   2.0000      -0.415392       -11.3034
  62   2.0000      -0.414220       -11.2715
  63   2.0000      -0.340274        -9.2593
  64   2.0000      -0.324985        -8.8433
  65   2.0000      -0.315925        -8.5967
  66   2.0000      -0.308901        -8.4056
  67   0.0000       0.043972         1.1965
  68   0.0000       0.060589         1.6487
  69   0.0000       0.110138         2.9970
  70   0.0000       0.113426         3.0865
  71   0.0000       0.123004         3.3471

MULLIKEN ATOMIC CHARGES
-----------------------
   0 S :    0.102018
   1 C :   -0.072632
   2 C :   -0.099734
   3 C :    0.027117
   4 C :   -0.166705
   5 H :    0.024478
   6 C :    0.075313
   7 H :    0.017905
   8 H :    0.045131
   9 C :   -0.098023
  10 H :    0.020868
  11 H :    0.034788
  12 C :   -0.000546
  13 H :    0.013974
  14 H :    0.013970
  15 H :    0.038689
  16 S :    0.096351
  17 C :   -0.090854
  18 C :   -0.020678
  19 C :   -0.023723
  20 C :   -0.168380
  21 H :    0.025508
  22 C :    0.084911
  23 H :    0.030984
  24 H :    0.028694
  25 C :   -0.142200
  26 H :    0.030579
  27 H :    0.039837
  28 C :    0.020036
  29 H :    0.022010
  30 H :    0.006643
  31 H :    0.032799
  32 H :   -0.004032
  33 H :    0.054902
Sum of atomic charges:    0.0000000

LOEWDIN ATOMIC CHARGES
----------------------
   0 S :    0.366175
   1 C :   -0.160352
   2 C :   -0.055417
   3 C :   -0.069901
   4 C :   -0.202717
   5 H :    0.035631
   6 C :   -0.029267
   7 H :    0.021200
   8 H :    0.043058
   9 C :   -0.038330
  10 H :    0.014599
  11 H :    0.026174
  12 C :   -0.062249
  13 H :    0.023189
  14 H :    0.021787
  15 H :    0.030148
  16 S :    0.402192
  17 C :   -0.158853
  18 C :   -0.068523
  19 C :   -0.047086
  20 C :   -0.211491
  21 H :    0.034801
  22 C :   -0.030188
  23 H :    0.034127
  24 H :    0.031722
  25 C :   -0.044770
  26 H :    0.022870
  27 H :    0.028171
  28 C :   -0.055007
  29 H :    0.026450
  30 H :    0.016862
  31 H :    0.024044
  32 H :    0.005868
  33 H :    0.025084

  Mayer bond orders larger than 0.100000
B(  0-S ,  1-C ) :   1.1156 B(  0-S ,  4-C ) :   1.1208 B(  1-C ,  2-C ) :   1.6512
B(  1-C , 32-H ) :   0.9823 B(  2-C ,  3-C ) :   1.2113 B(  2-C ,  6-C ) :   1.0107
B(  3-C ,  4-C ) :   1.6168 B(  3-C ,  5-H ) :   0.9870 B(  4-C , 20-C ) :   0.9895
B(  6-C ,  7-H ) :   0.9382 B(  6-C ,  8-H ) :   0.9327 B(  6-C ,  9-C ) :   1.0876
B(  9-C , 10-H ) :   0.9549 B(  9-C , 11-H ) :   0.9551 B(  9-C , 12-C ) :   1.0746
B( 12-C , 13-H ) :   0.9749 B( 12-C , 14-H ) :   0.9731 B( 12-C , 15-H ) :   0.9739
B( 16-S , 17-C ) :   1.1305 B( 16-S , 20-C ) :   1.1482 B( 17-C , 18-C ) :   1.6717
B( 17-C , 33-H ) :   0.9676 B( 18-C , 19-C ) :   1.1658 B( 18-C , 21-H ) :   0.9911
B( 19-C , 20-C ) :   1.6603 B( 19-C , 22-C ) :   1.0515 B( 22-C , 23-H ) :   0.9237
B( 22-C , 24-H ) :   0.9418 B( 22-C , 25-C ) :   1.0614 B( 25-C , 26-H ) :   0.9618
B( 25-C , 27-H ) :   0.9457 B( 25-C , 28-C ) :   1.0984 B( 28-C , 29-H ) :   0.9696
B( 28-C , 30-H ) :   0.9663 B( 28-C , 31-H ) :   0.9738

Dispersion correction           -0.013798433
FINAL SINGLE POINT ENERGY     -1339.856868703058

DIPOLE MOMENT
-------------
                                X             Y             Z
Electronic contribution:      5.09626      26.59339     -11.84692
Nuclear contribution   :     -5.42157     -27.25818      12.21202
                        -----------------------------------------
Total Dipole Moment    :     -0.32530      -0.66478       0.36510
                        -----------------------------------------
Magnitude (a.u.)       :      0.82526
Magnitude (Debye)      :      2.09765

Rotational constants in cm-1:     0.015737     0.009020     0.007020
Rotational constants in MHz :   471.783310   270.414299   210.457654

                             ****ORCA TERMINATED NORMALLY****
TOTAL RUN TIME: 0 days 0 hours 0 minutes 21 seconds 500 msec
