                         Program Version 4.2.1 -  RELEASE  -
|  1> ! wB97X-D3 SP def2-SVP
|  2> %pal
|  3> nprocs 24
|  4> end
|  5>
|  6> * xyz 0 1
|  7> S 	 -94.5799 	 5.58226 	 -1.62328
|  8> C 	 -92.8766 	 5.36607 	 -1.19062
|  9> C 	 -92.4681 	 6.34815 	 -0.352698
| 10> C 	 -93.4719 	 7.38974 	 -0.194334
| 11> C 	 -94.6272 	 7.21329 	 -0.91454
| 12> H 	 -93.2918 	 8.2842 	 0.420946
| 13> C 	 -91.1053 	 6.3012 	 0.428084
| 14> H 	 -90.5714 	 7.24344 	 0.0850413
| 15> H 	 -90.4303 	 5.4805 	 0.106843
| 16> C 	 -91.2419 	 6.28774 	 1.98109
| 17> H 	 -91.7793 	 7.23684 	 2.19411
| 18> H 	 -91.7265 	 5.42063 	 2.35202
| 19> C 	 -89.9235 	 6.40603 	 2.65187
| 20> H 	 -90.0794 	 6.73644 	 3.66355
| 21> H 	 -89.2786 	 5.60436 	 2.64272
| 22> H 	 -89.2661 	 7.08822 	 2.09142
| 23> S 	 -97.3537 	 7.61825 	 -1.02188
| 24> C 	 -97.9828 	 9.19493 	 -1.41753
| 25> C 	 -96.9406 	 10.0443 	 -1.69015
| 26> C 	 -95.6092 	 9.5836 	 -1.45814
| 27> C 	 -95.6586 	 8.21178 	 -1.16684
| 28> H 	 -97.1921 	 11.0639 	 -2.11454
| 29> C 	 -94.3249 	 10.343 	 -1.83112
| 30> H 	 -94.3536 	 10.5612 	 -2.84387
| 31> H 	 -93.4039 	 9.78484 	 -1.69435
| 32> C 	 -94.0856 	 11.6709 	 -1.09573
| 33> H 	 -94.8568 	 12.3111 	 -1.30541
| 34> H 	 -93.2785 	 12.2309 	 -1.59546
| 35> C 	 -93.8967 	 11.5349 	 0.407623
| 36> H 	 -93.7426 	 12.5208 	 0.861444
| 37> H 	 -92.9952 	 10.9292 	 0.527373
| 38> H 	 -94.727 	 11.0299 	 0.89428
| 39> H 	 -92.2757 	 4.51134 	 -1.39473
| 40> H 	 -99.0457 	 9.35614 	 -1.5027
| 41> *
| 42>
| 43>                          ****END OF INPUT****

CARTESIAN COORDINATES (ANGSTROEM)
---------------------------------
  S    -94.579900    5.582260   -1.623280
  C    -92.876600    5.366070   -1.190620
  C    -92.468100    6.348150   -0.352698
  C    -93.471900    7.389740   -0.194334
  C    -94.627200    7.213290   -0.914540
  H    -93.291800    8.284200    0.420946
  C    -91.105300    6.301200    0.428084
  H    -90.571400    7.243440    0.085041
  H    -90.430300    5.480500    0.106843
  C    -91.241900    6.287740    1.981090
  H    -91.779300    7.236840    2.194110
  H    -91.726500    5.420630    2.352020
  C    -89.923500    6.406030    2.651870
  H    -90.079400    6.736440    3.663550
  H    -89.278600    5.604360    2.642720
  H    -89.266100    7.088220    2.091420
  S    -97.353700    7.618250   -1.021880
  C    -97.982800    9.194930   -1.417530
  C    -96.940600   10.044300   -1.690150
  C    -95.609200    9.583600   -1.458140
  C    -95.658600    8.211780   -1.166840
  H    -97.192100   11.063900   -2.114540
  C    -94.324900   10.343000   -1.831120
  H    -94.353600   10.561200   -2.843870
  H    -93.403900    9.784840   -1.694350
  C    -94.085600   11.670900   -1.095730
  H    -94.856800   12.311100   -1.305410
  H    -93.278500   12.230900   -1.595460
  C    -93.896700   11.534900    0.407623
  H    -93.742600   12.520800    0.861444
  H    -92.995200   10.929200    0.527373
  H    -94.727000   11.029900    0.894280
  H    -92.275700    4.511340   -1.394730
  H    -99.045700    9.356140   -1.502700

 Total Charge           Charge          ....    0
 Multiplicity           Mult            ....    1
 Number of Electrons    NEL             ....  134
 Basis Dimension        Dim             ....  322

ORBITAL ENERGIES
----------------

  NO   OCC          E(Eh)            E(eV)
   0   2.0000     -88.963636     -2420.8236
   1   2.0000     -88.962234     -2420.7855
   2   2.0000     -10.335397      -281.2404
   3   2.0000     -10.331977      -281.1474
   4   2.0000     -10.319567      -280.8097
   5   2.0000     -10.313083      -280.6333
   6   2.0000     -10.310975      -280.5759
   7   2.0000     -10.304441      -280.3981
   8   2.0000     -10.302568      -280.3471
   9   2.0000     -10.301181      -280.3094
  10   2.0000     -10.297134      -280.1993
  11   2.0000     -10.289111      -279.9809
  12   2.0000     -10.286420      -279.9077
  13   2.0000     -10.278525      -279.6929
  14   2.0000     -10.277036      -279.6524
  15   2.0000     -10.267949      -279.4051
  16   2.0000      -8.078157      -219.8178
  17   2.0000      -8.076470      -219.7719
  18   2.0000      -6.036681      -164.2665
  19   2.0000      -6.035251      -164.2275
  20   2.0000      -6.032692      -164.1579
  21   2.0000      -6.031227      -164.1180
  22   2.0000      -6.028928      -164.0555
  23   2.0000      -6.026764      -163.9966
  24   2.0000      -1.001979       -27.2652
  25   2.0000      -0.980803       -26.6890
  26   2.0000      -0.912446       -24.8289
  27   2.0000      -0.910954       -24.7883
  28   2.0000      -0.873216       -23.7614
  29   2.0000      -0.850877       -23.1535
  30   2.0000      -0.840455       -22.8700
  31   2.0000      -0.813141       -22.1267
  32   2.0000      -0.787203       -21.4209
  33   2.0000      -0.773984       -21.0612
  34   2.0000      -0.711336       -19.3564
  35   2.0000      -0.701179       -19.0800
  36   2.0000      -0.696535       -18.9537
  37   2.0000      -0.653770       -17.7900
  38   2.0000      -0.637973       -17.3601
  39   2.0000      -0.620610       -16.8877
  40   2.0000      -0.603431       -16.4202
  41   2.0000      -0.570234       -15.5169
  42   2.0000      -0.560376       -15.2486
  43   2.0000      -0.558606       -15.2005
  44   2.0000      -0.544167       -14.8075
  45   2.0000      -0.530824       -14.4444
  46   2.0000      -0.518427       -14.1071
  47   2.0000      -0.510977       -13.9044
  48   2.0000      -0.504132       -13.7181
  49   2.0000      -0.501425       -13.6445
  50   2.0000      -0.488738       -13.2992
  51   2.0000      -0.483317       -13.1517
  52   2.0000      -0.472501       -12.8574
  53   2.0000      -0.466056       -12.6820
  54   2.0000      -0.456023       -12.4090
  55   2.0000      -0.449982       -12.2446
  56   2.0000      -0.439048       -11.9471
  57   2.0000      -0.438568       -11.9340
  58   2.0000      -0.433347       -11.7920
  59   2.0000      -0.424948       -11.5634
  60   2.0000      -0.419280       -11.4092
  61   2.0000      -0.416994       -11.3470
  62   2.0000      -0.409150       -11.1335
  63   2.0000      -0.352701        -9.5975
  64   2.0000      -0.333171        -9.0660
  65   2.0000      -0.326363        -8.8808
  66   2.0000      -0.291447        -7.9307
  67   0.0000       0.024650         0.6708
  68   0.0000       0.071457         1.9444
  69   0.0000       0.109017         2.9665
  70   0.0000       0.120248         3.2721
  71   0.0000       0.126432         3.4404

MULLIKEN ATOMIC CHARGES
-----------------------
   0 S :    0.092836
   1 C :   -0.110088
   2 C :   -0.069696
   3 C :    0.005562
   4 C :   -0.108553
   5 H :    0.016203
   6 C :    0.002218
   7 H :    0.039008
   8 H :    0.025365
   9 C :   -0.050421
  10 H :    0.034279
  11 H :    0.036183
  12 C :   -0.008797
  13 H :    0.035940
  14 H :    0.006549
  15 H :    0.007185
  16 S :    0.084569
  17 C :   -0.085381
  18 C :   -0.057958
  19 C :   -0.012294
  20 C :   -0.169555
  21 H :    0.039242
  22 C :    0.088153
  23 H :    0.020147
  24 H :    0.024867
  25 C :   -0.068848
  26 H :   -0.003754
  27 H :    0.020620
  28 C :   -0.045248
  29 H :    0.037873
  30 H :    0.026561
  31 H :    0.048413
  32 H :    0.035881
  33 H :    0.062939
Sum of atomic charges:   -0.0000000

LOEWDIN ATOMIC CHARGES
----------------------
   0 S :    0.373143
   1 C :   -0.181361
   2 C :   -0.066900
   3 C :   -0.066412
   4 C :   -0.185770
   5 H :    0.030733
   6 C :   -0.034055
   7 H :    0.034674
   8 H :    0.027045
   9 C :   -0.035507
  10 H :    0.030921
  11 H :    0.023747
  12 C :   -0.063133
  13 H :    0.028718
  14 H :    0.012867
  15 H :    0.026690
  16 S :    0.382461
  17 C :   -0.182877
  18 C :   -0.078764
  19 C :   -0.052512
  20 C :   -0.170507
  21 H :    0.039327
  22 C :   -0.018588
  23 H :    0.027074
  24 H :    0.031308
  25 C :   -0.040333
  26 H :    0.006183
  27 H :    0.027986
  28 C :   -0.062460
  29 H :    0.029469
  30 H :    0.022400
  31 H :    0.028355
  32 H :    0.025414
  33 H :    0.030664

  Mayer bond orders larger than 0.100000
B(  0-S ,  1-C ) :   1.1137 B(  0-S ,  4-C ) :   1.1221 B(  1-C ,  2-C ) :   1.6616
B(  1-C , 32-H ) :   0.9697 B(  2-C ,  3-C ) :   1.2078 B(  2-C ,  6-C ) :   1.0084
B(  3-C ,  4-C ) :   1.5947 B(  3-C ,  5-H ) :   0.9920 B(  4-C , 20-C ) :   1.0505
B(  6-C ,  7-H ) :   0.9400 B(  6-C ,  8-H ) :   0.9524 B(  6-C ,  9-C ) :   1.0645
B(  9-C , 10-H ) :   0.9524 B(  9-C , 11-H ) :   0.9574 B(  9-C , 12-C ) :   1.0913
B( 12-C , 13-H ) :   0.9717 B( 12-C , 14-H ) :   0.9708 B( 12-C , 15-H ) :   0.9658
B( 16-S , 17-C ) :   1.1444 B( 16-S , 20-C ) :   1.1432 B( 17-C , 18-C ) :   1.6158
B( 17-C , 20-C ) :   0.1038 B( 17-C , 33-H ) :   0.9726 B( 18-C , 19-C ) :   1.2256
B( 18-C , 21-H ) :   0.9759 B( 19-C , 20-C ) :   1.5816 B( 19-C , 22-C ) :   1.0322
B( 22-C , 23-H ) :   0.9333 B( 22-C , 24-H ) :   0.9424 B( 22-C , 25-C ) :   1.0773
B( 25-C , 26-H ) :   0.9523 B( 25-C , 27-H ) :   0.9513 B( 25-C , 28-C ) :   1.0756
B( 28-C , 29-H ) :   0.9713 B( 28-C , 30-H ) :   0.9726 B( 28-C , 31-H ) :   0.9741

Dispersion correction           -0.014241125
FINAL SINGLE POINT ENERGY     -1339.871282324913

DIPOLE MOMENT
-------------
                                X             Y             Z
Electronic contribution:    -23.78528     -14.11792     -13.32364
Nuclear contribution   :     24.29894      14.62679      13.44190
                        -----------------------------------------
Total Dipole Moment    :      0.51366       0.50887       0.11826
                        -----------------------------------------
Magnitude (a.u.)       :      0.73266
Magnitude (Debye)      :      1.86227

Rotational constants in cm-1:     0.018090     0.008698     0.006581
Rotational constants in MHz :   542.316830   260.759801   197.306929

                             ****ORCA TERMINATED NORMALLY****
TOTAL RUN TIME: 0 days 0 hours 0 minutes 21 seconds 626 msec
