                         Program Version 4.2.1 -  RELEASE  -
|  1> ! wB97X-D3 SP def2-SVP
|  2> %pal
|  3> nprocs 24
|  4> end
|  5>
|  6> * xyz 0 1
|  7> S 	 -49.9823 	 -46.7153 	 -80.9257
|  8> C 	 -50.911 	 -45.76 	 -82.0716
|  9> C 	 -51.054 	 -44.4658 	 -81.6901
| 10> C 	 -50.4878 	 -44.2699 	 -80.3654
| 11> C 	 -49.7928 	 -45.3303 	 -79.807
| 12> H 	 -50.6689 	 -43.3678 	 -79.7631
| 13> C 	 -51.7553 	 -43.3652 	 -82.499
| 14> H 	 -52.5518 	 -42.7486 	 -81.9774
| 15> H 	 -52.1886 	 -43.8873 	 -83.3285
| 16> C 	 -50.9469 	 -42.2578 	 -83.1623
| 17> H 	 -50.1193 	 -42.6538 	 -83.748
| 18> H 	 -51.746 	 -41.8984 	 -83.8848
| 19> C 	 -50.466 	 -41.1542 	 -82.1833
| 20> H 	 -49.7442 	 -41.3561 	 -81.3068
| 21> H 	 -49.9843 	 -40.2684 	 -82.7139
| 22> H 	 -51.3633 	 -40.6985 	 -81.7524
| 23> S 	 -50.048 	 -45.6997 	 -77.0663
| 24> C 	 -48.5631 	 -45.9295 	 -76.1323
| 25> C 	 -47.4642 	 -45.6131 	 -76.8637
| 26> C 	 -47.6765 	 -45.5244 	 -78.2657
| 27> C 	 -49.0603 	 -45.3522 	 -78.5187
| 28> H 	 -46.5903 	 -45.6545 	 -76.211
| 29> C 	 -46.5711 	 -45.3847 	 -79.265
| 30> H 	 -46.6699 	 -46.0186 	 -80.1903
| 31> H 	 -45.5905 	 -45.9134 	 -78.924
| 32> C 	 -46.3473 	 -43.953 	 -79.7063
| 33> H 	 -46.4777 	 -43.3108 	 -78.8281
| 34> H 	 -47.0704 	 -43.6679 	 -80.4864
| 35> C 	 -44.9768 	 -43.6516 	 -80.3633
| 36> H 	 -44.1254 	 -43.4168 	 -79.6999
| 37> H 	 -45.0381 	 -42.7465 	 -80.9519
| 38> H 	 -44.5767 	 -44.501 	 -80.9758
| 39> H 	 -51.1277 	 -46.1873 	 -83.0346
| 40> H 	 -48.3975 	 -46.1686 	 -75.1212
| 41> *
| 42>
| 43>                          ****END OF INPUT****

CARTESIAN COORDINATES (ANGSTROEM)
---------------------------------
  S    -49.982300  -46.715300  -80.925700
  C    -50.911000  -45.760000  -82.071600
  C    -51.054000  -44.465800  -81.690100
  C    -50.487800  -44.269900  -80.365400
  C    -49.792800  -45.330300  -79.807000
  H    -50.668900  -43.367800  -79.763100
  C    -51.755300  -43.365200  -82.499000
  H    -52.551800  -42.748600  -81.977400
  H    -52.188600  -43.887300  -83.328500
  C    -50.946900  -42.257800  -83.162300
  H    -50.119300  -42.653800  -83.748000
  H    -51.746000  -41.898400  -83.884800
  C    -50.466000  -41.154200  -82.183300
  H    -49.744200  -41.356100  -81.306800
  H    -49.984300  -40.268400  -82.713900
  H    -51.363300  -40.698500  -81.752400
  S    -50.048000  -45.699700  -77.066300
  C    -48.563100  -45.929500  -76.132300
  C    -47.464200  -45.613100  -76.863700
  C    -47.676500  -45.524400  -78.265700
  C    -49.060300  -45.352200  -78.518700
  H    -46.590300  -45.654500  -76.211000
  C    -46.571100  -45.384700  -79.265000
  H    -46.669900  -46.018600  -80.190300
  H    -45.590500  -45.913400  -78.924000
  C    -46.347300  -43.953000  -79.706300
  H    -46.477700  -43.310800  -78.828100
  H    -47.070400  -43.667900  -80.486400
  C    -44.976800  -43.651600  -80.363300
  H    -44.125400  -43.416800  -79.699900
  H    -45.038100  -42.746500  -80.951900
  H    -44.576700  -44.501000  -80.975800
  H    -51.127700  -46.187300  -83.034600
  H    -48.397500  -46.168600  -75.121200

 Total Charge           Charge          ....    0
 Multiplicity           Mult            ....    1
 Number of Electrons    NEL             ....  134
 Basis Dimension        Dim             ....  322

ORBITAL ENERGIES
----------------

  NO   OCC          E(Eh)            E(eV)
   0   2.0000     -88.968123     -2420.9457
   1   2.0000     -88.962196     -2420.7844
   2   2.0000     -10.334109      -281.2054
   3   2.0000     -10.332815      -281.1702
   4   2.0000     -10.314914      -280.6831
   5   2.0000     -10.313267      -280.6383
   6   2.0000     -10.313184      -280.6360
   7   2.0000     -10.303109      -280.3618
   8   2.0000     -10.299650      -280.2677
   9   2.0000     -10.296928      -280.1937
  10   2.0000     -10.296640      -280.1858
  11   2.0000     -10.295415      -280.1525
  12   2.0000     -10.291882      -280.0564
  13   2.0000     -10.290774      -280.0262
  14   2.0000     -10.286097      -279.8989
  15   2.0000     -10.279303      -279.7141
  16   2.0000      -8.081734      -219.9152
  17   2.0000      -8.076373      -219.7693
  18   2.0000      -6.040360      -164.3666
  19   2.0000      -6.036441      -164.2599
  20   2.0000      -6.035024      -164.2213
  21   2.0000      -6.032378      -164.1493
  22   2.0000      -6.030908      -164.1093
  23   2.0000      -6.027049      -164.0043
  24   2.0000      -0.999498       -27.1977
  25   2.0000      -0.981125       -26.6978
  26   2.0000      -0.909682       -24.7537
  27   2.0000      -0.906664       -24.6716
  28   2.0000      -0.869406       -23.6578
  29   2.0000      -0.846374       -23.0310
  30   2.0000      -0.837350       -22.7855
  31   2.0000      -0.817549       -22.2466
  32   2.0000      -0.782621       -21.2962
  33   2.0000      -0.771340       -20.9892
  34   2.0000      -0.708606       -19.2822
  35   2.0000      -0.692593       -18.8464
  36   2.0000      -0.689737       -18.7687
  37   2.0000      -0.653880       -17.7930
  38   2.0000      -0.639743       -17.4083
  39   2.0000      -0.616686       -16.7809
  40   2.0000      -0.598883       -16.2964
  41   2.0000      -0.580728       -15.8024
  42   2.0000      -0.552906       -15.0453
  43   2.0000      -0.546903       -14.8820
  44   2.0000      -0.533007       -14.5039
  45   2.0000      -0.521066       -14.1789
  46   2.0000      -0.517761       -14.0890
  47   2.0000      -0.504437       -13.7264
  48   2.0000      -0.501128       -13.6364
  49   2.0000      -0.491536       -13.3754
  50   2.0000      -0.489129       -13.3099
  51   2.0000      -0.484573       -13.1859
  52   2.0000      -0.468927       -12.7601
  53   2.0000      -0.458378       -12.4731
  54   2.0000      -0.453534       -12.3413
  55   2.0000      -0.443371       -12.0647
  56   2.0000      -0.437481       -11.9045
  57   2.0000      -0.431083       -11.7304
  58   2.0000      -0.428857       -11.6698
  59   2.0000      -0.428462       -11.6590
  60   2.0000      -0.424526       -11.5519
  61   2.0000      -0.413562       -11.2536
  62   2.0000      -0.403330       -10.9752
  63   2.0000      -0.337285        -9.1780
  64   2.0000      -0.329239        -8.9590
  65   2.0000      -0.323149        -8.7933
  66   2.0000      -0.307948        -8.3797
  67   0.0000       0.037494         1.0203
  68   0.0000       0.051813         1.4099
  69   0.0000       0.110638         3.0106
  70   0.0000       0.116913         3.1814
  71   0.0000       0.124692         3.3930

MULLIKEN ATOMIC CHARGES
-----------------------
   0 S :    0.098513
   1 C :   -0.133244
   2 C :   -0.052737
   3 C :    0.018954
   4 C :   -0.144617
   5 H :    0.023249
   6 C :    0.050987
   7 H :    0.039281
   8 H :    0.010328
   9 C :   -0.068931
  10 H :    0.031125
  11 H :    0.044100
  12 C :   -0.102869
  13 H :    0.061882
  14 H :    0.041166
  15 H :    0.022004
  16 S :    0.112459
  17 C :   -0.079956
  18 C :   -0.037137
  19 C :   -0.004539
  20 C :   -0.166550
  21 H :    0.021725
  22 C :    0.016088
  23 H :    0.034513
  24 H :    0.034301
  25 C :   -0.055831
  26 H :    0.035584
  27 H :    0.047129
  28 C :   -0.077569
  29 H :    0.029127
  30 H :    0.031169
  31 H :    0.034957
  32 H :    0.049361
  33 H :    0.035976
Sum of atomic charges:    0.0000000

LOEWDIN ATOMIC CHARGES
----------------------
   0 S :    0.379789
   1 C :   -0.181832
   2 C :   -0.070152
   3 C :   -0.060220
   4 C :   -0.192465
   5 H :    0.032825
   6 C :   -0.035432
   7 H :    0.038790
   8 H :    0.027215
   9 C :   -0.042329
  10 H :    0.020700
  11 H :    0.038021
  12 C :   -0.089945
  13 H :    0.037957
  14 H :    0.032888
  15 H :    0.021721
  16 S :    0.389417
  17 C :   -0.171807
  18 C :   -0.074100
  19 C :   -0.043139
  20 C :   -0.189769
  21 H :    0.036967
  22 C :   -0.051242
  23 H :    0.037143
  24 H :    0.039342
  25 C :   -0.040765
  26 H :    0.026559
  27 H :    0.032673
  28 C :   -0.076446
  29 H :    0.024644
  30 H :    0.025236
  31 H :    0.028535
  32 H :    0.025251
  33 H :    0.023970

  Mayer bond orders larger than 0.100000
B(  0-S ,  1-C ) :   1.1415 B(  0-S ,  4-C ) :   1.1173 B(  1-C ,  2-C ) :   1.6396
B(  1-C , 32-H ) :   0.9629 B(  2-C ,  3-C ) :   1.2147 B(  2-C ,  6-C ) :   1.0225
B(  3-C ,  4-C ) :   1.6142 B(  3-C ,  5-H ) :   0.9856 B(  4-C , 20-C ) :   1.0304
B(  6-C ,  7-H ) :   0.9452 B(  6-C ,  8-H ) :   0.9367 B(  6-C ,  9-C ) :   1.0671
B(  9-C , 10-H ) :   0.9542 B(  9-C , 11-H ) :   0.9579 B(  9-C , 12-C ) :   1.0664
B( 12-C , 13-H ) :   0.9733 B( 12-C , 14-H ) :   0.9732 B( 12-C , 15-H ) :   0.9718
B( 16-S , 17-C ) :   1.1398 B( 16-S , 20-C ) :   1.1370 B( 17-C , 18-C ) :   1.6731
B( 17-C , 20-C ) :   0.1006 B( 17-C , 33-H ) :   0.9653 B( 18-C , 19-C ) :   1.2034
B( 18-C , 21-H ) :   0.9829 B( 19-C , 20-C ) :   1.5806 B( 19-C , 22-C ) :   1.0635
B( 22-C , 23-H ) :   0.9208 B( 22-C , 24-H ) :   0.9436 B( 22-C , 25-C ) :   1.0557
B( 25-C , 26-H ) :   0.9603 B( 25-C , 27-H ) :   0.9536 B( 25-C , 28-C ) :   1.0735
B( 28-C , 29-H ) :   0.9758 B( 28-C , 30-H ) :   0.9761 B( 28-C , 31-H ) :   0.9747

Dispersion correction           -0.014430776
FINAL SINGLE POINT ENERGY     -1339.858058004066

DIPOLE MOMENT
-------------
                                X             Y             Z
Electronic contribution:    -11.14450     -20.65780      14.67757
Nuclear contribution   :     11.42907      21.05225     -14.89009
                        -----------------------------------------
Total Dipole Moment    :      0.28457       0.39445      -0.21252
                        -----------------------------------------
Magnitude (a.u.)       :      0.53079
Magnitude (Debye)      :      1.34915

Rotational constants in cm-1:     0.016760     0.009022     0.007414
Rotational constants in MHz :   502.457709   270.466439   222.266291

                             ****ORCA TERMINATED NORMALLY****
TOTAL RUN TIME: 0 days 0 hours 0 minutes 21 seconds 493 msec
