                         Program Version 4.2.1 -  RELEASE  -
|  1> ! wB97X-D3 SP def2-SVP
|  2> %pal
|  3> nprocs 24
|  4> end
|  5>
|  6> * xyz 0 1
|  7> S 	 -72.9066 	 11.1775 	 -71.2488
|  8> C 	 -73.5695 	 11.6122 	 -72.8223
|  9> C 	 -72.7987 	 10.9961 	 -73.7763
| 10> C 	 -71.6776 	 10.3038 	 -73.2507
| 11> C 	 -71.6168 	 10.2483 	 -71.8925
| 12> H 	 -70.8146 	 9.81391 	 -73.7974
| 13> C 	 -73.0531 	 11.1149 	 -75.2788
| 14> H 	 -74.1287 	 11.2532 	 -75.4178
| 15> H 	 -72.9239 	 10.0809 	 -75.6624
| 16> C 	 -72.3254 	 12.2207 	 -76.0565
| 17> H 	 -71.2554 	 12.2535 	 -76.0101
| 18> H 	 -72.5707 	 12.1581 	 -77.1158
| 19> C 	 -72.7197 	 13.597 	 -75.5987
| 20> H 	 -73.7839 	 13.6768 	 -75.3374
| 21> H 	 -72.1002 	 13.9654 	 -74.7156
| 22> H 	 -72.5706 	 14.2733 	 -76.4151
| 23> S 	 -69.3511 	 10.0473 	 -70.4481
| 24> C 	 -68.9996 	 8.51532 	 -69.6737
| 25> C 	 -70.0096 	 7.58447 	 -69.8741
| 26> C 	 -71.073 	 8.0706 	 -70.6752
| 27> C 	 -70.8329 	 9.37879 	 -71.0249
| 28> H 	 -69.9955 	 6.61495 	 -69.2962
| 29> C 	 -72.2225 	 7.17633 	 -71.005
| 30> H 	 -71.957 	 6.91653 	 -72.0211
| 31> H 	 -73.1301 	 7.80954 	 -71.0786
| 32> C 	 -72.4751 	 5.99779 	 -70.0287
| 33> H 	 -72.2294 	 6.412 	 -69.0184
| 34> H 	 -71.7106 	 5.24159 	 -70.2499
| 35> C 	 -73.8633 	 5.33158 	 -70.0447
| 36> H 	 -74.0879 	 4.81437 	 -69.1299
| 37> H 	 -73.9768 	 4.56196 	 -70.7719
| 38> H 	 -74.6925 	 6.05905 	 -70.0482
| 39> H 	 -74.3471 	 12.3314 	 -73.0148
| 40> H 	 -68.1272 	 8.3137 	 -69.0111
| 41> *
| 42>
| 43>                          ****END OF INPUT****

CARTESIAN COORDINATES (ANGSTROEM)
---------------------------------
  S    -72.906600   11.177500  -71.248800
  C    -73.569500   11.612200  -72.822300
  C    -72.798700   10.996100  -73.776300
  C    -71.677600   10.303800  -73.250700
  C    -71.616800   10.248300  -71.892500
  H    -70.814600    9.813910  -73.797400
  C    -73.053100   11.114900  -75.278800
  H    -74.128700   11.253200  -75.417800
  H    -72.923900   10.080900  -75.662400
  C    -72.325400   12.220700  -76.056500
  H    -71.255400   12.253500  -76.010100
  H    -72.570700   12.158100  -77.115800
  C    -72.719700   13.597000  -75.598700
  H    -73.783900   13.676800  -75.337400
  H    -72.100200   13.965400  -74.715600
  H    -72.570600   14.273300  -76.415100
  S    -69.351100   10.047300  -70.448100
  C    -68.999600    8.515320  -69.673700
  C    -70.009600    7.584470  -69.874100
  C    -71.073000    8.070600  -70.675200
  C    -70.832900    9.378790  -71.024900
  H    -69.995500    6.614950  -69.296200
  C    -72.222500    7.176330  -71.005000
  H    -71.957000    6.916530  -72.021100
  H    -73.130100    7.809540  -71.078600
  C    -72.475100    5.997790  -70.028700
  H    -72.229400    6.412000  -69.018400
  H    -71.710600    5.241590  -70.249900
  C    -73.863300    5.331580  -70.044700
  H    -74.087900    4.814370  -69.129900
  H    -73.976800    4.561960  -70.771900
  H    -74.692500    6.059050  -70.048200
  H    -74.347100   12.331400  -73.014800
  H    -68.127200    8.313700  -69.011100

 Total Charge           Charge          ....    0
 Multiplicity           Mult            ....    1
 Number of Electrons    NEL             ....  134
 Basis Dimension        Dim             ....  322

ORBITAL ENERGIES
----------------

  NO   OCC          E(Eh)            E(eV)
   0   2.0000     -88.966990     -2420.9149
   1   2.0000     -88.958896     -2420.6946
   2   2.0000     -10.319219      -280.8002
   3   2.0000     -10.319021      -280.7948
   4   2.0000     -10.317990      -280.7668
   5   2.0000     -10.312365      -280.6137
   6   2.0000     -10.300057      -280.2788
   7   2.0000     -10.298408      -280.2339
   8   2.0000     -10.295642      -280.1587
   9   2.0000     -10.293454      -280.0991
  10   2.0000     -10.293139      -280.0905
  11   2.0000     -10.291676      -280.0507
  12   2.0000     -10.290649      -280.0228
  13   2.0000     -10.283037      -279.8157
  14   2.0000     -10.278418      -279.6900
  15   2.0000     -10.275645      -279.6145
  16   2.0000      -8.082005      -219.9225
  17   2.0000      -8.074162      -219.7091
  18   2.0000      -6.040346      -164.3662
  19   2.0000      -6.036530      -164.2623
  20   2.0000      -6.032877      -164.1629
  21   2.0000      -6.032609      -164.1556
  22   2.0000      -6.028363      -164.0401
  23   2.0000      -6.025169      -163.9532
  24   2.0000      -1.011512       -27.5246
  25   2.0000      -0.987790       -26.8791
  26   2.0000      -0.912114       -24.8199
  27   2.0000      -0.909120       -24.7384
  28   2.0000      -0.869088       -23.6491
  29   2.0000      -0.853336       -23.2205
  30   2.0000      -0.843203       -22.9447
  31   2.0000      -0.813497       -22.1364
  32   2.0000      -0.785149       -21.3650
  33   2.0000      -0.772565       -21.0226
  34   2.0000      -0.710522       -19.3343
  35   2.0000      -0.700114       -19.0511
  36   2.0000      -0.690730       -18.7957
  37   2.0000      -0.651918       -17.7396
  38   2.0000      -0.640366       -17.4252
  39   2.0000      -0.613330       -16.6896
  40   2.0000      -0.593988       -16.1632
  41   2.0000      -0.571077       -15.5398
  42   2.0000      -0.567808       -15.4508
  43   2.0000      -0.550791       -14.9878
  44   2.0000      -0.538751       -14.6602
  45   2.0000      -0.521894       -14.2015
  46   2.0000      -0.519153       -14.1269
  47   2.0000      -0.515292       -14.0218
  48   2.0000      -0.501537       -13.6475
  49   2.0000      -0.497505       -13.5378
  50   2.0000      -0.484000       -13.1703
  51   2.0000      -0.478270       -13.0144
  52   2.0000      -0.471873       -12.8403
  53   2.0000      -0.461137       -12.5482
  54   2.0000      -0.459513       -12.5040
  55   2.0000      -0.451208       -12.2780
  56   2.0000      -0.439680       -11.9643
  57   2.0000      -0.435529       -11.8514
  58   2.0000      -0.434422       -11.8212
  59   2.0000      -0.425985       -11.5916
  60   2.0000      -0.419806       -11.4235
  61   2.0000      -0.416304       -11.3282
  62   2.0000      -0.406625       -11.0648
  63   2.0000      -0.335514        -9.1298
  64   2.0000      -0.328110        -8.9283
  65   2.0000      -0.319937        -8.7059
  66   2.0000      -0.310852        -8.4587
  67   0.0000       0.051874         1.4116
  68   0.0000       0.055763         1.5174
  69   0.0000       0.119084         3.2404
  70   0.0000       0.128242         3.4896
  71   0.0000       0.134218         3.6523

MULLIKEN ATOMIC CHARGES
-----------------------
   0 S :    0.100363
   1 C :   -0.113595
   2 C :   -0.100496
   3 C :    0.030542
   4 C :   -0.179081
   5 H :    0.031809
   6 C :    0.052942
   7 H :    0.018227
   8 H :    0.030567
   9 C :   -0.025590
  10 H :    0.026285
  11 H :    0.027931
  12 C :   -0.081106
  13 H :    0.018478
  14 H :    0.053208
  15 H :    0.025873
  16 S :    0.129476
  17 C :   -0.101820
  18 C :   -0.082650
  19 C :   -0.032741
  20 C :   -0.214300
  21 H :    0.043766
  22 C :    0.126428
  23 H :    0.037212
  24 H :    0.028583
  25 C :   -0.125793
  26 H :    0.045062
  27 H :    0.038842
  28 C :   -0.002796
  29 H :    0.018862
  30 H :    0.030965
  31 H :    0.031910
  32 H :    0.047259
  33 H :    0.065378
Sum of atomic charges:    0.0000000

LOEWDIN ATOMIC CHARGES
----------------------
   0 S :    0.412957
   1 C :   -0.191584
   2 C :   -0.070086
   3 C :   -0.074860
   4 C :   -0.215048
   5 H :    0.043326
   6 C :   -0.034633
   7 H :    0.029551
   8 H :    0.033853
   9 C :   -0.041436
  10 H :    0.024425
  11 H :    0.026449
  12 C :   -0.069024
  13 H :    0.018556
  14 H :    0.034780
  15 H :    0.023175
  16 S :    0.424053
  17 C :   -0.193984
  18 C :   -0.084750
  19 C :   -0.050754
  20 C :   -0.221569
  21 H :    0.042316
  22 C :   -0.032777
  23 H :    0.038277
  24 H :    0.034286
  25 C :   -0.044353
  26 H :    0.030813
  27 H :    0.026739
  28 C :   -0.064859
  29 H :    0.027989
  30 H :    0.023185
  31 H :    0.030012
  32 H :    0.029223
  33 H :    0.035750

  Mayer bond orders larger than 0.100000
B(  0-S ,  1-C ) :   1.1385 B(  0-S ,  4-C ) :   1.1704 B(  1-C ,  2-C ) :   1.5982
B(  1-C , 32-H ) :   0.9760 B(  2-C ,  3-C ) :   1.2430 B(  2-C ,  6-C ) :   1.0162
B(  3-C ,  4-C ) :   1.5975 B(  3-C ,  5-H ) :   0.9888 B(  4-C , 20-C ) :   0.9751
B(  6-C ,  7-H ) :   0.9439 B(  6-C ,  8-H ) :   0.9411 B(  6-C ,  9-C ) :   1.0709
B(  9-C , 10-H ) :   0.9568 B(  9-C , 11-H ) :   0.9568 B(  9-C , 12-C ) :   1.0750
B( 12-C , 13-H ) :   0.9754 B( 12-C , 14-H ) :   0.9746 B( 12-C , 15-H ) :   0.9722
B( 16-S , 17-C ) :   1.1588 B( 16-S , 20-C ) :   1.1621 B( 17-C , 18-C ) :   1.6103
B( 17-C , 20-C ) :   0.1013 B( 17-C , 33-H ) :   0.9592 B( 18-C , 19-C ) :   1.2492
B( 18-C , 21-H ) :   0.9714 B( 19-C , 20-C ) :   1.6144 B( 19-C , 22-C ) :   1.0247
B( 22-C , 23-H ) :   0.9169 B( 22-C , 24-H ) :   0.9262 B( 22-C , 25-C ) :   1.0614
B( 25-C , 26-H ) :   0.9615 B( 25-C , 27-H ) :   0.9450 B( 25-C , 28-C ) :   1.0846
B( 28-C , 29-H ) :   0.9700 B( 28-C , 30-H ) :   0.9752 B( 28-C , 31-H ) :   0.9723

Dispersion correction           -0.014145045
FINAL SINGLE POINT ENERGY     -1339.880755615904

DIPOLE MOMENT
-------------
                                X             Y             Z
Electronic contribution:     11.57734       7.63317      12.82779
Nuclear contribution   :    -11.73390      -8.04335     -13.14805
                        -----------------------------------------
Total Dipole Moment    :     -0.15655      -0.41018      -0.32025
                        -----------------------------------------
Magnitude (a.u.)       :      0.54343
Magnitude (Debye)      :      1.38130

Rotational constants in cm-1:     0.020917     0.007607     0.006401
Rotational constants in MHz :   627.078209   228.054032   191.887892

                             ****ORCA TERMINATED NORMALLY****
TOTAL RUN TIME: 0 days 0 hours 0 minutes 21 seconds 85 msec
