                         Program Version 4.2.1 -  RELEASE  -
|  1> ! wB97X-D3 SP def2-SVP
|  2> %pal
|  3> nprocs 24
|  4> end
|  5>
|  6> * xyz 0 1
|  7> S 	 37.8223 	 -7.73027 	 -112.713
|  8> C 	 39.1837 	 -7.47408 	 -113.769
|  9> C 	 39.2078 	 -6.20245 	 -114.288
| 10> C 	 38.0967 	 -5.45297 	 -113.756
| 11> C 	 37.2338 	 -6.07469 	 -112.921
| 12> H 	 37.8152 	 -4.48346 	 -114.071
| 13> C 	 40.2867 	 -5.57596 	 -115.161
| 14> H 	 41.1608 	 -6.23183 	 -115.069
| 15> H 	 40.6072 	 -4.6368 	 -114.701
| 16> C 	 39.9314 	 -5.14739 	 -116.597
| 17> H 	 39.5417 	 -6.01457 	 -117.049
| 18> H 	 39.1077 	 -4.45149 	 -116.629
| 19> C 	 41.0114 	 -4.51734 	 -117.395
| 20> H 	 41.5373 	 -3.72344 	 -116.854
| 21> H 	 41.7899 	 -5.23085 	 -117.652
| 22> H 	 40.6536 	 -3.95025 	 -118.302
| 23> S 	 34.4605 	 -5.85486 	 -113.435
| 24> C 	 33.4725 	 -4.99745 	 -112.249
| 25> C 	 34.246 	 -4.56157 	 -111.184
| 26> C 	 35.5944 	 -5.02698 	 -111.262
| 27> C 	 35.9652 	 -5.60494 	 -112.414
| 28> H 	 33.6616 	 -4.13598 	 -110.306
| 29> C 	 36.5284 	 -4.7596 	 -110.076
| 30> H 	 36.7578 	 -3.67125 	 -109.899
| 31> H 	 37.4845 	 -5.20347 	 -110.442
| 32> C 	 36.0584 	 -5.42884 	 -108.779
| 33> H 	 36.9244 	 -5.26263 	 -108.172
| 34> H 	 35.9447 	 -6.52154 	 -108.805
| 35> C 	 34.8339 	 -4.75989 	 -108.071
| 36> H 	 33.9508 	 -5.21662 	 -108.606
| 37> H 	 34.779 	 -3.63777 	 -108.145
| 38> H 	 34.6772 	 -5.04038 	 -106.991
| 39> H 	 40.0771 	 -8.07241 	 -113.755
| 40> H 	 32.3899 	 -5.00206 	 -112.185
| 41> *
| 42>
| 43>                          ****END OF INPUT****

CARTESIAN COORDINATES (ANGSTROEM)
---------------------------------
  S     37.822300   -7.730270  -112.713000
  C     39.183700   -7.474080  -113.769000
  C     39.207800   -6.202450  -114.288000
  C     38.096700   -5.452970  -113.756000
  C     37.233800   -6.074690  -112.921000
  H     37.815200   -4.483460  -114.071000
  C     40.286700   -5.575960  -115.161000
  H     41.160800   -6.231830  -115.069000
  H     40.607200   -4.636800  -114.701000
  C     39.931400   -5.147390  -116.597000
  H     39.541700   -6.014570  -117.049000
  H     39.107700   -4.451490  -116.629000
  C     41.011400   -4.517340  -117.395000
  H     41.537300   -3.723440  -116.854000
  H     41.789900   -5.230850  -117.652000
  H     40.653600   -3.950250  -118.302000
  S     34.460500   -5.854860  -113.435000
  C     33.472500   -4.997450  -112.249000
  C     34.246000   -4.561570  -111.184000
  C     35.594400   -5.026980  -111.262000
  C     35.965200   -5.604940  -112.414000
  H     33.661600   -4.135980  -110.306000
  C     36.528400   -4.759600  -110.076000
  H     36.757800   -3.671250  -109.899000
  H     37.484500   -5.203470  -110.442000
  C     36.058400   -5.428840  -108.779000
  H     36.924400   -5.262630  -108.172000
  H     35.944700   -6.521540  -108.805000
  C     34.833900   -4.759890  -108.071000
  H     33.950800   -5.216620  -108.606000
  H     34.779000   -3.637770  -108.145000
  H     34.677200   -5.040380  -106.991000
  H     40.077100   -8.072410  -113.755000
  H     32.389900   -5.002060  -112.185000

 Total Charge           Charge          ....    0
 Multiplicity           Mult            ....    1
 Number of Electrons    NEL             ....  134
 Basis Dimension        Dim             ....  322

ORBITAL ENERGIES
----------------

  NO   OCC          E(Eh)            E(eV)
   0   2.0000     -88.962784     -2420.8004
   1   2.0000     -88.960905     -2420.7493
   2   2.0000     -10.327865      -281.0355
   3   2.0000     -10.327594      -281.0281
   4   2.0000     -10.321213      -280.8545
   5   2.0000     -10.315179      -280.6903
   6   2.0000     -10.304029      -280.3869
   7   2.0000     -10.301836      -280.3272
   8   2.0000     -10.297053      -280.1971
   9   2.0000     -10.296681      -280.1869
  10   2.0000     -10.295583      -280.1570
  11   2.0000     -10.291700      -280.0514
  12   2.0000     -10.290289      -280.0130
  13   2.0000     -10.288680      -279.9692
  14   2.0000     -10.280702      -279.7521
  15   2.0000     -10.280388      -279.7436
  16   2.0000      -8.077633      -219.8036
  17   2.0000      -8.074543      -219.7195
  18   2.0000      -6.036228      -164.2541
  19   2.0000      -6.033238      -164.1728
  20   2.0000      -6.032046      -164.1403
  21   2.0000      -6.029261      -164.0645
  22   2.0000      -6.028346      -164.0396
  23   2.0000      -6.025091      -163.9511
  24   2.0000      -1.005424       -27.3590
  25   2.0000      -0.982417       -26.7329
  26   2.0000      -0.914782       -24.8925
  27   2.0000      -0.903414       -24.5831
  28   2.0000      -0.876241       -23.8437
  29   2.0000      -0.849275       -23.1099
  30   2.0000      -0.839478       -22.8434
  31   2.0000      -0.817257       -22.2387
  32   2.0000      -0.782881       -21.3033
  33   2.0000      -0.773527       -21.0487
  34   2.0000      -0.711355       -19.3570
  35   2.0000      -0.700661       -19.0659
  36   2.0000      -0.691334       -18.8122
  37   2.0000      -0.659624       -17.9493
  38   2.0000      -0.646611       -17.5952
  39   2.0000      -0.617844       -16.8124
  40   2.0000      -0.593167       -16.1409
  41   2.0000      -0.574076       -15.6214
  42   2.0000      -0.565048       -15.3757
  43   2.0000      -0.549246       -14.9458
  44   2.0000      -0.529330       -14.4038
  45   2.0000      -0.523991       -14.2585
  46   2.0000      -0.521833       -14.1998
  47   2.0000      -0.511189       -13.9102
  48   2.0000      -0.507194       -13.8014
  49   2.0000      -0.502605       -13.6766
  50   2.0000      -0.497991       -13.5510
  51   2.0000      -0.470753       -12.8099
  52   2.0000      -0.469635       -12.7794
  53   2.0000      -0.462565       -12.5870
  54   2.0000      -0.461360       -12.5542
  55   2.0000      -0.453216       -12.3326
  56   2.0000      -0.441192       -12.0054
  57   2.0000      -0.432993       -11.7823
  58   2.0000      -0.430636       -11.7182
  59   2.0000      -0.423144       -11.5143
  60   2.0000      -0.419060       -11.4032
  61   2.0000      -0.414002       -11.2656
  62   2.0000      -0.399004       -10.8575
  63   2.0000      -0.335318        -9.1245
  64   2.0000      -0.328309        -8.9337
  65   2.0000      -0.321670        -8.7531
  66   2.0000      -0.319747        -8.7008
  67   0.0000       0.045399         1.2354
  68   0.0000       0.045915         1.2494
  69   0.0000       0.112740         3.0678
  70   0.0000       0.119235         3.2445
  71   0.0000       0.129699         3.5293

MULLIKEN ATOMIC CHARGES
-----------------------
   0 S :    0.103019
   1 C :   -0.108725
   2 C :   -0.090511
   3 C :    0.064046
   4 C :   -0.196913
   5 H :   -0.007225
   6 C :    0.063216
   7 H :    0.015908
   8 H :    0.021601
   9 C :   -0.031674
  10 H :    0.017262
  11 H :    0.020715
  12 C :   -0.056389
  13 H :    0.018931
  14 H :    0.031769
  15 H :    0.044982
  16 S :    0.087948
  17 C :   -0.090673
  18 C :   -0.065156
  19 C :   -0.012194
  20 C :   -0.154909
  21 H :    0.050397
  22 C :    0.038574
  23 H :    0.050529
  24 H :    0.030414
  25 C :   -0.058190
  26 H :    0.025480
  27 H :    0.042058
  28 C :   -0.107446
  29 H :    0.047135
  30 H :    0.046542
  31 H :    0.046654
  32 H :    0.050533
  33 H :    0.062290
Sum of atomic charges:    0.0000000

LOEWDIN ATOMIC CHARGES
----------------------
   0 S :    0.394470
   1 C :   -0.190814
   2 C :   -0.065111
   3 C :   -0.046906
   4 C :   -0.195706
   5 H :    0.023973
   6 C :   -0.029938
   7 H :    0.029245
   8 H :    0.031257
   9 C :   -0.041739
  10 H :    0.019386
  11 H :    0.025296
  12 C :   -0.069255
  13 H :    0.023864
  14 H :    0.024267
  15 H :    0.036920
  16 S :    0.356464
  17 C :   -0.170390
  18 C :   -0.088820
  19 C :   -0.053835
  20 C :   -0.180533
  21 H :    0.046898
  22 C :   -0.031092
  23 H :    0.039135
  24 H :    0.033172
  25 C :   -0.042328
  26 H :    0.022895
  27 H :    0.031323
  28 C :   -0.082274
  29 H :    0.029062
  30 H :    0.027946
  31 H :    0.031888
  32 H :    0.028529
  33 H :    0.032753

  Mayer bond orders larger than 0.100000
B(  0-S ,  1-C ) :   1.1484 B(  0-S ,  4-C ) :   1.1165 B(  1-C ,  2-C ) :   1.6259
B(  1-C , 32-H ) :   0.9583 B(  2-C ,  3-C ) :   1.2227 B(  2-C ,  6-C ) :   1.0311
B(  3-C ,  4-C ) :   1.6276 B(  3-C ,  5-H ) :   0.9967 B(  4-C , 20-C ) :   1.0301
B(  6-C ,  7-H ) :   0.9422 B(  6-C ,  8-H ) :   0.9360 B(  6-C ,  9-C ) :   1.0539
B(  9-C , 10-H ) :   0.9516 B(  9-C , 11-H ) :   0.9523 B(  9-C , 12-C ) :   1.0930
B( 12-C , 13-H ) :   0.9696 B( 12-C , 14-H ) :   0.9739 B( 12-C , 15-H ) :   0.9724
B( 16-S , 17-C ) :   1.1539 B( 16-S , 20-C ) :   1.0876 B( 17-C , 18-C ) :   1.6431
B( 17-C , 33-H ) :   0.9600 B( 18-C , 19-C ) :   1.2035 B( 18-C , 21-H ) :   0.9691
B( 19-C , 20-C ) :   1.6755 B( 19-C , 22-C ) :   1.0305 B( 22-C , 23-H ) :   0.9429
B( 22-C , 24-H ) :   0.9270 B( 22-C , 25-C ) :   1.0715 B( 25-C , 26-H ) :   0.9560
B( 25-C , 27-H ) :   0.9560 B( 25-C , 28-C ) :   1.0626 B( 28-C , 29-H ) :   0.9692
B( 28-C , 30-H ) :   0.9727 B( 28-C , 31-H ) :   0.9693

Dispersion correction           -0.013874340
FINAL SINGLE POINT ENERGY     -1339.867992879063

DIPOLE MOMENT
-------------
                                X             Y             Z
Electronic contribution:    -11.69744     -11.51465      -2.32047
Nuclear contribution   :     11.99719      11.91203       2.57347
                        -----------------------------------------
Total Dipole Moment    :      0.29975       0.39737       0.25300
                        -----------------------------------------
Magnitude (a.u.)       :      0.55836
Magnitude (Debye)      :      1.41924

Rotational constants in cm-1:     0.023920     0.006633     0.006157
Rotational constants in MHz :   717.106584   198.839428   184.596215

                             ****ORCA TERMINATED NORMALLY****
TOTAL RUN TIME: 0 days 0 hours 0 minutes 20 seconds 932 msec
