                         Program Version 4.2.1 -  RELEASE  -
|  1> ! wB97X-D3 SP def2-SVP
|  2> %pal
|  3> nprocs 24
|  4> end
|  5>
|  6> * xyz 0 1
|  7> S 	 -113.256 	 57.4248 	 -100.104
|  8> C 	 -114.807 	 57.4248 	 -100.822
|  9> C 	 -115.277 	 58.7751 	 -100.715
| 10> C 	 -114.392 	 59.6812 	 -99.9904
| 11> C 	 -113.253 	 59.0759 	 -99.5946
| 12> H 	 -114.495 	 60.7265 	 -99.7108
| 13> C 	 -116.568 	 59.2243 	 -101.278
| 14> H 	 -116.831 	 58.6763 	 -102.225
| 15> H 	 -116.76 	 60.2463 	 -101.669
| 16> C 	 -117.647 	 58.9577 	 -100.325
| 17> H 	 -117.654 	 57.9315 	 -100.166
| 18> H 	 -117.493 	 59.4767 	 -99.393
| 19> C 	 -119.115 	 59.2887 	 -100.763
| 20> H 	 -119.755 	 58.4409 	 -100.429
| 21> H 	 -119.506 	 60.3247 	 -100.553
| 22> H 	 -119.088 	 59.1953 	 -101.849
| 23> S 	 -111.557 	 58.8009 	 -97.4685
| 24> C 	 -110.314 	 60.0175 	 -97.1673
| 25> C 	 -110.436 	 61.0782 	 -98.0345
| 26> C 	 -111.481 	 60.9122 	 -99.0051
| 27> C 	 -112.188 	 59.7041 	 -98.8502
| 28> H 	 -109.71 	 61.8317 	 -97.924
| 29> C 	 -111.808 	 61.9616 	 -99.9784
| 30> H 	 -112.822 	 62.2698 	 -99.7696
| 31> H 	 -111.884 	 61.4277 	 -100.978
| 32> C 	 -110.825 	 63.033 	 -100.28
| 33> H 	 -109.868 	 62.4295 	 -100.409
| 34> H 	 -110.723 	 63.7712 	 -99.476
| 35> C 	 -111.307 	 63.7119 	 -101.569
| 36> H 	 -111.274 	 62.9677 	 -102.358
| 37> H 	 -110.619 	 64.4895 	 -101.927
| 38> H 	 -112.3 	 64.1407 	 -101.609
| 39> H 	 -115.286 	 56.4752 	 -101.154
| 40> H 	 -109.633 	 60.0275 	 -96.2857
| 41> *
| 42>
| 43>                          ****END OF INPUT****

CARTESIAN COORDINATES (ANGSTROEM)
---------------------------------
  S    -113.256000   57.424800  -100.104000
  C    -114.807000   57.424800  -100.822000
  C    -115.277000   58.775100  -100.715000
  C    -114.392000   59.681200  -99.990400
  C    -113.253000   59.075900  -99.594600
  H    -114.495000   60.726500  -99.710800
  C    -116.568000   59.224300  -101.278000
  H    -116.831000   58.676300  -102.225000
  H    -116.760000   60.246300  -101.669000
  C    -117.647000   58.957700  -100.325000
  H    -117.654000   57.931500  -100.166000
  H    -117.493000   59.476700  -99.393000
  C    -119.115000   59.288700  -100.763000
  H    -119.755000   58.440900  -100.429000
  H    -119.506000   60.324700  -100.553000
  H    -119.088000   59.195300  -101.849000
  S    -111.557000   58.800900  -97.468500
  C    -110.314000   60.017500  -97.167300
  C    -110.436000   61.078200  -98.034500
  C    -111.481000   60.912200  -99.005100
  C    -112.188000   59.704100  -98.850200
  H    -109.710000   61.831700  -97.924000
  C    -111.808000   61.961600  -99.978400
  H    -112.822000   62.269800  -99.769600
  H    -111.884000   61.427700  -100.978000
  C    -110.825000   63.033000  -100.280000
  H    -109.868000   62.429500  -100.409000
  H    -110.723000   63.771200  -99.476000
  C    -111.307000   63.711900  -101.569000
  H    -111.274000   62.967700  -102.358000
  H    -110.619000   64.489500  -101.927000
  H    -112.300000   64.140700  -101.609000
  H    -115.286000   56.475200  -101.154000
  H    -109.633000   60.027500  -96.285700

 Total Charge           Charge          ....    0
 Multiplicity           Mult            ....    1
 Number of Electrons    NEL             ....  134
 Basis Dimension        Dim             ....  322

ORBITAL ENERGIES
----------------

  NO   OCC          E(Eh)            E(eV)
   0   2.0000     -88.964450     -2420.8458
   1   2.0000     -88.963405     -2420.8173
   2   2.0000     -10.327611      -281.0286
   3   2.0000     -10.324078      -280.9325
   4   2.0000     -10.323771      -280.9241
   5   2.0000     -10.320467      -280.8342
   6   2.0000     -10.312133      -280.6074
   7   2.0000     -10.306408      -280.4516
   8   2.0000     -10.294273      -280.1214
   9   2.0000     -10.294190      -280.1191
  10   2.0000     -10.291894      -280.0567
  11   2.0000     -10.287620      -279.9404
  12   2.0000     -10.285881      -279.8931
  13   2.0000     -10.281772      -279.7812
  14   2.0000     -10.279789      -279.7273
  15   2.0000     -10.270480      -279.4740
  16   2.0000      -8.079305      -219.8491
  17   2.0000      -8.078681      -219.8321
  18   2.0000      -6.037740      -164.2953
  19   2.0000      -6.037185      -164.2801
  20   2.0000      -6.033414      -164.1775
  21   2.0000      -6.033182      -164.1712
  22   2.0000      -6.030266      -164.0919
  23   2.0000      -6.029549      -164.0724
  24   2.0000      -1.010828       -27.5060
  25   2.0000      -0.985070       -26.8051
  26   2.0000      -0.923452       -25.1284
  27   2.0000      -0.920519       -25.0486
  28   2.0000      -0.875565       -23.8253
  29   2.0000      -0.852869       -23.2077
  30   2.0000      -0.843694       -22.9581
  31   2.0000      -0.819334       -22.2952
  32   2.0000      -0.778975       -21.1970
  33   2.0000      -0.766739       -20.8640
  34   2.0000      -0.710214       -19.3259
  35   2.0000      -0.697988       -18.9932
  36   2.0000      -0.694508       -18.8985
  37   2.0000      -0.659288       -17.9401
  38   2.0000      -0.646291       -17.5865
  39   2.0000      -0.620740       -16.8912
  40   2.0000      -0.599470       -16.3124
  41   2.0000      -0.583324       -15.8731
  42   2.0000      -0.577890       -15.7252
  43   2.0000      -0.563638       -15.3374
  44   2.0000      -0.528146       -14.3716
  45   2.0000      -0.523049       -14.2329
  46   2.0000      -0.520085       -14.1522
  47   2.0000      -0.516828       -14.0636
  48   2.0000      -0.509713       -13.8700
  49   2.0000      -0.500632       -13.6229
  50   2.0000      -0.492654       -13.4058
  51   2.0000      -0.479140       -13.0381
  52   2.0000      -0.469801       -12.7839
  53   2.0000      -0.464225       -12.6322
  54   2.0000      -0.459034       -12.4910
  55   2.0000      -0.447769       -12.1844
  56   2.0000      -0.444526       -12.0962
  57   2.0000      -0.432091       -11.7578
  58   2.0000      -0.428219       -11.6524
  59   2.0000      -0.425222       -11.5709
  60   2.0000      -0.421174       -11.4607
  61   2.0000      -0.412082       -11.2133
  62   2.0000      -0.406190       -11.0530
  63   2.0000      -0.353533        -9.6201
  64   2.0000      -0.329536        -8.9671
  65   2.0000      -0.323834        -8.8120
  66   2.0000      -0.290502        -7.9050
  67   0.0000       0.026781         0.7288
  68   0.0000       0.072089         1.9616
  69   0.0000       0.117053         3.1852
  70   0.0000       0.118854         3.2342
  71   0.0000       0.132613         3.6086

MULLIKEN ATOMIC CHARGES
-----------------------
   0 S :    0.117684
   1 C :   -0.136479
   2 C :   -0.071692
   3 C :    0.018987
   4 C :   -0.129860
   5 H :    0.013973
   6 C :    0.037195
   7 H :    0.017945
   8 H :    0.024768
   9 C :   -0.058834
  10 H :    0.000059
  11 H :    0.025299
  12 C :   -0.060569
  13 H :    0.043438
  14 H :    0.051751
  15 H :    0.009891
  16 S :    0.100238
  17 C :   -0.101337
  18 C :   -0.038908
  19 C :    0.000862
  20 C :   -0.169705
  21 H :    0.006804
  22 C :    0.002416
  23 H :    0.033468
  24 H :    0.038019
  25 C :   -0.069643
  26 H :    0.047784
  27 H :    0.037891
  28 C :   -0.033741
  29 H :    0.021299
  30 H :    0.030420
  31 H :    0.035303
  32 H :    0.083871
  33 H :    0.071404
Sum of atomic charges:   -0.0000000

LOEWDIN ATOMIC CHARGES
----------------------
   0 S :    0.433777
   1 C :   -0.219236
   2 C :   -0.051940
   3 C :   -0.065094
   4 C :   -0.207962
   5 H :    0.035680
   6 C :   -0.052756
   7 H :    0.031530
   8 H :    0.031609
   9 C :   -0.039386
  10 H :    0.012983
  11 H :    0.022101
  12 C :   -0.075182
  13 H :    0.034172
  14 H :    0.030825
  15 H :    0.018946
  16 S :    0.395349
  17 C :   -0.183077
  18 C :   -0.074165
  19 C :   -0.050156
  20 C :   -0.195945
  21 H :    0.026233
  22 C :   -0.048613
  23 H :    0.027522
  24 H :    0.045764
  25 C :   -0.043209
  26 H :    0.039520
  27 H :    0.022711
  28 C :   -0.064059
  29 H :    0.024575
  30 H :    0.026487
  31 H :    0.027082
  32 H :    0.044679
  33 H :    0.039234

  Mayer bond orders larger than 0.100000
B(  0-S ,  1-C ) :   1.1574 B(  0-S ,  4-C ) :   1.1648 B(  1-C ,  2-C ) :   1.5444
B(  1-C , 32-H ) :   0.9715 B(  2-C ,  3-C ) :   1.2429 B(  2-C ,  6-C ) :   1.0387
B(  3-C ,  4-C ) :   1.5573 B(  3-C ,  5-H ) :   1.0001 B(  4-C , 20-C ) :   1.0573
B(  6-C ,  7-H ) :   0.9290 B(  6-C ,  8-H ) :   0.9471 B(  6-C ,  9-C ) :   1.0792
B(  9-C , 10-H ) :   0.9552 B(  9-C , 11-H ) :   0.9548 B(  9-C , 12-C ) :   1.0684
B( 12-C , 13-H ) :   0.9777 B( 12-C , 14-H ) :   0.9759 B( 12-C , 15-H ) :   0.9725
B( 16-S , 17-C ) :   1.1563 B( 16-S , 20-C ) :   1.1387 B( 17-C , 18-C ) :   1.6104
B( 17-C , 20-C ) :   0.1019 B( 17-C , 33-H ) :   0.9572 B( 18-C , 19-C ) :   1.2343
B( 18-C , 21-H ) :   0.9964 B( 19-C , 20-C ) :   1.5718 B( 19-C , 22-C ) :   1.0392
B( 22-C , 23-H ) :   0.9223 B( 22-C , 24-H ) :   0.9305 B( 22-C , 25-C ) :   1.0757
B( 25-C , 26-H ) :   0.9525 B( 25-C , 27-H ) :   0.9424 B( 25-C , 28-C ) :   1.0802
B( 28-C , 29-H ) :   0.9724 B( 28-C , 30-H ) :   0.9722 B( 28-C , 31-H ) :   0.9741

Dispersion correction           -0.013378317
FINAL SINGLE POINT ENERGY     -1339.857648820265

DIPOLE MOMENT
-------------
                                X             Y             Z
Electronic contribution:     15.34675     -18.32634      13.26614
Nuclear contribution   :    -15.49336      18.86868     -13.47770
                        -----------------------------------------
Total Dipole Moment    :     -0.14661       0.54234      -0.21156
                        -----------------------------------------
Magnitude (a.u.)       :      0.60032
Magnitude (Debye)      :      1.52589

Rotational constants in cm-1:     0.018247     0.007905     0.006226
Rotational constants in MHz :   547.018422   236.991068   186.648537

                             ****ORCA TERMINATED NORMALLY****
TOTAL RUN TIME: 0 days 0 hours 0 minutes 20 seconds 18 msec
