                         Program Version 4.2.1 -  RELEASE  -
|  1> ! wB97X-D3 SP def2-SVP
|  2> %pal
|  3> nprocs 24
|  4> end
|  5>
|  6> * xyz 0 1
|  7> S 	 -129.837 	 69.8842 	 -53.4404
|  8> C 	 -130.008 	 71.5893 	 -53.9379
|  9> C 	 -128.88 	 72.3411 	 -53.7007
| 10> C 	 -127.844 	 71.5069 	 -53.2122
| 11> C 	 -128.21 	 70.1537 	 -52.909
| 12> H 	 -126.825 	 71.9178 	 -53.0299
| 13> C 	 -128.755 	 73.7897 	 -53.9362
| 14> H 	 -129.7 	 74.2212 	 -54.3179
| 15> H 	 -128.132 	 73.9304 	 -54.8137
| 16> C 	 -128.109 	 74.5826 	 -52.8564
| 17> H 	 -127.004 	 74.4158 	 -52.7868
| 18> H 	 -128.125 	 75.5832 	 -53.3179
| 19> C 	 -128.837 	 74.386 	 -51.5488
| 20> H 	 -128.816 	 73.34 	 -51.1474
| 21> H 	 -128.407 	 75.0754 	 -50.8188
| 22> H 	 -129.907 	 74.7211 	 -51.6132
| 23> S 	 -128.279 	 68.1872 	 -51.0121
| 24> C 	 -126.839 	 67.1843 	 -50.7948
| 25> C 	 -125.796 	 67.6073 	 -51.5231
| 26> C 	 -126.089 	 68.7556 	 -52.3209
| 27> C 	 -127.429 	 69.1916 	 -52.1686
| 28> H 	 -124.881 	 67.0072 	 -51.4421
| 29> C 	 -125.006 	 69.2173 	 -53.2847
| 30> H 	 -125.453 	 70.0045 	 -53.9612
| 31> H 	 -124.855 	 68.3863 	 -53.9809
| 32> C 	 -123.626 	 69.8321 	 -52.8724
| 33> H 	 -123.176 	 70.0134 	 -53.8403
| 34> H 	 -123.017 	 69.0785 	 -52.3795
| 35> C 	 -123.635 	 71.0728 	 -52.002
| 36> H 	 -124.088 	 70.8967 	 -51.0017
| 37> H 	 -124.246 	 71.8987 	 -52.4029
| 38> H 	 -122.599 	 71.3633 	 -51.7333
| 39> H 	 -130.922 	 71.912 	 -54.4324
| 40> H 	 -126.927 	 66.2729 	 -50.183
| 41> *
| 42>
| 43>                          ****END OF INPUT****

CARTESIAN COORDINATES (ANGSTROEM)
---------------------------------
  S    -129.837000   69.884200  -53.440400
  C    -130.008000   71.589300  -53.937900
  C    -128.880000   72.341100  -53.700700
  C    -127.844000   71.506900  -53.212200
  C    -128.210000   70.153700  -52.909000
  H    -126.825000   71.917800  -53.029900
  C    -128.755000   73.789700  -53.936200
  H    -129.700000   74.221200  -54.317900
  H    -128.132000   73.930400  -54.813700
  C    -128.109000   74.582600  -52.856400
  H    -127.004000   74.415800  -52.786800
  H    -128.125000   75.583200  -53.317900
  C    -128.837000   74.386000  -51.548800
  H    -128.816000   73.340000  -51.147400
  H    -128.407000   75.075400  -50.818800
  H    -129.907000   74.721100  -51.613200
  S    -128.279000   68.187200  -51.012100
  C    -126.839000   67.184300  -50.794800
  C    -125.796000   67.607300  -51.523100
  C    -126.089000   68.755600  -52.320900
  C    -127.429000   69.191600  -52.168600
  H    -124.881000   67.007200  -51.442100
  C    -125.006000   69.217300  -53.284700
  H    -125.453000   70.004500  -53.961200
  H    -124.855000   68.386300  -53.980900
  C    -123.626000   69.832100  -52.872400
  H    -123.176000   70.013400  -53.840300
  H    -123.017000   69.078500  -52.379500
  C    -123.635000   71.072800  -52.002000
  H    -124.088000   70.896700  -51.001700
  H    -124.246000   71.898700  -52.402900
  H    -122.599000   71.363300  -51.733300
  H    -130.922000   71.912000  -54.432400
  H    -126.927000   66.272900  -50.183000

 Total Charge           Charge          ....    0
 Multiplicity           Mult            ....    1
 Number of Electrons    NEL             ....  134
 Basis Dimension        Dim             ....  322

ORBITAL ENERGIES
----------------

  NO   OCC          E(Eh)            E(eV)
   0   2.0000     -88.967269     -2420.9225
   1   2.0000     -88.962875     -2420.8029
   2   2.0000     -10.332790      -281.1695
   3   2.0000     -10.330927      -281.1188
   4   2.0000     -10.315034      -280.6863
   5   2.0000     -10.313711      -280.6503
   6   2.0000     -10.307504      -280.4814
   7   2.0000     -10.297711      -280.2149
   8   2.0000     -10.297197      -280.2010
   9   2.0000     -10.295344      -280.1505
  10   2.0000     -10.291418      -280.0437
  11   2.0000     -10.290188      -280.0103
  12   2.0000     -10.288768      -279.9716
  13   2.0000     -10.287345      -279.9329
  14   2.0000     -10.282835      -279.8102
  15   2.0000     -10.279183      -279.7108
  16   2.0000      -8.081575      -219.9108
  17   2.0000      -8.077751      -219.8068
  18   2.0000      -6.040049      -164.3581
  19   2.0000      -6.036268      -164.2552
  20   2.0000      -6.036110      -164.2509
  21   2.0000      -6.032440      -164.1510
  22   2.0000      -6.032252      -164.1459
  23   2.0000      -6.028482      -164.0433
  24   2.0000      -1.003988       -27.3199
  25   2.0000      -0.982117       -26.7248
  26   2.0000      -0.924228       -25.1495
  27   2.0000      -0.902731       -24.5645
  28   2.0000      -0.871637       -23.7184
  29   2.0000      -0.848862       -23.0987
  30   2.0000      -0.842181       -22.9169
  31   2.0000      -0.810187       -22.0463
  32   2.0000      -0.786216       -21.3940
  33   2.0000      -0.773601       -21.0508
  34   2.0000      -0.713491       -19.4151
  35   2.0000      -0.696255       -18.9461
  36   2.0000      -0.689973       -18.7751
  37   2.0000      -0.654329       -17.8052
  38   2.0000      -0.631821       -17.1927
  39   2.0000      -0.623678       -16.9711
  40   2.0000      -0.596076       -16.2201
  41   2.0000      -0.567227       -15.4350
  42   2.0000      -0.559050       -15.2125
  43   2.0000      -0.548750       -14.9322
  44   2.0000      -0.537760       -14.6332
  45   2.0000      -0.536011       -14.5856
  46   2.0000      -0.520770       -14.1709
  47   2.0000      -0.509305       -13.8589
  48   2.0000      -0.499409       -13.5896
  49   2.0000      -0.493668       -13.4334
  50   2.0000      -0.491327       -13.3697
  51   2.0000      -0.480207       -13.0671
  52   2.0000      -0.467493       -12.7211
  53   2.0000      -0.461329       -12.5534
  54   2.0000      -0.459598       -12.5063
  55   2.0000      -0.447674       -12.1818
  56   2.0000      -0.444254       -12.0888
  57   2.0000      -0.435617       -11.8537
  58   2.0000      -0.429568       -11.6891
  59   2.0000      -0.425631       -11.5820
  60   2.0000      -0.417250       -11.3539
  61   2.0000      -0.412436       -11.2230
  62   2.0000      -0.410301       -11.1649
  63   2.0000      -0.351347        -9.5606
  64   2.0000      -0.331509        -9.0208
  65   2.0000      -0.328611        -8.9420
  66   2.0000      -0.282123        -7.6770
  67   0.0000       0.023808         0.6478
  68   0.0000       0.076380         2.0784
  69   0.0000       0.112741         3.0678
  70   0.0000       0.119749         3.2585
  71   0.0000       0.124673         3.3925

MULLIKEN ATOMIC CHARGES
-----------------------
   0 S :    0.111653
   1 C :   -0.156942
   2 C :   -0.064260
   3 C :    0.010505
   4 C :   -0.149936
   5 H :    0.011415
   6 C :    0.078924
   7 H :    0.015789
   8 H :    0.025954
   9 C :   -0.087684
  10 H :    0.033636
  11 H :    0.027990
  12 C :   -0.055524
  13 H :    0.068581
  14 H :    0.030928
  15 H :    0.033127
  16 S :    0.088269
  17 C :   -0.112695
  18 C :   -0.025419
  19 C :   -0.013975
  20 C :   -0.142004
  21 H :    0.030375
  22 C :    0.000969
  23 H :    0.021046
  24 H :    0.039294
  25 C :   -0.036259
  26 H :    0.031467
  27 H :    0.022999
  28 C :   -0.067841
  29 H :    0.038747
  30 H :    0.035480
  31 H :    0.039098
  32 H :    0.049285
  33 H :    0.067008
Sum of atomic charges:   -0.0000000

LOEWDIN ATOMIC CHARGES
----------------------
   0 S :    0.403697
   1 C :   -0.188675
   2 C :   -0.066224
   3 C :   -0.065890
   4 C :   -0.202600
   5 H :    0.029625
   6 C :   -0.039765
   7 H :    0.032918
   8 H :    0.035852
   9 C :   -0.051329
  10 H :    0.027220
  11 H :    0.031782
  12 C :   -0.072478
  13 H :    0.038995
  14 H :    0.025224
  15 H :    0.031563
  16 S :    0.388585
  17 C :   -0.176811
  18 C :   -0.075154
  19 C :   -0.057864
  20 C :   -0.196144
  21 H :    0.040268
  22 C :   -0.043462
  23 H :    0.032276
  24 H :    0.036823
  25 C :   -0.038352
  26 H :    0.027999
  27 H :    0.020468
  28 C :   -0.073798
  29 H :    0.031700
  30 H :    0.023711
  31 H :    0.032080
  32 H :    0.025551
  33 H :    0.032211

  Mayer bond orders larger than 0.100000
B(  0-S ,  1-C ) :   1.1344 B(  0-S ,  4-C ) :   1.1667 B(  1-C ,  2-C ) :   1.5766
B(  1-C ,  4-C ) :   0.1007 B(  1-C , 32-H ) :   0.9678 B(  2-C ,  3-C ) :   1.2800
B(  2-C ,  6-C ) :   1.0305 B(  3-C ,  4-C ) :   1.5089 B(  3-C ,  5-H ) :   0.9840
B(  4-C , 20-C ) :   1.0846 B(  6-C ,  7-H ) :   0.9378 B(  6-C ,  8-H ) :   0.9203
B(  6-C ,  9-C ) :   1.0882 B(  9-C , 10-H ) :   0.9446 B(  9-C , 11-H ) :   0.9487
B(  9-C , 12-C ) :   1.0770 B( 12-C , 13-H ) :   0.9671 B( 12-C , 14-H ) :   0.9726
B( 12-C , 15-H ) :   0.9719 B( 16-S , 17-C ) :   1.1372 B( 16-S , 20-C ) :   1.1380
B( 17-C , 18-C ) :   1.6361 B( 17-C , 33-H ) :   0.9634 B( 18-C , 19-C ) :   1.2159
B( 18-C , 21-H ) :   0.9922 B( 19-C , 20-C ) :   1.5717 B( 19-C , 22-C ) :   1.0410
B( 22-C , 23-H ) :   0.9337 B( 22-C , 24-H ) :   0.9364 B( 22-C , 25-C ) :   1.0697
B( 25-C , 26-H ) :   0.9517 B( 25-C , 27-H ) :   0.9525 B( 25-C , 28-C ) :   1.0826
B( 28-C , 29-H ) :   0.9716 B( 28-C , 30-H ) :   0.9724 B( 28-C , 31-H ) :   0.9704

Dispersion correction           -0.014767127
FINAL SINGLE POINT ENERGY     -1339.883954080814

DIPOLE MOMENT
-------------
                                X             Y             Z
Electronic contribution:    -17.09631     -20.96395       1.25087
Nuclear contribution   :     17.60974      21.30870      -1.44392
                        -----------------------------------------
Total Dipole Moment    :      0.51343       0.34474      -0.19306
                        -----------------------------------------
Magnitude (a.u.)       :      0.64787
Magnitude (Debye)      :      1.64675

Rotational constants in cm-1:     0.017390     0.009772     0.007346
Rotational constants in MHz :   521.346856   292.951486   220.230178

                             ****ORCA TERMINATED NORMALLY****
TOTAL RUN TIME: 0 days 0 hours 0 minutes 22 seconds 64 msec
