                         Program Version 4.2.1 -  RELEASE  -
|  1> ! wB97X-D3 SP def2-SVP
|  2> %pal
|  3> nprocs 24
|  4> end
|  5>
|  6> * xyz 0 1
|  7> S 	 -112.913 	 31.0871 	 -23.2895
|  8> C 	 -113.904 	 31.8328 	 -24.3991
|  9> C 	 -115.202 	 31.3557 	 -24.3069
| 10> C 	 -115.371 	 30.4507 	 -23.2526
| 11> C 	 -114.173 	 30.128 	 -22.6443
| 12> H 	 -116.277 	 29.9785 	 -22.8254
| 13> C 	 -116.218 	 31.6507 	 -25.4055
| 14> H 	 -115.966 	 32.6001 	 -25.8306
| 15> H 	 -117.177 	 31.7761 	 -24.8714
| 16> C 	 -116.38 	 30.6213 	 -26.4915
| 17> H 	 -115.561 	 30.6928 	 -27.2422
| 18> H 	 -116.429 	 29.6135 	 -26.1148
| 19> C 	 -117.605 	 31.052 	 -27.3371
| 20> H 	 -118.54 	 30.8447 	 -26.835
| 21> H 	 -117.718 	 32.1531 	 -27.357
| 22> H 	 -117.635 	 30.5704 	 -28.2869
| 23> S 	 -113.076 	 30.0997 	 -20.1462
| 24> C 	 -113.069 	 28.5519 	 -19.3156
| 25> C 	 -113.771 	 27.5963 	 -20.0023
| 26> C 	 -114.271 	 28.0216 	 -21.2845
| 27> C 	 -113.933 	 29.3835 	 -21.4601
| 28> H 	 -113.965 	 26.6252 	 -19.6695
| 29> C 	 -114.877 	 27.0979 	 -22.2786
| 30> H 	 -115.264 	 27.6512 	 -23.1439
| 31> H 	 -115.663 	 26.4651 	 -21.931
| 32> C 	 -114.021 	 26.0458 	 -22.9835
| 33> H 	 -113.646 	 25.336 	 -22.336
| 34> H 	 -113.155 	 26.5471 	 -23.464
| 35> C 	 -114.816 	 25.253 	 -24.0561
| 36> H 	 -115.671 	 24.6763 	 -23.6802
| 37> H 	 -114.221 	 24.5782 	 -24.6062
| 38> H 	 -115.222 	 25.9624 	 -24.7982
| 39> H 	 -113.489 	 32.4956 	 -25.2269
| 40> H 	 -112.57 	 28.3495 	 -18.384
| 41> *
| 42>
| 43>                          ****END OF INPUT****

CARTESIAN COORDINATES (ANGSTROEM)
---------------------------------
  S    -112.913000   31.087100  -23.289500
  C    -113.904000   31.832800  -24.399100
  C    -115.202000   31.355700  -24.306900
  C    -115.371000   30.450700  -23.252600
  C    -114.173000   30.128000  -22.644300
  H    -116.277000   29.978500  -22.825400
  C    -116.218000   31.650700  -25.405500
  H    -115.966000   32.600100  -25.830600
  H    -117.177000   31.776100  -24.871400
  C    -116.380000   30.621300  -26.491500
  H    -115.561000   30.692800  -27.242200
  H    -116.429000   29.613500  -26.114800
  C    -117.605000   31.052000  -27.337100
  H    -118.540000   30.844700  -26.835000
  H    -117.718000   32.153100  -27.357000
  H    -117.635000   30.570400  -28.286900
  S    -113.076000   30.099700  -20.146200
  C    -113.069000   28.551900  -19.315600
  C    -113.771000   27.596300  -20.002300
  C    -114.271000   28.021600  -21.284500
  C    -113.933000   29.383500  -21.460100
  H    -113.965000   26.625200  -19.669500
  C    -114.877000   27.097900  -22.278600
  H    -115.264000   27.651200  -23.143900
  H    -115.663000   26.465100  -21.931000
  C    -114.021000   26.045800  -22.983500
  H    -113.646000   25.336000  -22.336000
  H    -113.155000   26.547100  -23.464000
  C    -114.816000   25.253000  -24.056100
  H    -115.671000   24.676300  -23.680200
  H    -114.221000   24.578200  -24.606200
  H    -115.222000   25.962400  -24.798200
  H    -113.489000   32.495600  -25.226900
  H    -112.570000   28.349500  -18.384000

 Total Charge           Charge          ....    0
 Multiplicity           Mult            ....    1
 Number of Electrons    NEL             ....  134
 Basis Dimension        Dim             ....  322

ORBITAL ENERGIES
----------------

  NO   OCC          E(Eh)            E(eV)
   0   2.0000     -88.969876     -2420.9934
   1   2.0000     -88.962338     -2420.7883
   2   2.0000     -10.322198      -280.8813
   3   2.0000     -10.317067      -280.7417
   4   2.0000     -10.314925      -280.6834
   5   2.0000     -10.309599      -280.5384
   6   2.0000     -10.302131      -280.3352
   7   2.0000     -10.295438      -280.1531
   8   2.0000     -10.292161      -280.0639
   9   2.0000     -10.288884      -279.9748
  10   2.0000     -10.287420      -279.9349
  11   2.0000     -10.286465      -279.9089
  12   2.0000     -10.286368      -279.9063
  13   2.0000     -10.280593      -279.7491
  14   2.0000     -10.277267      -279.6587
  15   2.0000     -10.275377      -279.6072
  16   2.0000      -8.084737      -219.9969
  17   2.0000      -8.079583      -219.8566
  18   2.0000      -6.043205      -164.4440
  19   2.0000      -6.039302      -164.3378
  20   2.0000      -6.037616      -164.2919
  21   2.0000      -6.035442      -164.2327
  22   2.0000      -6.033560      -164.1815
  23   2.0000      -6.030860      -164.1081
  24   2.0000      -1.019386       -27.7389
  25   2.0000      -0.989535       -26.9266
  26   2.0000      -0.915485       -24.9116
  27   2.0000      -0.912711       -24.8361
  28   2.0000      -0.874485       -23.7959
  29   2.0000      -0.856544       -23.3077
  30   2.0000      -0.849494       -23.1159
  31   2.0000      -0.814319       -22.1588
  32   2.0000      -0.783824       -21.3289
  33   2.0000      -0.766923       -20.8690
  34   2.0000      -0.708548       -19.2806
  35   2.0000      -0.699652       -19.0385
  36   2.0000      -0.694269       -18.8920
  37   2.0000      -0.664196       -18.0737
  38   2.0000      -0.645269       -17.5587
  39   2.0000      -0.620440       -16.8830
  40   2.0000      -0.605648       -16.4805
  41   2.0000      -0.572770       -15.5859
  42   2.0000      -0.568559       -15.4713
  43   2.0000      -0.559093       -15.2137
  44   2.0000      -0.528677       -14.3860
  45   2.0000      -0.525441       -14.2980
  46   2.0000      -0.519080       -14.1249
  47   2.0000      -0.510074       -13.8798
  48   2.0000      -0.502102       -13.6629
  49   2.0000      -0.499031       -13.5793
  50   2.0000      -0.492668       -13.4062
  51   2.0000      -0.482347       -13.1253
  52   2.0000      -0.465845       -12.6763
  53   2.0000      -0.462660       -12.5896
  54   2.0000      -0.458305       -12.4711
  55   2.0000      -0.453094       -12.3293
  56   2.0000      -0.449164       -12.2224
  57   2.0000      -0.445963       -12.1353
  58   2.0000      -0.435099       -11.8396
  59   2.0000      -0.426610       -11.6086
  60   2.0000      -0.424354       -11.5473
  61   2.0000      -0.419550       -11.4165
  62   2.0000      -0.406962       -11.0740
  63   2.0000      -0.350133        -9.5276
  64   2.0000      -0.332658        -9.0521
  65   2.0000      -0.328079        -8.9275
  66   2.0000      -0.287653        -7.8274
  67   0.0000       0.032817         0.8930
  68   0.0000       0.075290         2.0487
  69   0.0000       0.114280         3.1097
  70   0.0000       0.122980         3.3465
  71   0.0000       0.133483         3.6323

MULLIKEN ATOMIC CHARGES
-----------------------
   0 S :    0.125450
   1 C :   -0.143721
   2 C :   -0.087100
   3 C :    0.035945
   4 C :   -0.208432
   5 H :    0.027085
   6 C :    0.050095
   7 H :    0.012474
   8 H :    0.023083
   9 C :   -0.036841
  10 H :    0.028920
  11 H :    0.031870
  12 C :   -0.046744
  13 H :    0.016656
  14 H :    0.026295
  15 H :    0.035135
  16 S :    0.133683
  17 C :   -0.088660
  18 C :    0.009813
  19 C :   -0.009768
  20 C :   -0.155703
  21 H :   -0.009961
  22 C :    0.060087
  23 H :    0.013668
  24 H :    0.014534
  25 C :   -0.055216
  26 H :    0.008832
  27 H :    0.033784
  28 C :   -0.056844
  29 H :    0.030428
  30 H :    0.026514
  31 H :    0.026247
  32 H :    0.075295
  33 H :    0.053098
Sum of atomic charges:   -0.0000000

LOEWDIN ATOMIC CHARGES
----------------------
   0 S :    0.460809
   1 C :   -0.236257
   2 C :   -0.072770
   3 C :   -0.067111
   4 C :   -0.213938
   5 H :    0.040045
   6 C :   -0.031377
   7 H :    0.025367
   8 H :    0.030386
   9 C :   -0.035755
  10 H :    0.028092
  11 H :    0.022242
  12 C :   -0.066174
  13 H :    0.021201
  14 H :    0.029750
  15 H :    0.021184
  16 S :    0.419399
  17 C :   -0.185931
  18 C :   -0.055074
  19 C :   -0.052323
  20 C :   -0.209837
  21 H :    0.020285
  22 C :   -0.040040
  23 H :    0.032533
  24 H :    0.028691
  25 C :   -0.029265
  26 H :    0.007923
  27 H :    0.028169
  28 C :   -0.063481
  29 H :    0.024929
  30 H :    0.021219
  31 H :    0.025885
  32 H :    0.043058
  33 H :    0.028168

  Mayer bond orders larger than 0.100000
B(  0-S ,  1-C ) :   1.1787 B(  0-S ,  4-C ) :   1.1855 B(  1-C ,  2-C ) :   1.5579
B(  1-C ,  4-C ) :   0.1003 B(  1-C , 32-H ) :   0.9606 B(  2-C ,  3-C ) :   1.2791
B(  2-C ,  6-C ) :   1.0225 B(  3-C ,  4-C ) :   1.5274 B(  3-C ,  5-H ) :   0.9916
B(  4-C , 20-C ) :   1.0539 B(  6-C ,  7-H ) :   0.9333 B(  6-C ,  8-H ) :   0.9439
B(  6-C ,  9-C ) :   1.0721 B(  9-C , 10-H ) :   0.9547 B(  9-C , 11-H ) :   0.9584
B(  9-C , 12-C ) :   1.0683 B( 12-C , 13-H ) :   0.9731 B( 12-C , 14-H ) :   0.9704
B( 12-C , 15-H ) :   0.9756 B( 16-S , 17-C ) :   1.1322 B( 16-S , 20-C ) :   1.1614
B( 17-C , 18-C ) :   1.6064 B( 17-C , 33-H ) :   0.9702 B( 18-C , 19-C ) :   1.2486
B( 18-C , 21-H ) :   0.9968 B( 19-C , 20-C ) :   1.5575 B( 19-C , 22-C ) :   1.0692
B( 22-C , 23-H ) :   0.9244 B( 22-C , 24-H ) :   0.9298 B( 22-C , 25-C ) :   1.0627
B( 25-C , 26-H ) :   0.9532 B( 25-C , 27-H ) :   0.9532 B( 25-C , 28-C ) :   1.0835
B( 28-C , 29-H ) :   0.9740 B( 28-C , 30-H ) :   0.9738 B( 28-C , 31-H ) :   0.9752

Dispersion correction           -0.013747361
FINAL SINGLE POINT ENERGY     -1339.878453832767

DIPOLE MOMENT
-------------
                                X             Y             Z
Electronic contribution:     17.49317      13.45704      22.35517
Nuclear contribution   :    -17.79712     -13.83879     -22.67651
                        -----------------------------------------
Total Dipole Moment    :     -0.30395      -0.38175      -0.32135
                        -----------------------------------------
Magnitude (a.u.)       :      0.58428
Magnitude (Debye)      :      1.48513

Rotational constants in cm-1:     0.017989     0.008951     0.006609
Rotational constants in MHz :   539.283316   268.335167   198.120964

                             ****ORCA TERMINATED NORMALLY****
TOTAL RUN TIME: 0 days 0 hours 0 minutes 20 seconds 352 msec
