                         Program Version 4.2.1 -  RELEASE  -
|  1> ! wB97X-D3 SP def2-SVP
|  2> %pal
|  3> nprocs 24
|  4> end
|  5>
|  6> * xyz 0 1
|  7> S 	 -43.3984 	 12.2721 	 34.2673
|  8> C 	 -42.2508 	 12.4808 	 35.5735
|  9> C 	 -41.02 	 12.9895 	 35.173
| 10> C 	 -41.093 	 13.2543 	 33.7806
| 11> C 	 -42.2664 	 12.9686 	 33.1814
| 12> H 	 -40.2374 	 13.6185 	 33.1447
| 13> C 	 -39.7161 	 13.2356 	 35.9767
| 14> H 	 -38.9136 	 12.5441 	 35.8084
| 15> H 	 -40.0365 	 13.1487 	 36.9986
| 16> C 	 -38.9769 	 14.5734 	 35.8272
| 17> H 	 -38.0398 	 14.4358 	 36.3564
| 18> H 	 -38.7193 	 14.8063 	 34.7421
| 19> C 	 -39.6958 	 15.7379 	 36.407
| 20> H 	 -40.645 	 15.7859 	 35.8711
| 21> H 	 -39.9435 	 15.4821 	 37.4465
| 22> H 	 -39.2209 	 16.6834 	 36.4216
| 23> S 	 -41.9483 	 12.3276 	 30.5124
| 24> C 	 -42.7202 	 13.2727 	 29.3041
| 25> C 	 -43.4627 	 14.2928 	 29.8377
| 26> C 	 -43.4158 	 14.2629 	 31.2646
| 27> C 	 -42.597 	 13.3005 	 31.8297
| 28> H 	 -44.0817 	 14.9089 	 29.1723
| 29> C 	 -44.2293 	 15.3009 	 32.0433
| 30> H 	 -44.4964 	 14.9721 	 33.007
| 31> H 	 -45.2155 	 15.5775 	 31.6723
| 32> C 	 -43.4613 	 16.66 	 32.2194
| 33> H 	 -44.0857 	 17.1953 	 32.8984
| 34> H 	 -43.3725 	 17.1445 	 31.2061
| 35> C 	 -42.1091 	 16.5405 	 32.9021
| 36> H 	 -41.3931 	 16.0061 	 32.3452
| 37> H 	 -42.2978 	 16.0724 	 33.867
| 38> H 	 -41.5767 	 17.5498 	 33.0285
| 39> H 	 -42.4794 	 12.0954 	 36.5692
| 40> H 	 -42.7118 	 12.9965 	 28.2693
| 41> *
| 42>
| 43>                          ****END OF INPUT****

CARTESIAN COORDINATES (ANGSTROEM)
---------------------------------
  S    -43.398400   12.272100   34.267300
  C    -42.250800   12.480800   35.573500
  C    -41.020000   12.989500   35.173000
  C    -41.093000   13.254300   33.780600
  C    -42.266400   12.968600   33.181400
  H    -40.237400   13.618500   33.144700
  C    -39.716100   13.235600   35.976700
  H    -38.913600   12.544100   35.808400
  H    -40.036500   13.148700   36.998600
  C    -38.976900   14.573400   35.827200
  H    -38.039800   14.435800   36.356400
  H    -38.719300   14.806300   34.742100
  C    -39.695800   15.737900   36.407000
  H    -40.645000   15.785900   35.871100
  H    -39.943500   15.482100   37.446500
  H    -39.220900   16.683400   36.421600
  S    -41.948300   12.327600   30.512400
  C    -42.720200   13.272700   29.304100
  C    -43.462700   14.292800   29.837700
  C    -43.415800   14.262900   31.264600
  C    -42.597000   13.300500   31.829700
  H    -44.081700   14.908900   29.172300
  C    -44.229300   15.300900   32.043300
  H    -44.496400   14.972100   33.007000
  H    -45.215500   15.577500   31.672300
  C    -43.461300   16.660000   32.219400
  H    -44.085700   17.195300   32.898400
  H    -43.372500   17.144500   31.206100
  C    -42.109100   16.540500   32.902100
  H    -41.393100   16.006100   32.345200
  H    -42.297800   16.072400   33.867000
  H    -41.576700   17.549800   33.028500
  H    -42.479400   12.095400   36.569200
  H    -42.711800   12.996500   28.269300

 Total Charge           Charge          ....    0
 Multiplicity           Mult            ....    1
 Number of Electrons    NEL             ....  134
 Basis Dimension        Dim             ....  322

ORBITAL ENERGIES
----------------

  NO   OCC          E(Eh)            E(eV)
   0   2.0000     -88.970000     -2420.9968
   1   2.0000     -88.961581     -2420.7677
   2   2.0000     -10.322272      -280.8833
   3   2.0000     -10.319543      -280.8090
   4   2.0000     -10.319452      -280.8066
   5   2.0000     -10.312323      -280.6126
   6   2.0000     -10.306592      -280.4566
   7   2.0000     -10.303635      -280.3762
   8   2.0000     -10.295206      -280.1468
   9   2.0000     -10.292533      -280.0741
  10   2.0000     -10.291435      -280.0442
  11   2.0000     -10.288171      -279.9554
  12   2.0000     -10.283892      -279.8389
  13   2.0000     -10.282586      -279.8034
  14   2.0000     -10.269585      -279.4496
  15   2.0000     -10.268327      -279.4154
  16   2.0000      -8.085115      -220.0072
  17   2.0000      -8.076944      -219.7848
  18   2.0000      -6.043525      -164.4527
  19   2.0000      -6.039579      -164.3453
  20   2.0000      -6.035944      -164.2464
  21   2.0000      -6.035425      -164.2323
  22   2.0000      -6.031223      -164.1179
  23   2.0000      -6.027854      -164.0262
  24   2.0000      -1.013192       -27.5704
  25   2.0000      -0.989064       -26.9138
  26   2.0000      -0.916739       -24.9457
  27   2.0000      -0.903055       -24.5734
  28   2.0000      -0.874473       -23.7956
  29   2.0000      -0.852218       -23.1900
  30   2.0000      -0.841968       -22.9111
  31   2.0000      -0.814064       -22.1518
  32   2.0000      -0.787560       -21.4306
  33   2.0000      -0.775651       -21.1065
  34   2.0000      -0.706374       -19.2214
  35   2.0000      -0.692697       -18.8493
  36   2.0000      -0.685344       -18.6492
  37   2.0000      -0.659770       -17.9533
  38   2.0000      -0.639340       -17.3973
  39   2.0000      -0.624017       -16.9804
  40   2.0000      -0.601742       -16.3742
  41   2.0000      -0.571406       -15.5488
  42   2.0000      -0.559001       -15.2112
  43   2.0000      -0.551685       -15.0121
  44   2.0000      -0.543596       -14.7920
  45   2.0000      -0.535210       -14.5638
  46   2.0000      -0.518487       -14.1087
  47   2.0000      -0.513577       -13.9751
  48   2.0000      -0.506214       -13.7748
  49   2.0000      -0.491843       -13.3837
  50   2.0000      -0.484852       -13.1935
  51   2.0000      -0.478616       -13.0238
  52   2.0000      -0.468129       -12.7384
  53   2.0000      -0.462515       -12.5857
  54   2.0000      -0.455955       -12.4072
  55   2.0000      -0.448995       -12.2178
  56   2.0000      -0.443799       -12.0764
  57   2.0000      -0.441058       -12.0018
  58   2.0000      -0.426089       -11.5945
  59   2.0000      -0.425416       -11.5762
  60   2.0000      -0.417620       -11.3640
  61   2.0000      -0.414229       -11.2718
  62   2.0000      -0.407639       -11.0924
  63   2.0000      -0.338585        -9.2134
  64   2.0000      -0.333562        -9.0767
  65   2.0000      -0.326866        -8.8945
  66   2.0000      -0.305225        -8.3056
  67   0.0000       0.044197         1.2027
  68   0.0000       0.060621         1.6496
  69   0.0000       0.112809         3.0697
  70   0.0000       0.122462         3.3324
  71   0.0000       0.127417         3.4672

MULLIKEN ATOMIC CHARGES
-----------------------
   0 S :    0.136316
   1 C :   -0.150030
   2 C :   -0.060072
   3 C :    0.004582
   4 C :   -0.164583
   5 H :    0.033631
   6 C :    0.095492
   7 H :    0.042215
   8 H :    0.006800
   9 C :   -0.108666
  10 H :    0.026219
  11 H :    0.038714
  12 C :   -0.021693
  13 H :    0.031416
  14 H :    0.012916
  15 H :    0.034030
  16 S :    0.106516
  17 C :   -0.089617
  18 C :   -0.037281
  19 C :   -0.014969
  20 C :   -0.178379
  21 H :    0.028569
  22 C :    0.086398
  23 H :   -0.007764
  24 H :    0.018969
  25 C :   -0.075854
  26 H :    0.023066
  27 H :    0.035419
  28 C :   -0.061765
  29 H :    0.024897
  30 H :    0.045747
  31 H :    0.036024
  32 H :    0.049266
  33 H :    0.053469
Sum of atomic charges:    0.0000000

LOEWDIN ATOMIC CHARGES
----------------------
   0 S :    0.428895
   1 C :   -0.192758
   2 C :   -0.064876
   3 C :   -0.059750
   4 C :   -0.217140
   5 H :    0.039779
   6 C :   -0.023396
   7 H :    0.035501
   8 H :    0.026563
   9 C :   -0.044607
  10 H :    0.023263
  11 H :    0.027776
  12 C :   -0.065383
  13 H :    0.028187
  14 H :    0.023804
  15 H :    0.021203
  16 S :    0.414034
  17 C :   -0.186938
  18 C :   -0.077775
  19 C :   -0.050221
  20 C :   -0.205046
  21 H :    0.037716
  22 C :   -0.031246
  23 H :    0.013935
  24 H :    0.031195
  25 C :   -0.034186
  26 H :    0.019856
  27 H :    0.024574
  28 C :   -0.068183
  29 H :    0.013924
  30 H :    0.025525
  31 H :    0.033859
  32 H :    0.025647
  33 H :    0.026269

  Mayer bond orders larger than 0.100000
B(  0-S ,  1-C ) :   1.1554 B(  0-S ,  4-C ) :   1.1465 B(  1-C ,  2-C ) :   1.6050
B(  1-C , 32-H ) :   0.9641 B(  2-C ,  3-C ) :   1.2391 B(  2-C ,  6-C ) :   1.0097
B(  3-C ,  4-C ) :   1.6118 B(  3-C ,  5-H ) :   0.9803 B(  4-C , 20-C ) :   1.0188
B(  6-C ,  7-H ) :   0.9417 B(  6-C ,  8-H ) :   0.9365 B(  6-C ,  9-C ) :   1.0793
B(  9-C , 10-H ) :   0.9521 B(  9-C , 11-H ) :   0.9493 B(  9-C , 12-C ) :   1.0818
B( 12-C , 13-H ) :   0.9741 B( 12-C , 14-H ) :   0.9674 B( 12-C , 15-H ) :   0.9729
B( 16-S , 17-C ) :   1.1776 B( 16-S , 20-C ) :   1.1365 B( 17-C , 18-C ) :   1.5947
B( 17-C , 33-H ) :   0.9679 B( 18-C , 19-C ) :   1.2383 B( 18-C , 21-H ) :   0.9927
B( 19-C , 20-C ) :   1.6011 B( 19-C , 22-C ) :   1.0470 B( 22-C , 23-H ) :   0.9274
B( 22-C , 24-H ) :   0.9391 B( 22-C , 25-C ) :   1.0732 B( 25-C , 26-H ) :   0.9563
B( 25-C , 27-H ) :   0.9565 B( 25-C , 28-C ) :   1.0850 B( 28-C , 29-H ) :   0.9712
B( 28-C , 30-H ) :   0.9678 B( 28-C , 31-H ) :   0.9706

Dispersion correction           -0.016676865
FINAL SINGLE POINT ENERGY     -1339.885312719419

DIPOLE MOMENT
-------------
                                X             Y             Z
Electronic contribution:     -9.44382     -21.36278     -12.70556
Nuclear contribution   :      9.57275      21.66622      12.88836
                        -----------------------------------------
Total Dipole Moment    :      0.12893       0.30344       0.18280
                        -----------------------------------------
Magnitude (a.u.)       :      0.37698
Magnitude (Debye)      :      0.95820

Rotational constants in cm-1:     0.020059     0.009482     0.008338
Rotational constants in MHz :   601.347674   284.248447   249.955733

                             ****ORCA TERMINATED NORMALLY****
TOTAL RUN TIME: 0 days 0 hours 0 minutes 22 seconds 81 msec
