                         Program Version 4.2.1 -  RELEASE  -
|  1> ! wB97X-D3 SP def2-SVP
|  2> %pal
|  3> nprocs 24
|  4> end
|  5>
|  6> * xyz 0 1
|  7> S 	 -107.051 	 53.4439 	 -79.8792
|  8> C 	 -107.256 	 53.2799 	 -81.6167
|  9> C 	 -107.697 	 54.428 	 -82.2828
| 10> C 	 -107.682 	 55.501 	 -81.2975
| 11> C 	 -107.406 	 55.1643 	 -80.0032
| 12> H 	 -107.904 	 56.4476 	 -81.4171
| 13> C 	 -107.971 	 54.5941 	 -83.7889
| 14> H 	 -107.162 	 55.087 	 -84.2639
| 15> H 	 -108.858 	 55.2566 	 -83.8024
| 16> C 	 -108.445 	 53.3058 	 -84.525
| 17> H 	 -107.59 	 52.6295 	 -84.5806
| 18> H 	 -109.274 	 52.9271 	 -83.891
| 19> C 	 -108.857 	 53.5418 	 -85.9911
| 20> H 	 -108.036 	 54.0744 	 -86.5066
| 21> H 	 -109.187 	 52.576 	 -86.3702
| 22> H 	 -109.683 	 54.2412 	 -86.0239
| 23> S 	 -105.609 	 55.7352 	 -78.0585
| 24> C 	 -105.867 	 57.2014 	 -77.1317
| 25> C 	 -106.97 	 57.9346 	 -77.4945
| 26> C 	 -107.603 	 57.3225 	 -78.5932
| 27> C 	 -107.101 	 56.0482 	 -78.9189
| 28> H 	 -107.224 	 58.8961 	 -77.0621
| 29> C 	 -108.808 	 58.0021 	 -79.1477
| 30> H 	 -108.572 	 57.9342 	 -80.2004
| 31> H 	 -108.714 	 59.0935 	 -78.9242
| 32> C 	 -110.169 	 57.3606 	 -78.9451
| 33> H 	 -110.112 	 56.3452 	 -79.3197
| 34> H 	 -110.958 	 57.8551 	 -79.5435
| 35> C 	 -110.679 	 57.3195 	 -77.5103
| 36> H 	 -111.677 	 56.9563 	 -77.4312
| 37> H 	 -110.622 	 58.3173 	 -77.1243
| 38> H 	 -110.145 	 56.5077 	 -76.9197
| 39> H 	 -106.986 	 52.3589 	 -82.1216
| 40> H 	 -105.128 	 57.535 	 -76.4305
| 41> *
| 42>
| 43>                          ****END OF INPUT****

CARTESIAN COORDINATES (ANGSTROEM)
---------------------------------
  S    -107.051000   53.443900  -79.879200
  C    -107.256000   53.279900  -81.616700
  C    -107.697000   54.428000  -82.282800
  C    -107.682000   55.501000  -81.297500
  C    -107.406000   55.164300  -80.003200
  H    -107.904000   56.447600  -81.417100
  C    -107.971000   54.594100  -83.788900
  H    -107.162000   55.087000  -84.263900
  H    -108.858000   55.256600  -83.802400
  C    -108.445000   53.305800  -84.525000
  H    -107.590000   52.629500  -84.580600
  H    -109.274000   52.927100  -83.891000
  C    -108.857000   53.541800  -85.991100
  H    -108.036000   54.074400  -86.506600
  H    -109.187000   52.576000  -86.370200
  H    -109.683000   54.241200  -86.023900
  S    -105.609000   55.735200  -78.058500
  C    -105.867000   57.201400  -77.131700
  C    -106.970000   57.934600  -77.494500
  C    -107.603000   57.322500  -78.593200
  C    -107.101000   56.048200  -78.918900
  H    -107.224000   58.896100  -77.062100
  C    -108.808000   58.002100  -79.147700
  H    -108.572000   57.934200  -80.200400
  H    -108.714000   59.093500  -78.924200
  C    -110.169000   57.360600  -78.945100
  H    -110.112000   56.345200  -79.319700
  H    -110.958000   57.855100  -79.543500
  C    -110.679000   57.319500  -77.510300
  H    -111.677000   56.956300  -77.431200
  H    -110.622000   58.317300  -77.124300
  H    -110.145000   56.507700  -76.919700
  H    -106.986000   52.358900  -82.121600
  H    -105.128000   57.535000  -76.430500

 Total Charge           Charge          ....    0
 Multiplicity           Mult            ....    1
 Number of Electrons    NEL             ....  134
 Basis Dimension        Dim             ....  322

ORBITAL ENERGIES
----------------

  NO   OCC          E(Eh)            E(eV)
   0   2.0000     -88.967416     -2420.9265
   1   2.0000     -88.963773     -2420.8273
   2   2.0000     -10.323789      -280.9246
   3   2.0000     -10.323520      -280.9172
   4   2.0000     -10.314569      -280.6737
   5   2.0000     -10.313819      -280.6533
   6   2.0000     -10.308907      -280.5196
   7   2.0000     -10.299274      -280.2575
   8   2.0000     -10.297495      -280.2091
   9   2.0000     -10.292362      -280.0694
  10   2.0000     -10.290930      -280.0304
  11   2.0000     -10.289150      -279.9820
  12   2.0000     -10.283431      -279.8264
  13   2.0000     -10.283234      -279.8210
  14   2.0000     -10.283039      -279.8157
  15   2.0000     -10.271392      -279.4988
  16   2.0000      -8.082050      -219.9237
  17   2.0000      -8.078488      -219.8268
  18   2.0000      -6.040414      -164.3680
  19   2.0000      -6.037009      -164.2754
  20   2.0000      -6.036669      -164.2661
  21   2.0000      -6.033138      -164.1700
  22   2.0000      -6.032869      -164.1627
  23   2.0000      -6.029113      -164.0605
  24   2.0000      -1.007997       -27.4290
  25   2.0000      -0.980961       -26.6933
  26   2.0000      -0.912519       -24.8309
  27   2.0000      -0.909836       -24.7579
  28   2.0000      -0.871472       -23.7139
  29   2.0000      -0.854534       -23.2530
  30   2.0000      -0.847624       -23.0650
  31   2.0000      -0.814909       -22.1748
  32   2.0000      -0.785649       -21.3786
  33   2.0000      -0.770200       -20.9582
  34   2.0000      -0.709271       -19.3002
  35   2.0000      -0.701001       -19.0752
  36   2.0000      -0.683145       -18.5893
  37   2.0000      -0.670704       -18.2508
  38   2.0000      -0.645390       -17.5620
  39   2.0000      -0.613454       -16.6929
  40   2.0000      -0.590315       -16.0633
  41   2.0000      -0.578043       -15.7293
  42   2.0000      -0.564523       -15.3615
  43   2.0000      -0.557060       -15.1584
  44   2.0000      -0.546458       -14.8699
  45   2.0000      -0.532280       -14.4841
  46   2.0000      -0.523055       -14.2330
  47   2.0000      -0.506574       -13.7846
  48   2.0000      -0.499714       -13.5979
  49   2.0000      -0.494116       -13.4456
  50   2.0000      -0.492851       -13.4112
  51   2.0000      -0.479571       -13.0498
  52   2.0000      -0.469459       -12.7746
  53   2.0000      -0.466855       -12.7038
  54   2.0000      -0.458583       -12.4787
  55   2.0000      -0.450949       -12.2709
  56   2.0000      -0.439330       -11.9548
  57   2.0000      -0.438301       -11.9268
  58   2.0000      -0.435022       -11.8376
  59   2.0000      -0.429000       -11.6737
  60   2.0000      -0.418611       -11.3910
  61   2.0000      -0.417215       -11.3530
  62   2.0000      -0.406866       -11.0714
  63   2.0000      -0.352978        -9.6050
  64   2.0000      -0.333369        -9.0714
  65   2.0000      -0.328900        -8.9498
  66   2.0000      -0.281400        -7.6573
  67   0.0000       0.025407         0.6914
  68   0.0000       0.073686         2.0051
  69   0.0000       0.104649         2.8476
  70   0.0000       0.117282         3.1914
  71   0.0000       0.133869         3.6428

MULLIKEN ATOMIC CHARGES
-----------------------
   0 S :    0.094373
   1 C :   -0.139706
   2 C :   -0.068644
   3 C :    0.089889
   4 C :   -0.148015
   5 H :   -0.087035
   6 C :    0.064317
   7 H :    0.039687
   8 H :    0.029344
   9 C :   -0.128835
  10 H :    0.035964
  11 H :    0.046094
  12 C :   -0.019457
  13 H :    0.036561
  14 H :    0.046064
  15 H :    0.019927
  16 S :    0.110331
  17 C :   -0.089710
  18 C :   -0.014130
  19 C :   -0.083717
  20 C :   -0.116745
  21 H :    0.019624
  22 C :    0.069750
  23 H :    0.014797
  24 H :    0.022312
  25 C :   -0.049800
  26 H :    0.029085
  27 H :    0.029308
  28 C :   -0.043216
  29 H :    0.021972
  30 H :    0.025870
  31 H :    0.045049
  32 H :    0.049958
  33 H :    0.048733
Sum of atomic charges:    0.0000000

LOEWDIN ATOMIC CHARGES
----------------------
   0 S :    0.384951
   1 C :   -0.191592
   2 C :   -0.055326
   3 C :   -0.045609
   4 C :   -0.187723
   5 H :   -0.002734
   6 C :   -0.029755
   7 H :    0.026735
   8 H :    0.034894
   9 C :   -0.042784
  10 H :    0.020913
  11 H :    0.030899
  12 C :   -0.062049
  13 H :    0.030607
  14 H :    0.030997
  15 H :    0.020267
  16 S :    0.412257
  17 C :   -0.175433
  18 C :   -0.068487
  19 C :   -0.053937
  20 C :   -0.205346
  21 H :    0.035419
  22 C :   -0.039205
  23 H :    0.030878
  24 H :    0.033231
  25 C :   -0.040141
  26 H :    0.026089
  27 H :    0.027017
  28 C :   -0.067707
  29 H :    0.021646
  30 H :    0.019940
  31 H :    0.036305
  32 H :    0.023415
  33 H :    0.021369

  Mayer bond orders larger than 0.100000
B(  0-S ,  1-C ) :   1.1388 B(  0-S ,  4-C ) :   1.1154 B(  1-C ,  2-C ) :   1.6211
B(  1-C , 32-H ) :   0.9644 B(  2-C ,  3-C ) :   1.2159 B(  2-C ,  6-C ) :   1.0058
B(  3-C ,  4-C ) :   1.6086 B(  3-C ,  5-H ) :   1.0062 B(  4-C , 20-C ) :   1.0652
B(  6-C ,  7-H ) :   0.9390 B(  6-C ,  8-H ) :   0.9426 B(  6-C ,  9-C ) :   1.0699
B(  9-C , 10-H ) :   0.9514 B(  9-C , 11-H ) :   0.9597 B(  9-C , 12-C ) :   1.0845
B( 12-C , 13-H ) :   0.9720 B( 12-C , 14-H ) :   0.9729 B( 12-C , 15-H ) :   0.9752
B( 16-S , 17-C ) :   1.1688 B( 16-S , 20-C ) :   1.1388 B( 17-C , 18-C ) :   1.5814
B( 17-C , 20-C ) :   0.1012 B( 17-C , 33-H ) :   0.9673 B( 18-C , 19-C ) :   1.2662
B( 18-C , 21-H ) :   0.9939 B( 19-C , 20-C ) :   1.5613 B( 19-C , 22-C ) :   1.0370
B( 22-C , 23-H ) :   0.9196 B( 22-C , 24-H ) :   0.9309 B( 22-C , 25-C ) :   1.0818
B( 25-C , 26-H ) :   0.9488 B( 25-C , 27-H ) :   0.9524 B( 25-C , 28-C ) :   1.0850
B( 28-C , 29-H ) :   0.9715 B( 28-C , 30-H ) :   0.9760 B( 28-C , 31-H ) :   0.9727

Dispersion correction           -0.014169725
FINAL SINGLE POINT ENERGY     -1339.865920748788

DIPOLE MOMENT
-------------
                                X             Y             Z
Electronic contribution:     18.68345      -5.56878      17.24280
Nuclear contribution   :    -18.92037       6.00043     -17.74482
                        -----------------------------------------
Total Dipole Moment    :     -0.23691       0.43165      -0.50202
                        -----------------------------------------
Magnitude (a.u.)       :      0.70319
Magnitude (Debye)      :      1.78736

Rotational constants in cm-1:     0.021913     0.007520     0.006293
Rotational constants in MHz :   656.934831   225.436991   188.672337

                             ****ORCA TERMINATED NORMALLY****
TOTAL RUN TIME: 0 days 0 hours 0 minutes 21 seconds 475 msec
