                         Program Version 4.2.1 -  RELEASE  -
|  1> ! wB97X-D3 SP def2-SVP
|  2> %pal
|  3> nprocs 24
|  4> end
|  5>
|  6> * xyz 0 1
|  7> S 	 -44.2894 	 -48.2491 	 -69.1871
|  8> C 	 -42.6634 	 -48.0194 	 -68.4666
|  9> C 	 -41.76 	 -49.0589 	 -68.8668
| 10> C 	 -42.4641 	 -50.0477 	 -69.6936
| 11> C 	 -43.7746 	 -49.7529 	 -70.0399
| 12> H 	 -41.9829 	 -50.9426 	 -70.1411
| 13> C 	 -40.2562 	 -49.0809 	 -68.6344
| 14> H 	 -39.8589 	 -50.077 	 -68.2131
| 15> H 	 -40.047 	 -48.3785 	 -67.8487
| 16> C 	 -39.4843 	 -48.6714 	 -69.8919
| 17> H 	 -39.8688 	 -49.3261 	 -70.6777
| 18> H 	 -39.779 	 -47.6543 	 -70.168
| 19> C 	 -38.0051 	 -48.7849 	 -69.7431
| 20> H 	 -37.5086 	 -48.1284 	 -69.0404
| 21> H 	 -37.7148 	 -49.8173 	 -69.3735
| 22> H 	 -37.5558 	 -48.5624 	 -70.6588
| 23> S 	 -45.7014 	 -49.6818 	 -72.0798
| 24> C 	 -46.4689 	 -51.1967 	 -72.5945
| 25> C 	 -45.954 	 -52.2831 	 -71.874
| 26> C 	 -44.9878 	 -51.8838 	 -70.9038
| 27> C 	 -44.6821 	 -50.513 	 -70.8638
| 28> H 	 -46.2198 	 -53.2671 	 -72.1401
| 29> C 	 -44.2337 	 -52.9592 	 -70.1399
| 30> H 	 -44.9588 	 -53.4593 	 -69.4799
| 31> H 	 -43.6615 	 -52.4506 	 -69.422
| 32> C 	 -43.2922 	 -53.9039 	 -70.9671
| 33> H 	 -42.5247 	 -53.3936 	 -71.5593
| 34> H 	 -43.9398 	 -54.3746 	 -71.6519
| 35> C 	 -42.6227 	 -54.9427 	 -70.0237
| 36> H 	 -43.4305 	 -55.4872 	 -69.5279
| 37> H 	 -42.0823 	 -54.4844 	 -69.1764
| 38> H 	 -42.0396 	 -55.6709 	 -70.5988
| 39> H 	 -42.3309 	 -47.1752 	 -67.8429
| 40> H 	 -47.0817 	 -51.4137 	 -73.509
| 41> *
| 42>
| 43>                          ****END OF INPUT****

CARTESIAN COORDINATES (ANGSTROEM)
---------------------------------
  S    -44.289400  -48.249100  -69.187100
  C    -42.663400  -48.019400  -68.466600
  C    -41.760000  -49.058900  -68.866800
  C    -42.464100  -50.047700  -69.693600
  C    -43.774600  -49.752900  -70.039900
  H    -41.982900  -50.942600  -70.141100
  C    -40.256200  -49.080900  -68.634400
  H    -39.858900  -50.077000  -68.213100
  H    -40.047000  -48.378500  -67.848700
  C    -39.484300  -48.671400  -69.891900
  H    -39.868800  -49.326100  -70.677700
  H    -39.779000  -47.654300  -70.168000
  C    -38.005100  -48.784900  -69.743100
  H    -37.508600  -48.128400  -69.040400
  H    -37.714800  -49.817300  -69.373500
  H    -37.555800  -48.562400  -70.658800
  S    -45.701400  -49.681800  -72.079800
  C    -46.468900  -51.196700  -72.594500
  C    -45.954000  -52.283100  -71.874000
  C    -44.987800  -51.883800  -70.903800
  C    -44.682100  -50.513000  -70.863800
  H    -46.219800  -53.267100  -72.140100
  C    -44.233700  -52.959200  -70.139900
  H    -44.958800  -53.459300  -69.479900
  H    -43.661500  -52.450600  -69.422000
  C    -43.292200  -53.903900  -70.967100
  H    -42.524700  -53.393600  -71.559300
  H    -43.939800  -54.374600  -71.651900
  C    -42.622700  -54.942700  -70.023700
  H    -43.430500  -55.487200  -69.527900
  H    -42.082300  -54.484400  -69.176400
  H    -42.039600  -55.670900  -70.598800
  H    -42.330900  -47.175200  -67.842900
  H    -47.081700  -51.413700  -73.509000

 Total Charge           Charge          ....    0
 Multiplicity           Mult            ....    1
 Number of Electrons    NEL             ....  134
 Basis Dimension        Dim             ....  322

ORBITAL ENERGIES
----------------

  NO   OCC          E(Eh)            E(eV)
   0   2.0000     -88.969531     -2420.9840
   1   2.0000     -88.969258     -2420.9766
   2   2.0000     -10.337391      -281.2947
   3   2.0000     -10.333667      -281.1934
   4   2.0000     -10.326776      -281.0059
   5   2.0000     -10.326747      -281.0051
   6   2.0000     -10.313608      -280.6475
   7   2.0000     -10.306388      -280.4511
   8   2.0000     -10.303262      -280.3660
   9   2.0000     -10.298441      -280.2348
  10   2.0000     -10.294110      -280.1170
  11   2.0000     -10.290815      -280.0273
  12   2.0000     -10.287006      -279.9237
  13   2.0000     -10.285398      -279.8799
  14   2.0000     -10.283541      -279.8294
  15   2.0000     -10.276046      -279.6254
  16   2.0000      -8.082873      -219.9462
  17   2.0000      -8.082170      -219.9270
  18   2.0000      -6.041567      -164.3994
  19   2.0000      -6.040947      -164.3825
  20   2.0000      -6.037453      -164.2874
  21   2.0000      -6.036917      -164.2729
  22   2.0000      -6.033627      -164.1833
  23   2.0000      -6.032750      -164.1595
  24   2.0000      -0.996268       -27.1098
  25   2.0000      -0.970942       -26.4207
  26   2.0000      -0.914625       -24.8882
  27   2.0000      -0.904669       -24.6173
  28   2.0000      -0.869071       -23.6486
  29   2.0000      -0.849488       -23.1158
  30   2.0000      -0.842477       -22.9250
  31   2.0000      -0.813575       -22.1385
  32   2.0000      -0.780639       -21.2423
  33   2.0000      -0.766334       -20.8530
  34   2.0000      -0.711051       -19.3487
  35   2.0000      -0.702582       -19.1182
  36   2.0000      -0.695398       -18.9227
  37   2.0000      -0.660357       -17.9692
  38   2.0000      -0.640303       -17.4235
  39   2.0000      -0.616705       -16.7814
  40   2.0000      -0.589477       -16.0405
  41   2.0000      -0.571042       -15.5389
  42   2.0000      -0.564864       -15.3707
  43   2.0000      -0.556135       -15.1332
  44   2.0000      -0.529739       -14.4149
  45   2.0000      -0.528998       -14.3948
  46   2.0000      -0.517849       -14.0914
  47   2.0000      -0.510085       -13.8801
  48   2.0000      -0.506039       -13.7700
  49   2.0000      -0.498976       -13.5778
  50   2.0000      -0.493882       -13.4392
  51   2.0000      -0.473138       -12.8748
  52   2.0000      -0.465952       -12.6792
  53   2.0000      -0.462242       -12.5782
  54   2.0000      -0.453611       -12.3434
  55   2.0000      -0.451783       -12.2936
  56   2.0000      -0.442764       -12.0482
  57   2.0000      -0.440682       -11.9916
  58   2.0000      -0.436610       -11.8808
  59   2.0000      -0.425570       -11.5803
  60   2.0000      -0.424048       -11.5389
  61   2.0000      -0.415165       -11.2972
  62   2.0000      -0.411824       -11.2063
  63   2.0000      -0.349891        -9.5210
  64   2.0000      -0.332157        -9.0384
  65   2.0000      -0.328469        -8.9381
  66   2.0000      -0.288203        -7.8424
  67   0.0000       0.022107         0.6016
  68   0.0000       0.062501         1.7007
  69   0.0000       0.106485         2.8976
  70   0.0000       0.113107         3.0778
  71   0.0000       0.126317         3.4373

MULLIKEN ATOMIC CHARGES
-----------------------
   0 S :    0.103369
   1 C :   -0.123297
   2 C :   -0.096562
   3 C :    0.008823
   4 C :   -0.139925
   5 H :    0.030823
   6 C :    0.035798
   7 H :    0.040094
   8 H :    0.009604
   9 C :   -0.066131
  10 H :    0.028751
  11 H :    0.028074
  12 C :   -0.009080
  13 H :    0.023461
  14 H :    0.026917
  15 H :    0.023685
  16 S :    0.102638
  17 C :   -0.105305
  18 C :   -0.027585
  19 C :   -0.038861
  20 C :   -0.149298
  21 H :    0.008012
  22 C :    0.062607
  23 H :    0.029013
  24 H :   -0.009157
  25 C :   -0.041288
  26 H :    0.036683
  27 H :    0.013774
  28 C :   -0.052573
  29 H :    0.022650
  30 H :    0.038652
  31 H :    0.043540
  32 H :    0.061941
  33 H :    0.080149
Sum of atomic charges:    0.0000000

LOEWDIN ATOMIC CHARGES
----------------------
   0 S :    0.370454
   1 C :   -0.192334
   2 C :   -0.056988
   3 C :   -0.066181
   4 C :   -0.178558
   5 H :    0.036031
   6 C :   -0.037942
   7 H :    0.036917
   8 H :    0.023617
   9 C :   -0.039835
  10 H :    0.026060
  11 H :    0.027650
  12 C :   -0.063599
  13 H :    0.023978
  14 H :    0.030593
  15 H :    0.021008
  16 S :    0.386394
  17 C :   -0.186053
  18 C :   -0.066868
  19 C :   -0.049580
  20 C :   -0.193655
  21 H :    0.024422
  22 C :   -0.034612
  23 H :    0.035817
  24 H :    0.016777
  25 C :   -0.029428
  26 H :    0.025535
  27 H :    0.014969
  28 C :   -0.066762
  29 H :    0.025274
  30 H :    0.028334
  31 H :    0.027867
  32 H :    0.034871
  33 H :    0.045826

  Mayer bond orders larger than 0.100000
B(  0-S ,  1-C ) :   1.1283 B(  0-S ,  4-C ) :   1.1166 B(  1-C ,  2-C ) :   1.6171
B(  1-C , 32-H ) :   0.9620 B(  2-C ,  3-C ) :   1.2180 B(  2-C ,  6-C ) :   1.0406
B(  3-C ,  4-C ) :   1.5962 B(  3-C ,  5-H ) :   0.9810 B(  4-C , 20-C ) :   1.0777
B(  6-C ,  7-H ) :   0.9418 B(  6-C ,  8-H ) :   0.9358 B(  6-C ,  9-C ) :   1.0570
B(  9-C , 10-H ) :   0.9567 B(  9-C , 11-H ) :   0.9482 B(  9-C , 12-C ) :   1.0918
B( 12-C , 13-H ) :   0.9720 B( 12-C , 14-H ) :   0.9699 B( 12-C , 15-H ) :   0.9697
B( 16-S , 17-C ) :   1.1551 B( 16-S , 20-C ) :   1.1177 B( 17-C , 18-C ) :   1.6028
B( 17-C , 20-C ) :   0.1023 B( 17-C , 33-H ) :   0.9566 B( 18-C , 19-C ) :   1.2459
B( 18-C , 21-H ) :   0.9950 B( 19-C , 20-C ) :   1.5749 B( 19-C , 22-C ) :   1.0506
B( 22-C , 23-H ) :   0.9294 B( 22-C , 24-H ) :   0.9284 B( 22-C , 25-C ) :   1.0463
B( 25-C , 26-H ) :   0.9577 B( 25-C , 27-H ) :   0.9556 B( 25-C , 28-C ) :   1.0777
B( 28-C , 29-H ) :   0.9739 B( 28-C , 30-H ) :   0.9770 B( 28-C , 31-H ) :   0.9747

Dispersion correction           -0.013806300
FINAL SINGLE POINT ENERGY     -1339.876164460238

DIPOLE MOMENT
-------------
                                X             Y             Z
Electronic contribution:    -25.67194      15.97581      -4.12388
Nuclear contribution   :     26.26360     -16.50471       4.05214
                        -----------------------------------------
Total Dipole Moment    :      0.59166      -0.52890      -0.07174
                        -----------------------------------------
Magnitude (a.u.)       :      0.79684
Magnitude (Debye)      :      2.02540

Rotational constants in cm-1:     0.016341     0.008668     0.006481
Rotational constants in MHz :   489.881531   259.850626   194.293592

                             ****ORCA TERMINATED NORMALLY****
TOTAL RUN TIME: 0 days 0 hours 0 minutes 19 seconds 885 msec
