                         Program Version 4.2.1 -  RELEASE  -
|  1> ! wB97X-D3 SP def2-SVP
|  2> %pal
|  3> nprocs 24
|  4> end
|  5>
|  6> * xyz 0 1
|  7> S 	 15.1191 	 -16.9137 	 -119.529
|  8> C 	 13.758 	 -16.486 	 -120.546
|  9> C 	 12.5925 	 -16.3724 	 -119.828
| 10> C 	 12.8024 	 -16.4538 	 -118.444
| 11> C 	 14.1341 	 -16.6501 	 -118.111
| 12> H 	 12.006 	 -16.425 	 -117.768
| 13> C 	 11.175 	 -16.1754 	 -120.489
| 14> H 	 10.5037 	 -16.2459 	 -119.644
| 15> H 	 11.0441 	 -16.9871 	 -121.228
| 16> C 	 11.1393 	 -14.8147 	 -121.231
| 17> H 	 11.2194 	 -14.0128 	 -120.522
| 18> H 	 11.9824 	 -14.6662 	 -121.833
| 19> C 	 9.83618 	 -14.7056 	 -122.08
| 20> H 	 9.83232 	 -15.2248 	 -123.011
| 21> H 	 8.9341 	 -14.8785 	 -121.561
| 22> H 	 9.8145 	 -13.6084 	 -122.392
| 23> S 	 15.8782 	 -15.6527 	 -116.319
| 24> C 	 15.935 	 -16.3607 	 -114.696
| 25> C 	 14.9065 	 -17.216 	 -114.439
| 26> C 	 14.1714 	 -17.4548 	 -115.656
| 27> C 	 14.5864 	 -16.7373 	 -116.748
| 28> H 	 14.6764 	 -17.6317 	 -113.484
| 29> C 	 13.088 	 -18.5144 	 -115.654
| 30> H 	 12.2476 	 -17.8565 	 -115.712
| 31> H 	 13.0366 	 -19.0041 	 -114.703
| 32> C 	 12.9713 	 -19.562 	 -116.795
| 33> H 	 12.6668 	 -19.0885 	 -117.724
| 34> H 	 12.134 	 -20.2269 	 -116.653
| 35> C 	 14.2321 	 -20.4181 	 -117.038
| 36> H 	 13.9914 	 -21.1622 	 -117.77
| 37> H 	 14.5211 	 -20.8736 	 -116.113
| 38> H 	 15.1201 	 -19.8281 	 -117.266
| 39> H 	 13.7624 	 -16.357 	 -121.602
| 40> H 	 16.4998 	 -16.0337 	 -113.832
| 41> *
| 42>
| 43>                          ****END OF INPUT****

CARTESIAN COORDINATES (ANGSTROEM)
---------------------------------
  S     15.119100  -16.913700  -119.529000
  C     13.758000  -16.486000  -120.546000
  C     12.592500  -16.372400  -119.828000
  C     12.802400  -16.453800  -118.444000
  C     14.134100  -16.650100  -118.111000
  H     12.006000  -16.425000  -117.768000
  C     11.175000  -16.175400  -120.489000
  H     10.503700  -16.245900  -119.644000
  H     11.044100  -16.987100  -121.228000
  C     11.139300  -14.814700  -121.231000
  H     11.219400  -14.012800  -120.522000
  H     11.982400  -14.666200  -121.833000
  C      9.836180  -14.705600  -122.080000
  H      9.832320  -15.224800  -123.011000
  H      8.934100  -14.878500  -121.561000
  H      9.814500  -13.608400  -122.392000
  S     15.878200  -15.652700  -116.319000
  C     15.935000  -16.360700  -114.696000
  C     14.906500  -17.216000  -114.439000
  C     14.171400  -17.454800  -115.656000
  C     14.586400  -16.737300  -116.748000
  H     14.676400  -17.631700  -113.484000
  C     13.088000  -18.514400  -115.654000
  H     12.247600  -17.856500  -115.712000
  H     13.036600  -19.004100  -114.703000
  C     12.971300  -19.562000  -116.795000
  H     12.666800  -19.088500  -117.724000
  H     12.134000  -20.226900  -116.653000
  C     14.232100  -20.418100  -117.038000
  H     13.991400  -21.162200  -117.770000
  H     14.521100  -20.873600  -116.113000
  H     15.120100  -19.828100  -117.266000
  H     13.762400  -16.357000  -121.602000
  H     16.499800  -16.033700  -113.832000

 Total Charge           Charge          ....    0
 Multiplicity           Mult            ....    1
 Number of Electrons    NEL             ....  134
 Basis Dimension        Dim             ....  322

ORBITAL ENERGIES
----------------

  NO   OCC          E(Eh)            E(eV)
   0   2.0000     -88.971153     -2421.0281
   1   2.0000     -88.962872     -2420.8028
   2   2.0000     -10.326381      -280.9951
   3   2.0000     -10.318419      -280.7784
   4   2.0000     -10.314423      -280.6697
   5   2.0000     -10.308019      -280.4955
   6   2.0000     -10.300245      -280.2839
   7   2.0000     -10.298260      -280.2299
   8   2.0000     -10.295193      -280.1464
   9   2.0000     -10.290707      -280.0244
  10   2.0000     -10.287019      -279.9240
  11   2.0000     -10.285657      -279.8869
  12   2.0000     -10.285243      -279.8757
  13   2.0000     -10.279885      -279.7299
  14   2.0000     -10.278409      -279.6897
  15   2.0000     -10.265932      -279.3502
  16   2.0000      -8.085360      -220.0138
  17   2.0000      -8.077600      -219.8027
  18   2.0000      -6.043866      -164.4619
  19   2.0000      -6.040008      -164.3570
  20   2.0000      -6.036282      -164.2556
  21   2.0000      -6.036094      -164.2505
  22   2.0000      -6.032158      -164.1434
  23   2.0000      -6.028117      -164.0334
  24   2.0000      -1.008895       -27.4534
  25   2.0000      -0.984817       -26.7982
  26   2.0000      -0.907636       -24.6980
  27   2.0000      -0.902072       -24.5466
  28   2.0000      -0.871462       -23.7137
  29   2.0000      -0.851627       -23.1739
  30   2.0000      -0.844716       -22.9859
  31   2.0000      -0.814616       -22.1668
  32   2.0000      -0.781817       -21.2743
  33   2.0000      -0.770510       -20.9666
  34   2.0000      -0.713500       -19.4153
  35   2.0000      -0.708011       -19.2660
  36   2.0000      -0.690640       -18.7933
  37   2.0000      -0.666563       -18.1381
  38   2.0000      -0.641028       -17.4433
  39   2.0000      -0.619646       -16.8614
  40   2.0000      -0.583522       -15.8784
  41   2.0000      -0.572410       -15.5761
  42   2.0000      -0.561297       -15.2737
  43   2.0000      -0.551591       -15.0096
  44   2.0000      -0.543289       -14.7837
  45   2.0000      -0.520790       -14.1714
  46   2.0000      -0.514454       -13.9990
  47   2.0000      -0.512930       -13.9575
  48   2.0000      -0.502044       -13.6613
  49   2.0000      -0.494870       -13.4661
  50   2.0000      -0.490316       -13.3422
  51   2.0000      -0.479917       -13.0592
  52   2.0000      -0.475521       -12.9396
  53   2.0000      -0.468522       -12.7491
  54   2.0000      -0.463946       -12.6246
  55   2.0000      -0.454635       -12.3712
  56   2.0000      -0.441307       -12.0086
  57   2.0000      -0.434678       -11.8282
  58   2.0000      -0.434231       -11.8160
  59   2.0000      -0.433134       -11.7862
  60   2.0000      -0.417644       -11.3647
  61   2.0000      -0.410904       -11.1813
  62   2.0000      -0.408285       -11.1100
  63   2.0000      -0.343850        -9.3566
  64   2.0000      -0.332877        -9.0581
  65   2.0000      -0.325653        -8.8615
  66   2.0000      -0.291350        -7.9280
  67   0.0000       0.030126         0.8198
  68   0.0000       0.070552         1.9198
  69   0.0000       0.109594         2.9822
  70   0.0000       0.113759         3.0955
  71   0.0000       0.141664         3.8549

MULLIKEN ATOMIC CHARGES
-----------------------
   0 S :    0.138664
   1 C :   -0.123675
   2 C :   -0.105525
   3 C :    0.045046
   4 C :   -0.143729
   5 H :   -0.017776
   6 C :    0.094769
   7 H :    0.019280
   8 H :    0.040774
   9 C :   -0.062567
  10 H :    0.024949
  11 H :    0.015994
  12 C :   -0.044228
  13 H :    0.033263
  14 H :    0.028902
  15 H :    0.030439
  16 S :    0.105197
  17 C :   -0.064683
  18 C :   -0.040616
  19 C :   -0.054435
  20 C :   -0.176529
  21 H :    0.012662
  22 C :    0.085738
  23 H :    0.023162
  24 H :    0.008760
  25 C :   -0.049566
  26 H :    0.022762
  27 H :    0.015110
  28 C :   -0.024204
  29 H :    0.035293
  30 H :    0.010923
  31 H :    0.035072
  32 H :    0.030808
  33 H :    0.049966
Sum of atomic charges:   -0.0000000

LOEWDIN ATOMIC CHARGES
----------------------
   0 S :    0.418333
   1 C :   -0.198994
   2 C :   -0.062584
   3 C :   -0.055354
   4 C :   -0.198865
   5 H :    0.020060
   6 C :   -0.019629
   7 H :    0.025612
   8 H :    0.034113
   9 C :   -0.031477
  10 H :    0.024690
  11 H :    0.016782
  12 C :   -0.065464
  13 H :    0.021123
  14 H :    0.018332
  15 H :    0.035063
  16 S :    0.399050
  17 C :   -0.175504
  18 C :   -0.066215
  19 C :   -0.052417
  20 C :   -0.208738
  21 H :    0.029878
  22 C :   -0.030604
  23 H :    0.032781
  24 H :    0.024557
  25 C :   -0.039990
  26 H :    0.022047
  27 H :    0.022938
  28 C :   -0.059994
  29 H :    0.025256
  30 H :    0.018795
  31 H :    0.026396
  32 H :    0.020252
  33 H :    0.029769

  Mayer bond orders larger than 0.100000
B(  0-S ,  1-C ) :   1.1370 B(  0-S ,  4-C ) :   1.1642 B(  1-C ,  2-C ) :   1.5978
B(  1-C ,  4-C ) :   0.1005 B(  1-C , 32-H ) :   0.9688 B(  2-C ,  3-C ) :   1.2902
B(  2-C ,  6-C ) :   0.9977 B(  3-C ,  4-C ) :   1.5265 B(  3-C ,  5-H ) :   1.0058
B(  4-C , 20-C ) :   1.0508 B(  6-C ,  7-H ) :   0.9426 B(  6-C ,  8-H ) :   0.9448
B(  6-C ,  9-C ) :   1.0633 B(  9-C , 10-H ) :   0.9557 B(  9-C , 11-H ) :   0.9600
B(  9-C , 12-C ) :   1.0783 B( 12-C , 13-H ) :   0.9773 B( 12-C , 14-H ) :   0.9769
B( 12-C , 15-H ) :   0.9741 B( 16-S , 17-C ) :   1.1409 B( 16-S , 20-C ) :   1.1213
B( 17-C , 18-C ) :   1.6419 B( 17-C , 33-H ) :   0.9593 B( 18-C , 19-C ) :   1.2228
B( 18-C , 21-H ) :   0.9925 B( 19-C , 20-C ) :   1.6280 B( 19-C , 22-C ) :   1.0187
B( 22-C , 23-H ) :   0.9235 B( 22-C , 24-H ) :   0.9399 B( 22-C , 25-C ) :   1.0821
B( 25-C , 26-H ) :   0.9465 B( 25-C , 27-H ) :   0.9498 B( 25-C , 28-C ) :   1.0815
B( 28-C , 29-H ) :   0.9751 B( 28-C , 30-H ) :   0.9750 B( 28-C , 31-H ) :   0.9733

Dispersion correction           -0.015280630
FINAL SINGLE POINT ENERGY     -1339.871151021050

DIPOLE MOMENT
-------------
                                X             Y             Z
Electronic contribution:     21.60575       6.64357       8.24954
Nuclear contribution   :    -22.30894      -6.77219      -8.20515
                        -----------------------------------------
Total Dipole Moment    :     -0.70319      -0.12863       0.04439
                        -----------------------------------------
Magnitude (a.u.)       :      0.71624
Magnitude (Debye)      :      1.82054

Rotational constants in cm-1:     0.022250     0.007844     0.007098
Rotational constants in MHz :   667.030129   235.166066   212.796891

                             ****ORCA TERMINATED NORMALLY****
TOTAL RUN TIME: 0 days 0 hours 0 minutes 22 seconds 280 msec
