                         Program Version 4.2.1 -  RELEASE  -
|  1> ! wB97X-D3 SP def2-SVP
|  2> %pal
|  3> nprocs 24
|  4> end
|  5>
|  6> * xyz 0 1
|  7> S 	 -56.4498 	 -3.64295 	 -26.9712
|  8> C 	 -55.6049 	 -2.77816 	 -25.7568
|  9> C 	 -54.5439 	 -2.07674 	 -26.3333
| 10> C 	 -54.6068 	 -2.05315 	 -27.7205
| 11> C 	 -55.6386 	 -2.72547 	 -28.2321
| 12> H 	 -53.8855 	 -1.47702 	 -28.3448
| 13> C 	 -53.4644 	 -1.28662 	 -25.6271
| 14> H 	 -52.4729 	 -1.49632 	 -26.0037
| 15> H 	 -53.5541 	 -1.76581 	 -24.6254
| 16> C 	 -53.7711 	 0.240643 	 -25.6015
| 17> H 	 -53.8584 	 0.768226 	 -26.5481
| 18> H 	 -54.6645 	 0.546097 	 -25.1625
| 19> C 	 -52.5335 	 0.935317 	 -24.9722
| 20> H 	 -52.6033 	 2.01829 	 -24.9498
| 21> H 	 -52.5128 	 0.479945 	 -23.9772
| 22> H 	 -51.6327 	 0.634638 	 -25.591
| 23> S 	 -55.4029 	 -4.35419 	 -30.5235
| 24> C 	 -55.9648 	 -3.78327 	 -32.1181
| 25> C 	 -56.5771 	 -2.54218 	 -31.9053
| 26> C 	 -56.5701 	 -2.00883 	 -30.5633
| 27> C 	 -55.9972 	 -2.90826 	 -29.6377
| 28> H 	 -57.3176 	 -2.21268 	 -32.6172
| 29> C 	 -57.2543 	 -0.629091 	 -30.3053
| 30> H 	 -57.4791 	 -0.264637 	 -31.3274
| 31> H 	 -56.5435 	 0.130652 	 -29.957
| 32> C 	 -58.444 	 -0.597602 	 -29.3619
| 33> H 	 -58.544 	 0.404959 	 -29.0426
| 34> H 	 -58.2315 	 -1.21794 	 -28.4535
| 35> C 	 -59.7205 	 -1.15869 	 -29.9226
| 36> H 	 -60.1465 	 -0.762082 	 -30.8923
| 37> H 	 -60.5229 	 -1.09994 	 -29.1516
| 38> H 	 -59.5048 	 -2.23785 	 -30.22
| 39> H 	 -55.756 	 -2.85406 	 -24.7006
| 40> H 	 -56.0535 	 -4.29711 	 -33.0495
| 41> *
| 42>
| 43>                          ****END OF INPUT****

CARTESIAN COORDINATES (ANGSTROEM)
---------------------------------
  S    -56.449800   -3.642950  -26.971200
  C    -55.604900   -2.778160  -25.756800
  C    -54.543900   -2.076740  -26.333300
  C    -54.606800   -2.053150  -27.720500
  C    -55.638600   -2.725470  -28.232100
  H    -53.885500   -1.477020  -28.344800
  C    -53.464400   -1.286620  -25.627100
  H    -52.472900   -1.496320  -26.003700
  H    -53.554100   -1.765810  -24.625400
  C    -53.771100    0.240643  -25.601500
  H    -53.858400    0.768226  -26.548100
  H    -54.664500    0.546097  -25.162500
  C    -52.533500    0.935317  -24.972200
  H    -52.603300    2.018290  -24.949800
  H    -52.512800    0.479945  -23.977200
  H    -51.632700    0.634638  -25.591000
  S    -55.402900   -4.354190  -30.523500
  C    -55.964800   -3.783270  -32.118100
  C    -56.577100   -2.542180  -31.905300
  C    -56.570100   -2.008830  -30.563300
  C    -55.997200   -2.908260  -29.637700
  H    -57.317600   -2.212680  -32.617200
  C    -57.254300   -0.629091  -30.305300
  H    -57.479100   -0.264637  -31.327400
  H    -56.543500    0.130652  -29.957000
  C    -58.444000   -0.597602  -29.361900
  H    -58.544000    0.404959  -29.042600
  H    -58.231500   -1.217940  -28.453500
  C    -59.720500   -1.158690  -29.922600
  H    -60.146500   -0.762082  -30.892300
  H    -60.522900   -1.099940  -29.151600
  H    -59.504800   -2.237850  -30.220000
  H    -55.756000   -2.854060  -24.700600
  H    -56.053500   -4.297110  -33.049500

 Total Charge           Charge          ....    0
 Multiplicity           Mult            ....    1
 Number of Electrons    NEL             ....  134
 Basis Dimension        Dim             ....  322

ORBITAL ENERGIES
----------------

  NO   OCC          E(Eh)            E(eV)
   0   2.0000     -88.967194     -2420.9204
   1   2.0000     -88.966086     -2420.8903
   2   2.0000     -10.333301      -281.1834
   3   2.0000     -10.325124      -280.9609
   4   2.0000     -10.322480      -280.8890
   5   2.0000     -10.314037      -280.6592
   6   2.0000     -10.309947      -280.5479
   7   2.0000     -10.298408      -280.2339
   8   2.0000     -10.295923      -280.1663
   9   2.0000     -10.294684      -280.1326
  10   2.0000     -10.293431      -280.0985
  11   2.0000     -10.288870      -279.9744
  12   2.0000     -10.284222      -279.8479
  13   2.0000     -10.282326      -279.7963
  14   2.0000     -10.281398      -279.7711
  15   2.0000     -10.280624      -279.7500
  16   2.0000      -8.082395      -219.9331
  17   2.0000      -8.079233      -219.8471
  18   2.0000      -6.040882      -164.3808
  19   2.0000      -6.038047      -164.3036
  20   2.0000      -6.036863      -164.2714
  21   2.0000      -6.033721      -164.1859
  22   2.0000      -6.033126      -164.1697
  23   2.0000      -6.029983      -164.0842
  24   2.0000      -1.011441       -27.5227
  25   2.0000      -0.977632       -26.6027
  26   2.0000      -0.912384       -24.8272
  27   2.0000      -0.905306       -24.6346
  28   2.0000      -0.869488       -23.6600
  29   2.0000      -0.854879       -23.2624
  30   2.0000      -0.840605       -22.8740
  31   2.0000      -0.814856       -22.1734
  32   2.0000      -0.778065       -21.1722
  33   2.0000      -0.766428       -20.8556
  34   2.0000      -0.710377       -19.3303
  35   2.0000      -0.704657       -19.1747
  36   2.0000      -0.685498       -18.6533
  37   2.0000      -0.657097       -17.8805
  38   2.0000      -0.646081       -17.5808
  39   2.0000      -0.623074       -16.9547
  40   2.0000      -0.589697       -16.0465
  41   2.0000      -0.574113       -15.6224
  42   2.0000      -0.557954       -15.1827
  43   2.0000      -0.548747       -14.9322
  44   2.0000      -0.538476       -14.6527
  45   2.0000      -0.535355       -14.5678
  46   2.0000      -0.519355       -14.1324
  47   2.0000      -0.512503       -13.9459
  48   2.0000      -0.505925       -13.7669
  49   2.0000      -0.501044       -13.6341
  50   2.0000      -0.485888       -13.2217
  51   2.0000      -0.475783       -12.9467
  52   2.0000      -0.465363       -12.6632
  53   2.0000      -0.462790       -12.5931
  54   2.0000      -0.454619       -12.3708
  55   2.0000      -0.449253       -12.2248
  56   2.0000      -0.445333       -12.1181
  57   2.0000      -0.431841       -11.7510
  58   2.0000      -0.430267       -11.7082
  59   2.0000      -0.426928       -11.6173
  60   2.0000      -0.418761       -11.3951
  61   2.0000      -0.408563       -11.1176
  62   2.0000      -0.405342       -11.0299
  63   2.0000      -0.342426        -9.3179
  64   2.0000      -0.326845        -8.8939
  65   2.0000      -0.323460        -8.8018
  66   2.0000      -0.305615        -8.3162
  67   0.0000       0.036628         0.9967
  68   0.0000       0.049393         1.3441
  69   0.0000       0.113246         3.0816
  70   0.0000       0.118468         3.2237
  71   0.0000       0.124593         3.3904

MULLIKEN ATOMIC CHARGES
-----------------------
   0 S :    0.118493
   1 C :   -0.106122
   2 C :   -0.110345
   3 C :    0.051766
   4 C :   -0.178462
   5 H :    0.027593
   6 C :    0.062167
   7 H :    0.031917
   8 H :    0.025998
   9 C :   -0.049934
  10 H :    0.021024
  11 H :    0.013408
  12 C :   -0.065276
  13 H :    0.038904
  14 H :    0.032388
  15 H :    0.039197
  16 S :    0.098034
  17 C :   -0.089553
  18 C :   -0.048522
  19 C :   -0.043267
  20 C :   -0.159841
  21 H :    0.031676
  22 C :    0.066362
  23 H :    0.013249
  24 H :    0.032777
  25 C :   -0.030094
  26 H :    0.016324
  27 H :    0.042941
  28 C :   -0.096736
  29 H :    0.030526
  30 H :    0.044368
  31 H :    0.040885
  32 H :    0.039229
  33 H :    0.058925
Sum of atomic charges:    0.0000000

LOEWDIN ATOMIC CHARGES
----------------------
   0 S :    0.420634
   1 C :   -0.203527
   2 C :   -0.069617
   3 C :   -0.055876
   4 C :   -0.198804
   5 H :    0.042902
   6 C :   -0.026765
   7 H :    0.031599
   8 H :    0.036218
   9 C :   -0.037671
  10 H :    0.023265
  11 H :    0.015621
  12 C :   -0.065644
  13 H :    0.021870
  14 H :    0.023958
  15 H :    0.029966
  16 S :    0.380464
  17 C :   -0.176738
  18 C :   -0.081740
  19 C :   -0.053108
  20 C :   -0.192010
  21 H :    0.029283
  22 C :   -0.031784
  23 H :    0.030070
  24 H :    0.035146
  25 C :   -0.044654
  26 H :    0.018089
  27 H :    0.035246
  28 C :   -0.079323
  29 H :    0.023866
  30 H :    0.029496
  31 H :    0.033081
  32 H :    0.024841
  33 H :    0.031644

  Mayer bond orders larger than 0.100000
B(  0-S ,  1-C ) :   1.1542 B(  0-S ,  4-C ) :   1.1435 B(  1-C ,  2-C ) :   1.5910
B(  1-C ,  4-C ) :   0.1019 B(  1-C , 32-H ) :   0.9717 B(  2-C ,  3-C ) :   1.2539
B(  2-C ,  6-C ) :   1.0208 B(  3-C ,  4-C ) :   1.5969 B(  3-C ,  5-H ) :   0.9954
B(  4-C , 20-C ) :   1.0030 B(  6-C ,  7-H ) :   0.9458 B(  6-C ,  8-H ) :   0.9374
B(  6-C ,  9-C ) :   1.0514 B(  9-C , 10-H ) :   0.9598 B(  9-C , 11-H ) :   0.9563
B(  9-C , 12-C ) :   1.0713 B( 12-C , 13-H ) :   0.9754 B( 12-C , 14-H ) :   0.9777
B( 12-C , 15-H ) :   0.9770 B( 16-S , 17-C ) :   1.1488 B( 16-S , 20-C ) :   1.1369
B( 17-C , 18-C ) :   1.6185 B( 17-C , 20-C ) :   0.1083 B( 17-C , 33-H ) :   0.9669
B( 18-C , 19-C ) :   1.2604 B( 18-C , 21-H ) :   0.9688 B( 19-C , 20-C ) :   1.5988
B( 19-C , 22-C ) :   1.0277 B( 22-C , 23-H ) :   0.9377 B( 22-C , 24-H ) :   0.9332
B( 22-C , 25-C ) :   1.0721 B( 25-C , 26-H ) :   0.9513 B( 25-C , 27-H ) :   0.9514
B( 25-C , 28-C ) :   1.0742 B( 28-C , 29-H ) :   0.9747 B( 28-C , 30-H ) :   0.9733
B( 28-C , 31-H ) :   0.9740

Dispersion correction           -0.014509759
FINAL SINGLE POINT ENERGY     -1339.859340767840

DIPOLE MOMENT
-------------
                                X             Y             Z
Electronic contribution:      0.66666     -22.94471      -7.48789
Nuclear contribution   :     -0.62804      23.53021       7.61886
                        -----------------------------------------
Total Dipole Moment    :      0.03862       0.58551       0.13096
                        -----------------------------------------
Magnitude (a.u.)       :      0.60122
Magnitude (Debye)      :      1.52817

Rotational constants in cm-1:     0.019146     0.008005     0.007265
Rotational constants in MHz :   573.992272   239.986176   217.789765

                             ****ORCA TERMINATED NORMALLY****
TOTAL RUN TIME: 0 days 0 hours 0 minutes 20 seconds 527 msec
