                         Program Version 4.2.1 -  RELEASE  -
|  1> ! wB97X-D3 SP def2-SVP
|  2> %pal
|  3> nprocs 24
|  4> end
|  5>
|  6> * xyz 0 1
|  7> S 	 -110.616 	 60.284 	 -75.1842
|  8> C 	 -111.016 	 61.2276 	 -76.6151
|  9> C 	 -112.292 	 61.6936 	 -76.5823
| 10> C 	 -113.004 	 61.3218 	 -75.4565
| 11> C 	 -112.267 	 60.5739 	 -74.5005
| 12> H 	 -113.967 	 61.6406 	 -75.2584
| 13> C 	 -112.96 	 62.6118 	 -77.5952
| 14> H 	 -112.296 	 63.257 	 -78.0703
| 15> H 	 -113.555 	 63.2875 	 -76.9513
| 16> C 	 -113.836 	 61.9093 	 -78.6603
| 17> H 	 -114.08 	 62.6568 	 -79.4011
| 18> H 	 -113.293 	 61.1962 	 -79.2972
| 19> C 	 -115.111 	 61.2758 	 -78.133
| 20> H 	 -115.016 	 60.4704 	 -77.4681
| 21> H 	 -115.726 	 62.0242 	 -77.6285
| 22> H 	 -115.722 	 60.8073 	 -78.9789
| 23> S 	 -111.606 	 60.2516 	 -71.8837
| 24> C 	 -112.692 	 59.4635 	 -70.7897
| 25> C 	 -113.939 	 59.2409 	 -71.4043
| 26> C 	 -113.927 	 59.5398 	 -72.7856
| 27> C 	 -112.726 	 60.0917 	 -73.2222
| 28> H 	 -114.736 	 58.8443 	 -70.7696
| 29> C 	 -115.094 	 59.1912 	 -73.6619
| 30> H 	 -115.035 	 59.8005 	 -74.5872
| 31> H 	 -115.951 	 59.6825 	 -73.2054
| 32> C 	 -115.264 	 57.7026 	 -73.9607
| 33> H 	 -115.351 	 57.1413 	 -73.04
| 34> H 	 -114.265 	 57.4067 	 -74.3623
| 35> C 	 -116.241 	 57.3542 	 -75.0489
| 36> H 	 -116.284 	 56.307 	 -75.3215
| 37> H 	 -115.79 	 57.8021 	 -75.9522
| 38> H 	 -117.24 	 57.6492 	 -74.7667
| 39> H 	 -110.391 	 61.3822 	 -77.5142
| 40> H 	 -112.437 	 59.3145 	 -69.7183
| 41> *
| 42>
| 43>                          ****END OF INPUT****

CARTESIAN COORDINATES (ANGSTROEM)
---------------------------------
  S    -110.616000   60.284000  -75.184200
  C    -111.016000   61.227600  -76.615100
  C    -112.292000   61.693600  -76.582300
  C    -113.004000   61.321800  -75.456500
  C    -112.267000   60.573900  -74.500500
  H    -113.967000   61.640600  -75.258400
  C    -112.960000   62.611800  -77.595200
  H    -112.296000   63.257000  -78.070300
  H    -113.555000   63.287500  -76.951300
  C    -113.836000   61.909300  -78.660300
  H    -114.080000   62.656800  -79.401100
  H    -113.293000   61.196200  -79.297200
  C    -115.111000   61.275800  -78.133000
  H    -115.016000   60.470400  -77.468100
  H    -115.726000   62.024200  -77.628500
  H    -115.722000   60.807300  -78.978900
  S    -111.606000   60.251600  -71.883700
  C    -112.692000   59.463500  -70.789700
  C    -113.939000   59.240900  -71.404300
  C    -113.927000   59.539800  -72.785600
  C    -112.726000   60.091700  -73.222200
  H    -114.736000   58.844300  -70.769600
  C    -115.094000   59.191200  -73.661900
  H    -115.035000   59.800500  -74.587200
  H    -115.951000   59.682500  -73.205400
  C    -115.264000   57.702600  -73.960700
  H    -115.351000   57.141300  -73.040000
  H    -114.265000   57.406700  -74.362300
  C    -116.241000   57.354200  -75.048900
  H    -116.284000   56.307000  -75.321500
  H    -115.790000   57.802100  -75.952200
  H    -117.240000   57.649200  -74.766700
  H    -110.391000   61.382200  -77.514200
  H    -112.437000   59.314500  -69.718300

 Total Charge           Charge          ....    0
 Multiplicity           Mult            ....    1
 Number of Electrons    NEL             ....  134
 Basis Dimension        Dim             ....  322

ORBITAL ENERGIES
----------------

  NO   OCC          E(Eh)            E(eV)
   0   2.0000     -88.969796     -2420.9912
   1   2.0000     -88.964633     -2420.8507
   2   2.0000     -10.336550      -281.2718
   3   2.0000     -10.326848      -281.0078
   4   2.0000     -10.321418      -280.8601
   5   2.0000     -10.313656      -280.6489
   6   2.0000     -10.303310      -280.3673
   7   2.0000     -10.297119      -280.1989
   8   2.0000     -10.291929      -280.0576
   9   2.0000     -10.290943      -280.0308
  10   2.0000     -10.289007      -279.9781
  11   2.0000     -10.288709      -279.9700
  12   2.0000     -10.287879      -279.9474
  13   2.0000     -10.283677      -279.8331
  14   2.0000     -10.279063      -279.7075
  15   2.0000     -10.276495      -279.6376
  16   2.0000      -8.083021      -219.9502
  17   2.0000      -8.079822      -219.8631
  18   2.0000      -6.041653      -164.4017
  19   2.0000      -6.038221      -164.3083
  20   2.0000      -6.037712      -164.2945
  21   2.0000      -6.034117      -164.1967
  22   2.0000      -6.033769      -164.1872
  23   2.0000      -6.030824      -164.1071
  24   2.0000      -1.005362       -27.3573
  25   2.0000      -0.983802       -26.7706
  26   2.0000      -0.912533       -24.8313
  27   2.0000      -0.909961       -24.7613
  28   2.0000      -0.869360       -23.6565
  29   2.0000      -0.856647       -23.3106
  30   2.0000      -0.847471       -23.0609
  31   2.0000      -0.812061       -22.0973
  32   2.0000      -0.785755       -21.3815
  33   2.0000      -0.773061       -21.0360
  34   2.0000      -0.708282       -19.2733
  35   2.0000      -0.705948       -19.2098
  36   2.0000      -0.695840       -18.9348
  37   2.0000      -0.662728       -18.0337
  38   2.0000      -0.636843       -17.3294
  39   2.0000      -0.622649       -16.9431
  40   2.0000      -0.595504       -16.2045
  41   2.0000      -0.569327       -15.4922
  42   2.0000      -0.567269       -15.4362
  43   2.0000      -0.548904       -14.9364
  44   2.0000      -0.540491       -14.7075
  45   2.0000      -0.523280       -14.2392
  46   2.0000      -0.518768       -14.1164
  47   2.0000      -0.513156       -13.9637
  48   2.0000      -0.511659       -13.9229
  49   2.0000      -0.498672       -13.5696
  50   2.0000      -0.491945       -13.3865
  51   2.0000      -0.480641       -13.0789
  52   2.0000      -0.474902       -12.9227
  53   2.0000      -0.461475       -12.5574
  54   2.0000      -0.458508       -12.4766
  55   2.0000      -0.447918       -12.1885
  56   2.0000      -0.440488       -11.9863
  57   2.0000      -0.438805       -11.9405
  58   2.0000      -0.435683       -11.8555
  59   2.0000      -0.425667       -11.5830
  60   2.0000      -0.424639       -11.5550
  61   2.0000      -0.410960       -11.1828
  62   2.0000      -0.407978       -11.1016
  63   2.0000      -0.350696        -9.5429
  64   2.0000      -0.335398        -9.1266
  65   2.0000      -0.332506        -9.0479
  66   2.0000      -0.283039        -7.7019
  67   0.0000       0.020781         0.5655
  68   0.0000       0.071873         1.9558
  69   0.0000       0.108013         2.9392
  70   0.0000       0.123525         3.3613
  71   0.0000       0.130418         3.5489

MULLIKEN ATOMIC CHARGES
-----------------------
   0 S :    0.112713
   1 C :   -0.135581
   2 C :   -0.067141
   3 C :    0.039632
   4 C :   -0.137610
   5 H :   -0.014055
   6 C :    0.082147
   7 H :    0.002942
   8 H :    0.024966
   9 C :   -0.042269
  10 H :    0.022867
  11 H :    0.024537
  12 C :   -0.063117
  13 H :    0.029740
  14 H :    0.026652
  15 H :    0.038757
  16 S :    0.107012
  17 C :   -0.119344
  18 C :   -0.050307
  19 C :   -0.046231
  20 C :   -0.154350
  21 H :    0.028965
  22 C :    0.091689
  23 H :   -0.008467
  24 H :    0.017563
  25 C :   -0.068084
  26 H :    0.023437
  27 H :    0.028566
  28 C :   -0.021594
  29 H :    0.030500
  30 H :    0.035154
  31 H :    0.031834
  32 H :    0.052919
  33 H :    0.075561
Sum of atomic charges:    0.0000000

LOEWDIN ATOMIC CHARGES
----------------------
   0 S :    0.383958
   1 C :   -0.198493
   2 C :   -0.071746
   3 C :   -0.052962
   4 C :   -0.174605
   5 H :    0.015839
   6 C :   -0.021386
   7 H :    0.020237
   8 H :    0.035097
   9 C :   -0.039592
  10 H :    0.024470
  11 H :    0.026191
  12 C :   -0.069544
  13 H :    0.014526
  14 H :    0.023745
  15 H :    0.037105
  16 S :    0.416371
  17 C :   -0.195942
  18 C :   -0.073739
  19 C :   -0.056840
  20 C :   -0.200749
  21 H :    0.036165
  22 C :   -0.036937
  23 H :    0.028325
  24 H :    0.028872
  25 C :   -0.042595
  26 H :    0.018919
  27 H :    0.032307
  28 C :   -0.063931
  29 H :    0.027572
  30 H :    0.033376
  31 H :    0.022018
  32 H :    0.037415
  33 H :    0.036553

  Mayer bond orders larger than 0.100000
B(  0-S ,  1-C ) :   1.1313 B(  0-S ,  4-C ) :   1.1395 B(  1-C ,  2-C ) :   1.6173
B(  1-C ,  4-C ) :   0.1081 B(  1-C , 32-H ) :   0.9580 B(  2-C ,  3-C ) :   1.2835
B(  2-C ,  6-C ) :   1.0028 B(  3-C ,  4-C ) :   1.5282 B(  3-C ,  5-H ) :   0.9944
B(  4-C , 20-C ) :   1.0854 B(  6-C ,  7-H ) :   0.9392 B(  6-C ,  8-H ) :   0.9462
B(  6-C ,  9-C ) :   1.0732 B(  9-C , 10-H ) :   0.9529 B(  9-C , 11-H ) :   0.9532
B(  9-C , 12-C ) :   1.0842 B( 12-C , 13-H ) :   0.9749 B( 12-C , 14-H ) :   0.9731
B( 12-C , 15-H ) :   0.9688 B( 16-S , 17-C ) :   1.1766 B( 16-S , 20-C ) :   1.1454
B( 17-C , 18-C ) :   1.5698 B( 17-C , 20-C ) :   0.1056 B( 17-C , 33-H ) :   0.9646
B( 18-C , 19-C ) :   1.2552 B( 18-C , 21-H ) :   0.9934 B( 19-C , 20-C ) :   1.5617
B( 19-C , 22-C ) :   1.0528 B( 22-C , 23-H ) :   0.9241 B( 22-C , 24-H ) :   0.9177
B( 22-C , 25-C ) :   1.0544 B( 25-C , 26-H ) :   0.9555 B( 25-C , 27-H ) :   0.9530
B( 25-C , 28-C ) :   1.0867 B( 28-C , 29-H ) :   0.9713 B( 28-C , 30-H ) :   0.9726
B( 28-C , 31-H ) :   0.9750

Dispersion correction           -0.014781124
FINAL SINGLE POINT ENERGY     -1339.882494804780

DIPOLE MOMENT
-------------
                                X             Y             Z
Electronic contribution:     24.52172       3.20833      18.09544
Nuclear contribution   :    -25.11319      -3.16722     -18.37945
                        -----------------------------------------
Total Dipole Moment    :     -0.59147       0.04111      -0.28401
                        -----------------------------------------
Magnitude (a.u.)       :      0.65741
Magnitude (Debye)      :      1.67102

Rotational constants in cm-1:     0.016906     0.010110     0.007080
Rotational constants in MHz :   506.823192   303.093847   212.255327

                             ****ORCA TERMINATED NORMALLY****
TOTAL RUN TIME: 0 days 0 hours 0 minutes 22 seconds 301 msec
