                         Program Version 4.2.1 -  RELEASE  -
|  1> ! wB97X-D3 SP def2-SVP
|  2> %pal
|  3> nprocs 24
|  4> end
|  5>
|  6> * xyz 0 1
|  7> S 	 -53.9921 	 9.62088 	 -101.688
|  8> C 	 -54.6562 	 9.92705 	 -103.267
|  9> C 	 -55.0895 	 11.2379 	 -103.306
| 10> C 	 -54.6863 	 12.0139 	 -102.174
| 11> C 	 -54.0074 	 11.3187 	 -101.243
| 12> H 	 -54.9024 	 13.0528 	 -102.032
| 13> C 	 -56.0463 	 11.7935 	 -104.298
| 14> H 	 -55.5409 	 12.2958 	 -105.121
| 15> H 	 -56.6317 	 12.5198 	 -103.79
| 16> C 	 -57.1689 	 10.8603 	 -104.875
| 17> H 	 -56.7302 	 10.0117 	 -105.337
| 18> H 	 -57.6788 	 10.5551 	 -103.936
| 19> C 	 -58.0703 	 11.5568 	 -105.877
| 20> H 	 -57.7579 	 11.3953 	 -106.923
| 21> H 	 -59.0677 	 11.051 	 -105.824
| 22> H 	 -58.2235 	 12.5991 	 -105.731
| 23> S 	 -53.4271 	 10.682 	 -98.5797
| 24> C 	 -52.3895 	 11.7734 	 -97.621
| 25> C 	 -52.0767 	 12.8901 	 -98.3668
| 26> C 	 -52.6399 	 12.8921 	 -99.7146
| 27> C 	 -53.3787 	 11.7891 	 -100.014
| 28> H 	 -51.428 	 13.56 	 -97.9117
| 29> C 	 -52.2224 	 14.0414 	 -100.672
| 30> H 	 -52.17 	 13.743 	 -101.723
| 31> H 	 -51.1966 	 14.2911 	 -100.431
| 32> C 	 -53.0318 	 15.3625 	 -100.529
| 33> H 	 -52.8071 	 15.8064 	 -99.5143
| 34> H 	 -54.1422 	 15.1613 	 -100.349
| 35> C 	 -52.7964 	 16.5219 	 -101.514
| 36> H 	 -51.7723 	 16.582 	 -101.955
| 37> H 	 -53.0482 	 17.4641 	 -101.182
| 38> H 	 -53.5336 	 16.2996 	 -102.324
| 39> H 	 -54.8718 	 9.23541 	 -104.057
| 40> H 	 -52.0902 	 11.586 	 -96.5907
| 41> *
| 42>
| 43>                          ****END OF INPUT****

CARTESIAN COORDINATES (ANGSTROEM)
---------------------------------
  S    -53.992100    9.620880  -101.688000
  C    -54.656200    9.927050  -103.267000
  C    -55.089500   11.237900  -103.306000
  C    -54.686300   12.013900  -102.174000
  C    -54.007400   11.318700  -101.243000
  H    -54.902400   13.052800  -102.032000
  C    -56.046300   11.793500  -104.298000
  H    -55.540900   12.295800  -105.121000
  H    -56.631700   12.519800  -103.790000
  C    -57.168900   10.860300  -104.875000
  H    -56.730200   10.011700  -105.337000
  H    -57.678800   10.555100  -103.936000
  C    -58.070300   11.556800  -105.877000
  H    -57.757900   11.395300  -106.923000
  H    -59.067700   11.051000  -105.824000
  H    -58.223500   12.599100  -105.731000
  S    -53.427100   10.682000  -98.579700
  C    -52.389500   11.773400  -97.621000
  C    -52.076700   12.890100  -98.366800
  C    -52.639900   12.892100  -99.714600
  C    -53.378700   11.789100  -100.014000
  H    -51.428000   13.560000  -97.911700
  C    -52.222400   14.041400  -100.672000
  H    -52.170000   13.743000  -101.723000
  H    -51.196600   14.291100  -100.431000
  C    -53.031800   15.362500  -100.529000
  H    -52.807100   15.806400  -99.514300
  H    -54.142200   15.161300  -100.349000
  C    -52.796400   16.521900  -101.514000
  H    -51.772300   16.582000  -101.955000
  H    -53.048200   17.464100  -101.182000
  H    -53.533600   16.299600  -102.324000
  H    -54.871800    9.235410  -104.057000
  H    -52.090200   11.586000  -96.590700

 Total Charge           Charge          ....    0
 Multiplicity           Mult            ....    1
 Number of Electrons    NEL             ....  134
 Basis Dimension        Dim             ....  322

ORBITAL ENERGIES
----------------

  NO   OCC          E(Eh)            E(eV)
   0   2.0000     -88.964301     -2420.8417
   1   2.0000     -88.962437     -2420.7910
   2   2.0000     -10.334332      -281.2115
   3   2.0000     -10.329015      -281.0668
   4   2.0000     -10.323570      -280.9186
   5   2.0000     -10.312410      -280.6149
   6   2.0000     -10.311513      -280.5905
   7   2.0000     -10.298061      -280.2245
   8   2.0000     -10.297693      -280.2145
   9   2.0000     -10.296893      -280.1927
  10   2.0000     -10.294983      -280.1407
  11   2.0000     -10.289308      -279.9863
  12   2.0000     -10.287266      -279.9307
  13   2.0000     -10.285077      -279.8712
  14   2.0000     -10.280892      -279.7573
  15   2.0000     -10.280730      -279.7529
  16   2.0000      -8.079107      -219.8437
  17   2.0000      -8.076093      -219.7617
  18   2.0000      -6.037823      -164.2975
  19   2.0000      -6.034871      -164.2172
  20   2.0000      -6.033636      -164.1836
  21   2.0000      -6.030796      -164.1063
  22   2.0000      -6.029596      -164.0737
  23   2.0000      -6.026582      -163.9916
  24   2.0000      -1.007815       -27.4240
  25   2.0000      -0.980789       -26.6886
  26   2.0000      -0.912556       -24.8319
  27   2.0000      -0.899774       -24.4841
  28   2.0000      -0.872319       -23.7370
  29   2.0000      -0.853319       -23.2200
  30   2.0000      -0.843925       -22.9644
  31   2.0000      -0.820741       -22.3335
  32   2.0000      -0.783351       -21.3161
  33   2.0000      -0.773925       -21.0596
  34   2.0000      -0.712021       -19.3751
  35   2.0000      -0.700936       -19.0734
  36   2.0000      -0.690974       -18.8024
  37   2.0000      -0.666540       -18.1375
  38   2.0000      -0.642120       -17.4730
  39   2.0000      -0.617598       -16.8057
  40   2.0000      -0.594874       -16.1873
  41   2.0000      -0.578637       -15.7455
  42   2.0000      -0.568507       -15.4699
  43   2.0000      -0.552626       -15.0377
  44   2.0000      -0.527543       -14.3552
  45   2.0000      -0.521562       -14.1924
  46   2.0000      -0.520344       -14.1593
  47   2.0000      -0.514571       -14.0022
  48   2.0000      -0.513209       -13.9651
  49   2.0000      -0.504920       -13.7396
  50   2.0000      -0.498679       -13.5698
  51   2.0000      -0.481072       -13.0906
  52   2.0000      -0.473488       -12.8843
  53   2.0000      -0.464812       -12.6482
  54   2.0000      -0.463334       -12.6080
  55   2.0000      -0.450742       -12.2653
  56   2.0000      -0.448844       -12.2137
  57   2.0000      -0.436709       -11.8835
  58   2.0000      -0.427720       -11.6388
  59   2.0000      -0.423217       -11.5163
  60   2.0000      -0.415660       -11.3107
  61   2.0000      -0.411737       -11.2039
  62   2.0000      -0.397488       -10.8162
  63   2.0000      -0.359287        -9.7767
  64   2.0000      -0.330645        -8.9973
  65   2.0000      -0.326978        -8.8975
  66   2.0000      -0.292581        -7.9615
  67   0.0000       0.026374         0.7177
  68   0.0000       0.072066         1.9610
  69   0.0000       0.104951         2.8559
  70   0.0000       0.123791         3.3685
  71   0.0000       0.132234         3.5983

MULLIKEN ATOMIC CHARGES
-----------------------
   0 S :    0.104821
   1 C :   -0.101760
   2 C :   -0.087085
   3 C :    0.012395
   4 C :   -0.107218
   5 H :    0.001138
   6 C :    0.051790
   7 H :    0.036467
   8 H :    0.015064
   9 C :   -0.092097
  10 H :    0.022289
  11 H :    0.041758
  12 C :   -0.048298
  13 H :    0.037040
  14 H :    0.038233
  15 H :    0.028403
  16 S :    0.070146
  17 C :   -0.096916
  18 C :   -0.005909
  19 C :   -0.032770
  20 C :   -0.127644
  21 H :   -0.000435
  22 C :    0.080916
  23 H :    0.033497
  24 H :    0.019766
  25 C :   -0.137919
  26 H :    0.021108
  27 H :    0.039132
  28 C :   -0.018058
  29 H :    0.040588
  30 H :    0.020481
  31 H :    0.031351
  32 H :    0.042182
  33 H :    0.067544
Sum of atomic charges:    0.0000000

LOEWDIN ATOMIC CHARGES
----------------------
   0 S :    0.404546
   1 C :   -0.195386
   2 C :   -0.064996
   3 C :   -0.061586
   4 C :   -0.183752
   5 H :    0.030464
   6 C :   -0.035797
   7 H :    0.029326
   8 H :    0.026000
   9 C :   -0.038053
  10 H :    0.014386
  11 H :    0.029956
  12 C :   -0.068392
  13 H :    0.030323
  14 H :    0.036241
  15 H :    0.019471
  16 S :    0.351290
  17 C :   -0.165071
  18 C :   -0.061907
  19 C :   -0.051661
  20 C :   -0.167709
  21 H :    0.021931
  22 C :   -0.028733
  23 H :    0.029416
  24 H :    0.030122
  25 C :   -0.058190
  26 H :    0.022911
  27 H :    0.027791
  28 C :   -0.066006
  29 H :    0.032297
  30 H :    0.015665
  31 H :    0.031712
  32 H :    0.028740
  33 H :    0.034651

  Mayer bond orders larger than 0.100000
B(  0-S ,  1-C ) :   1.1289 B(  0-S ,  4-C ) :   1.1379 B(  1-C ,  2-C ) :   1.6128
B(  1-C , 32-H ) :   0.9729 B(  2-C ,  3-C ) :   1.2330 B(  2-C ,  6-C ) :   1.0195
B(  3-C ,  4-C ) :   1.5830 B(  3-C ,  5-H ) :   1.0070 B(  4-C , 20-C ) :   1.0475
B(  6-C ,  7-H ) :   0.9286 B(  6-C ,  8-H ) :   0.9504 B(  6-C ,  9-C ) :   1.0653
B(  9-C , 10-H ) :   0.9532 B(  9-C , 11-H ) :   0.9657 B(  9-C , 12-C ) :   1.0800
B( 12-C , 13-H ) :   0.9744 B( 12-C , 14-H ) :   0.9727 B( 12-C , 15-H ) :   0.9772
B( 16-S , 17-C ) :   1.1276 B( 16-S , 20-C ) :   1.1025 B( 17-C , 18-C ) :   1.6548
B( 17-C , 33-H ) :   0.9663 B( 18-C , 19-C ) :   1.1853 B( 18-C , 21-H ) :   1.0003
B( 19-C , 20-C ) :   1.6599 B( 19-C , 22-C ) :   1.0367 B( 22-C , 23-H ) :   0.9458
B( 22-C , 24-H ) :   0.9324 B( 22-C , 25-C ) :   1.0464 B( 25-C , 26-H ) :   0.9569
B( 25-C , 27-H ) :   0.9600 B( 25-C , 28-C ) :   1.0672 B( 28-C , 29-H ) :   0.9750
B( 28-C , 30-H ) :   0.9760 B( 28-C , 31-H ) :   0.9764

Dispersion correction           -0.013536303
FINAL SINGLE POINT ENERGY     -1339.870466607843

DIPOLE MOMENT
-------------
                                X             Y             Z
Electronic contribution:      9.45984     -21.05638      19.09985
Nuclear contribution   :     -9.53472      21.70832     -19.40544
                        -----------------------------------------
Total Dipole Moment    :     -0.07488       0.65194      -0.30559
                        -----------------------------------------
Magnitude (a.u.)       :      0.72389
Magnitude (Debye)      :      1.83999

Rotational constants in cm-1:     0.018208     0.008048     0.005910
Rotational constants in MHz :   545.854575   241.281859   177.190627

                             ****ORCA TERMINATED NORMALLY****
TOTAL RUN TIME: 0 days 0 hours 0 minutes 19 seconds 791 msec
