                         Program Version 4.2.1 -  RELEASE  -
|  1> ! wB97X-D3 SP def2-SVP
|  2> %pal
|  3> nprocs 24
|  4> end
|  5>
|  6> * xyz 0 1
|  7> S 	 -101.732 	 1.60458 	 -108.857
|  8> C 	 -101.063 	 0.00486185 	 -108.748
|  9> C 	 -101.131 	 -0.438115 	 -107.418
| 10> C 	 -101.772 	 0.458583 	 -106.53
| 11> C 	 -102.212 	 1.61691 	 -107.152
| 12> H 	 -101.826 	 0.207386 	 -105.481
| 13> C 	 -100.596 	 -1.79246 	 -107.047
| 14> H 	 -101.371 	 -2.59659 	 -107.166
| 15> H 	 -100.519 	 -1.78943 	 -105.969
| 16> C 	 -99.3404 	 -2.32735 	 -107.741
| 17> H 	 -99.6263 	 -2.61936 	 -108.701
| 18> H 	 -98.685 	 -1.46025 	 -107.779
| 19> C 	 -98.6627 	 -3.60261 	 -107.102
| 20> H 	 -98.3462 	 -3.34832 	 -106.055
| 21> H 	 -99.3884 	 -4.37188 	 -106.933
| 22> H 	 -97.737 	 -3.885 	 -107.652
| 23> S 	 -102.299 	 4.32638 	 -106.826
| 24> C 	 -103.141 	 4.97691 	 -105.462
| 25> C 	 -104.027 	 4.01495 	 -104.993
| 26> C 	 -103.872 	 2.73164 	 -105.582
| 27> C 	 -102.878 	 2.72631 	 -106.521
| 28> H 	 -104.608 	 4.32318 	 -104.142
| 29> C 	 -104.564 	 1.48777 	 -105.036
| 30> H 	 -103.927 	 1.01054 	 -104.223
| 31> H 	 -104.716 	 0.813416 	 -105.857
| 32> C 	 -106.004 	 1.83366 	 -104.4
| 33> H 	 -106.691 	 2.31121 	 -105.095
| 34> H 	 -105.883 	 2.59385 	 -103.621
| 35> C 	 -106.628 	 0.604891 	 -103.767
| 36> H 	 -106.744 	 -0.237276 	 -104.426
| 37> H 	 -107.491 	 0.986661 	 -103.22
| 38> H 	 -105.921 	 0.239475 	 -102.993
| 39> H 	 -100.721 	 -0.655679 	 -109.455
| 40> H 	 -103.093 	 6.04696 	 -105.068
| 41> *
| 42>
| 43>                          ****END OF INPUT****

CARTESIAN COORDINATES (ANGSTROEM)
---------------------------------
  S    -101.732000    1.604580  -108.857000
  C    -101.063000    0.004862  -108.748000
  C    -101.131000   -0.438115  -107.418000
  C    -101.772000    0.458583  -106.530000
  C    -102.212000    1.616910  -107.152000
  H    -101.826000    0.207386  -105.481000
  C    -100.596000   -1.792460  -107.047000
  H    -101.371000   -2.596590  -107.166000
  H    -100.519000   -1.789430  -105.969000
  C    -99.340400   -2.327350  -107.741000
  H    -99.626300   -2.619360  -108.701000
  H    -98.685000   -1.460250  -107.779000
  C    -98.662700   -3.602610  -107.102000
  H    -98.346200   -3.348320  -106.055000
  H    -99.388400   -4.371880  -106.933000
  H    -97.737000   -3.885000  -107.652000
  S    -102.299000    4.326380  -106.826000
  C    -103.141000    4.976910  -105.462000
  C    -104.027000    4.014950  -104.993000
  C    -103.872000    2.731640  -105.582000
  C    -102.878000    2.726310  -106.521000
  H    -104.608000    4.323180  -104.142000
  C    -104.564000    1.487770  -105.036000
  H    -103.927000    1.010540  -104.223000
  H    -104.716000    0.813416  -105.857000
  C    -106.004000    1.833660  -104.400000
  H    -106.691000    2.311210  -105.095000
  H    -105.883000    2.593850  -103.621000
  C    -106.628000    0.604891  -103.767000
  H    -106.744000   -0.237276  -104.426000
  H    -107.491000    0.986661  -103.220000
  H    -105.921000    0.239475  -102.993000
  H    -100.721000   -0.655679  -109.455000
  H    -103.093000    6.046960  -105.068000

 Total Charge           Charge          ....    0
 Multiplicity           Mult            ....    1
 Number of Electrons    NEL             ....  134
 Basis Dimension        Dim             ....  322

ORBITAL ENERGIES
----------------

  NO   OCC          E(Eh)            E(eV)
   0   2.0000     -88.969820     -2420.9919
   1   2.0000     -88.963168     -2420.8109
   2   2.0000     -10.333024      -281.1759
   3   2.0000     -10.321326      -280.8576
   4   2.0000     -10.320980      -280.8481
   5   2.0000     -10.306721      -280.4601
   6   2.0000     -10.301092      -280.3070
   7   2.0000     -10.299760      -280.2707
   8   2.0000     -10.297752      -280.2161
   9   2.0000     -10.294937      -280.1395
  10   2.0000     -10.291505      -280.0461
  11   2.0000     -10.290827      -280.0276
  12   2.0000     -10.288903      -279.9753
  13   2.0000     -10.288324      -279.9595
  14   2.0000     -10.285758      -279.8897
  15   2.0000     -10.277707      -279.6706
  16   2.0000      -8.083883      -219.9736
  17   2.0000      -8.078851      -219.8367
  18   2.0000      -6.042474      -164.4241
  19   2.0000      -6.038416      -164.3137
  20   2.0000      -6.037324      -164.2839
  21   2.0000      -6.034676      -164.2119
  22   2.0000      -6.033180      -164.1712
  23   2.0000      -6.029634      -164.0747
  24   2.0000      -1.011751       -27.5312
  25   2.0000      -0.986629       -26.8476
  26   2.0000      -0.910789       -24.7838
  27   2.0000      -0.903682       -24.5904
  28   2.0000      -0.870786       -23.6953
  29   2.0000      -0.855126       -23.2692
  30   2.0000      -0.847265       -23.0553
  31   2.0000      -0.815365       -22.1872
  32   2.0000      -0.779255       -21.2046
  33   2.0000      -0.768286       -20.9061
  34   2.0000      -0.715335       -19.4653
  35   2.0000      -0.704032       -19.1577
  36   2.0000      -0.698039       -18.9946
  37   2.0000      -0.654504       -17.8100
  38   2.0000      -0.636133       -17.3101
  39   2.0000      -0.620706       -16.8903
  40   2.0000      -0.593416       -16.1477
  41   2.0000      -0.571245       -15.5444
  42   2.0000      -0.567069       -15.4307
  43   2.0000      -0.563847       -15.3431
  44   2.0000      -0.533566       -14.5191
  45   2.0000      -0.525317       -14.2946
  46   2.0000      -0.521754       -14.1976
  47   2.0000      -0.515379       -14.0242
  48   2.0000      -0.506573       -13.7845
  49   2.0000      -0.493216       -13.4211
  50   2.0000      -0.493101       -13.4180
  51   2.0000      -0.478887       -13.0312
  52   2.0000      -0.473493       -12.8844
  53   2.0000      -0.469089       -12.7646
  54   2.0000      -0.456698       -12.4274
  55   2.0000      -0.450667       -12.2633
  56   2.0000      -0.447347       -12.1729
  57   2.0000      -0.435564       -11.8523
  58   2.0000      -0.431646       -11.7457
  59   2.0000      -0.425580       -11.5806
  60   2.0000      -0.421844       -11.4790
  61   2.0000      -0.415652       -11.3105
  62   2.0000      -0.408471       -11.1151
  63   2.0000      -0.353110        -9.6086
  64   2.0000      -0.332123        -9.0375
  65   2.0000      -0.328781        -8.9466
  66   2.0000      -0.285982        -7.7820
  67   0.0000       0.027277         0.7422
  68   0.0000       0.068589         1.8664
  69   0.0000       0.111013         3.0208
  70   0.0000       0.122718         3.3393
  71   0.0000       0.135417         3.6849

MULLIKEN ATOMIC CHARGES
-----------------------
   0 S :    0.121889
   1 C :   -0.070649
   2 C :   -0.118807
   3 C :    0.024982
   4 C :   -0.139944
   5 H :    0.009241
   6 C :    0.052449
   7 H :    0.035305
   8 H :    0.000665
   9 C :   -0.076242
  10 H :    0.022684
  11 H :    0.038025
  12 C :   -0.055050
  13 H :    0.027955
  14 H :    0.030242
  15 H :    0.055004
  16 S :    0.111293
  17 C :   -0.128762
  18 C :   -0.057671
  19 C :   -0.013123
  20 C :   -0.137544
  21 H :    0.017728
  22 C :    0.041170
  23 H :    0.054268
  24 H :    0.037831
  25 C :   -0.116399
  26 H :    0.034978
  27 H :    0.026053
  28 C :   -0.012990
  29 H :    0.035079
  30 H :    0.037600
  31 H :    0.017885
  32 H :    0.009888
  33 H :    0.084968
Sum of atomic charges:   -0.0000000

LOEWDIN ATOMIC CHARGES
----------------------
   0 S :    0.410305
   1 C :   -0.195958
   2 C :   -0.061931
   3 C :   -0.061051
   4 C :   -0.182225
   5 H :    0.032445
   6 C :   -0.042368
   7 H :    0.035971
   8 H :    0.022620
   9 C :   -0.037180
  10 H :    0.013195
  11 H :    0.025505
  12 C :   -0.064394
  13 H :    0.028003
  14 H :    0.021685
  15 H :    0.035430
  16 S :    0.418968
  17 C :   -0.202953
  18 C :   -0.077004
  19 C :   -0.061684
  20 C :   -0.205702
  21 H :    0.028624
  22 C :   -0.028122
  23 H :    0.038712
  24 H :    0.029220
  25 C :   -0.040888
  26 H :    0.023375
  27 H :    0.020460
  28 C :   -0.065397
  29 H :    0.023087
  30 H :    0.030681
  31 H :    0.025989
  32 H :    0.013827
  33 H :    0.048754

  Mayer bond orders larger than 0.100000
B(  0-S ,  1-C ) :   1.1344 B(  0-S ,  4-C ) :   1.1527 B(  1-C ,  2-C ) :   1.5857
B(  1-C ,  4-C ) :   0.1022 B(  1-C , 32-H ) :   0.9772 B(  2-C ,  3-C ) :   1.2854
B(  2-C ,  6-C ) :   1.0322 B(  3-C ,  4-C ) :   1.5281 B(  3-C ,  5-H ) :   0.9933
B(  4-C , 20-C ) :   1.0612 B(  6-C ,  7-H ) :   0.9234 B(  6-C ,  8-H ) :   0.9382
B(  6-C ,  9-C ) :   1.0624 B(  9-C , 10-H ) :   0.9469 B(  9-C , 11-H ) :   0.9654
B(  9-C , 12-C ) :   1.0799 B( 12-C , 13-H ) :   0.9763 B( 12-C , 14-H ) :   0.9748
B( 12-C , 15-H ) :   0.9747 B( 16-S , 17-C ) :   1.1634 B( 16-S , 20-C ) :   1.1438
B( 17-C , 18-C ) :   1.6057 B( 17-C , 33-H ) :   0.9577 B( 18-C , 19-C ) :   1.2296
B( 18-C , 21-H ) :   0.9939 B( 19-C , 20-C ) :   1.5881 B( 19-C , 22-C ) :   1.0456
B( 22-C , 23-H ) :   0.9348 B( 22-C , 24-H ) :   0.9317 B( 22-C , 25-C ) :   1.0622
B( 25-C , 26-H ) :   0.9601 B( 25-C , 27-H ) :   0.9495 B( 25-C , 28-C ) :   1.0898
B( 28-C , 29-H ) :   0.9749 B( 28-C , 30-H ) :   0.9706 B( 28-C , 31-H ) :   0.9707

Dispersion correction           -0.013291912
FINAL SINGLE POINT ENERGY     -1339.872118811605

DIPOLE MOMENT
-------------
                                X             Y             Z
Electronic contribution:      3.27023      24.52458     -13.90779
Nuclear contribution   :     -3.39324     -24.99181      14.49082
                        -----------------------------------------
Total Dipole Moment    :     -0.12301      -0.46723       0.58303
                        -----------------------------------------
Magnitude (a.u.)       :      0.75721
Magnitude (Debye)      :      1.92467

Rotational constants in cm-1:     0.018806     0.007437     0.005827
Rotational constants in MHz :   563.795566   222.943248   174.692481

                             ****ORCA TERMINATED NORMALLY****
TOTAL RUN TIME: 0 days 0 hours 0 minutes 19 seconds 798 msec
