                         Program Version 4.2.1 -  RELEASE  -
|  1> ! wB97X-D3 SP def2-SVP
|  2> %pal
|  3> nprocs 24
|  4> end
|  5>
|  6> * xyz 0 1
|  7> S 	 -97.1025 	 -0.213719 	 -102.36
|  8> C 	 -97.6 	 0.635503 	 -100.939
|  9> C 	 -97.9917 	 1.93307 	 -101.248
| 10> C 	 -97.5641 	 2.32274 	 -102.56
| 11> C 	 -96.9178 	 1.34323 	 -103.287
| 12> H 	 -97.7739 	 3.23516 	 -103.086
| 13> C 	 -98.5481 	 2.88954 	 -100.301
| 14> H 	 -98.5595 	 3.77928 	 -100.861
| 15> H 	 -97.8807 	 2.91365 	 -99.4931
| 16> C 	 -99.9638 	 2.51948 	 -99.9087
| 17> H 	 -100.506 	 2.30415 	 -100.846
| 18> H 	 -99.9807 	 1.559 	 -99.4427
| 19> C 	 -100.608 	 3.62243 	 -99.1429
| 20> H 	 -100.064 	 3.78187 	 -98.164
| 21> H 	 -100.52 	 4.48847 	 -99.6784
| 22> H 	 -101.639 	 3.32972 	 -98.9362
| 23> S 	 -97.7988 	 0.557945 	 -105.782
| 24> C 	 -97.1012 	 1.28383 	 -107.221
| 25> C 	 -95.9776 	 2.00441 	 -106.857
| 26> C 	 -95.7094 	 2.15329 	 -105.436
| 27> C 	 -96.5802 	 1.34225 	 -104.734
| 28> H 	 -95.518 	 2.4541 	 -107.641
| 29> C 	 -94.5835 	 3.0074 	 -104.873
| 30> H 	 -93.7367 	 2.66135 	 -105.489
| 31> H 	 -94.3999 	 2.73015 	 -103.811
| 32> C 	 -94.8829 	 4.50988 	 -105.003
| 33> H 	 -95.7972 	 4.74082 	 -104.59
| 34> H 	 -95.0318 	 4.71784 	 -106.072
| 35> C 	 -93.889 	 5.52838 	 -104.449
| 36> H 	 -93.025 	 5.66168 	 -105.167
| 37> H 	 -93.6742 	 5.39757 	 -103.398
| 38> H 	 -94.3969 	 6.50727 	 -104.431
| 39> H 	 -97.8762 	 0.194205 	 -99.9969
| 40> H 	 -97.2583 	 0.957322 	 -108.278
| 41> *
| 42>
| 43>                          ****END OF INPUT****

CARTESIAN COORDINATES (ANGSTROEM)
---------------------------------
  S    -97.102500   -0.213719  -102.360000
  C    -97.600000    0.635503  -100.939000
  C    -97.991700    1.933070  -101.248000
  C    -97.564100    2.322740  -102.560000
  C    -96.917800    1.343230  -103.287000
  H    -97.773900    3.235160  -103.086000
  C    -98.548100    2.889540  -100.301000
  H    -98.559500    3.779280  -100.861000
  H    -97.880700    2.913650  -99.493100
  C    -99.963800    2.519480  -99.908700
  H    -100.506000    2.304150  -100.846000
  H    -99.980700    1.559000  -99.442700
  C    -100.608000    3.622430  -99.142900
  H    -100.064000    3.781870  -98.164000
  H    -100.520000    4.488470  -99.678400
  H    -101.639000    3.329720  -98.936200
  S    -97.798800    0.557945  -105.782000
  C    -97.101200    1.283830  -107.221000
  C    -95.977600    2.004410  -106.857000
  C    -95.709400    2.153290  -105.436000
  C    -96.580200    1.342250  -104.734000
  H    -95.518000    2.454100  -107.641000
  C    -94.583500    3.007400  -104.873000
  H    -93.736700    2.661350  -105.489000
  H    -94.399900    2.730150  -103.811000
  C    -94.882900    4.509880  -105.003000
  H    -95.797200    4.740820  -104.590000
  H    -95.031800    4.717840  -106.072000
  C    -93.889000    5.528380  -104.449000
  H    -93.025000    5.661680  -105.167000
  H    -93.674200    5.397570  -103.398000
  H    -94.396900    6.507270  -104.431000
  H    -97.876200    0.194205  -99.996900
  H    -97.258300    0.957322  -108.278000

 Total Charge           Charge          ....    0
 Multiplicity           Mult            ....    1
 Number of Electrons    NEL             ....  134
 Basis Dimension        Dim             ....  322

ORBITAL ENERGIES
----------------

  NO   OCC          E(Eh)            E(eV)
   0   2.0000     -88.962155     -2420.7833
   1   2.0000     -88.961776     -2420.7730
   2   2.0000     -10.332413      -281.1593
   3   2.0000     -10.329980      -281.0931
   4   2.0000     -10.320407      -280.8326
   5   2.0000     -10.311332      -280.5856
   6   2.0000     -10.308949      -280.5208
   7   2.0000     -10.298039      -280.2239
   8   2.0000     -10.295003      -280.1413
   9   2.0000     -10.294740      -280.1341
  10   2.0000     -10.288975      -279.9773
  11   2.0000     -10.283250      -279.8215
  12   2.0000     -10.282313      -279.7960
  13   2.0000     -10.279127      -279.7093
  14   2.0000     -10.275750      -279.6174
  15   2.0000     -10.273331      -279.5516
  16   2.0000      -8.076247      -219.7658
  17   2.0000      -8.076019      -219.7596
  18   2.0000      -6.034788      -164.2149
  19   2.0000      -6.034744      -164.2137
  20   2.0000      -6.031005      -164.1120
  21   2.0000      -6.030556      -164.0998
  22   2.0000      -6.026845      -163.9988
  23   2.0000      -6.026589      -163.9918
  24   2.0000      -1.000010       -27.2117
  25   2.0000      -0.981016       -26.6948
  26   2.0000      -0.924376       -25.1536
  27   2.0000      -0.908996       -24.7350
  28   2.0000      -0.868710       -23.6388
  29   2.0000      -0.853802       -23.2331
  30   2.0000      -0.849109       -23.1054
  31   2.0000      -0.817770       -22.2527
  32   2.0000      -0.782903       -21.3039
  33   2.0000      -0.768939       -20.9239
  34   2.0000      -0.709798       -19.3146
  35   2.0000      -0.703393       -19.1403
  36   2.0000      -0.693812       -18.8796
  37   2.0000      -0.659718       -17.9518
  38   2.0000      -0.643062       -17.4986
  39   2.0000      -0.618750       -16.8370
  40   2.0000      -0.589321       -16.0363
  41   2.0000      -0.578904       -15.7528
  42   2.0000      -0.570994       -15.5375
  43   2.0000      -0.561329       -15.2745
  44   2.0000      -0.532027       -14.4772
  45   2.0000      -0.522956       -14.2304
  46   2.0000      -0.520109       -14.1529
  47   2.0000      -0.514160       -13.9910
  48   2.0000      -0.510117       -13.8810
  49   2.0000      -0.504445       -13.7266
  50   2.0000      -0.493587       -13.4312
  51   2.0000      -0.482709       -13.1352
  52   2.0000      -0.469302       -12.7704
  53   2.0000      -0.465927       -12.6785
  54   2.0000      -0.458010       -12.4631
  55   2.0000      -0.448639       -12.2081
  56   2.0000      -0.444861       -12.1053
  57   2.0000      -0.434306       -11.8181
  58   2.0000      -0.429678       -11.6921
  59   2.0000      -0.425133       -11.5685
  60   2.0000      -0.420096       -11.4314
  61   2.0000      -0.417722       -11.3668
  62   2.0000      -0.413945       -11.2640
  63   2.0000      -0.342585        -9.3222
  64   2.0000      -0.327461        -8.9107
  65   2.0000      -0.321070        -8.7368
  66   2.0000      -0.300039        -8.1645
  67   0.0000       0.032463         0.8834
  68   0.0000       0.054858         1.4928
  69   0.0000       0.113258         3.0819
  70   0.0000       0.121957         3.3186
  71   0.0000       0.126455         3.4410

MULLIKEN ATOMIC CHARGES
-----------------------
   0 S :    0.090829
   1 C :   -0.088001
   2 C :   -0.144893
   3 C :    0.050839
   4 C :   -0.169722
   5 H :    0.014453
   6 C :    0.135526
   7 H :   -0.004481
   8 H :    0.026359
   9 C :   -0.113371
  10 H :    0.026645
  11 H :    0.014400
  12 C :    0.023972
  13 H :    0.028228
  14 H :    0.009329
  15 H :    0.036818
  16 S :    0.092690
  17 C :   -0.108695
  18 C :   -0.011506
  19 C :   -0.045665
  20 C :   -0.155343
  21 H :   -0.019721
  22 C :    0.090376
  23 H :    0.038284
  24 H :    0.036018
  25 C :   -0.067075
  26 H :    0.002957
  27 H :    0.020569
  28 C :   -0.040311
  29 H :    0.045951
  30 H :    0.034323
  31 H :    0.025749
  32 H :    0.044941
  33 H :    0.079527
Sum of atomic charges:   -0.0000000

LOEWDIN ATOMIC CHARGES
----------------------
   0 S :    0.381963
   1 C :   -0.197181
   2 C :   -0.062782
   3 C :   -0.055775
   4 C :   -0.179208
   5 H :    0.030298
   6 C :   -0.025667
   7 H :    0.024312
   8 H :    0.028996
   9 C :   -0.039969
  10 H :    0.028085
  11 H :    0.016247
  12 C :   -0.054739
  13 H :    0.032013
  14 H :    0.012044
  15 H :    0.029297
  16 S :    0.381723
  17 C :   -0.191205
  18 C :   -0.063278
  19 C :   -0.049212
  20 C :   -0.189685
  21 H :    0.010554
  22 C :   -0.027371
  23 H :    0.037884
  24 H :    0.035404
  25 C :   -0.041206
  26 H :    0.012797
  27 H :    0.026825
  28 C :   -0.068999
  29 H :    0.033032
  30 H :    0.024551
  31 H :    0.030542
  32 H :    0.026000
  33 H :    0.043711

  Mayer bond orders larger than 0.100000
B(  0-S ,  1-C ) :   1.1479 B(  0-S ,  4-C ) :   1.1310 B(  1-C ,  2-C ) :   1.5930
B(  1-C , 32-H ) :   0.9669 B(  2-C ,  3-C ) :   1.2430 B(  2-C ,  6-C ) :   1.0296
B(  3-C ,  4-C ) :   1.5878 B(  3-C ,  5-H ) :   0.9891 B(  4-C , 20-C ) :   1.0038
B(  6-C ,  7-H ) :   0.9331 B(  6-C ,  8-H ) :   0.9312 B(  6-C ,  9-C ) :   1.0602
B(  9-C , 10-H ) :   0.9524 B(  9-C , 11-H ) :   0.9551 B(  9-C , 12-C ) :   1.0908
B( 12-C , 13-H ) :   0.9681 B( 12-C , 14-H ) :   0.9711 B( 12-C , 15-H ) :   0.9710
B( 16-S , 17-C ) :   1.1372 B( 16-S , 20-C ) :   1.1367 B( 17-C , 18-C ) :   1.6531
B( 17-C , 33-H ) :   0.9546 B( 18-C , 19-C ) :   1.1977 B( 18-C , 21-H ) :   0.9965
B( 19-C , 20-C ) :   1.6344 B( 19-C , 22-C ) :   1.0340 B( 22-C , 23-H ) :   0.9368
B( 22-C , 24-H ) :   0.9349 B( 22-C , 25-C ) :   1.0544 B( 25-C , 26-H ) :   0.9538
B( 25-C , 27-H ) :   0.9535 B( 25-C , 28-C ) :   1.0981 B( 28-C , 29-H ) :   0.9752
B( 28-C , 30-H ) :   0.9716 B( 28-C , 31-H ) :   0.9713

Dispersion correction           -0.013703608
FINAL SINGLE POINT ENERGY     -1339.855282107336

DIPOLE MOMENT
-------------
                                X             Y             Z
Electronic contribution:     -0.52275     -23.66348     -11.81510
Nuclear contribution   :      0.47549      24.37597      11.89358
                        -----------------------------------------
Total Dipole Moment    :     -0.04726       0.71249       0.07847
                        -----------------------------------------
Magnitude (a.u.)       :      0.71835
Magnitude (Debye)      :      1.82591

Rotational constants in cm-1:     0.017484     0.008042     0.006480
Rotational constants in MHz :   524.163584   241.102380   194.279930

                             ****ORCA TERMINATED NORMALLY****
TOTAL RUN TIME: 0 days 0 hours 0 minutes 21 seconds 199 msec
