                         Program Version 4.2.1 -  RELEASE  -
|  1> ! wB97X-D3 SP def2-SVP
|  2> %pal
|  3> nprocs 24
|  4> end
|  5>
|  6> * xyz 0 1
|  7> S 	 -106.838 	 30.7105 	 -20.6814
|  8> C 	 -105.336 	 30.7563 	 -19.8364
|  9> C 	 -104.963 	 32.0277 	 -19.4263
| 10> C 	 -105.975 	 33.0298 	 -19.8226
| 11> C 	 -107.084 	 32.4345 	 -20.3796
| 12> H 	 -105.956 	 34.1375 	 -19.7525
| 13> C 	 -103.746 	 32.4621 	 -18.7405
| 14> H 	 -103.92 	 32.0594 	 -17.6913
| 15> H 	 -103.876 	 33.5383 	 -18.7824
| 16> C 	 -102.352 	 32.0104 	 -19.2194
| 17> H 	 -102.28 	 30.9781 	 -19.1487
| 18> H 	 -102.174 	 32.2819 	 -20.2079
| 19> C 	 -101.171 	 32.6176 	 -18.4471
| 20> H 	 -101.002 	 33.6974 	 -18.7324
| 21> H 	 -101.278 	 32.6354 	 -17.3279
| 22> H 	 -100.304 	 31.9446 	 -18.6065
| 23> S 	 -108.64 	 34.6693 	 -20.2662
| 24> C 	 -109.933 	 34.8847 	 -21.3949
| 25> C 	 -110.006 	 33.7701 	 -22.2167
| 26> C 	 -109.038 	 32.7662 	 -22.0205
| 27> C 	 -108.2 	 33.1145 	 -20.9581
| 28> H 	 -110.842 	 33.8565 	 -22.8467
| 29> C 	 -108.908 	 31.6421 	 -22.8927
| 30> H 	 -107.888 	 31.2937 	 -22.8957
| 31> H 	 -109.028 	 32.0767 	 -23.9686
| 32> C 	 -109.846 	 30.4821 	 -22.7244
| 33> H 	 -109.854 	 30.2253 	 -21.6858
| 34> H 	 -109.529 	 29.6571 	 -23.3358
| 35> C 	 -111.346 	 30.7407 	 -22.8549
| 36> H 	 -111.848 	 29.737 	 -22.8652
| 37> H 	 -111.615 	 31.2173 	 -23.8196
| 38> H 	 -111.692 	 31.3272 	 -21.9729
| 39> H 	 -104.74 	 29.9195 	 -19.549
| 40> H 	 -110.638 	 35.7198 	 -21.5232
| 41> *
| 42>
| 43>                          ****END OF INPUT****

CARTESIAN COORDINATES (ANGSTROEM)
---------------------------------
  S    -106.838000   30.710500  -20.681400
  C    -105.336000   30.756300  -19.836400
  C    -104.963000   32.027700  -19.426300
  C    -105.975000   33.029800  -19.822600
  C    -107.084000   32.434500  -20.379600
  H    -105.956000   34.137500  -19.752500
  C    -103.746000   32.462100  -18.740500
  H    -103.920000   32.059400  -17.691300
  H    -103.876000   33.538300  -18.782400
  C    -102.352000   32.010400  -19.219400
  H    -102.280000   30.978100  -19.148700
  H    -102.174000   32.281900  -20.207900
  C    -101.171000   32.617600  -18.447100
  H    -101.002000   33.697400  -18.732400
  H    -101.278000   32.635400  -17.327900
  H    -100.304000   31.944600  -18.606500
  S    -108.640000   34.669300  -20.266200
  C    -109.933000   34.884700  -21.394900
  C    -110.006000   33.770100  -22.216700
  C    -109.038000   32.766200  -22.020500
  C    -108.200000   33.114500  -20.958100
  H    -110.842000   33.856500  -22.846700
  C    -108.908000   31.642100  -22.892700
  H    -107.888000   31.293700  -22.895700
  H    -109.028000   32.076700  -23.968600
  C    -109.846000   30.482100  -22.724400
  H    -109.854000   30.225300  -21.685800
  H    -109.529000   29.657100  -23.335800
  C    -111.346000   30.740700  -22.854900
  H    -111.848000   29.737000  -22.865200
  H    -111.615000   31.217300  -23.819600
  H    -111.692000   31.327200  -21.972900
  H    -104.740000   29.919500  -19.549000
  H    -110.638000   35.719800  -21.523200

 Total Charge           Charge          ....    0
 Multiplicity           Mult            ....    1
 Number of Electrons    NEL             ....  134
 Basis Dimension        Dim             ....  322

ORBITAL ENERGIES
----------------

  NO   OCC          E(Eh)            E(eV)
   0   2.0000     -88.968371     -2420.9524
   1   2.0000     -88.965966     -2420.8870
   2   2.0000     -10.327562      -281.0273
   3   2.0000     -10.325300      -280.9657
   4   2.0000     -10.315062      -280.6871
   5   2.0000     -10.308293      -280.5029
   6   2.0000     -10.302285      -280.3394
   7   2.0000     -10.297795      -280.2172
   8   2.0000     -10.296960      -280.1945
   9   2.0000     -10.292514      -280.0735
  10   2.0000     -10.287848      -279.9466
  11   2.0000     -10.285724      -279.8888
  12   2.0000     -10.285288      -279.8769
  13   2.0000     -10.281225      -279.7664
  14   2.0000     -10.280132      -279.7366
  15   2.0000     -10.276987      -279.6510
  16   2.0000      -8.082634      -219.9396
  17   2.0000      -8.080628      -219.8851
  18   2.0000      -6.041275      -164.3915
  19   2.0000      -6.039124      -164.3329
  20   2.0000      -6.037274      -164.2826
  21   2.0000      -6.035109      -164.2237
  22   2.0000      -6.033211      -164.1720
  23   2.0000      -6.031468      -164.1246
  24   2.0000      -1.010555       -27.4986
  25   2.0000      -0.984740       -26.7961
  26   2.0000      -0.920154       -25.0387
  27   2.0000      -0.915279       -24.9060
  28   2.0000      -0.874251       -23.7896
  29   2.0000      -0.857642       -23.3376
  30   2.0000      -0.850292       -23.1376
  31   2.0000      -0.813962       -22.1490
  32   2.0000      -0.783576       -21.3222
  33   2.0000      -0.770528       -20.9671
  34   2.0000      -0.712714       -19.3939
  35   2.0000      -0.707453       -19.2508
  36   2.0000      -0.687666       -18.7123
  37   2.0000      -0.665604       -18.1120
  38   2.0000      -0.633937       -17.2503
  39   2.0000      -0.612335       -16.6625
  40   2.0000      -0.598063       -16.2741
  41   2.0000      -0.576625       -15.6908
  42   2.0000      -0.565037       -15.3754
  43   2.0000      -0.554814       -15.0973
  44   2.0000      -0.547866       -14.9082
  45   2.0000      -0.523971       -14.2580
  46   2.0000      -0.522491       -14.2177
  47   2.0000      -0.512514       -13.9462
  48   2.0000      -0.505187       -13.7468
  49   2.0000      -0.495334       -13.4787
  50   2.0000      -0.490375       -13.3438
  51   2.0000      -0.486077       -13.2268
  52   2.0000      -0.473913       -12.8958
  53   2.0000      -0.470579       -12.8051
  54   2.0000      -0.457699       -12.4546
  55   2.0000      -0.447902       -12.1880
  56   2.0000      -0.436952       -11.8901
  57   2.0000      -0.433367       -11.7925
  58   2.0000      -0.431871       -11.7518
  59   2.0000      -0.425982       -11.5916
  60   2.0000      -0.424795       -11.5593
  61   2.0000      -0.418068       -11.3762
  62   2.0000      -0.402629       -10.9561
  63   2.0000      -0.362516        -9.8646
  64   2.0000      -0.330072        -8.9817
  65   2.0000      -0.324000        -8.8165
  66   2.0000      -0.279330        -7.6009
  67   0.0000       0.021556         0.5866
  68   0.0000       0.083908         2.2832
  69   0.0000       0.103607         2.8193
  70   0.0000       0.120651         3.2831
  71   0.0000       0.132997         3.6190

MULLIKEN ATOMIC CHARGES
-----------------------
   0 S :    0.096689
   1 C :   -0.096189
   2 C :   -0.095741
   3 C :   -0.042743
   4 C :   -0.105018
   5 H :    0.039411
   6 C :    0.052970
   7 H :    0.052054
   8 H :    0.018184
   9 C :   -0.004500
  10 H :    0.009390
  11 H :    0.019534
  12 C :   -0.096441
  13 H :    0.047039
  14 H :    0.030065
  15 H :    0.040932
  16 S :    0.099496
  17 C :   -0.103662
  18 C :   -0.039799
  19 C :   -0.021394
  20 C :   -0.127882
  21 H :   -0.005147
  22 C :    0.017696
  23 H :    0.024863
  24 H :    0.037909
  25 C :   -0.018080
  26 H :    0.014002
  27 H :    0.030793
  28 C :   -0.091933
  29 H :    0.041691
  30 H :    0.028437
  31 H :    0.052820
  32 H :    0.032251
  33 H :    0.062303
Sum of atomic charges:   -0.0000000

LOEWDIN ATOMIC CHARGES
----------------------
   0 S :    0.425454
   1 C :   -0.211125
   2 C :   -0.057527
   3 C :   -0.074061
   4 C :   -0.181246
   5 H :    0.033948
   6 C :   -0.040871
   7 H :    0.048510
   8 H :    0.031198
   9 C :   -0.030696
  10 H :    0.014586
  11 H :    0.020985
  12 C :   -0.072115
  13 H :    0.031052
  14 H :    0.025392
  15 H :    0.031470
  16 S :    0.412784
  17 C :   -0.200933
  18 C :   -0.065242
  19 C :   -0.068107
  20 C :   -0.185869
  21 H :    0.023498
  22 C :   -0.052313
  23 H :    0.016998
  24 H :    0.043386
  25 C :   -0.040507
  26 H :    0.023008
  27 H :    0.024102
  28 C :   -0.071047
  29 H :    0.033892
  30 H :    0.018500
  31 H :    0.030925
  32 H :    0.023248
  33 H :    0.038724

  Mayer bond orders larger than 0.100000
B(  0-S ,  1-C ) :   1.1231 B(  0-S ,  4-C ) :   1.1353 B(  1-C ,  2-C ) :   1.6260
B(  1-C , 32-H ) :   0.9692 B(  2-C ,  3-C ) :   1.2179 B(  2-C ,  6-C ) :   1.0277
B(  3-C ,  4-C ) :   1.5795 B(  3-C ,  5-H ) :   0.9729 B(  4-C , 20-C ) :   1.0931
B(  6-C ,  7-H ) :   0.9196 B(  6-C ,  8-H ) :   0.9424 B(  6-C ,  9-C ) :   1.0763
B(  9-C , 10-H ) :   0.9505 B(  9-C , 11-H ) :   0.9553 B(  9-C , 12-C ) :   1.0837
B( 12-C , 13-H ) :   0.9770 B( 12-C , 14-H ) :   0.9755 B( 12-C , 15-H ) :   0.9750
B( 16-S , 17-C ) :   1.1438 B( 16-S , 20-C ) :   1.1443 B( 17-C , 18-C ) :   1.6225
B( 17-C , 33-H ) :   0.9627 B( 18-C , 19-C ) :   1.2264 B( 18-C , 21-H ) :   1.0005
B( 19-C , 20-C ) :   1.5350 B( 19-C , 22-C ) :   1.0536 B( 22-C , 23-H ) :   0.9159
B( 22-C , 24-H ) :   0.9247 B( 22-C , 25-C ) :   1.0814 B( 25-C , 26-H ) :   0.9444
B( 25-C , 27-H ) :   0.9558 B( 25-C , 28-C ) :   1.0837 B( 28-C , 29-H ) :   0.9717
B( 28-C , 30-H ) :   0.9741 B( 28-C , 31-H ) :   0.9714

Dispersion correction           -0.014036783
FINAL SINGLE POINT ENERGY     -1339.866553966853

DIPOLE MOMENT
-------------
                                X             Y             Z
Electronic contribution:     -9.48454       6.50438       1.78100
Nuclear contribution   :      9.70936      -6.57450      -1.91083
                        -----------------------------------------
Total Dipole Moment    :      0.22482      -0.07012      -0.12983
                        -----------------------------------------
Magnitude (a.u.)       :      0.26892
Magnitude (Debye)      :      0.68354

Rotational constants in cm-1:     0.026751     0.007132     0.005855
Rotational constants in MHz :   801.979641   213.817024   175.515815

                             ****ORCA TERMINATED NORMALLY****
TOTAL RUN TIME: 0 days 0 hours 0 minutes 21 seconds 326 msec
