                         Program Version 4.2.1 -  RELEASE  -
|  1> ! wB97X-D3 SP def2-SVP
|  2> %pal
|  3> nprocs 24
|  4> end
|  5>
|  6> * xyz 0 1
|  7> S 	 -23.7703 	 -33.6378 	 -92.2776
|  8> C 	 -22.411 	 -34.7425 	 -92.491
|  9> C 	 -21.4312 	 -34.0804 	 -93.1675
| 10> C 	 -21.8349 	 -32.7971 	 -93.6778
| 11> C 	 -23.0812 	 -32.3732 	 -93.3039
| 12> H 	 -21.2122 	 -32.1694 	 -94.2529
| 13> C 	 -19.9861 	 -34.6475 	 -93.3562
| 14> H 	 -19.6617 	 -34.1569 	 -94.3409
| 15> H 	 -20.0195 	 -35.7471 	 -93.407
| 16> C 	 -19.0703 	 -34.1803 	 -92.2084
| 17> H 	 -19.2523 	 -33.2002 	 -91.9404
| 18> H 	 -19.485 	 -34.7458 	 -91.3342
| 19> C 	 -17.6098 	 -34.3347 	 -92.5909
| 20> H 	 -17.3287 	 -35.3852 	 -92.5886
| 21> H 	 -17.3926 	 -33.7719 	 -93.5204
| 22> H 	 -16.9193 	 -33.8623 	 -91.9005
| 23> S 	 -24.8174 	 -31.3873 	 -95.0163
| 24> C 	 -25.529 	 -29.8162 	 -94.8589
| 25> C 	 -24.9634 	 -29.2097 	 -93.7297
| 26> C 	 -23.8984 	 -29.936 	 -93.0932
| 27> C 	 -23.7737 	 -31.1984 	 -93.6688
| 28> H 	 -25.3524 	 -28.2314 	 -93.4451
| 29> C 	 -23.285 	 -29.4803 	 -91.8072
| 30> H 	 -23.29 	 -30.2266 	 -91.0158
| 31> H 	 -23.9301 	 -28.6627 	 -91.4173
| 32> C 	 -21.8334 	 -28.9216 	 -91.8586
| 33> H 	 -21.8195 	 -28.3006 	 -91.0063
| 34> H 	 -21.699 	 -28.3602 	 -92.6895
| 35> C 	 -20.575 	 -29.8115 	 -91.6102
| 36> H 	 -20.4863 	 -30.5528 	 -92.4334
| 37> H 	 -20.6088 	 -30.4246 	 -90.7347
| 38> H 	 -19.6503 	 -29.1429 	 -91.5774
| 39> H 	 -22.2849 	 -35.6245 	 -91.8913
| 40> H 	 -26.424 	 -29.426 	 -95.3893
| 41> *
| 42>
| 43>                          ****END OF INPUT****

CARTESIAN COORDINATES (ANGSTROEM)
---------------------------------
  S    -23.770300  -33.637800  -92.277600
  C    -22.411000  -34.742500  -92.491000
  C    -21.431200  -34.080400  -93.167500
  C    -21.834900  -32.797100  -93.677800
  C    -23.081200  -32.373200  -93.303900
  H    -21.212200  -32.169400  -94.252900
  C    -19.986100  -34.647500  -93.356200
  H    -19.661700  -34.156900  -94.340900
  H    -20.019500  -35.747100  -93.407000
  C    -19.070300  -34.180300  -92.208400
  H    -19.252300  -33.200200  -91.940400
  H    -19.485000  -34.745800  -91.334200
  C    -17.609800  -34.334700  -92.590900
  H    -17.328700  -35.385200  -92.588600
  H    -17.392600  -33.771900  -93.520400
  H    -16.919300  -33.862300  -91.900500
  S    -24.817400  -31.387300  -95.016300
  C    -25.529000  -29.816200  -94.858900
  C    -24.963400  -29.209700  -93.729700
  C    -23.898400  -29.936000  -93.093200
  C    -23.773700  -31.198400  -93.668800
  H    -25.352400  -28.231400  -93.445100
  C    -23.285000  -29.480300  -91.807200
  H    -23.290000  -30.226600  -91.015800
  H    -23.930100  -28.662700  -91.417300
  C    -21.833400  -28.921600  -91.858600
  H    -21.819500  -28.300600  -91.006300
  H    -21.699000  -28.360200  -92.689500
  C    -20.575000  -29.811500  -91.610200
  H    -20.486300  -30.552800  -92.433400
  H    -20.608800  -30.424600  -90.734700
  H    -19.650300  -29.142900  -91.577400
  H    -22.284900  -35.624500  -91.891300
  H    -26.424000  -29.426000  -95.389300

 Total Charge           Charge          ....    0
 Multiplicity           Mult            ....    1
 Number of Electrons    NEL             ....  134
 Basis Dimension        Dim             ....  322

ORBITAL ENERGIES
----------------

  NO   OCC          E(Eh)            E(eV)
   0   2.0000     -88.964743     -2420.8537
   1   2.0000     -88.960095     -2420.7272
   2   2.0000     -10.326973      -281.0112
   3   2.0000     -10.321335      -280.8578
   4   2.0000     -10.320339      -280.8307
   5   2.0000     -10.313209      -280.6367
   6   2.0000     -10.305769      -280.4342
   7   2.0000     -10.301423      -280.3160
   8   2.0000     -10.300776      -280.2984
   9   2.0000     -10.296921      -280.1935
  10   2.0000     -10.293761      -280.1075
  11   2.0000     -10.291992      -280.0593
  12   2.0000     -10.283084      -279.8169
  13   2.0000     -10.282028      -279.7882
  14   2.0000     -10.279911      -279.7306
  15   2.0000     -10.275176      -279.6018
  16   2.0000      -8.080388      -219.8785
  17   2.0000      -8.074606      -219.7212
  18   2.0000      -6.038756      -164.3229
  19   2.0000      -6.034512      -164.2074
  20   2.0000      -6.033218      -164.1722
  21   2.0000      -6.031455      -164.1242
  22   2.0000      -6.029065      -164.0592
  23   2.0000      -6.025322      -163.9573
  24   2.0000      -1.011825       -27.5332
  25   2.0000      -0.985039       -26.8043
  26   2.0000      -0.910538       -24.7770
  27   2.0000      -0.906475       -24.6664
  28   2.0000      -0.876369       -23.8472
  29   2.0000      -0.849630       -23.1196
  30   2.0000      -0.842072       -22.9140
  31   2.0000      -0.816097       -22.2071
  32   2.0000      -0.781779       -21.2733
  33   2.0000      -0.770451       -20.9650
  34   2.0000      -0.711680       -19.3658
  35   2.0000      -0.699925       -19.0459
  36   2.0000      -0.695006       -18.9121
  37   2.0000      -0.661875       -18.0105
  38   2.0000      -0.647444       -17.6178
  39   2.0000      -0.621493       -16.9117
  40   2.0000      -0.600211       -16.3326
  41   2.0000      -0.566714       -15.4211
  42   2.0000      -0.564853       -15.3704
  43   2.0000      -0.547003       -14.8847
  44   2.0000      -0.535470       -14.5709
  45   2.0000      -0.527237       -14.3469
  46   2.0000      -0.515531       -14.0283
  47   2.0000      -0.512740       -13.9524
  48   2.0000      -0.508486       -13.8366
  49   2.0000      -0.502870       -13.6838
  50   2.0000      -0.489978       -13.3330
  51   2.0000      -0.485158       -13.2018
  52   2.0000      -0.480337       -13.0706
  53   2.0000      -0.467978       -12.7343
  54   2.0000      -0.457459       -12.4481
  55   2.0000      -0.447312       -12.1720
  56   2.0000      -0.438499       -11.9322
  57   2.0000      -0.435472       -11.8498
  58   2.0000      -0.432748       -11.7757
  59   2.0000      -0.430197       -11.7063
  60   2.0000      -0.420994       -11.4558
  61   2.0000      -0.405456       -11.0330
  62   2.0000      -0.403848       -10.9892
  63   2.0000      -0.334541        -9.1033
  64   2.0000      -0.327110        -8.9011
  65   2.0000      -0.319982        -8.7072
  66   2.0000      -0.315563        -8.5869
  67   0.0000       0.042092         1.1454
  68   0.0000       0.050347         1.3700
  69   0.0000       0.114101         3.1048
  70   0.0000       0.123709         3.3663
  71   0.0000       0.128923         3.5082

MULLIKEN ATOMIC CHARGES
-----------------------
   0 S :    0.095775
   1 C :   -0.117347
   2 C :   -0.099900
   3 C :    0.071784
   4 C :   -0.158726
   5 H :   -0.002104
   6 C :    0.019950
   7 H :    0.032982
   8 H :    0.038643
   9 C :   -0.039635
  10 H :    0.009171
  11 H :    0.022563
  12 C :   -0.029915
  13 H :    0.036259
  14 H :    0.035801
  15 H :    0.025083
  16 S :    0.131694
  17 C :   -0.105868
  18 C :   -0.070308
  19 C :    0.029500
  20 C :   -0.205657
  21 H :    0.021228
  22 C :    0.048534
  23 H :    0.026565
  24 H :    0.023114
  25 C :   -0.020271
  26 H :    0.014092
  27 H :    0.005262
  28 C :   -0.067063
  29 H :    0.026141
  30 H :    0.027174
  31 H :    0.045774
  32 H :    0.052582
  33 H :    0.077121
Sum of atomic charges:    0.0000000

LOEWDIN ATOMIC CHARGES
----------------------
   0 S :    0.385792
   1 C :   -0.190509
   2 C :   -0.065012
   3 C :   -0.054104
   4 C :   -0.196213
   5 H :    0.022145
   6 C :   -0.026951
   7 H :    0.032956
   8 H :    0.030493
   9 C :   -0.042207
  10 H :    0.012862
  11 H :    0.029117
  12 C :   -0.065916
  13 H :    0.027077
  14 H :    0.031897
  15 H :    0.024702
  16 S :    0.446927
  17 C :   -0.206677
  18 C :   -0.073416
  19 C :   -0.055912
  20 C :   -0.217966
  21 H :    0.029278
  22 C :   -0.029565
  23 H :    0.031734
  24 H :    0.037715
  25 C :   -0.028796
  26 H :    0.022065
  27 H :    0.009362
  28 C :   -0.067579
  29 H :    0.020916
  30 H :    0.018720
  31 H :    0.036193
  32 H :    0.028409
  33 H :    0.042463

  Mayer bond orders larger than 0.100000
B(  0-S ,  1-C ) :   1.1316 B(  0-S ,  4-C ) :   1.1375 B(  1-C ,  2-C ) :   1.6272
B(  1-C , 32-H ) :   0.9695 B(  2-C ,  3-C ) :   1.2348 B(  2-C ,  6-C ) :   1.0120
B(  3-C ,  4-C ) :   1.5947 B(  3-C ,  5-H ) :   0.9948 B(  4-C , 20-C ) :   1.0364
B(  6-C ,  7-H ) :   0.9462 B(  6-C ,  8-H ) :   0.9489 B(  6-C ,  9-C ) :   1.0523
B(  9-C , 10-H ) :   0.9576 B(  9-C , 11-H ) :   0.9507 B(  9-C , 12-C ) :   1.0797
B( 12-C , 13-H ) :   0.9753 B( 12-C , 14-H ) :   0.9716 B( 12-C , 15-H ) :   0.9731
B( 16-S , 17-C ) :   1.1664 B( 16-S , 20-C ) :   1.1857 B( 17-C , 18-C ) :   1.5892
B( 17-C , 20-C ) :   0.1066 B( 17-C , 33-H ) :   0.9637 B( 18-C , 19-C ) :   1.2605
B( 18-C , 21-H ) :   0.9835 B( 19-C , 20-C ) :   1.5433 B( 19-C , 22-C ) :   1.0542
B( 22-C , 23-H ) :   0.9351 B( 22-C , 24-H ) :   0.9351 B( 22-C , 25-C ) :   1.0652
B( 25-C , 26-H ) :   0.9541 B( 25-C , 27-H ) :   0.9569 B( 25-C , 28-C ) :   1.0781
B( 28-C , 29-H ) :   0.9740 B( 28-C , 30-H ) :   0.9748 B( 28-C , 31-H ) :   0.9711

Dispersion correction           -0.015096887
FINAL SINGLE POINT ENERGY     -1339.867081362480

DIPOLE MOMENT
-------------
                                X             Y             Z
Electronic contribution:    -27.32761      -3.44858      -9.98867
Nuclear contribution   :     27.75043       3.73356      10.29296
                        -----------------------------------------
Total Dipole Moment    :      0.42282       0.28498       0.30429
                        -----------------------------------------
Magnitude (a.u.)       :      0.59379
Magnitude (Debye)      :      1.50928

Rotational constants in cm-1:     0.020506     0.008776     0.007120
Rotational constants in MHz :   614.756502   263.104032   213.447236

                             ****ORCA TERMINATED NORMALLY****
TOTAL RUN TIME: 0 days 0 hours 0 minutes 22 seconds 147 msec
