                         Program Version 4.2.1 -  RELEASE  -
|  1> ! wB97X-D3 SP def2-SVP
|  2> %pal
|  3> nprocs 24
|  4> end
|  5>
|  6> * xyz 0 1
|  7> S 	 38.096 	 -2.57521 	 -121.741
|  8> C 	 37.8857 	 -4.29002 	 -122.036
|  9> C 	 38.5472 	 -5.05209 	 -121.129
| 10> C 	 39.2061 	 -4.30585 	 -120.146
| 11> C 	 39.1626 	 -2.88281 	 -120.362
| 12> H 	 39.7415 	 -4.72492 	 -119.325
| 13> C 	 38.6004 	 -6.53722 	 -121.182
| 14> H 	 37.567 	 -6.84604 	 -121.179
| 15> H 	 39.0934 	 -7.0035 	 -120.359
| 16> C 	 39.2775 	 -7.12929 	 -122.397
| 17> H 	 38.605 	 -6.78194 	 -123.259
| 18> H 	 40.2653 	 -6.67578 	 -122.594
| 19> C 	 39.4152 	 -8.66466 	 -122.388
| 20> H 	 39.7883 	 -9.09332 	 -123.249
| 21> H 	 40.0309 	 -8.97851 	 -121.56
| 22> H 	 38.4162 	 -9.10661 	 -122.228
| 23> S 	 41.2338 	 -1.19768 	 -120.759
| 24> C 	 41.6914 	 -0.114438 	 -119.469
| 25> C 	 41.0707 	 -0.515743 	 -118.245
| 26> C 	 40.1279 	 -1.61746 	 -118.4
| 27> C 	 39.9721 	 -1.93024 	 -119.732
| 28> H 	 41.3695 	 -0.105069 	 -117.246
| 29> C 	 39.3176 	 -2.23138 	 -117.277
| 30> H 	 38.735 	 -3.01813 	 -117.779
| 31> H 	 38.5474 	 -1.4014 	 -117.109
| 32> C 	 39.9462 	 -2.97583 	 -116.133
| 33> H 	 40.8194 	 -2.36762 	 -115.818
| 34> H 	 40.4301 	 -3.8634 	 -116.466
| 35> C 	 38.8672 	 -3.21614 	 -115.023
| 36> H 	 39.1397 	 -4.23544 	 -114.7
| 37> H 	 37.8147 	 -3.0794 	 -115.54
| 38> H 	 38.9622 	 -2.54285 	 -114.093
| 39> H 	 37.2382 	 -4.68052 	 -122.841
| 40> H 	 42.4764 	 0.604415 	 -119.445
| 41> *
| 42>
| 43>                          ****END OF INPUT****

CARTESIAN COORDINATES (ANGSTROEM)
---------------------------------
  S     38.096000   -2.575210  -121.741000
  C     37.885700   -4.290020  -122.036000
  C     38.547200   -5.052090  -121.129000
  C     39.206100   -4.305850  -120.146000
  C     39.162600   -2.882810  -120.362000
  H     39.741500   -4.724920  -119.325000
  C     38.600400   -6.537220  -121.182000
  H     37.567000   -6.846040  -121.179000
  H     39.093400   -7.003500  -120.359000
  C     39.277500   -7.129290  -122.397000
  H     38.605000   -6.781940  -123.259000
  H     40.265300   -6.675780  -122.594000
  C     39.415200   -8.664660  -122.388000
  H     39.788300   -9.093320  -123.249000
  H     40.030900   -8.978510  -121.560000
  H     38.416200   -9.106610  -122.228000
  S     41.233800   -1.197680  -120.759000
  C     41.691400   -0.114438  -119.469000
  C     41.070700   -0.515743  -118.245000
  C     40.127900   -1.617460  -118.400000
  C     39.972100   -1.930240  -119.732000
  H     41.369500   -0.105069  -117.246000
  C     39.317600   -2.231380  -117.277000
  H     38.735000   -3.018130  -117.779000
  H     38.547400   -1.401400  -117.109000
  C     39.946200   -2.975830  -116.133000
  H     40.819400   -2.367620  -115.818000
  H     40.430100   -3.863400  -116.466000
  C     38.867200   -3.216140  -115.023000
  H     39.139700   -4.235440  -114.700000
  H     37.814700   -3.079400  -115.540000
  H     38.962200   -2.542850  -114.093000
  H     37.238200   -4.680520  -122.841000
  H     42.476400    0.604415  -119.445000

 Total Charge           Charge          ....    0
 Multiplicity           Mult            ....    1
 Number of Electrons    NEL             ....  134
 Basis Dimension        Dim             ....  322

ORBITAL ENERGIES
----------------

  NO   OCC          E(Eh)            E(eV)
   0   2.0000     -88.968956     -2420.9684
   1   2.0000     -88.965430     -2420.8724
   2   2.0000     -10.329309      -281.0748
   3   2.0000     -10.320677      -280.8399
   4   2.0000     -10.319385      -280.8047
   5   2.0000     -10.313449      -280.6432
   6   2.0000     -10.303624      -280.3759
   7   2.0000     -10.301716      -280.3240
   8   2.0000     -10.299065      -280.2518
   9   2.0000     -10.295378      -280.1515
  10   2.0000     -10.294362      -280.1238
  11   2.0000     -10.292574      -280.0752
  12   2.0000     -10.291197      -280.0377
  13   2.0000     -10.289824      -280.0004
  14   2.0000     -10.284703      -279.8610
  15   2.0000     -10.275191      -279.6022
  16   2.0000      -8.083004      -219.9497
  17   2.0000      -8.079576      -219.8564
  18   2.0000      -6.041390      -164.3946
  19   2.0000      -6.038172      -164.3070
  20   2.0000      -6.037511      -164.2890
  21   2.0000      -6.034297      -164.2016
  22   2.0000      -6.034023      -164.1941
  23   2.0000      -6.030129      -164.0882
  24   2.0000      -1.004609       -27.3368
  25   2.0000      -0.979611       -26.6566
  26   2.0000      -0.916760       -24.9463
  27   2.0000      -0.910456       -24.7748
  28   2.0000      -0.870922       -23.6990
  29   2.0000      -0.852636       -23.2014
  30   2.0000      -0.844401       -22.9773
  31   2.0000      -0.807531       -21.9740
  32   2.0000      -0.782527       -21.2936
  33   2.0000      -0.768352       -20.9079
  34   2.0000      -0.709004       -19.2930
  35   2.0000      -0.701103       -19.0780
  36   2.0000      -0.697200       -18.9718
  37   2.0000      -0.658672       -17.9234
  38   2.0000      -0.639845       -17.4111
  39   2.0000      -0.615399       -16.7459
  40   2.0000      -0.593768       -16.1573
  41   2.0000      -0.578734       -15.7482
  42   2.0000      -0.559500       -15.2248
  43   2.0000      -0.555430       -15.1140
  44   2.0000      -0.529782       -14.4161
  45   2.0000      -0.520484       -14.1631
  46   2.0000      -0.517269       -14.0756
  47   2.0000      -0.513559       -13.9747
  48   2.0000      -0.506741       -13.7891
  49   2.0000      -0.502082       -13.6623
  50   2.0000      -0.496446       -13.5090
  51   2.0000      -0.481132       -13.0923
  52   2.0000      -0.469932       -12.7875
  53   2.0000      -0.458544       -12.4776
  54   2.0000      -0.456348       -12.4179
  55   2.0000      -0.451101       -12.2751
  56   2.0000      -0.443091       -12.0571
  57   2.0000      -0.442949       -12.0533
  58   2.0000      -0.436542       -11.8789
  59   2.0000      -0.424605       -11.5541
  60   2.0000      -0.416930       -11.3452
  61   2.0000      -0.410792       -11.1782
  62   2.0000      -0.403047       -10.9675
  63   2.0000      -0.336929        -9.1683
  64   2.0000      -0.334013        -9.0889
  65   2.0000      -0.323939        -8.8148
  66   2.0000      -0.289188        -7.8692
  67   0.0000       0.024821         0.6754
  68   0.0000       0.060076         1.6348
  69   0.0000       0.103698         2.8218
  70   0.0000       0.119623         3.2551
  71   0.0000       0.131439         3.5766

MULLIKEN ATOMIC CHARGES
-----------------------
   0 S :    0.128243
   1 C :   -0.155580
   2 C :   -0.049508
   3 C :    0.057674
   4 C :   -0.207181
   5 H :   -0.001348
   6 C :    0.097458
   7 H :    0.027010
   8 H :    0.001236
   9 C :   -0.123164
  10 H :    0.025260
  11 H :    0.037669
  12 C :   -0.001604
  13 H :    0.023636
  14 H :    0.026015
  15 H :    0.021191
  16 S :    0.116517
  17 C :   -0.073975
  18 C :   -0.064417
  19 C :   -0.031697
  20 C :   -0.161660
  21 H :    0.034780
  22 C :   -0.001476
  23 H :    0.020267
  24 H :    0.060423
  25 C :   -0.031565
  26 H :    0.023078
  27 H :    0.021313
  28 C :   -0.098316
  29 H :    0.042302
  30 H :    0.066305
  31 H :    0.060347
  32 H :    0.061699
  33 H :    0.049072
Sum of atomic charges:    0.0000000

LOEWDIN ATOMIC CHARGES
----------------------
   0 S :    0.411715
   1 C :   -0.198807
   2 C :   -0.070320
   3 C :   -0.047389
   4 C :   -0.201251
   5 H :    0.024756
   6 C :   -0.031071
   7 H :    0.032929
   8 H :    0.021970
   9 C :   -0.041968
  10 H :    0.024504
  11 H :    0.025498
  12 C :   -0.058463
  13 H :    0.017450
  14 H :    0.024008
  15 H :    0.027841
  16 S :    0.400239
  17 C :   -0.188477
  18 C :   -0.075135
  19 C :   -0.054297
  20 C :   -0.198346
  21 H :    0.034713
  22 C :   -0.051793
  23 H :    0.030273
  24 H :    0.047815
  25 C :   -0.043383
  26 H :    0.023304
  27 H :    0.019919
  28 C :   -0.076513
  29 H :    0.029714
  30 H :    0.043836
  31 H :    0.038085
  32 H :    0.034233
  33 H :    0.024412

  Mayer bond orders larger than 0.100000
B(  0-S ,  1-C ) :   1.1460 B(  0-S ,  4-C ) :   1.1662 B(  1-C ,  2-C ) :   1.5710
B(  1-C ,  4-C ) :   0.1063 B(  1-C , 32-H ) :   0.9652 B(  2-C ,  3-C ) :   1.3032
B(  2-C ,  6-C ) :   1.0214 B(  3-C ,  4-C ) :   1.4889 B(  3-C ,  5-H ) :   0.9956
B(  4-C , 20-C ) :   1.0950 B(  6-C ,  7-H ) :   0.9286 B(  6-C ,  8-H ) :   0.9437
B(  6-C ,  9-C ) :   1.0610 B(  9-C , 10-H ) :   0.9531 B(  9-C , 11-H ) :   0.9583
B(  9-C , 12-C ) :   1.0845 B( 12-C , 13-H ) :   0.9744 B( 12-C , 14-H ) :   0.9727
B( 12-C , 15-H ) :   0.9720 B( 16-S , 17-C ) :   1.1480 B( 16-S , 20-C ) :   1.1289
B( 17-C , 18-C ) :   1.6058 B( 17-C , 20-C ) :   0.1029 B( 17-C , 33-H ) :   0.9718
B( 18-C , 19-C ) :   1.2253 B( 18-C , 21-H ) :   0.9784 B( 19-C , 20-C ) :   1.5948
B( 19-C , 22-C ) :   1.0419 B( 22-C , 23-H ) :   0.9217 B( 22-C , 24-H ) :   0.9390
B( 22-C , 25-C ) :   1.0564 B( 25-C , 26-H ) :   0.9588 B( 25-C , 27-H ) :   0.9579
B( 25-C , 28-C ) :   1.0401 B( 28-C , 29-H ) :   0.9780 B( 28-C , 30-H ) :   0.9737
B( 28-C , 31-H ) :   0.9764

Dispersion correction           -0.013672677
FINAL SINGLE POINT ENERGY     -1339.851159743565

DIPOLE MOMENT
-------------
                                X             Y             Z
Electronic contribution:      2.59053      22.65598     -13.37264
Nuclear contribution   :     -2.49688     -23.25034      13.78958
                        -----------------------------------------
Total Dipole Moment    :      0.09365      -0.59436       0.41694
                        -----------------------------------------
Magnitude (a.u.)       :      0.73204
Magnitude (Debye)      :      1.86069

Rotational constants in cm-1:     0.017407     0.007993     0.006446
Rotational constants in MHz :   521.845248   239.634263   193.244988

                             ****ORCA TERMINATED NORMALLY****
TOTAL RUN TIME: 0 days 0 hours 0 minutes 19 seconds 936 msec
