                         Program Version 4.2.1 -  RELEASE  -
|  1> ! wB97X-D3 SP def2-SVP
|  2> %pal
|  3> nprocs 24
|  4> end
|  5>
|  6> * xyz 0 1
|  7> S 	 -102.008 	 22.1925 	 -110.748
|  8> C 	 -101.88 	 20.9433 	 -112.018
|  9> C 	 -103.068 	 20.8588 	 -112.687
| 10> C 	 -104.071 	 21.777 	 -112.245
| 11> C 	 -103.626 	 22.677 	 -111.293
| 12> H 	 -105.119 	 21.8203 	 -112.508
| 13> C 	 -103.356 	 19.8575 	 -113.844
| 14> H 	 -102.593 	 19.8014 	 -114.615
| 15> H 	 -104.262 	 20.2209 	 -114.28
| 16> C 	 -103.669 	 18.3691 	 -113.498
| 17> H 	 -104.066 	 17.8018 	 -114.308
| 18> H 	 -102.743 	 17.8345 	 -113.187
| 19> C 	 -104.715 	 18.2307 	 -112.353
| 20> H 	 -105.103 	 17.209 	 -112.189
| 21> H 	 -104.356 	 18.5721 	 -111.371
| 22> H 	 -105.65 	 18.7649 	 -112.638
| 23> S 	 -104.049 	 24.1835 	 -109.029
| 24> C 	 -105.002 	 25.5552 	 -109.097
| 25> C 	 -105.543 	 25.7666 	 -110.374
| 26> C 	 -105.219 	 24.7054 	 -111.266
| 27> C 	 -104.344 	 23.7842 	 -110.715
| 28> H 	 -106.141 	 26.6209 	 -110.582
| 29> C 	 -105.818 	 24.6746 	 -112.618
| 30> H 	 -105.028 	 24.2318 	 -113.31
| 31> H 	 -105.941 	 25.6899 	 -113.054
| 32> C 	 -107.083 	 23.877 	 -112.853
| 33> H 	 -107.822 	 24.4205 	 -112.248
| 34> H 	 -106.972 	 22.8364 	 -112.61
| 35> C 	 -107.488 	 23.9047 	 -114.347
| 36> H 	 -107.687 	 24.8589 	 -114.74
| 37> H 	 -108.448 	 23.3485 	 -114.315
| 38> H 	 -106.723 	 23.3698 	 -114.945
| 39> H 	 -101.021 	 20.2993 	 -112.225
| 40> H 	 -105.03 	 26.3219 	 -108.313
| 41> *
| 42>
| 43>                          ****END OF INPUT****

CARTESIAN COORDINATES (ANGSTROEM)
---------------------------------
  S    -102.008000   22.192500  -110.748000
  C    -101.880000   20.943300  -112.018000
  C    -103.068000   20.858800  -112.687000
  C    -104.071000   21.777000  -112.245000
  C    -103.626000   22.677000  -111.293000
  H    -105.119000   21.820300  -112.508000
  C    -103.356000   19.857500  -113.844000
  H    -102.593000   19.801400  -114.615000
  H    -104.262000   20.220900  -114.280000
  C    -103.669000   18.369100  -113.498000
  H    -104.066000   17.801800  -114.308000
  H    -102.743000   17.834500  -113.187000
  C    -104.715000   18.230700  -112.353000
  H    -105.103000   17.209000  -112.189000
  H    -104.356000   18.572100  -111.371000
  H    -105.650000   18.764900  -112.638000
  S    -104.049000   24.183500  -109.029000
  C    -105.002000   25.555200  -109.097000
  C    -105.543000   25.766600  -110.374000
  C    -105.219000   24.705400  -111.266000
  C    -104.344000   23.784200  -110.715000
  H    -106.141000   26.620900  -110.582000
  C    -105.818000   24.674600  -112.618000
  H    -105.028000   24.231800  -113.310000
  H    -105.941000   25.689900  -113.054000
  C    -107.083000   23.877000  -112.853000
  H    -107.822000   24.420500  -112.248000
  H    -106.972000   22.836400  -112.610000
  C    -107.488000   23.904700  -114.347000
  H    -107.687000   24.858900  -114.740000
  H    -108.448000   23.348500  -114.315000
  H    -106.723000   23.369800  -114.945000
  H    -101.021000   20.299300  -112.225000
  H    -105.030000   26.321900  -108.313000

 Total Charge           Charge          ....    0
 Multiplicity           Mult            ....    1
 Number of Electrons    NEL             ....  134
 Basis Dimension        Dim             ....  322

ORBITAL ENERGIES
----------------

  NO   OCC          E(Eh)            E(eV)
   0   2.0000     -88.967456     -2420.9276
   1   2.0000     -88.966322     -2420.8967
   2   2.0000     -10.333018      -281.1757
   3   2.0000     -10.326744      -281.0050
   4   2.0000     -10.317606      -280.7563
   5   2.0000     -10.316234      -280.7190
   6   2.0000     -10.304932      -280.4115
   7   2.0000     -10.302630      -280.3488
   8   2.0000     -10.294897      -280.1384
   9   2.0000     -10.294098      -280.1167
  10   2.0000     -10.292158      -280.0639
  11   2.0000     -10.290964      -280.0314
  12   2.0000     -10.289139      -279.9817
  13   2.0000     -10.288290      -279.9586
  14   2.0000     -10.280785      -279.7544
  15   2.0000     -10.278508      -279.6924
  16   2.0000      -8.083620      -219.9665
  17   2.0000      -8.080055      -219.8695
  18   2.0000      -6.041946      -164.4097
  19   2.0000      -6.038746      -164.3226
  20   2.0000      -6.037786      -164.2965
  21   2.0000      -6.034748      -164.2138
  22   2.0000      -6.034630      -164.2106
  23   2.0000      -6.030631      -164.1018
  24   2.0000      -1.011912       -27.5355
  25   2.0000      -0.985214       -26.8090
  26   2.0000      -0.917370       -24.9629
  27   2.0000      -0.904171       -24.6037
  28   2.0000      -0.870194       -23.6792
  29   2.0000      -0.859146       -23.3786
  30   2.0000      -0.839781       -22.8516
  31   2.0000      -0.812066       -22.0974
  32   2.0000      -0.783299       -21.3146
  33   2.0000      -0.773647       -21.0520
  34   2.0000      -0.707371       -19.2485
  35   2.0000      -0.700571       -19.0635
  36   2.0000      -0.693081       -18.8597
  37   2.0000      -0.668304       -18.1855
  38   2.0000      -0.638585       -17.3768
  39   2.0000      -0.615518       -16.7491
  40   2.0000      -0.598080       -16.2746
  41   2.0000      -0.576636       -15.6911
  42   2.0000      -0.568740       -15.4762
  43   2.0000      -0.550014       -14.9667
  44   2.0000      -0.540072       -14.6961
  45   2.0000      -0.526525       -14.3275
  46   2.0000      -0.516628       -14.0582
  47   2.0000      -0.513860       -13.9828
  48   2.0000      -0.509010       -13.8509
  49   2.0000      -0.504343       -13.7239
  50   2.0000      -0.491709       -13.3801
  51   2.0000      -0.474843       -12.9211
  52   2.0000      -0.471500       -12.8302
  53   2.0000      -0.463264       -12.6060
  54   2.0000      -0.461004       -12.5446
  55   2.0000      -0.452582       -12.3154
  56   2.0000      -0.440400       -11.9839
  57   2.0000      -0.436514       -11.8781
  58   2.0000      -0.431631       -11.7453
  59   2.0000      -0.423693       -11.5293
  60   2.0000      -0.420577       -11.4445
  61   2.0000      -0.415665       -11.3108
  62   2.0000      -0.411256       -11.1908
  63   2.0000      -0.356714        -9.7067
  64   2.0000      -0.333073        -9.0634
  65   2.0000      -0.331015        -9.0074
  66   2.0000      -0.286486        -7.7957
  67   0.0000       0.020810         0.5663
  68   0.0000       0.076604         2.0845
  69   0.0000       0.105745         2.8775
  70   0.0000       0.120054         3.2668
  71   0.0000       0.126141         3.4325

MULLIKEN ATOMIC CHARGES
-----------------------
   0 S :    0.092701
   1 C :   -0.123597
   2 C :   -0.067828
   3 C :    0.008459
   4 C :   -0.114170
   5 H :   -0.007403
   6 C :    0.087648
   7 H :    0.035045
   8 H :    0.007953
   9 C :   -0.066910
  10 H :    0.028567
  11 H :    0.029812
  12 C :   -0.091912
  13 H :    0.030379
  14 H :    0.051049
  15 H :    0.023058
  16 S :    0.121825
  17 C :   -0.090918
  18 C :   -0.035921
  19 C :    0.005309
  20 C :   -0.154703
  21 H :    0.006803
  22 C :   -0.015540
  23 H :    0.026645
  24 H :    0.023524
  25 C :   -0.060653
  26 H :    0.028823
  27 H :    0.035156
  28 C :   -0.039413
  29 H :    0.024918
  30 H :    0.039625
  31 H :    0.039903
  32 H :    0.055219
  33 H :    0.066547
Sum of atomic charges:    0.0000000

LOEWDIN ATOMIC CHARGES
----------------------
   0 S :    0.375060
   1 C :   -0.184952
   2 C :   -0.062275
   3 C :   -0.069238
   4 C :   -0.174321
   5 H :    0.028942
   6 C :   -0.025530
   7 H :    0.031580
   8 H :    0.023630
   9 C :   -0.039342
  10 H :    0.021799
  11 H :    0.022679
  12 C :   -0.076237
  13 H :    0.025863
  14 H :    0.027601
  15 H :    0.023146
  16 S :    0.440919
  17 C :   -0.209742
  18 C :   -0.069888
  19 C :   -0.053033
  20 C :   -0.200443
  21 H :    0.026609
  22 C :   -0.049363
  23 H :    0.033199
  24 H :    0.032542
  25 C :   -0.034410
  26 H :    0.026370
  27 H :    0.019041
  28 C :   -0.058245
  29 H :    0.015340
  30 H :    0.033457
  31 H :    0.028720
  32 H :    0.036342
  33 H :    0.034179

  Mayer bond orders larger than 0.100000
B(  0-S ,  1-C ) :   1.1139 B(  0-S ,  4-C ) :   1.1336 B(  1-C ,  2-C ) :   1.6323
B(  1-C , 32-H ) :   0.9711 B(  2-C ,  3-C ) :   1.2216 B(  2-C ,  6-C ) :   1.0110
B(  3-C ,  4-C ) :   1.5699 B(  3-C ,  5-H ) :   0.9936 B(  4-C , 20-C ) :   1.0923
B(  6-C ,  7-H ) :   0.9484 B(  6-C ,  8-H ) :   0.9402 B(  6-C ,  9-C ) :   1.0694
B(  9-C , 10-H ) :   0.9589 B(  9-C , 11-H ) :   0.9580 B(  9-C , 12-C ) :   1.0728
B( 12-C , 13-H ) :   0.9755 B( 12-C , 14-H ) :   0.9744 B( 12-C , 15-H ) :   0.9761
B( 16-S , 17-C ) :   1.1944 B( 16-S , 20-C ) :   1.1378 B( 17-C , 18-C ) :   1.5586
B( 17-C , 33-H ) :   0.9628 B( 18-C , 19-C ) :   1.2716 B( 18-C , 21-H ) :   1.0005
B( 19-C , 20-C ) :   1.5504 B( 19-C , 22-C ) :   1.0573 B( 22-C , 23-H ) :   0.9216
B( 22-C , 24-H ) :   0.9343 B( 22-C , 25-C ) :   1.0729 B( 25-C , 26-H ) :   0.9485
B( 25-C , 27-H ) :   0.9491 B( 25-C , 28-C ) :   1.0814 B( 28-C , 29-H ) :   0.9759
B( 28-C , 30-H ) :   0.9748 B( 28-C , 31-H ) :   0.9738

Dispersion correction           -0.014606103
FINAL SINGLE POINT ENERGY     -1339.886274758132

DIPOLE MOMENT
-------------
                                X             Y             Z
Electronic contribution:     16.40059      12.52080      21.20769
Nuclear contribution   :    -16.83629     -12.54421     -21.68373
                        -----------------------------------------
Total Dipole Moment    :     -0.43571      -0.02341      -0.47604
                        -----------------------------------------
Magnitude (a.u.)       :      0.64576
Magnitude (Debye)      :      1.64139

Rotational constants in cm-1:     0.017547     0.009614     0.006924
Rotational constants in MHz :   526.059406   288.234848   207.561536

                             ****ORCA TERMINATED NORMALLY****
TOTAL RUN TIME: 0 days 0 hours 0 minutes 20 seconds 813 msec
