                         Program Version 4.2.1 -  RELEASE  -
|  1> ! wB97X-D3 SP def2-SVP
|  2> %pal
|  3> nprocs 24
|  4> end
|  5>
|  6> * xyz 0 1
|  7> S 	 -120.3 	 12.543 	 -9.39212
|  8> C 	 -119.91 	 13.1011 	 -7.75186
|  9> C 	 -118.61 	 13.0297 	 -7.36684
| 10> C 	 -117.839 	 12.37 	 -8.4217
| 11> C 	 -118.615 	 12.0412 	 -9.56359
| 12> H 	 -116.8 	 12.1387 	 -8.39344
| 13> C 	 -118.045 	 13.6252 	 -6.04415
| 14> H 	 -117.715 	 12.8363 	 -5.34738
| 15> H 	 -118.717 	 14.2945 	 -5.53421
| 16> C 	 -116.749 	 14.4182 	 -6.30146
| 17> H 	 -115.918 	 13.7153 	 -6.41657
| 18> H 	 -116.833 	 14.927 	 -7.3027
| 19> C 	 -116.444 	 15.2831 	 -5.03453
| 20> H 	 -115.438 	 15.8007 	 -5.09491
| 21> H 	 -117.262 	 15.8863 	 -4.79813
| 22> H 	 -116.443 	 14.6253 	 -4.18638
| 23> S 	 -117.586 	 12.7948 	 -12.0354
| 24> C 	 -116.829 	 11.5155 	 -13.0062
| 25> C 	 -117.104 	 10.278 	 -12.4955
| 26> C 	 -117.729 	 10.307 	 -11.2356
| 27> C 	 -117.954 	 11.615 	 -10.8223
| 28> H 	 -116.747 	 9.36319 	 -12.9524
| 29> C 	 -118.45 	 9.08614 	 -10.6427
| 30> H 	 -119.049 	 9.33494 	 -9.71273
| 31> H 	 -117.652 	 8.35219 	 -10.3057
| 32> C 	 -119.344 	 8.32029 	 -11.6806
| 33> H 	 -119.626 	 7.42179 	 -11.181
| 34> H 	 -118.734 	 8.03146 	 -12.5402
| 35> C 	 -120.583 	 8.97101 	 -12.1107
| 36> H 	 -121.083 	 9.71411 	 -11.431
| 37> H 	 -121.323 	 8.32582 	 -12.5394
| 38> H 	 -120.298 	 9.62174 	 -12.9192
| 39> H 	 -120.707 	 13.3079 	 -7.05977
| 40> H 	 -116.306 	 11.6414 	 -13.8957
| 41> *
| 42>
| 43>                          ****END OF INPUT****

CARTESIAN COORDINATES (ANGSTROEM)
---------------------------------
  S    -120.300000   12.543000   -9.392120
  C    -119.910000   13.101100   -7.751860
  C    -118.610000   13.029700   -7.366840
  C    -117.839000   12.370000   -8.421700
  C    -118.615000   12.041200   -9.563590
  H    -116.800000   12.138700   -8.393440
  C    -118.045000   13.625200   -6.044150
  H    -117.715000   12.836300   -5.347380
  H    -118.717000   14.294500   -5.534210
  C    -116.749000   14.418200   -6.301460
  H    -115.918000   13.715300   -6.416570
  H    -116.833000   14.927000   -7.302700
  C    -116.444000   15.283100   -5.034530
  H    -115.438000   15.800700   -5.094910
  H    -117.262000   15.886300   -4.798130
  H    -116.443000   14.625300   -4.186380
  S    -117.586000   12.794800  -12.035400
  C    -116.829000   11.515500  -13.006200
  C    -117.104000   10.278000  -12.495500
  C    -117.729000   10.307000  -11.235600
  C    -117.954000   11.615000  -10.822300
  H    -116.747000    9.363190  -12.952400
  C    -118.450000    9.086140  -10.642700
  H    -119.049000    9.334940   -9.712730
  H    -117.652000    8.352190  -10.305700
  C    -119.344000    8.320290  -11.680600
  H    -119.626000    7.421790  -11.181000
  H    -118.734000    8.031460  -12.540200
  C    -120.583000    8.971010  -12.110700
  H    -121.083000    9.714110  -11.431000
  H    -121.323000    8.325820  -12.539400
  H    -120.298000    9.621740  -12.919200
  H    -120.707000   13.307900   -7.059770
  H    -116.306000   11.641400  -13.895700

 Total Charge           Charge          ....    0
 Multiplicity           Mult            ....    1
 Number of Electrons    NEL             ....  134
 Basis Dimension        Dim             ....  322

ORBITAL ENERGIES
----------------

  NO   OCC          E(Eh)            E(eV)
   0   2.0000     -88.969359     -2420.9793
   1   2.0000     -88.966257     -2420.8949
   2   2.0000     -10.331829      -281.1434
   3   2.0000     -10.322517      -280.8900
   4   2.0000     -10.312677      -280.6222
   5   2.0000     -10.312310      -280.6122
   6   2.0000     -10.306855      -280.4638
   7   2.0000     -10.299861      -280.2735
   8   2.0000     -10.299564      -280.2654
   9   2.0000     -10.298599      -280.2391
  10   2.0000     -10.296939      -280.1940
  11   2.0000     -10.291236      -280.0388
  12   2.0000     -10.289263      -279.9851
  13   2.0000     -10.280946      -279.7588
  14   2.0000     -10.280315      -279.7416
  15   2.0000     -10.265733      -279.3448
  16   2.0000      -8.083189      -219.9548
  17   2.0000      -8.080922      -219.8931
  18   2.0000      -6.041674      -164.4023
  19   2.0000      -6.039402      -164.3405
  20   2.0000      -6.037989      -164.3020
  21   2.0000      -6.035595      -164.2369
  22   2.0000      -6.033882      -164.1903
  23   2.0000      -6.031560      -164.1271
  24   2.0000      -1.002215       -27.2717
  25   2.0000      -0.979361       -26.6498
  26   2.0000      -0.909960       -24.7613
  27   2.0000      -0.905979       -24.6530
  28   2.0000      -0.866484       -23.5782
  29   2.0000      -0.850272       -23.1371
  30   2.0000      -0.843933       -22.9646
  31   2.0000      -0.810641       -22.0587
  32   2.0000      -0.780828       -21.2474
  33   2.0000      -0.771087       -20.9823
  34   2.0000      -0.706872       -19.2350
  35   2.0000      -0.693170       -18.8621
  36   2.0000      -0.689930       -18.7739
  37   2.0000      -0.655378       -17.8338
  38   2.0000      -0.642885       -17.4938
  39   2.0000      -0.613844       -16.7035
  40   2.0000      -0.596519       -16.2321
  41   2.0000      -0.571101       -15.5404
  42   2.0000      -0.562220       -15.2988
  43   2.0000      -0.549532       -14.9535
  44   2.0000      -0.540378       -14.7044
  45   2.0000      -0.518324       -14.1043
  46   2.0000      -0.517294       -14.0763
  47   2.0000      -0.511050       -13.9064
  48   2.0000      -0.498481       -13.5643
  49   2.0000      -0.493098       -13.4179
  50   2.0000      -0.484073       -13.1723
  51   2.0000      -0.482200       -13.1213
  52   2.0000      -0.470608       -12.8059
  53   2.0000      -0.459708       -12.5093
  54   2.0000      -0.452212       -12.3053
  55   2.0000      -0.450732       -12.2650
  56   2.0000      -0.444243       -12.0885
  57   2.0000      -0.439886       -11.9699
  58   2.0000      -0.437511       -11.9053
  59   2.0000      -0.425093       -11.5674
  60   2.0000      -0.419045       -11.4028
  61   2.0000      -0.418384       -11.3848
  62   2.0000      -0.405066       -11.0224
  63   2.0000      -0.338488        -9.2107
  64   2.0000      -0.330315        -8.9883
  65   2.0000      -0.319876        -8.7043
  66   2.0000      -0.304381        -8.2826
  67   0.0000       0.047207         1.2846
  68   0.0000       0.048992         1.3331
  69   0.0000       0.109164         2.9705
  70   0.0000       0.112284         3.0554
  71   0.0000       0.123548         3.3619

MULLIKEN ATOMIC CHARGES
-----------------------
   0 S :    0.110639
   1 C :   -0.136033
   2 C :   -0.054859
   3 C :    0.036582
   4 C :   -0.174332
   5 H :    0.011514
   6 C :    0.075195
   7 H :    0.041333
   8 H :    0.019238
   9 C :   -0.135437
  10 H :    0.032317
  11 H :    0.053144
  12 C :   -0.022249
  13 H :    0.056203
  14 H :    0.019707
  15 H :    0.012598
  16 S :    0.121612
  17 C :   -0.071977
  18 C :   -0.031287
  19 C :   -0.008768
  20 C :   -0.186335
  21 H :    0.020860
  22 C :    0.016573
  23 H :    0.049574
  24 H :    0.034639
  25 C :   -0.057790
  26 H :    0.019671
  27 H :    0.025328
  28 C :   -0.032717
  29 H :    0.032872
  30 H :    0.029875
  31 H :    0.016976
  32 H :    0.045885
  33 H :    0.029449
Sum of atomic charges:    0.0000000

LOEWDIN ATOMIC CHARGES
----------------------
   0 S :    0.383159
   1 C :   -0.183272
   2 C :   -0.060174
   3 C :   -0.045650
   4 C :   -0.195315
   5 H :    0.026947
   6 C :   -0.026294
   7 H :    0.035649
   8 H :    0.025020
   9 C :   -0.044840
  10 H :    0.020749
  11 H :    0.028953
  12 C :   -0.062748
  13 H :    0.037747
  14 H :    0.015863
  15 H :    0.023142
  16 S :    0.405268
  17 C :   -0.166281
  18 C :   -0.068268
  19 C :   -0.065334
  20 C :   -0.207862
  21 H :    0.031217
  22 C :   -0.030320
  23 H :    0.036679
  24 H :    0.035150
  25 C :   -0.041562
  26 H :    0.020840
  27 H :    0.024170
  28 C :   -0.074185
  29 H :    0.031159
  30 H :    0.024967
  31 H :    0.026162
  32 H :    0.022936
  33 H :    0.016329

  Mayer bond orders larger than 0.100000
B(  0-S ,  1-C ) :   1.1263 B(  0-S ,  4-C ) :   1.1375 B(  1-C ,  2-C ) :   1.6642
B(  1-C , 32-H ) :   0.9610 B(  2-C ,  3-C ) :   1.2045 B(  2-C ,  6-C ) :   1.0141
B(  3-C ,  4-C ) :   1.6054 B(  3-C ,  5-H ) :   0.9938 B(  4-C , 20-C ) :   1.0069
B(  6-C ,  7-H ) :   0.9335 B(  6-C ,  8-H ) :   0.9571 B(  6-C ,  9-C ) :   1.0471
B(  9-C , 10-H ) :   0.9515 B(  9-C , 11-H ) :   0.9660 B(  9-C , 12-C ) :   1.0746
B( 12-C , 13-H ) :   0.9735 B( 12-C , 14-H ) :   0.9773 B( 12-C , 15-H ) :   0.9670
B( 16-S , 17-C ) :   1.1414 B( 16-S , 20-C ) :   1.1530 B( 17-C , 18-C ) :   1.6209
B( 17-C , 33-H ) :   0.9760 B( 18-C , 19-C ) :   1.2473 B( 18-C , 21-H ) :   0.9818
B( 19-C , 20-C ) :   1.6042 B( 19-C , 22-C ) :   1.0388 B( 22-C , 23-H ) :   0.9410
B( 22-C , 24-H ) :   0.9298 B( 22-C , 25-C ) :   1.0810 B( 25-C , 26-H ) :   0.9532
B( 25-C , 27-H ) :   0.9499 B( 25-C , 28-C ) :   1.0751 B( 28-C , 29-H ) :   0.9719
B( 28-C , 30-H ) :   0.9717 B( 28-C , 31-H ) :   0.9693

Dispersion correction           -0.014652436
FINAL SINGLE POINT ENERGY     -1339.865720350727

DIPOLE MOMENT
-------------
                                X             Y             Z
Electronic contribution:     -3.38137       5.21545     -12.74426
Nuclear contribution   :      3.59049      -5.45950      13.05166
                        -----------------------------------------
Total Dipole Moment    :      0.20912      -0.24405       0.30740
                        -----------------------------------------
Magnitude (a.u.)       :      0.44473
Magnitude (Debye)      :      1.13041

Rotational constants in cm-1:     0.023443     0.007373     0.006582
Rotational constants in MHz :   702.801393   221.031640   197.319782

                             ****ORCA TERMINATED NORMALLY****
TOTAL RUN TIME: 0 days 0 hours 0 minutes 21 seconds 347 msec
