                         Program Version 4.2.1 -  RELEASE  -
|  1> ! wB97X-D3 SP def2-SVP
|  2> %pal
|  3> nprocs 24
|  4> end
|  5>
|  6> * xyz 0 1
|  7> S 	 -34.9909 	 -31.749 	 -93.1815
|  8> C 	 -35.0292 	 -31.3019 	 -94.8905
|  9> C 	 -33.7762 	 -31.3922 	 -95.4833
| 10> C 	 -32.7672 	 -31.6366 	 -94.4685
| 11> C 	 -33.2299 	 -31.7421 	 -93.1592
| 12> H 	 -31.6748 	 -31.7366 	 -94.6396
| 13> C 	 -33.4468 	 -31.086 	 -96.9041
| 14> H 	 -32.4244 	 -30.8616 	 -97.1209
| 15> H 	 -34.0799 	 -30.2131 	 -97.3009
| 16> C 	 -33.6678 	 -32.2234 	 -97.9315
| 17> H 	 -34.6726 	 -32.5624 	 -97.8901
| 18> H 	 -33.7195 	 -31.7559 	 -98.8738
| 19> C 	 -32.63 	 -33.376 	 -97.8919
| 20> H 	 -31.6519 	 -33.0398 	 -97.8837
| 21> H 	 -32.9212 	 -34.0592 	 -97.1128
| 22> H 	 -32.7731 	 -33.9564 	 -98.8077
| 23> S 	 -32.7196 	 -33.9108 	 -91.7171
| 24> C 	 -31.2601 	 -33.9718 	 -90.7636
| 25> C 	 -30.7337 	 -32.7607 	 -90.6037
| 26> C 	 -31.3978 	 -31.7131 	 -91.3598
| 27> C 	 -32.4616 	 -32.2415 	 -92.0794
| 28> H 	 -29.8771 	 -32.689 	 -89.944
| 29> C 	 -30.8574 	 -30.3086 	 -91.5892
| 30> H 	 -31.0682 	 -30.1452 	 -92.6405
| 31> H 	 -29.7767 	 -30.4555 	 -91.5651
| 32> C 	 -31.3683 	 -29.2463 	 -90.6862
| 33> H 	 -31.0767 	 -29.4561 	 -89.6057
| 34> H 	 -32.4315 	 -29.084 	 -90.7506
| 35> C 	 -30.7721 	 -27.8461 	 -90.9613
| 36> H 	 -30.973 	 -27.1875 	 -90.1893
| 37> H 	 -31.1367 	 -27.4991 	 -91.9595
| 38> H 	 -29.6688 	 -27.8428 	 -91.0536
| 39> H 	 -36.0224 	 -31.0138 	 -95.3222
| 40> H 	 -30.8485 	 -34.7786 	 -90.1446
| 41> *
| 42>
| 43>                          ****END OF INPUT****

CARTESIAN COORDINATES (ANGSTROEM)
---------------------------------
  S    -34.990900  -31.749000  -93.181500
  C    -35.029200  -31.301900  -94.890500
  C    -33.776200  -31.392200  -95.483300
  C    -32.767200  -31.636600  -94.468500
  C    -33.229900  -31.742100  -93.159200
  H    -31.674800  -31.736600  -94.639600
  C    -33.446800  -31.086000  -96.904100
  H    -32.424400  -30.861600  -97.120900
  H    -34.079900  -30.213100  -97.300900
  C    -33.667800  -32.223400  -97.931500
  H    -34.672600  -32.562400  -97.890100
  H    -33.719500  -31.755900  -98.873800
  C    -32.630000  -33.376000  -97.891900
  H    -31.651900  -33.039800  -97.883700
  H    -32.921200  -34.059200  -97.112800
  H    -32.773100  -33.956400  -98.807700
  S    -32.719600  -33.910800  -91.717100
  C    -31.260100  -33.971800  -90.763600
  C    -30.733700  -32.760700  -90.603700
  C    -31.397800  -31.713100  -91.359800
  C    -32.461600  -32.241500  -92.079400
  H    -29.877100  -32.689000  -89.944000
  C    -30.857400  -30.308600  -91.589200
  H    -31.068200  -30.145200  -92.640500
  H    -29.776700  -30.455500  -91.565100
  C    -31.368300  -29.246300  -90.686200
  H    -31.076700  -29.456100  -89.605700
  H    -32.431500  -29.084000  -90.750600
  C    -30.772100  -27.846100  -90.961300
  H    -30.973000  -27.187500  -90.189300
  H    -31.136700  -27.499100  -91.959500
  H    -29.668800  -27.842800  -91.053600
  H    -36.022400  -31.013800  -95.322200
  H    -30.848500  -34.778600  -90.144600

 Total Charge           Charge          ....    0
 Multiplicity           Mult            ....    1
 Number of Electrons    NEL             ....  134
 Basis Dimension        Dim             ....  322

ORBITAL ENERGIES
----------------

  NO   OCC          E(Eh)            E(eV)
   0   2.0000     -88.965320     -2420.8694
   1   2.0000     -88.959619     -2420.7143
   2   2.0000     -10.326378      -280.9950
   3   2.0000     -10.323497      -280.9166
   4   2.0000     -10.318903      -280.7916
   5   2.0000     -10.308804      -280.5168
   6   2.0000     -10.308002      -280.4950
   7   2.0000     -10.302252      -280.3385
   8   2.0000     -10.300683      -280.2958
   9   2.0000     -10.294824      -280.1364
  10   2.0000     -10.287492      -279.9369
  11   2.0000     -10.286757      -279.9169
  12   2.0000     -10.285346      -279.8785
  13   2.0000     -10.277956      -279.6774
  14   2.0000     -10.273108      -279.5455
  15   2.0000     -10.271909      -279.5129
  16   2.0000      -8.079817      -219.8630
  17   2.0000      -8.075289      -219.7398
  18   2.0000      -6.038337      -164.3115
  19   2.0000      -6.034391      -164.2041
  20   2.0000      -6.033920      -164.1913
  21   2.0000      -6.030555      -164.0997
  22   2.0000      -6.029685      -164.0761
  23   2.0000      -6.025806      -163.9705
  24   2.0000      -1.010280       -27.4911
  25   2.0000      -0.982417       -26.7329
  26   2.0000      -0.912578       -24.8325
  27   2.0000      -0.910331       -24.7714
  28   2.0000      -0.876251       -23.8440
  29   2.0000      -0.848677       -23.0937
  30   2.0000      -0.844208       -22.9721
  31   2.0000      -0.815835       -22.2000
  32   2.0000      -0.785489       -21.3742
  33   2.0000      -0.771246       -20.9867
  34   2.0000      -0.708135       -19.2693
  35   2.0000      -0.705151       -19.1881
  36   2.0000      -0.691606       -18.8196
  37   2.0000      -0.657026       -17.8786
  38   2.0000      -0.642390       -17.4803
  39   2.0000      -0.611792       -16.6477
  40   2.0000      -0.590068       -16.0566
  41   2.0000      -0.578610       -15.7448
  42   2.0000      -0.564093       -15.3497
  43   2.0000      -0.544825       -14.8254
  44   2.0000      -0.538439       -14.6517
  45   2.0000      -0.532714       -14.4959
  46   2.0000      -0.518439       -14.1074
  47   2.0000      -0.511581       -13.9208
  48   2.0000      -0.506940       -13.7945
  49   2.0000      -0.501906       -13.6576
  50   2.0000      -0.490907       -13.3583
  51   2.0000      -0.479890       -13.0585
  52   2.0000      -0.468962       -12.7611
  53   2.0000      -0.465687       -12.6720
  54   2.0000      -0.455005       -12.3813
  55   2.0000      -0.448552       -12.2057
  56   2.0000      -0.440544       -11.9878
  57   2.0000      -0.435552       -11.8520
  58   2.0000      -0.429181       -11.6786
  59   2.0000      -0.426443       -11.6041
  60   2.0000      -0.419282       -11.4092
  61   2.0000      -0.414771       -11.2865
  62   2.0000      -0.409634       -11.1467
  63   2.0000      -0.345139        -9.3917
  64   2.0000      -0.326324        -8.8797
  65   2.0000      -0.324575        -8.8321
  66   2.0000      -0.299360        -8.1460
  67   0.0000       0.037785         1.0282
  68   0.0000       0.058558         1.5935
  69   0.0000       0.115823         3.1517
  70   0.0000       0.116975         3.1831
  71   0.0000       0.131485         3.5779

MULLIKEN ATOMIC CHARGES
-----------------------
   0 S :    0.097366
   1 C :   -0.153353
   2 C :   -0.023407
   3 C :    0.028996
   4 C :   -0.172959
   5 H :    0.031504
   6 C :    0.029781
   7 H :    0.013362
   8 H :    0.042622
   9 C :   -0.062081
  10 H :    0.004415
  11 H :    0.005953
  12 C :   -0.012783
  13 H :    0.019969
  14 H :    0.044787
  15 H :    0.027566
  16 S :    0.111519
  17 C :   -0.083297
  18 C :   -0.051586
  19 C :   -0.039897
  20 C :   -0.166768
  21 H :    0.014790
  22 C :    0.094147
  23 H :    0.012372
  24 H :    0.018129
  25 C :   -0.068000
  26 H :    0.032456
  27 H :    0.037862
  28 C :   -0.037202
  29 H :    0.024755
  30 H :    0.031998
  31 H :    0.019320
  32 H :    0.072677
  33 H :    0.054988
Sum of atomic charges:   -0.0000000

LOEWDIN ATOMIC CHARGES
----------------------
   0 S :    0.391934
   1 C :   -0.187470
   2 C :   -0.066499
   3 C :   -0.053903
   4 C :   -0.206372
   5 H :    0.036490
   6 C :   -0.035828
   7 H :    0.025044
   8 H :    0.043619
   9 C :   -0.036618
  10 H :    0.015981
  11 H :    0.016095
  12 C :   -0.056213
  13 H :    0.013658
  14 H :    0.030861
  15 H :    0.031717
  16 S :    0.410225
  17 C :   -0.192473
  18 C :   -0.076885
  19 C :   -0.050213
  20 C :   -0.207898
  21 H :    0.031518
  22 C :   -0.034542
  23 H :    0.030506
  24 H :    0.031970
  25 C :   -0.040374
  26 H :    0.030671
  27 H :    0.027725
  28 C :   -0.062550
  29 H :    0.015139
  30 H :    0.027495
  31 H :    0.022971
  32 H :    0.036438
  33 H :    0.037783

  Mayer bond orders larger than 0.100000
B(  0-S ,  1-C ) :   1.1472 B(  0-S ,  4-C ) :   1.1350 B(  1-C ,  2-C ) :   1.5865
B(  1-C ,  4-C ) :   0.1003 B(  1-C , 32-H ) :   0.9656 B(  2-C ,  3-C ) :   1.2358
B(  2-C ,  6-C ) :   1.0314 B(  3-C ,  4-C ) :   1.5810 B(  3-C ,  5-H ) :   0.9825
B(  4-C , 20-C ) :   1.0392 B(  6-C ,  7-H ) :   0.9472 B(  6-C ,  8-H ) :   0.9432
B(  6-C ,  9-C ) :   1.0739 B(  9-C , 10-H ) :   0.9520 B(  9-C , 11-H ) :   0.9549
B(  9-C , 12-C ) :   1.0726 B( 12-C , 13-H ) :   0.9772 B( 12-C , 14-H ) :   0.9770
B( 12-C , 15-H ) :   0.9719 B( 16-S , 17-C ) :   1.1284 B( 16-S , 20-C ) :   1.1409
B( 17-C , 18-C ) :   1.6802 B( 17-C , 33-H ) :   0.9576 B( 18-C , 19-C ) :   1.2051
B( 18-C , 21-H ) :   0.9885 B( 19-C , 20-C ) :   1.6192 B( 19-C , 22-C ) :   1.0268
B( 22-C , 23-H ) :   0.9265 B( 22-C , 24-H ) :   0.9334 B( 22-C , 25-C ) :   1.0780
B( 25-C , 26-H ) :   0.9534 B( 25-C , 27-H ) :   0.9544 B( 25-C , 28-C ) :   1.0844
B( 28-C , 29-H ) :   0.9760 B( 28-C , 30-H ) :   0.9750 B( 28-C , 31-H ) :   0.9738

Dispersion correction           -0.013839212
FINAL SINGLE POINT ENERGY     -1339.865842873701

DIPOLE MOMENT
-------------
                                X             Y             Z
Electronic contribution:    -11.36479     -13.01248      12.90101
Nuclear contribution   :     11.76559      13.22461     -13.30661
                        -----------------------------------------
Total Dipole Moment    :      0.40080       0.21214      -0.40560
                        -----------------------------------------
Magnitude (a.u.)       :      0.60840
Magnitude (Debye)      :      1.54644

Rotational constants in cm-1:     0.017743     0.008334     0.007205
Rotational constants in MHz :   531.911852   249.841250   215.985806

                             ****ORCA TERMINATED NORMALLY****
TOTAL RUN TIME: 0 days 0 hours 0 minutes 21 seconds 308 msec
