                         Program Version 4.2.1 -  RELEASE  -
|  1> ! wB97X-D3 SP def2-SVP
|  2> %pal
|  3> nprocs 24
|  4> end
|  5>
|  6> * xyz 0 1
|  7> S 	 -99.7475 	 17.7995 	 -121.128
|  8> C 	 -100.916 	 18.9983 	 -121.289
|  9> C 	 -101.777 	 18.7295 	 -122.312
| 10> C 	 -101.502 	 17.5618 	 -123.002
| 11> C 	 -100.448 	 16.8795 	 -122.432
| 12> H 	 -102.038 	 17.2637 	 -123.825
| 13> C 	 -102.943 	 19.6314 	 -122.68
| 14> H 	 -103.119 	 19.5224 	 -123.737
| 15> H 	 -102.628 	 20.6603 	 -122.499
| 16> C 	 -104.181 	 19.3041 	 -121.952
| 17> H 	 -104.478 	 18.3292 	 -122.39
| 18> H 	 -103.924 	 19.2773 	 -120.892
| 19> C 	 -105.265 	 20.4065 	 -122.058
| 20> H 	 -104.892 	 21.3552 	 -121.839
| 21> H 	 -105.617 	 20.4593 	 -123.099
| 22> H 	 -106.145 	 20.1734 	 -121.538
| 23> S 	 -98.2687 	 15.3147 	 -122.901
| 24> C 	 -98.4968 	 13.8257 	 -123.831
| 25> C 	 -99.8318 	 13.593 	 -124.047
| 26> C 	 -100.674 	 14.5003 	 -123.359
| 27> C 	 -99.961 	 15.5455 	 -122.758
| 28> H 	 -100.114 	 12.8453 	 -124.659
| 29> C 	 -102.173 	 14.281 	 -123.575
| 30> H 	 -102.411 	 13.6257 	 -124.468
| 31> H 	 -102.589 	 15.2418 	 -123.776
| 32> C 	 -102.86 	 13.7067 	 -122.37
| 33> H 	 -102.609 	 14.4201 	 -121.634
| 34> H 	 -102.48 	 12.7411 	 -122.002
| 35> C 	 -104.398 	 13.7456 	 -122.547
| 36> H 	 -104.802 	 12.8144 	 -122.991
| 37> H 	 -104.671 	 14.6327 	 -123.159
| 38> H 	 -104.798 	 13.8484 	 -121.557
| 39> H 	 -101.061 	 19.8176 	 -120.528
| 40> H 	 -97.6557 	 13.3497 	 -124.32
| 41> *
| 42>
| 43>                          ****END OF INPUT****

CARTESIAN COORDINATES (ANGSTROEM)
---------------------------------
  S    -99.747500   17.799500  -121.128000
  C    -100.916000   18.998300  -121.289000
  C    -101.777000   18.729500  -122.312000
  C    -101.502000   17.561800  -123.002000
  C    -100.448000   16.879500  -122.432000
  H    -102.038000   17.263700  -123.825000
  C    -102.943000   19.631400  -122.680000
  H    -103.119000   19.522400  -123.737000
  H    -102.628000   20.660300  -122.499000
  C    -104.181000   19.304100  -121.952000
  H    -104.478000   18.329200  -122.390000
  H    -103.924000   19.277300  -120.892000
  C    -105.265000   20.406500  -122.058000
  H    -104.892000   21.355200  -121.839000
  H    -105.617000   20.459300  -123.099000
  H    -106.145000   20.173400  -121.538000
  S    -98.268700   15.314700  -122.901000
  C    -98.496800   13.825700  -123.831000
  C    -99.831800   13.593000  -124.047000
  C    -100.674000   14.500300  -123.359000
  C    -99.961000   15.545500  -122.758000
  H    -100.114000   12.845300  -124.659000
  C    -102.173000   14.281000  -123.575000
  H    -102.411000   13.625700  -124.468000
  H    -102.589000   15.241800  -123.776000
  C    -102.860000   13.706700  -122.370000
  H    -102.609000   14.420100  -121.634000
  H    -102.480000   12.741100  -122.002000
  C    -104.398000   13.745600  -122.547000
  H    -104.802000   12.814400  -122.991000
  H    -104.671000   14.632700  -123.159000
  H    -104.798000   13.848400  -121.557000
  H    -101.061000   19.817600  -120.528000
  H    -97.655700   13.349700  -124.320000

 Total Charge           Charge          ....    0
 Multiplicity           Mult            ....    1
 Number of Electrons    NEL             ....  134
 Basis Dimension        Dim             ....  322

ORBITAL ENERGIES
----------------

  NO   OCC          E(Eh)            E(eV)
   0   2.0000     -88.965921     -2420.8858
   1   2.0000     -88.964502     -2420.8472
   2   2.0000     -10.328054      -281.0406
   3   2.0000     -10.325563      -280.9729
   4   2.0000     -10.316191      -280.7178
   5   2.0000     -10.308692      -280.5138
   6   2.0000     -10.301204      -280.3100
   7   2.0000     -10.290377      -280.0154
   8   2.0000     -10.290101      -280.0079
   9   2.0000     -10.284738      -279.8620
  10   2.0000     -10.284620      -279.8588
  11   2.0000     -10.284614      -279.8586
  12   2.0000     -10.282747      -279.8078
  13   2.0000     -10.279047      -279.7071
  14   2.0000     -10.277339      -279.6606
  15   2.0000     -10.271405      -279.4991
  16   2.0000      -8.082218      -219.9283
  17   2.0000      -8.079893      -219.8651
  18   2.0000      -6.040477      -164.3697
  19   2.0000      -6.038290      -164.3102
  20   2.0000      -6.036414      -164.2592
  21   2.0000      -6.034315      -164.2020
  22   2.0000      -6.033262      -164.1734
  23   2.0000      -6.030724      -164.1044
  24   2.0000      -1.017248       -27.6807
  25   2.0000      -0.992545       -27.0085
  26   2.0000      -0.921326       -25.0705
  27   2.0000      -0.913504       -24.8577
  28   2.0000      -0.873447       -23.7677
  29   2.0000      -0.859741       -23.3947
  30   2.0000      -0.848580       -23.0910
  31   2.0000      -0.816410       -22.2156
  32   2.0000      -0.784546       -21.3486
  33   2.0000      -0.770509       -20.9666
  34   2.0000      -0.706131       -19.2148
  35   2.0000      -0.698023       -18.9942
  36   2.0000      -0.690832       -18.7985
  37   2.0000      -0.673394       -18.3240
  38   2.0000      -0.645694       -17.5702
  39   2.0000      -0.628007       -17.0889
  40   2.0000      -0.599844       -16.3226
  41   2.0000      -0.582093       -15.8396
  42   2.0000      -0.570744       -15.5307
  43   2.0000      -0.561667       -15.2837
  44   2.0000      -0.528718       -14.3871
  45   2.0000      -0.525771       -14.3070
  46   2.0000      -0.518912       -14.1203
  47   2.0000      -0.512638       -13.9496
  48   2.0000      -0.510274       -13.8853
  49   2.0000      -0.498265       -13.5585
  50   2.0000      -0.492899       -13.4125
  51   2.0000      -0.488535       -13.2937
  52   2.0000      -0.477720       -12.9994
  53   2.0000      -0.474332       -12.9072
  54   2.0000      -0.457851       -12.4588
  55   2.0000      -0.449160       -12.2223
  56   2.0000      -0.445578       -12.1248
  57   2.0000      -0.441963       -12.0264
  58   2.0000      -0.433991       -11.8095
  59   2.0000      -0.428298       -11.6546
  60   2.0000      -0.418780       -11.3956
  61   2.0000      -0.412951       -11.2370
  62   2.0000      -0.407692       -11.0939
  63   2.0000      -0.356317        -9.6959
  64   2.0000      -0.339063        -9.2264
  65   2.0000      -0.329162        -8.9570
  66   2.0000      -0.283240        -7.7074
  67   0.0000       0.024955         0.6791
  68   0.0000       0.076707         2.0873
  69   0.0000       0.104560         2.8452
  70   0.0000       0.119843         3.2611
  71   0.0000       0.133322         3.6279

MULLIKEN ATOMIC CHARGES
-----------------------
   0 S :    0.120817
   1 C :   -0.136125
   2 C :   -0.100962
   3 C :    0.041706
   4 C :   -0.139427
   5 H :   -0.017405
   6 C :    0.070513
   7 H :    0.012180
   8 H :    0.014145
   9 C :   -0.074590
  10 H :    0.026247
  11 H :    0.027216
  12 C :    0.013065
  13 H :    0.016025
  14 H :    0.012781
  15 H :    0.025391
  16 S :    0.094967
  17 C :   -0.094767
  18 C :    0.007172
  19 C :   -0.065106
  20 C :   -0.096559
  21 H :   -0.023528
  22 C :    0.077928
  23 H :    0.029452
  24 H :   -0.014865
  25 C :   -0.069537
  26 H :    0.019520
  27 H :    0.032165
  28 C :   -0.040168
  29 H :    0.041168
  30 H :    0.030805
  31 H :    0.032585
  32 H :    0.065570
  33 H :    0.061622
Sum of atomic charges:   -0.0000000

LOEWDIN ATOMIC CHARGES
----------------------
   0 S :    0.438043
   1 C :   -0.228148
   2 C :   -0.065523
   3 C :   -0.057486
   4 C :   -0.187728
   5 H :    0.017806
   6 C :   -0.030411
   7 H :    0.024518
   8 H :    0.025535
   9 C :   -0.038768
  10 H :    0.027267
  11 H :    0.023835
  12 C :   -0.054938
  13 H :    0.016543
  14 H :    0.026004
  15 H :    0.020401
  16 S :    0.412319
  17 C :   -0.175288
  18 C :   -0.052504
  19 C :   -0.052852
  20 C :   -0.214930
  21 H :    0.013641
  22 C :   -0.028765
  23 H :    0.032303
  24 H :    0.017431
  25 C :   -0.039941
  26 H :    0.020823
  27 H :    0.026168
  28 C :   -0.063548
  29 H :    0.027280
  30 H :    0.027292
  31 H :    0.025225
  32 H :    0.039893
  33 H :    0.028505

  Mayer bond orders larger than 0.100000
B(  0-S ,  1-C ) :   1.1556 B(  0-S ,  4-C ) :   1.1821 B(  1-C ,  2-C ) :   1.5941
B(  1-C , 32-H ) :   0.9587 B(  2-C ,  3-C ) :   1.2949 B(  2-C ,  6-C ) :   1.0169
B(  3-C ,  4-C ) :   1.5215 B(  3-C ,  5-H ) :   1.0086 B(  4-C , 20-C ) :   1.0231
B(  6-C ,  7-H ) :   0.9369 B(  6-C ,  8-H ) :   0.9397 B(  6-C ,  9-C ) :   1.0696
B(  9-C , 10-H ) :   0.9529 B(  9-C , 11-H ) :   0.9566 B(  9-C , 12-C ) :   1.0854
B( 12-C , 13-H ) :   0.9738 B( 12-C , 14-H ) :   0.9699 B( 12-C , 15-H ) :   0.9746
B( 16-S , 17-C ) :   1.1546 B( 16-S , 20-C ) :   1.1552 B( 17-C , 18-C ) :   1.5854
B( 17-C , 33-H ) :   0.9692 B( 18-C , 19-C ) :   1.2622 B( 18-C , 21-H ) :   1.0152
B( 19-C , 20-C ) :   1.5649 B( 19-C , 22-C ) :   1.0316 B( 22-C , 23-H ) :   0.9411
B( 22-C , 24-H ) :   0.9242 B( 22-C , 25-C ) :   1.0713 B( 25-C , 26-H ) :   0.9561
B( 25-C , 27-H ) :   0.9543 B( 25-C , 28-C ) :   1.0765 B( 28-C , 29-H ) :   0.9764
B( 28-C , 30-H ) :   0.9726 B( 28-C , 31-H ) :   0.9762

Dispersion correction           -0.014042104
FINAL SINGLE POINT ENERGY     -1339.867767350977

DIPOLE MOMENT
-------------
                                X             Y             Z
Electronic contribution:     31.96611      -2.91906       2.63016
Nuclear contribution   :    -32.57934       2.92559      -2.93351
                        -----------------------------------------
Total Dipole Moment    :     -0.61323       0.00653      -0.30334
                        -----------------------------------------
Magnitude (a.u.)       :      0.68419
Magnitude (Debye)      :      1.73907

Rotational constants in cm-1:     0.018470     0.009140     0.006646
Rotational constants in MHz :   553.705072   274.007557   199.228311

                             ****ORCA TERMINATED NORMALLY****
TOTAL RUN TIME: 0 days 0 hours 0 minutes 22 seconds 79 msec
