                         Program Version 4.2.1 -  RELEASE  -
|  1> ! wB97X-D3 SP def2-SVP
|  2> %pal
|  3> nprocs 24
|  4> end
|  5>
|  6> * xyz 0 1
|  7> S 	 -53.1595 	 -51.3912 	 -75.2572
|  8> C 	 -51.888 	 -51.9595 	 -74.2753
|  9> C 	 -51.9963 	 -53.3075 	 -73.8998
| 10> C 	 -53.0766 	 -53.8785 	 -74.6145
| 11> C 	 -53.8431 	 -52.9835 	 -75.3725
| 12> H 	 -53.2405 	 -54.9285 	 -74.5291
| 13> C 	 -50.8937 	 -54.0723 	 -73.1133
| 14> H 	 -50.1035 	 -54.2624 	 -73.8098
| 15> H 	 -51.2599 	 -55.1117 	 -72.8864
| 16> C 	 -50.5086 	 -53.3526 	 -71.7996
| 17> H 	 -50.1825 	 -52.3522 	 -72.1149
| 18> H 	 -51.401 	 -53.2064 	 -71.1585
| 19> C 	 -49.3816 	 -53.9719 	 -71.0079
| 20> H 	 -49.6818 	 -54.8183 	 -70.4628
| 21> H 	 -48.5404 	 -54.4323 	 -71.5973
| 22> H 	 -48.8829 	 -53.2867 	 -70.3388
| 23> S 	 -56.4965 	 -53.5178 	 -75.3771
| 24> C 	 -57.4957 	 -53.6388 	 -76.8323
| 25> C 	 -56.6659 	 -53.2183 	 -77.8325
| 26> C 	 -55.2767 	 -52.8608 	 -77.5369
| 27> C 	 -55.02 	 -53.2175 	 -76.2296
| 28> H 	 -57.0964 	 -53.0397 	 -78.7842
| 29> C 	 -54.3847 	 -52.2418 	 -78.5655
| 30> H 	 -53.8542 	 -51.4161 	 -78.1371
| 31> H 	 -55.0729 	 -51.8307 	 -79.3238
| 32> C 	 -53.3365 	 -53.0807 	 -79.2743
| 33> H 	 -52.9104 	 -52.4573 	 -80.0516
| 34> H 	 -53.9339 	 -53.8055 	 -79.8647
| 35> C 	 -52.2044 	 -53.6576 	 -78.3467
| 36> H 	 -52.6583 	 -54.2621 	 -77.587
| 37> H 	 -51.6496 	 -52.8092 	 -77.9338
| 38> H 	 -51.5086 	 -54.3014 	 -78.9068
| 39> H 	 -51.0459 	 -51.4325 	 -73.965
| 40> H 	 -58.5446 	 -53.8255 	 -76.9906
| 41> *
| 42>
| 43>                          ****END OF INPUT****

CARTESIAN COORDINATES (ANGSTROEM)
---------------------------------
  S    -53.159500  -51.391200  -75.257200
  C    -51.888000  -51.959500  -74.275300
  C    -51.996300  -53.307500  -73.899800
  C    -53.076600  -53.878500  -74.614500
  C    -53.843100  -52.983500  -75.372500
  H    -53.240500  -54.928500  -74.529100
  C    -50.893700  -54.072300  -73.113300
  H    -50.103500  -54.262400  -73.809800
  H    -51.259900  -55.111700  -72.886400
  C    -50.508600  -53.352600  -71.799600
  H    -50.182500  -52.352200  -72.114900
  H    -51.401000  -53.206400  -71.158500
  C    -49.381600  -53.971900  -71.007900
  H    -49.681800  -54.818300  -70.462800
  H    -48.540400  -54.432300  -71.597300
  H    -48.882900  -53.286700  -70.338800
  S    -56.496500  -53.517800  -75.377100
  C    -57.495700  -53.638800  -76.832300
  C    -56.665900  -53.218300  -77.832500
  C    -55.276700  -52.860800  -77.536900
  C    -55.020000  -53.217500  -76.229600
  H    -57.096400  -53.039700  -78.784200
  C    -54.384700  -52.241800  -78.565500
  H    -53.854200  -51.416100  -78.137100
  H    -55.072900  -51.830700  -79.323800
  C    -53.336500  -53.080700  -79.274300
  H    -52.910400  -52.457300  -80.051600
  H    -53.933900  -53.805500  -79.864700
  C    -52.204400  -53.657600  -78.346700
  H    -52.658300  -54.262100  -77.587000
  H    -51.649600  -52.809200  -77.933800
  H    -51.508600  -54.301400  -78.906800
  H    -51.045900  -51.432500  -73.965000
  H    -58.544600  -53.825500  -76.990600

 Total Charge           Charge          ....    0
 Multiplicity           Mult            ....    1
 Number of Electrons    NEL             ....  134
 Basis Dimension        Dim             ....  322

ORBITAL ENERGIES
----------------

  NO   OCC          E(Eh)            E(eV)
   0   2.0000     -88.972070     -2421.0531
   1   2.0000     -88.959671     -2420.7157
   2   2.0000     -10.329311      -281.0748
   3   2.0000     -10.325751      -280.9780
   4   2.0000     -10.315780      -280.7066
   5   2.0000     -10.307294      -280.4757
   6   2.0000     -10.303374      -280.3691
   7   2.0000     -10.300923      -280.3024
   8   2.0000     -10.300735      -280.2972
   9   2.0000     -10.294346      -280.1234
  10   2.0000     -10.293254      -280.0937
  11   2.0000     -10.289141      -279.9818
  12   2.0000     -10.287161      -279.9279
  13   2.0000     -10.284570      -279.8574
  14   2.0000     -10.276451      -279.6365
  15   2.0000     -10.274422      -279.5812
  16   2.0000      -8.086956      -220.0573
  17   2.0000      -8.074426      -219.7163
  18   2.0000      -6.045244      -164.4994
  19   2.0000      -6.041327      -164.3929
  20   2.0000      -6.038070      -164.3042
  21   2.0000      -6.033188      -164.1714
  22   2.0000      -6.028852      -164.0534
  23   2.0000      -6.024939      -163.9469
  24   2.0000      -1.008951       -27.4550
  25   2.0000      -0.986612       -26.8471
  26   2.0000      -0.910403       -24.7733
  27   2.0000      -0.907082       -24.6830
  28   2.0000      -0.868662       -23.6375
  29   2.0000      -0.854004       -23.2386
  30   2.0000      -0.838673       -22.8215
  31   2.0000      -0.815272       -22.1847
  32   2.0000      -0.784523       -21.3480
  33   2.0000      -0.774490       -21.0750
  34   2.0000      -0.709954       -19.3188
  35   2.0000      -0.702612       -19.1190
  36   2.0000      -0.690986       -18.8027
  37   2.0000      -0.661395       -17.9975
  38   2.0000      -0.641104       -17.4453
  39   2.0000      -0.618254       -16.8236
  40   2.0000      -0.592409       -16.1203
  41   2.0000      -0.574847       -15.6424
  42   2.0000      -0.561368       -15.2756
  43   2.0000      -0.546973       -14.8839
  44   2.0000      -0.543683       -14.7944
  45   2.0000      -0.523703       -14.2507
  46   2.0000      -0.522860       -14.2277
  47   2.0000      -0.507788       -13.8176
  48   2.0000      -0.502001       -13.6601
  49   2.0000      -0.499888       -13.6027
  50   2.0000      -0.493296       -13.4233
  51   2.0000      -0.476607       -12.9691
  52   2.0000      -0.472705       -12.8630
  53   2.0000      -0.469289       -12.7700
  54   2.0000      -0.459440       -12.5020
  55   2.0000      -0.452172       -12.3042
  56   2.0000      -0.437094       -11.8939
  57   2.0000      -0.433879       -11.8064
  58   2.0000      -0.431330       -11.7371
  59   2.0000      -0.428963       -11.6727
  60   2.0000      -0.418731       -11.3942
  61   2.0000      -0.414816       -11.2877
  62   2.0000      -0.407383       -11.0855
  63   2.0000      -0.338484        -9.2106
  64   2.0000      -0.334927        -9.1138
  65   2.0000      -0.320313        -8.7162
  66   2.0000      -0.301145        -8.1946
  67   0.0000       0.031511         0.8575
  68   0.0000       0.068868         1.8740
  69   0.0000       0.110749         3.0136
  70   0.0000       0.122353         3.3294
  71   0.0000       0.125076         3.4035

MULLIKEN ATOMIC CHARGES
-----------------------
   0 S :    0.148021
   1 C :   -0.108662
   2 C :   -0.101188
   3 C :    0.051479
   4 C :   -0.179894
   5 H :   -0.002051
   6 C :    0.056234
   7 H :    0.041944
   8 H :    0.023458
   9 C :   -0.088910
  10 H :    0.023753
  11 H :    0.048004
  12 C :   -0.026263
  13 H :    0.019138
  14 H :    0.022635
  15 H :    0.033910
  16 S :    0.100508
  17 C :   -0.073038
  18 C :   -0.042001
  19 C :   -0.039867
  20 C :   -0.147667
  21 H :   -0.001862
  22 C :    0.072129
  23 H :    0.014102
  24 H :    0.020536
  25 C :   -0.060637
  26 H :    0.022763
  27 H :    0.018663
  28 C :   -0.035762
  29 H :    0.042594
  30 H :    0.034193
  31 H :    0.035128
  32 H :    0.022238
  33 H :    0.056370
Sum of atomic charges:    0.0000000

LOEWDIN ATOMIC CHARGES
----------------------
   0 S :    0.452344
   1 C :   -0.204197
   2 C :   -0.062926
   3 C :   -0.053218
   4 C :   -0.211693
   5 H :    0.026661
   6 C :   -0.027980
   7 H :    0.030697
   8 H :    0.030983
   9 C :   -0.041923
  10 H :    0.021923
  11 H :    0.035112
  12 C :   -0.070786
  13 H :    0.018448
  14 H :    0.031273
  15 H :    0.027536
  16 S :    0.408568
  17 C :   -0.186346
  18 C :   -0.068122
  19 C :   -0.059022
  20 C :   -0.206743
  21 H :    0.018237
  22 C :   -0.037922
  23 H :    0.020283
  24 H :    0.036962
  25 C :   -0.037609
  26 H :    0.021617
  27 H :    0.022041
  28 C :   -0.061501
  29 H :    0.023898
  30 H :    0.027009
  31 H :    0.027600
  32 H :    0.011597
  33 H :    0.037200

  Mayer bond orders larger than 0.100000
B(  0-S ,  1-C ) :   1.1813 B(  0-S ,  4-C ) :   1.1629 B(  1-C ,  2-C ) :   1.5598
B(  1-C ,  4-C ) :   0.1025 B(  1-C , 32-H ) :   0.9696 B(  2-C ,  3-C ) :   1.3067
B(  2-C ,  6-C ) :   1.0103 B(  3-C ,  4-C ) :   1.5313 B(  3-C ,  5-H ) :   0.9992
B(  4-C , 20-C ) :   1.0149 B(  6-C ,  7-H ) :   0.9435 B(  6-C ,  8-H ) :   0.9446
B(  6-C ,  9-C ) :   1.0519 B(  9-C , 10-H ) :   0.9582 B(  9-C , 11-H ) :   0.9580
B(  9-C , 12-C ) :   1.0842 B( 12-C , 13-H ) :   0.9723 B( 12-C , 14-H ) :   0.9710
B( 12-C , 15-H ) :   0.9740 B( 16-S , 17-C ) :   1.1253 B( 16-S , 20-C ) :   1.1678
B( 17-C , 18-C ) :   1.6298 B( 17-C , 33-H ) :   0.9716 B( 18-C , 19-C ) :   1.2342
B( 18-C , 21-H ) :   0.9830 B( 19-C , 20-C ) :   1.5663 B( 19-C , 22-C ) :   1.0480
B( 22-C , 23-H ) :   0.9254 B( 22-C , 24-H ) :   0.9242 B( 22-C , 25-C ) :   1.0855
B( 25-C , 26-H ) :   0.9525 B( 25-C , 27-H ) :   0.9539 B( 25-C , 28-C ) :   1.0689
B( 28-C , 29-H ) :   0.9739 B( 28-C , 30-H ) :   0.9733 B( 28-C , 31-H ) :   0.9740

Dispersion correction           -0.015170878
FINAL SINGLE POINT ENERGY     -1339.875734007340

DIPOLE MOMENT
-------------
                                X             Y             Z
Electronic contribution:    -21.58338       6.15753      -1.21619
Nuclear contribution   :     22.01086      -6.20102       1.05981
                        -----------------------------------------
Total Dipole Moment    :      0.42749      -0.04349      -0.15638
                        -----------------------------------------
Magnitude (a.u.)       :      0.45727
Magnitude (Debye)      :      1.16228

Rotational constants in cm-1:     0.024473     0.007527     0.006528
Rotational constants in MHz :   733.676955   225.667906   195.716181

                             ****ORCA TERMINATED NORMALLY****
TOTAL RUN TIME: 0 days 0 hours 0 minutes 20 seconds 662 msec
