                         Program Version 4.2.1 -  RELEASE  -
|  1> ! wB97X-D3 SP def2-SVP
|  2> %pal
|  3> nprocs 24
|  4> end
|  5>
|  6> * xyz 0 1
|  7> S 	 -121.59 	 23.3108 	 -16.0414
|  8> C 	 -120.142 	 22.7437 	 -16.7737
|  9> C 	 -119.434 	 21.8228 	 -16.0532
| 10> C 	 -120.203 	 21.5178 	 -14.8669
| 11> C 	 -121.363 	 22.2909 	 -14.6974
| 12> H 	 -119.985 	 20.7152 	 -14.1283
| 13> C 	 -118.082 	 21.1514 	 -16.3022
| 14> H 	 -117.92 	 20.7015 	 -15.3325
| 15> H 	 -117.284 	 21.8036 	 -16.5195
| 16> C 	 -118.098 	 19.9258 	 -17.2041
| 17> H 	 -117.044 	 19.5885 	 -17.2586
| 18> H 	 -118.848 	 19.2301 	 -16.8394
| 19> C 	 -118.55 	 20.4263 	 -18.6137
| 20> H 	 -119.612 	 20.6819 	 -18.5881
| 21> H 	 -118.084 	 21.2927 	 -18.9514
| 22> H 	 -118.361 	 19.6478 	 -19.3254
| 23> S 	 -123.887 	 21.1845 	 -14.3456
| 24> C 	 -124.38 	 20.843 	 -12.6668
| 25> C 	 -123.458 	 21.3499 	 -11.718
| 26> C 	 -122.307 	 21.8846 	 -12.3639
| 27> C 	 -122.408 	 21.9472 	 -13.7501
| 28> H 	 -123.549 	 21.2478 	 -10.6617
| 29> C 	 -121.061 	 22.4454 	 -11.6832
| 30> H 	 -120.853 	 23.4428 	 -12.1774
| 31> H 	 -120.169 	 21.816 	 -11.8766
| 32> C 	 -121.062 	 22.9134 	 -10.2617
| 33> H 	 -120.193 	 23.609 	 -10.2385
| 34> H 	 -120.8 	 22.0654 	 -9.61001
| 35> C 	 -122.226 	 23.8142 	 -9.93669
| 36> H 	 -123.179 	 23.2852 	 -10.0543
| 37> H 	 -122.322 	 24.5876 	 -10.7143
| 38> H 	 -122.083 	 24.2832 	 -8.96915
| 39> H 	 -119.83 	 23.1297 	 -17.7377
| 40> H 	 -125.32 	 20.3484 	 -12.4083
| 41> *
| 42>
| 43>                          ****END OF INPUT****

CARTESIAN COORDINATES (ANGSTROEM)
---------------------------------
  S    -121.590000   23.310800  -16.041400
  C    -120.142000   22.743700  -16.773700
  C    -119.434000   21.822800  -16.053200
  C    -120.203000   21.517800  -14.866900
  C    -121.363000   22.290900  -14.697400
  H    -119.985000   20.715200  -14.128300
  C    -118.082000   21.151400  -16.302200
  H    -117.920000   20.701500  -15.332500
  H    -117.284000   21.803600  -16.519500
  C    -118.098000   19.925800  -17.204100
  H    -117.044000   19.588500  -17.258600
  H    -118.848000   19.230100  -16.839400
  C    -118.550000   20.426300  -18.613700
  H    -119.612000   20.681900  -18.588100
  H    -118.084000   21.292700  -18.951400
  H    -118.361000   19.647800  -19.325400
  S    -123.887000   21.184500  -14.345600
  C    -124.380000   20.843000  -12.666800
  C    -123.458000   21.349900  -11.718000
  C    -122.307000   21.884600  -12.363900
  C    -122.408000   21.947200  -13.750100
  H    -123.549000   21.247800  -10.661700
  C    -121.061000   22.445400  -11.683200
  H    -120.853000   23.442800  -12.177400
  H    -120.169000   21.816000  -11.876600
  C    -121.062000   22.913400  -10.261700
  H    -120.193000   23.609000  -10.238500
  H    -120.800000   22.065400   -9.610010
  C    -122.226000   23.814200   -9.936690
  H    -123.179000   23.285200  -10.054300
  H    -122.322000   24.587600  -10.714300
  H    -122.083000   24.283200   -8.969150
  H    -119.830000   23.129700  -17.737700
  H    -125.320000   20.348400  -12.408300

 Total Charge           Charge          ....    0
 Multiplicity           Mult            ....    1
 Number of Electrons    NEL             ....  134
 Basis Dimension        Dim             ....  322

ORBITAL ENERGIES
----------------

  NO   OCC          E(Eh)            E(eV)
   0   2.0000     -88.967809     -2420.9372
   1   2.0000     -88.967720     -2420.9347
   2   2.0000     -10.325014      -280.9579
   3   2.0000     -10.322253      -280.8828
   4   2.0000     -10.322015      -280.8763
   5   2.0000     -10.311952      -280.6025
   6   2.0000     -10.302773      -280.3527
   7   2.0000     -10.301180      -280.3094
   8   2.0000     -10.298207      -280.2284
   9   2.0000     -10.297375      -280.2058
  10   2.0000     -10.289839      -280.0007
  11   2.0000     -10.289359      -279.9877
  12   2.0000     -10.287754      -279.9440
  13   2.0000     -10.283768      -279.8356
  14   2.0000     -10.275959      -279.6230
  15   2.0000     -10.267325      -279.3881
  16   2.0000      -8.083842      -219.9725
  17   2.0000      -8.081543      -219.9100
  18   2.0000      -6.042180      -164.4161
  19   2.0000      -6.040035      -164.3577
  20   2.0000      -6.038051      -164.3037
  21   2.0000      -6.036204      -164.2535
  22   2.0000      -6.034815      -164.2157
  23   2.0000      -6.032366      -164.1490
  24   2.0000      -1.009456       -27.4687
  25   2.0000      -0.980943       -26.6928
  26   2.0000      -0.917573       -24.9684
  27   2.0000      -0.913775       -24.8651
  28   2.0000      -0.867102       -23.5950
  29   2.0000      -0.850181       -23.1346
  30   2.0000      -0.844050       -22.9678
  31   2.0000      -0.805746       -21.9255
  32   2.0000      -0.789001       -21.4698
  33   2.0000      -0.775566       -21.1042
  34   2.0000      -0.702970       -19.1288
  35   2.0000      -0.696181       -18.9440
  36   2.0000      -0.688717       -18.7409
  37   2.0000      -0.659017       -17.9328
  38   2.0000      -0.644089       -17.5266
  39   2.0000      -0.618179       -16.8215
  40   2.0000      -0.591962       -16.1081
  41   2.0000      -0.573349       -15.6016
  42   2.0000      -0.562264       -15.3000
  43   2.0000      -0.546584       -14.8733
  44   2.0000      -0.543122       -14.7791
  45   2.0000      -0.539626       -14.6840
  46   2.0000      -0.520572       -14.1655
  47   2.0000      -0.512643       -13.9497
  48   2.0000      -0.498127       -13.5547
  49   2.0000      -0.494313       -13.4509
  50   2.0000      -0.486065       -13.2265
  51   2.0000      -0.477687       -12.9985
  52   2.0000      -0.472888       -12.8679
  53   2.0000      -0.465605       -12.6698
  54   2.0000      -0.459786       -12.5114
  55   2.0000      -0.450271       -12.2525
  56   2.0000      -0.443985       -12.0815
  57   2.0000      -0.441202       -12.0057
  58   2.0000      -0.437029       -11.8922
  59   2.0000      -0.428368       -11.6565
  60   2.0000      -0.420406       -11.4398
  61   2.0000      -0.407302       -11.0832
  62   2.0000      -0.400512       -10.8985
  63   2.0000      -0.341297        -9.2872
  64   2.0000      -0.331226        -9.0131
  65   2.0000      -0.327865        -8.9217
  66   2.0000      -0.293233        -7.9793
  67   0.0000       0.033322         0.9067
  68   0.0000       0.062517         1.7012
  69   0.0000       0.114841         3.1250
  70   0.0000       0.118707         3.2302
  71   0.0000       0.131997         3.5918

MULLIKEN ATOMIC CHARGES
-----------------------
   0 S :    0.128237
   1 C :   -0.138133
   2 C :   -0.086795
   3 C :    0.004243
   4 C :   -0.177724
   5 H :    0.032539
   6 C :    0.094002
   7 H :    0.008967
   8 H :    0.030551
   9 C :   -0.062860
  10 H :    0.043093
  11 H :    0.037685
  12 C :   -0.047612
  13 H :    0.041034
  14 H :    0.007710
  15 H :    0.029005
  16 S :    0.112673
  17 C :   -0.109329
  18 C :   -0.015412
  19 C :   -0.053400
  20 C :   -0.145619
  21 H :    0.023143
  22 C :    0.007491
  23 H :    0.042100
  24 H :    0.039469
  25 C :   -0.071328
  26 H :    0.029094
  27 H :    0.032233
  28 C :   -0.034498
  29 H :    0.023589
  30 H :    0.025453
  31 H :    0.043095
  32 H :    0.043123
  33 H :    0.064181
Sum of atomic charges:   -0.0000000

LOEWDIN ATOMIC CHARGES
----------------------
   0 S :    0.441572
   1 C :   -0.200681
   2 C :   -0.065112
   3 C :   -0.055319
   4 C :   -0.226173
   5 H :    0.034377
   6 C :   -0.026493
   7 H :    0.030314
   8 H :    0.024960
   9 C :   -0.029106
  10 H :    0.030370
  11 H :    0.028170
  12 C :   -0.064284
  13 H :    0.028338
  14 H :    0.011022
  15 H :    0.021309
  16 S :    0.392501
  17 C :   -0.176859
  18 C :   -0.068586
  19 C :   -0.059834
  20 C :   -0.200302
  21 H :    0.028436
  22 C :   -0.044946
  23 H :    0.041876
  24 H :    0.033361
  25 C :   -0.053489
  26 H :    0.033549
  27 H :    0.020870
  28 C :   -0.064575
  29 H :    0.023660
  30 H :    0.030648
  31 H :    0.027781
  32 H :    0.022873
  33 H :    0.029772

  Mayer bond orders larger than 0.100000
B(  0-S ,  1-C ) :   1.1642 B(  0-S ,  4-C ) :   1.1590 B(  1-C ,  2-C ) :   1.5937
B(  1-C , 32-H ) :   0.9662 B(  2-C ,  3-C ) :   1.2703 B(  2-C ,  6-C ) :   1.0005
B(  3-C ,  4-C ) :   1.5639 B(  3-C ,  5-H ) :   0.9744 B(  4-C , 20-C ) :   1.0337
B(  6-C ,  7-H ) :   0.9334 B(  6-C ,  8-H ) :   0.9463 B(  6-C ,  9-C ) :   1.0827
B(  9-C , 10-H ) :   0.9548 B(  9-C , 11-H ) :   0.9531 B(  9-C , 12-C ) :   1.0807
B( 12-C , 13-H ) :   0.9708 B( 12-C , 14-H ) :   0.9761 B( 12-C , 15-H ) :   0.9745
B( 16-S , 17-C ) :   1.1645 B( 16-S , 20-C ) :   1.1352 B( 17-C , 18-C ) :   1.5794
B( 17-C , 20-C ) :   0.1047 B( 17-C , 33-H ) :   0.9654 B( 18-C , 19-C ) :   1.2628
B( 18-C , 21-H ) :   0.9821 B( 19-C , 20-C ) :   1.6032 B( 19-C , 22-C ) :   1.0287
B( 22-C , 23-H ) :   0.9419 B( 22-C , 24-H ) :   0.9302 B( 22-C , 25-C ) :   1.0796
B( 25-C , 26-H ) :   0.9550 B( 25-C , 27-H ) :   0.9465 B( 25-C , 28-C ) :   1.0814
B( 28-C , 29-H ) :   0.9707 B( 28-C , 30-H ) :   0.9658 B( 28-C , 31-H ) :   0.9728

Dispersion correction           -0.014589385
FINAL SINGLE POINT ENERGY     -1339.868045788429

DIPOLE MOMENT
-------------
                                X             Y             Z
Electronic contribution:    -17.01305       2.45350      -6.27569
Nuclear contribution   :     17.53866      -2.65908       6.46174
                        -----------------------------------------
Total Dipole Moment    :      0.52561      -0.20558       0.18605
                        -----------------------------------------
Magnitude (a.u.)       :      0.59426
Magnitude (Debye)      :      1.51048

Rotational constants in cm-1:     0.022802     0.007604     0.006795
Rotational constants in MHz :   683.579577   227.973521   203.708191

                             ****ORCA TERMINATED NORMALLY****
TOTAL RUN TIME: 0 days 0 hours 0 minutes 22 seconds 70 msec
