                         Program Version 4.2.1 -  RELEASE  -
|  1> ! wB97X-D3 SP def2-SVP
|  2> %pal
|  3> nprocs 24
|  4> end
|  5>
|  6> * xyz 0 1
|  7> S 	 -135.742 	 64.2414 	 -59.14
|  8> C 	 -135.053 	 65.0374 	 -60.4879
|  9> C 	 -134.427 	 66.2135 	 -60.0559
| 10> C 	 -134.057 	 66.2196 	 -58.6607
| 11> C 	 -134.663 	 65.1427 	 -58.0182
| 12> H 	 -133.488 	 67.0223 	 -58.1909
| 13> C 	 -133.976 	 67.3518 	 -60.9697
| 14> H 	 -133.618 	 68.1183 	 -60.3171
| 15> H 	 -134.839 	 67.8663 	 -61.5549
| 16> C 	 -132.933 	 66.895 	 -62.1216
| 17> H 	 -133.447 	 66.0401 	 -62.5531
| 18> H 	 -132.752 	 67.6302 	 -62.8659
| 19> C 	 -131.554 	 66.534 	 -61.4797
| 20> H 	 -131.011 	 67.3438 	 -60.9762
| 21> H 	 -131.651 	 65.6909 	 -60.7765
| 22> H 	 -131.058 	 66.2155 	 -62.3914
| 23> S 	 -135.891 	 64.9487 	 -55.5911
| 24> C 	 -134.985 	 64.5742 	 -54.2129
| 25> C 	 -133.705 	 64.3943 	 -54.4575
| 26> C 	 -133.378 	 64.4893 	 -55.8423
| 27> C 	 -134.492 	 64.7109 	 -56.6166
| 28> H 	 -132.964 	 64.2624 	 -53.6964
| 29> C 	 -131.989 	 64.3188 	 -56.4311
| 30> H 	 -132.082 	 64.0207 	 -57.4602
| 31> H 	 -131.492 	 63.4001 	 -56.0645
| 32> C 	 -131.108 	 65.5803 	 -56.3329
| 33> H 	 -130.954 	 65.8337 	 -55.2648
| 34> H 	 -131.576 	 66.4114 	 -56.8331
| 35> C 	 -129.703 	 65.4337 	 -56.9693
| 36> H 	 -129.208 	 64.5109 	 -56.5883
| 37> H 	 -129.06 	 66.259 	 -56.8716
| 38> H 	 -129.635 	 65.3741 	 -58.0057
| 39> H 	 -135.216 	 64.7185 	 -61.5213
| 40> H 	 -135.446 	 64.4026 	 -53.1844
| 41> *
| 42>
| 43>                          ****END OF INPUT****

CARTESIAN COORDINATES (ANGSTROEM)
---------------------------------
  S    -135.742000   64.241400  -59.140000
  C    -135.053000   65.037400  -60.487900
  C    -134.427000   66.213500  -60.055900
  C    -134.057000   66.219600  -58.660700
  C    -134.663000   65.142700  -58.018200
  H    -133.488000   67.022300  -58.190900
  C    -133.976000   67.351800  -60.969700
  H    -133.618000   68.118300  -60.317100
  H    -134.839000   67.866300  -61.554900
  C    -132.933000   66.895000  -62.121600
  H    -133.447000   66.040100  -62.553100
  H    -132.752000   67.630200  -62.865900
  C    -131.554000   66.534000  -61.479700
  H    -131.011000   67.343800  -60.976200
  H    -131.651000   65.690900  -60.776500
  H    -131.058000   66.215500  -62.391400
  S    -135.891000   64.948700  -55.591100
  C    -134.985000   64.574200  -54.212900
  C    -133.705000   64.394300  -54.457500
  C    -133.378000   64.489300  -55.842300
  C    -134.492000   64.710900  -56.616600
  H    -132.964000   64.262400  -53.696400
  C    -131.989000   64.318800  -56.431100
  H    -132.082000   64.020700  -57.460200
  H    -131.492000   63.400100  -56.064500
  C    -131.108000   65.580300  -56.332900
  H    -130.954000   65.833700  -55.264800
  H    -131.576000   66.411400  -56.833100
  C    -129.703000   65.433700  -56.969300
  H    -129.208000   64.510900  -56.588300
  H    -129.060000   66.259000  -56.871600
  H    -129.635000   65.374100  -58.005700
  H    -135.216000   64.718500  -61.521300
  H    -135.446000   64.402600  -53.184400

 Total Charge           Charge          ....    0
 Multiplicity           Mult            ....    1
 Number of Electrons    NEL             ....  134
 Basis Dimension        Dim             ....  322

ORBITAL ENERGIES
----------------

  NO   OCC          E(Eh)            E(eV)
   0   2.0000     -88.966399     -2420.8988
   1   2.0000     -88.958716     -2420.6897
   2   2.0000     -10.335091      -281.2321
   3   2.0000     -10.321975      -280.8752
   4   2.0000     -10.316820      -280.7350
   5   2.0000     -10.309886      -280.5463
   6   2.0000     -10.304905      -280.4107
   7   2.0000     -10.302695      -280.3506
   8   2.0000     -10.299939      -280.2756
   9   2.0000     -10.297164      -280.2001
  10   2.0000     -10.292737      -280.0796
  11   2.0000     -10.290005      -280.0053
  12   2.0000     -10.289525      -279.9922
  13   2.0000     -10.282888      -279.8116
  14   2.0000     -10.279494      -279.7193
  15   2.0000     -10.270493      -279.4743
  16   2.0000      -8.081269      -219.9025
  17   2.0000      -8.075227      -219.7381
  18   2.0000      -6.039757      -164.3501
  19   2.0000      -6.035887      -164.2448
  20   2.0000      -6.033654      -164.1841
  21   2.0000      -6.031902      -164.1364
  22   2.0000      -6.029564      -164.0728
  23   2.0000      -6.025877      -163.9725
  24   2.0000      -1.011704       -27.5299
  25   2.0000      -0.988755       -26.9054
  26   2.0000      -0.906239       -24.6600
  27   2.0000      -0.899073       -24.4650
  28   2.0000      -0.869315       -23.6553
  29   2.0000      -0.851536       -23.1715
  30   2.0000      -0.847323       -23.0568
  31   2.0000      -0.814767       -22.1710
  32   2.0000      -0.782544       -21.2941
  33   2.0000      -0.765729       -20.8365
  34   2.0000      -0.707556       -19.2536
  35   2.0000      -0.704182       -19.1618
  36   2.0000      -0.692496       -18.8438
  37   2.0000      -0.659212       -17.9381
  38   2.0000      -0.641909       -17.4672
  39   2.0000      -0.613726       -16.7003
  40   2.0000      -0.598487       -16.2857
  41   2.0000      -0.572195       -15.5702
  42   2.0000      -0.560923       -15.2635
  43   2.0000      -0.542827       -14.7711
  44   2.0000      -0.533069       -14.5056
  45   2.0000      -0.522528       -14.2187
  46   2.0000      -0.519952       -14.1486
  47   2.0000      -0.516618       -14.0579
  48   2.0000      -0.503732       -13.7072
  49   2.0000      -0.498680       -13.5698
  50   2.0000      -0.491250       -13.3676
  51   2.0000      -0.480920       -13.0865
  52   2.0000      -0.470037       -12.7904
  53   2.0000      -0.468419       -12.7463
  54   2.0000      -0.457051       -12.4370
  55   2.0000      -0.448820       -12.2130
  56   2.0000      -0.445747       -12.1294
  57   2.0000      -0.436149       -11.8682
  58   2.0000      -0.434508       -11.8236
  59   2.0000      -0.425835       -11.5876
  60   2.0000      -0.423069       -11.5123
  61   2.0000      -0.412950       -11.2369
  62   2.0000      -0.404099       -10.9961
  63   2.0000      -0.345177        -9.3927
  64   2.0000      -0.329680        -8.9711
  65   2.0000      -0.327896        -8.9225
  66   2.0000      -0.292938        -7.9712
  67   0.0000       0.031672         0.8618
  68   0.0000       0.061603         1.6763
  69   0.0000       0.106526         2.8987
  70   0.0000       0.124168         3.3788
  71   0.0000       0.129306         3.5186

MULLIKEN ATOMIC CHARGES
-----------------------
   0 S :    0.118791
   1 C :   -0.134461
   2 C :   -0.100301
   3 C :    0.040453
   4 C :   -0.157394
   5 H :    0.034256
   6 C :    0.027550
   7 H :    0.006967
   8 H :    0.048522
   9 C :   -0.067149
  10 H :    0.027824
  11 H :    0.030207
  12 C :   -0.070248
  13 H :    0.041032
  14 H :    0.046820
  15 H :    0.034701
  16 S :    0.099861
  17 C :   -0.090678
  18 C :   -0.018351
  19 C :   -0.045099
  20 C :   -0.150413
  21 H :    0.004947
  22 C :    0.062267
  23 H :    0.017598
  24 H :    0.024153
  25 C :   -0.053176
  26 H :    0.033603
  27 H :    0.016545
  28 C :   -0.023389
  29 H :    0.027808
  30 H :    0.016173
  31 H :    0.008821
  32 H :    0.065418
  33 H :    0.076341
Sum of atomic charges:    0.0000000

LOEWDIN ATOMIC CHARGES
----------------------
   0 S :    0.405371
   1 C :   -0.207933
   2 C :   -0.065678
   3 C :   -0.054820
   4 C :   -0.181639
   5 H :    0.037201
   6 C :   -0.040825
   7 H :    0.016932
   8 H :    0.038823
   9 C :   -0.027773
  10 H :    0.022318
  11 H :    0.017758
  12 C :   -0.069100
  13 H :    0.025777
  14 H :    0.026990
  15 H :    0.027393
  16 S :    0.418590
  17 C :   -0.204875
  18 C :   -0.078175
  19 C :   -0.053413
  20 C :   -0.200748
  21 H :    0.029741
  22 C :   -0.034840
  23 H :    0.029787
  24 H :    0.033025
  25 C :   -0.032428
  26 H :    0.027089
  27 H :    0.019538
  28 C :   -0.068093
  29 H :    0.028672
  30 H :    0.021843
  31 H :    0.016773
  32 H :    0.031118
  33 H :    0.045603

  Mayer bond orders larger than 0.100000
B(  0-S ,  1-C ) :   1.1547 B(  0-S ,  4-C ) :   1.1513 B(  1-C ,  2-C ) :   1.5771
B(  1-C ,  4-C ) :   0.1040 B(  1-C , 32-H ) :   0.9709 B(  2-C ,  3-C ) :   1.2334
B(  2-C ,  6-C ) :   1.0301 B(  3-C ,  4-C ) :   1.5712 B(  3-C ,  5-H ) :   0.9887
B(  4-C , 20-C ) :   0.9935 B(  6-C ,  7-H ) :   0.9479 B(  6-C ,  8-H ) :   0.9441
B(  6-C ,  9-C ) :   1.0499 B(  9-C , 10-H ) :   0.9604 B(  9-C , 11-H ) :   0.9627
B(  9-C , 12-C ) :   1.0630 B( 12-C , 13-H ) :   0.9780 B( 12-C , 14-H ) :   0.9774
B( 12-C , 15-H ) :   0.9765 B( 16-S , 17-C ) :   1.1579 B( 16-S , 20-C ) :   1.1471
B( 17-C , 18-C ) :   1.6237 B( 17-C , 33-H ) :   0.9516 B( 18-C , 19-C ) :   1.2325
B( 18-C , 21-H ) :   1.0006 B( 19-C , 20-C ) :   1.6347 B( 19-C , 22-C ) :   1.0441
B( 22-C , 23-H ) :   0.9333 B( 22-C , 24-H ) :   0.9371 B( 22-C , 25-C ) :   1.0562
B( 25-C , 26-H ) :   0.9589 B( 25-C , 27-H ) :   0.9524 B( 25-C , 28-C ) :   1.0822
B( 28-C , 29-H ) :   0.9740 B( 28-C , 30-H ) :   0.9706 B( 28-C , 31-H ) :   0.9716

Dispersion correction           -0.015081264
FINAL SINGLE POINT ENERGY     -1339.859874213437

DIPOLE MOMENT
-------------
                                X             Y             Z
Electronic contribution:    -27.58809      -9.07676      11.70622
Nuclear contribution   :     28.17110       9.36408     -11.91693
                        -----------------------------------------
Total Dipole Moment    :      0.58301       0.28732      -0.21071
                        -----------------------------------------
Magnitude (a.u.)       :      0.68327
Magnitude (Debye)      :      1.73673

Rotational constants in cm-1:     0.017877     0.009929     0.006983
Rotational constants in MHz :   535.953725   297.657717   209.334097

                             ****ORCA TERMINATED NORMALLY****
TOTAL RUN TIME: 0 days 0 hours 0 minutes 22 seconds 303 msec
