                         Program Version 4.2.1 -  RELEASE  -
|  1> ! wB97X-D3 SP def2-SVP
|  2> %pal
|  3> nprocs 24
|  4> end
|  5>
|  6> * xyz 0 1
|  7> S 	 -130.458 	 29.5896 	 -18.3889
|  8> C 	 -131.237 	 28.2893 	 -17.4067
|  9> C 	 -131.989 	 27.4988 	 -18.1978
| 10> C 	 -132.069 	 28.0147 	 -19.5245
| 11> C 	 -131.404 	 29.2548 	 -19.7634
| 12> H 	 -132.653 	 27.5451 	 -20.375
| 13> C 	 -132.57 	 26.2059 	 -17.7618
| 14> H 	 -133.667 	 26.1703 	 -18.0172
| 15> H 	 -132.601 	 26.029 	 -16.7052
| 16> C 	 -131.862 	 24.9988 	 -18.392
| 17> H 	 -132.257 	 24.1473 	 -17.8381
| 18> H 	 -132.23 	 24.8127 	 -19.387
| 19> C 	 -130.37 	 24.9925 	 -18.1548
| 20> H 	 -130.169 	 25.2198 	 -17.1198
| 21> H 	 -130.068 	 23.9439 	 -18.3355
| 22> H 	 -129.726 	 25.7483 	 -18.674
| 23> S 	 -131.996 	 31.6685 	 -20.9017
| 24> C 	 -131.7 	 31.869 	 -22.6079
| 25> C 	 -131.267 	 30.6889 	 -23.1664
| 26> C 	 -131.083 	 29.6212 	 -22.2921
| 27> C 	 -131.535 	 29.9821 	 -21.015
| 28> H 	 -130.92 	 30.7327 	 -24.1873
| 29> C 	 -130.566 	 28.2655 	 -22.766
| 30> H 	 -130.665 	 27.5659 	 -21.9333
| 31> H 	 -129.451 	 28.2881 	 -22.9253
| 32> C 	 -131.311 	 27.6024 	 -23.9959
| 33> H 	 -130.825 	 26.5494 	 -24.0366
| 34> H 	 -131.017 	 28.2001 	 -24.8518
| 35> C 	 -132.772 	 27.5379 	 -23.8205
| 36> H 	 -133.25 	 27.3318 	 -24.7843
| 37> H 	 -133.07 	 28.5751 	 -23.6386
| 38> H 	 -133.084 	 26.9751 	 -22.9841
| 39> H 	 -130.826 	 27.9755 	 -16.4708
| 40> H 	 -131.535 	 32.8288 	 -23.1318
| 41> *
| 42>
| 43>                          ****END OF INPUT****

CARTESIAN COORDINATES (ANGSTROEM)
---------------------------------
  S    -130.458000   29.589600  -18.388900
  C    -131.237000   28.289300  -17.406700
  C    -131.989000   27.498800  -18.197800
  C    -132.069000   28.014700  -19.524500
  C    -131.404000   29.254800  -19.763400
  H    -132.653000   27.545100  -20.375000
  C    -132.570000   26.205900  -17.761800
  H    -133.667000   26.170300  -18.017200
  H    -132.601000   26.029000  -16.705200
  C    -131.862000   24.998800  -18.392000
  H    -132.257000   24.147300  -17.838100
  H    -132.230000   24.812700  -19.387000
  C    -130.370000   24.992500  -18.154800
  H    -130.169000   25.219800  -17.119800
  H    -130.068000   23.943900  -18.335500
  H    -129.726000   25.748300  -18.674000
  S    -131.996000   31.668500  -20.901700
  C    -131.700000   31.869000  -22.607900
  C    -131.267000   30.688900  -23.166400
  C    -131.083000   29.621200  -22.292100
  C    -131.535000   29.982100  -21.015000
  H    -130.920000   30.732700  -24.187300
  C    -130.566000   28.265500  -22.766000
  H    -130.665000   27.565900  -21.933300
  H    -129.451000   28.288100  -22.925300
  C    -131.311000   27.602400  -23.995900
  H    -130.825000   26.549400  -24.036600
  H    -131.017000   28.200100  -24.851800
  C    -132.772000   27.537900  -23.820500
  H    -133.250000   27.331800  -24.784300
  H    -133.070000   28.575100  -23.638600
  H    -133.084000   26.975100  -22.984100
  H    -130.826000   27.975500  -16.470800
  H    -131.535000   32.828800  -23.131800

 Total Charge           Charge          ....    0
 Multiplicity           Mult            ....    1
 Number of Electrons    NEL             ....  134
 Basis Dimension        Dim             ....  322

ORBITAL ENERGIES
----------------

  NO   OCC          E(Eh)            E(eV)
   0   2.0000     -88.968935     -2420.9678
   1   2.0000     -88.965273     -2420.8681
   2   2.0000     -10.329793      -281.0880
   3   2.0000     -10.328923      -281.0643
   4   2.0000     -10.317010      -280.7401
   5   2.0000     -10.311104      -280.5794
   6   2.0000     -10.304285      -280.3938
   7   2.0000     -10.298005      -280.2230
   8   2.0000     -10.297608      -280.2122
   9   2.0000     -10.295724      -280.1609
  10   2.0000     -10.293148      -280.0908
  11   2.0000     -10.291249      -280.0391
  12   2.0000     -10.288524      -279.9650
  13   2.0000     -10.285330      -279.8781
  14   2.0000     -10.280048      -279.7343
  15   2.0000     -10.270577      -279.4766
  16   2.0000      -8.083660      -219.9676
  17   2.0000      -8.079866      -219.8643
  18   2.0000      -6.042038      -164.4122
  19   2.0000      -6.038398      -164.3132
  20   2.0000      -6.038181      -164.3072
  21   2.0000      -6.034534      -164.2080
  22   2.0000      -6.034364      -164.2034
  23   2.0000      -6.030610      -164.1012
  24   2.0000      -1.008785       -27.4504
  25   2.0000      -0.987483       -26.8708
  26   2.0000      -0.920011       -25.0348
  27   2.0000      -0.910503       -24.7760
  28   2.0000      -0.871537       -23.7157
  29   2.0000      -0.854627       -23.2556
  30   2.0000      -0.842664       -22.9301
  31   2.0000      -0.808386       -21.9973
  32   2.0000      -0.786987       -21.4150
  33   2.0000      -0.778072       -21.1724
  34   2.0000      -0.710487       -19.3333
  35   2.0000      -0.697292       -18.9743
  36   2.0000      -0.691157       -18.8073
  37   2.0000      -0.654826       -17.8187
  38   2.0000      -0.636511       -17.3204
  39   2.0000      -0.618168       -16.8212
  40   2.0000      -0.598051       -16.2738
  41   2.0000      -0.571612       -15.5543
  42   2.0000      -0.555664       -15.1204
  43   2.0000      -0.552339       -15.0299
  44   2.0000      -0.543331       -14.7848
  45   2.0000      -0.542325       -14.7574
  46   2.0000      -0.522630       -14.2215
  47   2.0000      -0.509504       -13.8643
  48   2.0000      -0.499381       -13.5888
  49   2.0000      -0.496050       -13.4982
  50   2.0000      -0.492964       -13.4142
  51   2.0000      -0.481832       -13.1113
  52   2.0000      -0.470874       -12.8131
  53   2.0000      -0.466890       -12.7047
  54   2.0000      -0.461176       -12.5492
  55   2.0000      -0.447238       -12.1700
  56   2.0000      -0.442319       -12.0361
  57   2.0000      -0.436762       -11.8849
  58   2.0000      -0.431273       -11.7355
  59   2.0000      -0.420756       -11.4494
  60   2.0000      -0.419013       -11.4019
  61   2.0000      -0.414013       -11.2659
  62   2.0000      -0.409402       -11.1404
  63   2.0000      -0.339602        -9.2410
  64   2.0000      -0.338242        -9.2040
  65   2.0000      -0.326122        -8.8742
  66   2.0000      -0.294923        -8.0252
  67   0.0000       0.026539         0.7222
  68   0.0000       0.066475         1.8089
  69   0.0000       0.114549         3.1170
  70   0.0000       0.119876         3.2620
  71   0.0000       0.126208         3.4343

MULLIKEN ATOMIC CHARGES
-----------------------
   0 S :    0.105891
   1 C :   -0.130673
   2 C :   -0.048108
   3 C :   -0.009193
   4 C :   -0.142085
   5 H :    0.025061
   6 C :    0.049327
   7 H :    0.036085
   8 H :    0.013094
   9 C :   -0.064455
  10 H :    0.020689
  11 H :    0.025878
  12 C :   -0.044458
  13 H :    0.012199
  14 H :    0.039514
  15 H :    0.054515
  16 S :    0.122736
  17 C :   -0.102342
  18 C :   -0.042642
  19 C :   -0.033804
  20 C :   -0.194960
  21 H :    0.015542
  22 C :    0.052270
  23 H :    0.013267
  24 H :    0.048200
  25 C :   -0.103266
  26 H :    0.043670
  27 H :    0.031477
  28 C :   -0.006244
  29 H :    0.037088
  30 H :    0.029269
  31 H :    0.030814
  32 H :    0.044283
  33 H :    0.071359
Sum of atomic charges:   -0.0000000

LOEWDIN ATOMIC CHARGES
----------------------
   0 S :    0.403344
   1 C :   -0.179785
   2 C :   -0.066828
   3 C :   -0.071314
   4 C :   -0.214318
   5 H :    0.033572
   6 C :   -0.034953
   7 H :    0.038725
   8 H :    0.025474
   9 C :   -0.040255
  10 H :    0.027564
  11 H :    0.019251
  12 C :   -0.068902
  13 H :    0.021403
  14 H :    0.032177
  15 H :    0.033114
  16 S :    0.419835
  17 C :   -0.197314
  18 C :   -0.075963
  19 C :   -0.056565
  20 C :   -0.199096
  21 H :    0.029816
  22 C :   -0.038819
  23 H :    0.025520
  24 H :    0.040198
  25 C :   -0.040203
  26 H :    0.033675
  27 H :    0.019856
  28 C :   -0.066346
  29 H :    0.032777
  30 H :    0.031910
  31 H :    0.019939
  32 H :    0.022967
  33 H :    0.039546

  Mayer bond orders larger than 0.100000
B(  0-S ,  1-C ) :   1.1223 B(  0-S ,  4-C ) :   1.1728 B(  1-C ,  2-C ) :   1.5999
B(  1-C , 32-H ) :   0.9674 B(  2-C ,  3-C ) :   1.2509 B(  2-C ,  6-C ) :   1.0401
B(  3-C ,  4-C ) :   1.5274 B(  3-C ,  5-H ) :   0.9854 B(  4-C , 20-C ) :   1.0511
B(  6-C ,  7-H ) :   0.9340 B(  6-C ,  8-H ) :   0.9429 B(  6-C ,  9-C ) :   1.0801
B(  9-C , 10-H ) :   0.9539 B(  9-C , 11-H ) :   0.9554 B(  9-C , 12-C ) :   1.0694
B( 12-C , 13-H ) :   0.9712 B( 12-C , 14-H ) :   0.9737 B( 12-C , 15-H ) :   0.9704
B( 16-S , 17-C ) :   1.1584 B( 16-S , 20-C ) :   1.1618 B( 17-C , 18-C ) :   1.6053
B( 17-C , 20-C ) :   0.1008 B( 17-C , 33-H ) :   0.9591 B( 18-C , 19-C ) :   1.2675
B( 18-C , 21-H ) :   0.9845 B( 19-C , 20-C ) :   1.5585 B( 19-C , 22-C ) :   1.0376
B( 22-C , 23-H ) :   0.9320 B( 22-C , 24-H ) :   0.9335 B( 22-C , 25-C ) :   1.0574
B( 25-C , 26-H ) :   0.9539 B( 25-C , 27-H ) :   0.9536 B( 25-C , 28-C ) :   1.0890
B( 28-C , 29-H ) :   0.9665 B( 28-C , 30-H ) :   0.9619 B( 28-C , 31-H ) :   0.9720

Dispersion correction           -0.015589918
FINAL SINGLE POINT ENERGY     -1339.869792014388

DIPOLE MOMENT
-------------
                                X             Y             Z
Electronic contribution:      1.58910      26.51031       7.51572
Nuclear contribution   :     -1.48154     -27.12981      -7.79431
                        -----------------------------------------
Total Dipole Moment    :      0.10756      -0.61949      -0.27859
                        -----------------------------------------
Magnitude (a.u.)       :      0.68772
Magnitude (Debye)      :      1.74803

Rotational constants in cm-1:     0.019457     0.009635     0.007212
Rotational constants in MHz :   583.315599   288.844853   216.203584

                             ****ORCA TERMINATED NORMALLY****
TOTAL RUN TIME: 0 days 0 hours 0 minutes 22 seconds 789 msec
