                         Program Version 4.2.1 -  RELEASE  -
|  1> ! wB97X-D3 SP def2-SVP
|  2> %pal
|  3> nprocs 24
|  4> end
|  5>
|  6> * xyz 0 1
|  7> S 	 21.1029 	 -15.7958 	 -124.355
|  8> C 	 19.675 	 -16.7875 	 -123.85
|  9> C 	 20.0845 	 -18.0293 	 -123.366
| 10> C 	 21.4964 	 -18.1576 	 -123.296
| 11> C 	 22.1591 	 -17.01 	 -123.661
| 12> H 	 22.0876 	 -19.0591 	 -123.167
| 13> C 	 19.1619 	 -19.1817 	 -122.908
| 14> H 	 19.6114 	 -20.1439 	 -123.247
| 15> H 	 18.27 	 -19.1479 	 -123.53
| 16> C 	 18.7963 	 -19.2489 	 -121.434
| 17> H 	 19.6794 	 -19.1074 	 -120.85
| 18> H 	 18.3165 	 -18.362 	 -120.953
| 19> C 	 17.8929 	 -20.3707 	 -120.964
| 20> H 	 17.1052 	 -20.5494 	 -121.664
| 21> H 	 18.4066 	 -21.3494 	 -120.93
| 22> H 	 17.5542 	 -20.1707 	 -119.973
| 23> S 	 24.5324 	 -15.9738 	 -124.896
| 24> C 	 26.0329 	 -16.1439 	 -124.001
| 25> C 	 25.7664 	 -16.4727 	 -122.709
| 26> C 	 24.3733 	 -16.8644 	 -122.445
| 27> C 	 23.5504 	 -16.642 	 -123.51
| 28> H 	 26.5814 	 -16.449 	 -121.933
| 29> C 	 24.0064 	 -17.3489 	 -121.102
| 30> H 	 24.82 	 -17.9271 	 -120.705
| 31> H 	 23.1242 	 -17.9759 	 -121.063
| 32> C 	 23.7519 	 -16.1765 	 -120.126
| 33> H 	 22.8288 	 -15.6245 	 -120.456
| 34> H 	 24.4721 	 -15.4182 	 -120.275
| 35> C 	 23.6523 	 -16.4849 	 -118.664
| 36> H 	 22.6991 	 -16.9421 	 -118.403
| 37> H 	 23.6804 	 -15.6019 	 -118.058
| 38> H 	 24.4778 	 -17.0964 	 -118.224
| 39> H 	 18.7097 	 -16.3634 	 -123.705
| 40> H 	 26.9917 	 -15.942 	 -124.481
| 41> *
| 42>
| 43>                          ****END OF INPUT****

CARTESIAN COORDINATES (ANGSTROEM)
---------------------------------
  S     21.102900  -15.795800  -124.355000
  C     19.675000  -16.787500  -123.850000
  C     20.084500  -18.029300  -123.366000
  C     21.496400  -18.157600  -123.296000
  C     22.159100  -17.010000  -123.661000
  H     22.087600  -19.059100  -123.167000
  C     19.161900  -19.181700  -122.908000
  H     19.611400  -20.143900  -123.247000
  H     18.270000  -19.147900  -123.530000
  C     18.796300  -19.248900  -121.434000
  H     19.679400  -19.107400  -120.850000
  H     18.316500  -18.362000  -120.953000
  C     17.892900  -20.370700  -120.964000
  H     17.105200  -20.549400  -121.664000
  H     18.406600  -21.349400  -120.930000
  H     17.554200  -20.170700  -119.973000
  S     24.532400  -15.973800  -124.896000
  C     26.032900  -16.143900  -124.001000
  C     25.766400  -16.472700  -122.709000
  C     24.373300  -16.864400  -122.445000
  C     23.550400  -16.642000  -123.510000
  H     26.581400  -16.449000  -121.933000
  C     24.006400  -17.348900  -121.102000
  H     24.820000  -17.927100  -120.705000
  H     23.124200  -17.975900  -121.063000
  C     23.751900  -16.176500  -120.126000
  H     22.828800  -15.624500  -120.456000
  H     24.472100  -15.418200  -120.275000
  C     23.652300  -16.484900  -118.664000
  H     22.699100  -16.942100  -118.403000
  H     23.680400  -15.601900  -118.058000
  H     24.477800  -17.096400  -118.224000
  H     18.709700  -16.363400  -123.705000
  H     26.991700  -15.942000  -124.481000

 Total Charge           Charge          ....    0
 Multiplicity           Mult            ....    1
 Number of Electrons    NEL             ....  134
 Basis Dimension        Dim             ....  322

ORBITAL ENERGIES
----------------

  NO   OCC          E(Eh)            E(eV)
   0   2.0000     -88.965708     -2420.8800
   1   2.0000     -88.960458     -2420.7371
   2   2.0000     -10.330998      -281.1208
   3   2.0000     -10.329106      -281.0693
   4   2.0000     -10.322203      -280.8814
   5   2.0000     -10.317477      -280.7528
   6   2.0000     -10.307995      -280.4948
   7   2.0000     -10.305034      -280.4142
   8   2.0000     -10.301221      -280.3105
   9   2.0000     -10.298925      -280.2480
  10   2.0000     -10.294448      -280.1262
  11   2.0000     -10.286563      -279.9116
  12   2.0000     -10.285116      -279.8722
  13   2.0000     -10.281673      -279.7785
  14   2.0000     -10.276641      -279.6416
  15   2.0000     -10.275933      -279.6224
  16   2.0000      -8.079898      -219.8652
  17   2.0000      -8.074676      -219.7231
  18   2.0000      -6.038431      -164.3141
  19   2.0000      -6.034598      -164.2098
  20   2.0000      -6.033533      -164.1808
  21   2.0000      -6.030547      -164.0995
  22   2.0000      -6.029374      -164.0676
  23   2.0000      -6.024974      -163.9479
  24   2.0000      -1.003162       -27.2974
  25   2.0000      -0.979090       -26.6424
  26   2.0000      -0.912300       -24.8250
  27   2.0000      -0.911012       -24.7899
  28   2.0000      -0.872017       -23.7288
  29   2.0000      -0.854213       -23.2443
  30   2.0000      -0.842803       -22.9338
  31   2.0000      -0.814826       -22.1725
  32   2.0000      -0.786143       -21.3920
  33   2.0000      -0.775239       -21.0953
  34   2.0000      -0.708867       -19.2893
  35   2.0000      -0.704686       -19.1755
  36   2.0000      -0.696602       -18.9555
  37   2.0000      -0.659637       -17.9496
  38   2.0000      -0.645905       -17.5760
  39   2.0000      -0.619714       -16.8633
  40   2.0000      -0.602710       -16.4006
  41   2.0000      -0.564382       -15.3576
  42   2.0000      -0.559318       -15.2198
  43   2.0000      -0.550494       -14.9797
  44   2.0000      -0.535783       -14.5794
  45   2.0000      -0.525392       -14.2966
  46   2.0000      -0.522599       -14.2206
  47   2.0000      -0.518210       -14.1012
  48   2.0000      -0.510208       -13.8835
  49   2.0000      -0.498165       -13.5558
  50   2.0000      -0.491271       -13.3682
  51   2.0000      -0.479142       -13.0381
  52   2.0000      -0.468963       -12.7611
  53   2.0000      -0.466938       -12.7060
  54   2.0000      -0.459966       -12.5163
  55   2.0000      -0.453371       -12.3369
  56   2.0000      -0.448240       -12.1972
  57   2.0000      -0.444304       -12.0901
  58   2.0000      -0.428589       -11.6625
  59   2.0000      -0.426739       -11.6122
  60   2.0000      -0.417694       -11.3660
  61   2.0000      -0.413003       -11.2384
  62   2.0000      -0.396005       -10.7759
  63   2.0000      -0.351770        -9.5722
  64   2.0000      -0.334726        -9.1084
  65   2.0000      -0.325168        -8.8483
  66   2.0000      -0.288698        -7.8559
  67   0.0000       0.025026         0.6810
  68   0.0000       0.061142         1.6637
  69   0.0000       0.099817         2.7161
  70   0.0000       0.115473         3.1422
  71   0.0000       0.124853         3.3974

MULLIKEN ATOMIC CHARGES
-----------------------
   0 S :    0.091624
   1 C :   -0.111203
   2 C :   -0.097827
   3 C :    0.023610
   4 C :   -0.158891
   5 H :    0.030884
   6 C :    0.078013
   7 H :    0.029051
   8 H :    0.018464
   9 C :   -0.070888
  10 H :    0.006549
  11 H :    0.016409
  12 C :   -0.014826
  13 H :    0.024438
  14 H :    0.024067
  15 H :    0.031316
  16 S :    0.072083
  17 C :   -0.095826
  18 C :   -0.033742
  19 C :   -0.064241
  20 C :   -0.108099
  21 H :    0.039808
  22 C :    0.107916
  23 H :    0.011674
  24 H :    0.016831
  25 C :   -0.082740
  26 H :    0.031901
  27 H :    0.008936
  28 C :   -0.026094
  29 H :    0.027544
  30 H :    0.023167
  31 H :    0.029863
  32 H :    0.049310
  33 H :    0.070918
Sum of atomic charges:   -0.0000000

LOEWDIN ATOMIC CHARGES
----------------------
   0 S :    0.380130
   1 C :   -0.177357
   2 C :   -0.054338
   3 C :   -0.070724
   4 C :   -0.173666
   5 H :    0.038243
   6 C :   -0.030848
   7 H :    0.036589
   8 H :    0.028071
   9 C :   -0.057182
  10 H :    0.020068
  11 H :    0.031105
  12 C :   -0.058601
  13 H :    0.022936
  14 H :    0.024530
  15 H :    0.025932
  16 S :    0.352337
  17 C :   -0.172236
  18 C :   -0.076107
  19 C :   -0.049703
  20 C :   -0.181800
  21 H :    0.039150
  22 C :   -0.029172
  23 H :    0.027621
  24 H :    0.028409
  25 C :   -0.041417
  26 H :    0.033965
  27 H :    0.015695
  28 C :   -0.069899
  29 H :    0.024468
  30 H :    0.026612
  31 H :    0.027834
  32 H :    0.023749
  33 H :    0.035609

  Mayer bond orders larger than 0.100000
B(  0-S ,  1-C ) :   1.1167 B(  0-S ,  4-C ) :   1.1529 B(  1-C ,  2-C ) :   1.6387
B(  1-C ,  4-C ) :   0.1048 B(  1-C , 32-H ) :   0.9720 B(  2-C ,  3-C ) :   1.2147
B(  2-C ,  6-C ) :   1.0178 B(  3-C ,  4-C ) :   1.6015 B(  3-C ,  5-H ) :   0.9887
B(  4-C , 20-C ) :   1.0323 B(  6-C ,  7-H ) :   0.9430 B(  6-C ,  8-H ) :   0.9386
B(  6-C ,  9-C ) :   1.0548 B(  9-C , 10-H ) :   0.9472 B(  9-C , 11-H ) :   0.9535
B(  9-C , 12-C ) :   1.0840 B( 12-C , 13-H ) :   0.9738 B( 12-C , 14-H ) :   0.9733
B( 12-C , 15-H ) :   0.9742 B( 16-S , 17-C ) :   1.1365 B( 16-S , 20-C ) :   1.0844
B( 17-C , 18-C ) :   1.6468 B( 17-C , 33-H ) :   0.9682 B( 18-C , 19-C ) :   1.1845
B( 18-C , 21-H ) :   0.9794 B( 19-C , 20-C ) :   1.6551 B( 19-C , 22-C ) :   1.0749
B( 22-C , 23-H ) :   0.9232 B( 22-C , 24-H ) :   0.9279 B( 22-C , 25-C ) :   1.0599
B( 25-C , 26-H ) :   0.9481 B( 25-C , 27-H ) :   0.9573 B( 25-C , 28-C ) :   1.0918
B( 28-C , 29-H ) :   0.9727 B( 28-C , 30-H ) :   0.9687 B( 28-C , 31-H ) :   0.9716

Dispersion correction           -0.013981236
FINAL SINGLE POINT ENERGY     -1339.869909985360

DIPOLE MOMENT
-------------
                                X             Y             Z
Electronic contribution:     11.25386      13.92040     -26.52671
Nuclear contribution   :    -11.23861     -14.28300      27.24303
                        -----------------------------------------
Total Dipole Moment    :      0.01525      -0.36260       0.71632
                        -----------------------------------------
Magnitude (a.u.)       :      0.80301
Magnitude (Debye)      :      2.04108

Rotational constants in cm-1:     0.017922     0.008615     0.006541
Rotational constants in MHz :   537.273319   258.264372   196.105744

                             ****ORCA TERMINATED NORMALLY****
TOTAL RUN TIME: 0 days 0 hours 0 minutes 21 seconds 411 msec
