                         Program Version 4.2.1 -  RELEASE  -
|  1> ! wB97X-D3 SP def2-SVP
|  2> %pal
|  3> nprocs 24
|  4> end
|  5>
|  6> * xyz 0 1
|  7> S 	 -44.8644 	 -4.03481 	 -11.8041
|  8> C 	 -46.5679 	 -4.10402 	 -11.3524
|  9> C 	 -47.2586 	 -3.09381 	 -12.0157
| 10> C 	 -46.3786 	 -2.30513 	 -12.8136
| 11> C 	 -45.0041 	 -2.63622 	 -12.7621
| 12> H 	 -46.6301 	 -1.46454 	 -13.4193
| 13> C 	 -48.6984 	 -2.74589 	 -11.7303
| 14> H 	 -48.9458 	 -1.69225 	 -11.8195
| 15> H 	 -48.9231 	 -2.84404 	 -10.6573
| 16> C 	 -49.6658 	 -3.71272 	 -12.4525
| 17> H 	 -49.3966 	 -4.60209 	 -11.8652
| 18> H 	 -50.7815 	 -3.49122 	 -12.2377
| 19> C 	 -49.513 	 -3.83564 	 -13.9716
| 20> H 	 -50.3337 	 -4.36408 	 -14.4824
| 21> H 	 -49.5512 	 -2.80097 	 -14.3075
| 22> H 	 -48.5178 	 -4.29307 	 -14.3244
| 23> S 	 -43.3513 	 -0.480928 	 -12.5277
| 24> C 	 -42.0615 	 -0.220481 	 -13.6157
| 25> C 	 -41.9512 	 -1.31304 	 -14.4624
| 26> C 	 -42.971 	 -2.29619 	 -14.2997
| 27> C 	 -43.8355 	 -1.97885 	 -13.2612
| 28> H 	 -41.0795 	 -1.29276 	 -15.193
| 29> C 	 -43.1108 	 -3.51572 	 -15.2124
| 30> H 	 -43.1856 	 -4.52773 	 -14.7048
| 31> H 	 -42.2466 	 -3.51831 	 -15.9747
| 32> C 	 -44.4125 	 -3.56423 	 -16.0969
| 33> H 	 -44.4021 	 -2.73784 	 -16.8271
| 34> H 	 -45.3074 	 -3.50814 	 -15.4812
| 35> C 	 -44.6308 	 -4.84322 	 -16.9705
| 36> H 	 -45.6371 	 -4.85598 	 -17.4756
| 37> H 	 -44.6735 	 -5.61292 	 -16.2096
| 38> H 	 -43.7406 	 -5.03209 	 -17.6466
| 39> H 	 -46.9778 	 -4.73967 	 -10.6134
| 40> H 	 -41.273 	 0.491397 	 -13.5707
| 41> *
| 42>
| 43>                          ****END OF INPUT****

CARTESIAN COORDINATES (ANGSTROEM)
---------------------------------
  S    -44.864400   -4.034810  -11.804100
  C    -46.567900   -4.104020  -11.352400
  C    -47.258600   -3.093810  -12.015700
  C    -46.378600   -2.305130  -12.813600
  C    -45.004100   -2.636220  -12.762100
  H    -46.630100   -1.464540  -13.419300
  C    -48.698400   -2.745890  -11.730300
  H    -48.945800   -1.692250  -11.819500
  H    -48.923100   -2.844040  -10.657300
  C    -49.665800   -3.712720  -12.452500
  H    -49.396600   -4.602090  -11.865200
  H    -50.781500   -3.491220  -12.237700
  C    -49.513000   -3.835640  -13.971600
  H    -50.333700   -4.364080  -14.482400
  H    -49.551200   -2.800970  -14.307500
  H    -48.517800   -4.293070  -14.324400
  S    -43.351300   -0.480928  -12.527700
  C    -42.061500   -0.220481  -13.615700
  C    -41.951200   -1.313040  -14.462400
  C    -42.971000   -2.296190  -14.299700
  C    -43.835500   -1.978850  -13.261200
  H    -41.079500   -1.292760  -15.193000
  C    -43.110800   -3.515720  -15.212400
  H    -43.185600   -4.527730  -14.704800
  H    -42.246600   -3.518310  -15.974700
  C    -44.412500   -3.564230  -16.096900
  H    -44.402100   -2.737840  -16.827100
  H    -45.307400   -3.508140  -15.481200
  C    -44.630800   -4.843220  -16.970500
  H    -45.637100   -4.855980  -17.475600
  H    -44.673500   -5.612920  -16.209600
  H    -43.740600   -5.032090  -17.646600
  H    -46.977800   -4.739670  -10.613400
  H    -41.273000    0.491397  -13.570700

 Total Charge           Charge          ....    0
 Multiplicity           Mult            ....    1
 Number of Electrons    NEL             ....  134
 Basis Dimension        Dim             ....  322

ORBITAL ENERGIES
----------------

  NO   OCC          E(Eh)            E(eV)
   0   2.0000     -88.968502     -2420.9560
   1   2.0000     -88.966998     -2420.9151
   2   2.0000     -10.328927      -281.0644
   3   2.0000     -10.326619      -281.0016
   4   2.0000     -10.316880      -280.7366
   5   2.0000     -10.314812      -280.6803
   6   2.0000     -10.309288      -280.5300
   7   2.0000     -10.306280      -280.4481
   8   2.0000     -10.305949      -280.4391
   9   2.0000     -10.299974      -280.2765
  10   2.0000     -10.296640      -280.1858
  11   2.0000     -10.295295      -280.1492
  12   2.0000     -10.294515      -280.1280
  13   2.0000     -10.284313      -279.8504
  14   2.0000     -10.283803      -279.8365
  15   2.0000     -10.283643      -279.8322
  16   2.0000      -8.083974      -219.9761
  17   2.0000      -8.082141      -219.9262
  18   2.0000      -6.042332      -164.4202
  19   2.0000      -6.040462      -164.3693
  20   2.0000      -6.038165      -164.3068
  21   2.0000      -6.036310      -164.2563
  22   2.0000      -6.035031      -164.2216
  23   2.0000      -6.033328      -164.1752
  24   2.0000      -1.014547       -27.6072
  25   2.0000      -0.990637       -26.9566
  26   2.0000      -0.915162       -24.9028
  27   2.0000      -0.898826       -24.4583
  28   2.0000      -0.871570       -23.7166
  29   2.0000      -0.848839       -23.0981
  30   2.0000      -0.842318       -22.9206
  31   2.0000      -0.814726       -22.1698
  32   2.0000      -0.785468       -21.3737
  33   2.0000      -0.769959       -20.9517
  34   2.0000      -0.709569       -19.3084
  35   2.0000      -0.695517       -18.9260
  36   2.0000      -0.680613       -18.5204
  37   2.0000      -0.660910       -17.9843
  38   2.0000      -0.646834       -17.6012
  39   2.0000      -0.614647       -16.7254
  40   2.0000      -0.595020       -16.1913
  41   2.0000      -0.581369       -15.8199
  42   2.0000      -0.562237       -15.2992
  43   2.0000      -0.549843       -14.9620
  44   2.0000      -0.542739       -14.7687
  45   2.0000      -0.522117       -14.2075
  46   2.0000      -0.515346       -14.0233
  47   2.0000      -0.509911       -13.8754
  48   2.0000      -0.505115       -13.7449
  49   2.0000      -0.501406       -13.6440
  50   2.0000      -0.484310       -13.1788
  51   2.0000      -0.482320       -13.1246
  52   2.0000      -0.470373       -12.7995
  53   2.0000      -0.467596       -12.7239
  54   2.0000      -0.462560       -12.5869
  55   2.0000      -0.442135       -12.0311
  56   2.0000      -0.441698       -12.0192
  57   2.0000      -0.432600       -11.7716
  58   2.0000      -0.429150       -11.6778
  59   2.0000      -0.420724       -11.4485
  60   2.0000      -0.415470       -11.3055
  61   2.0000      -0.409470       -11.1422
  62   2.0000      -0.406909       -11.0726
  63   2.0000      -0.336338        -9.1522
  64   2.0000      -0.332783        -9.0555
  65   2.0000      -0.329586        -8.9685
  66   2.0000      -0.306348        -8.3362
  67   0.0000       0.036415         0.9909
  68   0.0000       0.051984         1.4146
  69   0.0000       0.111897         3.0449
  70   0.0000       0.122302         3.3280
  71   0.0000       0.128935         3.5085

MULLIKEN ATOMIC CHARGES
-----------------------
   0 S :    0.124191
   1 C :   -0.111031
   2 C :   -0.075049
   3 C :    0.058860
   4 C :   -0.203767
   5 H :   -0.001600
   6 C :    0.054691
   7 H :    0.023076
   8 H :    0.029403
   9 C :   -0.103826
  10 H :    0.023249
  11 H :    0.043018
  12 C :   -0.067307
  13 H :    0.044704
  14 H :    0.026836
  15 H :    0.058224
  16 S :    0.137573
  17 C :   -0.078425
  18 C :   -0.088155
  19 C :    0.040757
  20 C :   -0.175477
  21 H :    0.042089
  22 C :    0.029545
  23 H :    0.040829
  24 H :    0.034012
  25 C :   -0.111202
  26 H :    0.028562
  27 H :    0.042679
  28 C :   -0.075841
  29 H :    0.053428
  30 H :    0.021132
  31 H :    0.044531
  32 H :    0.041550
  33 H :    0.048739
Sum of atomic charges:   -0.0000000

LOEWDIN ATOMIC CHARGES
----------------------
   0 S :    0.436441
   1 C :   -0.186887
   2 C :   -0.062217
   3 C :   -0.058442
   4 C :   -0.219853
   5 H :    0.025605
   6 C :   -0.037285
   7 H :    0.025573
   8 H :    0.036490
   9 C :   -0.048975
  10 H :    0.020003
  11 H :    0.032370
  12 C :   -0.077903
  13 H :    0.029256
  14 H :    0.025220
  15 H :    0.036202
  16 S :    0.445740
  17 C :   -0.201488
  18 C :   -0.079737
  19 C :   -0.056308
  20 C :   -0.214613
  21 H :    0.042129
  22 C :   -0.040503
  23 H :    0.036176
  24 H :    0.037371
  25 C :   -0.046002
  26 H :    0.018471
  27 H :    0.022212
  28 C :   -0.074071
  29 H :    0.036365
  30 H :    0.018520
  31 H :    0.028976
  32 H :    0.022339
  33 H :    0.028826

  Mayer bond orders larger than 0.100000
B(  0-S ,  1-C ) :   1.1633 B(  0-S ,  4-C ) :   1.1858 B(  1-C ,  2-C ) :   1.5610
B(  1-C ,  4-C ) :   0.1118 B(  1-C , 32-H ) :   0.9754 B(  2-C ,  3-C ) :   1.2618
B(  2-C ,  6-C ) :   1.0134 B(  3-C ,  4-C ) :   1.5385 B(  3-C ,  5-H ) :   1.0078
B(  4-C , 20-C ) :   1.0273 B(  6-C ,  7-H ) :   0.9494 B(  6-C ,  8-H ) :   0.9495
B(  6-C ,  9-C ) :   1.0477 B(  9-C , 10-H ) :   0.9624 B(  9-C , 11-H ) :   0.9569
B(  9-C , 12-C ) :   1.0685 B( 12-C , 13-H ) :   0.9759 B( 12-C , 14-H ) :   0.9747
B( 12-C , 15-H ) :   0.9692 B( 16-S , 17-C ) :   1.1759 B( 16-S , 20-C ) :   1.1657
B( 17-C , 18-C ) :   1.5962 B( 17-C , 20-C ) :   0.1043 B( 17-C , 33-H ) :   0.9673
B( 18-C , 19-C ) :   1.2726 B( 18-C , 21-H ) :   0.9766 B( 19-C , 20-C ) :   1.5553
B( 19-C , 22-C ) :   1.0466 B( 22-C , 23-H ) :   0.9360 B( 22-C , 24-H ) :   0.9383
B( 22-C , 25-C ) :   1.0505 B( 25-C , 26-H ) :   0.9575 B( 25-C , 27-H ) :   0.9579
B( 25-C , 28-C ) :   1.0754 B( 28-C , 29-H ) :   0.9729 B( 28-C , 30-H ) :   0.9758
B( 28-C , 31-H ) :   0.9750

Dispersion correction           -0.014958444
FINAL SINGLE POINT ENERGY     -1339.873225713996

DIPOLE MOMENT
-------------
                                X             Y             Z
Electronic contribution:     17.56271      10.76898      16.08717
Nuclear contribution   :    -17.80870     -10.71608     -16.21868
                        -----------------------------------------
Total Dipole Moment    :     -0.24599       0.05290      -0.13151
                        -----------------------------------------
Magnitude (a.u.)       :      0.28391
Magnitude (Debye)      :      0.72163

Rotational constants in cm-1:     0.018808     0.009102     0.007324
Rotational constants in MHz :   563.858615   272.864611   219.582933

                             ****ORCA TERMINATED NORMALLY****
TOTAL RUN TIME: 0 days 0 hours 0 minutes 21 seconds 879 msec
