                         Program Version 4.2.1 -  RELEASE  -
|  1> ! wB97X-D3 SP def2-SVP
|  2> %pal
|  3> nprocs 24
|  4> end
|  5>
|  6> * xyz 0 1
|  7> S 	 32.4737 	 -32.7213 	 -129.965
|  8> C 	 32.294 	 -32.5781 	 -128.236
|  9> C 	 32.9657 	 -33.5334 	 -127.519
| 10> C 	 33.3716 	 -34.5616 	 -128.394
| 11> C 	 33.0321 	 -34.3684 	 -129.732
| 12> H 	 33.91 	 -35.4347 	 -128.073
| 13> C 	 33.2598 	 -33.5199 	 -126.032
| 14> H 	 33.1367 	 -34.5939 	 -125.736
| 15> H 	 32.586 	 -32.7742 	 -125.529
| 16> C 	 34.7078 	 -33.0553 	 -125.789
| 17> H 	 34.9933 	 -33.1337 	 -124.793
| 18> H 	 35.4331 	 -33.6422 	 -126.29
| 19> C 	 34.9731 	 -31.6007 	 -126.258
| 20> H 	 36.0751 	 -31.2521 	 -126.136
| 21> H 	 34.6538 	 -31.3771 	 -127.277
| 22> H 	 34.4489 	 -30.9513 	 -125.571
| 23> S 	 34.1418 	 -34.8564 	 -132.205
| 24> C 	 34.2502 	 -36.4644 	 -132.881
| 25> C 	 33.4955 	 -37.3489 	 -132.126
| 26> C 	 33.0165 	 -36.7867 	 -130.878
| 27> C 	 33.2279 	 -35.3727 	 -130.789
| 28> H 	 33.4232 	 -38.4042 	 -132.441
| 29> C 	 32.1797 	 -37.5584 	 -129.819
| 30> H 	 31.5352 	 -38.1764 	 -130.443
| 31> H 	 31.523 	 -36.7562 	 -129.205
| 32> C 	 33.0448 	 -38.3353 	 -128.842
| 33> H 	 32.3502 	 -38.7851 	 -128.154
| 34> H 	 33.7958 	 -37.7461 	 -128.315
| 35> C 	 33.8308 	 -39.4912 	 -129.476
| 36> H 	 34.3893 	 -39.8697 	 -128.599
| 37> H 	 34.5154 	 -39.1487 	 -130.176
| 38> H 	 33.1524 	 -40.2365 	 -129.923
| 39> H 	 31.7112 	 -31.7148 	 -127.908
| 40> H 	 34.7523 	 -36.714 	 -133.783
| 41> *
| 42>
| 43>                          ****END OF INPUT****

CARTESIAN COORDINATES (ANGSTROEM)
---------------------------------
  S     32.473700  -32.721300  -129.965000
  C     32.294000  -32.578100  -128.236000
  C     32.965700  -33.533400  -127.519000
  C     33.371600  -34.561600  -128.394000
  C     33.032100  -34.368400  -129.732000
  H     33.910000  -35.434700  -128.073000
  C     33.259800  -33.519900  -126.032000
  H     33.136700  -34.593900  -125.736000
  H     32.586000  -32.774200  -125.529000
  C     34.707800  -33.055300  -125.789000
  H     34.993300  -33.133700  -124.793000
  H     35.433100  -33.642200  -126.290000
  C     34.973100  -31.600700  -126.258000
  H     36.075100  -31.252100  -126.136000
  H     34.653800  -31.377100  -127.277000
  H     34.448900  -30.951300  -125.571000
  S     34.141800  -34.856400  -132.205000
  C     34.250200  -36.464400  -132.881000
  C     33.495500  -37.348900  -132.126000
  C     33.016500  -36.786700  -130.878000
  C     33.227900  -35.372700  -130.789000
  H     33.423200  -38.404200  -132.441000
  C     32.179700  -37.558400  -129.819000
  H     31.535200  -38.176400  -130.443000
  H     31.523000  -36.756200  -129.205000
  C     33.044800  -38.335300  -128.842000
  H     32.350200  -38.785100  -128.154000
  H     33.795800  -37.746100  -128.315000
  C     33.830800  -39.491200  -129.476000
  H     34.389300  -39.869700  -128.599000
  H     34.515400  -39.148700  -130.176000
  H     33.152400  -40.236500  -129.923000
  H     31.711200  -31.714800  -127.908000
  H     34.752300  -36.714000  -133.783000

 Total Charge           Charge          ....    0
 Multiplicity           Mult            ....    1
 Number of Electrons    NEL             ....  134
 Basis Dimension        Dim             ....  322

ORBITAL ENERGIES
----------------

  NO   OCC          E(Eh)            E(eV)
   0   2.0000     -88.966957     -2420.9140
   1   2.0000     -88.962432     -2420.7909
   2   2.0000     -10.332529      -281.1624
   3   2.0000     -10.331845      -281.1438
   4   2.0000     -10.317343      -280.7492
   5   2.0000     -10.314284      -280.6659
   6   2.0000     -10.310920      -280.5744
   7   2.0000     -10.305119      -280.4165
   8   2.0000     -10.301629      -280.3216
   9   2.0000     -10.300364      -280.2872
  10   2.0000     -10.300285      -280.2850
  11   2.0000     -10.293162      -280.0912
  12   2.0000     -10.283735      -279.8346
  13   2.0000     -10.281355      -279.7699
  14   2.0000     -10.280259      -279.7401
  15   2.0000     -10.273020      -279.5431
  16   2.0000      -8.082082      -219.9246
  17   2.0000      -8.077158      -219.7906
  18   2.0000      -6.040535      -164.3713
  19   2.0000      -6.036823      -164.2703
  20   2.0000      -6.035652      -164.2385
  21   2.0000      -6.032607      -164.1556
  22   2.0000      -6.031537      -164.1265
  23   2.0000      -6.028070      -164.0321
  24   2.0000      -1.005455       -27.3598
  25   2.0000      -0.981899       -26.7188
  26   2.0000      -0.913980       -24.8706
  27   2.0000      -0.908302       -24.7162
  28   2.0000      -0.866253       -23.5719
  29   2.0000      -0.850578       -23.1454
  30   2.0000      -0.841548       -22.8997
  31   2.0000      -0.810806       -22.0631
  32   2.0000      -0.780888       -21.2490
  33   2.0000      -0.770848       -20.9758
  34   2.0000      -0.709075       -19.2949
  35   2.0000      -0.698930       -19.0188
  36   2.0000      -0.687186       -18.6993
  37   2.0000      -0.659489       -17.9456
  38   2.0000      -0.641613       -17.4592
  39   2.0000      -0.622697       -16.9444
  40   2.0000      -0.588855       -16.0236
  41   2.0000      -0.566932       -15.4270
  42   2.0000      -0.555630       -15.1195
  43   2.0000      -0.551889       -15.0177
  44   2.0000      -0.545250       -14.8370
  45   2.0000      -0.540706       -14.7133
  46   2.0000      -0.521737       -14.1972
  47   2.0000      -0.507555       -13.8113
  48   2.0000      -0.498416       -13.5626
  49   2.0000      -0.492951       -13.4139
  50   2.0000      -0.487769       -13.2729
  51   2.0000      -0.482141       -13.1197
  52   2.0000      -0.472891       -12.8680
  53   2.0000      -0.462411       -12.5828
  54   2.0000      -0.458974       -12.4893
  55   2.0000      -0.447946       -12.1892
  56   2.0000      -0.442262       -12.0346
  57   2.0000      -0.437625       -11.9084
  58   2.0000      -0.434268       -11.8170
  59   2.0000      -0.425644       -11.5823
  60   2.0000      -0.422711       -11.5025
  61   2.0000      -0.415080       -11.2949
  62   2.0000      -0.405701       -11.0397
  63   2.0000      -0.348538        -9.4842
  64   2.0000      -0.332810        -9.0562
  65   2.0000      -0.326542        -8.8857
  66   2.0000      -0.285239        -7.7617
  67   0.0000       0.025320         0.6890
  68   0.0000       0.063997         1.7415
  69   0.0000       0.107591         2.9277
  70   0.0000       0.120079         3.2675
  71   0.0000       0.127846         3.4789

MULLIKEN ATOMIC CHARGES
-----------------------
   0 S :    0.111361
   1 C :   -0.166142
   2 C :   -0.055135
   3 C :    0.012871
   4 C :   -0.128343
   5 H :   -0.003088
   6 C :    0.073644
   7 H :    0.041534
   8 H :    0.036833
   9 C :   -0.019529
  10 H :    0.015643
  11 H :    0.017322
  12 C :   -0.100123
  13 H :    0.043368
  14 H :    0.053655
  15 H :    0.017833
  16 S :    0.087678
  17 C :   -0.086080
  18 C :   -0.037206
  19 C :   -0.068243
  20 C :   -0.143055
  21 H :    0.032937
  22 C :    0.014459
  23 H :    0.030745
  24 H :    0.063475
  25 C :   -0.058495
  26 H :    0.027840
  27 H :    0.032087
  28 C :   -0.053559
  29 H :    0.035961
  30 H :    0.029512
  31 H :    0.033852
  32 H :    0.055313
  33 H :    0.051076
Sum of atomic charges:   -0.0000000

LOEWDIN ATOMIC CHARGES
----------------------
   0 S :    0.400209
   1 C :   -0.191026
   2 C :   -0.067197
   3 C :   -0.056068
   4 C :   -0.194267
   5 H :    0.026065
   6 C :   -0.024723
   7 H :    0.038855
   8 H :    0.037834
   9 C :   -0.035420
  10 H :    0.016767
  11 H :    0.019112
  12 C :   -0.070988
  13 H :    0.036397
  14 H :    0.024872
  15 H :    0.017314
  16 S :    0.398037
  17 C :   -0.182802
  18 C :   -0.079707
  19 C :   -0.059016
  20 C :   -0.194618
  21 H :    0.036203
  22 C :   -0.038422
  23 H :    0.029239
  24 H :    0.048285
  25 C :   -0.041639
  26 H :    0.023004
  27 H :    0.022707
  28 C :   -0.059872
  29 H :    0.032749
  30 H :    0.012456
  31 H :    0.025027
  32 H :    0.025172
  33 H :    0.025463

  Mayer bond orders larger than 0.100000
B(  0-S ,  1-C ) :   1.1443 B(  0-S ,  4-C ) :   1.1468 B(  1-C ,  2-C ) :   1.5854
B(  1-C , 32-H ) :   0.9719 B(  2-C ,  3-C ) :   1.2452 B(  2-C ,  6-C ) :   1.0178
B(  3-C ,  4-C ) :   1.5492 B(  3-C ,  5-H ) :   0.9996 B(  4-C , 20-C ) :   1.0455
B(  6-C ,  7-H ) :   0.9357 B(  6-C ,  8-H ) :   0.9437 B(  6-C ,  9-C ) :   1.0693
B(  9-C , 10-H ) :   0.9562 B(  9-C , 11-H ) :   0.9558 B(  9-C , 12-C ) :   1.0653
B( 12-C , 13-H ) :   0.9739 B( 12-C , 14-H ) :   0.9754 B( 12-C , 15-H ) :   0.9767
B( 16-S , 17-C ) :   1.1643 B( 16-S , 20-C ) :   1.1441 B( 17-C , 18-C ) :   1.5927
B( 17-C , 20-C ) :   0.1049 B( 17-C , 33-H ) :   0.9723 B( 18-C , 19-C ) :   1.2481
B( 18-C , 21-H ) :   0.9822 B( 19-C , 20-C ) :   1.5812 B( 19-C , 22-C ) :   1.0121
B( 22-C , 23-H ) :   0.9433 B( 22-C , 24-H ) :   0.9419 B( 22-C , 25-C ) :   1.0679
B( 25-C , 26-H ) :   0.9540 B( 25-C , 27-H ) :   0.9528 B( 25-C , 28-C ) :   1.0795
B( 28-C , 29-H ) :   0.9734 B( 28-C , 30-H ) :   0.9732 B( 28-C , 31-H ) :   0.9762

Dispersion correction           -0.015064119
FINAL SINGLE POINT ENERGY     -1339.868427711218

DIPOLE MOMENT
-------------
                                X             Y             Z
Electronic contribution:     -4.78361      10.53057     -21.06942
Nuclear contribution   :      4.87602     -10.91938      21.60737
                        -----------------------------------------
Total Dipole Moment    :      0.09241      -0.38881       0.53794
                        -----------------------------------------
Magnitude (a.u.)       :      0.67014
Magnitude (Debye)      :      1.70337

Rotational constants in cm-1:     0.019962     0.008751     0.006986
Rotational constants in MHz :   598.445655   262.342974   209.423089

                             ****ORCA TERMINATED NORMALLY****
TOTAL RUN TIME: 0 days 0 hours 0 minutes 22 seconds 158 msec
