                         Program Version 4.2.1 -  RELEASE  -
|  1> ! wB97X-D3 SP def2-SVP
|  2> %pal
|  3> nprocs 24
|  4> end
|  5>
|  6> * xyz 0 1
|  7> S 	 -107.796 	 47.4996 	 -5.88097
|  8> C 	 -108.857 	 47.3947 	 -4.51861
|  9> C 	 -110.101 	 46.9207 	 -4.8714
| 10> C 	 -110.2 	 46.5918 	 -6.27296
| 11> C 	 -109.029 	 46.826 	 -6.97703
| 12> H 	 -110.984 	 46.2141 	 -6.91087
| 13> C 	 -111.293 	 46.7446 	 -3.94372
| 14> H 	 -110.88 	 46.1988 	 -2.98796
| 15> H 	 -112.086 	 46.18 	 -4.39882
| 16> C 	 -111.813 	 47.9933 	 -3.26146
| 17> H 	 -112.433 	 47.8256 	 -2.35852
| 18> H 	 -110.978 	 48.5459 	 -2.81923
| 19> C 	 -112.561 	 48.9287 	 -4.25535
| 20> H 	 -111.803 	 49.4598 	 -4.8321
| 21> H 	 -113.314 	 48.3913 	 -4.88206
| 22> H 	 -113.098 	 49.6301 	 -3.59589
| 23> S 	 -108.424 	 45.1643 	 -8.95514
| 24> C 	 -108.413 	 45.7778 	 -10.6237
| 25> C 	 -108.699 	 47.1347 	 -10.654
| 26> C 	 -108.894 	 47.6778 	 -9.36855
| 27> C 	 -108.919 	 46.7265 	 -8.40724
| 28> H 	 -108.553 	 47.6357 	 -11.5976
| 29> C 	 -109.275 	 49.1953 	 -9.20959
| 30> H 	 -108.246 	 49.5654 	 -9.03796
| 31> H 	 -109.649 	 49.3044 	 -8.16255
| 32> C 	 -109.963 	 49.8834 	 -10.4249
| 33> H 	 -111.015 	 49.4819 	 -10.4038
| 34> H 	 -109.405 	 49.6816 	 -11.3101
| 35> C 	 -110.248 	 51.3836 	 -10.138
| 36> H 	 -111.31 	 51.5584 	 -10.3754
| 37> H 	 -109.563 	 51.9859 	 -10.6733
| 38> H 	 -110.28 	 51.3888 	 -9.05207
| 39> H 	 -108.592 	 47.4083 	 -3.44438
| 40> H 	 -108.097 	 45.1744 	 -11.4974
| 41> *
| 42>
| 43>                          ****END OF INPUT****

CARTESIAN COORDINATES (ANGSTROEM)
---------------------------------
  S    -107.796000   47.499600   -5.880970
  C    -108.857000   47.394700   -4.518610
  C    -110.101000   46.920700   -4.871400
  C    -110.200000   46.591800   -6.272960
  C    -109.029000   46.826000   -6.977030
  H    -110.984000   46.214100   -6.910870
  C    -111.293000   46.744600   -3.943720
  H    -110.880000   46.198800   -2.987960
  H    -112.086000   46.180000   -4.398820
  C    -111.813000   47.993300   -3.261460
  H    -112.433000   47.825600   -2.358520
  H    -110.978000   48.545900   -2.819230
  C    -112.561000   48.928700   -4.255350
  H    -111.803000   49.459800   -4.832100
  H    -113.314000   48.391300   -4.882060
  H    -113.098000   49.630100   -3.595890
  S    -108.424000   45.164300   -8.955140
  C    -108.413000   45.777800  -10.623700
  C    -108.699000   47.134700  -10.654000
  C    -108.894000   47.677800   -9.368550
  C    -108.919000   46.726500   -8.407240
  H    -108.553000   47.635700  -11.597600
  C    -109.275000   49.195300   -9.209590
  H    -108.246000   49.565400   -9.037960
  H    -109.649000   49.304400   -8.162550
  C    -109.963000   49.883400  -10.424900
  H    -111.015000   49.481900  -10.403800
  H    -109.405000   49.681600  -11.310100
  C    -110.248000   51.383600  -10.138000
  H    -111.310000   51.558400  -10.375400
  H    -109.563000   51.985900  -10.673300
  H    -110.280000   51.388800   -9.052070
  H    -108.592000   47.408300   -3.444380
  H    -108.097000   45.174400  -11.497400

 Total Charge           Charge          ....    0
 Multiplicity           Mult            ....    1
 Number of Electrons    NEL             ....  134
 Basis Dimension        Dim             ....  322

ORBITAL ENERGIES
----------------

  NO   OCC          E(Eh)            E(eV)
   0   2.0000     -88.967089     -2420.9176
   1   2.0000     -88.962761     -2420.7998
   2   2.0000     -10.325243      -280.9642
   3   2.0000     -10.319788      -280.8157
   4   2.0000     -10.315291      -280.6933
   5   2.0000     -10.314913      -280.6831
   6   2.0000     -10.303812      -280.3810
   7   2.0000     -10.300511      -280.2911
   8   2.0000     -10.297698      -280.2146
   9   2.0000     -10.296745      -280.1887
  10   2.0000     -10.294074      -280.1160
  11   2.0000     -10.293267      -280.0940
  12   2.0000     -10.290752      -280.0256
  13   2.0000     -10.286684      -279.9149
  14   2.0000     -10.278623      -279.6956
  15   2.0000     -10.277954      -279.6773
  16   2.0000      -8.081298      -219.9033
  17   2.0000      -8.077702      -219.8054
  18   2.0000      -6.039898      -164.3540
  19   2.0000      -6.036161      -164.2523
  20   2.0000      -6.035768      -164.2416
  21   2.0000      -6.032225      -164.1452
  22   2.0000      -6.032108      -164.1420
  23   2.0000      -6.028451      -164.0425
  24   2.0000      -1.008293       -27.4371
  25   2.0000      -0.983588       -26.7648
  26   2.0000      -0.909724       -24.7549
  27   2.0000      -0.904083       -24.6013
  28   2.0000      -0.871727       -23.7209
  29   2.0000      -0.851372       -23.1670
  30   2.0000      -0.843737       -22.9593
  31   2.0000      -0.812601       -22.1120
  32   2.0000      -0.778732       -21.1904
  33   2.0000      -0.768715       -20.9178
  34   2.0000      -0.704908       -19.1815
  35   2.0000      -0.699323       -19.0295
  36   2.0000      -0.693566       -18.8729
  37   2.0000      -0.656756       -17.8712
  38   2.0000      -0.642483       -17.4829
  39   2.0000      -0.603575       -16.4241
  40   2.0000      -0.591805       -16.1038
  41   2.0000      -0.575994       -15.6736
  42   2.0000      -0.571608       -15.5542
  43   2.0000      -0.547969       -14.9110
  44   2.0000      -0.534725       -14.5506
  45   2.0000      -0.525814       -14.3081
  46   2.0000      -0.514273       -13.9941
  47   2.0000      -0.512865       -13.9558
  48   2.0000      -0.510139       -13.8816
  49   2.0000      -0.497580       -13.5398
  50   2.0000      -0.482407       -13.1270
  51   2.0000      -0.479119       -13.0375
  52   2.0000      -0.473992       -12.8980
  53   2.0000      -0.461618       -12.5613
  54   2.0000      -0.458903       -12.4874
  55   2.0000      -0.446215       -12.1421
  56   2.0000      -0.441610       -12.0168
  57   2.0000      -0.438784       -11.9399
  58   2.0000      -0.434600       -11.8261
  59   2.0000      -0.421044       -11.4572
  60   2.0000      -0.416896       -11.3443
  61   2.0000      -0.407010       -11.0753
  62   2.0000      -0.403289       -10.9740
  63   2.0000      -0.335602        -9.1322
  64   2.0000      -0.334285        -9.0964
  65   2.0000      -0.317808        -8.6480
  66   2.0000      -0.305792        -8.3210
  67   0.0000       0.044844         1.2203
  68   0.0000       0.051681         1.4063
  69   0.0000       0.114540         3.1168
  70   0.0000       0.117283         3.1914
  71   0.0000       0.125167         3.4060

MULLIKEN ATOMIC CHARGES
-----------------------
   0 S :    0.121783
   1 C :   -0.128131
   2 C :   -0.064500
   3 C :    0.038181
   4 C :   -0.179534
   5 H :    0.013911
   6 C :    0.051414
   7 H :    0.040861
   8 H :    0.026753
   9 C :   -0.094267
  10 H :    0.031489
  11 H :    0.018598
  12 C :   -0.062226
  13 H :    0.048497
  14 H :    0.037735
  15 H :    0.031285
  16 S :    0.109998
  17 C :   -0.109067
  18 C :   -0.053722
  19 C :   -0.002586
  20 C :   -0.226155
  21 H :    0.020416
  22 C :    0.045212
  23 H :    0.030090
  24 H :    0.035963
  25 C :   -0.092050
  26 H :    0.047402
  27 H :    0.037876
  28 C :   -0.003413
  29 H :    0.028075
  30 H :    0.044410
  31 H :    0.026174
  32 H :    0.062807
  33 H :    0.066721
Sum of atomic charges:   -0.0000000

LOEWDIN ATOMIC CHARGES
----------------------
   0 S :    0.400069
   1 C :   -0.213156
   2 C :   -0.065423
   3 C :   -0.057097
   4 C :   -0.196868
   5 H :    0.034934
   6 C :   -0.036899
   7 H :    0.045927
   8 H :    0.025534
   9 C :   -0.049597
  10 H :    0.024068
  11 H :    0.022176
  12 C :   -0.069868
  13 H :    0.027552
  14 H :    0.026354
  15 H :    0.026686
  16 S :    0.407651
  17 C :   -0.177764
  18 C :   -0.076863
  19 C :   -0.052910
  20 C :   -0.220038
  21 H :    0.031409
  22 C :   -0.042920
  23 H :    0.035848
  24 H :    0.034681
  25 C :   -0.038952
  26 H :    0.037396
  27 H :    0.018996
  28 C :   -0.056864
  29 H :    0.030298
  30 H :    0.021476
  31 H :    0.030522
  32 H :    0.039505
  33 H :    0.034135

  Mayer bond orders larger than 0.100000
B(  0-S ,  1-C ) :   1.1413 B(  0-S ,  4-C ) :   1.1289 B(  1-C ,  2-C ) :   1.6197
B(  1-C , 32-H ) :   0.9563 B(  2-C ,  3-C ) :   1.2105 B(  2-C ,  6-C ) :   1.0255
B(  3-C ,  4-C ) :   1.6013 B(  3-C ,  5-H ) :   0.9934 B(  4-C , 20-C ) :   1.0150
B(  6-C ,  7-H ) :   0.9328 B(  6-C ,  8-H ) :   0.9520 B(  6-C ,  9-C ) :   1.0713
B(  9-C , 10-H ) :   0.9612 B(  9-C , 11-H ) :   0.9513 B(  9-C , 12-C ) :   1.0636
B( 12-C , 13-H ) :   0.9782 B( 12-C , 14-H ) :   0.9784 B( 12-C , 15-H ) :   0.9762
B( 16-S , 17-C ) :   1.1543 B( 16-S , 20-C ) :   1.1490 B( 17-C , 18-C ) :   1.6195
B( 17-C , 20-C ) :   0.1021 B( 17-C , 33-H ) :   0.9621 B( 18-C , 19-C ) :   1.2315
B( 18-C , 21-H ) :   0.9875 B( 19-C , 20-C ) :   1.6310 B( 19-C , 22-C ) :   1.0050
B( 22-C , 23-H ) :   0.9239 B( 22-C , 24-H ) :   0.9360 B( 22-C , 25-C ) :   1.0592
B( 25-C , 26-H ) :   0.9646 B( 25-C , 27-H ) :   0.9528 B( 25-C , 28-C ) :   1.0668
B( 28-C , 29-H ) :   0.9788 B( 28-C , 30-H ) :   0.9792 B( 28-C , 31-H ) :   0.9740

Dispersion correction           -0.014136711
FINAL SINGLE POINT ENERGY     -1339.852081862527

DIPOLE MOMENT
-------------
                                X             Y             Z
Electronic contribution:     18.27971     -19.33042      -3.82300
Nuclear contribution   :    -18.60753      19.68516       3.76551
                        -----------------------------------------
Total Dipole Moment    :     -0.32781       0.35474      -0.05749
                        -----------------------------------------
Magnitude (a.u.)       :      0.48642
Magnitude (Debye)      :      1.23638

Rotational constants in cm-1:     0.017090     0.008821     0.006825
Rotational constants in MHz :   512.348882   264.449349   204.600572

                             ****ORCA TERMINATED NORMALLY****
TOTAL RUN TIME: 0 days 0 hours 0 minutes 21 seconds 446 msec
