                         Program Version 4.2.1 -  RELEASE  -
|  1> ! wB97X-D3 SP def2-SVP
|  2> %pal
|  3> nprocs 24
|  4> end
|  5>
|  6> * xyz 0 1
|  7> S 	 -78.2038 	 -44.0823 	 -93.2854
|  8> C 	 -77.1557 	 -43.619 	 -94.6154
|  9> C 	 -77.8693 	 -43.3188 	 -95.7441
| 10> C 	 -79.2775 	 -43.6693 	 -95.6015
| 11> C 	 -79.6383 	 -44.0428 	 -94.3045
| 12> H 	 -80.0138 	 -43.6325 	 -96.4372
| 13> C 	 -77.1665 	 -42.8658 	 -97.0728
| 14> H 	 -77.823 	 -43.1326 	 -97.9066
| 15> H 	 -76.2637 	 -43.4797 	 -97.2304
| 16> C 	 -76.8411 	 -41.3737 	 -97.1788
| 17> H 	 -77.7329 	 -40.8117 	 -97.2292
| 18> H 	 -76.4677 	 -41.0935 	 -96.1907
| 19> C 	 -75.8188 	 -41.0202 	 -98.2958
| 20> H 	 -76.3254 	 -41.095 	 -99.2479
| 21> H 	 -75.4264 	 -40.0213 	 -98.2145
| 22> H 	 -75.0303 	 -41.6749 	 -98.0969
| 23> S 	 -80.9252 	 -45.8655 	 -92.7266
| 24> C 	 -82.6853 	 -45.9312 	 -92.7147
| 25> C 	 -83.219 	 -44.9487 	 -93.476
| 26> C 	 -82.2231 	 -44.1593 	 -94.1713
| 27> C 	 -80.9128 	 -44.5644 	 -93.8647
| 28> H 	 -84.289 	 -44.8701 	 -93.4471
| 29> C 	 -82.5783 	 -42.9519 	 -94.9818
| 30> H 	 -83.6677 	 -42.8935 	 -95.014
| 31> H 	 -82.0973 	 -43.1667 	 -95.9124
| 32> C 	 -81.9026 	 -41.6427 	 -94.5132
| 33> H 	 -81.6155 	 -41.1414 	 -95.424
| 34> H 	 -80.93 	 -41.8281 	 -94.0098
| 35> C 	 -82.7257 	 -40.7533 	 -93.5537
| 36> H 	 -82.0553 	 -39.8919 	 -93.3311
| 37> H 	 -82.8637 	 -41.3327 	 -92.5883
| 38> H 	 -83.6706 	 -40.4009 	 -93.9484
| 39> H 	 -76.1131 	 -43.381 	 -94.6083
| 40> H 	 -83.2642 	 -46.67 	 -92.1309
| 41> *
| 42>
| 43>                          ****END OF INPUT****

CARTESIAN COORDINATES (ANGSTROEM)
---------------------------------
  S    -78.203800  -44.082300  -93.285400
  C    -77.155700  -43.619000  -94.615400
  C    -77.869300  -43.318800  -95.744100
  C    -79.277500  -43.669300  -95.601500
  C    -79.638300  -44.042800  -94.304500
  H    -80.013800  -43.632500  -96.437200
  C    -77.166500  -42.865800  -97.072800
  H    -77.823000  -43.132600  -97.906600
  H    -76.263700  -43.479700  -97.230400
  C    -76.841100  -41.373700  -97.178800
  H    -77.732900  -40.811700  -97.229200
  H    -76.467700  -41.093500  -96.190700
  C    -75.818800  -41.020200  -98.295800
  H    -76.325400  -41.095000  -99.247900
  H    -75.426400  -40.021300  -98.214500
  H    -75.030300  -41.674900  -98.096900
  S    -80.925200  -45.865500  -92.726600
  C    -82.685300  -45.931200  -92.714700
  C    -83.219000  -44.948700  -93.476000
  C    -82.223100  -44.159300  -94.171300
  C    -80.912800  -44.564400  -93.864700
  H    -84.289000  -44.870100  -93.447100
  C    -82.578300  -42.951900  -94.981800
  H    -83.667700  -42.893500  -95.014000
  H    -82.097300  -43.166700  -95.912400
  C    -81.902600  -41.642700  -94.513200
  H    -81.615500  -41.141400  -95.424000
  H    -80.930000  -41.828100  -94.009800
  C    -82.725700  -40.753300  -93.553700
  H    -82.055300  -39.891900  -93.331100
  H    -82.863700  -41.332700  -92.588300
  H    -83.670600  -40.400900  -93.948400
  H    -76.113100  -43.381000  -94.608300
  H    -83.264200  -46.670000  -92.130900

 Total Charge           Charge          ....    0
 Multiplicity           Mult            ....    1
 Number of Electrons    NEL             ....  134
 Basis Dimension        Dim             ....  322

ORBITAL ENERGIES
----------------

  NO   OCC          E(Eh)            E(eV)
   0   2.0000     -88.969937     -2420.9951
   1   2.0000     -88.963414     -2420.8176
   2   2.0000     -10.334909      -281.2272
   3   2.0000     -10.325690      -280.9763
   4   2.0000     -10.316869      -280.7363
   5   2.0000     -10.312763      -280.6245
   6   2.0000     -10.306126      -280.4439
   7   2.0000     -10.304447      -280.3983
   8   2.0000     -10.303315      -280.3675
   9   2.0000     -10.298074      -280.2248
  10   2.0000     -10.292654      -280.0773
  11   2.0000     -10.287355      -279.9332
  12   2.0000     -10.282804      -279.8093
  13   2.0000     -10.281784      -279.7816
  14   2.0000     -10.280829      -279.7556
  15   2.0000     -10.276397      -279.6350
  16   2.0000      -8.084125      -219.9802
  17   2.0000      -8.078489      -219.8269
  18   2.0000      -6.042828      -164.4337
  19   2.0000      -6.038705      -164.3215
  20   2.0000      -6.037017      -164.2756
  21   2.0000      -6.034709      -164.2128
  22   2.0000      -6.032905      -164.1637
  23   2.0000      -6.029266      -164.0647
  24   2.0000      -1.007641       -27.4193
  25   2.0000      -0.982849       -26.7447
  26   2.0000      -0.909710       -24.7545
  27   2.0000      -0.907548       -24.6956
  28   2.0000      -0.874411       -23.7939
  29   2.0000      -0.846765       -23.0417
  30   2.0000      -0.842243       -22.9186
  31   2.0000      -0.817779       -22.2529
  32   2.0000      -0.783793       -21.3281
  33   2.0000      -0.771854       -21.0032
  34   2.0000      -0.711628       -19.3644
  35   2.0000      -0.703558       -19.1448
  36   2.0000      -0.686199       -18.6724
  37   2.0000      -0.663067       -18.0430
  38   2.0000      -0.635171       -17.2839
  39   2.0000      -0.617437       -16.8013
  40   2.0000      -0.589046       -16.0288
  41   2.0000      -0.572845       -15.5879
  42   2.0000      -0.567051       -15.4302
  43   2.0000      -0.553665       -15.0660
  44   2.0000      -0.538354       -14.6493
  45   2.0000      -0.524681       -14.2773
  46   2.0000      -0.519606       -14.1392
  47   2.0000      -0.509829       -13.8732
  48   2.0000      -0.505223       -13.7478
  49   2.0000      -0.502010       -13.6604
  50   2.0000      -0.491879       -13.3847
  51   2.0000      -0.477001       -12.9798
  52   2.0000      -0.473350       -12.8805
  53   2.0000      -0.468140       -12.7387
  54   2.0000      -0.462875       -12.5955
  55   2.0000      -0.447800       -12.1853
  56   2.0000      -0.441216       -12.0061
  57   2.0000      -0.435037       -11.8380
  58   2.0000      -0.429124       -11.6771
  59   2.0000      -0.428266       -11.6537
  60   2.0000      -0.423350       -11.5199
  61   2.0000      -0.413860       -11.2617
  62   2.0000      -0.410142       -11.1605
  63   2.0000      -0.357664        -9.7325
  64   2.0000      -0.332966        -9.0605
  65   2.0000      -0.327298        -8.9062
  66   2.0000      -0.285701        -7.7743
  67   0.0000       0.021946         0.5972
  68   0.0000       0.079165         2.1542
  69   0.0000       0.106525         2.8987
  70   0.0000       0.122272         3.3272
  71   0.0000       0.131926         3.5899

MULLIKEN ATOMIC CHARGES
-----------------------
   0 S :    0.110743
   1 C :   -0.097466
   2 C :   -0.103292
   3 C :    0.004316
   4 C :   -0.151992
   5 H :    0.027584
   6 C :    0.034851
   7 H :    0.018644
   8 H :    0.031932
   9 C :   -0.064026
  10 H :    0.014459
  11 H :    0.012856
  12 C :   -0.006316
  13 H :    0.038650
  14 H :    0.032072
  15 H :    0.020830
  16 S :    0.100634
  17 C :   -0.109439
  18 C :   -0.024582
  19 C :   -0.068374
  20 C :   -0.135097
  21 H :    0.013830
  22 C :    0.119579
  23 H :    0.021056
  24 H :    0.014733
  25 C :   -0.097985
  26 H :    0.015153
  27 H :    0.053701
  28 C :   -0.052171
  29 H :    0.039413
  30 H :    0.044837
  31 H :    0.033484
  32 H :    0.041182
  33 H :    0.066201
Sum of atomic charges:    0.0000000

LOEWDIN ATOMIC CHARGES
----------------------
   0 S :    0.398735
   1 C :   -0.193950
   2 C :   -0.060662
   3 C :   -0.067657
   4 C :   -0.190976
   5 H :    0.034323
   6 C :   -0.030540
   7 H :    0.027077
   8 H :    0.030916
   9 C :   -0.040417
  10 H :    0.016045
  11 H :    0.019557
  12 C :   -0.052788
  13 H :    0.027675
  14 H :    0.027384
  15 H :    0.018765
  16 S :    0.405273
  17 C :   -0.182917
  18 C :   -0.075258
  19 C :   -0.052491
  20 C :   -0.210403
  21 H :    0.032309
  22 C :   -0.031116
  23 H :    0.031646
  24 H :    0.030140
  25 C :   -0.043072
  26 H :    0.018151
  27 H :    0.034116
  28 C :   -0.068195
  29 H :    0.031834
  30 H :    0.034006
  31 H :    0.018189
  32 H :    0.027935
  33 H :    0.036367

  Mayer bond orders larger than 0.100000
B(  0-S ,  1-C ) :   1.1243 B(  0-S ,  4-C ) :   1.1360 B(  1-C ,  2-C ) :   1.6412
B(  1-C , 32-H ) :   0.9621 B(  2-C ,  3-C ) :   1.2461 B(  2-C ,  6-C ) :   1.0135
B(  3-C ,  4-C ) :   1.5673 B(  3-C ,  5-H ) :   0.9800 B(  4-C , 20-C ) :   1.0765
B(  6-C ,  7-H ) :   0.9432 B(  6-C ,  8-H ) :   0.9511 B(  6-C ,  9-C ) :   1.0538
B(  9-C , 10-H ) :   0.9531 B(  9-C , 11-H ) :   0.9597 B(  9-C , 12-C ) :   1.0700
B( 12-C , 13-H ) :   0.9780 B( 12-C , 14-H ) :   0.9745 B( 12-C , 15-H ) :   0.9772
B( 16-S , 17-C ) :   1.1485 B( 16-S , 20-C ) :   1.1399 B( 17-C , 18-C ) :   1.6254
B( 17-C , 33-H ) :   0.9625 B( 18-C , 19-C ) :   1.2317 B( 18-C , 21-H ) :   0.9951
B( 19-C , 20-C ) :   1.5627 B( 19-C , 22-C ) :   1.0500 B( 22-C , 23-H ) :   0.9369
B( 22-C , 24-H ) :   0.9185 B( 22-C , 25-C ) :   1.0586 B( 25-C , 26-H ) :   0.9548
B( 25-C , 27-H ) :   0.9566 B( 25-C , 28-C ) :   1.0783 B( 28-C , 29-H ) :   0.9732
B( 28-C , 30-H ) :   0.9754 B( 28-C , 31-H ) :   0.9770

Dispersion correction           -0.014424126
FINAL SINGLE POINT ENERGY     -1339.881308068218

DIPOLE MOMENT
-------------
                                X             Y             Z
Electronic contribution:     -2.04455     -22.26676      17.70020
Nuclear contribution   :      1.89618      22.66525     -18.18331
                        -----------------------------------------
Total Dipole Moment    :     -0.14837       0.39849      -0.48312
                        -----------------------------------------
Magnitude (a.u.)       :      0.64359
Magnitude (Debye)      :      1.63588

Rotational constants in cm-1:     0.021634     0.007957     0.006514
Rotational constants in MHz :   648.572234   238.543968   195.278314

                             ****ORCA TERMINATED NORMALLY****
TOTAL RUN TIME: 0 days 0 hours 0 minutes 21 seconds 849 msec
