                         Program Version 4.2.1 -  RELEASE  -
|  1> ! wB97X-D3 SP def2-SVP
|  2> %pal
|  3> nprocs 24
|  4> end
|  5>
|  6> * xyz 0 1
|  7> S 	 -107.256 	 58.6067 	 -101.878
|  8> C 	 -107.423 	 57.2134 	 -100.802
|  9> C 	 -107.578 	 57.6035 	 -99.4736
| 10> C 	 -107.731 	 58.954 	 -99.3682
| 11> C 	 -107.75 	 59.6789 	 -100.574
| 12> H 	 -107.84 	 59.4629 	 -98.4385
| 13> C 	 -107.579 	 56.688 	 -98.2644
| 14> H 	 -107.15 	 55.7729 	 -98.6322
| 15> H 	 -108.6 	 56.5204 	 -98.0857
| 16> C 	 -106.641 	 57.1419 	 -97.0416
| 17> H 	 -105.584 	 57.3196 	 -97.3516
| 18> H 	 -107.026 	 58.1339 	 -96.7617
| 19> C 	 -106.851 	 56.1869 	 -95.888
| 20> H 	 -106.745 	 55.167 	 -96.2961
| 21> H 	 -106.066 	 56.2163 	 -95.096
| 22> H 	 -107.855 	 56.2248 	 -95.4207
| 23> S 	 -106.744 	 61.932 	 -101.437
| 24> C 	 -107.645 	 63.3588 	 -101.324
| 25> C 	 -108.958 	 63.2544 	 -100.889
| 26> C 	 -109.23 	 61.8323 	 -100.657
| 27> C 	 -108.063 	 61.065 	 -100.728
| 28> H 	 -109.757 	 63.9896 	 -100.811
| 29> C 	 -110.564 	 61.2398 	 -100.324
| 30> H 	 -110.781 	 61.0935 	 -99.2697
| 31> H 	 -110.547 	 60.2475 	 -100.755
| 32> C 	 -111.804 	 61.962 	 -100.925
| 33> H 	 -111.681 	 61.678 	 -102.002
| 34> H 	 -111.68 	 63.0212 	 -100.867
| 35> C 	 -113.219 	 61.4979 	 -100.429
| 36> H 	 -113.942 	 62.269 	 -100.812
| 37> H 	 -113.237 	 61.4844 	 -99.2764
| 38> H 	 -113.412 	 60.5227 	 -100.841
| 39> H 	 -107.205 	 56.2257 	 -101.215
| 40> H 	 -107.357 	 64.335 	 -101.842
| 41> *
| 42>
| 43>                          ****END OF INPUT****

CARTESIAN COORDINATES (ANGSTROEM)
---------------------------------
  S    -107.256000   58.606700  -101.878000
  C    -107.423000   57.213400  -100.802000
  C    -107.578000   57.603500  -99.473600
  C    -107.731000   58.954000  -99.368200
  C    -107.750000   59.678900  -100.574000
  H    -107.840000   59.462900  -98.438500
  C    -107.579000   56.688000  -98.264400
  H    -107.150000   55.772900  -98.632200
  H    -108.600000   56.520400  -98.085700
  C    -106.641000   57.141900  -97.041600
  H    -105.584000   57.319600  -97.351600
  H    -107.026000   58.133900  -96.761700
  C    -106.851000   56.186900  -95.888000
  H    -106.745000   55.167000  -96.296100
  H    -106.066000   56.216300  -95.096000
  H    -107.855000   56.224800  -95.420700
  S    -106.744000   61.932000  -101.437000
  C    -107.645000   63.358800  -101.324000
  C    -108.958000   63.254400  -100.889000
  C    -109.230000   61.832300  -100.657000
  C    -108.063000   61.065000  -100.728000
  H    -109.757000   63.989600  -100.811000
  C    -110.564000   61.239800  -100.324000
  H    -110.781000   61.093500  -99.269700
  H    -110.547000   60.247500  -100.755000
  C    -111.804000   61.962000  -100.925000
  H    -111.681000   61.678000  -102.002000
  H    -111.680000   63.021200  -100.867000
  C    -113.219000   61.497900  -100.429000
  H    -113.942000   62.269000  -100.812000
  H    -113.237000   61.484400  -99.276400
  H    -113.412000   60.522700  -100.841000
  H    -107.205000   56.225700  -101.215000
  H    -107.357000   64.335000  -101.842000

 Total Charge           Charge          ....    0
 Multiplicity           Mult            ....    1
 Number of Electrons    NEL             ....  134
 Basis Dimension        Dim             ....  322

ORBITAL ENERGIES
----------------

  NO   OCC          E(Eh)            E(eV)
   0   2.0000     -88.965975     -2420.8873
   1   2.0000     -88.965033     -2420.8616
   2   2.0000     -10.324650      -280.9480
   3   2.0000     -10.317860      -280.7633
   4   2.0000     -10.317369      -280.7499
   5   2.0000     -10.315129      -280.6889
   6   2.0000     -10.306081      -280.4427
   7   2.0000     -10.298609      -280.2394
   8   2.0000     -10.298138      -280.2266
   9   2.0000     -10.294674      -280.1323
  10   2.0000     -10.291762      -280.0531
  11   2.0000     -10.290792      -280.0267
  12   2.0000     -10.287609      -279.9401
  13   2.0000     -10.285317      -279.8777
  14   2.0000     -10.285102      -279.8719
  15   2.0000     -10.283780      -279.8359
  16   2.0000      -8.081471      -219.9080
  17   2.0000      -8.080274      -219.8754
  18   2.0000      -6.039807      -164.3515
  19   2.0000      -6.038641      -164.3198
  20   2.0000      -6.035835      -164.2434
  21   2.0000      -6.034905      -164.2181
  22   2.0000      -6.032208      -164.1447
  23   2.0000      -6.031165      -164.1163
  24   2.0000      -1.010104       -27.4863
  25   2.0000      -0.985448       -26.8154
  26   2.0000      -0.908875       -24.7318
  27   2.0000      -0.905741       -24.6465
  28   2.0000      -0.869661       -23.6647
  29   2.0000      -0.850657       -23.1476
  30   2.0000      -0.847214       -23.0539
  31   2.0000      -0.810987       -22.0681
  32   2.0000      -0.781783       -21.2734
  33   2.0000      -0.764816       -20.8117
  34   2.0000      -0.709877       -19.3167
  35   2.0000      -0.697995       -18.9934
  36   2.0000      -0.690031       -18.7767
  37   2.0000      -0.652770       -17.7628
  38   2.0000      -0.640125       -17.4187
  39   2.0000      -0.623173       -16.9574
  40   2.0000      -0.597644       -16.2627
  41   2.0000      -0.567067       -15.4307
  42   2.0000      -0.565325       -15.3833
  43   2.0000      -0.554174       -15.0798
  44   2.0000      -0.527146       -14.3444
  45   2.0000      -0.517098       -14.0710
  46   2.0000      -0.515544       -14.0287
  47   2.0000      -0.508529       -13.8378
  48   2.0000      -0.502256       -13.6671
  49   2.0000      -0.500472       -13.6185
  50   2.0000      -0.491456       -13.3732
  51   2.0000      -0.473724       -12.8907
  52   2.0000      -0.467880       -12.7317
  53   2.0000      -0.465428       -12.6649
  54   2.0000      -0.463553       -12.6139
  55   2.0000      -0.455077       -12.3833
  56   2.0000      -0.449448       -12.2301
  57   2.0000      -0.442214       -12.0333
  58   2.0000      -0.428363       -11.6563
  59   2.0000      -0.424467       -11.5503
  60   2.0000      -0.420104       -11.4316
  61   2.0000      -0.413796       -11.2600
  62   2.0000      -0.409438       -11.1414
  63   2.0000      -0.335891        -9.1401
  64   2.0000      -0.332384        -9.0446
  65   2.0000      -0.325743        -8.8639
  66   2.0000      -0.290247        -7.8980
  67   0.0000       0.030979         0.8430
  68   0.0000       0.059618         1.6223
  69   0.0000       0.108159         2.9431
  70   0.0000       0.120267         3.2726
  71   0.0000       0.137171         3.7326

MULLIKEN ATOMIC CHARGES
-----------------------
   0 S :    0.113478
   1 C :   -0.154642
   2 C :   -0.064572
   3 C :    0.032807
   4 C :   -0.176882
   5 H :   -0.001863
   6 C :    0.094437
   7 H :    0.009368
   8 H :    0.036460
   9 C :   -0.092342
  10 H :    0.052126
  11 H :    0.032155
  12 C :   -0.051450
  13 H :    0.022256
  14 H :    0.040936
  15 H :    0.042843
  16 S :    0.121377
  17 C :   -0.089840
  18 C :   -0.037515
  19 C :   -0.042853
  20 C :   -0.179893
  21 H :    0.025278
  22 C :    0.085283
  23 H :    0.029674
  24 H :    0.028863
  25 C :   -0.147813
  26 H :    0.039091
  27 H :    0.023063
  28 C :   -0.054005
  29 H :    0.050473
  30 H :    0.045280
  31 H :    0.041581
  32 H :    0.051524
  33 H :    0.075321
Sum of atomic charges:   -0.0000000

LOEWDIN ATOMIC CHARGES
----------------------
   0 S :    0.396073
   1 C :   -0.194123
   2 C :   -0.069119
   3 C :   -0.058722
   4 C :   -0.205234
   5 H :    0.026150
   6 C :   -0.020562
   7 H :    0.025427
   8 H :    0.029184
   9 C :   -0.037593
  10 H :    0.035286
  11 H :    0.020672
  12 C :   -0.073962
  13 H :    0.024976
  14 H :    0.029992
  15 H :    0.031331
  16 S :    0.442392
  17 C :   -0.212839
  18 C :   -0.074591
  19 C :   -0.044032
  20 C :   -0.212789
  21 H :    0.032857
  22 C :   -0.038151
  23 H :    0.027041
  24 H :    0.033493
  25 C :   -0.047203
  26 H :    0.031341
  27 H :    0.011011
  28 C :   -0.066646
  29 H :    0.036108
  30 H :    0.032425
  31 H :    0.023945
  32 H :    0.025075
  33 H :    0.040787

  Mayer bond orders larger than 0.100000
B(  0-S ,  1-C ) :   1.1537 B(  0-S ,  4-C ) :   1.1559 B(  1-C ,  2-C ) :   1.5545
B(  1-C ,  4-C ) :   0.1194 B(  1-C , 32-H ) :   0.9696 B(  2-C ,  3-C ) :   1.2994
B(  2-C ,  6-C ) :   1.0003 B(  3-C ,  4-C ) :   1.5233 B(  3-C ,  5-H ) :   1.0026
B(  4-C , 20-C ) :   1.0602 B(  6-C ,  7-H ) :   0.9371 B(  6-C ,  8-H ) :   0.9418
B(  6-C ,  9-C ) :   1.0483 B(  9-C , 10-H ) :   0.9591 B(  9-C , 11-H ) :   0.9561
B(  9-C , 12-C ) :   1.0793 B( 12-C , 13-H ) :   0.9723 B( 12-C , 14-H ) :   0.9739
B( 12-C , 15-H ) :   0.9746 B( 16-S , 17-C ) :   1.1813 B( 16-S , 20-C ) :   1.1439
B( 17-C , 18-C ) :   1.5962 B( 17-C , 33-H ) :   0.9504 B( 18-C , 19-C ) :   1.2398
B( 18-C , 21-H ) :   0.9860 B( 19-C , 20-C ) :   1.5935 B( 19-C , 22-C ) :   1.0484
B( 22-C , 23-H ) :   0.9336 B( 22-C , 24-H ) :   0.9334 B( 22-C , 25-C ) :   1.0444
B( 25-C , 26-H ) :   0.9615 B( 25-C , 27-H ) :   0.9628 B( 25-C , 28-C ) :   1.0765
B( 28-C , 29-H ) :   0.9744 B( 28-C , 30-H ) :   0.9746 B( 28-C , 31-H ) :   0.9769

Dispersion correction           -0.013350824
FINAL SINGLE POINT ENERGY     -1339.859180063504

DIPOLE MOMENT
-------------
                                X             Y             Z
Electronic contribution:     16.27263       8.09788     -18.33840
Nuclear contribution   :    -16.62754      -8.28004      18.68883
                        -----------------------------------------
Total Dipole Moment    :     -0.35491      -0.18217       0.35043
                        -----------------------------------------
Magnitude (a.u.)       :      0.53099
Magnitude (Debye)      :      1.34966

Rotational constants in cm-1:     0.017208     0.007694     0.006500
Rotational constants in MHz :   515.877168   230.667794   194.879315

                             ****ORCA TERMINATED NORMALLY****
TOTAL RUN TIME: 0 days 0 hours 0 minutes 20 seconds 921 msec
