                         Program Version 4.2.1 -  RELEASE  -
|  1> ! wB97X-D3 SP def2-SVP
|  2> %pal
|  3> nprocs 24
|  4> end
|  5>
|  6> * xyz 0 1
|  7> S 	 -35.8711 	 13.813 	 13.9807
|  8> C 	 -35.6702 	 14.9206 	 15.3115
|  9> C 	 -35.0351 	 16.0953 	 14.9258
| 10> C 	 -34.7357 	 16.1012 	 13.5124
| 11> C 	 -35.1747 	 14.944 	 12.8665
| 12> H 	 -34.331 	 16.8909 	 12.9413
| 13> C 	 -34.7805 	 17.322 	 15.7413
| 14> H 	 -33.7184 	 17.4696 	 15.7252
| 15> H 	 -34.9745 	 16.9559 	 16.7603
| 16> C 	 -35.5725 	 18.5897 	 15.441
| 17> H 	 -35.1931 	 18.979 	 14.5323
| 18> H 	 -36.5984 	 18.3596 	 15.2373
| 19> C 	 -35.4634 	 19.7163 	 16.5327
| 20> H 	 -34.403 	 19.9149 	 16.678
| 21> H 	 -35.8436 	 20.6572 	 16.2266
| 22> H 	 -35.8961 	 19.4084 	 17.5038
| 23> S 	 -34.5761 	 13.2714 	 10.6093
| 24> C 	 -34.8278 	 14.0393 	 9.03706
| 25> C 	 -35.4313 	 15.2484 	 9.13806
| 26> C 	 -35.7163 	 15.7123 	 10.4705
| 27> C 	 -35.2851 	 14.7389 	 11.3706
| 28> H 	 -35.5805 	 15.7367 	 8.1661
| 29> C 	 -36.2418 	 17.0925 	 10.7611
| 30> H 	 -35.5693 	 17.6974 	 11.3808
| 31> H 	 -37.1689 	 16.8382 	 11.3956
| 32> C 	 -36.5779 	 17.986 	 9.56625
| 33> H 	 -37.4266 	 17.5395 	 8.96064
| 34> H 	 -35.6906 	 17.904 	 8.95483
| 35> C 	 -37.0267 	 19.3699 	 10.04
| 36> H 	 -36.2527 	 20.1135 	 10.1145
| 37> H 	 -37.5054 	 19.3569 	 11.0922
| 38> H 	 -37.7826 	 19.845 	 9.42503
| 39> H 	 -35.9029 	 14.7656 	 16.4104
| 40> H 	 -34.7565 	 13.452 	 8.13191
| 41> *
| 42>
| 43>                          ****END OF INPUT****

CARTESIAN COORDINATES (ANGSTROEM)
---------------------------------
  S    -35.871100   13.813000   13.980700
  C    -35.670200   14.920600   15.311500
  C    -35.035100   16.095300   14.925800
  C    -34.735700   16.101200   13.512400
  C    -35.174700   14.944000   12.866500
  H    -34.331000   16.890900   12.941300
  C    -34.780500   17.322000   15.741300
  H    -33.718400   17.469600   15.725200
  H    -34.974500   16.955900   16.760300
  C    -35.572500   18.589700   15.441000
  H    -35.193100   18.979000   14.532300
  H    -36.598400   18.359600   15.237300
  C    -35.463400   19.716300   16.532700
  H    -34.403000   19.914900   16.678000
  H    -35.843600   20.657200   16.226600
  H    -35.896100   19.408400   17.503800
  S    -34.576100   13.271400   10.609300
  C    -34.827800   14.039300    9.037060
  C    -35.431300   15.248400    9.138060
  C    -35.716300   15.712300   10.470500
  C    -35.285100   14.738900   11.370600
  H    -35.580500   15.736700    8.166100
  C    -36.241800   17.092500   10.761100
  H    -35.569300   17.697400   11.380800
  H    -37.168900   16.838200   11.395600
  C    -36.577900   17.986000    9.566250
  H    -37.426600   17.539500    8.960640
  H    -35.690600   17.904000    8.954830
  C    -37.026700   19.369900   10.040000
  H    -36.252700   20.113500   10.114500
  H    -37.505400   19.356900   11.092200
  H    -37.782600   19.845000    9.425030
  H    -35.902900   14.765600   16.410400
  H    -34.756500   13.452000    8.131910

 Total Charge           Charge          ....    0
 Multiplicity           Mult            ....    1
 Number of Electrons    NEL             ....  134
 Basis Dimension        Dim             ....  322

ORBITAL ENERGIES
----------------

  NO   OCC          E(Eh)            E(eV)
   0   2.0000     -88.967174     -2420.9199
   1   2.0000     -88.965504     -2420.8744
   2   2.0000     -10.333234      -281.1816
   3   2.0000     -10.329345      -281.0758
   4   2.0000     -10.317710      -280.7592
   5   2.0000     -10.314733      -280.6782
   6   2.0000     -10.308654      -280.5127
   7   2.0000     -10.300241      -280.2838
   8   2.0000     -10.300062      -280.2789
   9   2.0000     -10.295223      -280.1473
  10   2.0000     -10.294244      -280.1206
  11   2.0000     -10.290849      -280.0282
  12   2.0000     -10.289052      -279.9793
  13   2.0000     -10.286535      -279.9108
  14   2.0000     -10.286505      -279.9100
  15   2.0000     -10.281836      -279.7830
  16   2.0000      -8.082053      -219.9238
  17   2.0000      -8.079439      -219.8527
  18   2.0000      -6.040622      -164.3737
  19   2.0000      -6.038018      -164.3028
  20   2.0000      -6.036437      -164.2598
  21   2.0000      -6.034205      -164.1991
  22   2.0000      -6.032859      -164.1624
  23   2.0000      -6.030038      -164.0857
  24   2.0000      -1.000716       -27.2309
  25   2.0000      -0.981143       -26.6983
  26   2.0000      -0.913008       -24.8442
  27   2.0000      -0.911736       -24.8096
  28   2.0000      -0.863528       -23.4978
  29   2.0000      -0.852387       -23.1946
  30   2.0000      -0.844398       -22.9772
  31   2.0000      -0.812896       -22.1200
  32   2.0000      -0.783949       -21.3323
  33   2.0000      -0.772904       -21.0318
  34   2.0000      -0.713488       -19.4150
  35   2.0000      -0.705286       -19.1918
  36   2.0000      -0.691420       -18.8145
  37   2.0000      -0.646839       -17.6014
  38   2.0000      -0.636445       -17.3185
  39   2.0000      -0.620287       -16.8789
  40   2.0000      -0.600190       -16.3320
  41   2.0000      -0.573242       -15.5987
  42   2.0000      -0.570221       -15.5165
  43   2.0000      -0.556861       -15.1530
  44   2.0000      -0.524813       -14.2809
  45   2.0000      -0.521960       -14.2033
  46   2.0000      -0.513755       -13.9800
  47   2.0000      -0.508744       -13.8436
  48   2.0000      -0.504625       -13.7315
  49   2.0000      -0.496014       -13.4972
  50   2.0000      -0.486782       -13.2460
  51   2.0000      -0.479500       -13.0479
  52   2.0000      -0.475042       -12.9265
  53   2.0000      -0.466390       -12.6911
  54   2.0000      -0.455573       -12.3968
  55   2.0000      -0.451537       -12.2869
  56   2.0000      -0.447145       -12.1674
  57   2.0000      -0.439265       -11.9530
  58   2.0000      -0.429632       -11.6909
  59   2.0000      -0.426009       -11.5923
  60   2.0000      -0.423293       -11.5184
  61   2.0000      -0.421883       -11.4800
  62   2.0000      -0.418587       -11.3903
  63   2.0000      -0.341390        -9.2897
  64   2.0000      -0.331355        -9.0166
  65   2.0000      -0.329800        -8.9743
  66   2.0000      -0.295165        -8.0318
  67   0.0000       0.030538         0.8310
  68   0.0000       0.071276         1.9395
  69   0.0000       0.108441         2.9508
  70   0.0000       0.123249         3.3538
  71   0.0000       0.125402         3.4124

MULLIKEN ATOMIC CHARGES
-----------------------
   0 S :    0.118277
   1 C :   -0.131034
   2 C :   -0.125840
   3 C :    0.035259
   4 C :   -0.152892
   5 H :   -0.003442
   6 C :    0.082338
   7 H :    0.027993
   8 H :    0.001078
   9 C :   -0.037104
  10 H :    0.010966
  11 H :    0.028731
  12 C :   -0.039277
  13 H :    0.021761
  14 H :    0.027553
  15 H :    0.040510
  16 S :    0.093854
  17 C :   -0.089889
  18 C :   -0.066981
  19 C :   -0.014119
  20 C :   -0.153500
  21 H :    0.028430
  22 C :    0.014024
  23 H :    0.038486
  24 H :    0.058474
  25 C :   -0.075363
  26 H :    0.042513
  27 H :    0.037969
  28 C :   -0.047024
  29 H :    0.030589
  30 H :    0.040821
  31 H :    0.031848
  32 H :    0.065676
  33 H :    0.059315
Sum of atomic charges:   -0.0000000

LOEWDIN ATOMIC CHARGES
----------------------
   0 S :    0.417527
   1 C :   -0.216922
   2 C :   -0.064530
   3 C :   -0.057462
   4 C :   -0.196514
   5 H :    0.021645
   6 C :   -0.034998
   7 H :    0.031065
   8 H :    0.027137
   9 C :   -0.031509
  10 H :    0.017244
  11 H :    0.022969
  12 C :   -0.059217
  13 H :    0.025170
  14 H :    0.021383
  15 H :    0.028164
  16 S :    0.371077
  17 C :   -0.177237
  18 C :   -0.079298
  19 C :   -0.054640
  20 C :   -0.184134
  21 H :    0.036460
  22 C :   -0.039748
  23 H :    0.029831
  24 H :    0.049819
  25 C :   -0.047224
  26 H :    0.032188
  27 H :    0.024179
  28 C :   -0.072202
  29 H :    0.022793
  30 H :    0.038399
  31 H :    0.026820
  32 H :    0.043214
  33 H :    0.028551

  Mayer bond orders larger than 0.100000
B(  0-S ,  1-C ) :   1.1356 B(  0-S ,  4-C ) :   1.1684 B(  1-C ,  2-C ) :   1.6257
B(  1-C , 32-H ) :   0.9525 B(  2-C ,  3-C ) :   1.2269 B(  2-C ,  6-C ) :   1.0346
B(  3-C ,  4-C ) :   1.5767 B(  3-C ,  5-H ) :   1.0020 B(  4-C , 20-C ) :   1.0027
B(  6-C ,  7-H ) :   0.9292 B(  6-C ,  8-H ) :   0.9358 B(  6-C ,  9-C ) :   1.0566
B(  9-C , 10-H ) :   0.9490 B(  9-C , 11-H ) :   0.9590 B(  9-C , 12-C ) :   1.0842
B( 12-C , 13-H ) :   0.9745 B( 12-C , 14-H ) :   0.9758 B( 12-C , 15-H ) :   0.9783
B( 16-S , 17-C ) :   1.1321 B( 16-S , 20-C ) :   1.1389 B( 17-C , 18-C ) :   1.6580
B( 17-C , 33-H ) :   0.9586 B( 18-C , 19-C ) :   1.2075 B( 18-C , 21-H ) :   0.9806
B( 19-C , 20-C ) :   1.6197 B( 19-C , 22-C ) :   1.0234 B( 22-C , 23-H ) :   0.9392
B( 22-C , 24-H ) :   0.9163 B( 22-C , 25-C ) :   1.0849 B( 25-C , 26-H ) :   0.9543
B( 25-C , 27-H ) :   0.9483 B( 25-C , 28-C ) :   1.0642 B( 28-C , 29-H ) :   0.9736
B( 28-C , 30-H ) :   0.9735 B( 28-C , 31-H ) :   0.9756

Dispersion correction           -0.013981822
FINAL SINGLE POINT ENERGY     -1339.876213334772

DIPOLE MOMENT
-------------
                                X             Y             Z
Electronic contribution:      5.51856     -32.99602      -5.26417
Nuclear contribution   :     -5.64127      33.86962       5.16152
                        -----------------------------------------
Total Dipole Moment    :     -0.12271       0.87360      -0.10264
                        -----------------------------------------
Magnitude (a.u.)       :      0.88813
Magnitude (Debye)      :      2.25744

Rotational constants in cm-1:     0.016193     0.009373     0.006312
Rotational constants in MHz :   485.464893   280.982943   189.236192

                             ****ORCA TERMINATED NORMALLY****
TOTAL RUN TIME: 0 days 0 hours 0 minutes 21 seconds 573 msec
