                         Program Version 4.2.1 -  RELEASE  -
|  1> ! wB97X-D3 SP def2-SVP
|  2> %pal
|  3> nprocs 24
|  4> end
|  5>
|  6> * xyz 0 1
|  7> S 	 -61.0498 	 -3.90206 	 -17.5948
|  8> C 	 -62.0668 	 -4.20471 	 -16.2483
|  9> C 	 -61.6737 	 -3.56626 	 -15.1001
| 10> C 	 -60.3929 	 -2.93203 	 -15.3074
| 11> C 	 -59.937 	 -3.03034 	 -16.5976
| 12> H 	 -59.8348 	 -2.44123 	 -14.5407
| 13> C 	 -62.4228 	 -3.61225 	 -13.7775
| 14> H 	 -63.504 	 -3.55617 	 -13.9219
| 15> H 	 -62.291 	 -2.68593 	 -13.2194
| 16> C 	 -62.1504 	 -4.68764 	 -12.8496
| 17> H 	 -61.2449 	 -4.52601 	 -12.152
| 18> H 	 -63.0202 	 -4.80566 	 -12.1505
| 19> C 	 -61.9084 	 -6.0404 	 -13.53
| 20> H 	 -61.5984 	 -6.81007 	 -12.8391
| 21> H 	 -62.8122 	 -6.45952 	 -13.9417
| 22> H 	 -61.2922 	 -6.00051 	 -14.433
| 23> S 	 -58.2818 	 -0.943888 	 -17.0324
| 24> C 	 -56.6438 	 -1.26407 	 -17.643
| 25> C 	 -56.4794 	 -2.60469 	 -18.1068
| 26> C 	 -57.6904 	 -3.2971 	 -17.8463
| 27> C 	 -58.6964 	 -2.59078 	 -17.1833
| 28> H 	 -55.5068 	 -3.03272 	 -18.5854
| 29> C 	 -57.7613 	 -4.7005 	 -18.4075
| 30> H 	 -58.6292 	 -5.22563 	 -17.9807
| 31> H 	 -56.8802 	 -5.23113 	 -18.0916
| 32> C 	 -57.8972 	 -4.94354 	 -19.9484
| 33> H 	 -57.514 	 -5.89537 	 -20.1303
| 34> H 	 -57.1639 	 -4.34143 	 -20.5178
| 35> C 	 -59.292 	 -4.90664 	 -20.5972
| 36> H 	 -60.0939 	 -5.38643 	 -20.0444
| 37> H 	 -59.2094 	 -5.32568 	 -21.591
| 38> H 	 -59.7816 	 -3.9364 	 -20.7395
| 39> H 	 -62.9327 	 -4.85412 	 -16.33
| 40> H 	 -55.7449 	 -0.565304 	 -17.5835
| 41> *
| 42>
| 43>                          ****END OF INPUT****

CARTESIAN COORDINATES (ANGSTROEM)
---------------------------------
  S    -61.049800   -3.902060  -17.594800
  C    -62.066800   -4.204710  -16.248300
  C    -61.673700   -3.566260  -15.100100
  C    -60.392900   -2.932030  -15.307400
  C    -59.937000   -3.030340  -16.597600
  H    -59.834800   -2.441230  -14.540700
  C    -62.422800   -3.612250  -13.777500
  H    -63.504000   -3.556170  -13.921900
  H    -62.291000   -2.685930  -13.219400
  C    -62.150400   -4.687640  -12.849600
  H    -61.244900   -4.526010  -12.152000
  H    -63.020200   -4.805660  -12.150500
  C    -61.908400   -6.040400  -13.530000
  H    -61.598400   -6.810070  -12.839100
  H    -62.812200   -6.459520  -13.941700
  H    -61.292200   -6.000510  -14.433000
  S    -58.281800   -0.943888  -17.032400
  C    -56.643800   -1.264070  -17.643000
  C    -56.479400   -2.604690  -18.106800
  C    -57.690400   -3.297100  -17.846300
  C    -58.696400   -2.590780  -17.183300
  H    -55.506800   -3.032720  -18.585400
  C    -57.761300   -4.700500  -18.407500
  H    -58.629200   -5.225630  -17.980700
  H    -56.880200   -5.231130  -18.091600
  C    -57.897200   -4.943540  -19.948400
  H    -57.514000   -5.895370  -20.130300
  H    -57.163900   -4.341430  -20.517800
  C    -59.292000   -4.906640  -20.597200
  H    -60.093900   -5.386430  -20.044400
  H    -59.209400   -5.325680  -21.591000
  H    -59.781600   -3.936400  -20.739500
  H    -62.932700   -4.854120  -16.330000
  H    -55.744900   -0.565304  -17.583500

 Total Charge           Charge          ....    0
 Multiplicity           Mult            ....    1
 Number of Electrons    NEL             ....  134
 Basis Dimension        Dim             ....  322

ORBITAL ENERGIES
----------------

  NO   OCC          E(Eh)            E(eV)
   0   2.0000     -88.970357     -2421.0065
   1   2.0000     -88.966498     -2420.9015
   2   2.0000     -10.327798      -281.0337
   3   2.0000     -10.326148      -280.9888
   4   2.0000     -10.322163      -280.8803
   5   2.0000     -10.311115      -280.5797
   6   2.0000     -10.305669      -280.4315
   7   2.0000     -10.302426      -280.3433
   8   2.0000     -10.300764      -280.2980
   9   2.0000     -10.294934      -280.1394
  10   2.0000     -10.289686      -279.9966
  11   2.0000     -10.287871      -279.9472
  12   2.0000     -10.285416      -279.8804
  13   2.0000     -10.283628      -279.8317
  14   2.0000     -10.271497      -279.5016
  15   2.0000     -10.267948      -279.4051
  16   2.0000      -8.085012      -220.0044
  17   2.0000      -8.081963      -219.9214
  18   2.0000      -6.043518      -164.4525
  19   2.0000      -6.040289      -164.3646
  20   2.0000      -6.039460      -164.3421
  21   2.0000      -6.036315      -164.2565
  22   2.0000      -6.035853      -164.2439
  23   2.0000      -6.032919      -164.1641
  24   2.0000      -1.013208       -27.5708
  25   2.0000      -0.987007       -26.8578
  26   2.0000      -0.921668       -25.0799
  27   2.0000      -0.901182       -24.5224
  28   2.0000      -0.869236       -23.6531
  29   2.0000      -0.850490       -23.1430
  30   2.0000      -0.845483       -23.0068
  31   2.0000      -0.810016       -22.0417
  32   2.0000      -0.790549       -21.5119
  33   2.0000      -0.772400       -21.0181
  34   2.0000      -0.708566       -19.2811
  35   2.0000      -0.696530       -18.9536
  36   2.0000      -0.684401       -18.6235
  37   2.0000      -0.662857       -18.0372
  38   2.0000      -0.643829       -17.5195
  39   2.0000      -0.618603       -16.8330
  40   2.0000      -0.590171       -16.0594
  41   2.0000      -0.569767       -15.5041
  42   2.0000      -0.552748       -15.0410
  43   2.0000      -0.549854       -14.9623
  44   2.0000      -0.545293       -14.8382
  45   2.0000      -0.531787       -14.4707
  46   2.0000      -0.514290       -13.9945
  47   2.0000      -0.506552       -13.7840
  48   2.0000      -0.503135       -13.6910
  49   2.0000      -0.500668       -13.6239
  50   2.0000      -0.492088       -13.3904
  51   2.0000      -0.476042       -12.9538
  52   2.0000      -0.467875       -12.7315
  53   2.0000      -0.460935       -12.5427
  54   2.0000      -0.456998       -12.4355
  55   2.0000      -0.450481       -12.2582
  56   2.0000      -0.445588       -12.1251
  57   2.0000      -0.437572       -11.9069
  58   2.0000      -0.435618       -11.8538
  59   2.0000      -0.426272       -11.5995
  60   2.0000      -0.417518       -11.3612
  61   2.0000      -0.406064       -11.0496
  62   2.0000      -0.398958       -10.8562
  63   2.0000      -0.342355        -9.3160
  64   2.0000      -0.336747        -9.1634
  65   2.0000      -0.327443        -8.9102
  66   2.0000      -0.292935        -7.9712
  67   0.0000       0.029506         0.8029
  68   0.0000       0.072936         1.9847
  69   0.0000       0.107627         2.9287
  70   0.0000       0.116097         3.1592
  71   0.0000       0.120494         3.2788

MULLIKEN ATOMIC CHARGES
-----------------------
   0 S :    0.119213
   1 C :   -0.128950
   2 C :   -0.096430
   3 C :    0.044432
   4 C :   -0.159955
   5 H :    0.002963
   6 C :    0.100754
   7 H :    0.023581
   8 H :    0.018886
   9 C :   -0.094081
  10 H :    0.038369
  11 H :    0.034856
  12 C :   -0.059293
  13 H :    0.029699
  14 H :    0.004098
  15 H :    0.052879
  16 S :    0.131439
  17 C :   -0.134161
  18 C :   -0.070885
  19 C :   -0.012165
  20 C :   -0.149736
  21 H :    0.066890
  22 C :    0.042001
  23 H :    0.019091
  24 H :    0.018784
  25 C :   -0.027466
  26 H :    0.007980
  27 H :    0.016620
  28 C :   -0.050765
  29 H :    0.021859
  30 H :    0.031158
  31 H :    0.028848
  32 H :    0.048606
  33 H :    0.080883
Sum of atomic charges:    0.0000000

LOEWDIN ATOMIC CHARGES
----------------------
   0 S :    0.447973
   1 C :   -0.201745
   2 C :   -0.061238
   3 C :   -0.053381
   4 C :   -0.200357
   5 H :    0.028748
   6 C :   -0.043321
   7 H :    0.035812
   8 H :    0.036512
   9 C :   -0.049661
  10 H :    0.028691
  11 H :    0.032217
  12 C :   -0.073999
  13 H :    0.024578
  14 H :    0.017606
  15 H :    0.028409
  16 S :    0.430370
  17 C :   -0.197090
  18 C :   -0.078655
  19 C :   -0.060607
  20 C :   -0.227727
  21 H :    0.055213
  22 C :   -0.037900
  23 H :    0.020807
  24 H :    0.028885
  25 C :   -0.034825
  26 H :    0.018566
  27 H :    0.023973
  28 C :   -0.074540
  29 H :    0.017683
  30 H :    0.027737
  31 H :    0.024212
  32 H :    0.025479
  33 H :    0.041575

  Mayer bond orders larger than 0.100000
B(  0-S ,  1-C ) :   1.1549 B(  0-S ,  4-C ) :   1.1570 B(  1-C ,  2-C ) :   1.6033
B(  1-C , 32-H ) :   0.9690 B(  2-C ,  3-C ) :   1.2325 B(  2-C ,  6-C ) :   1.0303
B(  3-C ,  4-C ) :   1.5841 B(  3-C ,  5-H ) :   1.0027 B(  4-C , 20-C ) :   1.0213
B(  6-C ,  7-H ) :   0.9341 B(  6-C ,  8-H ) :   0.9287 B(  6-C ,  9-C ) :   1.0862
B(  9-C , 10-H ) :   0.9547 B(  9-C , 11-H ) :   0.9502 B(  9-C , 12-C ) :   1.0866
B( 12-C , 13-H ) :   0.9728 B( 12-C , 14-H ) :   0.9697 B( 12-C , 15-H ) :   0.9670
B( 16-S , 17-C ) :   1.1710 B( 16-S , 20-C ) :   1.1490 B( 17-C , 18-C ) :   1.5741
B( 17-C , 20-C ) :   0.1033 B( 17-C , 33-H ) :   0.9572 B( 18-C , 19-C ) :   1.2692
B( 18-C , 21-H ) :   0.9734 B( 19-C , 20-C ) :   1.5562 B( 19-C , 22-C ) :   1.0562
B( 22-C , 23-H ) :   0.9326 B( 22-C , 24-H ) :   0.9309 B( 22-C , 25-C ) :   1.0725
B( 25-C , 26-H ) :   0.9508 B( 25-C , 27-H ) :   0.9505 B( 25-C , 28-C ) :   1.0778
B( 28-C , 29-H ) :   0.9708 B( 28-C , 30-H ) :   0.9718 B( 28-C , 31-H ) :   0.9764

Dispersion correction           -0.015130212
FINAL SINGLE POINT ENERGY     -1339.867140474382

DIPOLE MOMENT
-------------
                                X             Y             Z
Electronic contribution:      4.71418      17.39086      -3.52535
Nuclear contribution   :     -4.66219     -17.71120       3.72261
                        -----------------------------------------
Total Dipole Moment    :      0.05198      -0.32035       0.19727
                        -----------------------------------------
Magnitude (a.u.)       :      0.37979
Magnitude (Debye)      :      0.96535

Rotational constants in cm-1:     0.021374     0.008665     0.007109
Rotational constants in MHz :   640.768818   259.770126   213.136936

                             ****ORCA TERMINATED NORMALLY****
TOTAL RUN TIME: 0 days 0 hours 0 minutes 21 seconds 924 msec
