                         Program Version 4.2.1 -  RELEASE  -
|  1> ! wB97X-D3 SP def2-SVP
|  2> %pal
|  3> nprocs 24
|  4> end
|  5>
|  6> * xyz 0 1
|  7> S 	 -53.8977 	 23.8345 	 -93.4958
|  8> C 	 -52.4753 	 24.8165 	 -93.618
|  9> C 	 -51.5077 	 24.1247 	 -94.3529
| 10> C 	 -51.8333 	 22.7328 	 -94.5558
| 11> C 	 -52.9956 	 22.341 	 -93.9248
| 12> H 	 -51.3011 	 21.9338 	 -95.1157
| 13> C 	 -50.1572 	 24.7878 	 -94.6274
| 14> H 	 -50.1262 	 25.6853 	 -93.9956
| 15> H 	 -50.1465 	 25.0017 	 -95.6726
| 16> C 	 -48.9051 	 24.0961 	 -94.1368
| 17> H 	 -48.6677 	 23.2125 	 -94.6376
| 18> H 	 -48.1238 	 24.8406 	 -94.3492
| 19> C 	 -48.9349 	 23.7982 	 -92.6045
| 20> H 	 -48.0129 	 23.2637 	 -92.248
| 21> H 	 -49.0086 	 24.6573 	 -91.9191
| 22> H 	 -49.8467 	 23.2076 	 -92.4127
| 23> S 	 -55.0812 	 20.7317 	 -94.9965
| 24> C 	 -54.9518 	 18.9952 	 -94.663
| 25> C 	 -53.8826 	 18.6828 	 -93.8186
| 26> C 	 -53.0419 	 19.7676 	 -93.5786
| 27> C 	 -53.5766 	 20.9983 	 -94.0039
| 28> H 	 -53.7256 	 17.6974 	 -93.5337
| 29> C 	 -51.8208 	 19.5582 	 -92.7488
| 30> H 	 -52.0146 	 19.1722 	 -91.7283
| 31> H 	 -51.4219 	 20.636 	 -92.5465
| 32> C 	 -50.6761 	 18.6989 	 -93.4046
| 33> H 	 -51.207 	 17.866 	 -93.8443
| 34> H 	 -49.9838 	 18.35 	 -92.6343
| 35> C 	 -49.7626 	 19.2228 	 -94.5061
| 36> H 	 -50.1711 	 20.0348 	 -95.1336
| 37> H 	 -49.3555 	 18.4071 	 -95.0971
| 38> H 	 -48.8834 	 19.7061 	 -94.0235
| 39> H 	 -52.1914 	 25.7271 	 -93.1038
| 40> H 	 -55.7722 	 18.295 	 -94.8454
| 41> *
| 42>
| 43>                          ****END OF INPUT****

CARTESIAN COORDINATES (ANGSTROEM)
---------------------------------
  S    -53.897700   23.834500  -93.495800
  C    -52.475300   24.816500  -93.618000
  C    -51.507700   24.124700  -94.352900
  C    -51.833300   22.732800  -94.555800
  C    -52.995600   22.341000  -93.924800
  H    -51.301100   21.933800  -95.115700
  C    -50.157200   24.787800  -94.627400
  H    -50.126200   25.685300  -93.995600
  H    -50.146500   25.001700  -95.672600
  C    -48.905100   24.096100  -94.136800
  H    -48.667700   23.212500  -94.637600
  H    -48.123800   24.840600  -94.349200
  C    -48.934900   23.798200  -92.604500
  H    -48.012900   23.263700  -92.248000
  H    -49.008600   24.657300  -91.919100
  H    -49.846700   23.207600  -92.412700
  S    -55.081200   20.731700  -94.996500
  C    -54.951800   18.995200  -94.663000
  C    -53.882600   18.682800  -93.818600
  C    -53.041900   19.767600  -93.578600
  C    -53.576600   20.998300  -94.003900
  H    -53.725600   17.697400  -93.533700
  C    -51.820800   19.558200  -92.748800
  H    -52.014600   19.172200  -91.728300
  H    -51.421900   20.636000  -92.546500
  C    -50.676100   18.698900  -93.404600
  H    -51.207000   17.866000  -93.844300
  H    -49.983800   18.350000  -92.634300
  C    -49.762600   19.222800  -94.506100
  H    -50.171100   20.034800  -95.133600
  H    -49.355500   18.407100  -95.097100
  H    -48.883400   19.706100  -94.023500
  H    -52.191400   25.727100  -93.103800
  H    -55.772200   18.295000  -94.845400

 Total Charge           Charge          ....    0
 Multiplicity           Mult            ....    1
 Number of Electrons    NEL             ....  134
 Basis Dimension        Dim             ....  322

ORBITAL ENERGIES
----------------

  NO   OCC          E(Eh)            E(eV)
   0   2.0000     -88.969983     -2420.9963
   1   2.0000     -88.964630     -2420.8506
   2   2.0000     -10.336212      -281.2626
   3   2.0000     -10.333902      -281.1998
   4   2.0000     -10.322370      -280.8860
   5   2.0000     -10.316007      -280.7128
   6   2.0000     -10.304775      -280.4072
   7   2.0000     -10.304391      -280.3967
   8   2.0000     -10.302560      -280.3469
   9   2.0000     -10.300613      -280.2939
  10   2.0000     -10.290318      -280.0138
  11   2.0000     -10.289622      -279.9948
  12   2.0000     -10.289043      -279.9791
  13   2.0000     -10.284525      -279.8562
  14   2.0000     -10.282805      -279.8094
  15   2.0000     -10.281700      -279.7793
  16   2.0000      -8.083196      -219.9549
  17   2.0000      -8.078969      -219.8399
  18   2.0000      -6.041777      -164.4051
  19   2.0000      -6.038001      -164.3023
  20   2.0000      -6.037663      -164.2932
  21   2.0000      -6.033888      -164.1904
  22   2.0000      -6.033706      -164.1855
  23   2.0000      -6.029352      -164.0670
  24   2.0000      -1.001331       -27.2476
  25   2.0000      -0.980779       -26.6884
  26   2.0000      -0.913226       -24.8501
  27   2.0000      -0.903618       -24.5887
  28   2.0000      -0.869580       -23.6625
  29   2.0000      -0.853807       -23.2333
  30   2.0000      -0.839165       -22.8348
  31   2.0000      -0.814603       -22.1665
  32   2.0000      -0.782812       -21.3014
  33   2.0000      -0.770781       -20.9740
  34   2.0000      -0.710966       -19.3464
  35   2.0000      -0.693912       -18.8823
  36   2.0000      -0.692673       -18.8486
  37   2.0000      -0.660344       -17.9689
  38   2.0000      -0.639812       -17.4102
  39   2.0000      -0.616464       -16.7749
  40   2.0000      -0.595665       -16.2089
  41   2.0000      -0.569839       -15.5061
  42   2.0000      -0.563520       -15.3342
  43   2.0000      -0.551833       -15.0161
  44   2.0000      -0.543495       -14.7893
  45   2.0000      -0.535221       -14.5641
  46   2.0000      -0.519344       -14.1321
  47   2.0000      -0.517071       -14.0702
  48   2.0000      -0.503369       -13.6974
  49   2.0000      -0.495109       -13.4726
  50   2.0000      -0.485513       -13.2115
  51   2.0000      -0.475023       -12.9260
  52   2.0000      -0.467005       -12.7079
  53   2.0000      -0.459289       -12.4979
  54   2.0000      -0.456360       -12.4182
  55   2.0000      -0.446578       -12.1520
  56   2.0000      -0.444103       -12.0847
  57   2.0000      -0.439343       -11.9551
  58   2.0000      -0.439219       -11.9518
  59   2.0000      -0.425539       -11.5795
  60   2.0000      -0.419876       -11.4254
  61   2.0000      -0.408006       -11.1024
  62   2.0000      -0.405690       -11.0394
  63   2.0000      -0.344632        -9.3779
  64   2.0000      -0.336033        -9.1439
  65   2.0000      -0.324519        -8.8306
  66   2.0000      -0.292437        -7.9576
  67   0.0000       0.022903         0.6232
  68   0.0000       0.048977         1.3327
  69   0.0000       0.108297         2.9469
  70   0.0000       0.114725         3.1218
  71   0.0000       0.117659         3.2017

MULLIKEN ATOMIC CHARGES
-----------------------
   0 S :    0.101826
   1 C :   -0.101309
   2 C :   -0.127467
   3 C :    0.032969
   4 C :   -0.172593
   5 H :    0.027305
   6 C :    0.079917
   7 H :    0.011399
   8 H :    0.041251
   9 C :   -0.042532
  10 H :    0.020227
  11 H :    0.031621
  12 C :   -0.102521
  13 H :    0.043856
  14 H :    0.026028
  15 H :    0.052094
  16 S :    0.100425
  17 C :   -0.099415
  18 C :   -0.006834
  19 C :   -0.013089
  20 C :   -0.145118
  21 H :    0.001501
  22 C :    0.000851
  23 H :    0.047900
  24 H :    0.038942
  25 C :   -0.069420
  26 H :    0.023092
  27 H :    0.033715
  28 C :   -0.059996
  29 H :    0.031439
  30 H :    0.040018
  31 H :    0.028334
  32 H :    0.058838
  33 H :    0.066745
Sum of atomic charges:    0.0000000

LOEWDIN ATOMIC CHARGES
----------------------
   0 S :    0.385100
   1 C :   -0.200947
   2 C :   -0.064807
   3 C :   -0.060689
   4 C :   -0.181818
   5 H :    0.037608
   6 C :   -0.028979
   7 H :    0.032358
   8 H :    0.031671
   9 C :   -0.036921
  10 H :    0.012613
  11 H :    0.029218
  12 C :   -0.074867
  13 H :    0.031554
  14 H :    0.022851
  15 H :    0.028524
  16 S :    0.372725
  17 C :   -0.175756
  18 C :   -0.060039
  19 C :   -0.060906
  20 C :   -0.175847
  21 H :    0.022537
  22 C :   -0.041052
  23 H :    0.039006
  24 H :    0.036688
  25 C :   -0.043214
  26 H :    0.019588
  27 H :    0.028673
  28 C :   -0.070570
  29 H :    0.022188
  30 H :    0.030213
  31 H :    0.027327
  32 H :    0.034830
  33 H :    0.031138

  Mayer bond orders larger than 0.100000
B(  0-S ,  1-C ) :   1.1371 B(  0-S ,  4-C ) :   1.1250 B(  1-C ,  2-C ) :   1.6126
B(  1-C ,  4-C ) :   0.1003 B(  1-C , 32-H ) :   0.9631 B(  2-C ,  3-C ) :   1.2071
B(  2-C ,  6-C ) :   1.0256 B(  3-C ,  4-C ) :   1.5797 B(  3-C ,  5-H ) :   0.9898
B(  4-C , 20-C ) :   1.0500 B(  6-C ,  7-H ) :   0.9469 B(  6-C ,  8-H ) :   0.9334
B(  6-C ,  9-C ) :   1.0733 B(  9-C , 10-H ) :   0.9538 B(  9-C , 11-H ) :   0.9561
B(  9-C , 12-C ) :   1.0677 B( 12-C , 13-H ) :   0.9761 B( 12-C , 14-H ) :   0.9744
B( 12-C , 15-H ) :   0.9733 B( 16-S , 17-C ) :   1.1517 B( 16-S , 20-C ) :   1.1276
B( 17-C , 18-C ) :   1.6105 B( 17-C , 20-C ) :   0.1087 B( 17-C , 33-H ) :   0.9594
B( 18-C , 19-C ) :   1.2420 B( 18-C , 21-H ) :   0.9954 B( 19-C , 20-C ) :   1.5869
B( 19-C , 22-C ) :   1.0503 B( 22-C , 23-H ) :   0.9417 B( 22-C , 24-H ) :   0.9383
B( 22-C , 25-C ) :   1.0489 B( 25-C , 26-H ) :   0.9646 B( 25-C , 27-H ) :   0.9582
B( 25-C , 28-C ) :   1.0735 B( 28-C , 29-H ) :   0.9746 B( 28-C , 30-H ) :   0.9707
B( 28-C , 31-H ) :   0.9765

Dispersion correction           -0.015669922
FINAL SINGLE POINT ENERGY     -1339.855177158062

DIPOLE MOMENT
-------------
                                X             Y             Z
Electronic contribution:    -30.01925       3.85096      -4.28567
Nuclear contribution   :     30.72986      -4.12398       4.39008
                        -----------------------------------------
Total Dipole Moment    :      0.71061      -0.27302       0.10441
                        -----------------------------------------
Magnitude (a.u.)       :      0.76838
Magnitude (Debye)      :      1.95307

Rotational constants in cm-1:     0.017879     0.010430     0.007281
Rotational constants in MHz :   536.013484   312.677096   218.266005

                             ****ORCA TERMINATED NORMALLY****
TOTAL RUN TIME: 0 days 0 hours 0 minutes 22 seconds 951 msec
