                         Program Version 4.2.1 -  RELEASE  -
|  1> ! wB97X-D3 SP def2-SVP
|  2> %pal
|  3> nprocs 24
|  4> end
|  5>
|  6> * xyz 0 1
|  7> S 	 21.2088 	 -1.92561 	 -114.109
|  8> C 	 19.5529 	 -1.69696 	 -114.394
|  9> C 	 18.9994 	 -0.510174 	 -113.868
| 10> C 	 20.0871 	 0.256432 	 -113.272
| 11> C 	 21.3829 	 -0.357146 	 -113.301
| 12> H 	 20.0174 	 1.19455 	 -112.767
| 13> C 	 17.5124 	 -0.26228 	 -113.423
| 14> H 	 17.1323 	 0.333546 	 -114.256
| 15> H 	 17.4437 	 0.365302 	 -112.57
| 16> C 	 16.5904 	 -1.46947 	 -113.196
| 17> H 	 15.6204 	 -1.0123 	 -112.961
| 18> H 	 16.4846 	 -2.06811 	 -114.114
| 19> C 	 17.0905 	 -2.45615 	 -112.164
| 20> H 	 17.4072 	 -1.98962 	 -111.224
| 21> H 	 16.3253 	 -3.19465 	 -111.937
| 22> H 	 17.8961 	 -3.19965 	 -112.545
| 23> S 	 23.8445 	 0.598199 	 -114.191
| 24> C 	 24.8794 	 1.40398 	 -112.999
| 25> C 	 24.2397 	 1.49105 	 -111.759
| 26> C 	 22.955 	 0.893062 	 -111.723
| 27> C 	 22.6443 	 0.266294 	 -112.936
| 28> H 	 24.658 	 2.17016 	 -111.048
| 29> C 	 22.0772 	 0.978939 	 -110.493
| 30> H 	 21.1041 	 0.49473 	 -110.694
| 31> H 	 21.9185 	 2.03011 	 -110.366
| 32> C 	 22.5698 	 0.235227 	 -109.239
| 33> H 	 21.716 	 0.133568 	 -108.51
| 34> H 	 23.3282 	 0.805252 	 -108.691
| 35> C 	 22.957 	 -1.28342 	 -109.36
| 36> H 	 22.1106 	 -1.85741 	 -109.679
| 37> H 	 23.4222 	 -1.5649 	 -108.466
| 38> H 	 23.7791 	 -1.43964 	 -110.008
| 39> H 	 18.8916 	 -2.51653 	 -114.705
| 40> H 	 25.832 	 1.92229 	 -113.086
| 41> *
| 42>
| 43>                          ****END OF INPUT****

CARTESIAN COORDINATES (ANGSTROEM)
---------------------------------
  S     21.208800   -1.925610  -114.109000
  C     19.552900   -1.696960  -114.394000
  C     18.999400   -0.510174  -113.868000
  C     20.087100    0.256432  -113.272000
  C     21.382900   -0.357146  -113.301000
  H     20.017400    1.194550  -112.767000
  C     17.512400   -0.262280  -113.423000
  H     17.132300    0.333546  -114.256000
  H     17.443700    0.365302  -112.570000
  C     16.590400   -1.469470  -113.196000
  H     15.620400   -1.012300  -112.961000
  H     16.484600   -2.068110  -114.114000
  C     17.090500   -2.456150  -112.164000
  H     17.407200   -1.989620  -111.224000
  H     16.325300   -3.194650  -111.937000
  H     17.896100   -3.199650  -112.545000
  S     23.844500    0.598199  -114.191000
  C     24.879400    1.403980  -112.999000
  C     24.239700    1.491050  -111.759000
  C     22.955000    0.893062  -111.723000
  C     22.644300    0.266294  -112.936000
  H     24.658000    2.170160  -111.048000
  C     22.077200    0.978939  -110.493000
  H     21.104100    0.494730  -110.694000
  H     21.918500    2.030110  -110.366000
  C     22.569800    0.235227  -109.239000
  H     21.716000    0.133568  -108.510000
  H     23.328200    0.805252  -108.691000
  C     22.957000   -1.283420  -109.360000
  H     22.110600   -1.857410  -109.679000
  H     23.422200   -1.564900  -108.466000
  H     23.779100   -1.439640  -110.008000
  H     18.891600   -2.516530  -114.705000
  H     25.832000    1.922290  -113.086000

 Total Charge           Charge          ....    0
 Multiplicity           Mult            ....    1
 Number of Electrons    NEL             ....  134
 Basis Dimension        Dim             ....  322

ORBITAL ENERGIES
----------------

  NO   OCC          E(Eh)            E(eV)
   0   2.0000     -88.969426     -2420.9812
   1   2.0000     -88.968935     -2420.9678
   2   2.0000     -10.331162      -281.1252
   3   2.0000     -10.327282      -281.0196
   4   2.0000     -10.319375      -280.8045
   5   2.0000     -10.316438      -280.7246
   6   2.0000     -10.308401      -280.5058
   7   2.0000     -10.301886      -280.3286
   8   2.0000     -10.298679      -280.2413
   9   2.0000     -10.296619      -280.1853
  10   2.0000     -10.293235      -280.0932
  11   2.0000     -10.290782      -280.0264
  12   2.0000     -10.290332      -280.0142
  13   2.0000     -10.290106      -280.0080
  14   2.0000     -10.283794      -279.8362
  15   2.0000     -10.266010      -279.3523
  16   2.0000      -8.083844      -219.9726
  17   2.0000      -8.083050      -219.9510
  18   2.0000      -6.042253      -164.4181
  19   2.0000      -6.041655      -164.4018
  20   2.0000      -6.038160      -164.3067
  21   2.0000      -6.037774      -164.2962
  22   2.0000      -6.034869      -164.2171
  23   2.0000      -6.033691      -164.1851
  24   2.0000      -0.999467       -27.1969
  25   2.0000      -0.978332       -26.6218
  26   2.0000      -0.909961       -24.7613
  27   2.0000      -0.902798       -24.5664
  28   2.0000      -0.865584       -23.5537
  29   2.0000      -0.848768       -23.0962
  30   2.0000      -0.844349       -22.9759
  31   2.0000      -0.806907       -21.9570
  32   2.0000      -0.787160       -21.4197
  33   2.0000      -0.775903       -21.1134
  34   2.0000      -0.704013       -19.1572
  35   2.0000      -0.699172       -19.0254
  36   2.0000      -0.689146       -18.7526
  37   2.0000      -0.657687       -17.8966
  38   2.0000      -0.638869       -17.3845
  39   2.0000      -0.604808       -16.4576
  40   2.0000      -0.587580       -15.9889
  41   2.0000      -0.578750       -15.7486
  42   2.0000      -0.560440       -15.2504
  43   2.0000      -0.553827       -15.0704
  44   2.0000      -0.539882       -14.6909
  45   2.0000      -0.530763       -14.4428
  46   2.0000      -0.516950       -14.0669
  47   2.0000      -0.513605       -13.9759
  48   2.0000      -0.497729       -13.5439
  49   2.0000      -0.489813       -13.3285
  50   2.0000      -0.484035       -13.1713
  51   2.0000      -0.477225       -12.9859
  52   2.0000      -0.473459       -12.8835
  53   2.0000      -0.465051       -12.6547
  54   2.0000      -0.463193       -12.6041
  55   2.0000      -0.446086       -12.1386
  56   2.0000      -0.440913       -11.9978
  57   2.0000      -0.436884       -11.8882
  58   2.0000      -0.428684       -11.6651
  59   2.0000      -0.425559       -11.5801
  60   2.0000      -0.418411       -11.3856
  61   2.0000      -0.415242       -11.2993
  62   2.0000      -0.407753       -11.0955
  63   2.0000      -0.342578        -9.3220
  64   2.0000      -0.331435        -9.0188
  65   2.0000      -0.322740        -8.7822
  66   2.0000      -0.290280        -7.8989
  67   0.0000       0.031883         0.8676
  68   0.0000       0.060910         1.6574
  69   0.0000       0.105751         2.8776
  70   0.0000       0.111474         3.0334
  71   0.0000       0.133693         3.6380

MULLIKEN ATOMIC CHARGES
-----------------------
   0 S :    0.129775
   1 C :   -0.122554
   2 C :   -0.080566
   3 C :    0.033153
   4 C :   -0.209960
   5 H :    0.007308
   6 C :    0.056730
   7 H :    0.039154
   8 H :    0.024525
   9 C :   -0.069975
  10 H :    0.036925
  11 H :    0.029186
  12 C :   -0.071034
  13 H :    0.036781
  14 H :    0.028978
  15 H :    0.040783
  16 S :    0.122927
  17 C :   -0.095863
  18 C :   -0.043144
  19 C :   -0.046263
  20 C :   -0.146410
  21 H :    0.014438
  22 C :    0.101835
  23 H :    0.022601
  24 H :    0.034207
  25 C :   -0.124351
  26 H :    0.033752
  27 H :    0.026610
  28 C :   -0.001762
  29 H :    0.039936
  30 H :    0.015529
  31 H :    0.021675
  32 H :    0.057711
  33 H :    0.057364
Sum of atomic charges:    0.0000000

LOEWDIN ATOMIC CHARGES
----------------------
   0 S :    0.428207
   1 C :   -0.214778
   2 C :   -0.068776
   3 C :   -0.049347
   4 C :   -0.206262
   5 H :    0.022758
   6 C :   -0.026788
   7 H :    0.036782
   8 H :    0.025264
   9 C :   -0.045064
  10 H :    0.031269
  11 H :    0.025782
  12 C :   -0.076700
  13 H :    0.024232
  14 H :    0.025690
  15 H :    0.036705
  16 S :    0.400258
  17 C :   -0.184726
  18 C :   -0.071688
  19 C :   -0.052255
  20 C :   -0.202809
  21 H :    0.028090
  22 C :   -0.034609
  23 H :    0.033459
  24 H :    0.032854
  25 C :   -0.043152
  26 H :    0.030174
  27 H :    0.017800
  28 C :   -0.055079
  29 H :    0.026134
  30 H :    0.022991
  31 H :    0.020816
  32 H :    0.028038
  33 H :    0.034732

  Mayer bond orders larger than 0.100000
B(  0-S ,  1-C ) :   1.1825 B(  0-S ,  4-C ) :   1.1442 B(  1-C ,  2-C ) :   1.5864
B(  1-C , 32-H ) :   0.9518 B(  2-C ,  3-C ) :   1.2661 B(  2-C ,  6-C ) :   0.9919
B(  3-C ,  4-C ) :   1.5532 B(  3-C ,  5-H ) :   0.9878 B(  4-C , 20-C ) :   1.0538
B(  6-C ,  7-H ) :   0.9331 B(  6-C ,  8-H ) :   0.9575 B(  6-C ,  9-C ) :   1.0865
B(  9-C , 10-H ) :   0.9514 B(  9-C , 11-H ) :   0.9506 B(  9-C , 12-C ) :   1.0815
B( 12-C , 13-H ) :   0.9770 B( 12-C , 14-H ) :   0.9700 B( 12-C , 15-H ) :   0.9680
B( 16-S , 17-C ) :   1.1460 B( 16-S , 20-C ) :   1.1377 B( 17-C , 18-C ) :   1.6248
B( 17-C , 33-H ) :   0.9631 B( 18-C , 19-C ) :   1.2430 B( 18-C , 21-H ) :   0.9868
B( 19-C , 20-C ) :   1.5806 B( 19-C , 22-C ) :   1.0452 B( 22-C , 23-H ) :   0.9254
B( 22-C , 24-H ) :   0.9331 B( 22-C , 25-C ) :   1.0669 B( 25-C , 26-H ) :   0.9619
B( 25-C , 27-H ) :   0.9583 B( 25-C , 28-C ) :   1.0728 B( 28-C , 29-H ) :   0.9778
B( 28-C , 30-H ) :   0.9692 B( 28-C , 31-H ) :   0.9711

Dispersion correction           -0.014964836
FINAL SINGLE POINT ENERGY     -1339.860771312045

DIPOLE MOMENT
-------------
                                X             Y             Z
Electronic contribution:     17.03637       3.48912     -19.45208
Nuclear contribution   :    -17.53371      -3.25124      20.00864
                        -----------------------------------------
Total Dipole Moment    :     -0.49734       0.23788       0.55655
                        -----------------------------------------
Magnitude (a.u.)       :      0.78338
Magnitude (Debye)      :      1.99119

Rotational constants in cm-1:     0.020665     0.008484     0.007036
Rotational constants in MHz :   619.508579   254.338276   210.927417

                             ****ORCA TERMINATED NORMALLY****
TOTAL RUN TIME: 0 days 0 hours 0 minutes 21 seconds 972 msec
