                         Program Version 4.2.1 -  RELEASE  -
|  1> ! wB97X-D3 SP def2-SVP
|  2> %pal
|  3> nprocs 24
|  4> end
|  5>
|  6> * xyz 0 1
|  7> S 	 -71.1195 	 15.0732 	 -77.2895
|  8> C 	 -69.6231 	 14.9836 	 -78.1813
|  9> C 	 -68.7119 	 14.0889 	 -77.6373
| 10> C 	 -69.2818 	 13.3891 	 -76.5162
| 11> C 	 -70.545 	 13.8767 	 -76.1656
| 12> H 	 -68.8466 	 12.5472 	 -76.0681
| 13> C 	 -67.3991 	 13.7121 	 -78.2283
| 14> H 	 -67.3789 	 14.1487 	 -79.2519
| 15> H 	 -67.2426 	 12.6466 	 -78.4757
| 16> C 	 -66.1469 	 14.2703 	 -77.5218
| 17> H 	 -65.2477 	 14.083 	 -77.9548
| 18> H 	 -66.2804 	 15.3901 	 -77.5622
| 19> C 	 -66.1126 	 13.8497 	 -76.0583
| 20> H 	 -65.955 	 12.7919 	 -75.928
| 21> H 	 -65.3105 	 14.3723 	 -75.5547
| 22> H 	 -67.0225 	 14.2384 	 -75.504
| 23> S 	 -73.0629 	 13.0463 	 -75.5109
| 24> C 	 -73.3918 	 12.5526 	 -73.8124
| 25> C 	 -72.2773 	 12.5544 	 -73.0107
| 26> C 	 -71.1369 	 12.93 	 -73.8021
| 27> C 	 -71.4414 	 13.353 	 -75.0896
| 28> H 	 -72.3306 	 12.208 	 -71.9643
| 29> C 	 -69.7959 	 12.6888 	 -73.2135
| 30> H 	 -69.091 	 12.4117 	 -73.9606
| 31> H 	 -69.8284 	 11.8063 	 -72.5416
| 32> C 	 -69.1625 	 13.7692 	 -72.3643
| 33> H 	 -69.7327 	 14.1477 	 -71.5121
| 34> H 	 -69.2347 	 14.7098 	 -72.8863
| 35> C 	 -67.7826 	 13.4503 	 -71.91
| 36> H 	 -67.3224 	 14.3498 	 -71.4471
| 37> H 	 -67.1483 	 13.1267 	 -72.7396
| 38> H 	 -67.6941 	 12.5983 	 -71.2431
| 39> H 	 -69.4329 	 15.5634 	 -79.0744
| 40> H 	 -74.3287 	 12.2429 	 -73.4942
| 41> *
| 42>
| 43>                          ****END OF INPUT****

CARTESIAN COORDINATES (ANGSTROEM)
---------------------------------
  S    -71.119500   15.073200  -77.289500
  C    -69.623100   14.983600  -78.181300
  C    -68.711900   14.088900  -77.637300
  C    -69.281800   13.389100  -76.516200
  C    -70.545000   13.876700  -76.165600
  H    -68.846600   12.547200  -76.068100
  C    -67.399100   13.712100  -78.228300
  H    -67.378900   14.148700  -79.251900
  H    -67.242600   12.646600  -78.475700
  C    -66.146900   14.270300  -77.521800
  H    -65.247700   14.083000  -77.954800
  H    -66.280400   15.390100  -77.562200
  C    -66.112600   13.849700  -76.058300
  H    -65.955000   12.791900  -75.928000
  H    -65.310500   14.372300  -75.554700
  H    -67.022500   14.238400  -75.504000
  S    -73.062900   13.046300  -75.510900
  C    -73.391800   12.552600  -73.812400
  C    -72.277300   12.554400  -73.010700
  C    -71.136900   12.930000  -73.802100
  C    -71.441400   13.353000  -75.089600
  H    -72.330600   12.208000  -71.964300
  C    -69.795900   12.688800  -73.213500
  H    -69.091000   12.411700  -73.960600
  H    -69.828400   11.806300  -72.541600
  C    -69.162500   13.769200  -72.364300
  H    -69.732700   14.147700  -71.512100
  H    -69.234700   14.709800  -72.886300
  C    -67.782600   13.450300  -71.910000
  H    -67.322400   14.349800  -71.447100
  H    -67.148300   13.126700  -72.739600
  H    -67.694100   12.598300  -71.243100
  H    -69.432900   15.563400  -79.074400
  H    -74.328700   12.242900  -73.494200

 Total Charge           Charge          ....    0
 Multiplicity           Mult            ....    1
 Number of Electrons    NEL             ....  134
 Basis Dimension        Dim             ....  322

ORBITAL ENERGIES
----------------

  NO   OCC          E(Eh)            E(eV)
   0   2.0000     -88.970658     -2421.0147
   1   2.0000     -88.966507     -2420.9017
   2   2.0000     -10.332756      -281.1686
   3   2.0000     -10.326386      -280.9952
   4   2.0000     -10.315559      -280.7006
   5   2.0000     -10.314262      -280.6653
   6   2.0000     -10.302643      -280.3492
   7   2.0000     -10.300691      -280.2961
   8   2.0000     -10.297711      -280.2150
   9   2.0000     -10.293084      -280.0890
  10   2.0000     -10.292298      -280.0677
  11   2.0000     -10.285024      -279.8697
  12   2.0000     -10.281978      -279.7869
  13   2.0000     -10.276009      -279.6244
  14   2.0000     -10.275611      -279.6136
  15   2.0000     -10.274653      -279.5875
  16   2.0000      -8.085474      -220.0169
  17   2.0000      -8.081429      -219.9069
  18   2.0000      -6.043902      -164.4629
  19   2.0000      -6.040023      -164.3574
  20   2.0000      -6.039879      -164.3535
  21   2.0000      -6.036274      -164.2554
  22   2.0000      -6.036078      -164.2500
  23   2.0000      -6.032074      -164.1411
  24   2.0000      -1.007814       -27.4240
  25   2.0000      -0.985194       -26.8085
  26   2.0000      -0.916294       -24.9336
  27   2.0000      -0.912810       -24.8388
  28   2.0000      -0.869116       -23.6498
  29   2.0000      -0.853871       -23.2350
  30   2.0000      -0.847271       -23.0554
  31   2.0000      -0.818012       -22.2592
  32   2.0000      -0.782171       -21.2839
  33   2.0000      -0.769514       -20.9395
  34   2.0000      -0.706382       -19.2216
  35   2.0000      -0.701719       -19.0947
  36   2.0000      -0.694535       -18.8992
  37   2.0000      -0.667438       -18.1619
  38   2.0000      -0.642903       -17.4943
  39   2.0000      -0.621452       -16.9106
  40   2.0000      -0.602377       -16.3915
  41   2.0000      -0.577426       -15.7126
  42   2.0000      -0.559197       -15.2165
  43   2.0000      -0.551379       -15.0038
  44   2.0000      -0.541835       -14.7441
  45   2.0000      -0.530275       -14.4295
  46   2.0000      -0.513789       -13.9809
  47   2.0000      -0.508168       -13.8280
  48   2.0000      -0.505090       -13.7442
  49   2.0000      -0.497779       -13.5453
  50   2.0000      -0.491694       -13.3797
  51   2.0000      -0.484804       -13.1922
  52   2.0000      -0.473405       -12.8820
  53   2.0000      -0.465630       -12.6704
  54   2.0000      -0.458886       -12.4869
  55   2.0000      -0.452448       -12.3117
  56   2.0000      -0.443250       -12.0614
  57   2.0000      -0.438235       -11.9250
  58   2.0000      -0.431682       -11.7467
  59   2.0000      -0.429287       -11.6815
  60   2.0000      -0.424309       -11.5460
  61   2.0000      -0.414044       -11.2667
  62   2.0000      -0.397166       -10.8074
  63   2.0000      -0.352353        -9.5880
  64   2.0000      -0.332726        -9.0539
  65   2.0000      -0.328643        -8.9428
  66   2.0000      -0.287594        -7.8258
  67   0.0000       0.029183         0.7941
  68   0.0000       0.074774         2.0347
  69   0.0000       0.100146         2.7251
  70   0.0000       0.117830         3.2063
  71   0.0000       0.125726         3.4212

MULLIKEN ATOMIC CHARGES
-----------------------
   0 S :    0.117074
   1 C :   -0.117901
   2 C :   -0.080408
   3 C :    0.030510
   4 C :   -0.133236
   5 H :    0.006740
   6 C :    0.034974
   7 H :    0.014273
   8 H :    0.040618
   9 C :   -0.029760
  10 H :    0.009142
  11 H :    0.026649
  12 C :   -0.084754
  13 H :    0.030997
  14 H :    0.025089
  15 H :    0.058536
  16 S :    0.100892
  17 C :   -0.071755
  18 C :   -0.023513
  19 C :   -0.039014
  20 C :   -0.126392
  21 H :    0.039514
  22 C :    0.072056
  23 H :   -0.011613
  24 H :    0.019805
  25 C :   -0.051169
  26 H :    0.010296
  27 H :    0.013458
  28 C :   -0.037873
  29 H :    0.042206
  30 H :    0.019246
  31 H :    0.023499
  32 H :    0.046950
  33 H :    0.024862
Sum of atomic charges:   -0.0000000

LOEWDIN ATOMIC CHARGES
----------------------
   0 S :    0.415379
   1 C :   -0.195176
   2 C :   -0.061623
   3 C :   -0.054362
   4 C :   -0.192704
   5 H :    0.021279
   6 C :   -0.040231
   7 H :    0.032536
   8 H :    0.033071
   9 C :   -0.031980
  10 H :    0.008684
  11 H :    0.030917
  12 C :   -0.072754
  13 H :    0.019093
  14 H :    0.023693
  15 H :    0.036049
  16 S :    0.401999
  17 C :   -0.156946
  18 C :   -0.060291
  19 C :   -0.059118
  20 C :   -0.211934
  21 H :    0.043835
  22 C :   -0.032218
  23 H :    0.021344
  24 H :    0.034180
  25 C :   -0.051181
  26 H :    0.024309
  27 H :    0.023937
  28 C :   -0.066749
  29 H :    0.034510
  30 H :    0.022932
  31 H :    0.022446
  32 H :    0.027007
  33 H :    0.010066

  Mayer bond orders larger than 0.100000
B(  0-S ,  1-C ) :   1.1410 B(  0-S ,  4-C ) :   1.1623 B(  1-C ,  2-C ) :   1.6169
B(  1-C , 32-H ) :   0.9632 B(  2-C ,  3-C ) :   1.2383 B(  2-C ,  6-C ) :   1.0271
B(  3-C ,  4-C ) :   1.5612 B(  3-C ,  5-H ) :   0.9969 B(  4-C , 20-C ) :   1.0144
B(  6-C ,  7-H ) :   0.9373 B(  6-C ,  8-H ) :   0.9474 B(  6-C ,  9-C ) :   1.0660
B(  9-C , 10-H ) :   0.9574 B(  9-C , 11-H ) :   0.9516 B(  9-C , 12-C ) :   1.0933
B( 12-C , 13-H ) :   0.9743 B( 12-C , 14-H ) :   0.9699 B( 12-C , 15-H ) :   0.9638
B( 16-S , 17-C ) :   1.1391 B( 16-S , 20-C ) :   1.1429 B( 17-C , 18-C ) :   1.6297
B( 17-C , 33-H ) :   0.9758 B( 18-C , 19-C ) :   1.2214 B( 18-C , 21-H ) :   0.9868
B( 19-C , 20-C ) :   1.6111 B( 19-C , 22-C ) :   1.0504 B( 22-C , 23-H ) :   0.9299
B( 22-C , 24-H ) :   0.9333 B( 22-C , 25-C ) :   1.0608 B( 25-C , 26-H ) :   0.9445
B( 25-C , 27-H ) :   0.9447 B( 25-C , 28-C ) :   1.0910 B( 28-C , 29-H ) :   0.9702
B( 28-C , 30-H ) :   0.9701 B( 28-C , 31-H ) :   0.9712

Dispersion correction           -0.015151582
FINAL SINGLE POINT ENERGY     -1339.874944641019

DIPOLE MOMENT
-------------
                                X             Y             Z
Electronic contribution:    -29.40765       2.22930     -11.24433
Nuclear contribution   :     29.93861      -2.48960      11.41884
                        -----------------------------------------
Total Dipole Moment    :      0.53096      -0.26030       0.17451
                        -----------------------------------------
Magnitude (a.u.)       :      0.61655
Magnitude (Debye)      :      1.56714

Rotational constants in cm-1:     0.017104     0.010700     0.007078
Rotational constants in MHz :   512.761890   320.772934   212.181755

                             ****ORCA TERMINATED NORMALLY****
TOTAL RUN TIME: 0 days 0 hours 0 minutes 22 seconds 867 msec
