                         Program Version 4.2.1 -  RELEASE  -
|  1> ! wB97X-D3 SP def2-SVP
|  2> %pal
|  3> nprocs 24
|  4> end
|  5>
|  6> * xyz 0 1
|  7> S 	 -59.1681 	 12.8461 	 -89.6363
|  8> C 	 -59.4296 	 13.9385 	 -91.0252
|  9> C 	 -58.6431 	 15.1014 	 -90.9421
| 10> C 	 -57.8433 	 15.0069 	 -89.7441
| 11> C 	 -57.9175 	 13.8302 	 -89.0536
| 12> H 	 -57.2787 	 15.8075 	 -89.303
| 13> C 	 -58.6123 	 16.2381 	 -91.9168
| 14> H 	 -59.4082 	 16.1604 	 -92.6182
| 15> H 	 -57.727 	 15.9368 	 -92.4689
| 16> C 	 -58.5345 	 17.6421 	 -91.4431
| 17> H 	 -57.4807 	 17.8332 	 -91.054
| 18> H 	 -58.488 	 18.2908 	 -92.3571
| 19> C 	 -59.7104 	 17.9797 	 -90.5308
| 20> H 	 -59.5755 	 17.5416 	 -89.5098
| 21> H 	 -59.9347 	 19.0378 	 -90.5636
| 22> H 	 -60.5859 	 17.4871 	 -90.9878
| 23> S 	 -58.838 	 13.7217 	 -86.4521
| 24> C 	 -57.6738 	 14.0854 	 -85.1968
| 25> C 	 -56.3988 	 13.8472 	 -85.6347
| 26> C 	 -56.2837 	 13.7075 	 -87.045
| 27> C 	 -57.5663 	 13.6512 	 -87.6574
| 28> H 	 -55.5717 	 13.9492 	 -84.906
| 29> C 	 -54.8662 	 13.4951 	 -87.7113
| 30> H 	 -55.0396 	 12.8414 	 -88.6107
| 31> H 	 -54.307 	 12.943 	 -87.0364
| 32> C 	 -54.0486 	 14.7204 	 -88.0792
| 33> H 	 -53.7807 	 15.2484 	 -87.1776
| 34> H 	 -54.7957 	 15.3451 	 -88.5535
| 35> C 	 -52.7906 	 14.3818 	 -88.8856
| 36> H 	 -53.0235 	 14.2877 	 -89.8878
| 37> H 	 -52.4376 	 13.3817 	 -88.5843
| 38> H 	 -52.0063 	 15.0461 	 -88.7092
| 39> H 	 -60.2154 	 13.8833 	 -91.7622
| 40> H 	 -57.8725 	 14.0377 	 -84.1158
| 41> *
| 42>
| 43>                          ****END OF INPUT****

CARTESIAN COORDINATES (ANGSTROEM)
---------------------------------
  S    -59.168100   12.846100  -89.636300
  C    -59.429600   13.938500  -91.025200
  C    -58.643100   15.101400  -90.942100
  C    -57.843300   15.006900  -89.744100
  C    -57.917500   13.830200  -89.053600
  H    -57.278700   15.807500  -89.303000
  C    -58.612300   16.238100  -91.916800
  H    -59.408200   16.160400  -92.618200
  H    -57.727000   15.936800  -92.468900
  C    -58.534500   17.642100  -91.443100
  H    -57.480700   17.833200  -91.054000
  H    -58.488000   18.290800  -92.357100
  C    -59.710400   17.979700  -90.530800
  H    -59.575500   17.541600  -89.509800
  H    -59.934700   19.037800  -90.563600
  H    -60.585900   17.487100  -90.987800
  S    -58.838000   13.721700  -86.452100
  C    -57.673800   14.085400  -85.196800
  C    -56.398800   13.847200  -85.634700
  C    -56.283700   13.707500  -87.045000
  C    -57.566300   13.651200  -87.657400
  H    -55.571700   13.949200  -84.906000
  C    -54.866200   13.495100  -87.711300
  H    -55.039600   12.841400  -88.610700
  H    -54.307000   12.943000  -87.036400
  C    -54.048600   14.720400  -88.079200
  H    -53.780700   15.248400  -87.177600
  H    -54.795700   15.345100  -88.553500
  C    -52.790600   14.381800  -88.885600
  H    -53.023500   14.287700  -89.887800
  H    -52.437600   13.381700  -88.584300
  H    -52.006300   15.046100  -88.709200
  H    -60.215400   13.883300  -91.762200
  H    -57.872500   14.037700  -84.115800

 Total Charge           Charge          ....    0
 Multiplicity           Mult            ....    1
 Number of Electrons    NEL             ....  134
 Basis Dimension        Dim             ....  322

ORBITAL ENERGIES
----------------

  NO   OCC          E(Eh)            E(eV)
   0   2.0000     -88.965608     -2420.8773
   1   2.0000     -88.965227     -2420.8669
   2   2.0000     -10.327666      -281.0301
   3   2.0000     -10.320404      -280.8325
   4   2.0000     -10.316626      -280.7297
   5   2.0000     -10.313792      -280.6526
   6   2.0000     -10.306883      -280.4645
   7   2.0000     -10.306851      -280.4637
   8   2.0000     -10.294153      -280.1181
   9   2.0000     -10.292682      -280.0781
  10   2.0000     -10.292236      -280.0660
  11   2.0000     -10.289605      -279.9944
  12   2.0000     -10.288605      -279.9672
  13   2.0000     -10.282568      -279.8029
  14   2.0000     -10.279929      -279.7311
  15   2.0000     -10.269735      -279.4537
  16   2.0000      -8.080820      -219.8903
  17   2.0000      -8.079858      -219.8641
  18   2.0000      -6.039304      -164.3378
  19   2.0000      -6.038445      -164.3145
  20   2.0000      -6.035311      -164.2292
  21   2.0000      -6.034375      -164.2037
  22   2.0000      -6.031509      -164.1257
  23   2.0000      -6.030528      -164.0990
  24   2.0000      -1.009727       -27.4761
  25   2.0000      -0.982037       -26.7226
  26   2.0000      -0.924849       -25.1664
  27   2.0000      -0.907930       -24.7060
  28   2.0000      -0.869965       -23.6730
  29   2.0000      -0.848334       -23.0843
  30   2.0000      -0.843188       -22.9443
  31   2.0000      -0.813971       -22.1493
  32   2.0000      -0.788707       -21.4618
  33   2.0000      -0.775442       -21.1009
  34   2.0000      -0.710602       -19.3365
  35   2.0000      -0.700200       -19.0534
  36   2.0000      -0.689971       -18.7751
  37   2.0000      -0.651804       -17.7365
  38   2.0000      -0.640788       -17.4367
  39   2.0000      -0.620962       -16.8972
  40   2.0000      -0.590873       -16.0785
  41   2.0000      -0.570814       -15.5326
  42   2.0000      -0.567391       -15.4395
  43   2.0000      -0.561164       -15.2701
  44   2.0000      -0.542710       -14.7679
  45   2.0000      -0.520751       -14.1704
  46   2.0000      -0.514393       -13.9974
  47   2.0000      -0.510256       -13.8848
  48   2.0000      -0.504823       -13.7369
  49   2.0000      -0.493102       -13.4180
  50   2.0000      -0.492819       -13.4103
  51   2.0000      -0.484338       -13.1795
  52   2.0000      -0.468526       -12.7493
  53   2.0000      -0.463181       -12.6038
  54   2.0000      -0.461829       -12.5670
  55   2.0000      -0.450425       -12.2567
  56   2.0000      -0.444149       -12.0859
  57   2.0000      -0.439451       -11.9581
  58   2.0000      -0.432362       -11.7652
  59   2.0000      -0.427183       -11.6242
  60   2.0000      -0.420406       -11.4398
  61   2.0000      -0.414106       -11.2684
  62   2.0000      -0.413182       -11.2432
  63   2.0000      -0.343015        -9.3339
  64   2.0000      -0.328156        -8.9296
  65   2.0000      -0.326010        -8.8712
  66   2.0000      -0.295685        -8.0460
  67   0.0000       0.031137         0.8473
  68   0.0000       0.059689         1.6242
  69   0.0000       0.105889         2.8814
  70   0.0000       0.121977         3.3192
  71   0.0000       0.129984         3.5370

MULLIKEN ATOMIC CHARGES
-----------------------
   0 S :    0.096147
   1 C :   -0.114678
   2 C :   -0.115462
   3 C :    0.017421
   4 C :   -0.124518
   5 H :    0.018337
   6 C :    0.076329
   7 H :    0.007499
   8 H :    0.043650
   9 C :   -0.092472
  10 H :    0.032654
  11 H :    0.032278
  12 C :   -0.034786
  13 H :    0.061086
  14 H :    0.038680
  15 H :    0.024758
  16 S :    0.113182
  17 C :   -0.100145
  18 C :   -0.050518
  19 C :   -0.053292
  20 C :   -0.164768
  21 H :    0.031923
  22 C :    0.053047
  23 H :    0.038384
  24 H :    0.003490
  25 C :   -0.059173
  26 H :    0.016352
  27 H :    0.016580
  28 C :    0.013877
  29 H :    0.023947
  30 H :    0.019135
  31 H :    0.025455
  32 H :    0.039435
  33 H :    0.066167
Sum of atomic charges:    0.0000000

LOEWDIN ATOMIC CHARGES
----------------------
   0 S :    0.415509
   1 C :   -0.191943
   2 C :   -0.052796
   3 C :   -0.057663
   4 C :   -0.218764
   5 H :    0.026649
   6 C :   -0.038278
   7 H :    0.024170
   8 H :    0.043342
   9 C :   -0.053668
  10 H :    0.027179
  11 H :    0.032243
  12 C :   -0.065232
  13 H :    0.038131
  14 H :    0.026801
  15 H :    0.029613
  16 S :    0.405541
  17 C :   -0.198162
  18 C :   -0.076090
  19 C :   -0.054021
  20 C :   -0.204852
  21 H :    0.035713
  22 C :   -0.024066
  23 H :    0.035941
  24 H :    0.016055
  25 C :   -0.040256
  26 H :    0.019836
  27 H :    0.019838
  28 C :   -0.049395
  29 H :    0.019865
  30 H :    0.029530
  31 H :    0.020571
  32 H :    0.023681
  33 H :    0.034980

  Mayer bond orders larger than 0.100000
B(  0-S ,  1-C ) :   1.1386 B(  0-S ,  4-C ) :   1.1467 B(  1-C ,  2-C ) :   1.6098
B(  1-C , 32-H ) :   0.9658 B(  2-C ,  3-C ) :   1.2355 B(  2-C ,  6-C ) :   1.0103
B(  3-C ,  4-C ) :   1.5873 B(  3-C ,  5-H ) :   0.9868 B(  4-C , 20-C ) :   1.0153
B(  6-C ,  7-H ) :   0.9373 B(  6-C ,  8-H ) :   0.9255 B(  6-C ,  9-C ) :   1.0946
B(  9-C , 10-H ) :   0.9449 B(  9-C , 11-H ) :   0.9490 B(  9-C , 12-C ) :   1.0652
B( 12-C , 13-H ) :   0.9697 B( 12-C , 14-H ) :   0.9744 B( 12-C , 15-H ) :   0.9731
B( 16-S , 17-C ) :   1.1519 B( 16-S , 20-C ) :   1.1465 B( 17-C , 18-C ) :   1.6232
B( 17-C , 20-C ) :   0.1003 B( 17-C , 33-H ) :   0.9552 B( 18-C , 19-C ) :   1.2636
B( 18-C , 21-H ) :   0.9777 B( 19-C , 20-C ) :   1.5846 B( 19-C , 22-C ) :   1.0246
B( 22-C , 23-H ) :   0.9459 B( 22-C , 24-H ) :   0.9338 B( 22-C , 25-C ) :   1.0647
B( 25-C , 26-H ) :   0.9538 B( 25-C , 27-H ) :   0.9575 B( 25-C , 28-C ) :   1.0725
B( 28-C , 29-H ) :   0.9745 B( 28-C , 30-H ) :   0.9724 B( 28-C , 31-H ) :   0.9755

Dispersion correction           -0.014351029
FINAL SINGLE POINT ENERGY     -1339.858187280935

DIPOLE MOMENT
-------------
                                X             Y             Z
Electronic contribution:    -15.89953     -16.75648      10.28674
Nuclear contribution   :     16.25194      17.29610     -10.49147
                        -----------------------------------------
Total Dipole Moment    :      0.35241       0.53962      -0.20473
                        -----------------------------------------
Magnitude (a.u.)       :      0.67623
Magnitude (Debye)      :      1.71885

Rotational constants in cm-1:     0.015852     0.009469     0.007613
Rotational constants in MHz :   475.241805   283.884146   228.242207

                             ****ORCA TERMINATED NORMALLY****
TOTAL RUN TIME: 0 days 0 hours 0 minutes 21 seconds 705 msec
