                         Program Version 4.2.1 -  RELEASE  -
|  1> ! wB97X-D3 SP def2-SVP
|  2> %pal
|  3> nprocs 24
|  4> end
|  5>
|  6> * xyz 0 1
|  7> S 	 -136.978 	 21.5609 	 -19.2408
|  8> C 	 -138.114 	 20.1971 	 -19.2983
|  9> C 	 -138.51 	 19.8599 	 -20.5905
| 10> C 	 -137.733 	 20.5811 	 -21.5388
| 11> C 	 -136.924 	 21.5776 	 -20.9892
| 12> H 	 -137.658 	 20.445 	 -22.6422
| 13> C 	 -139.433 	 18.778 	 -21.0432
| 14> H 	 -140.167 	 19.2288 	 -21.724
| 15> H 	 -139.997 	 18.3973 	 -20.1131
| 16> C 	 -138.939 	 17.4759 	 -21.7169
| 17> H 	 -138.442 	 16.7761 	 -20.9936
| 18> H 	 -139.881 	 16.8952 	 -21.9732
| 19> C 	 -138.068 	 17.6404 	 -22.972
| 20> H 	 -137.854 	 16.7071 	 -23.5371
| 21> H 	 -138.555 	 18.2025 	 -23.7088
| 22> H 	 -137.044 	 17.9619 	 -22.6244
| 23> S 	 -136.892 	 24.1794 	 -21.9801
| 24> C 	 -135.537 	 24.7946 	 -22.8491
| 25> C 	 -134.571 	 23.8403 	 -23.0382
| 26> C 	 -134.896 	 22.5377 	 -22.4385
| 27> C 	 -136.102 	 22.5939 	 -21.7385
| 28> H 	 -133.749 	 23.9687 	 -23.7074
| 29> C 	 -134.144 	 21.2296 	 -22.5976
| 30> H 	 -134.749 	 20.4728 	 -23.1308
| 31> H 	 -133.886 	 20.8915 	 -21.6296
| 32> C 	 -132.81 	 21.2781 	 -23.3481
| 33> H 	 -132.202 	 22.0086 	 -22.8138
| 34> H 	 -132.949 	 21.6979 	 -24.3124
| 35> C 	 -131.929 	 20.0225 	 -23.3648
| 36> H 	 -132.5 	 19.1208 	 -23.7119
| 37> H 	 -131.548 	 19.7465 	 -22.4008
| 38> H 	 -131.066 	 20.0822 	 -24.0235
| 39> H 	 -138.494 	 19.7426 	 -18.3896
| 40> H 	 -135.481 	 25.7315 	 -23.4292
| 41> *
| 42>
| 43>                          ****END OF INPUT****

CARTESIAN COORDINATES (ANGSTROEM)
---------------------------------
  S    -136.978000   21.560900  -19.240800
  C    -138.114000   20.197100  -19.298300
  C    -138.510000   19.859900  -20.590500
  C    -137.733000   20.581100  -21.538800
  C    -136.924000   21.577600  -20.989200
  H    -137.658000   20.445000  -22.642200
  C    -139.433000   18.778000  -21.043200
  H    -140.167000   19.228800  -21.724000
  H    -139.997000   18.397300  -20.113100
  C    -138.939000   17.475900  -21.716900
  H    -138.442000   16.776100  -20.993600
  H    -139.881000   16.895200  -21.973200
  C    -138.068000   17.640400  -22.972000
  H    -137.854000   16.707100  -23.537100
  H    -138.555000   18.202500  -23.708800
  H    -137.044000   17.961900  -22.624400
  S    -136.892000   24.179400  -21.980100
  C    -135.537000   24.794600  -22.849100
  C    -134.571000   23.840300  -23.038200
  C    -134.896000   22.537700  -22.438500
  C    -136.102000   22.593900  -21.738500
  H    -133.749000   23.968700  -23.707400
  C    -134.144000   21.229600  -22.597600
  H    -134.749000   20.472800  -23.130800
  H    -133.886000   20.891500  -21.629600
  C    -132.810000   21.278100  -23.348100
  H    -132.202000   22.008600  -22.813800
  H    -132.949000   21.697900  -24.312400
  C    -131.929000   20.022500  -23.364800
  H    -132.500000   19.120800  -23.711900
  H    -131.548000   19.746500  -22.400800
  H    -131.066000   20.082200  -24.023500
  H    -138.494000   19.742600  -18.389600
  H    -135.481000   25.731500  -23.429200

 Total Charge           Charge          ....    0
 Multiplicity           Mult            ....    1
 Number of Electrons    NEL             ....  134
 Basis Dimension        Dim             ....  322

ORBITAL ENERGIES
----------------

  NO   OCC          E(Eh)            E(eV)
   0   2.0000     -88.968243     -2420.9490
   1   2.0000     -88.963133     -2420.8099
   2   2.0000     -10.330976      -281.1202
   3   2.0000     -10.329300      -281.0745
   4   2.0000     -10.319216      -280.8001
   5   2.0000     -10.316684      -280.7312
   6   2.0000     -10.309542      -280.5369
   7   2.0000     -10.303728      -280.3787
   8   2.0000     -10.301332      -280.3135
   9   2.0000     -10.298700      -280.2419
  10   2.0000     -10.296578      -280.1841
  11   2.0000     -10.293942      -280.1124
  12   2.0000     -10.290285      -280.0129
  13   2.0000     -10.282583      -279.8033
  14   2.0000     -10.282105      -279.7903
  15   2.0000     -10.281105      -279.7631
  16   2.0000      -8.082424      -219.9339
  17   2.0000      -8.077768      -219.8072
  18   2.0000      -6.040849      -164.3799
  19   2.0000      -6.037022      -164.2757
  20   2.0000      -6.036341      -164.2572
  21   2.0000      -6.033307      -164.1746
  22   2.0000      -6.032245      -164.1457
  23   2.0000      -6.028504      -164.0439
  24   2.0000      -0.998969       -27.1833
  25   2.0000      -0.980194       -26.6724
  26   2.0000      -0.909805       -24.7570
  27   2.0000      -0.908723       -24.7276
  28   2.0000      -0.863427       -23.4950
  29   2.0000      -0.848261       -23.0824
  30   2.0000      -0.843585       -22.9551
  31   2.0000      -0.812646       -22.1132
  32   2.0000      -0.786451       -21.4004
  33   2.0000      -0.773819       -21.0567
  34   2.0000      -0.704812       -19.1789
  35   2.0000      -0.700153       -19.0521
  36   2.0000      -0.691934       -18.8285
  37   2.0000      -0.647095       -17.6084
  38   2.0000      -0.640096       -17.4179
  39   2.0000      -0.611176       -16.6309
  40   2.0000      -0.595895       -16.2151
  41   2.0000      -0.574762       -15.6401
  42   2.0000      -0.573289       -15.6000
  43   2.0000      -0.544215       -14.8089
  44   2.0000      -0.534550       -14.5458
  45   2.0000      -0.521086       -14.1795
  46   2.0000      -0.517936       -14.0938
  47   2.0000      -0.509748       -13.8709
  48   2.0000      -0.503221       -13.6933
  49   2.0000      -0.491572       -13.3764
  50   2.0000      -0.489580       -13.3222
  51   2.0000      -0.483394       -13.1538
  52   2.0000      -0.472684       -12.8624
  53   2.0000      -0.465301       -12.6615
  54   2.0000      -0.461007       -12.5446
  55   2.0000      -0.457270       -12.4430
  56   2.0000      -0.440985       -11.9998
  57   2.0000      -0.429990       -11.7006
  58   2.0000      -0.428602       -11.6628
  59   2.0000      -0.424750       -11.5580
  60   2.0000      -0.420412       -11.4400
  61   2.0000      -0.415007       -11.2929
  62   2.0000      -0.411279       -11.1915
  63   2.0000      -0.335033        -9.1167
  64   2.0000      -0.326775        -8.8920
  65   2.0000      -0.323039        -8.7903
  66   2.0000      -0.307719        -8.3735
  67   0.0000       0.045504         1.2382
  68   0.0000       0.052300         1.4231
  69   0.0000       0.113991         3.1018
  70   0.0000       0.120237         3.2718
  71   0.0000       0.121527         3.3069

MULLIKEN ATOMIC CHARGES
-----------------------
   0 S :    0.120773
   1 C :   -0.130116
   2 C :   -0.047901
   3 C :    0.022754
   4 C :   -0.183463
   5 H :    0.032567
   6 C :    0.032355
   7 H :    0.041837
   8 H :    0.033448
   9 C :   -0.095484
  10 H :    0.035192
  11 H :    0.036329
  12 C :   -0.060639
  13 H :    0.031770
  14 H :    0.025763
  15 H :    0.054950
  16 S :    0.110028
  17 C :   -0.077363
  18 C :   -0.043529
  19 C :   -0.041795
  20 C :   -0.185669
  21 H :    0.011501
  22 C :    0.104453
  23 H :    0.040658
  24 H :    0.023607
  25 C :   -0.111810
  26 H :    0.024322
  27 H :    0.022570
  28 C :   -0.026428
  29 H :    0.024781
  30 H :    0.025062
  31 H :    0.034067
  32 H :    0.047538
  33 H :    0.067870
Sum of atomic charges:    0.0000000

LOEWDIN ATOMIC CHARGES
----------------------
   0 S :    0.402552
   1 C :   -0.183515
   2 C :   -0.070243
   3 C :   -0.061001
   4 C :   -0.205904
   5 H :    0.040429
   6 C :   -0.041195
   7 H :    0.036024
   8 H :    0.041457
   9 C :   -0.046313
  10 H :    0.026703
  11 H :    0.030783
  12 C :   -0.076302
  13 H :    0.031722
  14 H :    0.015945
  15 H :    0.035909
  16 S :    0.404619
  17 C :   -0.198201
  18 C :   -0.077196
  19 C :   -0.048425
  20 C :   -0.194722
  21 H :    0.025494
  22 C :   -0.027378
  23 H :    0.035126
  24 H :    0.030663
  25 C :   -0.046017
  26 H :    0.024287
  27 H :    0.015225
  28 C :   -0.063293
  29 H :    0.026332
  30 H :    0.021715
  31 H :    0.029059
  32 H :    0.025409
  33 H :    0.040251

  Mayer bond orders larger than 0.100000
B(  0-S ,  1-C ) :   1.1465 B(  0-S ,  4-C ) :   1.1552 B(  1-C ,  2-C ) :   1.6044
B(  1-C , 32-H ) :   0.9667 B(  2-C ,  3-C ) :   1.2235 B(  2-C ,  6-C ) :   1.0322
B(  3-C ,  4-C ) :   1.6004 B(  3-C ,  5-H ) :   0.9827 B(  4-C , 20-C ) :   0.9934
B(  6-C ,  7-H ) :   0.9362 B(  6-C ,  8-H ) :   0.9380 B(  6-C ,  9-C ) :   1.0713
B(  9-C , 10-H ) :   0.9577 B(  9-C , 11-H ) :   0.9523 B(  9-C , 12-C ) :   1.0834
B( 12-C , 13-H ) :   0.9689 B( 12-C , 14-H ) :   0.9719 B( 12-C , 15-H ) :   0.9682
B( 16-S , 17-C ) :   1.1585 B( 16-S , 20-C ) :   1.1443 B( 17-C , 18-C ) :   1.6184
B( 17-C , 33-H ) :   0.9562 B( 18-C , 19-C ) :   1.2350 B( 18-C , 21-H ) :   0.9873
B( 19-C , 20-C ) :   1.6249 B( 19-C , 22-C ) :   1.0357 B( 22-C , 23-H ) :   0.9325
B( 22-C , 24-H ) :   0.9258 B( 22-C , 25-C ) :   1.0822 B( 25-C , 26-H ) :   0.9526
B( 25-C , 27-H ) :   0.9523 B( 25-C , 28-C ) :   1.0861 B( 28-C , 29-H ) :   0.9735
B( 28-C , 30-H ) :   0.9740 B( 28-C , 31-H ) :   0.9726

Dispersion correction           -0.014116798
FINAL SINGLE POINT ENERGY     -1339.878702670640

DIPOLE MOMENT
-------------
                                X             Y             Z
Electronic contribution:     -8.51880      23.62969      13.68189
Nuclear contribution   :      8.62554     -24.22262     -14.16947
                        -----------------------------------------
Total Dipole Moment    :      0.10674      -0.59293      -0.48758
                        -----------------------------------------
Magnitude (a.u.)       :      0.77504
Magnitude (Debye)      :      1.97001

Rotational constants in cm-1:     0.015788     0.009030     0.006924
Rotational constants in MHz :   473.302494   270.707165   207.568737

                             ****ORCA TERMINATED NORMALLY****
TOTAL RUN TIME: 0 days 0 hours 0 minutes 21 seconds 216 msec
