                         Program Version 4.2.1 -  RELEASE  -
|  1> ! wB97X-D3 SP def2-SVP
|  2> %pal
|  3> nprocs 24
|  4> end
|  5>
|  6> * xyz 0 1
|  7> S 	 -65.6729 	 20.4414 	 -118.761
|  8> C 	 -64.4245 	 20.9419 	 -119.864
|  9> C 	 -63.2497 	 21.2421 	 -119.223
| 10> C 	 -63.3329 	 20.9569 	 -117.831
| 11> C 	 -64.6305 	 20.6332 	 -117.371
| 12> H 	 -62.53 	 20.9787 	 -117.097
| 13> C 	 -61.9882 	 21.8785 	 -119.736
| 14> H 	 -61.7975 	 22.8149 	 -119.059
| 15> H 	 -62.1656 	 22.4301 	 -120.664
| 16> C 	 -60.7898 	 20.9528 	 -120.126
| 17> H 	 -60.5121 	 20.2261 	 -119.34
| 18> H 	 -61.2036 	 20.2881 	 -120.841
| 19> C 	 -59.4734 	 21.5715 	 -120.641
| 20> H 	 -59.5591 	 22.1616 	 -121.555
| 21> H 	 -59.0832 	 22.2783 	 -119.929
| 22> H 	 -58.7083 	 20.7443 	 -120.811
| 23> S 	 -66.1123 	 19.0164 	 -115.73
| 24> C 	 -66.0563 	 19.2727 	 -114
| 25> C 	 -65.1153 	 20.2397 	 -113.625
| 26> C 	 -64.5775 	 20.9452 	 -114.769
| 27> C 	 -64.9979 	 20.3957 	 -116.007
| 28> H 	 -64.8879 	 20.3934 	 -112.565
| 29> C 	 -63.5746 	 22.1393 	 -114.633
| 30> H 	 -63.5556 	 22.6842 	 -115.599
| 31> H 	 -62.5422 	 21.7687 	 -114.555
| 32> C 	 -63.6875 	 22.9757 	 -113.342
| 33> H 	 -63.414 	 22.3077 	 -112.515
| 34> H 	 -64.706 	 23.173 	 -113.093
| 35> C 	 -62.9099 	 24.2718 	 -113.258
| 36> H 	 -63.1551 	 25.0775 	 -113.995
| 37> H 	 -61.8619 	 24.013 	 -113.447
| 38> H 	 -62.9836 	 24.5978 	 -112.248
| 39> H 	 -64.5681 	 21.0607 	 -120.952
| 40> H 	 -66.4939 	 18.5392 	 -113.298
| 41> *
| 42>
| 43>                          ****END OF INPUT****

CARTESIAN COORDINATES (ANGSTROEM)
---------------------------------
  S    -65.672900   20.441400  -118.761000
  C    -64.424500   20.941900  -119.864000
  C    -63.249700   21.242100  -119.223000
  C    -63.332900   20.956900  -117.831000
  C    -64.630500   20.633200  -117.371000
  H    -62.530000   20.978700  -117.097000
  C    -61.988200   21.878500  -119.736000
  H    -61.797500   22.814900  -119.059000
  H    -62.165600   22.430100  -120.664000
  C    -60.789800   20.952800  -120.126000
  H    -60.512100   20.226100  -119.340000
  H    -61.203600   20.288100  -120.841000
  C    -59.473400   21.571500  -120.641000
  H    -59.559100   22.161600  -121.555000
  H    -59.083200   22.278300  -119.929000
  H    -58.708300   20.744300  -120.811000
  S    -66.112300   19.016400  -115.730000
  C    -66.056300   19.272700  -114.000000
  C    -65.115300   20.239700  -113.625000
  C    -64.577500   20.945200  -114.769000
  C    -64.997900   20.395700  -116.007000
  H    -64.887900   20.393400  -112.565000
  C    -63.574600   22.139300  -114.633000
  H    -63.555600   22.684200  -115.599000
  H    -62.542200   21.768700  -114.555000
  C    -63.687500   22.975700  -113.342000
  H    -63.414000   22.307700  -112.515000
  H    -64.706000   23.173000  -113.093000
  C    -62.909900   24.271800  -113.258000
  H    -63.155100   25.077500  -113.995000
  H    -61.861900   24.013000  -113.447000
  H    -62.983600   24.597800  -112.248000
  H    -64.568100   21.060700  -120.952000
  H    -66.493900   18.539200  -113.298000

 Total Charge           Charge          ....    0
 Multiplicity           Mult            ....    1
 Number of Electrons    NEL             ....  134
 Basis Dimension        Dim             ....  322

ORBITAL ENERGIES
----------------

  NO   OCC          E(Eh)            E(eV)
   0   2.0000     -88.968930     -2420.9677
   1   2.0000     -88.966178     -2420.8928
   2   2.0000     -10.332975      -281.1745
   3   2.0000     -10.330805      -281.1155
   4   2.0000     -10.322919      -280.9009
   5   2.0000     -10.317610      -280.7564
   6   2.0000     -10.316253      -280.7195
   7   2.0000     -10.303203      -280.3644
   8   2.0000     -10.302363      -280.3416
   9   2.0000     -10.302078      -280.3338
  10   2.0000     -10.298905      -280.2474
  11   2.0000     -10.294404      -280.1250
  12   2.0000     -10.290473      -280.0180
  13   2.0000     -10.285993      -279.8961
  14   2.0000     -10.284882      -279.8659
  15   2.0000     -10.280596      -279.7492
  16   2.0000      -8.083685      -219.9683
  17   2.0000      -8.080385      -219.8784
  18   2.0000      -6.042287      -164.4190
  19   2.0000      -6.038867      -164.3259
  20   2.0000      -6.038155      -164.3066
  21   2.0000      -6.035027      -164.2214
  22   2.0000      -6.034373      -164.2036
  23   2.0000      -6.031138      -164.1156
  24   2.0000      -1.004504       -27.3339
  25   2.0000      -0.979039       -26.6410
  26   2.0000      -0.907873       -24.7045
  27   2.0000      -0.905609       -24.6429
  28   2.0000      -0.870526       -23.6882
  29   2.0000      -0.853848       -23.2344
  30   2.0000      -0.845482       -23.0067
  31   2.0000      -0.809002       -22.0141
  32   2.0000      -0.783441       -21.3185
  33   2.0000      -0.772807       -21.0291
  34   2.0000      -0.708284       -19.2734
  35   2.0000      -0.703085       -19.1319
  36   2.0000      -0.698065       -18.9953
  37   2.0000      -0.654976       -17.8228
  38   2.0000      -0.637797       -17.3553
  39   2.0000      -0.620127       -16.8745
  40   2.0000      -0.594908       -16.1883
  41   2.0000      -0.564624       -15.3642
  42   2.0000      -0.561167       -15.2701
  43   2.0000      -0.550177       -14.9711
  44   2.0000      -0.532123       -14.4798
  45   2.0000      -0.527005       -14.3405
  46   2.0000      -0.512456       -13.9446
  47   2.0000      -0.509572       -13.8661
  48   2.0000      -0.504218       -13.7205
  49   2.0000      -0.501073       -13.6349
  50   2.0000      -0.487750       -13.2723
  51   2.0000      -0.483766       -13.1640
  52   2.0000      -0.471404       -12.8275
  53   2.0000      -0.462361       -12.5815
  54   2.0000      -0.459890       -12.5142
  55   2.0000      -0.450801       -12.2669
  56   2.0000      -0.448379       -12.2010
  57   2.0000      -0.438132       -11.9222
  58   2.0000      -0.434738       -11.8298
  59   2.0000      -0.430496       -11.7144
  60   2.0000      -0.420894       -11.4531
  61   2.0000      -0.412134       -11.2147
  62   2.0000      -0.406477       -11.0608
  63   2.0000      -0.353457        -9.6181
  64   2.0000      -0.331317        -9.0156
  65   2.0000      -0.330878        -9.0036
  66   2.0000      -0.283648        -7.7185
  67   0.0000       0.020162         0.5486
  68   0.0000       0.074883         2.0377
  69   0.0000       0.101943         2.7740
  70   0.0000       0.112163         3.0521
  71   0.0000       0.136297         3.7088

MULLIKEN ATOMIC CHARGES
-----------------------
   0 S :    0.117956
   1 C :   -0.127515
   2 C :   -0.058726
   3 C :    0.001158
   4 C :   -0.147416
   5 H :    0.017339
   6 C :    0.023865
   7 H :    0.046543
   8 H :    0.010199
   9 C :   -0.053758
  10 H :    0.026345
  11 H :    0.017527
  12 C :   -0.054505
  13 H :    0.030454
  14 H :    0.029262
  15 H :    0.050213
  16 S :    0.093080
  17 C :   -0.098875
  18 C :   -0.057529
  19 C :   -0.029809
  20 C :   -0.145592
  21 H :    0.034984
  22 C :    0.045119
  23 H :    0.037025
  24 H :    0.036830
  25 C :   -0.101115
  26 H :    0.025183
  27 H :    0.020615
  28 C :   -0.017567
  29 H :    0.048417
  30 H :    0.017939
  31 H :    0.031596
  32 H :    0.057800
  33 H :    0.072958
Sum of atomic charges:   -0.0000000

LOEWDIN ATOMIC CHARGES
----------------------
   0 S :    0.412410
   1 C :   -0.200391
   2 C :   -0.072061
   3 C :   -0.057241
   4 C :   -0.202044
   5 H :    0.030746
   6 C :   -0.044380
   7 H :    0.042320
   8 H :    0.027946
   9 C :   -0.043962
  10 H :    0.025568
  11 H :    0.021624
  12 C :   -0.068372
  13 H :    0.022759
  14 H :    0.022698
  15 H :    0.039402
  16 S :    0.387648
  17 C :   -0.188550
  18 C :   -0.075325
  19 C :   -0.046439
  20 C :   -0.185402
  21 H :    0.036218
  22 C :   -0.037893
  23 H :    0.032246
  24 H :    0.032371
  25 C :   -0.047380
  26 H :    0.025275
  27 H :    0.016990
  28 C :   -0.060637
  29 H :    0.032956
  30 H :    0.023428
  31 H :    0.026258
  32 H :    0.036315
  33 H :    0.034900

  Mayer bond orders larger than 0.100000
B(  0-S ,  1-C ) :   1.1395 B(  0-S ,  4-C ) :   1.1461 B(  1-C ,  2-C ) :   1.6040
B(  1-C , 32-H ) :   0.9629 B(  2-C ,  3-C ) :   1.2473 B(  2-C ,  6-C ) :   1.0278
B(  3-C ,  4-C ) :   1.5382 B(  3-C ,  5-H ) :   0.9930 B(  4-C , 20-C ) :   1.1023
B(  6-C ,  7-H ) :   0.9451 B(  6-C ,  8-H ) :   0.9367 B(  6-C ,  9-C ) :   1.0396
B(  9-C , 10-H ) :   0.9598 B(  9-C , 11-H ) :   0.9501 B(  9-C , 12-C ) :   1.0808
B( 12-C , 13-H ) :   0.9751 B( 12-C , 14-H ) :   0.9758 B( 12-C , 15-H ) :   0.9734
B( 16-S , 17-C ) :   1.1586 B( 16-S , 20-C ) :   1.1286 B( 17-C , 18-C ) :   1.6091
B( 17-C , 20-C ) :   0.1018 B( 17-C , 33-H ) :   0.9598 B( 18-C , 19-C ) :   1.2370
B( 18-C , 21-H ) :   0.9841 B( 19-C , 20-C ) :   1.5811 B( 19-C , 22-C ) :   1.0373
B( 22-C , 23-H ) :   0.9400 B( 22-C , 24-H ) :   0.9306 B( 22-C , 25-C ) :   1.0514
B( 25-C , 26-H ) :   0.9440 B( 25-C , 27-H ) :   0.9606 B( 25-C , 28-C ) :   1.0917
B( 28-C , 29-H ) :   0.9747 B( 28-C , 30-H ) :   0.9710 B( 28-C , 31-H ) :   0.9703

Dispersion correction           -0.013225548
FINAL SINGLE POINT ENERGY     -1339.876947600505

DIPOLE MOMENT
-------------
                                X             Y             Z
Electronic contribution:    -26.39620     -16.96308      -1.85982
Nuclear contribution   :     27.06893      17.25066       2.04931
                        -----------------------------------------
Total Dipole Moment    :      0.67273       0.28758       0.18950
                        -----------------------------------------
Magnitude (a.u.)       :      0.75576
Magnitude (Debye)      :      1.92099

Rotational constants in cm-1:     0.015976     0.008217     0.006000
Rotational constants in MHz :   478.950119   246.349933   179.865090

                             ****ORCA TERMINATED NORMALLY****
TOTAL RUN TIME: 0 days 0 hours 0 minutes 20 seconds 814 msec
