                         Program Version 4.2.1 -  RELEASE  -
|  1> ! wB97X-D3 SP def2-SVP
|  2> %pal
|  3> nprocs 24
|  4> end
|  5>
|  6> * xyz 0 1
|  7> S 	 47.5475 	 -24.6274 	 -114.606
|  8> C 	 48.7581 	 -24.8064 	 -113.435
|  9> C 	 49.4232 	 -23.6062 	 -113.165
| 10> C 	 48.9692 	 -22.5859 	 -114.018
| 11> C 	 47.9052 	 -22.9373 	 -114.813
| 12> H 	 49.2156 	 -21.5093 	 -114.039
| 13> C 	 50.4415 	 -23.3436 	 -112.022
| 14> H 	 51.2509 	 -22.7542 	 -112.426
| 15> H 	 50.9164 	 -24.3249 	 -111.735
| 16> C 	 49.8345 	 -22.5807 	 -110.806
| 17> H 	 48.9504 	 -23.0605 	 -110.497
| 18> H 	 50.4511 	 -22.6414 	 -109.956
| 19> C 	 49.639 	 -21.0836 	 -111.193
| 20> H 	 49.4975 	 -20.4565 	 -110.293
| 21> H 	 50.4625 	 -20.6694 	 -111.728
| 22> H 	 48.7762 	 -21.0764 	 -111.907
| 23> S 	 47.1225 	 -22.9974 	 -117.386
| 24> C 	 46.5353 	 -21.5145 	 -118.132
| 25> C 	 46.4127 	 -20.4182 	 -117.263
| 26> C 	 46.953 	 -20.8108 	 -115.993
| 27> C 	 47.2551 	 -22.1628 	 -115.861
| 28> H 	 46.0692 	 -19.4847 	 -117.676
| 29> C 	 47.1455 	 -19.6472 	 -115.026
| 30> H 	 46.8545 	 -20.007 	 -114.057
| 31> H 	 46.3082 	 -18.9636 	 -115.159
| 32> C 	 48.3992 	 -18.8682 	 -115.253
| 33> H 	 48.3199 	 -18.2513 	 -116.141
| 34> H 	 49.1636 	 -19.5953 	 -115.403
| 35> C 	 48.7837 	 -18.0569 	 -114.024
| 36> H 	 49.7866 	 -17.6057 	 -114.059
| 37> H 	 48.6827 	 -18.6153 	 -113.121
| 38> H 	 48.1484 	 -17.201 	 -113.758
| 39> H 	 48.9786 	 -25.7748 	 -113.032
| 40> H 	 46.2433 	 -21.4576 	 -119.242
| 41> *
| 42>
| 43>                          ****END OF INPUT****

CARTESIAN COORDINATES (ANGSTROEM)
---------------------------------
  S     47.547500  -24.627400  -114.606000
  C     48.758100  -24.806400  -113.435000
  C     49.423200  -23.606200  -113.165000
  C     48.969200  -22.585900  -114.018000
  C     47.905200  -22.937300  -114.813000
  H     49.215600  -21.509300  -114.039000
  C     50.441500  -23.343600  -112.022000
  H     51.250900  -22.754200  -112.426000
  H     50.916400  -24.324900  -111.735000
  C     49.834500  -22.580700  -110.806000
  H     48.950400  -23.060500  -110.497000
  H     50.451100  -22.641400  -109.956000
  C     49.639000  -21.083600  -111.193000
  H     49.497500  -20.456500  -110.293000
  H     50.462500  -20.669400  -111.728000
  H     48.776200  -21.076400  -111.907000
  S     47.122500  -22.997400  -117.386000
  C     46.535300  -21.514500  -118.132000
  C     46.412700  -20.418200  -117.263000
  C     46.953000  -20.810800  -115.993000
  C     47.255100  -22.162800  -115.861000
  H     46.069200  -19.484700  -117.676000
  C     47.145500  -19.647200  -115.026000
  H     46.854500  -20.007000  -114.057000
  H     46.308200  -18.963600  -115.159000
  C     48.399200  -18.868200  -115.253000
  H     48.319900  -18.251300  -116.141000
  H     49.163600  -19.595300  -115.403000
  C     48.783700  -18.056900  -114.024000
  H     49.786600  -17.605700  -114.059000
  H     48.682700  -18.615300  -113.121000
  H     48.148400  -17.201000  -113.758000
  H     48.978600  -25.774800  -113.032000
  H     46.243300  -21.457600  -119.242000

 Total Charge           Charge          ....    0
 Multiplicity           Mult            ....    1
 Number of Electrons    NEL             ....  134
 Basis Dimension        Dim             ....  322

ORBITAL ENERGIES
----------------

  NO   OCC          E(Eh)            E(eV)
   0   2.0000     -88.967470     -2420.9279
   1   2.0000     -88.965333     -2420.8698
   2   2.0000     -10.326353      -280.9943
   3   2.0000     -10.324849      -280.9534
   4   2.0000     -10.324686      -280.9490
   5   2.0000     -10.311008      -280.5768
   6   2.0000     -10.305213      -280.4191
   7   2.0000     -10.303121      -280.3622
   8   2.0000     -10.297406      -280.2067
   9   2.0000     -10.297089      -280.1980
  10   2.0000     -10.290939      -280.0307
  11   2.0000     -10.285536      -279.8837
  12   2.0000     -10.285186      -279.8741
  13   2.0000     -10.281548      -279.7751
  14   2.0000     -10.280361      -279.7429
  15   2.0000     -10.276560      -279.6394
  16   2.0000      -8.082192      -219.9276
  17   2.0000      -8.081441      -219.9072
  18   2.0000      -6.040726      -164.3765
  19   2.0000      -6.039656      -164.3474
  20   2.0000      -6.036755      -164.2684
  21   2.0000      -6.035683      -164.2393
  22   2.0000      -6.032857      -164.1624
  23   2.0000      -6.032517      -164.1531
  24   2.0000      -1.012236       -27.5443
  25   2.0000      -0.986252       -26.8373
  26   2.0000      -0.918233       -24.9864
  27   2.0000      -0.906630       -24.6707
  28   2.0000      -0.869748       -23.6670
  29   2.0000      -0.854027       -23.2393
  30   2.0000      -0.845394       -23.0043
  31   2.0000      -0.812139       -22.0994
  32   2.0000      -0.781601       -21.2685
  33   2.0000      -0.769368       -20.9356
  34   2.0000      -0.711375       -19.3575
  35   2.0000      -0.708371       -19.2758
  36   2.0000      -0.690239       -18.7824
  37   2.0000      -0.667832       -18.1726
  38   2.0000      -0.644346       -17.5336
  39   2.0000      -0.616521       -16.7764
  40   2.0000      -0.592411       -16.1203
  41   2.0000      -0.571803       -15.5596
  42   2.0000      -0.567555       -15.4439
  43   2.0000      -0.546789       -14.8789
  44   2.0000      -0.541098       -14.7240
  45   2.0000      -0.532795       -14.4981
  46   2.0000      -0.515678       -14.0323
  47   2.0000      -0.509145       -13.8545
  48   2.0000      -0.497618       -13.5409
  49   2.0000      -0.495685       -13.4883
  50   2.0000      -0.490048       -13.3349
  51   2.0000      -0.484343       -13.1796
  52   2.0000      -0.473229       -12.8772
  53   2.0000      -0.466696       -12.6994
  54   2.0000      -0.461098       -12.5471
  55   2.0000      -0.450605       -12.2616
  56   2.0000      -0.447857       -12.1868
  57   2.0000      -0.443720       -12.0742
  58   2.0000      -0.433212       -11.7883
  59   2.0000      -0.423710       -11.5297
  60   2.0000      -0.420466       -11.4415
  61   2.0000      -0.414928       -11.2908
  62   2.0000      -0.407208       -11.0807
  63   2.0000      -0.353211        -9.6113
  64   2.0000      -0.334196        -9.0939
  65   2.0000      -0.330287        -8.9876
  66   2.0000      -0.285813        -7.7774
  67   0.0000       0.030025         0.8170
  68   0.0000       0.072161         1.9636
  69   0.0000       0.108764         2.9596
  70   0.0000       0.120765         3.2862
  71   0.0000       0.127804         3.4777

MULLIKEN ATOMIC CHARGES
-----------------------
   0 S :    0.114283
   1 C :   -0.120568
   2 C :   -0.083200
   3 C :    0.015435
   4 C :   -0.168260
   5 H :    0.007842
   6 C :    0.049137
   7 H :    0.024548
   8 H :    0.026876
   9 C :   -0.002738
  10 H :    0.020163
  11 H :    0.015268
  12 C :   -0.090667
  13 H :    0.041781
  14 H :    0.024275
  15 H :    0.053944
  16 S :    0.108241
  17 C :   -0.133119
  18 C :   -0.020594
  19 C :   -0.086770
  20 C :   -0.104019
  21 H :    0.024676
  22 C :    0.053834
  23 H :    0.017337
  24 H :    0.009266
  25 C :   -0.005347
  26 H :    0.032011
  27 H :    0.027475
  28 C :   -0.044649
  29 H :    0.035631
  30 H :    0.014752
  31 H :    0.019424
  32 H :    0.043787
  33 H :    0.079946
Sum of atomic charges:    0.0000000

LOEWDIN ATOMIC CHARGES
----------------------
   0 S :    0.432236
   1 C :   -0.210387
   2 C :   -0.064254
   3 C :   -0.072375
   4 C :   -0.200845
   5 H :    0.035512
   6 C :   -0.027042
   7 H :    0.025902
   8 H :    0.031995
   9 C :   -0.027856
  10 H :    0.020128
  11 H :    0.016619
  12 C :   -0.067656
  13 H :    0.029281
  14 H :    0.017167
  15 H :    0.030263
  16 S :    0.407414
  17 C :   -0.189637
  18 C :   -0.069731
  19 C :   -0.051759
  20 C :   -0.206559
  21 H :    0.035172
  22 C :   -0.038293
  23 H :    0.026512
  24 H :    0.031169
  25 C :   -0.032784
  26 H :    0.028566
  27 H :    0.021097
  28 C :   -0.069194
  29 H :    0.028335
  30 H :    0.021163
  31 H :    0.025898
  32 H :    0.023607
  33 H :    0.040336

  Mayer bond orders larger than 0.100000
B(  0-S ,  1-C ) :   1.1691 B(  0-S ,  4-C ) :   1.1654 B(  1-C ,  2-C ) :   1.5722
B(  1-C ,  4-C ) :   0.1024 B(  1-C , 32-H ) :   0.9737 B(  2-C ,  3-C ) :   1.2697
B(  2-C ,  6-C ) :   1.0226 B(  3-C ,  4-C ) :   1.5677 B(  3-C ,  5-H ) :   0.9785
B(  4-C , 20-C ) :   1.0278 B(  6-C ,  7-H ) :   0.9460 B(  6-C ,  8-H ) :   0.9426
B(  6-C ,  9-C ) :   1.0590 B(  9-C , 10-H ) :   0.9562 B(  9-C , 11-H ) :   0.9568
B(  9-C , 12-C ) :   1.0709 B( 12-C , 13-H ) :   0.9719 B( 12-C , 14-H ) :   0.9758
B( 12-C , 15-H ) :   0.9685 B( 16-S , 17-C ) :   1.1668 B( 16-S , 20-C ) :   1.1309
B( 17-C , 18-C ) :   1.6123 B( 17-C , 33-H ) :   0.9530 B( 18-C , 19-C ) :   1.2196
B( 18-C , 21-H ) :   0.9954 B( 19-C , 20-C ) :   1.6179 B( 19-C , 22-C ) :   1.0486
B( 22-C , 23-H ) :   0.9406 B( 22-C , 24-H ) :   0.9240 B( 22-C , 25-C ) :   1.0468
B( 25-C , 26-H ) :   0.9469 B( 25-C , 27-H ) :   0.9563 B( 25-C , 28-C ) :   1.0842
B( 28-C , 29-H ) :   0.9738 B( 28-C , 30-H ) :   0.9739 B( 28-C , 31-H ) :   0.9695

Dispersion correction           -0.015686701
FINAL SINGLE POINT ENERGY     -1339.872141241718

DIPOLE MOMENT
-------------
                                X             Y             Z
Electronic contribution:    -11.32639     -22.49524     -19.25232
Nuclear contribution   :     11.55976      23.04182      19.52002
                        -----------------------------------------
Total Dipole Moment    :      0.23337       0.54658       0.26770
                        -----------------------------------------
Magnitude (a.u.)       :      0.65182
Magnitude (Debye)      :      1.65681

Rotational constants in cm-1:     0.017055     0.011224     0.007106
Rotational constants in MHz :   511.287206   336.488134   213.036050

                             ****ORCA TERMINATED NORMALLY****
TOTAL RUN TIME: 0 days 0 hours 0 minutes 22 seconds 854 msec
