                         Program Version 4.2.1 -  RELEASE  -
|  1> ! wB97X-D3 SP def2-SVP
|  2> %pal
|  3> nprocs 24
|  4> end
|  5>
|  6> * xyz 0 1
|  7> S 	 -98.1614 	 1.88913 	 -104.853
|  8> C 	 -98.6181 	 2.90555 	 -103.53
|  9> C 	 -97.5731 	 3.79084 	 -103.269
| 10> C 	 -96.4894 	 3.63994 	 -104.192
| 11> C 	 -96.7356 	 2.82484 	 -105.236
| 12> H 	 -95.574 	 4.23472 	 -104.106
| 13> C 	 -97.4082 	 4.67681 	 -102.089
| 14> H 	 -98.3884 	 4.58483 	 -101.595
| 15> H 	 -97.2342 	 5.65792 	 -102.501
| 16> C 	 -96.2615 	 4.34791 	 -100.975
| 17> H 	 -96.698 	 3.56017 	 -100.384
| 18> H 	 -95.4149 	 3.92608 	 -101.539
| 19> C 	 -95.9422 	 5.64347 	 -100.192
| 20> H 	 -96.8975 	 5.85137 	 -99.6417
| 21> H 	 -95.0975 	 5.50426 	 -99.5127
| 22> H 	 -95.695 	 6.49873 	 -100.86
| 23> S 	 -96.3366 	 1.95031 	 -107.773
| 24> C 	 -94.7344 	 1.54199 	 -108.344
| 25> C 	 -93.8253 	 1.62095 	 -107.336
| 26> C 	 -94.3521 	 2.19369 	 -106.124
| 27> C 	 -95.7222 	 2.44572 	 -106.23
| 28> H 	 -92.8799 	 1.25827 	 -107.488
| 29> C 	 -93.4703 	 2.3579 	 -104.877
| 30> H 	 -92.6752 	 1.5504 	 -105.012
| 31> H 	 -94.0452 	 2.00126 	 -104.067
| 32> C 	 -92.813 	 3.69158 	 -104.56
| 33> H 	 -93.4497 	 4.52584 	 -104.324
| 34> H 	 -92.1521 	 3.97649 	 -105.369
| 35> C 	 -91.9313 	 3.56535 	 -103.259
| 36> H 	 -91.2438 	 2.66022 	 -103.348
| 37> H 	 -92.5157 	 3.5264 	 -102.32
| 38> H 	 -91.3041 	 4.41016 	 -103.119
| 39> H 	 -99.3648 	 2.54113 	 -102.883
| 40> H 	 -94.5182 	 0.994726 	 -109.161
| 41> *
| 42>
| 43>                          ****END OF INPUT****

CARTESIAN COORDINATES (ANGSTROEM)
---------------------------------
  S    -98.161400    1.889130  -104.853000
  C    -98.618100    2.905550  -103.530000
  C    -97.573100    3.790840  -103.269000
  C    -96.489400    3.639940  -104.192000
  C    -96.735600    2.824840  -105.236000
  H    -95.574000    4.234720  -104.106000
  C    -97.408200    4.676810  -102.089000
  H    -98.388400    4.584830  -101.595000
  H    -97.234200    5.657920  -102.501000
  C    -96.261500    4.347910  -100.975000
  H    -96.698000    3.560170  -100.384000
  H    -95.414900    3.926080  -101.539000
  C    -95.942200    5.643470  -100.192000
  H    -96.897500    5.851370  -99.641700
  H    -95.097500    5.504260  -99.512700
  H    -95.695000    6.498730  -100.860000
  S    -96.336600    1.950310  -107.773000
  C    -94.734400    1.541990  -108.344000
  C    -93.825300    1.620950  -107.336000
  C    -94.352100    2.193690  -106.124000
  C    -95.722200    2.445720  -106.230000
  H    -92.879900    1.258270  -107.488000
  C    -93.470300    2.357900  -104.877000
  H    -92.675200    1.550400  -105.012000
  H    -94.045200    2.001260  -104.067000
  C    -92.813000    3.691580  -104.560000
  H    -93.449700    4.525840  -104.324000
  H    -92.152100    3.976490  -105.369000
  C    -91.931300    3.565350  -103.259000
  H    -91.243800    2.660220  -103.348000
  H    -92.515700    3.526400  -102.320000
  H    -91.304100    4.410160  -103.119000
  H    -99.364800    2.541130  -102.883000
  H    -94.518200    0.994726  -109.161000

 Total Charge           Charge          ....    0
 Multiplicity           Mult            ....    1
 Number of Electrons    NEL             ....  134
 Basis Dimension        Dim             ....  322

ORBITAL ENERGIES
----------------

  NO   OCC          E(Eh)            E(eV)
   0   2.0000     -88.963799     -2420.8281
   1   2.0000     -88.963005     -2420.8064
   2   2.0000     -10.328424      -281.0507
   3   2.0000     -10.326488      -280.9980
   4   2.0000     -10.312096      -280.6064
   5   2.0000     -10.306109      -280.4435
   6   2.0000     -10.304896      -280.4105
   7   2.0000     -10.300157      -280.2815
   8   2.0000     -10.297475      -280.2086
   9   2.0000     -10.296273      -280.1758
  10   2.0000     -10.292148      -280.0636
  11   2.0000     -10.291805      -280.0542
  12   2.0000     -10.290955      -280.0311
  13   2.0000     -10.288202      -279.9562
  14   2.0000     -10.286790      -279.9178
  15   2.0000     -10.285564      -279.8844
  16   2.0000      -8.078911      -219.8383
  17   2.0000      -8.078383      -219.8240
  18   2.0000      -6.037377      -164.2854
  19   2.0000      -6.036947      -164.2737
  20   2.0000      -6.033330      -164.1753
  21   2.0000      -6.032844      -164.1620
  22   2.0000      -6.029742      -164.0776
  23   2.0000      -6.028977      -164.0568
  24   2.0000      -1.011333       -27.5198
  25   2.0000      -0.988602       -26.9012
  26   2.0000      -0.908286       -24.7157
  27   2.0000      -0.905799       -24.6480
  28   2.0000      -0.874239       -23.7893
  29   2.0000      -0.852291       -23.1920
  30   2.0000      -0.847005       -23.0482
  31   2.0000      -0.822630       -22.3849
  32   2.0000      -0.778408       -21.1815
  33   2.0000      -0.767634       -20.8884
  34   2.0000      -0.710505       -19.3338
  35   2.0000      -0.704663       -19.1749
  36   2.0000      -0.698918       -19.0185
  37   2.0000      -0.669057       -18.2060
  38   2.0000      -0.644625       -17.5411
  39   2.0000      -0.626124       -17.0377
  40   2.0000      -0.596098       -16.2207
  41   2.0000      -0.571459       -15.5502
  42   2.0000      -0.567709       -15.4481
  43   2.0000      -0.560239       -15.2449
  44   2.0000      -0.530305       -14.4303
  45   2.0000      -0.524443       -14.2708
  46   2.0000      -0.518483       -14.1086
  47   2.0000      -0.514286       -13.9944
  48   2.0000      -0.506800       -13.7907
  49   2.0000      -0.502312       -13.6686
  50   2.0000      -0.493620       -13.4321
  51   2.0000      -0.480715       -13.0809
  52   2.0000      -0.469438       -12.7741
  53   2.0000      -0.465161       -12.6577
  54   2.0000      -0.455980       -12.4078
  55   2.0000      -0.453429       -12.3384
  56   2.0000      -0.446509       -12.1501
  57   2.0000      -0.442589       -12.0435
  58   2.0000      -0.436781       -11.8854
  59   2.0000      -0.429076       -11.6758
  60   2.0000      -0.421270       -11.4634
  61   2.0000      -0.416164       -11.3244
  62   2.0000      -0.413197       -11.2437
  63   2.0000      -0.356173        -9.6920
  64   2.0000      -0.331063        -9.0087
  65   2.0000      -0.324735        -8.8365
  66   2.0000      -0.292529        -7.9601
  67   0.0000       0.028201         0.7674
  68   0.0000       0.072437         1.9711
  69   0.0000       0.109557         2.9812
  70   0.0000       0.113397         3.0857
  71   0.0000       0.122113         3.3229

MULLIKEN ATOMIC CHARGES
-----------------------
   0 S :    0.093959
   1 C :   -0.103833
   2 C :   -0.091447
   3 C :   -0.025759
   4 C :   -0.054867
   5 H :   -0.002734
   6 C :    0.034881
   7 H :    0.022143
   8 H :    0.032569
   9 C :   -0.075586
  10 H :    0.036710
  11 H :    0.031429
  12 C :   -0.066158
  13 H :    0.046319
  14 H :    0.045042
  15 H :    0.043134
  16 S :    0.097870
  17 C :   -0.024643
  18 C :   -0.020580
  19 C :   -0.033990
  20 C :   -0.176364
  21 H :   -0.015890
  22 C :    0.048402
  23 H :    0.026166
  24 H :    0.021676
  25 C :   -0.034258
  26 H :    0.036314
  27 H :    0.030349
  28 C :   -0.085898
  29 H :    0.037177
  30 H :    0.040363
  31 H :    0.026220
  32 H :    0.046204
  33 H :    0.015080
Sum of atomic charges:   -0.0000000

LOEWDIN ATOMIC CHARGES
----------------------
   0 S :    0.412106
   1 C :   -0.199692
   2 C :   -0.066068
   3 C :   -0.068244
   4 C :   -0.195011
   5 H :    0.029956
   6 C :   -0.035308
   7 H :    0.030562
   8 H :    0.028374
   9 C :   -0.033203
  10 H :    0.023869
  11 H :    0.018849
  12 C :   -0.069349
  13 H :    0.035130
  14 H :    0.026908
  15 H :    0.029462
  16 S :    0.413319
  17 C :   -0.170702
  18 C :   -0.054550
  19 C :   -0.055110
  20 C :   -0.195900
  21 H :    0.017195
  22 C :   -0.034377
  23 H :    0.040030
  24 H :    0.025078
  25 C :   -0.034784
  26 H :    0.020156
  27 H :    0.026436
  28 C :   -0.068452
  29 H :    0.029739
  30 H :    0.025932
  31 H :    0.018961
  32 H :    0.021011
  33 H :    0.007677

  Mayer bond orders larger than 0.100000
B(  0-S ,  1-C ) :   1.1438 B(  0-S ,  4-C ) :   1.1516 B(  1-C ,  2-C ) :   1.5772
B(  1-C , 32-H ) :   0.9739 B(  2-C ,  3-C ) :   1.2488 B(  2-C ,  6-C ) :   1.0404
B(  3-C ,  4-C ) :   1.5647 B(  3-C ,  5-H ) :   1.0002 B(  4-C , 20-C ) :   1.0420
B(  6-C ,  7-H ) :   0.9418 B(  6-C ,  8-H ) :   0.9410 B(  6-C ,  9-C ) :   1.0361
B(  9-C , 10-H ) :   0.9595 B(  9-C , 11-H ) :   0.9632 B(  9-C , 12-C ) :   1.0657
B( 12-C , 13-H ) :   0.9752 B( 12-C , 14-H ) :   0.9749 B( 12-C , 15-H ) :   0.9775
B( 16-S , 17-C ) :   1.1456 B( 16-S , 20-C ) :   1.1515 B( 17-C , 18-C ) :   1.6260
B( 17-C , 33-H ) :   0.9729 B( 18-C , 19-C ) :   1.2476 B( 18-C , 21-H ) :   1.0007
B( 19-C , 20-C ) :   1.5761 B( 19-C , 22-C ) :   1.0296 B( 22-C , 23-H ) :   0.9338
B( 22-C , 24-H ) :   0.9317 B( 22-C , 25-C ) :   1.0704 B( 25-C , 26-H ) :   0.9500
B( 25-C , 27-H ) :   0.9505 B( 25-C , 28-C ) :   1.0749 B( 28-C , 29-H ) :   0.9751
B( 28-C , 30-H ) :   0.9768 B( 28-C , 31-H ) :   0.9749

Dispersion correction           -0.014520079
FINAL SINGLE POINT ENERGY     -1339.864213539955

DIPOLE MOMENT
-------------
                                X             Y             Z
Electronic contribution:    -18.17108     -13.60585     -25.69438
Nuclear contribution   :     18.78835      13.64161      26.35770
                        -----------------------------------------
Total Dipole Moment    :      0.61727       0.03576       0.66332
                        -----------------------------------------
Magnitude (a.u.)       :      0.90681
Magnitude (Debye)      :      2.30492

Rotational constants in cm-1:     0.017491     0.009914     0.006638
Rotational constants in MHz :   524.365860   297.215847   199.016728

                             ****ORCA TERMINATED NORMALLY****
TOTAL RUN TIME: 0 days 0 hours 0 minutes 21 seconds 94 msec
