                         Program Version 4.2.1 -  RELEASE  -
|  1> ! wB97X-D3 SP def2-SVP
|  2> %pal
|  3> nprocs 24
|  4> end
|  5>
|  6> * xyz 0 1
|  7> S 	 -96.0198 	 51.4332 	 -95.2814
|  8> C 	 -96.0657 	 50.3024 	 -93.8654
|  9> C 	 -95.5819 	 49.0467 	 -94.2263
| 10> C 	 -95.0687 	 49.0246 	 -95.5888
| 11> C 	 -95.3116 	 50.2157 	 -96.2531
| 12> H 	 -94.6933 	 48.1465 	 -96.137
| 13> C 	 -95.6119 	 47.7775 	 -93.3003
| 14> H 	 -95.7128 	 48.0735 	 -92.2307
| 15> H 	 -94.5679 	 47.3491 	 -93.0911
| 16> C 	 -96.5715 	 46.6151 	 -93.7455
| 17> H 	 -97.6213 	 46.9854 	 -93.8909
| 18> H 	 -96.2969 	 46.2074 	 -94.7948
| 19> C 	 -96.4566 	 45.2879 	 -92.8864
| 20> H 	 -97.0412 	 44.4857 	 -93.3141
| 21> H 	 -95.4193 	 44.9671 	 -92.737
| 22> H 	 -96.8216 	 45.5415 	 -91.9092
| 23> S 	 -93.63 	 50.6061 	 -98.3855
| 24> C 	 -94.2897 	 50.7156 	 -99.9353
| 25> C 	 -95.6602 	 50.5675 	 -99.974
| 26> C 	 -96.2675 	 50.4106 	 -98.6812
| 27> C 	 -95.2458 	 50.3947 	 -97.6797
| 28> H 	 -96.0511 	 50.4711 	 -100.986
| 29> C 	 -97.7747 	 50.1156 	 -98.4919
| 30> H 	 -98.3821 	 50.2067 	 -99.3873
| 31> H 	 -98.2064 	 50.7845 	 -97.7588
| 32> C 	 -98.0713 	 48.6381 	 -98.0571
| 33> H 	 -97.4601 	 48.2967 	 -97.2229
| 34> H 	 -97.8153 	 47.9395 	 -98.8737
| 35> C 	 -99.4501 	 48.3117 	 -97.6522
| 36> H 	 -99.8328 	 49.022 	 -96.8612
| 37> H 	 -99.4609 	 47.3489 	 -97.1395
| 38> H 	 -100.148 	 48.3386 	 -98.5089
| 39> H 	 -96.5856 	 50.45 	 -93.0113
| 40> H 	 -93.6811 	 50.7764 	 -100.855
| 41> *
| 42>
| 43>                          ****END OF INPUT****

CARTESIAN COORDINATES (ANGSTROEM)
---------------------------------
  S    -96.019800   51.433200  -95.281400
  C    -96.065700   50.302400  -93.865400
  C    -95.581900   49.046700  -94.226300
  C    -95.068700   49.024600  -95.588800
  C    -95.311600   50.215700  -96.253100
  H    -94.693300   48.146500  -96.137000
  C    -95.611900   47.777500  -93.300300
  H    -95.712800   48.073500  -92.230700
  H    -94.567900   47.349100  -93.091100
  C    -96.571500   46.615100  -93.745500
  H    -97.621300   46.985400  -93.890900
  H    -96.296900   46.207400  -94.794800
  C    -96.456600   45.287900  -92.886400
  H    -97.041200   44.485700  -93.314100
  H    -95.419300   44.967100  -92.737000
  H    -96.821600   45.541500  -91.909200
  S    -93.630000   50.606100  -98.385500
  C    -94.289700   50.715600  -99.935300
  C    -95.660200   50.567500  -99.974000
  C    -96.267500   50.410600  -98.681200
  C    -95.245800   50.394700  -97.679700
  H    -96.051100   50.471100  -100.986000
  C    -97.774700   50.115600  -98.491900
  H    -98.382100   50.206700  -99.387300
  H    -98.206400   50.784500  -97.758800
  C    -98.071300   48.638100  -98.057100
  H    -97.460100   48.296700  -97.222900
  H    -97.815300   47.939500  -98.873700
  C    -99.450100   48.311700  -97.652200
  H    -99.832800   49.022000  -96.861200
  H    -99.460900   47.348900  -97.139500
  H    -100.148000   48.338600  -98.508900
  H    -96.585600   50.450000  -93.011300
  H    -93.681100   50.776400  -100.855000

 Total Charge           Charge          ....    0
 Multiplicity           Mult            ....    1
 Number of Electrons    NEL             ....  134
 Basis Dimension        Dim             ....  322

ORBITAL ENERGIES
----------------

  NO   OCC          E(Eh)            E(eV)
   0   2.0000     -88.968993     -2420.9694
   1   2.0000     -88.966532     -2420.9024
   2   2.0000     -10.328127      -281.0426
   3   2.0000     -10.325532      -280.9720
   4   2.0000     -10.315350      -280.6949
   5   2.0000     -10.313740      -280.6511
   6   2.0000     -10.313275      -280.6385
   7   2.0000     -10.311181      -280.5815
   8   2.0000     -10.310861      -280.5728
   9   2.0000     -10.306461      -280.4531
  10   2.0000     -10.298762      -280.2436
  11   2.0000     -10.295471      -280.1540
  12   2.0000     -10.291945      -280.0581
  13   2.0000     -10.283685      -279.8333
  14   2.0000     -10.278800      -279.7004
  15   2.0000     -10.276645      -279.6417
  16   2.0000      -8.083214      -219.9554
  17   2.0000      -8.081910      -219.9199
  18   2.0000      -6.041758      -164.4046
  19   2.0000      -6.040191      -164.3620
  20   2.0000      -6.037767      -164.2960
  21   2.0000      -6.036276      -164.2554
  22   2.0000      -6.033982      -164.1930
  23   2.0000      -6.032934      -164.1645
  24   2.0000      -1.004859       -27.3436
  25   2.0000      -0.980070       -26.6691
  26   2.0000      -0.906573       -24.6691
  27   2.0000      -0.898528       -24.4502
  28   2.0000      -0.866606       -23.5815
  29   2.0000      -0.853794       -23.2329
  30   2.0000      -0.842568       -22.9274
  31   2.0000      -0.810261       -22.0483
  32   2.0000      -0.784856       -21.3570
  33   2.0000      -0.771825       -21.0024
  34   2.0000      -0.705141       -19.1879
  35   2.0000      -0.696972       -18.9656
  36   2.0000      -0.684231       -18.6189
  37   2.0000      -0.655200       -17.8289
  38   2.0000      -0.642434       -17.4815
  39   2.0000      -0.615673       -16.7533
  40   2.0000      -0.595672       -16.2091
  41   2.0000      -0.568992       -15.4831
  42   2.0000      -0.561909       -15.2903
  43   2.0000      -0.546122       -14.8607
  44   2.0000      -0.529433       -14.4066
  45   2.0000      -0.520746       -14.1702
  46   2.0000      -0.513391       -13.9701
  47   2.0000      -0.508641       -13.8408
  48   2.0000      -0.503846       -13.7104
  49   2.0000      -0.499106       -13.5814
  50   2.0000      -0.491358       -13.3705
  51   2.0000      -0.482664       -13.1340
  52   2.0000      -0.473033       -12.8719
  53   2.0000      -0.459643       -12.5075
  54   2.0000      -0.455546       -12.3960
  55   2.0000      -0.452973       -12.3260
  56   2.0000      -0.444522       -12.0961
  57   2.0000      -0.440983       -11.9998
  58   2.0000      -0.430517       -11.7150
  59   2.0000      -0.422954       -11.5092
  60   2.0000      -0.419904       -11.4262
  61   2.0000      -0.412080       -11.2133
  62   2.0000      -0.404127       -10.9969
  63   2.0000      -0.335818        -9.1381
  64   2.0000      -0.330723        -8.9994
  65   2.0000      -0.327654        -8.9159
  66   2.0000      -0.301559        -8.2058
  67   0.0000       0.035523         0.9666
  68   0.0000       0.061331         1.6689
  69   0.0000       0.110908         3.0180
  70   0.0000       0.113059         3.0765
  71   0.0000       0.127850         3.4790

MULLIKEN ATOMIC CHARGES
-----------------------
   0 S :    0.117115
   1 C :   -0.073797
   2 C :   -0.079623
   3 C :    0.054057
   4 C :   -0.165224
   5 H :    0.029539
   6 C :    0.024658
   7 H :    0.020516
   8 H :    0.035265
   9 C :   -0.121075
  10 H :    0.047660
  11 H :    0.039585
  12 C :   -0.041356
  13 H :    0.044053
  14 H :    0.035132
  15 H :    0.025734
  16 S :    0.129881
  17 C :   -0.107462
  18 C :   -0.057699
  19 C :    0.023843
  20 C :   -0.218206
  21 H :    0.022046
  22 C :    0.106210
  23 H :    0.017817
  24 H :    0.024623
  25 C :   -0.100166
  26 H :    0.028335
  27 H :    0.025319
  28 C :   -0.054554
  29 H :    0.029523
  30 H :    0.033858
  31 H :    0.032160
  32 H :    0.007887
  33 H :    0.064349
Sum of atomic charges:   -0.0000000

LOEWDIN ATOMIC CHARGES
----------------------
   0 S :    0.407974
   1 C :   -0.168905
   2 C :   -0.051000
   3 C :   -0.060789
   4 C :   -0.213717
   5 H :    0.037399
   6 C :   -0.048981
   7 H :    0.031270
   8 H :    0.039436
   9 C :   -0.050222
  10 H :    0.028440
  11 H :    0.029248
  12 C :   -0.063376
  13 H :    0.028034
  14 H :    0.027320
  15 H :    0.019661
  16 S :    0.431464
  17 C :   -0.212844
  18 C :   -0.081698
  19 C :   -0.041131
  20 C :   -0.203611
  21 H :    0.034616
  22 C :   -0.025808
  23 H :    0.031036
  24 H :    0.028198
  25 C :   -0.049888
  26 H :    0.023510
  27 H :    0.025187
  28 C :   -0.070023
  29 H :    0.027936
  30 H :    0.029619
  31 H :    0.022213
  32 H :    0.005045
  33 H :    0.034387

  Mayer bond orders larger than 0.100000
B(  0-S ,  1-C ) :   1.1164 B(  0-S ,  4-C ) :   1.1636 B(  1-C ,  2-C ) :   1.6444
B(  1-C , 32-H ) :   0.9784 B(  2-C ,  3-C ) :   1.2174 B(  2-C ,  6-C ) :   1.0170
B(  3-C ,  4-C ) :   1.5881 B(  3-C ,  5-H ) :   0.9851 B(  4-C , 20-C ) :   1.0226
B(  6-C ,  7-H ) :   0.9461 B(  6-C ,  8-H ) :   0.9439 B(  6-C ,  9-C ) :   1.0355
B(  9-C , 10-H ) :   0.9594 B(  9-C , 11-H ) :   0.9608 B(  9-C , 12-C ) :   1.0646
B( 12-C , 13-H ) :   0.9771 B( 12-C , 14-H ) :   0.9756 B( 12-C , 15-H ) :   0.9783
B( 16-S , 17-C ) :   1.1752 B( 16-S , 20-C ) :   1.1657 B( 17-C , 18-C ) :   1.6123
B( 17-C , 20-C ) :   0.1022 B( 17-C , 33-H ) :   0.9593 B( 18-C , 19-C ) :   1.2436
B( 18-C , 21-H ) :   0.9894 B( 19-C , 20-C ) :   1.5563 B( 19-C , 22-C ) :   1.0469
B( 22-C , 23-H ) :   0.9398 B( 22-C , 24-H ) :   0.9310 B( 22-C , 25-C ) :   1.0541
B( 25-C , 26-H ) :   0.9558 B( 25-C , 27-H ) :   0.9518 B( 25-C , 28-C ) :   1.1024
B( 28-C , 29-H ) :   0.9696 B( 28-C , 30-H ) :   0.9701 B( 28-C , 31-H ) :   0.9729

Dispersion correction           -0.015047117
FINAL SINGLE POINT ENERGY     -1339.867542410896

DIPOLE MOMENT
-------------
                                X             Y             Z
Electronic contribution:     17.52074      23.77221      -8.13111
Nuclear contribution   :    -17.85704     -24.42654       8.13761
                        -----------------------------------------
Total Dipole Moment    :     -0.33630      -0.65433       0.00650
                        -----------------------------------------
Magnitude (a.u.)       :      0.73573
Magnitude (Debye)      :      1.87007

Rotational constants in cm-1:     0.018124     0.008669     0.007450
Rotational constants in MHz :   543.355856   259.891194   223.345181

                             ****ORCA TERMINATED NORMALLY****
TOTAL RUN TIME: 0 days 0 hours 0 minutes 20 seconds 940 msec
