                         Program Version 4.2.1 -  RELEASE  -
|  1> ! wB97X-D3 SP def2-SVP
|  2> %pal
|  3> nprocs 24
|  4> end
|  5>
|  6> * xyz 0 1
|  7> S 	 -137.132 	 69.8516 	 -63.651
|  8> C 	 -135.684 	 69.112 	 -64.4034
|  9> C 	 -135.973 	 67.8185 	 -64.8904
| 10> C 	 -137.315 	 67.5307 	 -64.7712
| 11> C 	 -138.095 	 68.4567 	 -64.1244
| 12> H 	 -137.81 	 66.6368 	 -65.1428
| 13> C 	 -134.965 	 66.986 	 -65.7132
| 14> H 	 -135.471 	 65.9796 	 -65.7883
| 15> H 	 -134.058 	 66.7514 	 -65.1426
| 16> C 	 -134.594 	 67.6029 	 -67.0947
| 17> H 	 -134.471 	 68.7041 	 -67.0063
| 18> H 	 -133.715 	 67.0876 	 -67.5327
| 19> C 	 -135.732 	 67.4528 	 -68.0629
| 20> H 	 -135.328 	 67.6412 	 -69.115
| 21> H 	 -136.199 	 66.5032 	 -67.9833
| 22> H 	 -136.596 	 68.138 	 -67.7825
| 23> S 	 -140.003 	 68.2323 	 -62.1288
| 24> C 	 -141.694 	 68.1491 	 -62.4492
| 25> C 	 -141.865 	 68.3294 	 -63.8294
| 26> C 	 -140.646 	 68.4661 	 -64.5776
| 27> C 	 -139.502 	 68.4293 	 -63.7916
| 28> H 	 -142.829 	 68.2612 	 -64.2412
| 29> C 	 -140.657 	 68.4734 	 -66.0665
| 30> H 	 -139.774 	 68.9376 	 -66.3782
| 31> H 	 -141.415 	 69.2052 	 -66.3186
| 32> C 	 -140.846 	 67.1714 	 -66.7821
| 33> H 	 -141.784 	 66.7188 	 -66.3891
| 34> H 	 -140.086 	 66.4275 	 -66.4447
| 35> C 	 -140.979 	 67.3811 	 -68.3336
| 36> H 	 -141.793 	 68.0333 	 -68.5501
| 37> H 	 -141.197 	 66.4696 	 -68.9454
| 38> H 	 -140.028 	 67.8009 	 -68.7407
| 39> H 	 -134.684 	 69.5084 	 -64.4616
| 40> H 	 -142.477 	 68.1627 	 -61.7203
| 41> *
| 42>
| 43>                          ****END OF INPUT****

CARTESIAN COORDINATES (ANGSTROEM)
---------------------------------
  S    -137.132000   69.851600  -63.651000
  C    -135.684000   69.112000  -64.403400
  C    -135.973000   67.818500  -64.890400
  C    -137.315000   67.530700  -64.771200
  C    -138.095000   68.456700  -64.124400
  H    -137.810000   66.636800  -65.142800
  C    -134.965000   66.986000  -65.713200
  H    -135.471000   65.979600  -65.788300
  H    -134.058000   66.751400  -65.142600
  C    -134.594000   67.602900  -67.094700
  H    -134.471000   68.704100  -67.006300
  H    -133.715000   67.087600  -67.532700
  C    -135.732000   67.452800  -68.062900
  H    -135.328000   67.641200  -69.115000
  H    -136.199000   66.503200  -67.983300
  H    -136.596000   68.138000  -67.782500
  S    -140.003000   68.232300  -62.128800
  C    -141.694000   68.149100  -62.449200
  C    -141.865000   68.329400  -63.829400
  C    -140.646000   68.466100  -64.577600
  C    -139.502000   68.429300  -63.791600
  H    -142.829000   68.261200  -64.241200
  C    -140.657000   68.473400  -66.066500
  H    -139.774000   68.937600  -66.378200
  H    -141.415000   69.205200  -66.318600
  C    -140.846000   67.171400  -66.782100
  H    -141.784000   66.718800  -66.389100
  H    -140.086000   66.427500  -66.444700
  C    -140.979000   67.381100  -68.333600
  H    -141.793000   68.033300  -68.550100
  H    -141.197000   66.469600  -68.945400
  H    -140.028000   67.800900  -68.740700
  H    -134.684000   69.508400  -64.461600
  H    -142.477000   68.162700  -61.720300

 Total Charge           Charge          ....    0
 Multiplicity           Mult            ....    1
 Number of Electrons    NEL             ....  134
 Basis Dimension        Dim             ....  322

ORBITAL ENERGIES
----------------

  NO   OCC          E(Eh)            E(eV)
   0   2.0000     -88.971427     -2421.0356
   1   2.0000     -88.962383     -2420.7895
   2   2.0000     -10.329355      -281.0760
   3   2.0000     -10.324981      -280.9570
   4   2.0000     -10.320860      -280.8449
   5   2.0000     -10.318584      -280.7829
   6   2.0000     -10.302681      -280.3502
   7   2.0000     -10.301520      -280.3186
   8   2.0000     -10.300943      -280.3029
   9   2.0000     -10.293308      -280.0951
  10   2.0000     -10.293002      -280.0868
  11   2.0000     -10.292572      -280.0751
  12   2.0000     -10.291521      -280.0465
  13   2.0000     -10.285473      -279.8819
  14   2.0000     -10.280080      -279.7352
  15   2.0000     -10.278714      -279.6980
  16   2.0000      -8.085029      -220.0048
  17   2.0000      -8.077655      -219.8042
  18   2.0000      -6.043482      -164.4515
  19   2.0000      -6.039619      -164.3464
  20   2.0000      -6.036130      -164.2514
  21   2.0000      -6.035977      -164.2473
  22   2.0000      -6.031804      -164.1337
  23   2.0000      -6.028673      -164.0485
  24   2.0000      -1.007925       -27.4270
  25   2.0000      -0.985099       -26.8059
  26   2.0000      -0.913416       -24.8553
  27   2.0000      -0.911832       -24.8122
  28   2.0000      -0.869644       -23.6642
  29   2.0000      -0.850484       -23.1428
  30   2.0000      -0.844980       -22.9931
  31   2.0000      -0.814144       -22.1540
  32   2.0000      -0.781601       -21.2684
  33   2.0000      -0.770288       -20.9606
  34   2.0000      -0.708868       -19.2893
  35   2.0000      -0.702314       -19.1109
  36   2.0000      -0.695241       -18.9185
  37   2.0000      -0.664026       -18.0691
  38   2.0000      -0.643216       -17.5028
  39   2.0000      -0.617937       -16.8149
  40   2.0000      -0.598009       -16.2727
  41   2.0000      -0.576906       -15.6984
  42   2.0000      -0.562985       -15.3196
  43   2.0000      -0.550624       -14.9833
  44   2.0000      -0.541024       -14.7220
  45   2.0000      -0.521220       -14.1831
  46   2.0000      -0.519167       -14.1273
  47   2.0000      -0.514511       -14.0006
  48   2.0000      -0.510855       -13.9011
  49   2.0000      -0.499501       -13.5921
  50   2.0000      -0.490817       -13.3558
  51   2.0000      -0.475687       -12.9441
  52   2.0000      -0.474174       -12.9029
  53   2.0000      -0.462817       -12.5939
  54   2.0000      -0.456822       -12.4308
  55   2.0000      -0.446645       -12.1538
  56   2.0000      -0.441417       -12.0116
  57   2.0000      -0.437832       -11.9140
  58   2.0000      -0.435711       -11.8563
  59   2.0000      -0.425968       -11.5912
  60   2.0000      -0.417495       -11.3606
  61   2.0000      -0.415720       -11.3123
  62   2.0000      -0.411072       -11.1858
  63   2.0000      -0.341818        -9.3013
  64   2.0000      -0.331497        -9.0205
  65   2.0000      -0.326331        -8.8799
  66   2.0000      -0.303072        -8.2470
  67   0.0000       0.032609         0.8873
  68   0.0000       0.055282         1.5043
  69   0.0000       0.112718         3.0672
  70   0.0000       0.119890         3.2624
  71   0.0000       0.128622         3.5000

MULLIKEN ATOMIC CHARGES
-----------------------
   0 S :    0.125800
   1 C :   -0.118836
   2 C :   -0.087556
   3 C :    0.047235
   4 C :   -0.182363
   5 H :    0.006336
   6 C :    0.028412
   7 H :    0.029047
   8 H :    0.038065
   9 C :   -0.052760
  10 H :    0.040641
  11 H :    0.040579
  12 C :   -0.083472
  13 H :    0.049995
  14 H :    0.014235
  15 H :    0.047009
  16 S :    0.109862
  17 C :   -0.085055
  18 C :   -0.031996
  19 C :   -0.036152
  20 C :   -0.168957
  21 H :    0.001803
  22 C :    0.102661
  23 H :    0.001131
  24 H :    0.013169
  25 C :   -0.062783
  26 H :    0.020549
  27 H :    0.030091
  28 C :   -0.051002
  29 H :    0.027283
  30 H :    0.041070
  31 H :    0.039669
  32 H :    0.047715
  33 H :    0.058575
Sum of atomic charges:    0.0000000

LOEWDIN ATOMIC CHARGES
----------------------
   0 S :    0.403433
   1 C :   -0.180680
   2 C :   -0.068548
   3 C :   -0.061688
   4 C :   -0.195809
   5 H :    0.032388
   6 C :   -0.034737
   7 H :    0.033249
   8 H :    0.031661
   9 C :   -0.044025
  10 H :    0.031343
  11 H :    0.028426
  12 C :   -0.074257
  13 H :    0.035137
  14 H :    0.012926
  15 H :    0.033086
  16 S :    0.423517
  17 C :   -0.189719
  18 C :   -0.069744
  19 C :   -0.052255
  20 C :   -0.213338
  21 H :    0.020779
  22 C :   -0.035397
  23 H :    0.021174
  24 H :    0.032217
  25 C :   -0.040264
  26 H :    0.024074
  27 H :    0.025771
  28 C :   -0.067084
  29 H :    0.021296
  30 H :    0.031345
  31 H :    0.029523
  32 H :    0.026529
  33 H :    0.029675

  Mayer bond orders larger than 0.100000
B(  0-S ,  1-C ) :   1.1574 B(  0-S ,  4-C ) :   1.1530 B(  1-C ,  2-C ) :   1.5735
B(  1-C ,  4-C ) :   0.1205 B(  1-C , 32-H ) :   0.9685 B(  2-C ,  3-C ) :   1.2757
B(  2-C ,  6-C ) :   1.0142 B(  3-C ,  4-C ) :   1.5737 B(  3-C ,  5-H ) :   0.9923
B(  4-C , 20-C ) :   1.0233 B(  6-C ,  7-H ) :   0.9482 B(  6-C ,  8-H ) :   0.9404
B(  6-C ,  9-C ) :   1.0598 B(  9-C , 10-H ) :   0.9569 B(  9-C , 11-H ) :   0.9565
B(  9-C , 12-C ) :   1.0728 B( 12-C , 13-H ) :   0.9732 B( 12-C , 14-H ) :   0.9751
B( 12-C , 15-H ) :   0.9736 B( 16-S , 17-C ) :   1.1803 B( 16-S , 20-C ) :   1.1509
B( 17-C , 18-C ) :   1.5622 B( 17-C , 20-C ) :   0.1045 B( 17-C , 33-H ) :   0.9721
B( 18-C , 19-C ) :   1.2624 B( 18-C , 21-H ) :   0.9987 B( 19-C , 20-C ) :   1.5688
B( 19-C , 22-C ) :   1.0588 B( 22-C , 23-H ) :   0.9171 B( 22-C , 24-H ) :   0.9223
B( 22-C , 25-C ) :   1.0649 B( 25-C , 26-H ) :   0.9533 B( 25-C , 27-H ) :   0.9519
B( 25-C , 28-C ) :   1.0666 B( 28-C , 29-H ) :   0.9752 B( 28-C , 30-H ) :   0.9762
B( 28-C , 31-H ) :   0.9771

Dispersion correction           -0.015075006
FINAL SINGLE POINT ENERGY     -1339.882606011215

DIPOLE MOMENT
-------------
                                X             Y             Z
Electronic contribution:     -2.81244       9.89110      28.78085
Nuclear contribution   :      2.78849     -10.15485     -29.36417
                        -----------------------------------------
Total Dipole Moment    :     -0.02395      -0.26375      -0.58332
                        -----------------------------------------
Magnitude (a.u.)       :      0.64063
Magnitude (Debye)      :      1.62834

Rotational constants in cm-1:     0.017656     0.009879     0.006962
Rotational constants in MHz :   529.320146   296.165434   208.728844

                             ****ORCA TERMINATED NORMALLY****
TOTAL RUN TIME: 0 days 0 hours 0 minutes 22 seconds 261 msec
