                         Program Version 4.2.1 -  RELEASE  -
|  1> ! wB97X-D3 SP def2-SVP
|  2> %pal
|  3> nprocs 24
|  4> end
|  5>
|  6> * xyz 0 1
|  7> S 	 -41.4998 	 18.6434 	 26.9481
|  8> C 	 -41.9469 	 16.925 	 27.1322
|  9> C 	 -42.0304 	 16.3535 	 25.8314
| 10> C 	 -41.7149 	 17.2692 	 24.7577
| 11> C 	 -41.2074 	 18.4824 	 25.1587
| 12> H 	 -41.6651 	 17.056 	 23.6653
| 13> C 	 -42.3259 	 14.8777 	 25.5858
| 14> H 	 -41.7085 	 14.2428 	 26.2211
| 15> H 	 -42.0648 	 14.7455 	 24.5739
| 16> C 	 -43.8708 	 14.5457 	 25.7917
| 17> H 	 -43.9002 	 14.369 	 26.8746
| 18> H 	 -44.5462 	 15.3551 	 25.5787
| 19> C 	 -44.4025 	 13.3095 	 25.0701
| 20> H 	 -43.9102 	 12.4501 	 25.534
| 21> H 	 -45.4776 	 13.1944 	 25.1746
| 22> H 	 -44.178 	 13.3405 	 23.9827
| 23> S 	 -41.4543 	 21.1239 	 24.2674
| 24> C 	 -40.3056 	 21.7802 	 23.1855
| 25> C 	 -39.5594 	 20.7391 	 22.6912
| 26> C 	 -39.6867 	 19.4948 	 23.3984
| 27> C 	 -40.6441 	 19.6108 	 24.4036
| 28> H 	 -38.9291 	 20.9852 	 21.8268
| 29> C 	 -38.8853 	 18.2497 	 22.9613
| 30> H 	 -39.0026 	 18.0979 	 21.8855
| 31> H 	 -39.4202 	 17.35 	 23.3678
| 32> C 	 -37.3837 	 18.3 	 23.3025
| 33> H 	 -36.921 	 19.1559 	 22.7941
| 34> H 	 -36.8353 	 17.3881 	 22.9298
| 35> C 	 -37.1119 	 18.3011 	 24.8247
| 36> H 	 -37.3421 	 17.3984 	 25.3806
| 37> H 	 -37.6121 	 19.0988 	 25.3174
| 38> H 	 -35.9913 	 18.496 	 24.9682
| 39> H 	 -42.1993 	 16.4284 	 28.0328
| 40> H 	 -40.3535 	 22.7583 	 22.7809
| 41> *
| 42>
| 43>                          ****END OF INPUT****

CARTESIAN COORDINATES (ANGSTROEM)
---------------------------------
  S    -41.499800   18.643400   26.948100
  C    -41.946900   16.925000   27.132200
  C    -42.030400   16.353500   25.831400
  C    -41.714900   17.269200   24.757700
  C    -41.207400   18.482400   25.158700
  H    -41.665100   17.056000   23.665300
  C    -42.325900   14.877700   25.585800
  H    -41.708500   14.242800   26.221100
  H    -42.064800   14.745500   24.573900
  C    -43.870800   14.545700   25.791700
  H    -43.900200   14.369000   26.874600
  H    -44.546200   15.355100   25.578700
  C    -44.402500   13.309500   25.070100
  H    -43.910200   12.450100   25.534000
  H    -45.477600   13.194400   25.174600
  H    -44.178000   13.340500   23.982700
  S    -41.454300   21.123900   24.267400
  C    -40.305600   21.780200   23.185500
  C    -39.559400   20.739100   22.691200
  C    -39.686700   19.494800   23.398400
  C    -40.644100   19.610800   24.403600
  H    -38.929100   20.985200   21.826800
  C    -38.885300   18.249700   22.961300
  H    -39.002600   18.097900   21.885500
  H    -39.420200   17.350000   23.367800
  C    -37.383700   18.300000   23.302500
  H    -36.921000   19.155900   22.794100
  H    -36.835300   17.388100   22.929800
  C    -37.111900   18.301100   24.824700
  H    -37.342100   17.398400   25.380600
  H    -37.612100   19.098800   25.317400
  H    -35.991300   18.496000   24.968200
  H    -42.199300   16.428400   28.032800
  H    -40.353500   22.758300   22.780900

 Total Charge           Charge          ....    0
 Multiplicity           Mult            ....    1
 Number of Electrons    NEL             ....  134
 Basis Dimension        Dim             ....  322

ORBITAL ENERGIES
----------------

  NO   OCC          E(Eh)            E(eV)
   0   2.0000     -88.965554     -2420.8758
   1   2.0000     -88.962387     -2420.7896
   2   2.0000     -10.336749      -281.2772
   3   2.0000     -10.328786      -281.0606
   4   2.0000     -10.319992      -280.8213
   5   2.0000     -10.313249      -280.6378
   6   2.0000     -10.309428      -280.5338
   7   2.0000     -10.308884      -280.5190
   8   2.0000     -10.303029      -280.3597
   9   2.0000     -10.297458      -280.2081
  10   2.0000     -10.294822      -280.1364
  11   2.0000     -10.292986      -280.0864
  12   2.0000     -10.291933      -280.0577
  13   2.0000     -10.286893      -279.9206
  14   2.0000     -10.279841      -279.7287
  15   2.0000     -10.272107      -279.5183
  16   2.0000      -8.081582      -219.9110
  17   2.0000      -8.075559      -219.7471
  18   2.0000      -6.040022      -164.3574
  19   2.0000      -6.035941      -164.2463
  20   2.0000      -6.034202      -164.1990
  21   2.0000      -6.032271      -164.1464
  22   2.0000      -6.030253      -164.0915
  23   2.0000      -6.026285      -163.9835
  24   2.0000      -1.010050       -27.4849
  25   2.0000      -0.977419       -26.5969
  26   2.0000      -0.904994       -24.6261
  27   2.0000      -0.902853       -24.5679
  28   2.0000      -0.868606       -23.6360
  29   2.0000      -0.846014       -23.0212
  30   2.0000      -0.840886       -22.8817
  31   2.0000      -0.817387       -22.2422
  32   2.0000      -0.780987       -21.2517
  33   2.0000      -0.768352       -20.9079
  34   2.0000      -0.704647       -19.1744
  35   2.0000      -0.699424       -19.0323
  36   2.0000      -0.694276       -18.8922
  37   2.0000      -0.654681       -17.8148
  38   2.0000      -0.643963       -17.5231
  39   2.0000      -0.616641       -16.7797
  40   2.0000      -0.596395       -16.2287
  41   2.0000      -0.566210       -15.4074
  42   2.0000      -0.559264       -15.2183
  43   2.0000      -0.546357       -14.8671
  44   2.0000      -0.538680       -14.6582
  45   2.0000      -0.527054       -14.3419
  46   2.0000      -0.521147       -14.1811
  47   2.0000      -0.516268       -14.0484
  48   2.0000      -0.503546       -13.7022
  49   2.0000      -0.497703       -13.5432
  50   2.0000      -0.491566       -13.3762
  51   2.0000      -0.477195       -12.9851
  52   2.0000      -0.474737       -12.9182
  53   2.0000      -0.464356       -12.6358
  54   2.0000      -0.458573       -12.4784
  55   2.0000      -0.446075       -12.1383
  56   2.0000      -0.437188       -11.8965
  57   2.0000      -0.431283       -11.7358
  58   2.0000      -0.428076       -11.6485
  59   2.0000      -0.423816       -11.5326
  60   2.0000      -0.419081       -11.4038
  61   2.0000      -0.413027       -11.2390
  62   2.0000      -0.408843       -11.1252
  63   2.0000      -0.345652        -9.4057
  64   2.0000      -0.328428        -8.9370
  65   2.0000      -0.325079        -8.8458
  66   2.0000      -0.297750        -8.1022
  67   0.0000       0.026470         0.7203
  68   0.0000       0.062007         1.6873
  69   0.0000       0.108392         2.9495
  70   0.0000       0.117815         3.2059
  71   0.0000       0.128723         3.5027

MULLIKEN ATOMIC CHARGES
-----------------------
   0 S :    0.083517
   1 C :   -0.088051
   2 C :   -0.138249
   3 C :    0.053522
   4 C :   -0.193937
   5 H :    0.036303
   6 C :    0.097505
   7 H :    0.040165
   8 H :   -0.000245
   9 C :   -0.095827
  10 H :    0.026275
  11 H :    0.037183
  12 C :   -0.049339
  13 H :    0.028092
  14 H :    0.038109
  15 H :    0.037111
  16 S :    0.119715
  17 C :   -0.084388
  18 C :   -0.053060
  19 C :   -0.052073
  20 C :   -0.121309
  21 H :    0.026746
  22 C :    0.069502
  23 H :    0.031208
  24 H :    0.020201
  25 C :   -0.075111
  26 H :    0.035439
  27 H :    0.037090
  28 C :   -0.065434
  29 H :    0.037972
  30 H :    0.034146
  31 H :    0.033932
  32 H :    0.042036
  33 H :    0.051255
Sum of atomic charges:   -0.0000000

LOEWDIN ATOMIC CHARGES
----------------------
   0 S :    0.361070
   1 C :   -0.180914
   2 C :   -0.058601
   3 C :   -0.067710
   4 C :   -0.167073
   5 H :    0.039875
   6 C :   -0.023040
   7 H :    0.033442
   8 H :    0.017982
   9 C :   -0.040778
  10 H :    0.023315
  11 H :    0.022345
  12 C :   -0.068175
  13 H :    0.024881
  14 H :    0.027169
  15 H :    0.026662
  16 S :    0.438756
  17 C :   -0.192962
  18 C :   -0.074187
  19 C :   -0.053321
  20 C :   -0.219543
  21 H :    0.032993
  22 C :   -0.037489
  23 H :    0.032659
  24 H :    0.031405
  25 C :   -0.043113
  26 H :    0.025002
  27 H :    0.030644
  28 C :   -0.069206
  29 H :    0.025680
  30 H :    0.019222
  31 H :    0.033197
  32 H :    0.023338
  33 H :    0.026475

  Mayer bond orders larger than 0.100000
B(  0-S ,  1-C ) :   1.1322 B(  0-S ,  4-C ) :   1.1319 B(  1-C ,  2-C ) :   1.5958
B(  1-C ,  4-C ) :   0.1076 B(  1-C , 32-H ) :   0.9794 B(  2-C ,  3-C ) :   1.2293
B(  2-C ,  6-C ) :   1.0270 B(  3-C ,  4-C ) :   1.6048 B(  3-C ,  5-H ) :   0.9744
B(  4-C , 20-C ) :   1.0254 B(  6-C ,  7-H ) :   0.9473 B(  6-C ,  8-H ) :   0.9442
B(  6-C ,  9-C ) :   1.0350 B(  9-C , 10-H ) :   0.9587 B(  9-C , 11-H ) :   0.9667
B(  9-C , 12-C ) :   1.0865 B( 12-C , 13-H ) :   0.9745 B( 12-C , 14-H ) :   0.9748
B( 12-C , 15-H ) :   0.9765 B( 16-S , 17-C ) :   1.1668 B( 16-S , 20-C ) :   1.1726
B( 17-C , 18-C ) :   1.5884 B( 17-C , 33-H ) :   0.9749 B( 18-C , 19-C ) :   1.2538
B( 18-C , 21-H ) :   0.9886 B( 19-C , 20-C ) :   1.5540 B( 19-C , 22-C ) :   1.0308
B( 22-C , 23-H ) :   0.9386 B( 22-C , 24-H ) :   0.9313 B( 22-C , 25-C ) :   1.0708
B( 25-C , 26-H ) :   0.9584 B( 25-C , 27-H ) :   0.9552 B( 25-C , 28-C ) :   1.0710
B( 28-C , 29-H ) :   0.9764 B( 28-C , 30-H ) :   0.9774 B( 28-C , 31-H ) :   0.9737

Dispersion correction           -0.014363551
FINAL SINGLE POINT ENERGY     -1339.873933932494

DIPOLE MOMENT
-------------
                                X             Y             Z
Electronic contribution:     -4.82204      23.91794       5.28851
Nuclear contribution   :      4.89557     -24.41746      -5.81813
                        -----------------------------------------
Total Dipole Moment    :      0.07353      -0.49952      -0.52962
                        -----------------------------------------
Magnitude (a.u.)       :      0.73173
Magnitude (Debye)      :      1.85990

Rotational constants in cm-1:     0.020302     0.007564     0.006778
Rotational constants in MHz :   608.633513   226.761857   203.197562

                             ****ORCA TERMINATED NORMALLY****
TOTAL RUN TIME: 0 days 0 hours 0 minutes 20 seconds 117 msec
