                         Program Version 4.2.1 -  RELEASE  -
|  1> ! wB97X-D3 SP def2-SVP
|  2> %pal
|  3> nprocs 24
|  4> end
|  5>
|  6> * xyz 0 1
|  7> S 	 -84.8367 	 3.69547 	 -115.967
|  8> C 	 -84.1333 	 4.11874 	 -117.532
|  9> C 	 -85.127 	 4.09415 	 -118.454
| 10> C 	 -86.4359 	 3.81001 	 -117.84
| 11> C 	 -86.4574 	 3.75676 	 -116.468
| 12> H 	 -87.3838 	 3.69527 	 -118.292
| 13> C 	 -84.7895 	 4.21852 	 -119.914
| 14> H 	 -83.7324 	 4.07538 	 -119.893
| 15> H 	 -85.0069 	 5.26173 	 -120.303
| 16> C 	 -85.3902 	 3.12634 	 -120.901
| 17> H 	 -84.8978 	 3.25882 	 -121.814
| 18> H 	 -85.0624 	 2.18807 	 -120.607
| 19> C 	 -86.9287 	 3.09002 	 -121.1
| 20> H 	 -87.3361 	 2.57833 	 -120.243
| 21> H 	 -87.4965 	 4.01529 	 -121.244
| 22> H 	 -87.2844 	 2.48426 	 -121.909
| 23> S 	 -87.4418 	 2.41496 	 -114.227
| 24> C 	 -88.9628 	 2.82697 	 -113.608
| 25> C 	 -89.6732 	 3.65361 	 -114.477
| 26> C 	 -88.8695 	 4.12651 	 -115.5
| 27> C 	 -87.6174 	 3.5684 	 -115.543
| 28> H 	 -90.6631 	 4.04706 	 -114.253
| 29> C 	 -89.3711 	 5.18495 	 -116.512
| 30> H 	 -88.5803 	 5.81864 	 -116.875
| 31> H 	 -90.1065 	 5.77282 	 -115.975
| 32> C 	 -90.2083 	 4.66125 	 -117.756
| 33> H 	 -91.0236 	 4.08826 	 -117.458
| 34> H 	 -89.5928 	 4.02988 	 -118.445
| 35> C 	 -90.6681 	 5.9192 	 -118.503
| 36> H 	 -91.2624 	 6.66482 	 -117.991
| 37> H 	 -91.3357 	 5.68791 	 -119.335
| 38> H 	 -89.8088 	 6.37832 	 -118.917
| 39> H 	 -83.0745 	 4.09721 	 -117.833
| 40> H 	 -89.2483 	 2.62923 	 -112.607
| 41> *
| 42>
| 43>                          ****END OF INPUT****

CARTESIAN COORDINATES (ANGSTROEM)
---------------------------------
  S    -84.836700    3.695470  -115.967000
  C    -84.133300    4.118740  -117.532000
  C    -85.127000    4.094150  -118.454000
  C    -86.435900    3.810010  -117.840000
  C    -86.457400    3.756760  -116.468000
  H    -87.383800    3.695270  -118.292000
  C    -84.789500    4.218520  -119.914000
  H    -83.732400    4.075380  -119.893000
  H    -85.006900    5.261730  -120.303000
  C    -85.390200    3.126340  -120.901000
  H    -84.897800    3.258820  -121.814000
  H    -85.062400    2.188070  -120.607000
  C    -86.928700    3.090020  -121.100000
  H    -87.336100    2.578330  -120.243000
  H    -87.496500    4.015290  -121.244000
  H    -87.284400    2.484260  -121.909000
  S    -87.441800    2.414960  -114.227000
  C    -88.962800    2.826970  -113.608000
  C    -89.673200    3.653610  -114.477000
  C    -88.869500    4.126510  -115.500000
  C    -87.617400    3.568400  -115.543000
  H    -90.663100    4.047060  -114.253000
  C    -89.371100    5.184950  -116.512000
  H    -88.580300    5.818640  -116.875000
  H    -90.106500    5.772820  -115.975000
  C    -90.208300    4.661250  -117.756000
  H    -91.023600    4.088260  -117.458000
  H    -89.592800    4.029880  -118.445000
  C    -90.668100    5.919200  -118.503000
  H    -91.262400    6.664820  -117.991000
  H    -91.335700    5.687910  -119.335000
  H    -89.808800    6.378320  -118.917000
  H    -83.074500    4.097210  -117.833000
  H    -89.248300    2.629230  -112.607000

 Total Charge           Charge          ....    0
 Multiplicity           Mult            ....    1
 Number of Electrons    NEL             ....  134
 Basis Dimension        Dim             ....  322

ORBITAL ENERGIES
----------------

  NO   OCC          E(Eh)            E(eV)
   0   2.0000     -88.966803     -2420.9098
   1   2.0000     -88.958706     -2420.6895
   2   2.0000     -10.328884      -281.0632
   3   2.0000     -10.328284      -281.0469
   4   2.0000     -10.314894      -280.6825
   5   2.0000     -10.313566      -280.6464
   6   2.0000     -10.301977      -280.3311
   7   2.0000     -10.300764      -280.2981
   8   2.0000     -10.298235      -280.2292
   9   2.0000     -10.293554      -280.1018
  10   2.0000     -10.292823      -280.0819
  11   2.0000     -10.290456      -280.0175
  12   2.0000     -10.289974      -280.0044
  13   2.0000     -10.284723      -279.8615
  14   2.0000     -10.276752      -279.6446
  15   2.0000     -10.273958      -279.5686
  16   2.0000      -8.082578      -219.9381
  17   2.0000      -8.074391      -219.7153
  18   2.0000      -6.040869      -164.3804
  19   2.0000      -6.036811      -164.2700
  20   2.0000      -6.033640      -164.1837
  21   2.0000      -6.033026      -164.1670
  22   2.0000      -6.028712      -164.0496
  23   2.0000      -6.024969      -163.9478
  24   2.0000      -1.013621       -27.5820
  25   2.0000      -0.993192       -27.0261
  26   2.0000      -0.909193       -24.7404
  27   2.0000      -0.907103       -24.6835
  28   2.0000      -0.870261       -23.6810
  29   2.0000      -0.858404       -23.3584
  30   2.0000      -0.838214       -22.8090
  31   2.0000      -0.818336       -22.2681
  32   2.0000      -0.784562       -21.3490
  33   2.0000      -0.775312       -21.0973
  34   2.0000      -0.714568       -19.4444
  35   2.0000      -0.705998       -19.2112
  36   2.0000      -0.695473       -18.9248
  37   2.0000      -0.665918       -18.1206
  38   2.0000      -0.642963       -17.4959
  39   2.0000      -0.616129       -16.7657
  40   2.0000      -0.600740       -16.3470
  41   2.0000      -0.574518       -15.6334
  42   2.0000      -0.568609       -15.4726
  43   2.0000      -0.543243       -14.7824
  44   2.0000      -0.533984       -14.5305
  45   2.0000      -0.524052       -14.2602
  46   2.0000      -0.516702       -14.0602
  47   2.0000      -0.514861       -14.0101
  48   2.0000      -0.507187       -13.8013
  49   2.0000      -0.501560       -13.6481
  50   2.0000      -0.492477       -13.4010
  51   2.0000      -0.486556       -13.2399
  52   2.0000      -0.472301       -12.8520
  53   2.0000      -0.468968       -12.7613
  54   2.0000      -0.464966       -12.6524
  55   2.0000      -0.454053       -12.3554
  56   2.0000      -0.444219       -12.0878
  57   2.0000      -0.440112       -11.9761
  58   2.0000      -0.430875       -11.7247
  59   2.0000      -0.429587       -11.6897
  60   2.0000      -0.426298       -11.6001
  61   2.0000      -0.418032       -11.3752
  62   2.0000      -0.407584       -11.0909
  63   2.0000      -0.349203        -9.5023
  64   2.0000      -0.336286        -9.1508
  65   2.0000      -0.321376        -8.7451
  66   2.0000      -0.295981        -8.0541
  67   0.0000       0.026242         0.7141
  68   0.0000       0.079933         2.1751
  69   0.0000       0.110145         2.9972
  70   0.0000       0.129186         3.5153
  71   0.0000       0.130198         3.5429

MULLIKEN ATOMIC CHARGES
-----------------------
   0 S :    0.087856
   1 C :   -0.123813
   2 C :   -0.088429
   3 C :    0.051486
   4 C :   -0.129379
   5 H :   -0.046616
   6 C :    0.055688
   7 H :    0.006695
   8 H :    0.053718
   9 C :   -0.015117
  10 H :    0.014167
  11 H :    0.009216
  12 C :   -0.058402
  13 H :    0.032491
  14 H :    0.032862
  15 H :    0.022904
  16 S :    0.117916
  17 C :   -0.085444
  18 C :   -0.033780
  19 C :   -0.021697
  20 C :   -0.147284
  21 H :    0.019133
  22 C :    0.040553
  23 H :    0.034369
  24 H :    0.013211
  25 C :   -0.045982
  26 H :    0.014178
  27 H :    0.040221
  28 C :   -0.042842
  29 H :    0.027884
  30 H :    0.025492
  31 H :    0.022716
  32 H :    0.062969
  33 H :    0.053062
Sum of atomic charges:   -0.0000000

LOEWDIN ATOMIC CHARGES
----------------------
   0 S :    0.407772
   1 C :   -0.198663
   2 C :   -0.064797
   3 C :   -0.071678
   4 C :   -0.202462
   5 H :    0.016440
   6 C :   -0.027364
   7 H :    0.026126
   8 H :    0.038919
   9 C :   -0.024308
  10 H :    0.018243
  11 H :    0.018333
  12 C :   -0.071875
  13 H :    0.024431
  14 H :    0.026196
  15 H :    0.025968
  16 S :    0.430520
  17 C :   -0.189908
  18 C :   -0.073634
  19 C :   -0.058500
  20 C :   -0.196926
  21 H :    0.033243
  22 C :   -0.021580
  23 H :    0.028806
  24 H :    0.027833
  25 C :   -0.026930
  26 H :    0.012720
  27 H :    0.025315
  28 C :   -0.066081
  29 H :    0.023922
  30 H :    0.026225
  31 H :    0.021083
  32 H :    0.038892
  33 H :    0.023721

  Mayer bond orders larger than 0.100000
B(  0-S ,  1-C ) :   1.1257 B(  0-S ,  4-C ) :   1.1590 B(  1-C ,  2-C ) :   1.6341
B(  1-C , 32-H ) :   0.9619 B(  2-C ,  3-C ) :   1.2021 B(  2-C ,  6-C ) :   1.0229
B(  3-C ,  4-C ) :   1.5796 B(  3-C ,  5-H ) :   1.0069 B(  4-C , 20-C ) :   1.0186
B(  6-C ,  7-H ) :   0.9382 B(  6-C ,  8-H ) :   0.9381 B(  6-C ,  9-C ) :   1.0733
B(  9-C , 10-H ) :   0.9572 B(  9-C , 11-H ) :   0.9546 B(  9-C , 12-C ) :   1.0707
B( 12-C , 13-H ) :   0.9718 B( 12-C , 14-H ) :   0.9799 B( 12-C , 15-H ) :   0.9699
B( 16-S , 17-C ) :   1.1979 B( 16-S , 20-C ) :   1.1422 B( 17-C , 18-C ) :   1.5451
B( 17-C , 20-C ) :   0.1049 B( 17-C , 33-H ) :   0.9721 B( 18-C , 19-C ) :   1.2954
B( 18-C , 21-H ) :   0.9877 B( 19-C , 20-C ) :   1.5885 B( 19-C , 22-C ) :   1.0347
B( 22-C , 23-H ) :   0.9416 B( 22-C , 24-H ) :   0.9367 B( 22-C , 25-C ) :   1.0614
B( 25-C , 26-H ) :   0.9536 B( 25-C , 27-H ) :   0.9512 B( 25-C , 28-C ) :   1.0794
B( 28-C , 29-H ) :   0.9756 B( 28-C , 30-H ) :   0.9712 B( 28-C , 31-H ) :   0.9751

Dispersion correction           -0.014498309
FINAL SINGLE POINT ENERGY     -1339.862456059662

DIPOLE MOMENT
-------------
                                X             Y             Z
Electronic contribution:     12.72129      -8.02377      27.20650
Nuclear contribution   :    -13.11242       8.15358     -27.74710
                        -----------------------------------------
Total Dipole Moment    :     -0.39112       0.12980      -0.54061
                        -----------------------------------------
Magnitude (a.u.)       :      0.67977
Magnitude (Debye)      :      1.72783

Rotational constants in cm-1:     0.016380     0.010250     0.007044
Rotational constants in MHz :   491.068665   307.286700   211.173451

                             ****ORCA TERMINATED NORMALLY****
TOTAL RUN TIME: 0 days 0 hours 0 minutes 22 seconds 187 msec
