                         Program Version 4.2.1 -  RELEASE  -
|  1> ! wB97X-D3 SP def2-SVP
|  2> %pal
|  3> nprocs 24
|  4> end
|  5>
|  6> * xyz 0 1
|  7> S 	 23.4845 	 -6.33244 	 -113.825
|  8> C 	 25.0032 	 -7.11295 	 -113.726
|  9> C 	 26.0279 	 -6.2148 	 -113.66
| 10> C 	 25.6097 	 -4.90653 	 -113.963
| 11> C 	 24.2954 	 -4.79421 	 -114.201
| 12> H 	 26.1752 	 -3.9628 	 -113.988
| 13> C 	 27.4925 	 -6.57992 	 -113.479
| 14> H 	 27.8024 	 -6.12348 	 -112.626
| 15> H 	 27.9194 	 -5.9161 	 -114.223
| 16> C 	 27.8922 	 -8.02382 	 -113.407
| 17> H 	 27.1987 	 -8.56007 	 -112.64
| 18> H 	 27.748 	 -8.4549 	 -114.354
| 19> C 	 29.3369 	 -8.18507 	 -113.159
| 20> H 	 29.6128 	 -7.85568 	 -112.182
| 21> H 	 29.6495 	 -9.23604 	 -113.169
| 22> H 	 29.8679 	 -7.62901 	 -113.927
| 23> S 	 23.2498 	 -2.82888 	 -116.04
| 24> C 	 22.6542 	 -1.41179 	 -115.252
| 25> C 	 22.6581 	 -1.45605 	 -113.894
| 26> C 	 23.161 	 -2.66366 	 -113.46
| 27> C 	 23.5595 	 -3.57726 	 -114.459
| 28> H 	 22.2826 	 -0.645085 	 -113.36
| 29> C 	 23.1487 	 -2.90603 	 -111.978
| 30> H 	 23.7265 	 -2.11959 	 -111.443
| 31> H 	 23.7601 	 -3.81156 	 -111.855
| 32> C 	 21.7954 	 -2.96652 	 -111.174
| 33> H 	 21.2284 	 -3.6924 	 -111.815
| 34> H 	 21.4005 	 -1.98857 	 -111.147
| 35> C 	 21.7263 	 -3.70602 	 -109.816
| 36> H 	 22.3731 	 -3.22731 	 -109.078
| 37> H 	 21.7844 	 -4.75035 	 -109.919
| 38> H 	 20.7538 	 -3.51809 	 -109.415
| 39> H 	 25.1218 	 -8.1592 	 -113.384
| 40> H 	 22.2832 	 -0.561051 	 -115.795
| 41> *
| 42>
| 43>                          ****END OF INPUT****

CARTESIAN COORDINATES (ANGSTROEM)
---------------------------------
  S     23.484500   -6.332440  -113.825000
  C     25.003200   -7.112950  -113.726000
  C     26.027900   -6.214800  -113.660000
  C     25.609700   -4.906530  -113.963000
  C     24.295400   -4.794210  -114.201000
  H     26.175200   -3.962800  -113.988000
  C     27.492500   -6.579920  -113.479000
  H     27.802400   -6.123480  -112.626000
  H     27.919400   -5.916100  -114.223000
  C     27.892200   -8.023820  -113.407000
  H     27.198700   -8.560070  -112.640000
  H     27.748000   -8.454900  -114.354000
  C     29.336900   -8.185070  -113.159000
  H     29.612800   -7.855680  -112.182000
  H     29.649500   -9.236040  -113.169000
  H     29.867900   -7.629010  -113.927000
  S     23.249800   -2.828880  -116.040000
  C     22.654200   -1.411790  -115.252000
  C     22.658100   -1.456050  -113.894000
  C     23.161000   -2.663660  -113.460000
  C     23.559500   -3.577260  -114.459000
  H     22.282600   -0.645085  -113.360000
  C     23.148700   -2.906030  -111.978000
  H     23.726500   -2.119590  -111.443000
  H     23.760100   -3.811560  -111.855000
  C     21.795400   -2.966520  -111.174000
  H     21.228400   -3.692400  -111.815000
  H     21.400500   -1.988570  -111.147000
  C     21.726300   -3.706020  -109.816000
  H     22.373100   -3.227310  -109.078000
  H     21.784400   -4.750350  -109.919000
  H     20.753800   -3.518090  -109.415000
  H     25.121800   -8.159200  -113.384000
  H     22.283200   -0.561051  -115.795000

 Total Charge           Charge          ....    0
 Multiplicity           Mult            ....    1
 Number of Electrons    NEL             ....  134
 Basis Dimension        Dim             ....  322

ORBITAL ENERGIES
----------------

  NO   OCC          E(Eh)            E(eV)
   0   2.0000     -88.968487     -2420.9556
   1   2.0000     -88.958496     -2420.6837
   2   2.0000     -10.323731      -280.9230
   3   2.0000     -10.321228      -280.8549
   4   2.0000     -10.312637      -280.6211
   5   2.0000     -10.306690      -280.4593
   6   2.0000     -10.297380      -280.2060
   7   2.0000     -10.294526      -280.1283
   8   2.0000     -10.288811      -279.9728
   9   2.0000     -10.286677      -279.9147
  10   2.0000     -10.286305      -279.9046
  11   2.0000     -10.284731      -279.8617
  12   2.0000     -10.280200      -279.7385
  13   2.0000     -10.280038      -279.7341
  14   2.0000     -10.274653      -279.5875
  15   2.0000     -10.273199      -279.5480
  16   2.0000      -8.082965      -219.9487
  17   2.0000      -8.073793      -219.6991
  18   2.0000      -6.041318      -164.3926
  19   2.0000      -6.037525      -164.2894
  20   2.0000      -6.033901      -164.1908
  21   2.0000      -6.032198      -164.1445
  22   2.0000      -6.028442      -164.0423
  23   2.0000      -6.024407      -163.9325
  24   2.0000      -1.010264       -27.4907
  25   2.0000      -0.991172       -26.9712
  26   2.0000      -0.923820       -25.1384
  27   2.0000      -0.900406       -24.5013
  28   2.0000      -0.874880       -23.8067
  29   2.0000      -0.856470       -23.3057
  30   2.0000      -0.854651       -23.2562
  31   2.0000      -0.819037       -22.2871
  32   2.0000      -0.785779       -21.3821
  33   2.0000      -0.768527       -20.9127
  34   2.0000      -0.714237       -19.4354
  35   2.0000      -0.699393       -19.0314
  36   2.0000      -0.691267       -18.8103
  37   2.0000      -0.656259       -17.8577
  38   2.0000      -0.643730       -17.5168
  39   2.0000      -0.613632       -16.6978
  40   2.0000      -0.594107       -16.1665
  41   2.0000      -0.579646       -15.7730
  42   2.0000      -0.575195       -15.6518
  43   2.0000      -0.569527       -15.4976
  44   2.0000      -0.528062       -14.3693
  45   2.0000      -0.526951       -14.3391
  46   2.0000      -0.517295       -14.0763
  47   2.0000      -0.510397       -13.8886
  48   2.0000      -0.505812       -13.7638
  49   2.0000      -0.497875       -13.5479
  50   2.0000      -0.492795       -13.4096
  51   2.0000      -0.484764       -13.1911
  52   2.0000      -0.474661       -12.9162
  53   2.0000      -0.464709       -12.6454
  54   2.0000      -0.461631       -12.5616
  55   2.0000      -0.451652       -12.2901
  56   2.0000      -0.446918       -12.1613
  57   2.0000      -0.433553       -11.7976
  58   2.0000      -0.428911       -11.6713
  59   2.0000      -0.423839       -11.5332
  60   2.0000      -0.422303       -11.4914
  61   2.0000      -0.420158       -11.4331
  62   2.0000      -0.398539       -10.8448
  63   2.0000      -0.337907        -9.1949
  64   2.0000      -0.333335        -9.0705
  65   2.0000      -0.312130        -8.4935
  66   2.0000      -0.309899        -8.4328
  67   0.0000       0.048063         1.3079
  68   0.0000       0.052394         1.4257
  69   0.0000       0.113947         3.1007
  70   0.0000       0.124281         3.3819
  71   0.0000       0.136753         3.7213

MULLIKEN ATOMIC CHARGES
-----------------------
   0 S :    0.102264
   1 C :   -0.128843
   2 C :   -0.105128
   3 C :    0.030007
   4 C :   -0.197134
   5 H :    0.022507
   6 C :    0.117136
   7 H :   -0.007541
   8 H :    0.019282
   9 C :   -0.077062
  10 H :    0.043170
  11 H :    0.020374
  12 C :   -0.009944
  13 H :    0.017110
  14 H :    0.030961
  15 H :    0.031324
  16 S :    0.124616
  17 C :   -0.089430
  18 C :    0.001469
  19 C :   -0.014635
  20 C :   -0.167557
  21 H :   -0.004916
  22 C :    0.052734
  23 H :    0.022449
  24 H :    0.018804
  25 C :   -0.088488
  26 H :    0.032837
  27 H :    0.025025
  28 C :   -0.008998
  29 H :    0.027238
  30 H :    0.035062
  31 H :    0.019533
  32 H :    0.058209
  33 H :    0.047565
Sum of atomic charges:   -0.0000000

LOEWDIN ATOMIC CHARGES
----------------------
   0 S :    0.396972
   1 C :   -0.215542
   2 C :   -0.064445
   3 C :   -0.058872
   4 C :   -0.184441
   5 H :    0.041089
   6 C :   -0.029907
   7 H :    0.019018
   8 H :    0.035950
   9 C :   -0.043922
  10 H :    0.033917
  11 H :    0.020331
  12 C :   -0.055873
  13 H :    0.018284
  14 H :    0.029213
  15 H :    0.029119
  16 S :    0.412838
  17 C :   -0.174430
  18 C :   -0.068728
  19 C :   -0.047028
  20 C :   -0.214833
  21 H :    0.026324
  22 C :   -0.044110
  23 H :    0.028812
  24 H :    0.025905
  25 C :   -0.036454
  26 H :    0.031689
  27 H :    0.014115
  28 C :   -0.056233
  29 H :    0.023401
  30 H :    0.022959
  31 H :    0.027335
  32 H :    0.032643
  33 H :    0.024906

  Mayer bond orders larger than 0.100000
B(  0-S ,  1-C ) :   1.1344 B(  0-S ,  4-C ) :   1.1312 B(  1-C ,  2-C ) :   1.6455
B(  1-C , 32-H ) :   0.9515 B(  2-C ,  3-C ) :   1.2204 B(  2-C ,  6-C ) :   0.9949
B(  3-C ,  4-C ) :   1.6344 B(  3-C ,  5-H ) :   0.9945 B(  4-C , 20-C ) :   1.0281
B(  6-C ,  7-H ) :   0.9176 B(  6-C ,  8-H ) :   0.9335 B(  6-C ,  9-C ) :   1.0786
B(  9-C , 10-H ) :   0.9422 B(  9-C , 11-H ) :   0.9465 B(  9-C , 12-C ) :   1.0977
B( 12-C , 13-H ) :   0.9728 B( 12-C , 14-H ) :   0.9702 B( 12-C , 15-H ) :   0.9698
B( 16-S , 17-C ) :   1.1836 B( 16-S , 20-C ) :   1.1264 B( 17-C , 18-C ) :   1.5839
B( 17-C , 33-H ) :   0.9616 B( 18-C , 19-C ) :   1.2577 B( 18-C , 21-H ) :   1.0105
B( 19-C , 20-C ) :   1.5638 B( 19-C , 22-C ) :   1.0614 B( 22-C , 23-H ) :   0.9310
B( 22-C , 24-H ) :   0.9282 B( 22-C , 25-C ) :   1.0432 B( 25-C , 26-H ) :   0.9606
B( 25-C , 27-H ) :   0.9577 B( 25-C , 28-C ) :   1.0942 B( 28-C , 29-H ) :   0.9738
B( 28-C , 30-H ) :   0.9759 B( 28-C , 31-H ) :   0.9690

Dispersion correction           -0.013958959
FINAL SINGLE POINT ENERGY     -1339.852842465718

DIPOLE MOMENT
-------------
                                X             Y             Z
Electronic contribution:    -11.90559       6.67358     -19.29131
Nuclear contribution   :     12.28166      -6.45104      19.79367
                        -----------------------------------------
Total Dipole Moment    :      0.37607       0.22254       0.50236
                        -----------------------------------------
Magnitude (a.u.)       :      0.66582
Magnitude (Debye)      :      1.69238

Rotational constants in cm-1:     0.019925     0.007438     0.006240
Rotational constants in MHz :   597.334401   222.997080   187.080425

                             ****ORCA TERMINATED NORMALLY****
TOTAL RUN TIME: 0 days 0 hours 0 minutes 21 seconds 279 msec
