                         Program Version 4.2.1 -  RELEASE  -
|  1> ! wB97X-D3 SP def2-SVP
|  2> %pal
|  3> nprocs 24
|  4> end
|  5>
|  6> * xyz 0 1
|  7> S 	 -48.5408 	 14.1996 	 23.0057
|  8> C 	 -50.0188 	 13.5795 	 23.8186
|  9> C 	 -51.1829 	 14.1039 	 23.2881
| 10> C 	 -50.8705 	 15.1525 	 22.39
| 11> C 	 -49.5215 	 15.3185 	 22.0647
| 12> H 	 -51.5684 	 15.8033 	 21.8811
| 13> C 	 -52.5474 	 13.7351 	 23.8521
| 14> H 	 -52.5675 	 13.9087 	 24.9177
| 15> H 	 -52.5924 	 12.6652 	 23.7782
| 16> C 	 -53.7287 	 14.3135 	 23.1464
| 17> H 	 -53.8137 	 15.3247 	 23.2621
| 18> H 	 -53.4958 	 14.1607 	 22.0442
| 19> C 	 -55.0766 	 13.6961 	 23.5614
| 20> H 	 -55.0947 	 13.4955 	 24.5983
| 21> H 	 -55.8021 	 14.4273 	 23.2228
| 22> H 	 -55.212 	 12.7199 	 23.1101
| 23> S 	 -47.7519 	 15.121 	 19.8845
| 24> C 	 -47.5431 	 16.5018 	 18.7848
| 25> C 	 -48.2412 	 17.5743 	 19.2722
| 26> C 	 -48.9123 	 17.3417 	 20.5317
| 27> C 	 -48.9779 	 15.9784 	 20.8657
| 28> H 	 -48.1651 	 18.4571 	 18.7535
| 29> C 	 -49.8124 	 18.4218 	 21.1337
| 30> H 	 -50.7198 	 17.9411 	 21.5644
| 31> H 	 -50.3787 	 19.0289 	 20.4443
| 32> C 	 -49.3292 	 19.2157 	 22.3028
| 33> H 	 -49.1122 	 18.399 	 23.0331
| 34> H 	 -50.1545 	 19.74 	 22.8008
| 35> C 	 -48.1414 	 20.0596 	 22.1139
| 36> H 	 -47.3266 	 19.2643 	 21.9233
| 37> H 	 -47.761 	 20.5987 	 23.041
| 38> H 	 -48.0771 	 20.8287 	 21.3363
| 39> H 	 -50.0528 	 12.838 	 24.5865
| 40> H 	 -46.8972 	 16.4606 	 17.8986
| 41> *
| 42>
| 43>                          ****END OF INPUT****

CARTESIAN COORDINATES (ANGSTROEM)
---------------------------------
  S    -48.540800   14.199600   23.005700
  C    -50.018800   13.579500   23.818600
  C    -51.182900   14.103900   23.288100
  C    -50.870500   15.152500   22.390000
  C    -49.521500   15.318500   22.064700
  H    -51.568400   15.803300   21.881100
  C    -52.547400   13.735100   23.852100
  H    -52.567500   13.908700   24.917700
  H    -52.592400   12.665200   23.778200
  C    -53.728700   14.313500   23.146400
  H    -53.813700   15.324700   23.262100
  H    -53.495800   14.160700   22.044200
  C    -55.076600   13.696100   23.561400
  H    -55.094700   13.495500   24.598300
  H    -55.802100   14.427300   23.222800
  H    -55.212000   12.719900   23.110100
  S    -47.751900   15.121000   19.884500
  C    -47.543100   16.501800   18.784800
  C    -48.241200   17.574300   19.272200
  C    -48.912300   17.341700   20.531700
  C    -48.977900   15.978400   20.865700
  H    -48.165100   18.457100   18.753500
  C    -49.812400   18.421800   21.133700
  H    -50.719800   17.941100   21.564400
  H    -50.378700   19.028900   20.444300
  C    -49.329200   19.215700   22.302800
  H    -49.112200   18.399000   23.033100
  H    -50.154500   19.740000   22.800800
  C    -48.141400   20.059600   22.113900
  H    -47.326600   19.264300   21.923300
  H    -47.761000   20.598700   23.041000
  H    -48.077100   20.828700   21.336300
  H    -50.052800   12.838000   24.586500
  H    -46.897200   16.460600   17.898600

 Total Charge           Charge          ....    0
 Multiplicity           Mult            ....    1
 Number of Electrons    NEL             ....  134
 Basis Dimension        Dim             ....  322

ORBITAL ENERGIES
----------------

  NO   OCC          E(Eh)            E(eV)
   0   2.0000     -88.970533     -2421.0113
   1   2.0000     -88.963558     -2420.8215
   2   2.0000     -10.336492      -281.2702
   3   2.0000     -10.333631      -281.1924
   4   2.0000     -10.321243      -280.8553
   5   2.0000     -10.316338      -280.7218
   6   2.0000     -10.309685      -280.5408
   7   2.0000     -10.303323      -280.3677
   8   2.0000     -10.297434      -280.2074
   9   2.0000     -10.290320      -280.0138
  10   2.0000     -10.290193      -280.0104
  11   2.0000     -10.287912      -279.9483
  12   2.0000     -10.282463      -279.8000
  13   2.0000     -10.279858      -279.7292
  14   2.0000     -10.278974      -279.7051
  15   2.0000     -10.277236      -279.6578
  16   2.0000      -8.084038      -219.9778
  17   2.0000      -8.077499      -219.7999
  18   2.0000      -6.042592      -164.4273
  19   2.0000      -6.038683      -164.3209
  20   2.0000      -6.036159      -164.2522
  21   2.0000      -6.034846      -164.2165
  22   2.0000      -6.032087      -164.1414
  23   2.0000      -6.028147      -164.0342
  24   2.0000      -1.001353       -27.2482
  25   2.0000      -0.979452       -26.6522
  26   2.0000      -0.920288       -25.0423
  27   2.0000      -0.913024       -24.8447
  28   2.0000      -0.872276       -23.7358
  29   2.0000      -0.848401       -23.0862
  30   2.0000      -0.841362       -22.8946
  31   2.0000      -0.818340       -22.2682
  32   2.0000      -0.787182       -21.4203
  33   2.0000      -0.776376       -21.1263
  34   2.0000      -0.717918       -19.5355
  35   2.0000      -0.695575       -18.9276
  36   2.0000      -0.681755       -18.5515
  37   2.0000      -0.659983       -17.9590
  38   2.0000      -0.643825       -17.5194
  39   2.0000      -0.619454       -16.8562
  40   2.0000      -0.599711       -16.3190
  41   2.0000      -0.577756       -15.7215
  42   2.0000      -0.571501       -15.5513
  43   2.0000      -0.551758       -15.0141
  44   2.0000      -0.545495       -14.8437
  45   2.0000      -0.532285       -14.4842
  46   2.0000      -0.516257       -14.0481
  47   2.0000      -0.504611       -13.7312
  48   2.0000      -0.503812       -13.7094
  49   2.0000      -0.499675       -13.5968
  50   2.0000      -0.492820       -13.4103
  51   2.0000      -0.488194       -13.2844
  52   2.0000      -0.478301       -13.0152
  53   2.0000      -0.466815       -12.7027
  54   2.0000      -0.457011       -12.4359
  55   2.0000      -0.448875       -12.2145
  56   2.0000      -0.442682       -12.0460
  57   2.0000      -0.431852       -11.7513
  58   2.0000      -0.424743       -11.5578
  59   2.0000      -0.421442       -11.4680
  60   2.0000      -0.416738       -11.3400
  61   2.0000      -0.410373       -11.1668
  62   2.0000      -0.400882       -10.9086
  63   2.0000      -0.347445        -9.4544
  64   2.0000      -0.334830        -9.1112
  65   2.0000      -0.329697        -8.9715
  66   2.0000      -0.289998        -7.8913
  67   0.0000       0.022008         0.5989
  68   0.0000       0.059283         1.6132
  69   0.0000       0.106961         2.9106
  70   0.0000       0.119048         3.2395
  71   0.0000       0.130952         3.5634

MULLIKEN ATOMIC CHARGES
-----------------------
   0 S :    0.108112
   1 C :   -0.115167
   2 C :   -0.076110
   3 C :    0.004204
   4 C :   -0.131229
   5 H :    0.016691
   6 C :    0.080821
   7 H :    0.034900
   8 H :    0.020455
   9 C :   -0.106973
  10 H :    0.013518
  11 H :    0.039588
  12 C :   -0.001277
  13 H :    0.020744
  14 H :    0.039481
  15 H :    0.030971
  16 S :    0.078324
  17 C :   -0.101257
  18 C :    0.016423
  19 C :   -0.013504
  20 C :   -0.140881
  21 H :   -0.008696
  22 C :    0.039235
  23 H :    0.005553
  24 H :    0.018112
  25 C :   -0.063579
  26 H :    0.032655
  27 H :    0.022486
  28 C :   -0.079828
  29 H :    0.041287
  30 H :    0.038426
  31 H :    0.033236
  32 H :    0.032638
  33 H :    0.070639
Sum of atomic charges:    0.0000000

LOEWDIN ATOMIC CHARGES
----------------------
   0 S :    0.389992
   1 C :   -0.173444
   2 C :   -0.060266
   3 C :   -0.060812
   4 C :   -0.194680
   5 H :    0.026747
   6 C :   -0.032116
   7 H :    0.031291
   8 H :    0.032046
   9 C :   -0.042041
  10 H :    0.008935
  11 H :    0.033776
  12 C :   -0.052114
  13 H :    0.019777
  14 H :    0.031386
  15 H :    0.026512
  16 S :    0.372354
  17 C :   -0.172747
  18 C :   -0.059563
  19 C :   -0.055422
  20 C :   -0.177664
  21 H :    0.018852
  22 C :   -0.041638
  23 H :    0.037237
  24 H :    0.025797
  25 C :   -0.054573
  26 H :    0.034399
  27 H :    0.022448
  28 C :   -0.084512
  29 H :    0.038210
  30 H :    0.032784
  31 H :    0.020973
  32 H :    0.021625
  33 H :    0.036454

  Mayer bond orders larger than 0.100000
B(  0-S ,  1-C ) :   1.1374 B(  0-S ,  4-C ) :   1.1413 B(  1-C ,  2-C ) :   1.6101
B(  1-C ,  4-C ) :   0.1020 B(  1-C , 32-H ) :   0.9732 B(  2-C ,  3-C ) :   1.2653
B(  2-C ,  6-C ) :   1.0001 B(  3-C ,  4-C ) :   1.5577 B(  3-C ,  5-H ) :   0.9839
B(  4-C , 20-C ) :   1.0450 B(  6-C ,  7-H ) :   0.9341 B(  6-C ,  8-H ) :   0.9339
B(  6-C ,  9-C ) :   1.0887 B(  9-C , 10-H ) :   0.9508 B(  9-C , 11-H ) :   0.9533
B(  9-C , 12-C ) :   1.0795 B( 12-C , 13-H ) :   0.9740 B( 12-C , 14-H ) :   0.9753
B( 12-C , 15-H ) :   0.9745 B( 16-S , 17-C ) :   1.1368 B( 16-S , 20-C ) :   1.1313
B( 17-C , 18-C ) :   1.6189 B( 17-C , 33-H ) :   0.9670 B( 18-C , 19-C ) :   1.2119
B( 18-C , 21-H ) :   1.0078 B( 19-C , 20-C ) :   1.5905 B( 19-C , 22-C ) :   1.0205
B( 22-C , 23-H ) :   0.9367 B( 22-C , 24-H ) :   0.9450 B( 22-C , 25-C ) :   1.0751
B( 25-C , 26-H ) :   0.9524 B( 25-C , 27-H ) :   0.9489 B( 25-C , 28-C ) :   1.0822
B( 28-C , 29-H ) :   0.9687 B( 28-C , 30-H ) :   0.9708 B( 28-C , 31-H ) :   0.9765

Dispersion correction           -0.013889966
FINAL SINGLE POINT ENERGY     -1339.851225367715

DIPOLE MOMENT
-------------
                                X             Y             Z
Electronic contribution:     20.67517     -11.87033      -8.39931
Nuclear contribution   :    -21.30065      12.06668       8.52216
                        -----------------------------------------
Total Dipole Moment    :     -0.62547       0.19634       0.12285
                        -----------------------------------------
Magnitude (a.u.)       :      0.66698
Magnitude (Debye)      :      1.69532

Rotational constants in cm-1:     0.019002     0.007772     0.006720
Rotational constants in MHz :   569.662749   233.004185   201.468027

                             ****ORCA TERMINATED NORMALLY****
TOTAL RUN TIME: 0 days 0 hours 0 minutes 21 seconds 182 msec
