                         Program Version 4.2.1 -  RELEASE  -
|  1> ! wB97X-D3 SP def2-SVP
|  2> %pal
|  3> nprocs 24
|  4> end
|  5>
|  6> * xyz 0 1
|  7> S 	 -68.5297 	 10.0121 	 -73.3032
|  8> C 	 -70.1151 	 10.0068 	 -72.6176
|  9> C 	 -70.0786 	 10.4637 	 -71.2941
| 10> C 	 -68.7745 	 10.7198 	 -70.8744
| 11> C 	 -67.7795 	 10.6015 	 -71.8837
| 12> H 	 -68.4881 	 10.9864 	 -69.9084
| 13> C 	 -71.27 	 10.5303 	 -70.2749
| 14> H 	 -71.981 	 10.1168 	 -70.9245
| 15> H 	 -71.5384 	 11.6061 	 -69.9631
| 16> C 	 -71.1899 	 9.69165 	 -68.9791
| 17> H 	 -70.2111 	 9.9329 	 -68.6131
| 18> H 	 -71.8174 	 9.87105 	 -68.0676
| 19> C 	 -71.3111 	 8.19198 	 -69.2702
| 20> H 	 -72.3058 	 7.81867 	 -69.4417
| 21> H 	 -70.6897 	 7.81417 	 -70.1104
| 22> H 	 -70.9802 	 7.68596 	 -68.3511
| 23> S 	 -65.8108 	 12.359 	 -72.6887
| 24> C 	 -64.374 	 12.5061 	 -71.7361
| 25> C 	 -64.2743 	 11.581 	 -70.7254
| 26> C 	 -65.4816 	 10.8073 	 -70.6348
| 27> C 	 -66.4186 	 11.0181 	 -71.7003
| 28> H 	 -63.4427 	 11.5941 	 -70.1144
| 29> C 	 -65.7419 	 9.79082 	 -69.6026
| 30> H 	 -66.6981 	 9.29328 	 -69.8823
| 31> H 	 -65.724 	 10.3525 	 -68.6397
| 32> C 	 -64.7948 	 8.60298 	 -69.2718
| 33> H 	 -65.2355 	 8.02947 	 -68.4908
| 34> H 	 -63.9308 	 9.02085 	 -68.7613
| 35> C 	 -64.471 	 7.69621 	 -70.5334
| 36> H 	 -65.3004 	 7.43972 	 -71.1548
| 37> H 	 -63.9323 	 6.74373 	 -70.2685
| 38> H 	 -63.7352 	 8.28387 	 -71.1006
| 39> H 	 -71.0781 	 9.73355 	 -73.1548
| 40> H 	 -63.7004 	 13.3527 	 -71.7761
| 41> *
| 42>
| 43>                          ****END OF INPUT****

CARTESIAN COORDINATES (ANGSTROEM)
---------------------------------
  S    -68.529700   10.012100  -73.303200
  C    -70.115100   10.006800  -72.617600
  C    -70.078600   10.463700  -71.294100
  C    -68.774500   10.719800  -70.874400
  C    -67.779500   10.601500  -71.883700
  H    -68.488100   10.986400  -69.908400
  C    -71.270000   10.530300  -70.274900
  H    -71.981000   10.116800  -70.924500
  H    -71.538400   11.606100  -69.963100
  C    -71.189900    9.691650  -68.979100
  H    -70.211100    9.932900  -68.613100
  H    -71.817400    9.871050  -68.067600
  C    -71.311100    8.191980  -69.270200
  H    -72.305800    7.818670  -69.441700
  H    -70.689700    7.814170  -70.110400
  H    -70.980200    7.685960  -68.351100
  S    -65.810800   12.359000  -72.688700
  C    -64.374000   12.506100  -71.736100
  C    -64.274300   11.581000  -70.725400
  C    -65.481600   10.807300  -70.634800
  C    -66.418600   11.018100  -71.700300
  H    -63.442700   11.594100  -70.114400
  C    -65.741900    9.790820  -69.602600
  H    -66.698100    9.293280  -69.882300
  H    -65.724000   10.352500  -68.639700
  C    -64.794800    8.602980  -69.271800
  H    -65.235500    8.029470  -68.490800
  H    -63.930800    9.020850  -68.761300
  C    -64.471000    7.696210  -70.533400
  H    -65.300400    7.439720  -71.154800
  H    -63.932300    6.743730  -70.268500
  H    -63.735200    8.283870  -71.100600
  H    -71.078100    9.733550  -73.154800
  H    -63.700400   13.352700  -71.776100

 Total Charge           Charge          ....    0
 Multiplicity           Mult            ....    1
 Number of Electrons    NEL             ....  134
 Basis Dimension        Dim             ....  322

ORBITAL ENERGIES
----------------

  NO   OCC          E(Eh)            E(eV)
   0   2.0000     -88.973872     -2421.1021
   1   2.0000     -88.965249     -2420.8675
   2   2.0000     -10.330363      -281.1035
   3   2.0000     -10.329536      -281.0810
   4   2.0000     -10.322576      -280.8916
   5   2.0000     -10.317289      -280.7477
   6   2.0000     -10.308842      -280.5178
   7   2.0000     -10.303693      -280.3777
   8   2.0000     -10.298151      -280.2269
   9   2.0000     -10.291363      -280.0422
  10   2.0000     -10.290508      -280.0190
  11   2.0000     -10.289570      -279.9934
  12   2.0000     -10.287381      -279.9339
  13   2.0000     -10.287135      -279.9272
  14   2.0000     -10.278875      -279.7024
  15   2.0000     -10.275496      -279.6105
  16   2.0000      -8.088981      -220.1124
  17   2.0000      -8.080105      -219.8708
  18   2.0000      -6.047425      -164.5588
  19   2.0000      -6.043158      -164.4427
  20   2.0000      -6.040064      -164.3585
  21   2.0000      -6.038561      -164.3176
  22   2.0000      -6.034494      -164.2069
  23   2.0000      -6.031004      -164.1120
  24   2.0000      -1.010085       -27.4858
  25   2.0000      -0.986409       -26.8416
  26   2.0000      -0.909101       -24.7379
  27   2.0000      -0.904727       -24.6189
  28   2.0000      -0.873442       -23.7676
  29   2.0000      -0.850780       -23.1509
  30   2.0000      -0.843499       -22.9528
  31   2.0000      -0.812532       -22.1101
  32   2.0000      -0.782084       -21.2816
  33   2.0000      -0.769698       -20.9446
  34   2.0000      -0.717188       -19.5157
  35   2.0000      -0.699952       -19.0467
  36   2.0000      -0.693546       -18.8724
  37   2.0000      -0.658143       -17.9090
  38   2.0000      -0.639781       -17.4093
  39   2.0000      -0.622295       -16.9335
  40   2.0000      -0.587737       -15.9931
  41   2.0000      -0.571093       -15.5402
  42   2.0000      -0.557066       -15.1585
  43   2.0000      -0.548945       -14.9376
  44   2.0000      -0.539479       -14.6800
  45   2.0000      -0.535714       -14.5775
  46   2.0000      -0.519515       -14.1367
  47   2.0000      -0.511463       -13.9176
  48   2.0000      -0.505100       -13.7445
  49   2.0000      -0.496765       -13.5177
  50   2.0000      -0.488611       -13.2958
  51   2.0000      -0.478430       -13.0188
  52   2.0000      -0.473248       -12.8777
  53   2.0000      -0.467414       -12.7190
  54   2.0000      -0.455931       -12.4065
  55   2.0000      -0.448714       -12.2101
  56   2.0000      -0.445323       -12.1178
  57   2.0000      -0.434702       -11.8289
  58   2.0000      -0.433925       -11.8077
  59   2.0000      -0.429289       -11.6816
  60   2.0000      -0.418730       -11.3942
  61   2.0000      -0.405843       -11.0436
  62   2.0000      -0.401779       -10.9330
  63   2.0000      -0.347500        -9.4560
  64   2.0000      -0.336167        -9.1476
  65   2.0000      -0.326867        -8.8945
  66   2.0000      -0.286688        -7.8012
  67   0.0000       0.028484         0.7751
  68   0.0000       0.063020         1.7149
  69   0.0000       0.114740         3.1222
  70   0.0000       0.120616         3.2821
  71   0.0000       0.127799         3.4776

MULLIKEN ATOMIC CHARGES
-----------------------
   0 S :    0.141221
   1 C :   -0.154843
   2 C :   -0.106237
   3 C :    0.052839
   4 C :   -0.176383
   5 H :   -0.010553
   6 C :    0.091300
   7 H :   -0.004928
   8 H :    0.058243
   9 C :   -0.063574
  10 H :    0.015309
  11 H :    0.041075
  12 C :   -0.079770
  13 H :    0.030088
  14 H :    0.044857
  15 H :    0.027741
  16 S :    0.106239
  17 C :   -0.091549
  18 C :    0.001449
  19 C :   -0.030394
  20 C :   -0.141715
  21 H :   -0.009086
  22 C :   -0.008523
  23 H :    0.044549
  24 H :    0.037738
  25 C :   -0.036430
  26 H :    0.020581
  27 H :    0.013683
  28 C :   -0.067864
  29 H :    0.039815
  30 H :    0.039263
  31 H :    0.039295
  32 H :    0.077126
  33 H :    0.059439
Sum of atomic charges:   -0.0000000

LOEWDIN ATOMIC CHARGES
----------------------
   0 S :    0.451053
   1 C :   -0.224431
   2 C :   -0.067225
   3 C :   -0.051815
   4 C :   -0.222036
   5 H :    0.017532
   6 C :   -0.027683
   7 H :    0.016119
   8 H :    0.043126
   9 C :   -0.047884
  10 H :    0.018128
  11 H :    0.035835
  12 C :   -0.071248
  13 H :    0.020609
  14 H :    0.029195
  15 H :    0.027700
  16 S :    0.408696
  17 C :   -0.181343
  18 C :   -0.066283
  19 C :   -0.047899
  20 C :   -0.201927
  21 H :    0.021414
  22 C :   -0.046814
  23 H :    0.036026
  24 H :    0.039184
  25 C :   -0.035459
  26 H :    0.019646
  27 H :    0.018049
  28 C :   -0.069669
  29 H :    0.023025
  30 H :    0.030467
  31 H :    0.029417
  32 H :    0.045714
  33 H :    0.030784

  Mayer bond orders larger than 0.100000
B(  0-S ,  1-C ) :   1.1691 B(  0-S ,  4-C ) :   1.1804 B(  1-C ,  2-C ) :   1.5526
B(  1-C ,  4-C ) :   0.1072 B(  1-C , 32-H ) :   0.9543 B(  2-C ,  3-C ) :   1.3108
B(  2-C ,  6-C ) :   1.0019 B(  3-C ,  4-C ) :   1.4863 B(  3-C ,  5-H ) :   1.0034
B(  4-C , 20-C ) :   1.0646 B(  6-C ,  7-H ) :   0.9421 B(  6-C ,  8-H ) :   0.9421
B(  6-C ,  9-C ) :   1.0528 B(  9-C , 10-H ) :   0.9575 B(  9-C , 11-H ) :   0.9574
B(  9-C , 12-C ) :   1.0762 B( 12-C , 13-H ) :   0.9763 B( 12-C , 14-H ) :   0.9780
B( 12-C , 15-H ) :   0.9730 B( 16-S , 17-C ) :   1.1794 B( 16-S , 20-C ) :   1.1283
B( 17-C , 18-C ) :   1.5948 B( 17-C , 33-H ) :   0.9623 B( 18-C , 19-C ) :   1.2285
B( 18-C , 21-H ) :   1.0091 B( 19-C , 20-C ) :   1.5540 B( 19-C , 22-C ) :   1.0657
B( 22-C , 23-H ) :   0.9360 B( 22-C , 24-H ) :   0.9225 B( 22-C , 25-C ) :   1.0802
B( 25-C , 26-H ) :   0.9554 B( 25-C , 27-H ) :   0.9534 B( 25-C , 28-C ) :   1.0562
B( 28-C , 29-H ) :   0.9801 B( 28-C , 30-H ) :   0.9776 B( 28-C , 31-H ) :   0.9768

Dispersion correction           -0.014645738
FINAL SINGLE POINT ENERGY     -1339.853842495184

DIPOLE MOMENT
-------------
                                X             Y             Z
Electronic contribution:      5.58966      15.88541     -21.08894
Nuclear contribution   :     -5.61150     -15.94638      21.78124
                        -----------------------------------------
Total Dipole Moment    :     -0.02184      -0.06097       0.69230
                        -----------------------------------------
Magnitude (a.u.)       :      0.69532
Magnitude (Debye)      :      1.76737

Rotational constants in cm-1:     0.018289     0.009028     0.007293
Rotational constants in MHz :   548.292760   270.655632   218.644745

                             ****ORCA TERMINATED NORMALLY****
TOTAL RUN TIME: 0 days 0 hours 0 minutes 22 seconds 5 msec
