                         Program Version 4.2.1 -  RELEASE  -
|  1> ! wB97X-D3 SP def2-SVP
|  2> %pal
|  3> nprocs 24
|  4> end
|  5>
|  6> * xyz 0 1
|  7> S 	 -65.37 	 6.99519 	 -85.5644
|  8> C 	 -66.6492 	 5.79539 	 -85.364
|  9> C 	 -66.655 	 5.24254 	 -84.1181
| 10> C 	 -65.652 	 5.80055 	 -83.2971
| 11> C 	 -64.8613 	 6.75959 	 -83.9424
| 12> H 	 -65.3956 	 5.52344 	 -82.2607
| 13> C 	 -67.6431 	 4.21609 	 -83.6397
| 14> H 	 -67.157 	 3.54859 	 -82.9174
| 15> H 	 -67.7979 	 3.5632 	 -84.4447
| 16> C 	 -68.8862 	 4.8694 	 -83.0629
| 17> H 	 -69.3035 	 4.19535 	 -82.3019
| 18> H 	 -68.5719 	 5.72912 	 -82.353
| 19> C 	 -69.8354 	 5.38306 	 -84.1076
| 20> H 	 -70.7059 	 5.78858 	 -83.5946
| 21> H 	 -69.3342 	 6.22588 	 -84.649
| 22> H 	 -70.2326 	 4.63428 	 -84.8676
| 23> S 	 -63.5717 	 9.26155 	 -83.9799
| 24> C 	 -62.1994 	 9.54514 	 -82.9275
| 25> C 	 -61.9768 	 8.41889 	 -82.1592
| 26> C 	 -62.8215 	 7.33238 	 -82.4321
| 27> C 	 -63.7949 	 7.58012 	 -83.4027
| 28> H 	 -61.1058 	 8.31988 	 -81.4465
| 29> C 	 -62.6811 	 6.06763 	 -81.6555
| 30> H 	 -61.6167 	 5.94404 	 -81.4537
| 31> H 	 -63.0397 	 5.09467 	 -82.1558
| 32> C 	 -63.4027 	 6.14136 	 -80.2303
| 33> H 	 -64.448 	 6.46758 	 -80.3824
| 34> H 	 -63.0648 	 7.02616 	 -79.7542
| 35> C 	 -63.2497 	 4.91501 	 -79.3516
| 36> H 	 -64.0364 	 4.20262 	 -79.5036
| 37> H 	 -63.286 	 5.26342 	 -78.3534
| 38> H 	 -62.1882 	 4.54136 	 -79.3466
| 39> H 	 -67.2384 	 5.3894 	 -86.2174
| 40> H 	 -61.6039 	 10.4092 	 -82.9326
| 41> *
| 42>
| 43>                          ****END OF INPUT****

CARTESIAN COORDINATES (ANGSTROEM)
---------------------------------
  S    -65.370000    6.995190  -85.564400
  C    -66.649200    5.795390  -85.364000
  C    -66.655000    5.242540  -84.118100
  C    -65.652000    5.800550  -83.297100
  C    -64.861300    6.759590  -83.942400
  H    -65.395600    5.523440  -82.260700
  C    -67.643100    4.216090  -83.639700
  H    -67.157000    3.548590  -82.917400
  H    -67.797900    3.563200  -84.444700
  C    -68.886200    4.869400  -83.062900
  H    -69.303500    4.195350  -82.301900
  H    -68.571900    5.729120  -82.353000
  C    -69.835400    5.383060  -84.107600
  H    -70.705900    5.788580  -83.594600
  H    -69.334200    6.225880  -84.649000
  H    -70.232600    4.634280  -84.867600
  S    -63.571700    9.261550  -83.979900
  C    -62.199400    9.545140  -82.927500
  C    -61.976800    8.418890  -82.159200
  C    -62.821500    7.332380  -82.432100
  C    -63.794900    7.580120  -83.402700
  H    -61.105800    8.319880  -81.446500
  C    -62.681100    6.067630  -81.655500
  H    -61.616700    5.944040  -81.453700
  H    -63.039700    5.094670  -82.155800
  C    -63.402700    6.141360  -80.230300
  H    -64.448000    6.467580  -80.382400
  H    -63.064800    7.026160  -79.754200
  C    -63.249700    4.915010  -79.351600
  H    -64.036400    4.202620  -79.503600
  H    -63.286000    5.263420  -78.353400
  H    -62.188200    4.541360  -79.346600
  H    -67.238400    5.389400  -86.217400
  H    -61.603900   10.409200  -82.932600

 Total Charge           Charge          ....    0
 Multiplicity           Mult            ....    1
 Number of Electrons    NEL             ....  134
 Basis Dimension        Dim             ....  322

ORBITAL ENERGIES
----------------

  NO   OCC          E(Eh)            E(eV)
   0   2.0000     -88.966380     -2420.8983
   1   2.0000     -88.965572     -2420.8763
   2   2.0000     -10.330541      -281.1083
   3   2.0000     -10.329480      -281.0794
   4   2.0000     -10.317579      -280.7556
   5   2.0000     -10.313613      -280.6477
   6   2.0000     -10.299830      -280.2726
   7   2.0000     -10.297229      -280.2018
   8   2.0000     -10.297129      -280.1991
   9   2.0000     -10.297042      -280.1968
  10   2.0000     -10.294622      -280.1309
  11   2.0000     -10.292112      -280.0626
  12   2.0000     -10.286626      -279.9133
  13   2.0000     -10.286417      -279.9076
  14   2.0000     -10.282680      -279.8059
  15   2.0000     -10.279442      -279.7178
  16   2.0000      -8.081550      -219.9102
  17   2.0000      -8.079589      -219.8568
  18   2.0000      -6.040007      -164.3570
  19   2.0000      -6.038182      -164.3073
  20   2.0000      -6.035968      -164.2470
  21   2.0000      -6.034113      -164.1966
  22   2.0000      -6.032366      -164.1490
  23   2.0000      -6.030384      -164.0951
  24   2.0000      -1.008687       -27.4478
  25   2.0000      -0.985854       -26.8265
  26   2.0000      -0.918966       -25.0063
  27   2.0000      -0.905484       -24.6395
  28   2.0000      -0.868955       -23.6455
  29   2.0000      -0.855856       -23.2890
  30   2.0000      -0.844883       -22.9904
  31   2.0000      -0.811409       -22.0796
  32   2.0000      -0.785351       -21.3705
  33   2.0000      -0.773722       -21.0540
  34   2.0000      -0.710038       -19.3211
  35   2.0000      -0.699770       -19.0417
  36   2.0000      -0.693846       -18.8805
  37   2.0000      -0.663220       -18.0471
  38   2.0000      -0.639140       -17.3919
  39   2.0000      -0.618640       -16.8341
  40   2.0000      -0.599044       -16.3008
  41   2.0000      -0.572039       -15.5660
  42   2.0000      -0.561935       -15.2910
  43   2.0000      -0.549470       -14.9518
  44   2.0000      -0.532096       -14.4791
  45   2.0000      -0.522548       -14.2193
  46   2.0000      -0.519522       -14.1369
  47   2.0000      -0.515795       -14.0355
  48   2.0000      -0.505423       -13.7533
  49   2.0000      -0.497926       -13.5492
  50   2.0000      -0.491452       -13.3731
  51   2.0000      -0.484768       -13.1912
  52   2.0000      -0.473891       -12.8952
  53   2.0000      -0.465074       -12.6553
  54   2.0000      -0.459979       -12.5167
  55   2.0000      -0.451388       -12.2829
  56   2.0000      -0.444967       -12.1082
  57   2.0000      -0.435472       -11.8498
  58   2.0000      -0.430973       -11.7274
  59   2.0000      -0.425892       -11.5891
  60   2.0000      -0.422063       -11.4849
  61   2.0000      -0.410239       -11.1632
  62   2.0000      -0.407448       -11.0872
  63   2.0000      -0.355742        -9.6802
  64   2.0000      -0.334200        -9.0941
  65   2.0000      -0.330673        -8.9981
  66   2.0000      -0.283459        -7.7133
  67   0.0000       0.021078         0.5736
  68   0.0000       0.079449         2.1619
  69   0.0000       0.105098         2.8599
  70   0.0000       0.123937         3.3725
  71   0.0000       0.131247         3.5714

MULLIKEN ATOMIC CHARGES
-----------------------
   0 S :    0.109462
   1 C :   -0.142835
   2 C :   -0.097494
   3 C :    0.011322
   4 C :   -0.143040
   5 H :    0.005172
   6 C :    0.110875
   7 H :    0.016056
   8 H :    0.006388
   9 C :   -0.079823
  10 H :    0.026172
  11 H :    0.037889
  12 C :   -0.062097
  13 H :    0.034787
  14 H :    0.050974
  15 H :    0.041250
  16 S :    0.091076
  17 C :   -0.075259
  18 C :   -0.041415
  19 C :   -0.031467
  20 C :   -0.123235
  21 H :    0.037123
  22 C :    0.009799
  23 H :    0.018282
  24 H :    0.046508
  25 C :   -0.090750
  26 H :    0.022712
  27 H :    0.002852
  28 C :    0.008986
  29 H :    0.042013
  30 H :    0.017553
  31 H :    0.032854
  32 H :    0.062381
  33 H :    0.044927
Sum of atomic charges:    0.0000000

LOEWDIN ATOMIC CHARGES
----------------------
   0 S :    0.415179
   1 C :   -0.202824
   2 C :   -0.062995
   3 C :   -0.067649
   4 C :   -0.196304
   5 H :    0.032703
   6 C :   -0.029095
   7 H :    0.032232
   8 H :    0.022863
   9 C :   -0.048421
  10 H :    0.022634
  11 H :    0.037595
  12 C :   -0.074805
  13 H :    0.027512
  14 H :    0.034135
  15 H :    0.030633
  16 S :    0.386575
  17 C :   -0.175537
  18 C :   -0.076637
  19 C :   -0.065786
  20 C :   -0.183990
  21 H :    0.040745
  22 C :   -0.037671
  23 H :    0.026490
  24 H :    0.036408
  25 C :   -0.044858
  26 H :    0.023861
  27 H :    0.016482
  28 C :   -0.066092
  29 H :    0.025815
  30 H :    0.026356
  31 H :    0.035991
  32 H :    0.035665
  33 H :    0.022790

  Mayer bond orders larger than 0.100000
B(  0-S ,  1-C ) :   1.1290 B(  0-S ,  4-C ) :   1.1666 B(  1-C ,  2-C ) :   1.6135
B(  1-C , 32-H ) :   0.9575 B(  2-C ,  3-C ) :   1.2566 B(  2-C ,  6-C ) :   1.0243
B(  3-C ,  4-C ) :   1.5400 B(  3-C ,  5-H ) :   0.9890 B(  4-C , 20-C ) :   1.0727
B(  6-C ,  7-H ) :   0.9345 B(  6-C ,  8-H ) :   0.9355 B(  6-C ,  9-C ) :   1.0611
B(  9-C , 10-H ) :   0.9553 B(  9-C , 11-H ) :   0.9508 B(  9-C , 12-C ) :   1.0781
B( 12-C , 13-H ) :   0.9698 B( 12-C , 14-H ) :   0.9670 B( 12-C , 15-H ) :   0.9745
B( 16-S , 17-C ) :   1.1568 B( 16-S , 20-C ) :   1.1251 B( 17-C , 18-C ) :   1.5758
B( 17-C , 20-C ) :   0.1056 B( 17-C , 33-H ) :   0.9773 B( 18-C , 19-C ) :   1.2803
B( 18-C , 21-H ) :   0.9749 B( 19-C , 20-C ) :   1.5654 B( 19-C , 22-C ) :   1.0608
B( 22-C , 23-H ) :   0.9264 B( 22-C , 24-H ) :   0.9407 B( 22-C , 25-C ) :   1.0486
B( 25-C , 26-H ) :   0.9504 B( 25-C , 27-H ) :   0.9520 B( 25-C , 28-C ) :   1.0780
B( 28-C , 29-H ) :   0.9758 B( 28-C , 30-H ) :   0.9689 B( 28-C , 31-H ) :   0.9680

Dispersion correction           -0.014507325
FINAL SINGLE POINT ENERGY     -1339.885450234611

DIPOLE MOMENT
-------------
                                X             Y             Z
Electronic contribution:     10.85258      17.47284     -18.39092
Nuclear contribution   :    -10.87642     -17.91629      18.98804
                        -----------------------------------------
Total Dipole Moment    :     -0.02384      -0.44345       0.59712
                        -----------------------------------------
Magnitude (a.u.)       :      0.74416
Magnitude (Debye)      :      1.89150

Rotational constants in cm-1:     0.018293     0.009127     0.006644
Rotational constants in MHz :   548.407513   273.619468   199.193836

                             ****ORCA TERMINATED NORMALLY****
TOTAL RUN TIME: 0 days 0 hours 0 minutes 21 seconds 727 msec
