                         Program Version 4.2.1 -  RELEASE  -
|  1> ! wB97X-D3 SP def2-SVP
|  2> %pal
|  3> nprocs 24
|  4> end
|  5>
|  6> * xyz 0 1
|  7> S 	 -52.865 	 -48.2523 	 -80.0134
|  8> C 	 -51.8677 	 -49.646 	 -80.3954
|  9> C 	 -52.2464 	 -50.2132 	 -81.6402
| 10> C 	 -53.0554 	 -49.2728 	 -82.3813
| 11> C 	 -53.5316 	 -48.1796 	 -81.6241
| 12> H 	 -53.459 	 -49.4148 	 -83.3386
| 13> C 	 -51.696 	 -51.5511 	 -82.1247
| 14> H 	 -50.7089 	 -51.5084 	 -82.5184
| 15> H 	 -52.2941 	 -51.7409 	 -83.0362
| 16> C 	 -51.7375 	 -52.7204 	 -81.1148
| 17> H 	 -51.1698 	 -53.5596 	 -81.5227
| 18> H 	 -51.2323 	 -52.3853 	 -80.2042
| 19> C 	 -53.0982 	 -53.3085 	 -80.8425
| 20> H 	 -53.9371 	 -52.6478 	 -80.7965
| 21> H 	 -53.2779 	 -53.9962 	 -81.609
| 22> H 	 -53.1728 	 -53.9799 	 -79.9403
| 23> S 	 -56.0835 	 -47.5311 	 -80.9716
| 24> C 	 -56.7713 	 -46.1224 	 -81.7657
| 25> C 	 -56.048 	 -45.6362 	 -82.7821
| 26> C 	 -54.8102 	 -46.343 	 -82.8998
| 27> C 	 -54.6043 	 -47.2753 	 -81.9168
| 28> H 	 -56.4724 	 -44.9144 	 -83.3971
| 29> C 	 -53.8339 	 -45.9922 	 -84.0271
| 30> H 	 -53.1971 	 -46.8024 	 -84.2038
| 31> H 	 -53.1507 	 -45.1207 	 -83.7947
| 32> C 	 -54.5628 	 -45.8102 	 -85.3303
| 33> H 	 -55.0404 	 -44.8829 	 -85.3122
| 34> H 	 -55.2622 	 -46.6663 	 -85.5151
| 35> C 	 -53.5564 	 -45.8338 	 -86.544
| 36> H 	 -53.0144 	 -44.9306 	 -86.5582
| 37> H 	 -54.0436 	 -45.8421 	 -87.5505
| 38> H 	 -52.9128 	 -46.6414 	 -86.4497
| 39> H 	 -51.0634 	 -50.0878 	 -79.7699
| 40> H 	 -57.8439 	 -45.8135 	 -81.5977
| 41> *
| 42>
| 43>                          ****END OF INPUT****

CARTESIAN COORDINATES (ANGSTROEM)
---------------------------------
  S    -52.865000  -48.252300  -80.013400
  C    -51.867700  -49.646000  -80.395400
  C    -52.246400  -50.213200  -81.640200
  C    -53.055400  -49.272800  -82.381300
  C    -53.531600  -48.179600  -81.624100
  H    -53.459000  -49.414800  -83.338600
  C    -51.696000  -51.551100  -82.124700
  H    -50.708900  -51.508400  -82.518400
  H    -52.294100  -51.740900  -83.036200
  C    -51.737500  -52.720400  -81.114800
  H    -51.169800  -53.559600  -81.522700
  H    -51.232300  -52.385300  -80.204200
  C    -53.098200  -53.308500  -80.842500
  H    -53.937100  -52.647800  -80.796500
  H    -53.277900  -53.996200  -81.609000
  H    -53.172800  -53.979900  -79.940300
  S    -56.083500  -47.531100  -80.971600
  C    -56.771300  -46.122400  -81.765700
  C    -56.048000  -45.636200  -82.782100
  C    -54.810200  -46.343000  -82.899800
  C    -54.604300  -47.275300  -81.916800
  H    -56.472400  -44.914400  -83.397100
  C    -53.833900  -45.992200  -84.027100
  H    -53.197100  -46.802400  -84.203800
  H    -53.150700  -45.120700  -83.794700
  C    -54.562800  -45.810200  -85.330300
  H    -55.040400  -44.882900  -85.312200
  H    -55.262200  -46.666300  -85.515100
  C    -53.556400  -45.833800  -86.544000
  H    -53.014400  -44.930600  -86.558200
  H    -54.043600  -45.842100  -87.550500
  H    -52.912800  -46.641400  -86.449700
  H    -51.063400  -50.087800  -79.769900
  H    -57.843900  -45.813500  -81.597700

 Total Charge           Charge          ....    0
 Multiplicity           Mult            ....    1
 Number of Electrons    NEL             ....  134
 Basis Dimension        Dim             ....  322

ORBITAL ENERGIES
----------------

  NO   OCC          E(Eh)            E(eV)
   0   2.0000     -88.967484     -2420.9283
   1   2.0000     -88.962077     -2420.7812
   2   2.0000     -10.328485      -281.0524
   3   2.0000     -10.323242      -280.9097
   4   2.0000     -10.318904      -280.7917
   5   2.0000     -10.315420      -280.6968
   6   2.0000     -10.308151      -280.4991
   7   2.0000     -10.302189      -280.3368
   8   2.0000     -10.297007      -280.1958
   9   2.0000     -10.294104      -280.1168
  10   2.0000     -10.289041      -279.9790
  11   2.0000     -10.286735      -279.9163
  12   2.0000     -10.285105      -279.8719
  13   2.0000     -10.284148      -279.8459
  14   2.0000     -10.272512      -279.5293
  15   2.0000     -10.269317      -279.4423
  16   2.0000      -8.081826      -219.9177
  17   2.0000      -8.076865      -219.7827
  18   2.0000      -6.040238      -164.3632
  19   2.0000      -6.036283      -164.2556
  20   2.0000      -6.035397      -164.2315
  21   2.0000      -6.032800      -164.1608
  22   2.0000      -6.031626      -164.1289
  23   2.0000      -6.027313      -164.0115
  24   2.0000      -1.006327       -27.3835
  25   2.0000      -0.980759       -26.6878
  26   2.0000      -0.913277       -24.8515
  27   2.0000      -0.911004       -24.7897
  28   2.0000      -0.871495       -23.7146
  29   2.0000      -0.848489       -23.0886
  30   2.0000      -0.844805       -22.9883
  31   2.0000      -0.814087       -22.1524
  32   2.0000      -0.785926       -21.3861
  33   2.0000      -0.771917       -21.0049
  34   2.0000      -0.705803       -19.2059
  35   2.0000      -0.704850       -19.1799
  36   2.0000      -0.696074       -18.9411
  37   2.0000      -0.656035       -17.8516
  38   2.0000      -0.638783       -17.3822
  39   2.0000      -0.612202       -16.6589
  40   2.0000      -0.597260       -16.2523
  41   2.0000      -0.579364       -15.7653
  42   2.0000      -0.577563       -15.7163
  43   2.0000      -0.551227       -14.9996
  44   2.0000      -0.545994       -14.8573
  45   2.0000      -0.519267       -14.1300
  46   2.0000      -0.513142       -13.9633
  47   2.0000      -0.509786       -13.8720
  48   2.0000      -0.507672       -13.8145
  49   2.0000      -0.493877       -13.4391
  50   2.0000      -0.490720       -13.3532
  51   2.0000      -0.474644       -12.9157
  52   2.0000      -0.468032       -12.7358
  53   2.0000      -0.465982       -12.6800
  54   2.0000      -0.457838       -12.4584
  55   2.0000      -0.455708       -12.4004
  56   2.0000      -0.441473       -12.0131
  57   2.0000      -0.434268       -11.8170
  58   2.0000      -0.431091       -11.7306
  59   2.0000      -0.428681       -11.6650
  60   2.0000      -0.426613       -11.6087
  61   2.0000      -0.415791       -11.3142
  62   2.0000      -0.412369       -11.2211
  63   2.0000      -0.343686        -9.3522
  64   2.0000      -0.331473        -9.0198
  65   2.0000      -0.327000        -8.8981
  66   2.0000      -0.291718        -7.9380
  67   0.0000       0.034131         0.9288
  68   0.0000       0.059508         1.6193
  69   0.0000       0.110870         3.0169
  70   0.0000       0.114441         3.1141
  71   0.0000       0.126588         3.4446

MULLIKEN ATOMIC CHARGES
-----------------------
   0 S :    0.124655
   1 C :   -0.135552
   2 C :   -0.113242
   3 C :    0.079600
   4 C :   -0.190146
   5 H :   -0.007790
   6 C :    0.069253
   7 H :    0.035495
   8 H :    0.013269
   9 C :   -0.068230
  10 H :    0.028730
  11 H :    0.027950
  12 C :   -0.033687
  13 H :    0.035623
  14 H :    0.008357
  15 H :    0.031637
  16 S :    0.100152
  17 C :   -0.100445
  18 C :   -0.004623
  19 C :   -0.032516
  20 C :   -0.156069
  21 H :   -0.003124
  22 C :    0.115307
  23 H :   -0.012337
  24 H :    0.049733
  25 C :   -0.128321
  26 H :    0.026554
  27 H :    0.046416
  28 C :   -0.013805
  29 H :    0.015541
  30 H :    0.035584
  31 H :    0.016779
  32 H :    0.070299
  33 H :    0.068951
Sum of atomic charges:    0.0000000

LOEWDIN ATOMIC CHARGES
----------------------
   0 S :    0.419157
   1 C :   -0.205219
   2 C :   -0.061350
   3 C :   -0.054553
   4 C :   -0.204064
   5 H :    0.020177
   6 C :   -0.033331
   7 H :    0.030890
   8 H :    0.031316
   9 C :   -0.037983
  10 H :    0.028923
  11 H :    0.020715
  12 C :   -0.066819
  13 H :    0.022458
  14 H :    0.017894
  15 H :    0.033873
  16 S :    0.384410
  17 C :   -0.177595
  18 C :   -0.067199
  19 C :   -0.048964
  20 C :   -0.195714
  21 H :    0.025285
  22 C :   -0.029265
  23 H :    0.016799
  24 H :    0.040822
  25 C :   -0.035000
  26 H :    0.012469
  27 H :    0.031867
  28 C :   -0.056155
  29 H :    0.018127
  30 H :    0.031599
  31 H :    0.012905
  32 H :    0.035798
  33 H :    0.037730

  Mayer bond orders larger than 0.100000
B(  0-S ,  1-C ) :   1.1568 B(  0-S ,  4-C ) :   1.1605 B(  1-C ,  2-C ) :   1.5680
B(  1-C ,  4-C ) :   0.1089 B(  1-C , 32-H ) :   0.9654 B(  2-C ,  3-C ) :   1.2698
B(  2-C ,  6-C ) :   1.0128 B(  3-C ,  4-C ) :   1.5470 B(  3-C ,  5-H ) :   0.9922
B(  4-C , 20-C ) :   1.0464 B(  6-C ,  7-H ) :   0.9376 B(  6-C ,  8-H ) :   0.9419
B(  6-C ,  9-C ) :   1.0738 B(  9-C , 10-H ) :   0.9571 B(  9-C , 11-H ) :   0.9579
B(  9-C , 12-C ) :   1.0711 B( 12-C , 13-H ) :   0.9808 B( 12-C , 14-H ) :   0.9742
B( 12-C , 15-H ) :   0.9722 B( 16-S , 17-C ) :   1.1375 B( 16-S , 20-C ) :   1.1251
B( 17-C , 18-C ) :   1.6622 B( 17-C , 33-H ) :   0.9529 B( 18-C , 19-C ) :   1.1862
B( 18-C , 21-H ) :   1.0041 B( 19-C , 20-C ) :   1.6521 B( 19-C , 22-C ) :   1.0405
B( 22-C , 23-H ) :   0.9296 B( 22-C , 24-H ) :   0.9308 B( 22-C , 25-C ) :   1.0620
B( 25-C , 26-H ) :   0.9516 B( 25-C , 27-H ) :   0.9616 B( 25-C , 28-C ) :   1.0838
B( 28-C , 29-H ) :   0.9736 B( 28-C , 30-H ) :   0.9757 B( 28-C , 31-H ) :   0.9773

Dispersion correction           -0.013662606
FINAL SINGLE POINT ENERGY     -1339.860585825459

DIPOLE MOMENT
-------------
                                X             Y             Z
Electronic contribution:     -7.62214      10.21525      18.37927
Nuclear contribution   :      7.72861     -10.44750     -18.99818
                        -----------------------------------------
Total Dipole Moment    :      0.10647      -0.23225      -0.61891
                        -----------------------------------------
Magnitude (a.u.)       :      0.66958
Magnitude (Debye)      :      1.70193

Rotational constants in cm-1:     0.019937     0.007689     0.006434
Rotational constants in MHz :   597.710699   230.520459   192.873534

                             ****ORCA TERMINATED NORMALLY****
TOTAL RUN TIME: 0 days 0 hours 0 minutes 21 seconds 160 msec
