                         Program Version 4.2.1 -  RELEASE  -
|  1> ! wB97X-D3 SP def2-SVP
|  2> %pal
|  3> nprocs 24
|  4> end
|  5>
|  6> * xyz 0 1
|  7> S 	 -54.5848 	 12.8163 	 23.4479
|  8> C 	 -55.2439 	 12.6778 	 21.8186
|  9> C 	 -55.76 	 11.4382 	 21.4712
| 10> C 	 -55.6785 	 10.5378 	 22.5594
| 11> C 	 -54.9514 	 11.0893 	 23.6239
| 12> H 	 -56.1827 	 9.60552 	 22.6995
| 13> C 	 -56.6475 	 11.25 	 20.2494
| 14> H 	 -56.4053 	 10.171 	 19.9926
| 15> H 	 -56.2991 	 11.889 	 19.4831
| 16> C 	 -58.1901 	 11.2643 	 20.5807
| 17> H 	 -58.505 	 10.5293 	 21.3235
| 18> H 	 -58.3879 	 12.253 	 21.177
| 19> C 	 -59.1959 	 11.3262 	 19.3885
| 20> H 	 -59.1489 	 10.3911 	 18.834
| 21> H 	 -60.2511 	 11.3207 	 19.8072
| 22> H 	 -58.8984 	 12.0914 	 18.6133
| 23> S 	 -55.4436 	 11.2046 	 26.321
| 24> C 	 -54.5599 	 10.1282 	 27.4089
| 25> C 	 -53.8977 	 9.17977 	 26.6487
| 26> C 	 -54.0909 	 9.30487 	 25.2553
| 27> C 	 -54.7655 	 10.4636 	 24.9482
| 28> H 	 -53.2539 	 8.44388 	 27.0284
| 29> C 	 -53.2052 	 8.48901 	 24.3694
| 30> H 	 -52.4853 	 8.04633 	 25.0279
| 31> H 	 -52.606 	 9.10796 	 23.7372
| 32> C 	 -53.8346 	 7.35326 	 23.4274
| 33> H 	 -52.9624 	 6.90823 	 23.0188
| 34> H 	 -54.5174 	 7.86749 	 22.6268
| 35> C 	 -54.4866 	 6.17886 	 24.1902
| 36> H 	 -55.475 	 6.39323 	 24.6018
| 37> H 	 -53.8889 	 5.95544 	 25.0984
| 38> H 	 -54.5124 	 5.33313 	 23.5689
| 39> H 	 -55.1183 	 13.5012 	 21.2285
| 40> H 	 -54.287 	 10.3658 	 28.4732
| 41> *
| 42>
| 43>                          ****END OF INPUT****

CARTESIAN COORDINATES (ANGSTROEM)
---------------------------------
  S    -54.584800   12.816300   23.447900
  C    -55.243900   12.677800   21.818600
  C    -55.760000   11.438200   21.471200
  C    -55.678500   10.537800   22.559400
  C    -54.951400   11.089300   23.623900
  H    -56.182700    9.605520   22.699500
  C    -56.647500   11.250000   20.249400
  H    -56.405300   10.171000   19.992600
  H    -56.299100   11.889000   19.483100
  C    -58.190100   11.264300   20.580700
  H    -58.505000   10.529300   21.323500
  H    -58.387900   12.253000   21.177000
  C    -59.195900   11.326200   19.388500
  H    -59.148900   10.391100   18.834000
  H    -60.251100   11.320700   19.807200
  H    -58.898400   12.091400   18.613300
  S    -55.443600   11.204600   26.321000
  C    -54.559900   10.128200   27.408900
  C    -53.897700    9.179770   26.648700
  C    -54.090900    9.304870   25.255300
  C    -54.765500   10.463600   24.948200
  H    -53.253900    8.443880   27.028400
  C    -53.205200    8.489010   24.369400
  H    -52.485300    8.046330   25.027900
  H    -52.606000    9.107960   23.737200
  C    -53.834600    7.353260   23.427400
  H    -52.962400    6.908230   23.018800
  H    -54.517400    7.867490   22.626800
  C    -54.486600    6.178860   24.190200
  H    -55.475000    6.393230   24.601800
  H    -53.888900    5.955440   25.098400
  H    -54.512400    5.333130   23.568900
  H    -55.118300   13.501200   21.228500
  H    -54.287000   10.365800   28.473200

 Total Charge           Charge          ....    0
 Multiplicity           Mult            ....    1
 Number of Electrons    NEL             ....  134
 Basis Dimension        Dim             ....  322

ORBITAL ENERGIES
----------------

  NO   OCC          E(Eh)            E(eV)
   0   2.0000     -88.970783     -2421.0181
   1   2.0000     -88.963214     -2420.8121
   2   2.0000     -10.332265      -281.1552
   3   2.0000     -10.319140      -280.7981
   4   2.0000     -10.316340      -280.7219
   5   2.0000     -10.309859      -280.5455
   6   2.0000     -10.303835      -280.3816
   7   2.0000     -10.301018      -280.3049
   8   2.0000     -10.300950      -280.3031
   9   2.0000     -10.297966      -280.2219
  10   2.0000     -10.293059      -280.0884
  11   2.0000     -10.291002      -280.0324
  12   2.0000     -10.290866      -280.0287
  13   2.0000     -10.286620      -279.9132
  14   2.0000     -10.284574      -279.8575
  15   2.0000     -10.273744      -279.5628
  16   2.0000      -8.085029      -220.0048
  17   2.0000      -8.078640      -219.8310
  18   2.0000      -6.043236      -164.4448
  19   2.0000      -6.039888      -164.3537
  20   2.0000      -6.037148      -164.2791
  21   2.0000      -6.035858      -164.2441
  22   2.0000      -6.032948      -164.1649
  23   2.0000      -6.029464      -164.0701
  24   2.0000      -1.008438       -27.4410
  25   2.0000      -0.984589       -26.7920
  26   2.0000      -0.904292       -24.6070
  27   2.0000      -0.900158       -24.4946
  28   2.0000      -0.863975       -23.5100
  29   2.0000      -0.852007       -23.1843
  30   2.0000      -0.848929       -23.1005
  31   2.0000      -0.813859       -22.1462
  32   2.0000      -0.781032       -21.2530
  33   2.0000      -0.769373       -20.9357
  34   2.0000      -0.705161       -19.1884
  35   2.0000      -0.697222       -18.9724
  36   2.0000      -0.685402       -18.6507
  37   2.0000      -0.666324       -18.1316
  38   2.0000      -0.651694       -17.7335
  39   2.0000      -0.618134       -16.8203
  40   2.0000      -0.587498       -15.9866
  41   2.0000      -0.558571       -15.1995
  42   2.0000      -0.555260       -15.1094
  43   2.0000      -0.548632       -14.9290
  44   2.0000      -0.542267       -14.7558
  45   2.0000      -0.529235       -14.4012
  46   2.0000      -0.513838       -13.9823
  47   2.0000      -0.511380       -13.9154
  48   2.0000      -0.503987       -13.7142
  49   2.0000      -0.492802       -13.4098
  50   2.0000      -0.481698       -13.1077
  51   2.0000      -0.475620       -12.9423
  52   2.0000      -0.473769       -12.8919
  53   2.0000      -0.466122       -12.6838
  54   2.0000      -0.456414       -12.4196
  55   2.0000      -0.452560       -12.3148
  56   2.0000      -0.447179       -12.1684
  57   2.0000      -0.439922       -11.9709
  58   2.0000      -0.432196       -11.7606
  59   2.0000      -0.427108       -11.6222
  60   2.0000      -0.420163       -11.4332
  61   2.0000      -0.416850       -11.3431
  62   2.0000      -0.400516       -10.8986
  63   2.0000      -0.343386        -9.3440
  64   2.0000      -0.332193        -9.0394
  65   2.0000      -0.327352        -8.9077
  66   2.0000      -0.291739        -7.9386
  67   0.0000       0.024642         0.6705
  68   0.0000       0.065605         1.7852
  69   0.0000       0.106761         2.9051
  70   0.0000       0.122273         3.3272
  71   0.0000       0.126044         3.4298

MULLIKEN ATOMIC CHARGES
-----------------------
   0 S :    0.110335
   1 C :   -0.099355
   2 C :   -0.061203
   3 C :    0.024286
   4 C :   -0.161069
   5 H :    0.026238
   6 C :    0.085530
   7 H :    0.032667
   8 H :    0.021082
   9 C :   -0.117130
  10 H :    0.034521
  11 H :    0.038516
  12 C :   -0.058663
  13 H :    0.022862
  14 H :    0.053873
  15 H :    0.048381
  16 S :    0.111401
  17 C :   -0.117343
  18 C :   -0.029862
  19 C :    0.006295
  20 C :   -0.180006
  21 H :    0.001289
  22 C :    0.045463
  23 H :   -0.000865
  24 H :    0.027280
  25 C :   -0.080998
  26 H :    0.023142
  27 H :    0.049449
  28 C :   -0.039571
  29 H :    0.035283
  30 H :    0.020804
  31 H :    0.029840
  32 H :    0.015968
  33 H :    0.081562
Sum of atomic charges:    0.0000000

LOEWDIN ATOMIC CHARGES
----------------------
   0 S :    0.397055
   1 C :   -0.171037
   2 C :   -0.062165
   3 C :   -0.050809
   4 C :   -0.179564
   5 H :    0.031891
   6 C :   -0.027560
   7 H :    0.036619
   8 H :    0.024877
   9 C :   -0.051174
  10 H :    0.024950
  11 H :    0.031519
  12 C :   -0.078082
  13 H :    0.019571
  14 H :    0.040003
  15 H :    0.033842
  16 S :    0.416669
  17 C :   -0.204488
  18 C :   -0.058320
  19 C :   -0.072051
  20 C :   -0.213827
  21 H :    0.021056
  22 C :   -0.027571
  23 H :    0.023391
  24 H :    0.030176
  25 C :   -0.038186
  26 H :    0.020437
  27 H :    0.032395
  28 C :   -0.066692
  29 H :    0.024854
  30 H :    0.027731
  31 H :    0.018879
  32 H :    0.002370
  33 H :    0.043240

  Mayer bond orders larger than 0.100000
B(  0-S ,  1-C ) :   1.1467 B(  0-S ,  4-C ) :   1.1561 B(  1-C ,  2-C ) :   1.5926
B(  1-C ,  4-C ) :   0.1000 B(  1-C , 32-H ) :   0.9804 B(  2-C ,  3-C ) :   1.2304
B(  2-C ,  6-C ) :   1.0367 B(  3-C ,  4-C ) :   1.5833 B(  3-C ,  5-H ) :   0.9852
B(  4-C , 20-C ) :   1.0145 B(  6-C ,  7-H ) :   0.9345 B(  6-C ,  8-H ) :   0.9443
B(  6-C ,  9-C ) :   1.0409 B(  9-C , 10-H ) :   0.9559 B(  9-C , 11-H ) :   0.9595
B(  9-C , 12-C ) :   1.0758 B( 12-C , 13-H ) :   0.9746 B( 12-C , 14-H ) :   0.9719
B( 12-C , 15-H ) :   0.9747 B( 16-S , 17-C ) :   1.1378 B( 16-S , 20-C ) :   1.1739
B( 17-C , 18-C ) :   1.5974 B( 17-C , 33-H ) :   0.9600 B( 18-C , 19-C ) :   1.2664
B( 18-C , 21-H ) :   0.9909 B( 19-C , 20-C ) :   1.5707 B( 19-C , 22-C ) :   1.0416
B( 22-C , 23-H ) :   0.9405 B( 22-C , 24-H ) :   0.9352 B( 22-C , 25-C ) :   1.0720
B( 25-C , 26-H ) :   0.9535 B( 25-C , 27-H ) :   0.9516 B( 25-C , 28-C ) :   1.0696
B( 28-C , 29-H ) :   0.9751 B( 28-C , 30-H ) :   0.9727 B( 28-C , 31-H ) :   0.9774

Dispersion correction           -0.014379337
FINAL SINGLE POINT ENERGY     -1339.852724052814

DIPOLE MOMENT
-------------
                                X             Y             Z
Electronic contribution:      7.82529      17.60972      17.70100
Nuclear contribution   :     -7.77606     -17.88274     -18.07715
                        -----------------------------------------
Total Dipole Moment    :      0.04923      -0.27302      -0.37614
                        -----------------------------------------
Magnitude (a.u.)       :      0.46738
Magnitude (Debye)      :      1.18799

Rotational constants in cm-1:     0.018496     0.008357     0.006800
Rotational constants in MHz :   554.485199   250.540913   203.854135

                             ****ORCA TERMINATED NORMALLY****
TOTAL RUN TIME: 0 days 0 hours 0 minutes 20 seconds 449 msec
