                         Program Version 4.2.1 -  RELEASE  -
|  1> ! wB97X-D3 SP def2-SVP
|  2> %pal
|  3> nprocs 24
|  4> end
|  5>
|  6> * xyz 0 1
|  7> S 	 -56.1459 	 14.9191 	 -98.0067
|  8> C 	 -57.2616 	 16.2103 	 -98.6171
|  9> C 	 -58.4734 	 15.6474 	 -98.9565
| 10> C 	 -58.6041 	 14.2823 	 -98.561
| 11> C 	 -57.477 	 13.8021 	 -97.9629
| 12> H 	 -59.5052 	 13.7229 	 -98.7068
| 13> C 	 -59.5338 	 16.3867 	 -99.7168
| 14> H 	 -60.3115 	 15.7507 	 -100.068
| 15> H 	 -59.0909 	 16.8456 	 -100.594
| 16> C 	 -60.2893 	 17.4676 	 -98.889
| 17> H 	 -60.5556 	 17.0178 	 -97.9263
| 18> H 	 -59.6011 	 18.1654 	 -98.5902
| 19> C 	 -61.3961 	 18.3375 	 -99.6184
| 20> H 	 -61.6868 	 19.1734 	 -98.932
| 21> H 	 -61.0808 	 18.8447 	 -100.476
| 22> H 	 -62.3096 	 17.8729 	 -99.6208
| 23> S 	 -57.0325 	 12.5822 	 -95.5623
| 24> C 	 -57.0343 	 10.8233 	 -95.3902
| 25> C 	 -57.3608 	 10.1962 	 -96.5734
| 26> C 	 -57.5985 	 11.1258 	 -97.6377
| 27> C 	 -57.3247 	 12.4871 	 -97.303
| 28> H 	 -57.4758 	 9.1637 	 -96.6786
| 29> C 	 -58.0137 	 10.6764 	 -98.9859
| 30> H 	 -58.686 	 11.4272 	 -99.5497
| 31> H 	 -58.6676 	 9.79729 	 -98.8193
| 32> C 	 -56.8774 	 10.2577 	 -99.839
| 33> H 	 -56.4732 	 9.32753 	 -99.3967
| 34> H 	 -56.1029 	 11.0349 	 -99.8691
| 35> C 	 -57.2975 	 9.8747 	 -101.265
| 36> H 	 -57.9024 	 10.5585 	 -101.873
| 37> H 	 -57.8274 	 8.99911 	 -101.296
| 38> H 	 -56.3495 	 9.67205 	 -101.812
| 39> H 	 -57.0429 	 17.3031 	 -98.7665
| 40> H 	 -57.0436 	 10.2635 	 -94.4474
| 41> *
| 42>
| 43>                          ****END OF INPUT****

CARTESIAN COORDINATES (ANGSTROEM)
---------------------------------
  S    -56.145900   14.919100  -98.006700
  C    -57.261600   16.210300  -98.617100
  C    -58.473400   15.647400  -98.956500
  C    -58.604100   14.282300  -98.561000
  C    -57.477000   13.802100  -97.962900
  H    -59.505200   13.722900  -98.706800
  C    -59.533800   16.386700  -99.716800
  H    -60.311500   15.750700  -100.068000
  H    -59.090900   16.845600  -100.594000
  C    -60.289300   17.467600  -98.889000
  H    -60.555600   17.017800  -97.926300
  H    -59.601100   18.165400  -98.590200
  C    -61.396100   18.337500  -99.618400
  H    -61.686800   19.173400  -98.932000
  H    -61.080800   18.844700  -100.476000
  H    -62.309600   17.872900  -99.620800
  S    -57.032500   12.582200  -95.562300
  C    -57.034300   10.823300  -95.390200
  C    -57.360800   10.196200  -96.573400
  C    -57.598500   11.125800  -97.637700
  C    -57.324700   12.487100  -97.303000
  H    -57.475800    9.163700  -96.678600
  C    -58.013700   10.676400  -98.985900
  H    -58.686000   11.427200  -99.549700
  H    -58.667600    9.797290  -98.819300
  C    -56.877400   10.257700  -99.839000
  H    -56.473200    9.327530  -99.396700
  H    -56.102900   11.034900  -99.869100
  C    -57.297500    9.874700  -101.265000
  H    -57.902400   10.558500  -101.873000
  H    -57.827400    8.999110  -101.296000
  H    -56.349500    9.672050  -101.812000
  H    -57.042900   17.303100  -98.766500
  H    -57.043600   10.263500  -94.447400

 Total Charge           Charge          ....    0
 Multiplicity           Mult            ....    1
 Number of Electrons    NEL             ....  134
 Basis Dimension        Dim             ....  322

ORBITAL ENERGIES
----------------

  NO   OCC          E(Eh)            E(eV)
   0   2.0000     -88.968362     -2420.9522
   1   2.0000     -88.964487     -2420.8468
   2   2.0000     -10.331093      -281.1233
   3   2.0000     -10.330672      -281.1119
   4   2.0000     -10.319982      -280.8210
   5   2.0000     -10.319800      -280.8160
   6   2.0000     -10.305669      -280.4315
   7   2.0000     -10.299482      -280.2632
   8   2.0000     -10.292204      -280.0651
   9   2.0000     -10.291360      -280.0421
  10   2.0000     -10.290622      -280.0221
  11   2.0000     -10.287033      -279.9244
  12   2.0000     -10.284044      -279.8431
  13   2.0000     -10.282880      -279.8114
  14   2.0000     -10.275709      -279.6162
  15   2.0000     -10.270903      -279.4855
  16   2.0000      -8.082240      -219.9289
  17   2.0000      -8.078569      -219.8290
  18   2.0000      -6.040907      -164.3814
  19   2.0000      -6.037151      -164.2792
  20   2.0000      -6.036967      -164.2742
  21   2.0000      -6.033067      -164.1681
  22   2.0000      -6.032771      -164.1600
  23   2.0000      -6.029374      -164.0676
  24   2.0000      -1.002740       -27.2859
  25   2.0000      -0.980133       -26.6708
  26   2.0000      -0.915832       -24.9210
  27   2.0000      -0.908582       -24.7238
  28   2.0000      -0.865455       -23.5502
  29   2.0000      -0.848475       -23.0882
  30   2.0000      -0.846027       -23.0216
  31   2.0000      -0.816668       -22.2227
  32   2.0000      -0.785963       -21.3871
  33   2.0000      -0.769567       -20.9410
  34   2.0000      -0.711324       -19.3561
  35   2.0000      -0.704107       -19.1597
  36   2.0000      -0.688918       -18.7464
  37   2.0000      -0.664843       -18.0913
  38   2.0000      -0.636284       -17.3142
  39   2.0000      -0.621814       -16.9204
  40   2.0000      -0.594979       -16.1902
  41   2.0000      -0.573353       -15.6017
  42   2.0000      -0.568495       -15.4695
  43   2.0000      -0.560752       -15.2588
  44   2.0000      -0.527961       -14.3666
  45   2.0000      -0.525841       -14.3089
  46   2.0000      -0.513288       -13.9673
  47   2.0000      -0.506810       -13.7910
  48   2.0000      -0.504934       -13.7400
  49   2.0000      -0.501967       -13.6592
  50   2.0000      -0.494710       -13.4618
  51   2.0000      -0.475858       -12.9488
  52   2.0000      -0.470789       -12.8108
  53   2.0000      -0.465865       -12.6768
  54   2.0000      -0.456910       -12.4331
  55   2.0000      -0.449600       -12.2342
  56   2.0000      -0.443246       -12.0613
  57   2.0000      -0.436161       -11.8685
  58   2.0000      -0.434284       -11.8175
  59   2.0000      -0.428201       -11.6519
  60   2.0000      -0.420445       -11.4409
  61   2.0000      -0.413725       -11.2580
  62   2.0000      -0.411206       -11.1895
  63   2.0000      -0.343207        -9.3391
  64   2.0000      -0.329478        -8.9655
  65   2.0000      -0.325432        -8.8555
  66   2.0000      -0.295201        -8.0328
  67   0.0000       0.030196         0.8217
  68   0.0000       0.062729         1.7070
  69   0.0000       0.101652         2.7661
  70   0.0000       0.112532         3.0621
  71   0.0000       0.137819         3.7502

MULLIKEN ATOMIC CHARGES
-----------------------
   0 S :    0.115658
   1 C :   -0.150497
   2 C :   -0.093203
   3 C :    0.054838
   4 C :   -0.147795
   5 H :    0.007490
   6 C :    0.092802
   7 H :    0.008296
   8 H :    0.028143
   9 C :   -0.078434
  10 H :    0.026384
  11 H :   -0.000681
  12 C :   -0.006375
  13 H :    0.020655
  14 H :    0.031003
  15 H :    0.018772
  16 S :    0.102597
  17 C :   -0.085408
  18 C :   -0.014108
  19 C :   -0.027913
  20 C :   -0.153453
  21 H :   -0.001301
  22 C :    0.021175
  23 H :    0.032720
  24 H :    0.018485
  25 C :   -0.064635
  26 H :    0.024728
  27 H :    0.038376
  28 C :   -0.020123
  29 H :    0.029513
  30 H :    0.003836
  31 H :    0.033948
  32 H :    0.067758
  33 H :    0.066751
Sum of atomic charges:   -0.0000000

LOEWDIN ATOMIC CHARGES
----------------------
   0 S :    0.390782
   1 C :   -0.190377
   2 C :   -0.061352
   3 C :   -0.059008
   4 C :   -0.196977
   5 H :    0.030571
   6 C :   -0.029559
   7 H :    0.023482
   8 H :    0.030768
   9 C :   -0.034043
  10 H :    0.027908
  11 H :    0.007799
  12 C :   -0.058393
  13 H :    0.037556
  14 H :    0.020816
  15 H :    0.014136
  16 S :    0.401906
  17 C :   -0.182238
  18 C :   -0.065849
  19 C :   -0.050503
  20 C :   -0.199095
  21 H :    0.022921
  22 C :   -0.047708
  23 H :    0.034754
  24 H :    0.031321
  25 C :   -0.037191
  26 H :    0.028788
  27 H :    0.027100
  28 C :   -0.064078
  29 H :    0.024769
  30 H :    0.010443
  31 H :    0.033633
  32 H :    0.040837
  33 H :    0.036079

  Mayer bond orders larger than 0.100000
B(  0-S ,  1-C ) :   1.1114 B(  0-S ,  4-C ) :   1.1574 B(  1-C ,  2-C ) :   1.6258
B(  1-C , 32-H ) :   0.9631 B(  2-C ,  3-C ) :   1.2314 B(  2-C ,  6-C ) :   1.0277
B(  3-C ,  4-C ) :   1.5815 B(  3-C ,  5-H ) :   0.9993 B(  4-C , 20-C ) :   1.0058
B(  6-C ,  7-H ) :   0.9425 B(  6-C ,  8-H ) :   0.9380 B(  6-C ,  9-C ) :   1.0572
B(  9-C , 10-H ) :   0.9561 B(  9-C , 11-H ) :   0.9585 B(  9-C , 12-C ) :   1.0775
B( 12-C , 13-H ) :   0.9690 B( 12-C , 14-H ) :   0.9749 B( 12-C , 15-H ) :   0.9774
B( 16-S , 17-C ) :   1.1625 B( 16-S , 20-C ) :   1.1459 B( 17-C , 18-C ) :   1.5892
B( 17-C , 20-C ) :   0.1031 B( 17-C , 33-H ) :   0.9622 B( 18-C , 19-C ) :   1.2630
B( 18-C , 21-H ) :   0.9953 B( 19-C , 20-C ) :   1.5679 B( 19-C , 22-C ) :   1.0551
B( 22-C , 23-H ) :   0.9379 B( 22-C , 24-H ) :   0.9234 B( 22-C , 25-C ) :   1.0778
B( 25-C , 26-H ) :   0.9476 B( 25-C , 27-H ) :   0.9584 B( 25-C , 28-C ) :   1.0829
B( 28-C , 29-H ) :   0.9750 B( 28-C , 30-H ) :   0.9717 B( 28-C , 31-H ) :   0.9731

Dispersion correction           -0.013570077
FINAL SINGLE POINT ENERGY     -1339.857522541160

DIPOLE MOMENT
-------------
                                X             Y             Z
Electronic contribution:     15.47066      -1.88549      19.42905
Nuclear contribution   :    -16.04509       1.74445     -19.79046
                        -----------------------------------------
Total Dipole Moment    :     -0.57443      -0.14104      -0.36141
                        -----------------------------------------
Magnitude (a.u.)       :      0.69317
Magnitude (Debye)      :      1.76189

Rotational constants in cm-1:     0.018988     0.007435     0.006332
Rotational constants in MHz :   569.236143   222.881401   189.842692

                             ****ORCA TERMINATED NORMALLY****
TOTAL RUN TIME: 0 days 0 hours 0 minutes 21 seconds 21 msec
