                         Program Version 4.2.1 -  RELEASE  -
|  1> ! wB97X-D3 SP def2-SVP
|  2> %pal
|  3> nprocs 24
|  4> end
|  5>
|  6> * xyz 0 1
|  7> S 	 -96.3902 	 16.2464 	 -119.666
|  8> C 	 -96.2269 	 15.4528 	 -118.138
|  9> C 	 -97.4429 	 15.175 	 -117.528
| 10> C 	 -98.541 	 15.7001 	 -118.194
| 11> C 	 -98.1331 	 16.3313 	 -119.403
| 12> H 	 -99.529 	 15.8208 	 -117.869
| 13> C 	 -97.4562 	 14.5452 	 -116.17
| 14> H 	 -96.4023 	 14.376 	 -115.871
| 15> H 	 -97.8158 	 13.5727 	 -116.197
| 16> C 	 -98.218 	 15.5021 	 -115.131
| 17> H 	 -97.9023 	 16.4938 	 -115.218
| 18> H 	 -99.337 	 15.5666 	 -115.401
| 19> C 	 -98.2046 	 15.1022 	 -113.665
| 20> H 	 -98.7764 	 15.8142 	 -113.017
| 21> H 	 -98.6644 	 14.1117 	 -113.647
| 22> H 	 -97.174 	 15.0413 	 -113.302
| 23> S 	 -98.587 	 18.8098 	 -120.52
| 24> C 	 -100.075 	 19.0716 	 -121.288
| 25> C 	 -100.896 	 18.0038 	 -121.325
| 26> C 	 -100.303 	 16.8525 	 -120.803
| 27> C 	 -99.0079 	 17.0799 	 -120.302
| 28> H 	 -101.874 	 18.0454 	 -121.706
| 29> C 	 -101.144 	 15.5744 	 -120.491
| 30> H 	 -100.754 	 14.8919 	 -119.749
| 31> H 	 -100.961 	 15.0016 	 -121.406
| 32> C 	 -102.67 	 15.6452 	 -119.999
| 33> H 	 -103.031 	 14.6595 	 -119.64
| 34> H 	 -103.218 	 15.9696 	 -120.855
| 35> C 	 -102.973 	 16.7677 	 -118.971
| 36> H 	 -102.714 	 17.7256 	 -119.326
| 37> H 	 -102.414 	 16.8163 	 -118.03
| 38> H 	 -104.072 	 16.8607 	 -118.75
| 39> H 	 -95.3103 	 15.2813 	 -117.623
| 40> H 	 -100.382 	 20.0779 	 -121.637
| 41> *
| 42>
| 43>                          ****END OF INPUT****

CARTESIAN COORDINATES (ANGSTROEM)
---------------------------------
  S    -96.390200   16.246400  -119.666000
  C    -96.226900   15.452800  -118.138000
  C    -97.442900   15.175000  -117.528000
  C    -98.541000   15.700100  -118.194000
  C    -98.133100   16.331300  -119.403000
  H    -99.529000   15.820800  -117.869000
  C    -97.456200   14.545200  -116.170000
  H    -96.402300   14.376000  -115.871000
  H    -97.815800   13.572700  -116.197000
  C    -98.218000   15.502100  -115.131000
  H    -97.902300   16.493800  -115.218000
  H    -99.337000   15.566600  -115.401000
  C    -98.204600   15.102200  -113.665000
  H    -98.776400   15.814200  -113.017000
  H    -98.664400   14.111700  -113.647000
  H    -97.174000   15.041300  -113.302000
  S    -98.587000   18.809800  -120.520000
  C    -100.075000   19.071600  -121.288000
  C    -100.896000   18.003800  -121.325000
  C    -100.303000   16.852500  -120.803000
  C    -99.007900   17.079900  -120.302000
  H    -101.874000   18.045400  -121.706000
  C    -101.144000   15.574400  -120.491000
  H    -100.754000   14.891900  -119.749000
  H    -100.961000   15.001600  -121.406000
  C    -102.670000   15.645200  -119.999000
  H    -103.031000   14.659500  -119.640000
  H    -103.218000   15.969600  -120.855000
  C    -102.973000   16.767700  -118.971000
  H    -102.714000   17.725600  -119.326000
  H    -102.414000   16.816300  -118.030000
  H    -104.072000   16.860700  -118.750000
  H    -95.310300   15.281300  -117.623000
  H    -100.382000   20.077900  -121.637000

 Total Charge           Charge          ....    0
 Multiplicity           Mult            ....    1
 Number of Electrons    NEL             ....  134
 Basis Dimension        Dim             ....  322

ORBITAL ENERGIES
----------------

  NO   OCC          E(Eh)            E(eV)
   0   2.0000     -88.969408     -2420.9807
   1   2.0000     -88.964885     -2420.8576
   2   2.0000     -10.330757      -281.1142
   3   2.0000     -10.326978      -281.0114
   4   2.0000     -10.313543      -280.6458
   5   2.0000     -10.307580      -280.4835
   6   2.0000     -10.306251      -280.4473
   7   2.0000     -10.298667      -280.2410
   8   2.0000     -10.295685      -280.1598
   9   2.0000     -10.294768      -280.1349
  10   2.0000     -10.291482      -280.0455
  11   2.0000     -10.290382      -280.0155
  12   2.0000     -10.289859      -280.0013
  13   2.0000     -10.285160      -279.8734
  14   2.0000     -10.280735      -279.7530
  15   2.0000     -10.278515      -279.6926
  16   2.0000      -8.083933      -219.9750
  17   2.0000      -8.080251      -219.8748
  18   2.0000      -6.042197      -164.4165
  19   2.0000      -6.038522      -164.3165
  20   2.0000      -6.038511      -164.3162
  21   2.0000      -6.034938      -164.2190
  22   2.0000      -6.034758      -164.2141
  23   2.0000      -6.031114      -164.1150
  24   2.0000      -1.007141       -27.4057
  25   2.0000      -0.987719       -26.8772
  26   2.0000      -0.906908       -24.6782
  27   2.0000      -0.898781       -24.4571
  28   2.0000      -0.867567       -23.6077
  29   2.0000      -0.854177       -23.2433
  30   2.0000      -0.849156       -23.1067
  31   2.0000      -0.815564       -22.1926
  32   2.0000      -0.786643       -21.4056
  33   2.0000      -0.767432       -20.8829
  34   2.0000      -0.711863       -19.3708
  35   2.0000      -0.699548       -19.0357
  36   2.0000      -0.690213       -18.7817
  37   2.0000      -0.659979       -17.9590
  38   2.0000      -0.643565       -17.5123
  39   2.0000      -0.620764       -16.8918
  40   2.0000      -0.599013       -16.3000
  41   2.0000      -0.571548       -15.5526
  42   2.0000      -0.554086       -15.0774
  43   2.0000      -0.548094       -14.9144
  44   2.0000      -0.539599       -14.6832
  45   2.0000      -0.528562       -14.3829
  46   2.0000      -0.512693       -13.9511
  47   2.0000      -0.504019       -13.7151
  48   2.0000      -0.503807       -13.7093
  49   2.0000      -0.496926       -13.5220
  50   2.0000      -0.492221       -13.3940
  51   2.0000      -0.480438       -13.0734
  52   2.0000      -0.473773       -12.8920
  53   2.0000      -0.467043       -12.7089
  54   2.0000      -0.460375       -12.5275
  55   2.0000      -0.449343       -12.2273
  56   2.0000      -0.448914       -12.2156
  57   2.0000      -0.437463       -11.9040
  58   2.0000      -0.433934       -11.8079
  59   2.0000      -0.429306       -11.6820
  60   2.0000      -0.424048       -11.5389
  61   2.0000      -0.412874       -11.2349
  62   2.0000      -0.404936       -11.0189
  63   2.0000      -0.344241        -9.3673
  64   2.0000      -0.334091        -9.0911
  65   2.0000      -0.331236        -9.0134
  66   2.0000      -0.285759        -7.7759
  67   0.0000       0.026954         0.7335
  68   0.0000       0.069924         1.9027
  69   0.0000       0.112980         3.0743
  70   0.0000       0.123286         3.3548
  71   0.0000       0.131066         3.5665

MULLIKEN ATOMIC CHARGES
-----------------------
   0 S :    0.126190
   1 C :   -0.110811
   2 C :   -0.082356
   3 C :    0.050044
   4 C :   -0.172438
   5 H :   -0.002110
   6 C :    0.124010
   7 H :    0.007348
   8 H :    0.016499
   9 C :   -0.121353
  10 H :    0.024357
  11 H :    0.035362
  12 C :   -0.044577
  13 H :    0.045808
  14 H :    0.030504
  15 H :    0.032464
  16 S :    0.110620
  17 C :   -0.087715
  18 C :   -0.030174
  19 C :   -0.006445
  20 C :   -0.171165
  21 H :    0.000719
  22 C :    0.021083
  23 H :    0.025902
  24 H :    0.042132
  25 C :   -0.053022
  26 H :    0.048028
  27 H :    0.026721
  28 C :   -0.060175
  29 H :    0.007814
  30 H :    0.027955
  31 H :    0.041235
  32 H :    0.035233
  33 H :    0.062313
Sum of atomic charges:   -0.0000000

LOEWDIN ATOMIC CHARGES
----------------------
   0 S :    0.415242
   1 C :   -0.206579
   2 C :   -0.062509
   3 C :   -0.050196
   4 C :   -0.188550
   5 H :    0.023760
   6 C :   -0.021202
   7 H :    0.030399
   8 H :    0.021108
   9 C :   -0.040989
  10 H :    0.014551
  11 H :    0.029309
  12 C :   -0.068988
  13 H :    0.032968
  14 H :    0.025245
  15 H :    0.022631
  16 S :    0.414630
  17 C :   -0.195733
  18 C :   -0.076914
  19 C :   -0.048743
  20 C :   -0.195618
  21 H :    0.025952
  22 C :   -0.040192
  23 H :    0.027473
  24 H :    0.038546
  25 C :   -0.032162
  26 H :    0.032640
  27 H :    0.019324
  28 C :   -0.076214
  29 H :    0.018019
  30 H :    0.023940
  31 H :    0.034026
  32 H :    0.020842
  33 H :    0.033986

  Mayer bond orders larger than 0.100000
B(  0-S ,  1-C ) :   1.1419 B(  0-S ,  4-C ) :   1.1753 B(  1-C ,  2-C ) :   1.5881
B(  1-C ,  4-C ) :   0.1049 B(  1-C , 32-H ) :   0.9667 B(  2-C ,  3-C ) :   1.2634
B(  2-C ,  6-C ) :   1.0372 B(  3-C ,  4-C ) :   1.5281 B(  3-C ,  5-H ) :   1.0015
B(  4-C , 20-C ) :   1.0413 B(  6-C ,  7-H ) :   0.9396 B(  6-C ,  8-H ) :   0.9265
B(  6-C ,  9-C ) :   1.0393 B(  9-C , 10-H ) :   0.9632 B(  9-C , 11-H ) :   0.9535
B(  9-C , 12-C ) :   1.0898 B( 12-C , 13-H ) :   0.9730 B( 12-C , 14-H ) :   0.9743
B( 12-C , 15-H ) :   0.9753 B( 16-S , 17-C ) :   1.1785 B( 16-S , 20-C ) :   1.1433
B( 17-C , 18-C ) :   1.5863 B( 17-C , 33-H ) :   0.9594 B( 18-C , 19-C ) :   1.2702
B( 18-C , 21-H ) :   0.9993 B( 19-C , 20-C ) :   1.5793 B( 19-C , 22-C ) :   1.0114
B( 22-C , 23-H ) :   0.9530 B( 22-C , 24-H ) :   0.9351 B( 22-C , 25-C ) :   1.0520
B( 25-C , 26-H ) :   0.9624 B( 25-C , 27-H ) :   0.9518 B( 25-C , 28-C ) :   1.0753
B( 28-C , 29-H ) :   0.9669 B( 28-C , 30-H ) :   0.9734 B( 28-C , 31-H ) :   0.9739

Dispersion correction           -0.014593688
FINAL SINGLE POINT ENERGY     -1339.857014227008

DIPOLE MOMENT
-------------
                                X             Y             Z
Electronic contribution:     17.76198      10.49355     -20.45625
Nuclear contribution   :    -18.28539     -10.56694      20.87416
                        -----------------------------------------
Total Dipole Moment    :     -0.52341      -0.07340       0.41790
                        -----------------------------------------
Magnitude (a.u.)       :      0.67379
Magnitude (Debye)      :      1.71263

Rotational constants in cm-1:     0.017293     0.009011     0.006920
Rotational constants in MHz :   518.443874   270.133988   207.443315

                             ****ORCA TERMINATED NORMALLY****
TOTAL RUN TIME: 0 days 0 hours 0 minutes 21 seconds 897 msec
