                         Program Version 4.2.1 -  RELEASE  -
|  1> ! wB97X-D3 SP def2-SVP
|  2> %pal
|  3> nprocs 24
|  4> end
|  5>
|  6> * xyz 0 1
|  7> S 	 -62.1481 	 20.7431 	 19.8668
|  8> C 	 -63.4321 	 20.166 	 20.9858
|  9> C 	 -62.9118 	 19.7953 	 22.1862
| 10> C 	 -61.4736 	 19.9733 	 22.2296
| 11> C 	 -60.9758 	 20.6606 	 21.1148
| 12> H 	 -60.8848 	 19.6605 	 23.0352
| 13> C 	 -63.6722 	 19.321 	 23.4335
| 14> H 	 -64.2965 	 20.2335 	 23.5009
| 15> H 	 -63.072 	 19.2769 	 24.3528
| 16> C 	 -64.4495 	 18.0436 	 23.2453
| 17> H 	 -65.0967 	 17.9195 	 24.1404
| 18> H 	 -65.1187 	 18.1421 	 22.3695
| 19> C 	 -63.7098 	 16.6992 	 23.2824
| 20> H 	 -64.3201 	 15.8655 	 23.0787
| 21> H 	 -62.9719 	 16.7266 	 22.5165
| 22> H 	 -63.2007 	 16.6098 	 24.2623
| 23> S 	 -58.8076 	 20.7293 	 19.4883
| 24> C 	 -57.3665 	 21.5419 	 20.0177
| 25> C 	 -57.4859 	 21.9754 	 21.3011
| 26> C 	 -58.7586 	 21.7823 	 21.8597
| 27> C 	 -59.6082 	 21.1181 	 20.9618
| 28> H 	 -56.6191 	 22.3749 	 21.8471
| 29> C 	 -59.1798 	 22.4364 	 23.1902
| 30> H 	 -59.9762 	 21.8792 	 23.6844
| 31> H 	 -59.6361 	 23.374 	 22.9137
| 32> C 	 -58.1457 	 22.5985 	 24.2825
| 33> H 	 -57.1639 	 22.9077 	 23.9885
| 34> H 	 -57.879 	 21.6042 	 24.7364
| 35> C 	 -58.6984 	 23.5036 	 25.4126
| 36> H 	 -59.1944 	 24.433 	 25.0831
| 37> H 	 -57.9426 	 23.7724 	 26.1148
| 38> H 	 -59.4844 	 22.9375 	 25.9072
| 39> H 	 -64.4697 	 20.0704 	 20.8133
| 40> H 	 -56.3733 	 21.5799 	 19.516
| 41> *
| 42>
| 43>                          ****END OF INPUT****

CARTESIAN COORDINATES (ANGSTROEM)
---------------------------------
  S    -62.148100   20.743100   19.866800
  C    -63.432100   20.166000   20.985800
  C    -62.911800   19.795300   22.186200
  C    -61.473600   19.973300   22.229600
  C    -60.975800   20.660600   21.114800
  H    -60.884800   19.660500   23.035200
  C    -63.672200   19.321000   23.433500
  H    -64.296500   20.233500   23.500900
  H    -63.072000   19.276900   24.352800
  C    -64.449500   18.043600   23.245300
  H    -65.096700   17.919500   24.140400
  H    -65.118700   18.142100   22.369500
  C    -63.709800   16.699200   23.282400
  H    -64.320100   15.865500   23.078700
  H    -62.971900   16.726600   22.516500
  H    -63.200700   16.609800   24.262300
  S    -58.807600   20.729300   19.488300
  C    -57.366500   21.541900   20.017700
  C    -57.485900   21.975400   21.301100
  C    -58.758600   21.782300   21.859700
  C    -59.608200   21.118100   20.961800
  H    -56.619100   22.374900   21.847100
  C    -59.179800   22.436400   23.190200
  H    -59.976200   21.879200   23.684400
  H    -59.636100   23.374000   22.913700
  C    -58.145700   22.598500   24.282500
  H    -57.163900   22.907700   23.988500
  H    -57.879000   21.604200   24.736400
  C    -58.698400   23.503600   25.412600
  H    -59.194400   24.433000   25.083100
  H    -57.942600   23.772400   26.114800
  H    -59.484400   22.937500   25.907200
  H    -64.469700   20.070400   20.813300
  H    -56.373300   21.579900   19.516000

 Total Charge           Charge          ....    0
 Multiplicity           Mult            ....    1
 Number of Electrons    NEL             ....  134
 Basis Dimension        Dim             ....  322

ORBITAL ENERGIES
----------------

  NO   OCC          E(Eh)            E(eV)
   0   2.0000     -88.967515     -2420.9292
   1   2.0000     -88.967155     -2420.9194
   2   2.0000     -10.327944      -281.0376
   3   2.0000     -10.323763      -280.9239
   4   2.0000     -10.314707      -280.6774
   5   2.0000     -10.309607      -280.5387
   6   2.0000     -10.302788      -280.3531
   7   2.0000     -10.299962      -280.2762
   8   2.0000     -10.297791      -280.2171
   9   2.0000     -10.290779      -280.0263
  10   2.0000     -10.289371      -279.9880
  11   2.0000     -10.289195      -279.9832
  12   2.0000     -10.288967      -279.9770
  13   2.0000     -10.288330      -279.9597
  14   2.0000     -10.278739      -279.6987
  15   2.0000     -10.273632      -279.5597
  16   2.0000      -8.082543      -219.9372
  17   2.0000      -8.081927      -219.9204
  18   2.0000      -6.040991      -164.3837
  19   2.0000      -6.040628      -164.3738
  20   2.0000      -6.036899      -164.2724
  21   2.0000      -6.036530      -164.2623
  22   2.0000      -6.033401      -164.1772
  23   2.0000      -6.032461      -164.1516
  24   2.0000      -1.010673       -27.5018
  25   2.0000      -0.985172       -26.8079
  26   2.0000      -0.915281       -24.9061
  27   2.0000      -0.910478       -24.7754
  28   2.0000      -0.871148       -23.7051
  29   2.0000      -0.852220       -23.1901
  30   2.0000      -0.844806       -22.9883
  31   2.0000      -0.812519       -22.1098
  32   2.0000      -0.787741       -21.4355
  33   2.0000      -0.774822       -21.0840
  34   2.0000      -0.708898       -19.2901
  35   2.0000      -0.703937       -19.1551
  36   2.0000      -0.696289       -18.9470
  37   2.0000      -0.654708       -17.8155
  38   2.0000      -0.634631       -17.2692
  39   2.0000      -0.615450       -16.7472
  40   2.0000      -0.598799       -16.2942
  41   2.0000      -0.581097       -15.8125
  42   2.0000      -0.562196       -15.2981
  43   2.0000      -0.554642       -15.0926
  44   2.0000      -0.543549       -14.7907
  45   2.0000      -0.527439       -14.3523
  46   2.0000      -0.513928       -13.9847
  47   2.0000      -0.509222       -13.8566
  48   2.0000      -0.503906       -13.7120
  49   2.0000      -0.497881       -13.5480
  50   2.0000      -0.488517       -13.2932
  51   2.0000      -0.482119       -13.1191
  52   2.0000      -0.476623       -12.9696
  53   2.0000      -0.468115       -12.7381
  54   2.0000      -0.460873       -12.5410
  55   2.0000      -0.454731       -12.3739
  56   2.0000      -0.448313       -12.1992
  57   2.0000      -0.442662       -12.0454
  58   2.0000      -0.438829       -11.9411
  59   2.0000      -0.428558       -11.6617
  60   2.0000      -0.419368       -11.4116
  61   2.0000      -0.414701       -11.2846
  62   2.0000      -0.396892       -10.8000
  63   2.0000      -0.348814        -9.4917
  64   2.0000      -0.333422        -9.0729
  65   2.0000      -0.328621        -8.9422
  66   2.0000      -0.286937        -7.8080
  67   0.0000       0.026429         0.7192
  68   0.0000       0.076990         2.0950
  69   0.0000       0.102915         2.8005
  70   0.0000       0.123463         3.3596
  71   0.0000       0.133649         3.6368

MULLIKEN ATOMIC CHARGES
-----------------------
   0 S :    0.112847
   1 C :   -0.110739
   2 C :   -0.098533
   3 C :    0.040356
   4 C :   -0.148183
   5 H :   -0.007379
   6 C :    0.066785
   7 H :    0.048794
   8 H :    0.022871
   9 C :   -0.100577
  10 H :    0.028086
  11 H :    0.028378
  12 C :   -0.009989
  13 H :    0.032232
  14 H :    0.021476
  15 H :    0.028896
  16 S :    0.118026
  17 C :   -0.093895
  18 C :   -0.062810
  19 C :   -0.016120
  20 C :   -0.154183
  21 H :    0.025926
  22 C :    0.084448
  23 H :    0.012949
  24 H :    0.039730
  25 C :   -0.092892
  26 H :    0.016553
  27 H :    0.029849
  28 C :   -0.040084
  29 H :    0.032443
  30 H :    0.031497
  31 H :    0.025160
  32 H :    0.022447
  33 H :    0.065633
Sum of atomic charges:    0.0000000

LOEWDIN ATOMIC CHARGES
----------------------
   0 S :    0.401135
   1 C :   -0.190704
   2 C :   -0.056060
   3 C :   -0.060664
   4 C :   -0.200521
   5 H :    0.018345
   6 C :   -0.034225
   7 H :    0.046334
   8 H :    0.030078
   9 C :   -0.047472
  10 H :    0.026431
  11 H :    0.023062
  12 C :   -0.055989
  13 H :    0.023184
  14 H :    0.019253
  15 H :    0.028638
  16 S :    0.426531
  17 C :   -0.199889
  18 C :   -0.077683
  19 C :   -0.056025
  20 C :   -0.208246
  21 H :    0.035256
  22 C :   -0.028900
  23 H :    0.030301
  24 H :    0.034911
  25 C :   -0.043213
  26 H :    0.011654
  27 H :    0.030293
  28 C :   -0.060698
  29 H :    0.026921
  30 H :    0.022902
  31 H :    0.024794
  32 H :    0.019862
  33 H :    0.040402

  Mayer bond orders larger than 0.100000
B(  0-S ,  1-C ) :   1.1058 B(  0-S ,  4-C ) :   1.1588 B(  1-C ,  2-C ) :   1.6495
B(  1-C , 32-H ) :   0.9705 B(  2-C ,  3-C ) :   1.2293 B(  2-C ,  6-C ) :   0.9821
B(  3-C ,  4-C ) :   1.5516 B(  3-C ,  5-H ) :   1.0009 B(  4-C , 20-C ) :   1.0482
B(  6-C ,  7-H ) :   0.9376 B(  6-C ,  8-H ) :   0.9484 B(  6-C ,  9-C ) :   1.0816
B(  9-C , 10-H ) :   0.9554 B(  9-C , 11-H ) :   0.9565 B(  9-C , 12-C ) :   1.0724
B( 12-C , 13-H ) :   0.9733 B( 12-C , 14-H ) :   0.9773 B( 12-C , 15-H ) :   0.9732
B( 16-S , 17-C ) :   1.1535 B( 16-S , 20-C ) :   1.1638 B( 17-C , 18-C ) :   1.6088
B( 17-C , 33-H ) :   0.9589 B( 18-C , 19-C ) :   1.2745 B( 18-C , 21-H ) :   0.9818
B( 19-C , 20-C ) :   1.5679 B( 19-C , 22-C ) :   1.0230 B( 22-C , 23-H ) :   0.9318
B( 22-C , 24-H ) :   0.9405 B( 22-C , 25-C ) :   1.0564 B( 25-C , 26-H ) :   0.9575
B( 25-C , 27-H ) :   0.9535 B( 25-C , 28-C ) :   1.0788 B( 28-C , 29-H ) :   0.9772
B( 28-C , 30-H ) :   0.9739 B( 28-C , 31-H ) :   0.9757

Dispersion correction           -0.013604816
FINAL SINGLE POINT ENERGY     -1339.874984183947

DIPOLE MOMENT
-------------
                                X             Y             Z
Electronic contribution:      5.37628       2.79955     -27.44805
Nuclear contribution   :     -5.35464      -2.82251      28.21025
                        -----------------------------------------
Total Dipole Moment    :      0.02164      -0.02296       0.76221
                        -----------------------------------------
Magnitude (a.u.)       :      0.76286
Magnitude (Debye)      :      1.93904

Rotational constants in cm-1:     0.017334     0.008392     0.006386
Rotational constants in MHz :   519.673554   251.583685   191.444192

                             ****ORCA TERMINATED NORMALLY****
TOTAL RUN TIME: 0 days 0 hours 0 minutes 21 seconds 148 msec
