                         Program Version 4.2.1 -  RELEASE  -
|  1> ! wB97X-D3 SP def2-SVP
|  2> %pal
|  3> nprocs 24
|  4> end
|  5>
|  6> * xyz 0 1
|  7> S 	 -50.8634 	 13.9124 	 -108.872
|  8> C 	 -52.1256 	 12.7769 	 -108.814
|  9> C 	 -52.0553 	 11.9148 	 -107.641
| 10> C 	 -50.9608 	 12.2671 	 -106.833
| 11> C 	 -50.1581 	 13.2633 	 -107.356
| 12> H 	 -50.5851 	 11.7475 	 -106.001
| 13> C 	 -53.0836 	 10.8838 	 -107.172
| 14> H 	 -53.7757 	 10.9326 	 -108.024
| 15> H 	 -53.6656 	 11.1559 	 -106.339
| 16> C 	 -52.4448 	 9.51727 	 -106.793
| 17> H 	 -51.8667 	 9.65644 	 -105.854
| 18> H 	 -53.236 	 8.85794 	 -106.423
| 19> C 	 -51.5555 	 8.77021 	 -107.831
| 20> H 	 -51.1681 	 7.80499 	 -107.429
| 21> H 	 -52.1667 	 8.45935 	 -108.69
| 22> H 	 -50.7264 	 9.43796 	 -108.215
| 23> S 	 -47.6031 	 13.049 	 -106.615
| 24> C 	 -46.7916 	 14.2641 	 -105.707
| 25> C 	 -47.6415 	 15.3351 	 -105.54
| 26> C 	 -48.9351 	 15.2209 	 -106.065
| 27> C 	 -49.0862 	 13.9368 	 -106.658
| 28> H 	 -47.233 	 16.2571 	 -105.135
| 29> C 	 -50.0129 	 16.2867 	 -105.959
| 30> H 	 -50.6892 	 16.2021 	 -106.757
| 31> H 	 -49.5326 	 17.2415 	 -106.293
| 32> C 	 -50.6654 	 16.3883 	 -104.593
| 33> H 	 -51.1912 	 17.3561 	 -104.587
| 34> H 	 -49.8179 	 16.4535 	 -103.828
| 35> C 	 -51.5451 	 15.157 	 -104.231
| 36> H 	 -51.8311 	 15.201 	 -103.205
| 37> H 	 -50.9221 	 14.3246 	 -104.29
| 38> H 	 -52.4406 	 15.0669 	 -104.873
| 39> H 	 -52.9939 	 12.6739 	 -109.456
| 40> H 	 -45.8713 	 14.3217 	 -105.281
| 41> *
| 42>
| 43>                          ****END OF INPUT****

CARTESIAN COORDINATES (ANGSTROEM)
---------------------------------
  S    -50.863400   13.912400  -108.872000
  C    -52.125600   12.776900  -108.814000
  C    -52.055300   11.914800  -107.641000
  C    -50.960800   12.267100  -106.833000
  C    -50.158100   13.263300  -107.356000
  H    -50.585100   11.747500  -106.001000
  C    -53.083600   10.883800  -107.172000
  H    -53.775700   10.932600  -108.024000
  H    -53.665600   11.155900  -106.339000
  C    -52.444800    9.517270  -106.793000
  H    -51.866700    9.656440  -105.854000
  H    -53.236000    8.857940  -106.423000
  C    -51.555500    8.770210  -107.831000
  H    -51.168100    7.804990  -107.429000
  H    -52.166700    8.459350  -108.690000
  H    -50.726400    9.437960  -108.215000
  S    -47.603100   13.049000  -106.615000
  C    -46.791600   14.264100  -105.707000
  C    -47.641500   15.335100  -105.540000
  C    -48.935100   15.220900  -106.065000
  C    -49.086200   13.936800  -106.658000
  H    -47.233000   16.257100  -105.135000
  C    -50.012900   16.286700  -105.959000
  H    -50.689200   16.202100  -106.757000
  H    -49.532600   17.241500  -106.293000
  C    -50.665400   16.388300  -104.593000
  H    -51.191200   17.356100  -104.587000
  H    -49.817900   16.453500  -103.828000
  C    -51.545100   15.157000  -104.231000
  H    -51.831100   15.201000  -103.205000
  H    -50.922100   14.324600  -104.290000
  H    -52.440600   15.066900  -104.873000
  H    -52.993900   12.673900  -109.456000
  H    -45.871300   14.321700  -105.281000

 Total Charge           Charge          ....    0
 Multiplicity           Mult            ....    1
 Number of Electrons    NEL             ....  134
 Basis Dimension        Dim             ....  322

ORBITAL ENERGIES
----------------

  NO   OCC          E(Eh)            E(eV)
   0   2.0000     -88.973473     -2421.0913
   1   2.0000     -88.966202     -2420.8934
   2   2.0000     -10.327088      -281.0144
   3   2.0000     -10.324009      -280.9306
   4   2.0000     -10.320215      -280.8273
   5   2.0000     -10.305033      -280.4142
   6   2.0000     -10.304243      -280.3927
   7   2.0000     -10.302037      -280.3327
   8   2.0000     -10.293762      -280.1075
   9   2.0000     -10.293342      -280.0961
  10   2.0000     -10.290761      -280.0259
  11   2.0000     -10.289018      -279.9784
  12   2.0000     -10.286414      -279.9076
  13   2.0000     -10.286381      -279.9067
  14   2.0000     -10.283998      -279.8418
  15   2.0000     -10.268151      -279.4106
  16   2.0000      -8.087521      -220.0726
  17   2.0000      -8.081327      -219.9041
  18   2.0000      -6.045839      -164.5156
  19   2.0000      -6.041939      -164.4095
  20   2.0000      -6.039706      -164.3487
  21   2.0000      -6.038714      -164.3218
  22   2.0000      -6.035551      -164.2357
  23   2.0000      -6.032430      -164.1508
  24   2.0000      -1.007709       -27.4212
  25   2.0000      -0.984621       -26.7929
  26   2.0000      -0.908025       -24.7086
  27   2.0000      -0.905155       -24.6305
  28   2.0000      -0.871818       -23.7234
  29   2.0000      -0.846731       -23.0407
  30   2.0000      -0.844381       -22.9768
  31   2.0000      -0.813314       -22.1314
  32   2.0000      -0.785698       -21.3799
  33   2.0000      -0.771750       -21.0004
  34   2.0000      -0.710672       -19.3384
  35   2.0000      -0.696725       -18.9589
  36   2.0000      -0.690922       -18.8009
  37   2.0000      -0.658253       -17.9120
  38   2.0000      -0.640616       -17.4320
  39   2.0000      -0.622184       -16.9305
  40   2.0000      -0.599711       -16.3190
  41   2.0000      -0.568687       -15.4748
  42   2.0000      -0.548971       -14.9382
  43   2.0000      -0.544921       -14.8281
  44   2.0000      -0.536756       -14.6059
  45   2.0000      -0.534657       -14.5488
  46   2.0000      -0.518531       -14.1099
  47   2.0000      -0.511417       -13.9164
  48   2.0000      -0.504328       -13.7235
  49   2.0000      -0.491235       -13.3672
  50   2.0000      -0.483946       -13.1688
  51   2.0000      -0.477374       -12.9900
  52   2.0000      -0.473547       -12.8859
  53   2.0000      -0.465528       -12.6677
  54   2.0000      -0.456616       -12.4251
  55   2.0000      -0.447680       -12.1820
  56   2.0000      -0.439280       -11.9534
  57   2.0000      -0.438576       -11.9343
  58   2.0000      -0.437175       -11.8961
  59   2.0000      -0.427608       -11.6358
  60   2.0000      -0.418706       -11.3936
  61   2.0000      -0.411214       -11.1897
  62   2.0000      -0.410283       -11.1644
  63   2.0000      -0.343924        -9.3586
  64   2.0000      -0.333782        -9.0827
  65   2.0000      -0.319683        -8.6990
  66   2.0000      -0.296729        -8.0744
  67   0.0000       0.033514         0.9120
  68   0.0000       0.059869         1.6291
  69   0.0000       0.111662         3.0385
  70   0.0000       0.117926         3.2089
  71   0.0000       0.132553         3.6069

MULLIKEN ATOMIC CHARGES
-----------------------
   0 S :    0.140169
   1 C :   -0.105859
   2 C :   -0.133566
   3 C :    0.070920
   4 C :   -0.171795
   5 H :    0.002363
   6 C :    0.117753
   7 H :    0.006973
   8 H :    0.032591
   9 C :   -0.116255
  10 H :    0.033233
  11 H :    0.027071
  12 C :   -0.066664
  13 H :    0.039991
  14 H :    0.031641
  15 H :    0.060149
  16 S :    0.127104
  17 C :   -0.032192
  18 C :   -0.077397
  19 C :   -0.028376
  20 C :   -0.214497
  21 H :    0.014335
  22 C :    0.110289
  23 H :   -0.006570
  24 H :    0.022607
  25 C :   -0.089364
  26 H :    0.034096
  27 H :    0.032186
  28 C :   -0.002610
  29 H :    0.022334
  30 H :    0.018342
  31 H :    0.042239
  32 H :    0.048018
  33 H :    0.010741
Sum of atomic charges:   -0.0000000

LOEWDIN ATOMIC CHARGES
----------------------
   0 S :    0.428210
   1 C :   -0.219206
   2 C :   -0.065283
   3 C :   -0.046097
   4 C :   -0.198842
   5 H :    0.025417
   6 C :   -0.028647
   7 H :    0.028346
   8 H :    0.029673
   9 C :   -0.048615
  10 H :    0.025673
  11 H :    0.025238
  12 C :   -0.074651
  13 H :    0.030969
  14 H :    0.024895
  15 H :    0.035527
  16 S :    0.442439
  17 C :   -0.191538
  18 C :   -0.073461
  19 C :   -0.056539
  20 C :   -0.213060
  21 H :    0.029230
  22 C :   -0.035697
  23 H :    0.015766
  24 H :    0.038052
  25 C :   -0.038678
  26 H :    0.024265
  27 H :    0.029439
  28 C :   -0.056336
  29 H :    0.022958
  30 H :    0.017959
  31 H :    0.030713
  32 H :    0.028579
  33 H :    0.013301

  Mayer bond orders larger than 0.100000
B(  0-S ,  1-C ) :   1.1810 B(  0-S ,  4-C ) :   1.1382 B(  1-C ,  2-C ) :   1.5560
B(  1-C ,  4-C ) :   0.1062 B(  1-C , 32-H ) :   0.9588 B(  2-C ,  3-C ) :   1.2739
B(  2-C ,  6-C ) :   1.0208 B(  3-C ,  4-C ) :   1.5713 B(  3-C ,  5-H ) :   0.9878
B(  4-C , 20-C ) :   1.0222 B(  6-C ,  7-H ) :   0.9367 B(  6-C ,  8-H ) :   0.9424
B(  6-C ,  9-C ) :   1.0609 B(  9-C , 10-H ) :   0.9536 B(  9-C , 11-H ) :   0.9544
B(  9-C , 12-C ) :   1.0714 B( 12-C , 13-H ) :   0.9735 B( 12-C , 14-H ) :   0.9764
B( 12-C , 15-H ) :   0.9719 B( 16-S , 17-C ) :   1.1582 B( 16-S , 20-C ) :   1.1847
B( 17-C , 18-C ) :   1.5871 B( 17-C , 20-C ) :   0.1107 B( 17-C , 33-H ) :   0.9768
B( 18-C , 19-C ) :   1.2854 B( 18-C , 21-H ) :   0.9813 B( 19-C , 20-C ) :   1.5252
B( 19-C , 22-C ) :   1.0414 B( 22-C , 23-H ) :   0.9234 B( 22-C , 24-H ) :   0.9272
B( 22-C , 25-C ) :   1.0664 B( 25-C , 26-H ) :   0.9554 B( 25-C , 27-H ) :   0.9576
B( 25-C , 28-C ) :   1.0709 B( 28-C , 29-H ) :   0.9708 B( 28-C , 30-H ) :   0.9727
B( 28-C , 31-H ) :   0.9755

Dispersion correction           -0.015736205
FINAL SINGLE POINT ENERGY     -1339.871565461017

DIPOLE MOMENT
-------------
                                X             Y             Z
Electronic contribution:     14.45702       6.08823     -10.75670
Nuclear contribution   :    -14.80747      -6.05266      11.08738
                        -----------------------------------------
Total Dipole Moment    :     -0.35045       0.03557       0.33068
                        -----------------------------------------
Magnitude (a.u.)       :      0.48315
Magnitude (Debye)      :      1.22806

Rotational constants in cm-1:     0.019766     0.008927     0.007966
Rotational constants in MHz :   592.582011   267.614495   238.800413

                             ****ORCA TERMINATED NORMALLY****
TOTAL RUN TIME: 0 days 0 hours 0 minutes 21 seconds 155 msec
