                         Program Version 4.2.1 -  RELEASE  -
|  1> ! wB97X-D3 SP def2-SVP
|  2> %pal
|  3> nprocs 24
|  4> end
|  5>
|  6> * xyz 0 1
|  7> S 	 -105.286 	 58.9878 	 -100.165
|  8> C 	 -106.385 	 59.0748 	 -101.507
|  9> C 	 -107.655 	 59.4366 	 -101.177
| 10> C 	 -107.789 	 59.6311 	 -99.7368
| 11> C 	 -106.579 	 59.6221 	 -99.076
| 12> H 	 -108.676 	 59.8366 	 -99.0758
| 13> C 	 -108.811 	 59.5339 	 -102.107
| 14> H 	 -109.534 	 58.6266 	 -101.978
| 15> H 	 -108.388 	 59.3588 	 -103.116
| 16> C 	 -109.593 	 60.8987 	 -102.038
| 17> H 	 -110.357 	 60.9496 	 -102.739
| 18> H 	 -110.129 	 61.0256 	 -101.058
| 19> C 	 -108.651 	 62.0699 	 -102.26
| 20> H 	 -108.297 	 62.1609 	 -103.272
| 21> H 	 -109.256 	 62.9737 	 -102.022
| 22> H 	 -107.756 	 62.1676 	 -101.522
| 23> S 	 -105.801 	 58.5047 	 -96.7304
| 24> C 	 -105.91 	 59.4953 	 -95.2527
| 25> C 	 -106.621 	 60.7035 	 -95.419
| 26> C 	 -106.941 	 60.8716 	 -96.8153
| 27> C 	 -106.462 	 59.8705 	 -97.6454
| 28> H 	 -106.862 	 61.4077 	 -94.5813
| 29> C 	 -107.499 	 62.1971 	 -97.3352
| 30> H 	 -107.831 	 62.2221 	 -98.415
| 31> H 	 -106.774 	 62.9582 	 -97.0783
| 32> C 	 -108.761 	 62.6068 	 -96.6003
| 33> H 	 -109.151 	 63.568 	 -96.9768
| 34> H 	 -108.543 	 62.8476 	 -95.5657
| 35> C 	 -109.807 	 61.521 	 -96.5248
| 36> H 	 -110.811 	 61.9284 	 -96.3593
| 37> H 	 -109.469 	 60.9244 	 -95.6991
| 38> H 	 -109.844 	 60.9662 	 -97.4382
| 39> H 	 -106.048 	 58.9892 	 -102.567
| 40> H 	 -105.682 	 59.097 	 -94.3055
| 41> *
| 42>
| 43>                          ****END OF INPUT****

CARTESIAN COORDINATES (ANGSTROEM)
---------------------------------
  S    -105.286000   58.987800  -100.165000
  C    -106.385000   59.074800  -101.507000
  C    -107.655000   59.436600  -101.177000
  C    -107.789000   59.631100  -99.736800
  C    -106.579000   59.622100  -99.076000
  H    -108.676000   59.836600  -99.075800
  C    -108.811000   59.533900  -102.107000
  H    -109.534000   58.626600  -101.978000
  H    -108.388000   59.358800  -103.116000
  C    -109.593000   60.898700  -102.038000
  H    -110.357000   60.949600  -102.739000
  H    -110.129000   61.025600  -101.058000
  C    -108.651000   62.069900  -102.260000
  H    -108.297000   62.160900  -103.272000
  H    -109.256000   62.973700  -102.022000
  H    -107.756000   62.167600  -101.522000
  S    -105.801000   58.504700  -96.730400
  C    -105.910000   59.495300  -95.252700
  C    -106.621000   60.703500  -95.419000
  C    -106.941000   60.871600  -96.815300
  C    -106.462000   59.870500  -97.645400
  H    -106.862000   61.407700  -94.581300
  C    -107.499000   62.197100  -97.335200
  H    -107.831000   62.222100  -98.415000
  H    -106.774000   62.958200  -97.078300
  C    -108.761000   62.606800  -96.600300
  H    -109.151000   63.568000  -96.976800
  H    -108.543000   62.847600  -95.565700
  C    -109.807000   61.521000  -96.524800
  H    -110.811000   61.928400  -96.359300
  H    -109.469000   60.924400  -95.699100
  H    -109.844000   60.966200  -97.438200
  H    -106.048000   58.989200  -102.567000
  H    -105.682000   59.097000  -94.305500

 Total Charge           Charge          ....    0
 Multiplicity           Mult            ....    1
 Number of Electrons    NEL             ....  134
 Basis Dimension        Dim             ....  322

ORBITAL ENERGIES
----------------

  NO   OCC          E(Eh)            E(eV)
   0   2.0000     -88.966481     -2420.9010
   1   2.0000     -88.966268     -2420.8952
   2   2.0000     -10.330542      -281.1083
   3   2.0000     -10.327909      -281.0367
   4   2.0000     -10.322849      -280.8990
   5   2.0000     -10.315303      -280.6937
   6   2.0000     -10.308807      -280.5169
   7   2.0000     -10.307879      -280.4917
   8   2.0000     -10.301980      -280.3311
   9   2.0000     -10.301361      -280.3143
  10   2.0000     -10.298966      -280.2491
  11   2.0000     -10.292994      -280.0866
  12   2.0000     -10.290202      -280.0106
  13   2.0000     -10.282288      -279.7953
  14   2.0000     -10.280308      -279.7414
  15   2.0000     -10.270583      -279.4768
  16   2.0000      -8.080626      -219.8850
  17   2.0000      -8.080442      -219.8800
  18   2.0000      -6.039168      -164.3341
  19   2.0000      -6.039139      -164.3333
  20   2.0000      -6.035384      -164.2311
  21   2.0000      -6.035189      -164.2259
  22   2.0000      -6.031226      -164.1180
  23   2.0000      -6.030865      -164.1082
  24   2.0000      -1.001815       -27.2608
  25   2.0000      -0.979519       -26.6541
  26   2.0000      -0.916061       -24.9273
  27   2.0000      -0.907978       -24.7074
  28   2.0000      -0.870196       -23.6792
  29   2.0000      -0.848528       -23.0896
  30   2.0000      -0.843005       -22.9393
  31   2.0000      -0.812866       -22.1192
  32   2.0000      -0.782186       -21.2844
  33   2.0000      -0.768437       -20.9102
  34   2.0000      -0.707568       -19.2539
  35   2.0000      -0.694121       -18.8880
  36   2.0000      -0.690527       -18.7902
  37   2.0000      -0.660005       -17.9596
  38   2.0000      -0.637647       -17.3513
  39   2.0000      -0.613720       -16.7002
  40   2.0000      -0.598466       -16.2851
  41   2.0000      -0.561731       -15.2855
  42   2.0000      -0.558936       -15.2094
  43   2.0000      -0.548145       -14.9158
  44   2.0000      -0.544020       -14.8035
  45   2.0000      -0.539442       -14.6790
  46   2.0000      -0.519517       -14.1368
  47   2.0000      -0.511532       -13.9195
  48   2.0000      -0.494599       -13.4587
  49   2.0000      -0.491839       -13.3836
  50   2.0000      -0.486848       -13.2478
  51   2.0000      -0.481688       -13.1074
  52   2.0000      -0.472295       -12.8518
  53   2.0000      -0.465113       -12.6564
  54   2.0000      -0.451396       -12.2831
  55   2.0000      -0.449725       -12.2377
  56   2.0000      -0.445297       -12.1171
  57   2.0000      -0.432184       -11.7603
  58   2.0000      -0.429597       -11.6899
  59   2.0000      -0.423864       -11.5339
  60   2.0000      -0.420583       -11.4446
  61   2.0000      -0.418015       -11.3748
  62   2.0000      -0.411422       -11.1954
  63   2.0000      -0.347452        -9.4546
  64   2.0000      -0.332270        -9.0415
  65   2.0000      -0.326082        -8.8732
  66   2.0000      -0.292994        -7.9728
  67   0.0000       0.027710         0.7540
  68   0.0000       0.065891         1.7930
  69   0.0000       0.097375         2.6497
  70   0.0000       0.120280         3.2730
  71   0.0000       0.123765         3.3678

MULLIKEN ATOMIC CHARGES
-----------------------
   0 S :    0.104841
   1 C :   -0.126902
   2 C :   -0.082435
   3 C :    0.010267
   4 C :   -0.156291
   5 H :    0.033946
   6 C :    0.040618
   7 H :    0.058216
   8 H :    0.013004
   9 C :   -0.042869
  10 H :    0.016294
  11 H :    0.033874
  12 C :   -0.095866
  13 H :    0.035071
  14 H :    0.030535
  15 H :    0.063930
  16 S :    0.095776
  17 C :   -0.068329
  18 C :   -0.057974
  19 C :   -0.055093
  20 C :   -0.153438
  21 H :    0.050077
  22 C :    0.074103
  23 H :    0.047144
  24 H :    0.041092
  25 C :   -0.124736
  26 H :    0.025238
  27 H :    0.009252
  28 C :   -0.009418
  29 H :    0.033999
  30 H :    0.035928
  31 H :    0.014086
  32 H :    0.063557
  33 H :    0.042503
Sum of atomic charges:   -0.0000000

LOEWDIN ATOMIC CHARGES
----------------------
   0 S :    0.377885
   1 C :   -0.201083
   2 C :   -0.071449
   3 C :   -0.059559
   4 C :   -0.182748
   5 H :    0.039861
   6 C :   -0.040351
   7 H :    0.044347
   8 H :    0.028460
   9 C :   -0.039444
  10 H :    0.016515
  11 H :    0.028656
  12 C :   -0.075219
  13 H :    0.021144
  14 H :    0.028703
  15 H :    0.038390
  16 S :    0.384446
  17 C :   -0.160074
  18 C :   -0.072244
  19 C :   -0.058114
  20 C :   -0.187470
  21 H :    0.044562
  22 C :   -0.030036
  23 H :    0.037881
  24 H :    0.035616
  25 C :   -0.049649
  26 H :    0.021784
  27 H :    0.013573
  28 C :   -0.060357
  29 H :    0.029072
  30 H :    0.028200
  31 H :    0.015324
  32 H :    0.038008
  33 H :    0.015369

  Mayer bond orders larger than 0.100000
B(  0-S ,  1-C ) :   1.1206 B(  0-S ,  4-C ) :   1.1173 B(  1-C ,  2-C ) :   1.6625
B(  1-C , 32-H ) :   0.9511 B(  2-C ,  3-C ) :   1.1713 B(  2-C ,  6-C ) :   1.0345
B(  3-C ,  4-C ) :   1.6213 B(  3-C ,  5-H ) :   0.9815 B(  4-C , 20-C ) :   1.0476
B(  6-C ,  7-H ) :   0.9381 B(  6-C ,  8-H ) :   0.9397 B(  6-C ,  9-C ) :   1.0563
B(  9-C , 10-H ) :   0.9547 B(  9-C , 11-H ) :   0.9558 B(  9-C , 12-C ) :   1.0772
B( 12-C , 13-H ) :   0.9764 B( 12-C , 14-H ) :   0.9724 B( 12-C , 15-H ) :   0.9686
B( 16-S , 17-C ) :   1.1512 B( 16-S , 20-C ) :   1.1287 B( 17-C , 18-C ) :   1.6216
B( 17-C , 33-H ) :   0.9715 B( 18-C , 19-C ) :   1.2093 B( 18-C , 21-H ) :   0.9806
B( 19-C , 20-C ) :   1.6310 B( 19-C , 22-C ) :   1.0341 B( 22-C , 23-H ) :   0.9419
B( 22-C , 24-H ) :   0.9396 B( 22-C , 25-C ) :   1.0682 B( 25-C , 26-H ) :   0.9587
B( 25-C , 27-H ) :   0.9535 B( 25-C , 28-C ) :   1.0721 B( 28-C , 29-H ) :   0.9696
B( 28-C , 30-H ) :   0.9671 B( 28-C , 31-H ) :   0.9768

Dispersion correction           -0.015830534
FINAL SINGLE POINT ENERGY     -1339.871338900923

DIPOLE MOMENT
-------------
                                X             Y             Z
Electronic contribution:     21.96941     -18.10140       5.94668
Nuclear contribution   :    -22.57818      18.55137      -5.97416
                        -----------------------------------------
Total Dipole Moment    :     -0.60877       0.44997      -0.02747
                        -----------------------------------------
Magnitude (a.u.)       :      0.75752
Magnitude (Debye)      :      1.92545

Rotational constants in cm-1:     0.018290     0.010491     0.007364
Rotational constants in MHz :   548.313139   314.526120   220.769047

                             ****ORCA TERMINATED NORMALLY****
TOTAL RUN TIME: 0 days 0 hours 0 minutes 23 seconds 145 msec
