                         Program Version 4.2.1 -  RELEASE  -
|  1> ! wB97X-D3 SP def2-SVP
|  2> %pal
|  3> nprocs 24
|  4> end
|  5>
|  6> * xyz 0 1
|  7> S 	 -55.3261 	 -0.247176 	 -30.7975
|  8> C 	 -54.6502 	 1.30381 	 -31.1194
|  9> C 	 -54.6757 	 2.10861 	 -29.9526
| 10> C 	 -55.3167 	 1.48171 	 -28.81
| 11> C 	 -55.8423 	 0.22696 	 -29.1239
| 12> H 	 -55.446 	 1.90702 	 -27.762
| 13> C 	 -54.2675 	 3.54397 	 -29.939
| 14> H 	 -54.6887 	 3.91876 	 -30.8694
| 15> H 	 -53.2053 	 3.51318 	 -30.0406
| 16> C 	 -54.752 	 4.42858 	 -28.7752
| 17> H 	 -55.832 	 4.43003 	 -28.7286
| 18> H 	 -54.3371 	 3.89923 	 -27.8306
| 19> C 	 -54.1735 	 5.81371 	 -28.7685
| 20> H 	 -54.7692 	 6.46888 	 -28.0816
| 21> H 	 -53.1673 	 5.78213 	 -28.4855
| 22> H 	 -54.1983 	 6.31918 	 -29.8598
| 23> S 	 -58.0276 	 -1.34042 	 -28.8601
| 24> C 	 -58.2474 	 -2.27289 	 -27.4004
| 25> C 	 -57.0859 	 -2.21135 	 -26.6091
| 26> C 	 -56.1335 	 -1.27886 	 -27.0582
| 27> C 	 -56.5434 	 -0.681287 	 -28.2448
| 28> H 	 -57.1049 	 -2.92726 	 -25.7554
| 29> C 	 -54.994 	 -0.912602 	 -26.1885
| 30> H 	 -54.7348 	 0.123595 	 -26.3509
| 31> H 	 -54.0315 	 -1.44689 	 -26.4328
| 32> C 	 -55.2404 	 -1.16684 	 -24.7211
| 33> H 	 -55.3321 	 -2.28029 	 -24.4985
| 34> H 	 -56.1574 	 -0.682027 	 -24.4127
| 35> C 	 -54.1363 	 -0.547889 	 -23.7308
| 36> H 	 -54.1689 	 0.474801 	 -24.0196
| 37> H 	 -53.1729 	 -0.893204 	 -24.0934
| 38> H 	 -54.2568 	 -0.782455 	 -22.647
| 39> H 	 -54.2212 	 1.5718 	 -31.9853
| 40> H 	 -59.0773 	 -3.00904 	 -27.3588
| 41> *
| 42>
| 43>                          ****END OF INPUT****

CARTESIAN COORDINATES (ANGSTROEM)
---------------------------------
  S    -55.326100   -0.247176  -30.797500
  C    -54.650200    1.303810  -31.119400
  C    -54.675700    2.108610  -29.952600
  C    -55.316700    1.481710  -28.810000
  C    -55.842300    0.226960  -29.123900
  H    -55.446000    1.907020  -27.762000
  C    -54.267500    3.543970  -29.939000
  H    -54.688700    3.918760  -30.869400
  H    -53.205300    3.513180  -30.040600
  C    -54.752000    4.428580  -28.775200
  H    -55.832000    4.430030  -28.728600
  H    -54.337100    3.899230  -27.830600
  C    -54.173500    5.813710  -28.768500
  H    -54.769200    6.468880  -28.081600
  H    -53.167300    5.782130  -28.485500
  H    -54.198300    6.319180  -29.859800
  S    -58.027600   -1.340420  -28.860100
  C    -58.247400   -2.272890  -27.400400
  C    -57.085900   -2.211350  -26.609100
  C    -56.133500   -1.278860  -27.058200
  C    -56.543400   -0.681287  -28.244800
  H    -57.104900   -2.927260  -25.755400
  C    -54.994000   -0.912602  -26.188500
  H    -54.734800    0.123595  -26.350900
  H    -54.031500   -1.446890  -26.432800
  C    -55.240400   -1.166840  -24.721100
  H    -55.332100   -2.280290  -24.498500
  H    -56.157400   -0.682027  -24.412700
  C    -54.136300   -0.547889  -23.730800
  H    -54.168900    0.474801  -24.019600
  H    -53.172900   -0.893204  -24.093400
  H    -54.256800   -0.782455  -22.647000
  H    -54.221200    1.571800  -31.985300
  H    -59.077300   -3.009040  -27.358800

 Total Charge           Charge          ....    0
 Multiplicity           Mult            ....    1
 Number of Electrons    NEL             ....  134
 Basis Dimension        Dim             ....  322

ORBITAL ENERGIES
----------------

  NO   OCC          E(Eh)            E(eV)
   0   2.0000     -88.965553     -2420.8758
   1   2.0000     -88.965068     -2420.8626
   2   2.0000     -10.331938      -281.1463
   3   2.0000     -10.324372      -280.9404
   4   2.0000     -10.319548      -280.8092
   5   2.0000     -10.306004      -280.4406
   6   2.0000     -10.304276      -280.3936
   7   2.0000     -10.303634      -280.3761
   8   2.0000     -10.302147      -280.3357
   9   2.0000     -10.297536      -280.2102
  10   2.0000     -10.293818      -280.1090
  11   2.0000     -10.293065      -280.0885
  12   2.0000     -10.291621      -280.0492
  13   2.0000     -10.288170      -279.9553
  14   2.0000     -10.286141      -279.9001
  15   2.0000     -10.282626      -279.8045
  16   2.0000      -8.080276      -219.8755
  17   2.0000      -8.079445      -219.8529
  18   2.0000      -6.038539      -164.3170
  19   2.0000      -6.037970      -164.3015
  20   2.0000      -6.034659      -164.2114
  21   2.0000      -6.034000      -164.1935
  22   2.0000      -6.031313      -164.1204
  23   2.0000      -6.030311      -164.0931
  24   2.0000      -1.005857       -27.3708
  25   2.0000      -0.979294       -26.6479
  26   2.0000      -0.914844       -24.8942
  27   2.0000      -0.911862       -24.8130
  28   2.0000      -0.870496       -23.6874
  29   2.0000      -0.850239       -23.1362
  30   2.0000      -0.845796       -23.0153
  31   2.0000      -0.814192       -22.1553
  32   2.0000      -0.781643       -21.2696
  33   2.0000      -0.765439       -20.8287
  34   2.0000      -0.709875       -19.3167
  35   2.0000      -0.701031       -19.0760
  36   2.0000      -0.690245       -18.7825
  37   2.0000      -0.649575       -17.6758
  38   2.0000      -0.639956       -17.4141
  39   2.0000      -0.617694       -16.8083
  40   2.0000      -0.600403       -16.3378
  41   2.0000      -0.575843       -15.6695
  42   2.0000      -0.569604       -15.4997
  43   2.0000      -0.559761       -15.2319
  44   2.0000      -0.533330       -14.5127
  45   2.0000      -0.524609       -14.2753
  46   2.0000      -0.518896       -14.1199
  47   2.0000      -0.509126       -13.8540
  48   2.0000      -0.503578       -13.7031
  49   2.0000      -0.498589       -13.5673
  50   2.0000      -0.493252       -13.4221
  51   2.0000      -0.475293       -12.9334
  52   2.0000      -0.468096       -12.7375
  53   2.0000      -0.465017       -12.6538
  54   2.0000      -0.461529       -12.5588
  55   2.0000      -0.448791       -12.2122
  56   2.0000      -0.447094       -12.1661
  57   2.0000      -0.436923       -11.8893
  58   2.0000      -0.433571       -11.7981
  59   2.0000      -0.422767       -11.5041
  60   2.0000      -0.417791       -11.3687
  61   2.0000      -0.415368       -11.3027
  62   2.0000      -0.408393       -11.1129
  63   2.0000      -0.343701        -9.3526
  64   2.0000      -0.332129        -9.0377
  65   2.0000      -0.323368        -8.7993
  66   2.0000      -0.287959        -7.8358
  67   0.0000       0.027706         0.7539
  68   0.0000       0.061113         1.6630
  69   0.0000       0.115378         3.1396
  70   0.0000       0.120122         3.2687
  71   0.0000       0.127133         3.4595

MULLIKEN ATOMIC CHARGES
-----------------------
   0 S :    0.114208
   1 C :   -0.072795
   2 C :   -0.109846
   3 C :   -0.006733
   4 C :   -0.141523
   5 H :    0.051716
   6 C :    0.070360
   7 H :    0.028669
   8 H :    0.030548
   9 C :   -0.110313
  10 H :    0.040296
  11 H :    0.039129
  12 C :   -0.045993
  13 H :    0.045481
  14 H :    0.027859
  15 H :    0.038873
  16 S :    0.113253
  17 C :   -0.116790
  18 C :   -0.070523
  19 C :    0.021508
  20 C :   -0.199390
  21 H :    0.039610
  22 C :    0.099678
  23 H :    0.001132
  24 H :    0.041088
  25 C :   -0.153598
  26 H :    0.045145
  27 H :    0.035226
  28 C :   -0.025619
  29 H :    0.021205
  30 H :    0.018490
  31 H :    0.059100
  32 H :   -0.001701
  33 H :    0.072249
Sum of atomic charges:    0.0000000

LOEWDIN ATOMIC CHARGES
----------------------
   0 S :    0.395995
   1 C :   -0.195284
   2 C :   -0.056609
   3 C :   -0.074756
   4 C :   -0.180264
   5 H :    0.044650
   6 C :   -0.038733
   7 H :    0.033772
   8 H :    0.030594
   9 C :   -0.047828
  10 H :    0.024230
  11 H :    0.031410
  12 C :   -0.067460
  13 H :    0.033197
  14 H :    0.016313
  15 H :    0.035526
  16 S :    0.422943
  17 C :   -0.196460
  18 C :   -0.073160
  19 C :   -0.053447
  20 C :   -0.208676
  21 H :    0.041040
  22 C :   -0.037135
  23 H :    0.026694
  24 H :    0.042877
  25 C :   -0.042735
  26 H :    0.025769
  27 H :    0.020326
  28 C :   -0.063659
  29 H :    0.019647
  30 H :    0.020110
  31 H :    0.035294
  32 H :    0.002623
  33 H :    0.033199

  Mayer bond orders larger than 0.100000
B(  0-S ,  1-C ) :   1.1409 B(  0-S ,  4-C ) :   1.1463 B(  1-C ,  2-C ) :   1.5884
B(  1-C ,  4-C ) :   0.1062 B(  1-C , 32-H ) :   0.9895 B(  2-C ,  3-C ) :   1.2503
B(  2-C ,  6-C ) :   1.0048 B(  3-C ,  4-C ) :   1.5696 B(  3-C ,  5-H ) :   0.9701
B(  4-C , 20-C ) :   1.0579 B(  6-C ,  7-H ) :   0.9388 B(  6-C ,  8-H ) :   0.9291
B(  6-C ,  9-C ) :   1.0899 B(  9-C , 10-H ) :   0.9554 B(  9-C , 11-H ) :   0.9439
B(  9-C , 12-C ) :   1.0823 B( 12-C , 13-H ) :   0.9715 B( 12-C , 14-H ) :   0.9748
B( 12-C , 15-H ) :   0.9711 B( 16-S , 17-C ) :   1.1711 B( 16-S , 20-C ) :   1.1655
B( 17-C , 18-C ) :   1.5776 B( 17-C , 20-C ) :   0.1084 B( 17-C , 33-H ) :   0.9626
B( 18-C , 19-C ) :   1.2588 B( 18-C , 21-H ) :   0.9817 B( 19-C , 20-C ) :   1.5484
B( 19-C , 22-C ) :   1.0447 B( 22-C , 23-H ) :   0.9348 B( 22-C , 24-H ) :   0.9052
B( 22-C , 25-C ) :   1.0823 B( 25-C , 26-H ) :   0.9423 B( 25-C , 27-H ) :   0.9613
B( 25-C , 28-C ) :   1.0635 B( 28-C , 29-H ) :   0.9763 B( 28-C , 30-H ) :   0.9755
B( 28-C , 31-H ) :   0.9759

Dispersion correction           -0.013403950
FINAL SINGLE POINT ENERGY     -1339.859152268263

DIPOLE MOMENT
-------------
                                X             Y             Z
Electronic contribution:    -13.73397     -18.24031     -19.15722
Nuclear contribution   :     14.03999      18.49581      19.60002
                        -----------------------------------------
Total Dipole Moment    :      0.30602       0.25550       0.44280
                        -----------------------------------------
Magnitude (a.u.)       :      0.59582
Magnitude (Debye)      :      1.51445

Rotational constants in cm-1:     0.016124     0.008611     0.006382
Rotational constants in MHz :   483.385803   258.156957   191.340702

                             ****ORCA TERMINATED NORMALLY****
TOTAL RUN TIME: 0 days 0 hours 0 minutes 19 seconds 959 msec
