                         Program Version 4.2.1 -  RELEASE  -
|  1> ! wB97X-D3 SP def2-SVP
|  2> %pal
|  3> nprocs 24
|  4> end
|  5>
|  6> * xyz 0 1
|  7> S 	 -50.5089 	 -48.8841 	 -78.366
|  8> C 	 -49.4687 	 -49.1747 	 -79.7688
|  9> C 	 -49.8394 	 -50.3285 	 -80.5293
| 10> C 	 -50.8133 	 -51.0985 	 -79.8071
| 11> C 	 -51.2534 	 -50.4202 	 -78.6736
| 12> H 	 -51.2672 	 -52.0642 	 -80.0697
| 13> C 	 -49.3228 	 -50.7769 	 -81.8959
| 14> H 	 -49.1455 	 -51.8288 	 -81.7456
| 15> H 	 -48.3464 	 -50.2997 	 -82.146
| 16> C 	 -50.324 	 -50.6679 	 -83.048
| 17> H 	 -50.0988 	 -51.2673 	 -83.9865
| 18> H 	 -51.2901 	 -51.0472 	 -82.5993
| 19> C 	 -50.5316 	 -49.1815 	 -83.3949
| 20> H 	 -50.8605 	 -48.6496 	 -82.4759
| 21> H 	 -49.708 	 -48.671 	 -83.8858
| 22> H 	 -51.37 	 -49.0322 	 -84.1301
| 23> S 	 -51.7187 	 -52.4515 	 -76.7769
| 24> C 	 -53.3804 	 -52.6905 	 -76.399
| 25> C 	 -54.2232 	 -51.6416 	 -76.7956
| 26> C 	 -53.5694 	 -50.6978 	 -77.6611
| 27> C 	 -52.2204 	 -51.0407 	 -77.7518
| 28> H 	 -55.2793 	 -51.8347 	 -76.5886
| 29> C 	 -54.3706 	 -49.6529 	 -78.436
| 30> H 	 -55.0152 	 -50.2536 	 -79.0468
| 31> H 	 -53.7844 	 -49.094 	 -79.1451
| 32> C 	 -55.2811 	 -48.5975 	 -77.7327
| 33> H 	 -54.6116 	 -48.0674 	 -76.9652
| 34> H 	 -56.0344 	 -49.171 	 -77.2152
| 35> C 	 -55.8257 	 -47.4486 	 -78.584
| 36> H 	 -56.5718 	 -47.7644 	 -79.393
| 37> H 	 -55.1046 	 -46.8052 	 -79.0289
| 38> H 	 -56.4113 	 -46.7564 	 -77.9768
| 39> H 	 -48.6953 	 -48.5206 	 -80.1954
| 40> H 	 -53.7693 	 -53.5466 	 -75.8827
| 41> *
| 42>
| 43>                          ****END OF INPUT****

CARTESIAN COORDINATES (ANGSTROEM)
---------------------------------
  S    -50.508900  -48.884100  -78.366000
  C    -49.468700  -49.174700  -79.768800
  C    -49.839400  -50.328500  -80.529300
  C    -50.813300  -51.098500  -79.807100
  C    -51.253400  -50.420200  -78.673600
  H    -51.267200  -52.064200  -80.069700
  C    -49.322800  -50.776900  -81.895900
  H    -49.145500  -51.828800  -81.745600
  H    -48.346400  -50.299700  -82.146000
  C    -50.324000  -50.667900  -83.048000
  H    -50.098800  -51.267300  -83.986500
  H    -51.290100  -51.047200  -82.599300
  C    -50.531600  -49.181500  -83.394900
  H    -50.860500  -48.649600  -82.475900
  H    -49.708000  -48.671000  -83.885800
  H    -51.370000  -49.032200  -84.130100
  S    -51.718700  -52.451500  -76.776900
  C    -53.380400  -52.690500  -76.399000
  C    -54.223200  -51.641600  -76.795600
  C    -53.569400  -50.697800  -77.661100
  C    -52.220400  -51.040700  -77.751800
  H    -55.279300  -51.834700  -76.588600
  C    -54.370600  -49.652900  -78.436000
  H    -55.015200  -50.253600  -79.046800
  H    -53.784400  -49.094000  -79.145100
  C    -55.281100  -48.597500  -77.732700
  H    -54.611600  -48.067400  -76.965200
  H    -56.034400  -49.171000  -77.215200
  C    -55.825700  -47.448600  -78.584000
  H    -56.571800  -47.764400  -79.393000
  H    -55.104600  -46.805200  -79.028900
  H    -56.411300  -46.756400  -77.976800
  H    -48.695300  -48.520600  -80.195400
  H    -53.769300  -53.546600  -75.882700

 Total Charge           Charge          ....    0
 Multiplicity           Mult            ....    1
 Number of Electrons    NEL             ....  134
 Basis Dimension        Dim             ....  322

ORBITAL ENERGIES
----------------

  NO   OCC          E(Eh)            E(eV)
   0   2.0000     -88.974204     -2421.1112
   1   2.0000     -88.969074     -2420.9716
   2   2.0000     -10.325198      -280.9629
   3   2.0000     -10.324517      -280.9444
   4   2.0000     -10.319335      -280.8034
   5   2.0000     -10.313992      -280.6580
   6   2.0000     -10.309452      -280.5345
   7   2.0000     -10.308171      -280.4996
   8   2.0000     -10.297130      -280.1992
   9   2.0000     -10.295725      -280.1609
  10   2.0000     -10.295204      -280.1467
  11   2.0000     -10.294707      -280.1332
  12   2.0000     -10.294268      -280.1213
  13   2.0000     -10.290743      -280.0254
  14   2.0000     -10.284092      -279.8444
  15   2.0000     -10.278061      -279.6803
  16   2.0000      -8.088107      -220.0886
  17   2.0000      -8.083595      -219.9658
  18   2.0000      -6.046518      -164.5341
  19   2.0000      -6.042854      -164.4344
  20   2.0000      -6.041905      -164.4086
  21   2.0000      -6.038915      -164.3272
  22   2.0000      -6.038365      -164.3123
  23   2.0000      -6.034353      -164.2031
  24   2.0000      -1.000973       -27.2378
  25   2.0000      -0.978198       -26.6181
  26   2.0000      -0.910540       -24.7771
  27   2.0000      -0.904421       -24.6105
  28   2.0000      -0.859113       -23.3777
  29   2.0000      -0.852499       -23.1977
  30   2.0000      -0.846662       -23.0389
  31   2.0000      -0.803982       -21.8775
  32   2.0000      -0.785999       -21.3881
  33   2.0000      -0.770982       -20.9795
  34   2.0000      -0.701953       -19.1011
  35   2.0000      -0.694467       -18.8974
  36   2.0000      -0.687363       -18.7041
  37   2.0000      -0.653623       -17.7860
  38   2.0000      -0.633179       -17.2297
  39   2.0000      -0.614720       -16.7274
  40   2.0000      -0.596108       -16.2209
  41   2.0000      -0.565097       -15.3771
  42   2.0000      -0.563323       -15.3288
  43   2.0000      -0.546310       -14.8659
  44   2.0000      -0.538497       -14.6533
  45   2.0000      -0.518013       -14.0959
  46   2.0000      -0.512654       -13.9500
  47   2.0000      -0.506881       -13.7929
  48   2.0000      -0.499541       -13.5932
  49   2.0000      -0.489749       -13.3268
  50   2.0000      -0.479500       -13.0479
  51   2.0000      -0.478334       -13.0161
  52   2.0000      -0.470869       -12.8130
  53   2.0000      -0.461430       -12.5562
  54   2.0000      -0.456738       -12.4285
  55   2.0000      -0.452707       -12.3188
  56   2.0000      -0.448794       -12.2123
  57   2.0000      -0.440516       -11.9870
  58   2.0000      -0.431492       -11.7415
  59   2.0000      -0.424610       -11.5542
  60   2.0000      -0.421582       -11.4718
  61   2.0000      -0.416678       -11.3384
  62   2.0000      -0.412282       -11.2188
  63   2.0000      -0.338132        -9.2011
  64   2.0000      -0.329834        -8.9752
  65   2.0000      -0.320767        -8.7285
  66   2.0000      -0.297972        -8.1082
  67   0.0000       0.038148         1.0381
  68   0.0000       0.059152         1.6096
  69   0.0000       0.104120         2.8332
  70   0.0000       0.108765         2.9597
  71   0.0000       0.125706         3.4206

MULLIKEN ATOMIC CHARGES
-----------------------
   0 S :    0.139478
   1 C :   -0.121139
   2 C :   -0.120269
   3 C :    0.018460
   4 C :   -0.181837
   5 H :    0.030030
   6 C :    0.086271
   7 H :    0.027882
   8 H :    0.026596
   9 C :   -0.088866
  10 H :    0.050938
  11 H :    0.034618
  12 C :   -0.083118
  13 H :    0.046604
  14 H :    0.032026
  15 H :    0.030575
  16 S :    0.134125
  17 C :   -0.112022
  18 C :   -0.041427
  19 C :    0.009293
  20 C :   -0.198931
  21 H :    0.025884
  22 C :    0.093681
  23 H :    0.023110
  24 H :    0.010001
  25 C :   -0.086203
  26 H :    0.041088
  27 H :    0.030922
  28 C :   -0.057057
  29 H :    0.036338
  30 H :    0.032265
  31 H :    0.031274
  32 H :    0.049484
  33 H :    0.049928
Sum of atomic charges:   -0.0000000

LOEWDIN ATOMIC CHARGES
----------------------
   0 S :    0.416191
   1 C :   -0.206743
   2 C :   -0.056720
   3 C :   -0.061875
   4 C :   -0.204093
   5 H :    0.037480
   6 C :   -0.035111
   7 H :    0.031431
   8 H :    0.030619
   9 C :   -0.046635
  10 H :    0.032501
  11 H :    0.030543
  12 C :   -0.077775
  13 H :    0.030887
  14 H :    0.021053
  15 H :    0.027136
  16 S :    0.405972
  17 C :   -0.191874
  18 C :   -0.076487
  19 C :   -0.045959
  20 C :   -0.196993
  21 H :    0.032981
  22 C :   -0.031774
  23 H :    0.031386
  24 H :    0.023881
  25 C :   -0.040159
  26 H :    0.034738
  27 H :    0.019885
  28 C :   -0.071114
  29 H :    0.030592
  30 H :    0.022671
  31 H :    0.030265
  32 H :    0.029475
  33 H :    0.023623

  Mayer bond orders larger than 0.100000
B(  0-S ,  1-C ) :   1.1376 B(  0-S ,  4-C ) :   1.1539 B(  1-C ,  2-C ) :   1.6086
B(  1-C , 32-H ) :   0.9612 B(  2-C ,  3-C ) :   1.2287 B(  2-C ,  6-C ) :   1.0231
B(  3-C ,  4-C ) :   1.5861 B(  3-C ,  5-H ) :   0.9844 B(  4-C , 20-C ) :   1.0169
B(  6-C ,  7-H ) :   0.9342 B(  6-C ,  8-H ) :   0.9435 B(  6-C ,  9-C ) :   1.0624
B(  9-C , 10-H ) :   0.9579 B(  9-C , 11-H ) :   0.9533 B(  9-C , 12-C ) :   1.0700
B( 12-C , 13-H ) :   0.9742 B( 12-C , 14-H ) :   0.9766 B( 12-C , 15-H ) :   0.9741
B( 16-S , 17-C ) :   1.1551 B( 16-S , 20-C ) :   1.1349 B( 17-C , 18-C ) :   1.6425
B( 17-C , 33-H ) :   0.9661 B( 18-C , 19-C ) :   1.2074 B( 18-C , 21-H ) :   0.9839
B( 19-C , 20-C ) :   1.6181 B( 19-C , 22-C ) :   1.0406 B( 22-C , 23-H ) :   0.9301
B( 22-C , 24-H ) :   0.9326 B( 22-C , 25-C ) :   1.0518 B( 25-C , 26-H ) :   0.9565
B( 25-C , 27-H ) :   0.9562 B( 25-C , 28-C ) :   1.0892 B( 28-C , 29-H ) :   0.9735
B( 28-C , 30-H ) :   0.9725 B( 28-C , 31-H ) :   0.9719

Dispersion correction           -0.014362328
FINAL SINGLE POINT ENERGY     -1339.870041805419

DIPOLE MOMENT
-------------
                                X             Y             Z
Electronic contribution:     11.42303     -10.36422      19.98691
Nuclear contribution   :    -11.80480      10.31118     -20.44764
                        -----------------------------------------
Total Dipole Moment    :     -0.38177      -0.05304      -0.46073
                        -----------------------------------------
Magnitude (a.u.)       :      0.60069
Magnitude (Debye)      :      1.52683

Rotational constants in cm-1:     0.016488     0.008853     0.007045
Rotational constants in MHz :   494.309414   265.411424   211.199419

                             ****ORCA TERMINATED NORMALLY****
TOTAL RUN TIME: 0 days 0 hours 0 minutes 22 seconds 115 msec
