                         Program Version 4.2.1 -  RELEASE  -
|  1> ! wB97X-D3 SP def2-SVP
|  2> %pal
|  3> nprocs 24
|  4> end
|  5>
|  6> * xyz 0 1
|  7> S 	 17.36 	 -13.045 	 -122.576
|  8> C 	 15.7616 	 -13.6643 	 -123.032
|  9> C 	 14.8492 	 -13.6207 	 -122.027
| 10> C 	 15.416 	 -13.1643 	 -120.786
| 11> C 	 16.7867 	 -12.8372 	 -120.884
| 12> H 	 14.9561 	 -13.1345 	 -119.79
| 13> C 	 13.4916 	 -14.2099 	 -122.039
| 14> H 	 13.3649 	 -14.8547 	 -121.078
| 15> H 	 13.3421 	 -14.821 	 -122.831
| 16> C 	 12.4768 	 -13.0603 	 -122.041
| 17> H 	 12.5741 	 -12.5548 	 -121.103
| 18> H 	 12.7614 	 -12.3071 	 -122.764
| 19> C 	 11.0629 	 -13.4769 	 -122.338
| 20> H 	 10.6623 	 -14.1114 	 -121.518
| 21> H 	 10.4424 	 -12.5954 	 -122.451
| 22> H 	 11.0727 	 -14.0649 	 -123.206
| 23> S 	 18.0603 	 -10.6592 	 -119.634
| 24> C 	 19.0797 	 -10.9436 	 -118.258
| 25> C 	 19.0624 	 -12.2497 	 -117.977
| 26> C 	 18.2231 	 -13.1111 	 -118.786
| 27> C 	 17.6671 	 -12.3745 	 -119.826
| 28> H 	 19.5432 	 -12.6275 	 -117.104
| 29> C 	 18.1614 	 -14.6038 	 -118.465
| 30> H 	 17.156 	 -14.9604 	 -118.535
| 31> H 	 18.482 	 -14.7516 	 -117.441
| 32> C 	 18.9588 	 -15.4521 	 -119.425
| 33> H 	 19.9207 	 -14.999 	 -119.513
| 34> H 	 18.7114 	 -15.3243 	 -120.481
| 35> C 	 18.9906 	 -16.9406 	 -118.922
| 36> H 	 19.8084 	 -17.4988 	 -119.435
| 37> H 	 18.0676 	 -17.4783 	 -119.113
| 38> H 	 19.3264 	 -16.9504 	 -117.871
| 39> H 	 15.564 	 -14.3092 	 -123.927
| 40> H 	 19.6477 	 -10.2249 	 -117.711
| 41> *
| 42>
| 43>                          ****END OF INPUT****

CARTESIAN COORDINATES (ANGSTROEM)
---------------------------------
  S     17.360000  -13.045000  -122.576000
  C     15.761600  -13.664300  -123.032000
  C     14.849200  -13.620700  -122.027000
  C     15.416000  -13.164300  -120.786000
  C     16.786700  -12.837200  -120.884000
  H     14.956100  -13.134500  -119.790000
  C     13.491600  -14.209900  -122.039000
  H     13.364900  -14.854700  -121.078000
  H     13.342100  -14.821000  -122.831000
  C     12.476800  -13.060300  -122.041000
  H     12.574100  -12.554800  -121.103000
  H     12.761400  -12.307100  -122.764000
  C     11.062900  -13.476900  -122.338000
  H     10.662300  -14.111400  -121.518000
  H     10.442400  -12.595400  -122.451000
  H     11.072700  -14.064900  -123.206000
  S     18.060300  -10.659200  -119.634000
  C     19.079700  -10.943600  -118.258000
  C     19.062400  -12.249700  -117.977000
  C     18.223100  -13.111100  -118.786000
  C     17.667100  -12.374500  -119.826000
  H     19.543200  -12.627500  -117.104000
  C     18.161400  -14.603800  -118.465000
  H     17.156000  -14.960400  -118.535000
  H     18.482000  -14.751600  -117.441000
  C     18.958800  -15.452100  -119.425000
  H     19.920700  -14.999000  -119.513000
  H     18.711400  -15.324300  -120.481000
  C     18.990600  -16.940600  -118.922000
  H     19.808400  -17.498800  -119.435000
  H     18.067600  -17.478300  -119.113000
  H     19.326400  -16.950400  -117.871000
  H     15.564000  -14.309200  -123.927000
  H     19.647700  -10.224900  -117.711000

 Total Charge           Charge          ....    0
 Multiplicity           Mult            ....    1
 Number of Electrons    NEL             ....  134
 Basis Dimension        Dim             ....  322

ORBITAL ENERGIES
----------------

  NO   OCC          E(Eh)            E(eV)
   0   2.0000     -88.967043     -2420.9163
   1   2.0000     -88.961759     -2420.7725
   2   2.0000     -10.334747      -281.2228
   3   2.0000     -10.326824      -281.0072
   4   2.0000     -10.316426      -280.7242
   5   2.0000     -10.311334      -280.5857
   6   2.0000     -10.304016      -280.3865
   7   2.0000     -10.301456      -280.3169
   8   2.0000     -10.299072      -280.2520
   9   2.0000     -10.289370      -279.9880
  10   2.0000     -10.287652      -279.9412
  11   2.0000     -10.284805      -279.8638
  12   2.0000     -10.282989      -279.8144
  13   2.0000     -10.279307      -279.7142
  14   2.0000     -10.278457      -279.6910
  15   2.0000     -10.273377      -279.5528
  16   2.0000      -8.080437      -219.8799
  17   2.0000      -8.076622      -219.7761
  18   2.0000      -6.039046      -164.3308
  19   2.0000      -6.035225      -164.2268
  20   2.0000      -6.035220      -164.2267
  21   2.0000      -6.031090      -164.1143
  22   2.0000      -6.031067      -164.1137
  23   2.0000      -6.027279      -164.0106
  24   2.0000      -1.002128       -27.2693
  25   2.0000      -0.982195       -26.7269
  26   2.0000      -0.918963       -25.0063
  27   2.0000      -0.909305       -24.7435
  28   2.0000      -0.871884       -23.7252
  29   2.0000      -0.848759       -23.0959
  30   2.0000      -0.841935       -22.9102
  31   2.0000      -0.813714       -22.1423
  32   2.0000      -0.782333       -21.2884
  33   2.0000      -0.771510       -20.9939
  34   2.0000      -0.712968       -19.4008
  35   2.0000      -0.701925       -19.1004
  36   2.0000      -0.695063       -18.9136
  37   2.0000      -0.658634       -17.9224
  38   2.0000      -0.640448       -17.4275
  39   2.0000      -0.619365       -16.8538
  40   2.0000      -0.601431       -16.3658
  41   2.0000      -0.570598       -15.5268
  42   2.0000      -0.563455       -15.3324
  43   2.0000      -0.559572       -15.2267
  44   2.0000      -0.531436       -14.4611
  45   2.0000      -0.518403       -14.1064
  46   2.0000      -0.516587       -14.0571
  47   2.0000      -0.510135       -13.8815
  48   2.0000      -0.507274       -13.8036
  49   2.0000      -0.502390       -13.6707
  50   2.0000      -0.495494       -13.4831
  51   2.0000      -0.475187       -12.9305
  52   2.0000      -0.472358       -12.8535
  53   2.0000      -0.467457       -12.7202
  54   2.0000      -0.453610       -12.3434
  55   2.0000      -0.449186       -12.2230
  56   2.0000      -0.446343       -12.1456
  57   2.0000      -0.440049       -11.9743
  58   2.0000      -0.436668       -11.8823
  59   2.0000      -0.426486       -11.6053
  60   2.0000      -0.416781       -11.3412
  61   2.0000      -0.415943       -11.3184
  62   2.0000      -0.410157       -11.1610
  63   2.0000      -0.335419        -9.1272
  64   2.0000      -0.328005        -8.9255
  65   2.0000      -0.325292        -8.8516
  66   2.0000      -0.307064        -8.3556
  67   0.0000       0.041394         1.1264
  68   0.0000       0.052551         1.4300
  69   0.0000       0.110478         3.0063
  70   0.0000       0.124662         3.3922
  71   0.0000       0.126821         3.4510

MULLIKEN ATOMIC CHARGES
-----------------------
   0 S :    0.103533
   1 C :   -0.135023
   2 C :   -0.084034
   3 C :    0.048437
   4 C :   -0.193735
   5 H :    0.027388
   6 C :    0.094072
   7 H :    0.044719
   8 H :   -0.020521
   9 C :   -0.101482
  10 H :    0.018834
  11 H :    0.028867
  12 C :    0.004871
  13 H :    0.026742
  14 H :    0.037826
  15 H :    0.016140
  16 S :    0.106748
  17 C :   -0.067022
  18 C :   -0.024147
  19 C :   -0.036910
  20 C :   -0.183459
  21 H :    0.001970
  22 C :    0.124003
  23 H :    0.012530
  24 H :    0.011857
  25 C :   -0.070758
  26 H :    0.007621
  27 H :    0.026019
  28 C :   -0.051721
  29 H :    0.034407
  30 H :    0.045978
  31 H :    0.031938
  32 H :    0.065813
  33 H :    0.048499
Sum of atomic charges:   -0.0000000

LOEWDIN ATOMIC CHARGES
----------------------
   0 S :    0.374568
   1 C :   -0.198812
   2 C :   -0.064357
   3 C :   -0.051165
   4 C :   -0.179493
   5 H :    0.037015
   6 C :   -0.022078
   7 H :    0.042859
   8 H :    0.007947
   9 C :   -0.039060
  10 H :    0.019487
  11 H :    0.025525
  12 C :   -0.058290
  13 H :    0.027825
  14 H :    0.028827
  15 H :    0.016596
  16 S :    0.399776
  17 C :   -0.182148
  18 C :   -0.075304
  19 C :   -0.044724
  20 C :   -0.207086
  21 H :    0.023197
  22 C :   -0.025175
  23 H :    0.026857
  24 H :    0.027995
  25 C :   -0.044135
  26 H :    0.019107
  27 H :    0.025590
  28 C :   -0.066939
  29 H :    0.030686
  30 H :    0.026217
  31 H :    0.027392
  32 H :    0.040049
  33 H :    0.031251

  Mayer bond orders larger than 0.100000
B(  0-S ,  1-C ) :   1.1194 B(  0-S ,  4-C ) :   1.1282 B(  1-C ,  2-C ) :   1.6595
B(  1-C , 32-H ) :   0.9528 B(  2-C ,  3-C ) :   1.1971 B(  2-C ,  6-C ) :   1.0352
B(  3-C ,  4-C ) :   1.6201 B(  3-C ,  5-H ) :   0.9861 B(  4-C , 20-C ) :   1.0337
B(  6-C ,  7-H ) :   0.9409 B(  6-C ,  8-H ) :   0.9361 B(  6-C ,  9-C ) :   1.0457
B(  9-C , 10-H ) :   0.9550 B(  9-C , 11-H ) :   0.9559 B(  9-C , 12-C ) :   1.0924
B( 12-C , 13-H ) :   0.9702 B( 12-C , 14-H ) :   0.9728 B( 12-C , 15-H ) :   0.9729
B( 16-S , 17-C ) :   1.1394 B( 16-S , 20-C ) :   1.1387 B( 17-C , 18-C ) :   1.6320
B( 17-C , 33-H ) :   0.9698 B( 18-C , 19-C ) :   1.2390 B( 18-C , 21-H ) :   0.9862
B( 19-C , 20-C ) :   1.6017 B( 19-C , 22-C ) :   1.0455 B( 22-C , 23-H ) :   0.9239
B( 22-C , 24-H ) :   0.9323 B( 22-C , 25-C ) :   1.0662 B( 25-C , 26-H ) :   0.9501
B( 25-C , 27-H ) :   0.9513 B( 25-C , 28-C ) :   1.0715 B( 28-C , 29-H ) :   0.9751
B( 28-C , 30-H ) :   0.9774 B( 28-C , 31-H ) :   0.9743

Dispersion correction           -0.014149291
FINAL SINGLE POINT ENERGY     -1339.875983373819

DIPOLE MOMENT
-------------
                                X             Y             Z
Electronic contribution:     14.26396      18.77282      -3.25430
Nuclear contribution   :    -14.56192     -19.30484       3.59380
                        -----------------------------------------
Total Dipole Moment    :     -0.29796      -0.53202       0.33950
                        -----------------------------------------
Magnitude (a.u.)       :      0.69792
Magnitude (Debye)      :      1.77398

Rotational constants in cm-1:     0.018378     0.007898     0.006766
Rotational constants in MHz :   550.964903   236.767343   202.826827

                             ****ORCA TERMINATED NORMALLY****
TOTAL RUN TIME: 0 days 0 hours 0 minutes 21 seconds 240 msec
