                         Program Version 4.2.1 -  RELEASE  -
|  1> ! wB97X-D3 SP def2-SVP
|  2> %pal
|  3> nprocs 24
|  4> end
|  5>
|  6> * xyz 0 1
|  7> S 	 -33.1472 	 -34.7897 	 -90.7724
|  8> C 	 -31.7029 	 -33.9891 	 -91.3448
|  9> C 	 -30.8568 	 -34.7746 	 -91.9975
| 10> C 	 -31.4532 	 -36.0447 	 -92.2418
| 11> C 	 -32.6853 	 -36.2212 	 -91.6501
| 12> H 	 -31.0352 	 -36.8718 	 -92.8211
| 13> C 	 -29.5198 	 -34.386 	 -92.5875
| 14> H 	 -29.0729 	 -35.1576 	 -93.1942
| 15> H 	 -28.7772 	 -34.1835 	 -91.8278
| 16> C 	 -29.4906 	 -33.1613 	 -93.4578
| 17> H 	 -29.6009 	 -32.1916 	 -92.9027
| 18> H 	 -28.5001 	 -33.0026 	 -93.8502
| 19> C 	 -30.4984 	 -33.3591 	 -94.4912
| 20> H 	 -30.1932 	 -34.2378 	 -95.0788
| 21> H 	 -31.4934 	 -33.5213 	 -94.0387
| 22> H 	 -30.5866 	 -32.5228 	 -95.1708
| 23> S 	 -32.7341 	 -38.7994 	 -91.1411
| 24> C 	 -34.0559 	 -39.769 	 -91.6013
| 25> C 	 -35.0762 	 -39.0401 	 -92.1832
| 26> C 	 -34.783 	 -37.6518 	 -92.3524
| 27> C 	 -33.5368 	 -37.3885 	 -91.7615
| 28> H 	 -35.9789 	 -39.4303 	 -92.6565
| 29> C 	 -35.5083 	 -36.765 	 -93.2791
| 30> H 	 -35.5084 	 -35.7776 	 -92.8971
| 31> H 	 -36.5903 	 -36.9411 	 -93.3128
| 32> C 	 -35.1214 	 -36.7098 	 -94.7952
| 33> H 	 -35.3121 	 -37.7191 	 -95.2245
| 34> H 	 -34.0692 	 -36.6112 	 -94.9524
| 35> C 	 -35.8561 	 -35.717 	 -95.6147
| 36> H 	 -36.257 	 -34.9507 	 -95.0288
| 37> H 	 -36.7913 	 -36.1013 	 -96.1715
| 38> H 	 -35.2208 	 -35.3189 	 -96.4891
| 39> H 	 -31.5029 	 -32.9606 	 -91.1034
| 40> H 	 -34.1666 	 -40.8206 	 -91.5532
| 41> *
| 42>
| 43>                          ****END OF INPUT****

CARTESIAN COORDINATES (ANGSTROEM)
---------------------------------
  S    -33.147200  -34.789700  -90.772400
  C    -31.702900  -33.989100  -91.344800
  C    -30.856800  -34.774600  -91.997500
  C    -31.453200  -36.044700  -92.241800
  C    -32.685300  -36.221200  -91.650100
  H    -31.035200  -36.871800  -92.821100
  C    -29.519800  -34.386000  -92.587500
  H    -29.072900  -35.157600  -93.194200
  H    -28.777200  -34.183500  -91.827800
  C    -29.490600  -33.161300  -93.457800
  H    -29.600900  -32.191600  -92.902700
  H    -28.500100  -33.002600  -93.850200
  C    -30.498400  -33.359100  -94.491200
  H    -30.193200  -34.237800  -95.078800
  H    -31.493400  -33.521300  -94.038700
  H    -30.586600  -32.522800  -95.170800
  S    -32.734100  -38.799400  -91.141100
  C    -34.055900  -39.769000  -91.601300
  C    -35.076200  -39.040100  -92.183200
  C    -34.783000  -37.651800  -92.352400
  C    -33.536800  -37.388500  -91.761500
  H    -35.978900  -39.430300  -92.656500
  C    -35.508300  -36.765000  -93.279100
  H    -35.508400  -35.777600  -92.897100
  H    -36.590300  -36.941100  -93.312800
  C    -35.121400  -36.709800  -94.795200
  H    -35.312100  -37.719100  -95.224500
  H    -34.069200  -36.611200  -94.952400
  C    -35.856100  -35.717000  -95.614700
  H    -36.257000  -34.950700  -95.028800
  H    -36.791300  -36.101300  -96.171500
  H    -35.220800  -35.318900  -96.489100
  H    -31.502900  -32.960600  -91.103400
  H    -34.166600  -40.820600  -91.553200

 Total Charge           Charge          ....    0
 Multiplicity           Mult            ....    1
 Number of Electrons    NEL             ....  134
 Basis Dimension        Dim             ....  322

ORBITAL ENERGIES
----------------

  NO   OCC          E(Eh)            E(eV)
   0   2.0000     -88.969339     -2420.9788
   1   2.0000     -88.964937     -2420.8590
   2   2.0000     -10.324046      -280.9316
   3   2.0000     -10.323598      -280.9194
   4   2.0000     -10.310271      -280.5567
   5   2.0000     -10.306480      -280.4536
   6   2.0000     -10.302446      -280.3438
   7   2.0000     -10.295566      -280.1566
   8   2.0000     -10.291530      -280.0468
   9   2.0000     -10.291138      -280.0361
  10   2.0000     -10.287789      -279.9450
  11   2.0000     -10.286568      -279.9117
  12   2.0000     -10.282740      -279.8076
  13   2.0000     -10.281142      -279.7641
  14   2.0000     -10.279207      -279.7114
  15   2.0000     -10.267215      -279.3851
  16   2.0000      -8.084786      -219.9982
  17   2.0000      -8.079962      -219.8670
  18   2.0000      -6.043130      -164.4419
  19   2.0000      -6.039163      -164.3340
  20   2.0000      -6.038441      -164.3143
  21   2.0000      -6.035692      -164.2395
  22   2.0000      -6.034473      -164.2064
  23   2.0000      -6.030697      -164.1036
  24   2.0000      -1.013316       -27.5737
  25   2.0000      -0.991473       -26.9794
  26   2.0000      -0.927019       -25.2255
  27   2.0000      -0.911840       -24.8124
  28   2.0000      -0.873305       -23.7638
  29   2.0000      -0.859303       -23.3828
  30   2.0000      -0.848190       -23.0804
  31   2.0000      -0.810203       -22.0468
  32   2.0000      -0.786845       -21.4111
  33   2.0000      -0.774547       -21.0765
  34   2.0000      -0.705921       -19.2091
  35   2.0000      -0.700467       -19.0607
  36   2.0000      -0.695466       -18.9246
  37   2.0000      -0.665518       -18.1097
  38   2.0000      -0.642470       -17.4825
  39   2.0000      -0.612626       -16.6704
  40   2.0000      -0.602065       -16.3830
  41   2.0000      -0.580753       -15.8031
  42   2.0000      -0.565363       -15.3843
  43   2.0000      -0.554275       -15.0826
  44   2.0000      -0.542944       -14.7743
  45   2.0000      -0.527197       -14.3458
  46   2.0000      -0.519695       -14.1416
  47   2.0000      -0.510323       -13.8866
  48   2.0000      -0.507512       -13.8101
  49   2.0000      -0.494409       -13.4536
  50   2.0000      -0.489985       -13.3332
  51   2.0000      -0.477860       -13.0032
  52   2.0000      -0.471291       -12.8245
  53   2.0000      -0.464705       -12.6453
  54   2.0000      -0.464087       -12.6285
  55   2.0000      -0.447605       -12.1799
  56   2.0000      -0.442205       -12.0330
  57   2.0000      -0.436439       -11.8761
  58   2.0000      -0.434640       -11.8272
  59   2.0000      -0.433322       -11.7913
  60   2.0000      -0.425022       -11.5654
  61   2.0000      -0.411969       -11.2103
  62   2.0000      -0.399628       -10.8744
  63   2.0000      -0.337148        -9.1743
  64   2.0000      -0.335659        -9.1337
  65   2.0000      -0.330827        -9.0023
  66   2.0000      -0.297454        -8.0941
  67   0.0000       0.034918         0.9502
  68   0.0000       0.071098         1.9347
  69   0.0000       0.113088         3.0773
  70   0.0000       0.114872         3.1258
  71   0.0000       0.128303         3.4913

MULLIKEN ATOMIC CHARGES
-----------------------
   0 S :    0.122311
   1 C :   -0.133003
   2 C :   -0.059399
   3 C :    0.012280
   4 C :   -0.153122
   5 H :    0.013908
   6 C :    0.098232
   7 H :    0.014897
   8 H :    0.027327
   9 C :   -0.083520
  10 H :    0.020422
  11 H :    0.016747
  12 C :   -0.033427
  13 H :    0.020914
  14 H :    0.052141
  15 H :    0.023132
  16 S :    0.138574
  17 C :   -0.059160
  18 C :   -0.048379
  19 C :   -0.002037
  20 C :   -0.209046
  21 H :    0.015648
  22 C :    0.068168
  23 H :    0.005667
  24 H :    0.013843
  25 C :   -0.037301
  26 H :    0.021003
  27 H :    0.023820
  28 C :   -0.070579
  29 H :    0.020062
  30 H :    0.034470
  31 H :    0.048725
  32 H :    0.036773
  33 H :    0.039911
Sum of atomic charges:   -0.0000000

LOEWDIN ATOMIC CHARGES
----------------------
   0 S :    0.408291
   1 C :   -0.185398
   2 C :   -0.067763
   3 C :   -0.064636
   4 C :   -0.207109
   5 H :    0.030519
   6 C :   -0.027058
   7 H :    0.029219
   8 H :    0.033425
   9 C :   -0.049131
  10 H :    0.021869
  11 H :    0.022621
  12 C :   -0.066044
  13 H :    0.026454
  14 H :    0.032152
  15 H :    0.019856
  16 S :    0.451406
  17 C :   -0.202997
  18 C :   -0.067570
  19 C :   -0.055740
  20 C :   -0.199603
  21 H :    0.031034
  22 C :   -0.036756
  23 H :    0.022887
  24 H :    0.032586
  25 C :   -0.041932
  26 H :    0.027219
  27 H :    0.021584
  28 C :   -0.074495
  29 H :    0.014810
  30 H :    0.032529
  31 H :    0.040716
  32 H :    0.023202
  33 H :    0.023854

  Mayer bond orders larger than 0.100000
B(  0-S ,  1-C ) :   1.1353 B(  0-S ,  4-C ) :   1.1417 B(  1-C ,  2-C ) :   1.6416
B(  1-C , 32-H ) :   0.9662 B(  2-C ,  3-C ) :   1.2140 B(  2-C ,  6-C ) :   1.0195
B(  3-C ,  4-C ) :   1.5976 B(  3-C ,  5-H ) :   0.9918 B(  4-C , 20-C ) :   1.0206
B(  6-C ,  7-H ) :   0.9456 B(  6-C ,  8-H ) :   0.9238 B(  6-C ,  9-C ) :   1.0882
B(  9-C , 10-H ) :   0.9442 B(  9-C , 11-H ) :   0.9487 B(  9-C , 12-C ) :   1.0866
B( 12-C , 13-H ) :   0.9711 B( 12-C , 14-H ) :   0.9673 B( 12-C , 15-H ) :   0.9698
B( 16-S , 17-C ) :   1.1589 B( 16-S , 20-C ) :   1.1761 B( 17-C , 18-C ) :   1.5911
B( 17-C , 33-H ) :   0.9699 B( 18-C , 19-C ) :   1.2669 B( 18-C , 21-H ) :   0.9821
B( 19-C , 20-C ) :   1.5550 B( 19-C , 22-C ) :   1.0832 B( 22-C , 23-H ) :   0.9139
B( 22-C , 24-H ) :   0.9264 B( 22-C , 25-C ) :   1.0557 B( 25-C , 26-H ) :   0.9525
B( 25-C , 27-H ) :   0.9590 B( 25-C , 28-C ) :   1.0737 B( 28-C , 29-H ) :   0.9769
B( 28-C , 30-H ) :   0.9730 B( 28-C , 31-H ) :   0.9733

Dispersion correction           -0.014710902
FINAL SINGLE POINT ENERGY     -1339.872871258593

DIPOLE MOMENT
-------------
                                X             Y             Z
Electronic contribution:     -0.97923     -12.58313      22.93921
Nuclear contribution   :      1.15308      12.68410     -23.47977
                        -----------------------------------------
Total Dipole Moment    :      0.17385       0.10097      -0.54056
                        -----------------------------------------
Magnitude (a.u.)       :      0.57673
Magnitude (Debye)      :      1.46594

Rotational constants in cm-1:     0.018249     0.009288     0.007471
Rotational constants in MHz :   547.102007   278.458995   223.961945

                             ****ORCA TERMINATED NORMALLY****
TOTAL RUN TIME: 0 days 0 hours 0 minutes 22 seconds 144 msec
