                         Program Version 4.2.1 -  RELEASE  -
|  1> ! wB97X-D3 SP def2-SVP
|  2> %pal
|  3> nprocs 24
|  4> end
|  5>
|  6> * xyz 0 1
|  7> S 	 -62.7728 	 15.4994 	 -92.2386
|  8> C 	 -61.7185 	 16.3599 	 -93.2743
|  9> C 	 -61.131 	 17.4868 	 -92.6346
| 10> C 	 -61.4608 	 17.4696 	 -91.2704
| 11> C 	 -62.1138 	 16.3227 	 -90.8454
| 12> H 	 -61.3033 	 18.1144 	 -90.4409
| 13> C 	 -60.3356 	 18.5806 	 -93.2922
| 14> H 	 -59.7166 	 18.1588 	 -94.0544
| 15> H 	 -59.7034 	 19.043 	 -92.5031
| 16> C 	 -61.33 	 19.5734 	 -93.9353
| 17> H 	 -61.093 	 19.9154 	 -94.891
| 18> H 	 -62.2116 	 19.044 	 -94.2246
| 19> C 	 -61.6651 	 20.8198 	 -93.0498
| 20> H 	 -62.4711 	 21.4341 	 -93.386
| 21> H 	 -61.7339 	 20.4938 	 -92.0594
| 22> H 	 -60.9778 	 21.6403 	 -93.0109
| 23> S 	 -64.2478 	 16.4006 	 -89.2875
| 24> C 	 -64.2015 	 16.3261 	 -87.5001
| 25> C 	 -62.9126 	 16.0661 	 -87.1213
| 26> C 	 -62.0412 	 15.8851 	 -88.2468
| 27> C 	 -62.6004 	 16.0522 	 -89.5158
| 28> H 	 -62.6229 	 16.0534 	 -86.088
| 29> C 	 -60.5507 	 15.6708 	 -88.1303
| 30> H 	 -60.1748 	 15.3105 	 -89.0692
| 31> H 	 -60.2822 	 14.8736 	 -87.4867
| 32> C 	 -59.827 	 16.8998 	 -87.7351
| 33> H 	 -60.1981 	 17.2682 	 -86.7827
| 34> H 	 -59.9812 	 17.7826 	 -88.4353
| 35> C 	 -58.3761 	 16.747 	 -87.5328
| 36> H 	 -57.8193 	 16.4183 	 -88.3622
| 37> H 	 -58.0762 	 15.9794 	 -86.7438
| 38> H 	 -57.922 	 17.6802 	 -87.3619
| 39> H 	 -61.6895 	 16.2561 	 -94.3931
| 40> H 	 -65.0607 	 16.3994 	 -86.8122
| 41> *
| 42>
| 43>                          ****END OF INPUT****

CARTESIAN COORDINATES (ANGSTROEM)
---------------------------------
  S    -62.772800   15.499400  -92.238600
  C    -61.718500   16.359900  -93.274300
  C    -61.131000   17.486800  -92.634600
  C    -61.460800   17.469600  -91.270400
  C    -62.113800   16.322700  -90.845400
  H    -61.303300   18.114400  -90.440900
  C    -60.335600   18.580600  -93.292200
  H    -59.716600   18.158800  -94.054400
  H    -59.703400   19.043000  -92.503100
  C    -61.330000   19.573400  -93.935300
  H    -61.093000   19.915400  -94.891000
  H    -62.211600   19.044000  -94.224600
  C    -61.665100   20.819800  -93.049800
  H    -62.471100   21.434100  -93.386000
  H    -61.733900   20.493800  -92.059400
  H    -60.977800   21.640300  -93.010900
  S    -64.247800   16.400600  -89.287500
  C    -64.201500   16.326100  -87.500100
  C    -62.912600   16.066100  -87.121300
  C    -62.041200   15.885100  -88.246800
  C    -62.600400   16.052200  -89.515800
  H    -62.622900   16.053400  -86.088000
  C    -60.550700   15.670800  -88.130300
  H    -60.174800   15.310500  -89.069200
  H    -60.282200   14.873600  -87.486700
  C    -59.827000   16.899800  -87.735100
  H    -60.198100   17.268200  -86.782700
  H    -59.981200   17.782600  -88.435300
  C    -58.376100   16.747000  -87.532800
  H    -57.819300   16.418300  -88.362200
  H    -58.076200   15.979400  -86.743800
  H    -57.922000   17.680200  -87.361900
  H    -61.689500   16.256100  -94.393100
  H    -65.060700   16.399400  -86.812200

 Total Charge           Charge          ....    0
 Multiplicity           Mult            ....    1
 Number of Electrons    NEL             ....  134
 Basis Dimension        Dim             ....  322

ORBITAL ENERGIES
----------------

  NO   OCC          E(Eh)            E(eV)
   0   2.0000     -88.968743     -2420.9626
   1   2.0000     -88.958354     -2420.6799
   2   2.0000     -10.326234      -280.9911
   3   2.0000     -10.321808      -280.8707
   4   2.0000     -10.321283      -280.8564
   5   2.0000     -10.319072      -280.7962
   6   2.0000     -10.304743      -280.4063
   7   2.0000     -10.302307      -280.3400
   8   2.0000     -10.295807      -280.1632
   9   2.0000     -10.295030      -280.1420
  10   2.0000     -10.291990      -280.0593
  11   2.0000     -10.281614      -279.7769
  12   2.0000     -10.280389      -279.7436
  13   2.0000     -10.276467      -279.6369
  14   2.0000     -10.269768      -279.4546
  15   2.0000     -10.267596      -279.3955
  16   2.0000      -8.084050      -219.9782
  17   2.0000      -8.073811      -219.6996
  18   2.0000      -6.042322      -164.4199
  19   2.0000      -6.038575      -164.3180
  20   2.0000      -6.034928      -164.2187
  21   2.0000      -6.032360      -164.1489
  22   2.0000      -6.028026      -164.0309
  23   2.0000      -6.024621      -163.9383
  24   2.0000      -1.014096       -27.5949
  25   2.0000      -0.988248       -26.8916
  26   2.0000      -0.918765       -25.0009
  27   2.0000      -0.913857       -24.8673
  28   2.0000      -0.875013       -23.8103
  29   2.0000      -0.852633       -23.2013
  30   2.0000      -0.847391       -23.0587
  31   2.0000      -0.820631       -22.3305
  32   2.0000      -0.784813       -21.3559
  33   2.0000      -0.769723       -20.9452
  34   2.0000      -0.717888       -19.5347
  35   2.0000      -0.700987       -19.0748
  36   2.0000      -0.695888       -18.9361
  37   2.0000      -0.664532       -18.0828
  38   2.0000      -0.648950       -17.6588
  39   2.0000      -0.617222       -16.7955
  40   2.0000      -0.598062       -16.2741
  41   2.0000      -0.573075       -15.5942
  42   2.0000      -0.565538       -15.3891
  43   2.0000      -0.562534       -15.3073
  44   2.0000      -0.536772       -14.6063
  45   2.0000      -0.532119       -14.4797
  46   2.0000      -0.518306       -14.1038
  47   2.0000      -0.514460       -13.9992
  48   2.0000      -0.503967       -13.7136
  49   2.0000      -0.497688       -13.5428
  50   2.0000      -0.493319       -13.4239
  51   2.0000      -0.482432       -13.1276
  52   2.0000      -0.472933       -12.8692
  53   2.0000      -0.471043       -12.8177
  54   2.0000      -0.455800       -12.4030
  55   2.0000      -0.451487       -12.2856
  56   2.0000      -0.446995       -12.1634
  57   2.0000      -0.441151       -12.0043
  58   2.0000      -0.438282       -11.9263
  59   2.0000      -0.428766       -11.6673
  60   2.0000      -0.411589       -11.1999
  61   2.0000      -0.407587       -11.0910
  62   2.0000      -0.404146       -10.9974
  63   2.0000      -0.346978        -9.4418
  64   2.0000      -0.329867        -8.9761
  65   2.0000      -0.319007        -8.6806
  66   2.0000      -0.297839        -8.1046
  67   0.0000       0.031154         0.8477
  68   0.0000       0.057233         1.5574
  69   0.0000       0.110560         3.0085
  70   0.0000       0.128684         3.5017
  71   0.0000       0.133461         3.6316

MULLIKEN ATOMIC CHARGES
-----------------------
   0 S :    0.128051
   1 C :   -0.114386
   2 C :   -0.102556
   3 C :    0.052272
   4 C :   -0.184544
   5 H :    0.003436
   6 C :    0.080399
   7 H :    0.024911
   8 H :    0.040724
   9 C :   -0.017145
  10 H :   -0.000281
  11 H :    0.017605
  12 C :   -0.022775
  13 H :    0.022313
  14 H :    0.017640
  15 H :    0.013042
  16 S :    0.087984
  17 C :   -0.103992
  18 C :   -0.011479
  19 C :   -0.075420
  20 C :   -0.135436
  21 H :    0.017986
  22 C :    0.118149
  23 H :    0.011662
  24 H :    0.003763
  25 C :   -0.086005
  26 H :    0.014424
  27 H :    0.024275
  28 C :   -0.007902
  29 H :    0.005564
  30 H :    0.028743
  31 H :    0.015721
  32 H :    0.063394
  33 H :    0.069861
Sum of atomic charges:    0.0000000

LOEWDIN ATOMIC CHARGES
----------------------
   0 S :    0.434104
   1 C :   -0.218417
   2 C :   -0.060851
   3 C :   -0.053744
   4 C :   -0.205938
   5 H :    0.027189
   6 C :   -0.024758
   7 H :    0.032163
   8 H :    0.037129
   9 C :   -0.032067
  10 H :    0.014024
  11 H :    0.024716
  12 C :   -0.063151
  13 H :    0.027079
  14 H :    0.016155
  15 H :    0.023312
  16 S :    0.410203
  17 C :   -0.176638
  18 C :   -0.071251
  19 C :   -0.054609
  20 C :   -0.220713
  21 H :    0.032003
  22 C :   -0.031774
  23 H :    0.028844
  24 H :    0.025074
  25 C :   -0.045765
  26 H :    0.021517
  27 H :    0.028262
  28 C :   -0.065745
  29 H :    0.016162
  30 H :    0.030768
  31 H :    0.021988
  32 H :    0.036463
  33 H :    0.038267

  Mayer bond orders larger than 0.100000
B(  0-S ,  1-C ) :   1.1770 B(  0-S ,  4-C ) :   1.1605 B(  1-C ,  2-C ) :   1.5517
B(  1-C ,  4-C ) :   0.1141 B(  1-C , 32-H ) :   0.9607 B(  2-C ,  3-C ) :   1.2609
B(  2-C ,  6-C ) :   1.0341 B(  3-C ,  4-C ) :   1.5534 B(  3-C ,  5-H ) :   0.9969
B(  4-C , 20-C ) :   1.0149 B(  6-C ,  7-H ) :   0.9335 B(  6-C ,  8-H ) :   0.9538
B(  6-C ,  9-C ) :   1.0469 B(  9-C , 10-H ) :   0.9526 B(  9-C , 11-H ) :   0.9579
B(  9-C , 12-C ) :   1.0688 B( 12-C , 13-H ) :   0.9714 B( 12-C , 14-H ) :   0.9785
B( 12-C , 15-H ) :   0.9739 B( 16-S , 17-C ) :   1.1569 B( 16-S , 20-C ) :   1.1516
B( 17-C , 18-C ) :   1.5874 B( 17-C , 33-H ) :   0.9660 B( 18-C , 19-C ) :   1.2526
B( 18-C , 21-H ) :   0.9979 B( 19-C , 20-C ) :   1.5966 B( 19-C , 22-C ) :   1.0552
B( 22-C , 23-H ) :   0.9272 B( 22-C , 24-H ) :   0.9269 B( 22-C , 25-C ) :   1.0724
B( 25-C , 26-H ) :   0.9490 B( 25-C , 27-H ) :   0.9429 B( 25-C , 28-C ) :   1.1042
B( 28-C , 29-H ) :   0.9665 B( 28-C , 30-H ) :   0.9673 B( 28-C , 31-H ) :   0.9664

Dispersion correction           -0.014552765
FINAL SINGLE POINT ENERGY     -1339.844836434252

DIPOLE MOMENT
-------------
                                X             Y             Z
Electronic contribution:    -19.93966     -16.08929      -1.26952
Nuclear contribution   :     20.33861      16.57111       1.31469
                        -----------------------------------------
Total Dipole Moment    :      0.39895       0.48182       0.04518
                        -----------------------------------------
Magnitude (a.u.)       :      0.62718
Magnitude (Debye)      :      1.59415

Rotational constants in cm-1:     0.017369     0.009094     0.007526
Rotational constants in MHz :   520.707998   272.641641   225.631286

                             ****ORCA TERMINATED NORMALLY****
TOTAL RUN TIME: 0 days 0 hours 0 minutes 22 seconds 174 msec
