                         Program Version 4.2.1 -  RELEASE  -
|  1> ! wB97X-D3 SP def2-SVP
|  2> %pal
|  3> nprocs 24
|  4> end
|  5>
|  6> * xyz 0 1
|  7> S 	 -55.2502 	 14.2152 	 -91.3396
|  8> C 	 -53.5946 	 14.4921 	 -90.923
|  9> C 	 -52.7287 	 13.9698 	 -91.9728
| 10> C 	 -53.41 	 13.1991 	 -92.9303
| 11> C 	 -54.8219 	 13.175 	 -92.6725
| 12> H 	 -52.9702 	 12.7268 	 -93.8244
| 13> C 	 -51.2311 	 14.2537 	 -92.0653
| 14> H 	 -50.8637 	 13.518 	 -92.7017
| 15> H 	 -50.7984 	 14.1634 	 -91.1101
| 16> C 	 -50.7802 	 15.5741 	 -92.7096
| 17> H 	 -51.4652 	 16.2783 	 -92.2867
| 18> H 	 -49.7342 	 15.8091 	 -92.5618
| 19> C 	 -51.0336 	 15.5355 	 -94.2163
| 20> H 	 -52.0325 	 15.0336 	 -94.3177
| 21> H 	 -51.0504 	 16.4932 	 -94.645
| 22> H 	 -50.2448 	 15.0267 	 -94.7958
| 23> S 	 -56.4623 	 13.6928 	 -94.7692
| 24> C 	 -57.4098 	 12.4563 	 -95.4517
| 25> C 	 -57.2438 	 11.2269 	 -94.8807
| 26> C 	 -56.2698 	 11.3061 	 -93.8021
| 27> C 	 -55.7893 	 12.5784 	 -93.6143
| 28> H 	 -57.7562 	 10.3404 	 -95.1311
| 29> C 	 -55.8663 	 10.0795 	 -93.0321
| 30> H 	 -55.0878 	 10.3186 	 -92.3425
| 31> H 	 -55.5093 	 9.18822 	 -93.6411
| 32> C 	 -57.0686 	 9.36746 	 -92.303
| 33> H 	 -57.5998 	 8.9206 	 -93.0579
| 34> H 	 -57.6493 	 10.2096 	 -92.0387
| 35> C 	 -56.8398 	 8.49718 	 -91.089
| 36> H 	 -56.3732 	 7.54642 	 -91.2613
| 37> H 	 -57.7693 	 8.25933 	 -90.7075
| 38> H 	 -56.3147 	 9.12747 	 -90.3933
| 39> H 	 -53.2652 	 15.0367 	 -90.0284
| 40> H 	 -58.2135 	 12.655 	 -96.1424
| 41> *
| 42>
| 43>                          ****END OF INPUT****

CARTESIAN COORDINATES (ANGSTROEM)
---------------------------------
  S    -55.250200   14.215200  -91.339600
  C    -53.594600   14.492100  -90.923000
  C    -52.728700   13.969800  -91.972800
  C    -53.410000   13.199100  -92.930300
  C    -54.821900   13.175000  -92.672500
  H    -52.970200   12.726800  -93.824400
  C    -51.231100   14.253700  -92.065300
  H    -50.863700   13.518000  -92.701700
  H    -50.798400   14.163400  -91.110100
  C    -50.780200   15.574100  -92.709600
  H    -51.465200   16.278300  -92.286700
  H    -49.734200   15.809100  -92.561800
  C    -51.033600   15.535500  -94.216300
  H    -52.032500   15.033600  -94.317700
  H    -51.050400   16.493200  -94.645000
  H    -50.244800   15.026700  -94.795800
  S    -56.462300   13.692800  -94.769200
  C    -57.409800   12.456300  -95.451700
  C    -57.243800   11.226900  -94.880700
  C    -56.269800   11.306100  -93.802100
  C    -55.789300   12.578400  -93.614300
  H    -57.756200   10.340400  -95.131100
  C    -55.866300   10.079500  -93.032100
  H    -55.087800   10.318600  -92.342500
  H    -55.509300    9.188220  -93.641100
  C    -57.068600    9.367460  -92.303000
  H    -57.599800    8.920600  -93.057900
  H    -57.649300   10.209600  -92.038700
  C    -56.839800    8.497180  -91.089000
  H    -56.373200    7.546420  -91.261300
  H    -57.769300    8.259330  -90.707500
  H    -56.314700    9.127470  -90.393300
  H    -53.265200   15.036700  -90.028400
  H    -58.213500   12.655000  -96.142400

 Total Charge           Charge          ....    0
 Multiplicity           Mult            ....    1
 Number of Electrons    NEL             ....  134
 Basis Dimension        Dim             ....  322

ORBITAL ENERGIES
----------------

  NO   OCC          E(Eh)            E(eV)
   0   2.0000     -88.976284     -2421.1678
   1   2.0000     -88.962642     -2420.7966
   2   2.0000     -10.332985      -281.1748
   3   2.0000     -10.323006      -280.9033
   4   2.0000     -10.322577      -280.8916
   5   2.0000     -10.311240      -280.5831
   6   2.0000     -10.307866      -280.4913
   7   2.0000     -10.302356      -280.3414
   8   2.0000     -10.301456      -280.3169
   9   2.0000     -10.289887      -280.0020
  10   2.0000     -10.287231      -279.9298
  11   2.0000     -10.279303      -279.7141
  12   2.0000     -10.279151      -279.7099
  13   2.0000     -10.270910      -279.4857
  14   2.0000     -10.270084      -279.4632
  15   2.0000     -10.267873      -279.4030
  16   2.0000      -8.090545      -220.1549
  17   2.0000      -8.078828      -219.8361
  18   2.0000      -6.048749      -164.5948
  19   2.0000      -6.044945      -164.4913
  20   2.0000      -6.041839      -164.4068
  21   2.0000      -6.037195      -164.2804
  22   2.0000      -6.033162      -164.1707
  23   2.0000      -6.029619      -164.0743
  24   2.0000      -1.007822       -27.4242
  25   2.0000      -0.984726       -26.7958
  26   2.0000      -0.914287       -24.8790
  27   2.0000      -0.908282       -24.7156
  28   2.0000      -0.865491       -23.5512
  29   2.0000      -0.854223       -23.2446
  30   2.0000      -0.850620       -23.1465
  31   2.0000      -0.810330       -22.0502
  32   2.0000      -0.784785       -21.3551
  33   2.0000      -0.770271       -20.9601
  34   2.0000      -0.703241       -19.1362
  35   2.0000      -0.699396       -19.0315
  36   2.0000      -0.691041       -18.8042
  37   2.0000      -0.661201       -17.9922
  38   2.0000      -0.642549       -17.4847
  39   2.0000      -0.613502       -16.6942
  40   2.0000      -0.599916       -16.3245
  41   2.0000      -0.575163       -15.6510
  42   2.0000      -0.569439       -15.4952
  43   2.0000      -0.558381       -15.1943
  44   2.0000      -0.546936       -14.8829
  45   2.0000      -0.521381       -14.1875
  46   2.0000      -0.519782       -14.1440
  47   2.0000      -0.507666       -13.8143
  48   2.0000      -0.505402       -13.7527
  49   2.0000      -0.497262       -13.5312
  50   2.0000      -0.484876       -13.1941
  51   2.0000      -0.476540       -12.9673
  52   2.0000      -0.472446       -12.8559
  53   2.0000      -0.470613       -12.8060
  54   2.0000      -0.461428       -12.5561
  55   2.0000      -0.454380       -12.3643
  56   2.0000      -0.450621       -12.2620
  57   2.0000      -0.432785       -11.7767
  58   2.0000      -0.430326       -11.7098
  59   2.0000      -0.425173       -11.5695
  60   2.0000      -0.420186       -11.4338
  61   2.0000      -0.415043       -11.2939
  62   2.0000      -0.406572       -11.0634
  63   2.0000      -0.339983        -9.2514
  64   2.0000      -0.328028        -8.9261
  65   2.0000      -0.320954        -8.7336
  66   2.0000      -0.303131        -8.2486
  67   0.0000       0.034480         0.9383
  68   0.0000       0.057951         1.5769
  69   0.0000       0.114339         3.1113
  70   0.0000       0.120545         3.2802
  71   0.0000       0.130624         3.5545

MULLIKEN ATOMIC CHARGES
-----------------------
   0 S :    0.147725
   1 C :   -0.131937
   2 C :   -0.130542
   3 C :    0.040547
   4 C :   -0.188603
   5 H :    0.040444
   6 C :    0.110585
   7 H :   -0.004540
   8 H :    0.015865
   9 C :   -0.030995
  10 H :    0.018443
  11 H :    0.032930
  12 C :   -0.077157
  13 H :    0.040560
  14 H :    0.021751
  15 H :    0.031493
  16 S :    0.119870
  17 C :   -0.074442
  18 C :   -0.013159
  19 C :   -0.025623
  20 C :   -0.199097
  21 H :    0.004072
  22 C :    0.064788
  23 H :    0.012985
  24 H :    0.037611
  25 C :   -0.104842
  26 H :    0.003457
  27 H :    0.017949
  28 C :    0.031905
  29 H :    0.025704
  30 H :    0.012878
  31 H :    0.030592
  32 H :    0.064408
  33 H :    0.054375
Sum of atomic charges:   -0.0000000

LOEWDIN ATOMIC CHARGES
----------------------
   0 S :    0.445079
   1 C :   -0.218800
   2 C :   -0.059732
   3 C :   -0.060832
   4 C :   -0.215734
   5 H :    0.041336
   6 C :   -0.025152
   7 H :    0.018459
   8 H :    0.025169
   9 C :   -0.031861
  10 H :    0.020202
  11 H :    0.023680
  12 C :   -0.068926
  13 H :    0.033100
  14 H :    0.017341
  15 H :    0.024860
  16 S :    0.427336
  17 C :   -0.192452
  18 C :   -0.065140
  19 C :   -0.051321
  20 C :   -0.211014
  21 H :    0.024752
  22 C :   -0.033306
  23 H :    0.021150
  24 H :    0.037974
  25 C :   -0.035575
  26 H :    0.005752
  27 H :    0.018911
  28 C :   -0.048901
  29 H :    0.023162
  30 H :    0.021105
  31 H :    0.029234
  32 H :    0.033073
  33 H :    0.027072

  Mayer bond orders larger than 0.100000
B(  0-S ,  1-C ) :   1.1802 B(  0-S ,  4-C ) :   1.2004 B(  1-C ,  2-C ) :   1.5030
B(  1-C ,  4-C ) :   0.1245 B(  1-C , 32-H ) :   0.9708 B(  2-C ,  3-C ) :   1.3240
B(  2-C ,  6-C ) :   1.0338 B(  3-C ,  4-C ) :   1.4877 B(  3-C ,  5-H ) :   0.9833
B(  4-C , 20-C ) :   1.0052 B(  6-C ,  7-H ) :   0.9371 B(  6-C ,  8-H ) :   0.9353
B(  6-C ,  9-C ) :   1.0632 B(  9-C , 10-H ) :   0.9557 B(  9-C , 11-H ) :   0.9566
B(  9-C , 12-C ) :   1.0807 B( 12-C , 13-H ) :   0.9756 B( 12-C , 14-H ) :   0.9723
B( 12-C , 15-H ) :   0.9735 B( 16-S , 17-C ) :   1.1664 B( 16-S , 20-C ) :   1.1444
B( 17-C , 18-C ) :   1.6156 B( 17-C , 33-H ) :   0.9636 B( 18-C , 19-C ) :   1.2136
B( 18-C , 21-H ) :   1.0006 B( 19-C , 20-C ) :   1.6369 B( 19-C , 22-C ) :   1.0719
B( 22-C , 23-H ) :   0.9334 B( 22-C , 24-H ) :   0.9431 B( 22-C , 25-C ) :   1.0313
B( 25-C , 26-H ) :   0.9570 B( 25-C , 27-H ) :   0.9600 B( 25-C , 28-C ) :   1.0946
B( 28-C , 29-H ) :   0.9733 B( 28-C , 30-H ) :   0.9669 B( 28-C , 31-H ) :   0.9723

Dispersion correction           -0.014045174
FINAL SINGLE POINT ENERGY     -1339.858444677440

DIPOLE MOMENT
-------------
                                X             Y             Z
Electronic contribution:    -12.12635      10.48392      -2.54783
Nuclear contribution   :     12.28640     -10.70888       2.58757
                        -----------------------------------------
Total Dipole Moment    :      0.16005      -0.22496       0.03974
                        -----------------------------------------
Magnitude (a.u.)       :      0.27893
Magnitude (Debye)      :      0.70899

Rotational constants in cm-1:     0.020075     0.007916     0.006793
Rotational constants in MHz :   601.839472   237.317437   203.654538

                             ****ORCA TERMINATED NORMALLY****
TOTAL RUN TIME: 0 days 0 hours 0 minutes 21 seconds 208 msec
