                         Program Version 4.2.1 -  RELEASE  -
|  1> ! wB97X-D3 SP def2-SVP
|  2> %pal
|  3> nprocs 24
|  4> end
|  5>
|  6> * xyz 0 1
|  7> S 	 35.4221 	 -28.5572 	 -132.704
|  8> C 	 37.1432 	 -28.7813 	 -132.883
|  9> C 	 37.5531 	 -29.9852 	 -132.331
| 10> C 	 36.4834 	 -30.7873 	 -131.792
| 11> C 	 35.3274 	 -30.0441 	 -131.729
| 12> H 	 36.6561 	 -31.758 	 -131.262
| 13> C 	 39.0239 	 -30.4049 	 -132.107
| 14> H 	 39.1594 	 -30.8954 	 -131.108
| 15> H 	 39.6804 	 -29.532 	 -132.046
| 16> C 	 39.7052 	 -31.2581 	 -133.274
| 17> H 	 40.6251 	 -31.7824 	 -132.976
| 18> H 	 39.0977 	 -32.0744 	 -133.623
| 19> C 	 40.0539 	 -30.4038 	 -134.493
| 20> H 	 40.4765 	 -30.8731 	 -135.378
| 21> H 	 39.0676 	 -30.0279 	 -134.761
| 22> H 	 40.5561 	 -29.5186 	 -134.28
| 23> S 	 33.2108 	 -31.8349 	 -131.363
| 24> C 	 32.1283 	 -31.6177 	 -130.055
| 25> C 	 32.348 	 -30.4396 	 -129.37
| 26> C 	 33.5485 	 -29.751 	 -129.813
| 27> C 	 34.1583 	 -30.4004 	 -130.857
| 28> H 	 31.7942 	 -30.2008 	 -128.485
| 29> C 	 34.1917 	 -28.7426 	 -128.883
| 30> H 	 33.3713 	 -28.33 	 -128.392
| 31> H 	 34.654 	 -27.9174 	 -129.516
| 32> C 	 35.162 	 -29.2626 	 -127.855
| 33> H 	 36.1392 	 -29.4078 	 -128.308
| 34> H 	 34.6702 	 -30.1843 	 -127.539
| 35> C 	 35.3176 	 -28.3813 	 -126.6
| 36> H 	 35.9135 	 -28.8161 	 -125.872
| 37> H 	 34.3444 	 -28.1019 	 -126.136
| 38> H 	 35.8313 	 -27.5121 	 -126.892
| 39> H 	 37.8911 	 -28.0756 	 -133.244
| 40> H 	 31.3572 	 -32.2888 	 -129.794
| 41> *
| 42>
| 43>                          ****END OF INPUT****

CARTESIAN COORDINATES (ANGSTROEM)
---------------------------------
  S     35.422100  -28.557200  -132.704000
  C     37.143200  -28.781300  -132.883000
  C     37.553100  -29.985200  -132.331000
  C     36.483400  -30.787300  -131.792000
  C     35.327400  -30.044100  -131.729000
  H     36.656100  -31.758000  -131.262000
  C     39.023900  -30.404900  -132.107000
  H     39.159400  -30.895400  -131.108000
  H     39.680400  -29.532000  -132.046000
  C     39.705200  -31.258100  -133.274000
  H     40.625100  -31.782400  -132.976000
  H     39.097700  -32.074400  -133.623000
  C     40.053900  -30.403800  -134.493000
  H     40.476500  -30.873100  -135.378000
  H     39.067600  -30.027900  -134.761000
  H     40.556100  -29.518600  -134.280000
  S     33.210800  -31.834900  -131.363000
  C     32.128300  -31.617700  -130.055000
  C     32.348000  -30.439600  -129.370000
  C     33.548500  -29.751000  -129.813000
  C     34.158300  -30.400400  -130.857000
  H     31.794200  -30.200800  -128.485000
  C     34.191700  -28.742600  -128.883000
  H     33.371300  -28.330000  -128.392000
  H     34.654000  -27.917400  -129.516000
  C     35.162000  -29.262600  -127.855000
  H     36.139200  -29.407800  -128.308000
  H     34.670200  -30.184300  -127.539000
  C     35.317600  -28.381300  -126.600000
  H     35.913500  -28.816100  -125.872000
  H     34.344400  -28.101900  -126.136000
  H     35.831300  -27.512100  -126.892000
  H     37.891100  -28.075600  -133.244000
  H     31.357200  -32.288800  -129.794000

 Total Charge           Charge          ....    0
 Multiplicity           Mult            ....    1
 Number of Electrons    NEL             ....  134
 Basis Dimension        Dim             ....  322

ORBITAL ENERGIES
----------------

  NO   OCC          E(Eh)            E(eV)
   0   2.0000     -88.971853     -2421.0472
   1   2.0000     -88.964111     -2420.8365
   2   2.0000     -10.336480      -281.2699
   3   2.0000     -10.329316      -281.0750
   4   2.0000     -10.316899      -280.7371
   5   2.0000     -10.314206      -280.6638
   6   2.0000     -10.306419      -280.4519
   7   2.0000     -10.303943      -280.3845
   8   2.0000     -10.302925      -280.3568
   9   2.0000     -10.301652      -280.3222
  10   2.0000     -10.293181      -280.0917
  11   2.0000     -10.288260      -279.9578
  12   2.0000     -10.285221      -279.8751
  13   2.0000     -10.282329      -279.7964
  14   2.0000     -10.270548      -279.4758
  15   2.0000     -10.267498      -279.3928
  16   2.0000      -8.085760      -220.0247
  17   2.0000      -8.079111      -219.8438
  18   2.0000      -6.044394      -164.4763
  19   2.0000      -6.040439      -164.3687
  20   2.0000      -6.037528      -164.2895
  21   2.0000      -6.036349      -164.2574
  22   2.0000      -6.033550      -164.1812
  23   2.0000      -6.029985      -164.0842
  24   2.0000      -1.003237       -27.2995
  25   2.0000      -0.984397       -26.7868
  26   2.0000      -0.912681       -24.8353
  27   2.0000      -0.902041       -24.5458
  28   2.0000      -0.864922       -23.5357
  29   2.0000      -0.852672       -23.2024
  30   2.0000      -0.848685       -23.0939
  31   2.0000      -0.812244       -22.1023
  32   2.0000      -0.784645       -21.3513
  33   2.0000      -0.772056       -21.0087
  34   2.0000      -0.706888       -19.2354
  35   2.0000      -0.699872       -19.0445
  36   2.0000      -0.689935       -18.7741
  37   2.0000      -0.666976       -18.1493
  38   2.0000      -0.635942       -17.3049
  39   2.0000      -0.617387       -16.8000
  40   2.0000      -0.593510       -16.1502
  41   2.0000      -0.572401       -15.5758
  42   2.0000      -0.566779       -15.4228
  43   2.0000      -0.548169       -14.9164
  44   2.0000      -0.533730       -14.5235
  45   2.0000      -0.523515       -14.2456
  46   2.0000      -0.517947       -14.0940
  47   2.0000      -0.512132       -13.9358
  48   2.0000      -0.503327       -13.6962
  49   2.0000      -0.497942       -13.5497
  50   2.0000      -0.489158       -13.3107
  51   2.0000      -0.476499       -12.9662
  52   2.0000      -0.473155       -12.8752
  53   2.0000      -0.466895       -12.7049
  54   2.0000      -0.457672       -12.4539
  55   2.0000      -0.452406       -12.3106
  56   2.0000      -0.445487       -12.1223
  57   2.0000      -0.437676       -11.9098
  58   2.0000      -0.434510       -11.8236
  59   2.0000      -0.428357       -11.6562
  60   2.0000      -0.423376       -11.5206
  61   2.0000      -0.408964       -11.1285
  62   2.0000      -0.407833       -11.0977
  63   2.0000      -0.343307        -9.3418
  64   2.0000      -0.330821        -9.0021
  65   2.0000      -0.327542        -8.9129
  66   2.0000      -0.301627        -8.2077
  67   0.0000       0.030333         0.8254
  68   0.0000       0.065581         1.7845
  69   0.0000       0.105480         2.8703
  70   0.0000       0.111037         3.0215
  71   0.0000       0.129213         3.5161

MULLIKEN ATOMIC CHARGES
-----------------------
   0 S :    0.129439
   1 C :   -0.108157
   2 C :   -0.100460
   3 C :    0.032881
   4 C :   -0.140311
   5 H :    0.043374
   6 C :    0.016727
   7 H :    0.043112
   8 H :    0.023767
   9 C :   -0.053581
  10 H :    0.026061
  11 H :    0.024620
  12 C :   -0.040366
  13 H :    0.042722
  14 H :    0.012261
  15 H :    0.005661
  16 S :    0.106813
  17 C :   -0.072341
  18 C :   -0.038602
  19 C :   -0.049527
  20 C :   -0.177619
  21 H :    0.015796
  22 C :    0.074862
  23 H :   -0.006430
  24 H :    0.032515
  25 C :   -0.046258
  26 H :    0.034783
  27 H :    0.021151
  28 C :   -0.016383
  29 H :    0.020061
  30 H :    0.029489
  31 H :    0.017060
  32 H :    0.052210
  33 H :    0.044671
Sum of atomic charges:   -0.0000000

LOEWDIN ATOMIC CHARGES
----------------------
   0 S :    0.400444
   1 C :   -0.206190
   2 C :   -0.064934
   3 C :   -0.058946
   4 C :   -0.184194
   5 H :    0.044778
   6 C :   -0.031224
   7 H :    0.036694
   8 H :    0.029184
   9 C :   -0.038971
  10 H :    0.020911
  11 H :    0.020753
  12 C :   -0.069205
  13 H :    0.028865
  14 H :    0.025906
  15 H :    0.010949
  16 S :    0.402959
  17 C :   -0.183265
  18 C :   -0.072403
  19 C :   -0.057445
  20 C :   -0.185031
  21 H :    0.027616
  22 C :   -0.031757
  23 H :    0.017703
  24 H :    0.033169
  25 C :   -0.033468
  26 H :    0.027386
  27 H :    0.024431
  28 C :   -0.055156
  29 H :    0.017977
  30 H :    0.028059
  31 H :    0.019064
  32 H :    0.032931
  33 H :    0.022408

  Mayer bond orders larger than 0.100000
B(  0-S ,  1-C ) :   1.1205 B(  0-S ,  4-C ) :   1.1397 B(  1-C ,  2-C ) :   1.6445
B(  1-C , 32-H ) :   0.9601 B(  2-C ,  3-C ) :   1.2282 B(  2-C ,  6-C ) :   1.0183
B(  3-C ,  4-C ) :   1.5898 B(  3-C ,  5-H ) :   0.9815 B(  4-C , 20-C ) :   1.0146
B(  6-C ,  7-H ) :   0.9521 B(  6-C ,  8-H ) :   0.9517 B(  6-C ,  9-C ) :   1.0448
B(  9-C , 10-H ) :   0.9599 B(  9-C , 11-H ) :   0.9618 B(  9-C , 12-C ) :   1.0699
B( 12-C , 13-H ) :   0.9742 B( 12-C , 14-H ) :   0.9723 B( 12-C , 15-H ) :   0.9753
B( 16-S , 17-C ) :   1.1651 B( 16-S , 20-C ) :   1.1293 B( 17-C , 18-C ) :   1.6205
B( 17-C , 33-H ) :   0.9699 B( 18-C , 19-C ) :   1.2192 B( 18-C , 21-H ) :   0.9894
B( 19-C , 20-C ) :   1.6243 B( 19-C , 22-C ) :   1.0638 B( 22-C , 23-H ) :   0.9262
B( 22-C , 24-H ) :   0.9223 B( 22-C , 25-C ) :   1.0676 B( 25-C , 26-H ) :   0.9519
B( 25-C , 27-H ) :   0.9536 B( 25-C , 28-C ) :   1.0908 B( 28-C , 29-H ) :   0.9733
B( 28-C , 30-H ) :   0.9738 B( 28-C , 31-H ) :   0.9743

Dispersion correction           -0.014435751
FINAL SINGLE POINT ENERGY     -1339.865019593551

DIPOLE MOMENT
-------------
                                X             Y             Z
Electronic contribution:    -20.05087      -3.42957      -9.68122
Nuclear contribution   :     20.41390       3.41909      10.23407
                        -----------------------------------------
Total Dipole Moment    :      0.36304      -0.01048       0.55286
                        -----------------------------------------
Magnitude (a.u.)       :      0.66148
Magnitude (Debye)      :      1.68135

Rotational constants in cm-1:     0.019798     0.007740     0.006662
Rotational constants in MHz :   593.516667   232.042885   199.732606

                             ****ORCA TERMINATED NORMALLY****
TOTAL RUN TIME: 0 days 0 hours 0 minutes 21 seconds 182 msec
