                         Program Version 4.2.1 -  RELEASE  -
|  1> ! wB97X-D3 SP def2-SVP
|  2> %pal
|  3> nprocs 24
|  4> end
|  5>
|  6> * xyz 0 1
|  7> S 	 -97.5987 	 -24.2884 	 -65.6472
|  8> C 	 -98.9233 	 -23.1991 	 -66.09
|  9> C 	 -99.8662 	 -23.0088 	 -65.0649
| 10> C 	 -99.4161 	 -23.6696 	 -63.8458
| 11> C 	 -98.2683 	 -24.4658 	 -64.0127
| 12> H 	 -99.9449 	 -23.5956 	 -62.9074
| 13> C 	 -101.026 	 -22.0749 	 -65.2223
| 14> H 	 -101.911 	 -22.423 	 -64.6213
| 15> H 	 -101.297 	 -22.0956 	 -66.2849
| 16> C 	 -100.625 	 -20.6001 	 -65.0151
| 17> H 	 -100.369 	 -20.6143 	 -63.8901
| 18> H 	 -99.7598 	 -20.3354 	 -65.6151
| 19> C 	 -101.77 	 -19.6854 	 -65.3295
| 20> H 	 -101.522 	 -18.6907 	 -65.1329
| 21> H 	 -101.941 	 -19.5964 	 -66.4361
| 22> H 	 -102.7 	 -19.9723 	 -64.8541
| 23> S 	 -97.3181 	 -26.9812 	 -63.6247
| 24> C 	 -96.8288 	 -27.4167 	 -61.9923
| 25> C 	 -96.7739 	 -26.3651 	 -61.1219
| 26> C 	 -97.2764 	 -25.14 	 -61.6745
| 27> C 	 -97.6312 	 -25.3307 	 -63.0072
| 28> H 	 -96.2844 	 -26.3716 	 -60.1062
| 29> C 	 -97.374 	 -23.8605 	 -60.8108
| 30> H 	 -96.6419 	 -23.946 	 -59.9191
| 31> H 	 -98.3508 	 -23.8409 	 -60.2589
| 32> C 	 -97.086 	 -22.4749 	 -61.4708
| 33> H 	 -97.9501 	 -22.1106 	 -62.0586
| 34> H 	 -96.3256 	 -22.7134 	 -62.2154
| 35> C 	 -96.5754 	 -21.3641 	 -60.5078
| 36> H 	 -96.4312 	 -20.4324 	 -61.1355
| 37> H 	 -95.7214 	 -21.5696 	 -59.8743
| 38> H 	 -97.4075 	 -21.1316 	 -59.8182
| 39> H 	 -99.0124 	 -22.7725 	 -67.0857
| 40> H 	 -96.3244 	 -28.296 	 -61.8258
| 41> *
| 42>
| 43>                          ****END OF INPUT****

CARTESIAN COORDINATES (ANGSTROEM)
---------------------------------
  S    -97.598700  -24.288400  -65.647200
  C    -98.923300  -23.199100  -66.090000
  C    -99.866200  -23.008800  -65.064900
  C    -99.416100  -23.669600  -63.845800
  C    -98.268300  -24.465800  -64.012700
  H    -99.944900  -23.595600  -62.907400
  C    -101.026000  -22.074900  -65.222300
  H    -101.911000  -22.423000  -64.621300
  H    -101.297000  -22.095600  -66.284900
  C    -100.625000  -20.600100  -65.015100
  H    -100.369000  -20.614300  -63.890100
  H    -99.759800  -20.335400  -65.615100
  C    -101.770000  -19.685400  -65.329500
  H    -101.522000  -18.690700  -65.132900
  H    -101.941000  -19.596400  -66.436100
  H    -102.700000  -19.972300  -64.854100
  S    -97.318100  -26.981200  -63.624700
  C    -96.828800  -27.416700  -61.992300
  C    -96.773900  -26.365100  -61.121900
  C    -97.276400  -25.140000  -61.674500
  C    -97.631200  -25.330700  -63.007200
  H    -96.284400  -26.371600  -60.106200
  C    -97.374000  -23.860500  -60.810800
  H    -96.641900  -23.946000  -59.919100
  H    -98.350800  -23.840900  -60.258900
  C    -97.086000  -22.474900  -61.470800
  H    -97.950100  -22.110600  -62.058600
  H    -96.325600  -22.713400  -62.215400
  C    -96.575400  -21.364100  -60.507800
  H    -96.431200  -20.432400  -61.135500
  H    -95.721400  -21.569600  -59.874300
  H    -97.407500  -21.131600  -59.818200
  H    -99.012400  -22.772500  -67.085700
  H    -96.324400  -28.296000  -61.825800

 Total Charge           Charge          ....    0
 Multiplicity           Mult            ....    1
 Number of Electrons    NEL             ....  134
 Basis Dimension        Dim             ....  322

ORBITAL ENERGIES
----------------

  NO   OCC          E(Eh)            E(eV)
   0   2.0000     -88.968613     -2420.9591
   1   2.0000     -88.966079     -2420.8901
   2   2.0000     -10.333781      -281.1965
   3   2.0000     -10.331387      -281.1313
   4   2.0000     -10.316751      -280.7331
   5   2.0000     -10.310565      -280.5647
   6   2.0000     -10.309331      -280.5312
   7   2.0000     -10.307167      -280.4723
   8   2.0000     -10.305450      -280.4255
   9   2.0000     -10.299499      -280.2636
  10   2.0000     -10.298558      -280.2380
  11   2.0000     -10.295670      -280.1594
  12   2.0000     -10.292789      -280.0810
  13   2.0000     -10.288185      -279.9558
  14   2.0000     -10.285180      -279.8740
  15   2.0000     -10.276219      -279.6301
  16   2.0000      -8.082380      -219.9327
  17   2.0000      -8.080344      -219.8773
  18   2.0000      -6.040936      -164.3822
  19   2.0000      -6.038822      -164.3247
  20   2.0000      -6.037048      -164.2764
  21   2.0000      -6.035183      -164.2257
  22   2.0000      -6.033134      -164.1699
  23   2.0000      -6.030892      -164.1089
  24   2.0000      -0.998673       -27.1753
  25   2.0000      -0.975693       -26.5499
  26   2.0000      -0.915996       -24.9255
  27   2.0000      -0.897627       -24.4257
  28   2.0000      -0.866205       -23.5706
  29   2.0000      -0.848716       -23.0947
  30   2.0000      -0.845568       -23.0091
  31   2.0000      -0.811420       -22.0799
  32   2.0000      -0.780152       -21.2290
  33   2.0000      -0.767988       -20.8980
  34   2.0000      -0.706448       -19.2234
  35   2.0000      -0.697159       -18.9706
  36   2.0000      -0.686833       -18.6897
  37   2.0000      -0.661249       -17.9935
  38   2.0000      -0.638619       -17.3777
  39   2.0000      -0.615601       -16.7513
  40   2.0000      -0.596185       -16.2230
  41   2.0000      -0.576849       -15.6969
  42   2.0000      -0.556438       -15.1415
  43   2.0000      -0.552261       -15.0278
  44   2.0000      -0.527717       -14.3599
  45   2.0000      -0.518075       -14.0975
  46   2.0000      -0.516479       -14.0541
  47   2.0000      -0.506112       -13.7720
  48   2.0000      -0.501568       -13.6484
  49   2.0000      -0.490391       -13.3442
  50   2.0000      -0.488108       -13.2821
  51   2.0000      -0.480546       -13.0763
  52   2.0000      -0.475401       -12.9363
  53   2.0000      -0.459660       -12.5080
  54   2.0000      -0.456748       -12.4287
  55   2.0000      -0.449740       -12.2381
  56   2.0000      -0.448430       -12.2024
  57   2.0000      -0.441487       -12.0135
  58   2.0000      -0.430335       -11.7100
  59   2.0000      -0.426378       -11.6023
  60   2.0000      -0.422959       -11.5093
  61   2.0000      -0.414770       -11.2865
  62   2.0000      -0.408136       -11.1060
  63   2.0000      -0.344290        -9.3686
  64   2.0000      -0.331928        -9.0322
  65   2.0000      -0.328788        -8.9468
  66   2.0000      -0.288590        -7.8529
  67   0.0000       0.027090         0.7372
  68   0.0000       0.064358         1.7513
  69   0.0000       0.103473         2.8156
  70   0.0000       0.118262         3.2181
  71   0.0000       0.124419         3.3856

MULLIKEN ATOMIC CHARGES
-----------------------
   0 S :    0.108589
   1 C :   -0.133081
   2 C :   -0.082315
   3 C :    0.034857
   4 C :   -0.144853
   5 H :    0.012275
   6 C :    0.030977
   7 H :    0.043658
   8 H :    0.015658
   9 C :   -0.092851
  10 H :    0.036092
  11 H :    0.034083
  12 C :   -0.002804
  13 H :    0.018212
  14 H :    0.025507
  15 H :    0.031911
  16 S :    0.095657
  17 C :   -0.045461
  18 C :   -0.053064
  19 C :   -0.012359
  20 C :   -0.173771
  21 H :    0.040734
  22 C :    0.004849
  23 H :    0.026881
  24 H :    0.047523
  25 C :   -0.081787
  26 H :    0.044083
  27 H :    0.037718
  28 C :   -0.065399
  29 H :    0.048126
  30 H :    0.040385
  31 H :    0.028525
  32 H :    0.050978
  33 H :    0.030468
Sum of atomic charges:   -0.0000000

LOEWDIN ATOMIC CHARGES
----------------------
   0 S :    0.387900
   1 C :   -0.193744
   2 C :   -0.059070
   3 C :   -0.060891
   4 C :   -0.190205
   5 H :    0.029022
   6 C :   -0.040730
   7 H :    0.036466
   8 H :    0.029333
   9 C :   -0.039825
  10 H :    0.029886
  11 H :    0.026126
  12 C :   -0.065446
  13 H :    0.019317
  14 H :    0.031276
  15 H :    0.025469
  16 S :    0.385293
  17 C :   -0.170171
  18 C :   -0.068764
  19 C :   -0.057874
  20 C :   -0.181877
  21 H :    0.042849
  22 C :   -0.042721
  23 H :    0.037059
  24 H :    0.035473
  25 C :   -0.048457
  26 H :    0.027829
  27 H :    0.026230
  28 C :   -0.070942
  29 H :    0.037439
  30 H :    0.022628
  31 H :    0.025305
  32 H :    0.025655
  33 H :    0.010163

  Mayer bond orders larger than 0.100000
B(  0-S ,  1-C ) :   1.1342 B(  0-S ,  4-C ) :   1.1447 B(  1-C ,  2-C ) :   1.6034
B(  1-C , 32-H ) :   0.9658 B(  2-C ,  3-C ) :   1.2372 B(  2-C ,  6-C ) :   1.0412
B(  3-C ,  4-C ) :   1.5711 B(  3-C ,  5-H ) :   0.9925 B(  4-C , 20-C ) :   1.0340
B(  6-C ,  7-H ) :   0.9414 B(  6-C ,  8-H ) :   0.9345 B(  6-C ,  9-C ) :   1.0547
B(  9-C , 10-H ) :   0.9538 B(  9-C , 11-H ) :   0.9551 B(  9-C , 12-C ) :   1.0912
B( 12-C , 13-H ) :   0.9684 B( 12-C , 14-H ) :   0.9674 B( 12-C , 15-H ) :   0.9716
B( 16-S , 17-C ) :   1.1367 B( 16-S , 20-C ) :   1.1340 B( 17-C , 18-C ) :   1.6377
B( 17-C , 33-H ) :   0.9711 B( 18-C , 19-C ) :   1.2340 B( 18-C , 21-H ) :   0.9738
B( 19-C , 20-C ) :   1.6176 B( 19-C , 22-C ) :   1.0296 B( 22-C , 23-H ) :   0.9437
B( 22-C , 24-H ) :   0.9294 B( 22-C , 25-C ) :   1.0459 B( 25-C , 26-H ) :   0.9467
B( 25-C , 27-H ) :   0.9615 B( 25-C , 28-C ) :   1.0841 B( 28-C , 29-H ) :   0.9738
B( 28-C , 30-H ) :   0.9752 B( 28-C , 31-H ) :   0.9752

Dispersion correction           -0.014327667
FINAL SINGLE POINT ENERGY     -1339.877493435272

DIPOLE MOMENT
-------------
                                X             Y             Z
Electronic contribution:      9.99480     -28.02836      -9.35162
Nuclear contribution   :    -10.19421      28.62279       9.66509
                        -----------------------------------------
Total Dipole Moment    :     -0.19941       0.59442       0.31348
                        -----------------------------------------
Magnitude (a.u.)       :      0.70098
Magnitude (Debye)      :      1.78175

Rotational constants in cm-1:     0.018905     0.008542     0.006548
Rotational constants in MHz :   566.772218   256.088246   196.314165

                             ****ORCA TERMINATED NORMALLY****
TOTAL RUN TIME: 0 days 0 hours 0 minutes 21 seconds 425 msec
