                         Program Version 4.2.1 -  RELEASE  -
|  1> ! wB97X-D3 SP def2-SVP
|  2> %pal
|  3> nprocs 24
|  4> end
|  5>
|  6> * xyz 0 1
|  7> S 	 -63.2138 	 -47.4237 	 -83.0553
|  8> C 	 -61.6592 	 -48.0785 	 -83.1941
|  9> C 	 -61.3515 	 -48.8503 	 -82.0562
| 10> C 	 -62.4544 	 -48.932 	 -81.1782
| 11> C 	 -63.5815 	 -48.2419 	 -81.5852
| 12> H 	 -62.4114 	 -49.4922 	 -80.2755
| 13> C 	 -60.0305 	 -49.5514 	 -81.7853
| 14> H 	 -59.8878 	 -49.4492 	 -80.6871
| 15> H 	 -59.2926 	 -49.0247 	 -82.2109
| 16> C 	 -60.0186 	 -51.0642 	 -82.0047
| 17> H 	 -59.0603 	 -51.4065 	 -81.725
| 18> H 	 -60.7512 	 -51.6199 	 -81.363
| 19> C 	 -60.2652 	 -51.4422 	 -83.4774
| 20> H 	 -61.3371 	 -51.1356 	 -83.735
| 21> H 	 -59.5941 	 -50.8322 	 -84.055
| 22> H 	 -60.0489 	 -52.4938 	 -83.6461
| 23> S 	 -65.395 	 -46.6359 	 -80.3952
| 24> C 	 -66.607 	 -47.2029 	 -79.3885
| 25> C 	 -66.6554 	 -48.5677 	 -79.4804
| 26> C 	 -65.5797 	 -49.216 	 -80.2336
| 27> C 	 -64.8636 	 -48.1995 	 -80.857
| 28> H 	 -67.4178 	 -49.0709 	 -78.9176
| 29> C 	 -65.4842 	 -50.646 	 -80.401
| 30> H 	 -65.69 	 -50.8981 	 -79.3527
| 31> H 	 -64.5184 	 -51.0341 	 -80.6692
| 32> C 	 -66.4596 	 -51.2214 	 -81.4455
| 33> H 	 -67.4832 	 -50.9504 	 -81.1873
| 34> H 	 -66.5722 	 -52.3028 	 -81.399
| 35> C 	 -66.1215 	 -50.7494 	 -82.8722
| 36> H 	 -66.1968 	 -49.6951 	 -82.9615
| 37> H 	 -66.8831 	 -51.0849 	 -83.5547
| 38> H 	 -65.0862 	 -51.0206 	 -83.2039
| 39> H 	 -60.9487 	 -47.7859 	 -84.0328
| 40> H 	 -67.1368 	 -46.5013 	 -78.6864
| 41> *
| 42>
| 43>                          ****END OF INPUT****

CARTESIAN COORDINATES (ANGSTROEM)
---------------------------------
  S    -63.213800  -47.423700  -83.055300
  C    -61.659200  -48.078500  -83.194100
  C    -61.351500  -48.850300  -82.056200
  C    -62.454400  -48.932000  -81.178200
  C    -63.581500  -48.241900  -81.585200
  H    -62.411400  -49.492200  -80.275500
  C    -60.030500  -49.551400  -81.785300
  H    -59.887800  -49.449200  -80.687100
  H    -59.292600  -49.024700  -82.210900
  C    -60.018600  -51.064200  -82.004700
  H    -59.060300  -51.406500  -81.725000
  H    -60.751200  -51.619900  -81.363000
  C    -60.265200  -51.442200  -83.477400
  H    -61.337100  -51.135600  -83.735000
  H    -59.594100  -50.832200  -84.055000
  H    -60.048900  -52.493800  -83.646100
  S    -65.395000  -46.635900  -80.395200
  C    -66.607000  -47.202900  -79.388500
  C    -66.655400  -48.567700  -79.480400
  C    -65.579700  -49.216000  -80.233600
  C    -64.863600  -48.199500  -80.857000
  H    -67.417800  -49.070900  -78.917600
  C    -65.484200  -50.646000  -80.401000
  H    -65.690000  -50.898100  -79.352700
  H    -64.518400  -51.034100  -80.669200
  C    -66.459600  -51.221400  -81.445500
  H    -67.483200  -50.950400  -81.187300
  H    -66.572200  -52.302800  -81.399000
  C    -66.121500  -50.749400  -82.872200
  H    -66.196800  -49.695100  -82.961500
  H    -66.883100  -51.084900  -83.554700
  H    -65.086200  -51.020600  -83.203900
  H    -60.948700  -47.785900  -84.032800
  H    -67.136800  -46.501300  -78.686400

 Total Charge           Charge          ....    0
 Multiplicity           Mult            ....    1
 Number of Electrons    NEL             ....  134
 Basis Dimension        Dim             ....  322

ORBITAL ENERGIES
----------------

  NO   OCC          E(Eh)            E(eV)
   0   2.0000     -88.965655     -2420.8785
   1   2.0000     -88.958986     -2420.6971
   2   2.0000     -10.325518      -280.9716
   3   2.0000     -10.322964      -280.9021
   4   2.0000     -10.315288      -280.6933
   5   2.0000     -10.314793      -280.6798
   6   2.0000     -10.303816      -280.3811
   7   2.0000     -10.298282      -280.2305
   8   2.0000     -10.292520      -280.0737
   9   2.0000     -10.288041      -279.9518
  10   2.0000     -10.286411      -279.9075
  11   2.0000     -10.286091      -279.8988
  12   2.0000     -10.285002      -279.8691
  13   2.0000     -10.284234      -279.8482
  14   2.0000     -10.276474      -279.6371
  15   2.0000     -10.271128      -279.4916
  16   2.0000      -8.081601      -219.9115
  17   2.0000      -8.076346      -219.7685
  18   2.0000      -6.039917      -164.3545
  19   2.0000      -6.035749      -164.2411
  20   2.0000      -6.034614      -164.2102
  21   2.0000      -6.032691      -164.1579
  22   2.0000      -6.030334      -164.0937
  23   2.0000      -6.027343      -164.0123
  24   2.0000      -1.015723       -27.6392
  25   2.0000      -0.994682       -27.0667
  26   2.0000      -0.918891       -25.0043
  27   2.0000      -0.913634       -24.8612
  28   2.0000      -0.868241       -23.6260
  29   2.0000      -0.851325       -23.1657
  30   2.0000      -0.846431       -23.0326
  31   2.0000      -0.811636       -22.0857
  32   2.0000      -0.785549       -21.3759
  33   2.0000      -0.774527       -21.0760
  34   2.0000      -0.709981       -19.3196
  35   2.0000      -0.699381       -19.0311
  36   2.0000      -0.686845       -18.6900
  37   2.0000      -0.660392       -17.9702
  38   2.0000      -0.638941       -17.3865
  39   2.0000      -0.627035       -17.0625
  40   2.0000      -0.603998       -16.4356
  41   2.0000      -0.566442       -15.4137
  42   2.0000      -0.558580       -15.1997
  43   2.0000      -0.548336       -14.9210
  44   2.0000      -0.542711       -14.7679
  45   2.0000      -0.536953       -14.6112
  46   2.0000      -0.518361       -14.1053
  47   2.0000      -0.512916       -13.9572
  48   2.0000      -0.500199       -13.6111
  49   2.0000      -0.498898       -13.5757
  50   2.0000      -0.487166       -13.2564
  51   2.0000      -0.480991       -13.0884
  52   2.0000      -0.473289       -12.8788
  53   2.0000      -0.466263       -12.6877
  54   2.0000      -0.463665       -12.6170
  55   2.0000      -0.443087       -12.0570
  56   2.0000      -0.441838       -12.0230
  57   2.0000      -0.437751       -11.9118
  58   2.0000      -0.437508       -11.9052
  59   2.0000      -0.421846       -11.4790
  60   2.0000      -0.420594       -11.4450
  61   2.0000      -0.415083       -11.2950
  62   2.0000      -0.410418       -11.1681
  63   2.0000      -0.349619        -9.5136
  64   2.0000      -0.328866        -8.9489
  65   2.0000      -0.324789        -8.8379
  66   2.0000      -0.291905        -7.9431
  67   0.0000       0.040590         1.1045
  68   0.0000       0.073915         2.0113
  69   0.0000       0.116199         3.1619
  70   0.0000       0.123161         3.3514
  71   0.0000       0.134496         3.6598

MULLIKEN ATOMIC CHARGES
-----------------------
   0 S :    0.126399
   1 C :   -0.154017
   2 C :   -0.125607
   3 C :    0.035241
   4 C :   -0.146189
   5 H :   -0.003615
   6 C :    0.115759
   7 H :    0.025535
   8 H :   -0.009873
   9 C :   -0.061289
  10 H :    0.015878
  11 H :    0.031809
  12 C :   -0.059668
  13 H :    0.056203
  14 H :    0.016341
  15 H :    0.039002
  16 S :    0.109183
  17 C :   -0.110654
  18 C :   -0.046641
  19 C :   -0.045998
  20 C :   -0.147553
  21 H :    0.008696
  22 C :    0.079664
  23 H :    0.029727
  24 H :    0.017603
  25 C :   -0.054215
  26 H :    0.011817
  27 H :    0.026697
  28 C :   -0.040136
  29 H :    0.029309
  30 H :    0.028585
  31 H :    0.041227
  32 H :    0.076182
  33 H :    0.084599
Sum of atomic charges:   -0.0000000

LOEWDIN ATOMIC CHARGES
----------------------
   0 S :    0.445317
   1 C :   -0.235306
   2 C :   -0.065887
   3 C :   -0.064504
   4 C :   -0.210712
   5 H :    0.024775
   6 C :   -0.021495
   7 H :    0.039772
   8 H :    0.010888
   9 C :   -0.036552
  10 H :    0.016066
  11 H :    0.026211
  12 C :   -0.066942
  13 H :    0.035597
  14 H :    0.017510
  15 H :    0.024395
  16 S :    0.446269
  17 C :   -0.218161
  18 C :   -0.075221
  19 C :   -0.052918
  20 C :   -0.210394
  21 H :    0.024093
  22 C :   -0.036500
  23 H :    0.040193
  24 H :    0.028361
  25 C :   -0.034850
  26 H :    0.021493
  27 H :    0.023190
  28 C :   -0.062620
  29 H :    0.021597
  30 H :    0.026606
  31 H :    0.031147
  32 H :    0.043378
  33 H :    0.045203

  Mayer bond orders larger than 0.100000
B(  0-S ,  1-C ) :   1.1713 B(  0-S ,  4-C ) :   1.1817 B(  1-C ,  2-C ) :   1.5440
B(  1-C ,  4-C ) :   0.1024 B(  1-C , 32-H ) :   0.9626 B(  2-C ,  3-C ) :   1.2979
B(  2-C ,  6-C ) :   1.0245 B(  3-C ,  4-C ) :   1.5279 B(  3-C ,  5-H ) :   1.0028
B(  4-C , 20-C ) :   1.0010 B(  6-C ,  7-H ) :   0.9348 B(  6-C ,  8-H ) :   0.9379
B(  6-C ,  9-C ) :   1.0766 B(  9-C , 10-H ) :   0.9529 B(  9-C , 11-H ) :   0.9558
B(  9-C , 12-C ) :   1.0734 B( 12-C , 13-H ) :   0.9738 B( 12-C , 14-H ) :   0.9758
B( 12-C , 15-H ) :   0.9747 B( 16-S , 17-C ) :   1.1778 B( 16-S , 20-C ) :   1.1743
B( 17-C , 18-C ) :   1.5862 B( 17-C , 33-H ) :   0.9638 B( 18-C , 19-C ) :   1.2332
B( 18-C , 21-H ) :   0.9921 B( 19-C , 20-C ) :   1.5650 B( 19-C , 22-C ) :   1.0571
B( 22-C , 23-H ) :   0.9200 B( 22-C , 24-H ) :   0.9363 B( 22-C , 25-C ) :   1.0709
B( 25-C , 26-H ) :   0.9518 B( 25-C , 27-H ) :   0.9564 B( 25-C , 28-C ) :   1.0728
B( 28-C , 29-H ) :   0.9731 B( 28-C , 30-H ) :   0.9696 B( 28-C , 31-H ) :   0.9749

Dispersion correction           -0.015687008
FINAL SINGLE POINT ENERGY     -1339.878145096003

DIPOLE MOMENT
-------------
                                X             Y             Z
Electronic contribution:     -7.40428      24.03525       4.21318
Nuclear contribution   :      7.56945     -24.50512      -3.91494
                        -----------------------------------------
Total Dipole Moment    :      0.16517      -0.46987       0.29824
                        -----------------------------------------
Magnitude (a.u.)       :      0.58052
Magnitude (Debye)      :      1.47557

Rotational constants in cm-1:     0.020916     0.009155     0.007679
Rotational constants in MHz :   627.057850   274.465690   230.221694

                             ****ORCA TERMINATED NORMALLY****
TOTAL RUN TIME: 0 days 0 hours 0 minutes 22 seconds 627 msec
