                         Program Version 4.2.1 -  RELEASE  -
|  1> ! wB97X-D3 SP def2-SVP
|  2> %pal
|  3> nprocs 24
|  4> end
|  5>
|  6> * xyz 0 1
|  7> S 	 -105.103 	 36.0948 	 -21.2982
|  8> C 	 -104.294 	 34.5619 	 -21.2464
|  9> C 	 -104.685 	 33.7188 	 -22.2174
| 10> C 	 -105.773 	 34.2524 	 -22.9934
| 11> C 	 -106.023 	 35.5659 	 -22.6785
| 12> H 	 -106.327 	 33.8745 	 -23.821
| 13> C 	 -104.006 	 32.4184 	 -22.5189
| 14> H 	 -102.939 	 32.6308 	 -22.3044
| 15> H 	 -104.061 	 32.055 	 -23.5525
| 16> C 	 -104.408 	 31.3036 	 -21.5607
| 17> H 	 -103.739 	 30.4746 	 -21.7299
| 18> H 	 -104.276 	 31.6455 	 -20.5552
| 19> C 	 -105.826 	 30.905 	 -21.959
| 20> H 	 -106.646 	 31.5417 	 -21.5433
| 21> H 	 -105.941 	 31.1065 	 -23.0273
| 22> H 	 -106.158 	 29.8678 	 -21.634
| 23> S 	 -108.23 	 37.0494 	 -22.0505
| 24> C 	 -109.115 	 37.8885 	 -23.3633
| 25> C 	 -108.296 	 37.9689 	 -24.4956
| 26> C 	 -107.123 	 37.153 	 -24.3946
| 27> C 	 -107.031 	 36.4703 	 -23.1568
| 28> H 	 -108.71 	 38.5418 	 -25.2879
| 29> C 	 -106.147 	 37.083 	 -25.5098
| 30> H 	 -105.141 	 36.8203 	 -25.1248
| 31> H 	 -105.963 	 37.9931 	 -26.1014
| 32> C 	 -106.451 	 36.0484 	 -26.6367
| 33> H 	 -107.475 	 36.1368 	 -27.1448
| 34> H 	 -106.6 	 35.0587 	 -26.1365
| 35> C 	 -105.417 	 35.9161 	 -27.7559
| 36> H 	 -105.065 	 36.8651 	 -28.2121
| 37> H 	 -105.726 	 35.3417 	 -28.6131
| 38> H 	 -104.475 	 35.445 	 -27.5488
| 39> H 	 -103.446 	 34.3825 	 -20.5515
| 40> H 	 -109.981 	 38.5421 	 -23.2945
| 41> *
| 42>
| 43>                          ****END OF INPUT****

CARTESIAN COORDINATES (ANGSTROEM)
---------------------------------
  S    -105.103000   36.094800  -21.298200
  C    -104.294000   34.561900  -21.246400
  C    -104.685000   33.718800  -22.217400
  C    -105.773000   34.252400  -22.993400
  C    -106.023000   35.565900  -22.678500
  H    -106.327000   33.874500  -23.821000
  C    -104.006000   32.418400  -22.518900
  H    -102.939000   32.630800  -22.304400
  H    -104.061000   32.055000  -23.552500
  C    -104.408000   31.303600  -21.560700
  H    -103.739000   30.474600  -21.729900
  H    -104.276000   31.645500  -20.555200
  C    -105.826000   30.905000  -21.959000
  H    -106.646000   31.541700  -21.543300
  H    -105.941000   31.106500  -23.027300
  H    -106.158000   29.867800  -21.634000
  S    -108.230000   37.049400  -22.050500
  C    -109.115000   37.888500  -23.363300
  C    -108.296000   37.968900  -24.495600
  C    -107.123000   37.153000  -24.394600
  C    -107.031000   36.470300  -23.156800
  H    -108.710000   38.541800  -25.287900
  C    -106.147000   37.083000  -25.509800
  H    -105.141000   36.820300  -25.124800
  H    -105.963000   37.993100  -26.101400
  C    -106.451000   36.048400  -26.636700
  H    -107.475000   36.136800  -27.144800
  H    -106.600000   35.058700  -26.136500
  C    -105.417000   35.916100  -27.755900
  H    -105.065000   36.865100  -28.212100
  H    -105.726000   35.341700  -28.613100
  H    -104.475000   35.445000  -27.548800
  H    -103.446000   34.382500  -20.551500
  H    -109.981000   38.542100  -23.294500

 Total Charge           Charge          ....    0
 Multiplicity           Mult            ....    1
 Number of Electrons    NEL             ....  134
 Basis Dimension        Dim             ....  322

ORBITAL ENERGIES
----------------

  NO   OCC          E(Eh)            E(eV)
   0   2.0000     -88.967925     -2420.9403
   1   2.0000     -88.964141     -2420.8373
   2   2.0000     -10.327374      -281.0221
   3   2.0000     -10.325225      -280.9636
   4   2.0000     -10.320439      -280.8334
   5   2.0000     -10.311932      -280.6019
   6   2.0000     -10.307934      -280.4931
   7   2.0000     -10.299735      -280.2700
   8   2.0000     -10.296033      -280.1693
   9   2.0000     -10.294860      -280.1374
  10   2.0000     -10.294657      -280.1318
  11   2.0000     -10.293644      -280.1043
  12   2.0000     -10.291052      -280.0337
  13   2.0000     -10.282169      -279.7920
  14   2.0000     -10.280993      -279.7600
  15   2.0000     -10.276541      -279.6389
  16   2.0000      -8.082081      -219.9246
  17   2.0000      -8.079787      -219.8622
  18   2.0000      -6.040655      -164.3746
  19   2.0000      -6.038197      -164.3077
  20   2.0000      -6.036700      -164.2670
  21   2.0000      -6.034236      -164.1999
  22   2.0000      -6.032748      -164.1594
  23   2.0000      -6.030514      -164.0986
  24   2.0000      -1.012175       -27.5427
  25   2.0000      -0.984625       -26.7930
  26   2.0000      -0.920571       -25.0500
  27   2.0000      -0.903318       -24.5805
  28   2.0000      -0.873189       -23.7607
  29   2.0000      -0.849586       -23.1184
  30   2.0000      -0.845415       -23.0049
  31   2.0000      -0.819051       -22.2875
  32   2.0000      -0.781243       -21.2587
  33   2.0000      -0.768025       -20.8990
  34   2.0000      -0.707617       -19.2552
  35   2.0000      -0.704839       -19.1796
  36   2.0000      -0.693512       -18.8714
  37   2.0000      -0.662173       -18.0187
  38   2.0000      -0.647253       -17.6127
  39   2.0000      -0.614381       -16.7182
  40   2.0000      -0.597623       -16.2621
  41   2.0000      -0.582739       -15.8571
  42   2.0000      -0.556959       -15.1556
  43   2.0000      -0.549102       -14.9418
  44   2.0000      -0.538621       -14.6566
  45   2.0000      -0.522253       -14.2112
  46   2.0000      -0.513602       -13.9758
  47   2.0000      -0.511106       -13.9079
  48   2.0000      -0.508092       -13.8259
  49   2.0000      -0.494341       -13.4517
  50   2.0000      -0.487236       -13.2584
  51   2.0000      -0.480528       -13.0758
  52   2.0000      -0.474813       -12.9203
  53   2.0000      -0.462767       -12.5925
  54   2.0000      -0.459473       -12.5029
  55   2.0000      -0.444529       -12.0962
  56   2.0000      -0.441374       -12.0104
  57   2.0000      -0.438034       -11.9195
  58   2.0000      -0.432938       -11.7809
  59   2.0000      -0.428264       -11.6537
  60   2.0000      -0.423640       -11.5278
  61   2.0000      -0.418082       -11.3766
  62   2.0000      -0.402432       -10.9507
  63   2.0000      -0.343928        -9.3588
  64   2.0000      -0.329700        -8.9716
  65   2.0000      -0.327294        -8.9061
  66   2.0000      -0.298191        -8.1142
  67   0.0000       0.033065         0.8997
  68   0.0000       0.058156         1.5825
  69   0.0000       0.103504         2.8165
  70   0.0000       0.118621         3.2279
  71   0.0000       0.129681         3.5288

MULLIKEN ATOMIC CHARGES
-----------------------
   0 S :    0.110647
   1 C :   -0.136759
   2 C :   -0.050578
   3 C :    0.061376
   4 C :   -0.191725
   5 H :    0.001909
   6 C :    0.010698
   7 H :    0.025770
   8 H :    0.038530
   9 C :   -0.015684
  10 H :    0.027549
  11 H :    0.024086
  12 C :   -0.087985
  13 H :    0.042476
  14 H :    0.023835
  15 H :    0.044302
  16 S :    0.114096
  17 C :   -0.100131
  18 C :   -0.035545
  19 C :    0.018683
  20 C :   -0.161108
  21 H :    0.015525
  22 C :    0.060200
  23 H :    0.030833
  24 H :    0.027054
  25 C :   -0.094282
  26 H :    0.035445
  27 H :    0.017136
  28 C :   -0.038902
  29 H :    0.019986
  30 H :    0.025370
  31 H :    0.019366
  32 H :    0.058448
  33 H :    0.059378
Sum of atomic charges:   -0.0000000

LOEWDIN ATOMIC CHARGES
----------------------
   0 S :    0.410736
   1 C :   -0.199630
   2 C :   -0.064513
   3 C :   -0.053310
   4 C :   -0.193768
   5 H :    0.028986
   6 C :   -0.033645
   7 H :    0.033079
   8 H :    0.030546
   9 C :   -0.033924
  10 H :    0.022996
  11 H :    0.020460
  12 C :   -0.077474
  13 H :    0.032199
  14 H :    0.022457
  15 H :    0.030591
  16 S :    0.404533
  17 C :   -0.180669
  18 C :   -0.060844
  19 C :   -0.054300
  20 C :   -0.210937
  21 H :    0.029478
  22 C :   -0.038772
  23 H :    0.035104
  24 H :    0.033796
  25 C :   -0.048710
  26 H :    0.030631
  27 H :    0.021267
  28 C :   -0.078016
  29 H :    0.026475
  30 H :    0.027638
  31 H :    0.021682
  32 H :    0.033909
  33 H :    0.031949

  Mayer bond orders larger than 0.100000
B(  0-S ,  1-C ) :   1.1327 B(  0-S ,  4-C ) :   1.1513 B(  1-C ,  2-C ) :   1.6519
B(  1-C , 32-H ) :   0.9576 B(  2-C ,  3-C ) :   1.1890 B(  2-C ,  6-C ) :   1.0107
B(  3-C ,  4-C ) :   1.6157 B(  3-C ,  5-H ) :   0.9988 B(  4-C , 20-C ) :   1.0353
B(  6-C ,  7-H ) :   0.9369 B(  6-C ,  8-H ) :   0.9513 B(  6-C ,  9-C ) :   1.0876
B(  9-C , 10-H ) :   0.9547 B(  9-C , 11-H ) :   0.9555 B(  9-C , 12-C ) :   1.0616
B( 12-C , 13-H ) :   0.9709 B( 12-C , 14-H ) :   0.9758 B( 12-C , 15-H ) :   0.9746
B( 16-S , 17-C ) :   1.1414 B( 16-S , 20-C ) :   1.1513 B( 17-C , 18-C ) :   1.6218
B( 17-C , 20-C ) :   0.1066 B( 17-C , 33-H ) :   0.9639 B( 18-C , 19-C ) :   1.2323
B( 18-C , 21-H ) :   0.9953 B( 19-C , 20-C ) :   1.5548 B( 19-C , 22-C ) :   1.0680
B( 22-C , 23-H ) :   0.9263 B( 22-C , 24-H ) :   0.9406 B( 22-C , 25-C ) :   1.0476
B( 25-C , 26-H ) :   0.9578 B( 25-C , 27-H ) :   0.9505 B( 25-C , 28-C ) :   1.0762
B( 28-C , 29-H ) :   0.9717 B( 28-C , 30-H ) :   0.9731 B( 28-C , 31-H ) :   0.9739

Dispersion correction           -0.014422161
FINAL SINGLE POINT ENERGY     -1339.869937294362

DIPOLE MOMENT
-------------
                                X             Y             Z
Electronic contribution:     -7.79037      17.83592      17.78719
Nuclear contribution   :      8.03122     -18.04147     -18.24737
                        -----------------------------------------
Total Dipole Moment    :      0.24085      -0.20556      -0.46018
                        -----------------------------------------
Magnitude (a.u.)       :      0.55860
Magnitude (Debye)      :      1.41984

Rotational constants in cm-1:     0.017626     0.008983     0.007079
Rotational constants in MHz :   528.415046   269.310814   212.214500

                             ****ORCA TERMINATED NORMALLY****
TOTAL RUN TIME: 0 days 0 hours 0 minutes 21 seconds 807 msec
