                         Program Version 4.2.1 -  RELEASE  -
|  1> ! wB97X-D3 SP def2-SVP
|  2> %pal
|  3> nprocs 24
|  4> end
|  5>
|  6> * xyz 0 1
|  7> S 	 -106.176 	 3.13931 	 -106.605
|  8> C 	 -105.237 	 4.5723 	 -106.367
|  9> C 	 -103.881 	 4.36539 	 -106.167
| 10> C 	 -103.621 	 2.97087 	 -106.264
| 11> C 	 -104.668 	 2.18779 	 -106.668
| 12> H 	 -102.712 	 2.48009 	 -106.163
| 13> C 	 -102.879 	 5.39605 	 -105.609
| 14> H 	 -103.27 	 6.12229 	 -104.924
| 15> H 	 -102.483 	 6.06547 	 -106.361
| 16> C 	 -101.6 	 4.82712 	 -104.959
| 17> H 	 -101.969 	 4.18804 	 -104.216
| 18> H 	 -100.979 	 4.21979 	 -105.633
| 19> C 	 -100.746 	 5.90331 	 -104.183
| 20> H 	 -99.7942 	 5.98681 	 -104.675
| 21> H 	 -101.277 	 6.87436 	 -104.044
| 22> H 	 -100.601 	 5.54028 	 -103.133
| 23> S 	 -105.78 	 -0.254618 	 -105.886
| 24> C 	 -104.974 	 -1.77502 	 -106.121
| 25> C 	 -103.782 	 -1.51425 	 -106.878
| 26> C 	 -103.579 	 -0.131837 	 -107.126
| 27> C 	 -104.611 	 0.722914 	 -106.747
| 28> H 	 -103.216 	 -2.38366 	 -107.204
| 29> C 	 -102.397 	 0.313244 	 -107.996
| 30> H 	 -102.017 	 1.36383 	 -107.852
| 31> H 	 -102.635 	 0.364625 	 -109.072
| 32> C 	 -101.074 	 -0.462695 	 -107.724
| 33> H 	 -100.439 	 -0.0430701 	 -108.488
| 34> H 	 -101.125 	 -1.55779 	 -107.865
| 35> C 	 -100.365 	 -0.237803 	 -106.333
| 36> H 	 -100.86 	 -0.739657 	 -105.491
| 37> H 	 -100.082 	 0.770626 	 -106.01
| 38> H 	 -99.3599 	 -0.842924 	 -106.364
| 39> H 	 -105.728 	 5.45302 	 -106.078
| 40> H 	 -105.314 	 -2.83188 	 -105.972
| 41> *
| 42>
| 43>                          ****END OF INPUT****

CARTESIAN COORDINATES (ANGSTROEM)
---------------------------------
  S    -106.176000    3.139310  -106.605000
  C    -105.237000    4.572300  -106.367000
  C    -103.881000    4.365390  -106.167000
  C    -103.621000    2.970870  -106.264000
  C    -104.668000    2.187790  -106.668000
  H    -102.712000    2.480090  -106.163000
  C    -102.879000    5.396050  -105.609000
  H    -103.270000    6.122290  -104.924000
  H    -102.483000    6.065470  -106.361000
  C    -101.600000    4.827120  -104.959000
  H    -101.969000    4.188040  -104.216000
  H    -100.979000    4.219790  -105.633000
  C    -100.746000    5.903310  -104.183000
  H    -99.794200    5.986810  -104.675000
  H    -101.277000    6.874360  -104.044000
  H    -100.601000    5.540280  -103.133000
  S    -105.780000   -0.254618  -105.886000
  C    -104.974000   -1.775020  -106.121000
  C    -103.782000   -1.514250  -106.878000
  C    -103.579000   -0.131837  -107.126000
  C    -104.611000    0.722914  -106.747000
  H    -103.216000   -2.383660  -107.204000
  C    -102.397000    0.313244  -107.996000
  H    -102.017000    1.363830  -107.852000
  H    -102.635000    0.364625  -109.072000
  C    -101.074000   -0.462695  -107.724000
  H    -100.439000   -0.043070  -108.488000
  H    -101.125000   -1.557790  -107.865000
  C    -100.365000   -0.237803  -106.333000
  H    -100.860000   -0.739657  -105.491000
  H    -100.082000    0.770626  -106.010000
  H    -99.359900   -0.842924  -106.364000
  H    -105.728000    5.453020  -106.078000
  H    -105.314000   -2.831880  -105.972000

 Total Charge           Charge          ....    0
 Multiplicity           Mult            ....    1
 Number of Electrons    NEL             ....  134
 Basis Dimension        Dim             ....  322

ORBITAL ENERGIES
----------------

  NO   OCC          E(Eh)            E(eV)
   0   2.0000     -88.969772     -2420.9906
   1   2.0000     -88.967327     -2420.9240
   2   2.0000     -10.331550      -281.1358
   3   2.0000     -10.329958      -281.0924
   4   2.0000     -10.325216      -280.9634
   5   2.0000     -10.311497      -280.5901
   6   2.0000     -10.306902      -280.4651
   7   2.0000     -10.305172      -280.4180
   8   2.0000     -10.299042      -280.2512
   9   2.0000     -10.296971      -280.1948
  10   2.0000     -10.294387      -280.1245
  11   2.0000     -10.293133      -280.0904
  12   2.0000     -10.289470      -279.9907
  13   2.0000     -10.289096      -279.9805
  14   2.0000     -10.287580      -279.9393
  15   2.0000     -10.286284      -279.9040
  16   2.0000      -8.084272      -219.9842
  17   2.0000      -8.081786      -219.9166
  18   2.0000      -6.042766      -164.4320
  19   2.0000      -6.040331      -164.3658
  20   2.0000      -6.038957      -164.3284
  21   2.0000      -6.036005      -164.2481
  22   2.0000      -6.034927      -164.2187
  23   2.0000      -6.032832      -164.1617
  24   2.0000      -1.007146       -27.4058
  25   2.0000      -0.984974       -26.8025
  26   2.0000      -0.908948       -24.7337
  27   2.0000      -0.900440       -24.5022
  28   2.0000      -0.870886       -23.6980
  29   2.0000      -0.850547       -23.1446
  30   2.0000      -0.838840       -22.8260
  31   2.0000      -0.813684       -22.1415
  32   2.0000      -0.781635       -21.2694
  33   2.0000      -0.773521       -21.0486
  34   2.0000      -0.711432       -19.3590
  35   2.0000      -0.694570       -18.9002
  36   2.0000      -0.692301       -18.8385
  37   2.0000      -0.657331       -17.8869
  38   2.0000      -0.646333       -17.5876
  39   2.0000      -0.626830       -17.0569
  40   2.0000      -0.599658       -16.3175
  41   2.0000      -0.571619       -15.5546
  42   2.0000      -0.570344       -15.5198
  43   2.0000      -0.542273       -14.7560
  44   2.0000      -0.528171       -14.3723
  45   2.0000      -0.523008       -14.2318
  46   2.0000      -0.516045       -14.0423
  47   2.0000      -0.507539       -13.8108
  48   2.0000      -0.501707       -13.6521
  49   2.0000      -0.497104       -13.5269
  50   2.0000      -0.488704       -13.2983
  51   2.0000      -0.481108       -13.0916
  52   2.0000      -0.471690       -12.8353
  53   2.0000      -0.468946       -12.7607
  54   2.0000      -0.459138       -12.4938
  55   2.0000      -0.452589       -12.3156
  56   2.0000      -0.441281       -12.0079
  57   2.0000      -0.437585       -11.9073
  58   2.0000      -0.432681       -11.7739
  59   2.0000      -0.426079       -11.5942
  60   2.0000      -0.422250       -11.4900
  61   2.0000      -0.414443       -11.2776
  62   2.0000      -0.400187       -10.8896
  63   2.0000      -0.353983        -9.6324
  64   2.0000      -0.334288        -9.0965
  65   2.0000      -0.329032        -8.9534
  66   2.0000      -0.287461        -7.8222
  67   0.0000       0.020259         0.5513
  68   0.0000       0.071499         1.9456
  69   0.0000       0.106779         2.9056
  70   0.0000       0.120794         3.2870
  71   0.0000       0.123670         3.3652

MULLIKEN ATOMIC CHARGES
-----------------------
   0 S :    0.109005
   1 C :   -0.102585
   2 C :   -0.036134
   3 C :    0.014453
   4 C :   -0.130485
   5 H :   -0.012088
   6 C :    0.064674
   7 H :    0.018068
   8 H :    0.028457
   9 C :   -0.107387
  10 H :    0.023447
  11 H :    0.039935
  12 C :   -0.061001
  13 H :    0.043358
  14 H :    0.038789
  15 H :    0.040690
  16 S :    0.102792
  17 C :   -0.117055
  18 C :   -0.061500
  19 C :   -0.025890
  20 C :   -0.105401
  21 H :    0.028506
  22 C :    0.015864
  23 H :    0.021154
  24 H :    0.051617
  25 C :   -0.078550
  26 H :    0.027747
  27 H :    0.035878
  28 C :   -0.098393
  29 H :    0.042669
  30 H :    0.037316
  31 H :    0.037973
  32 H :    0.033676
  33 H :    0.080400
Sum of atomic charges:    0.0000000

LOEWDIN ATOMIC CHARGES
----------------------
   0 S :    0.402382
   1 C :   -0.184718
   2 C :   -0.058740
   3 C :   -0.046074
   4 C :   -0.183234
   5 H :    0.018527
   6 C :   -0.032200
   7 H :    0.026955
   8 H :    0.031486
   9 C :   -0.041480
  10 H :    0.015830
  11 H :    0.023241
  12 C :   -0.066355
  13 H :    0.025465
  14 H :    0.029141
  15 H :    0.034366
  16 S :    0.420890
  17 C :   -0.209029
  18 C :   -0.073764
  19 C :   -0.069258
  20 C :   -0.197637
  21 H :    0.032852
  22 C :   -0.040676
  23 H :    0.033259
  24 H :    0.037873
  25 C :   -0.042469
  26 H :    0.024848
  27 H :    0.022313
  28 C :   -0.081370
  29 H :    0.026211
  30 H :    0.020851
  31 H :    0.038226
  32 H :    0.015620
  33 H :    0.046667

  Mayer bond orders larger than 0.100000
B(  0-S ,  1-C ) :   1.1627 B(  0-S ,  4-C ) :   1.1323 B(  1-C ,  2-C ) :   1.6016
B(  1-C , 32-H ) :   0.9703 B(  2-C ,  3-C ) :   1.2600 B(  2-C ,  6-C ) :   1.0054
B(  3-C ,  4-C ) :   1.5730 B(  3-C ,  5-H ) :   0.9931 B(  4-C , 20-C ) :   1.0502
B(  6-C ,  7-H ) :   0.9459 B(  6-C ,  8-H ) :   0.9288 B(  6-C ,  9-C ) :   1.0860
B(  9-C , 10-H ) :   0.9618 B(  9-C , 11-H ) :   0.9546 B(  9-C , 12-C ) :   1.0591
B( 12-C , 13-H ) :   0.9793 B( 12-C , 14-H ) :   0.9772 B( 12-C , 15-H ) :   0.9810
B( 16-S , 17-C ) :   1.1857 B( 16-S , 20-C ) :   1.1446 B( 17-C , 18-C ) :   1.5565
B( 17-C , 20-C ) :   0.1104 B( 17-C , 33-H ) :   0.9602 B( 18-C , 19-C ) :   1.2832
B( 18-C , 21-H ) :   0.9902 B( 19-C , 20-C ) :   1.5568 B( 19-C , 22-C ) :   1.0274
B( 22-C , 23-H ) :   0.9421 B( 22-C , 24-H ) :   0.9441 B( 22-C , 25-C ) :   1.0631
B( 25-C , 26-H ) :   0.9568 B( 25-C , 27-H ) :   0.9534 B( 25-C , 28-C ) :   1.0719
B( 28-C , 29-H ) :   0.9749 B( 28-C , 30-H ) :   0.9756 B( 28-C , 31-H ) :   0.9733

Dispersion correction           -0.014081697
FINAL SINGLE POINT ENERGY     -1339.853315577931

DIPOLE MOMENT
-------------
                                X             Y             Z
Electronic contribution:    -30.99719      -7.41704      -3.75903
Nuclear contribution   :     31.67608       7.51011       3.87790
                        -----------------------------------------
Total Dipole Moment    :      0.67889       0.09307       0.11887
                        -----------------------------------------
Magnitude (a.u.)       :      0.69548
Magnitude (Debye)      :      1.76776

Rotational constants in cm-1:     0.016385     0.009568     0.006705
Rotational constants in MHz :   491.198770   286.828133   201.007200

                             ****ORCA TERMINATED NORMALLY****
TOTAL RUN TIME: 0 days 0 hours 0 minutes 20 seconds 503 msec
