                         Program Version 4.2.1 -  RELEASE  -
|  1> ! wB97X-D3 SP def2-SVP
|  2> %pal
|  3> nprocs 24
|  4> end
|  5>
|  6> * xyz 0 1
|  7> S 	 -35.4454 	 9.57293 	 1.75192
|  8> C 	 -35.2844 	 8.31969 	 0.55557
|  9> C 	 -34.4813 	 8.66372 	 -0.462978
| 10> C 	 -33.954 	 9.99161 	 -0.255585
| 11> C 	 -34.4238 	 10.6332 	 0.825068
| 12> H 	 -33.3116 	 10.5468 	 -0.91438
| 13> C 	 -34.124 	 7.79157 	 -1.63976
| 14> H 	 -33.1816 	 7.2587 	 -1.32192
| 15> H 	 -33.9745 	 8.36068 	 -2.60549
| 16> C 	 -35.1877 	 6.74874 	 -1.97785
| 17> H 	 -35.241 	 5.88095 	 -1.23443
| 18> H 	 -36.1821 	 7.18029 	 -2.00722
| 19> C 	 -34.9584 	 6.06056 	 -3.39605
| 20> H 	 -34.5071 	 4.99852 	 -3.22222
| 21> H 	 -35.8464 	 5.88983 	 -3.99469
| 22> H 	 -34.2714 	 6.67596 	 -4.00017
| 23> S 	 -32.2373 	 12.2431 	 1.11193
| 24> C 	 -32.2854 	 13.6723 	 2.06629
| 25> C 	 -33.6324 	 13.982 	 2.34162
| 26> C 	 -34.541 	 12.9706 	 1.9309
| 27> C 	 -33.9476 	 11.8958 	 1.31399
| 28> H 	 -33.8102 	 14.8905 	 2.90523
| 29> C 	 -36.0222 	 13.1142 	 2.18787
| 30> H 	 -36.1212 	 13.3627 	 3.20124
| 31> H 	 -36.5738 	 12.1616 	 1.9549
| 32> C 	 -36.7669 	 14.1213 	 1.23099
| 33> H 	 -36.3821 	 15.1671 	 1.43864
| 34> H 	 -37.763 	 14.1527 	 1.35276
| 35> C 	 -36.5305 	 13.7888 	 -0.241371
| 36> H 	 -36.9911 	 12.8257 	 -0.391935
| 37> H 	 -35.5183 	 13.5996 	 -0.45416
| 38> H 	 -36.8659 	 14.5039 	 -0.967686
| 39> H 	 -35.7811 	 7.39624 	 0.532359
| 40> H 	 -31.4528 	 14.3539 	 2.2657
| 41> *
| 42>
| 43>                          ****END OF INPUT****

CARTESIAN COORDINATES (ANGSTROEM)
---------------------------------
  S    -35.445400    9.572930    1.751920
  C    -35.284400    8.319690    0.555570
  C    -34.481300    8.663720   -0.462978
  C    -33.954000    9.991610   -0.255585
  C    -34.423800   10.633200    0.825068
  H    -33.311600   10.546800   -0.914380
  C    -34.124000    7.791570   -1.639760
  H    -33.181600    7.258700   -1.321920
  H    -33.974500    8.360680   -2.605490
  C    -35.187700    6.748740   -1.977850
  H    -35.241000    5.880950   -1.234430
  H    -36.182100    7.180290   -2.007220
  C    -34.958400    6.060560   -3.396050
  H    -34.507100    4.998520   -3.222220
  H    -35.846400    5.889830   -3.994690
  H    -34.271400    6.675960   -4.000170
  S    -32.237300   12.243100    1.111930
  C    -32.285400   13.672300    2.066290
  C    -33.632400   13.982000    2.341620
  C    -34.541000   12.970600    1.930900
  C    -33.947600   11.895800    1.313990
  H    -33.810200   14.890500    2.905230
  C    -36.022200   13.114200    2.187870
  H    -36.121200   13.362700    3.201240
  H    -36.573800   12.161600    1.954900
  C    -36.766900   14.121300    1.230990
  H    -36.382100   15.167100    1.438640
  H    -37.763000   14.152700    1.352760
  C    -36.530500   13.788800   -0.241371
  H    -36.991100   12.825700   -0.391935
  H    -35.518300   13.599600   -0.454160
  H    -36.865900   14.503900   -0.967686
  H    -35.781100    7.396240    0.532359
  H    -31.452800   14.353900    2.265700

 Total Charge           Charge          ....    0
 Multiplicity           Mult            ....    1
 Number of Electrons    NEL             ....  134
 Basis Dimension        Dim             ....  322

ORBITAL ENERGIES
----------------

  NO   OCC          E(Eh)            E(eV)
   0   2.0000     -88.964716     -2420.8530
   1   2.0000     -88.964279     -2420.8411
   2   2.0000     -10.324743      -280.9505
   3   2.0000     -10.323725      -280.9228
   4   2.0000     -10.320484      -280.8347
   5   2.0000     -10.303900      -280.3834
   6   2.0000     -10.303580      -280.3747
   7   2.0000     -10.302365      -280.3416
   8   2.0000     -10.297484      -280.2088
   9   2.0000     -10.296413      -280.1796
  10   2.0000     -10.295590      -280.1573
  11   2.0000     -10.290398      -280.0160
  12   2.0000     -10.290052      -280.0066
  13   2.0000     -10.287395      -279.9342
  14   2.0000     -10.280066      -279.7348
  15   2.0000     -10.260864      -279.2123
  16   2.0000      -8.079798      -219.8625
  17   2.0000      -8.079287      -219.8486
  18   2.0000      -6.038273      -164.3098
  19   2.0000      -6.038001      -164.3024
  20   2.0000      -6.034132      -164.1971
  21   2.0000      -6.033759      -164.1869
  22   2.0000      -6.030680      -164.1032
  23   2.0000      -6.029807      -164.0794
  24   2.0000      -1.015052       -27.6210
  25   2.0000      -0.990699       -26.9583
  26   2.0000      -0.912580       -24.8326
  27   2.0000      -0.907210       -24.6864
  28   2.0000      -0.873324       -23.7643
  29   2.0000      -0.851807       -23.1788
  30   2.0000      -0.843711       -22.9585
  31   2.0000      -0.813955       -22.1488
  32   2.0000      -0.781754       -21.2726
  33   2.0000      -0.772325       -21.0160
  34   2.0000      -0.713202       -19.4072
  35   2.0000      -0.700715       -19.0674
  36   2.0000      -0.695239       -18.9184
  37   2.0000      -0.665552       -18.1106
  38   2.0000      -0.638706       -17.3801
  39   2.0000      -0.611841       -16.6490
  40   2.0000      -0.592427       -16.1208
  41   2.0000      -0.576683       -15.6923
  42   2.0000      -0.568073       -15.4581
  43   2.0000      -0.558120       -15.1872
  44   2.0000      -0.547598       -14.9009
  45   2.0000      -0.524296       -14.2668
  46   2.0000      -0.516880       -14.0650
  47   2.0000      -0.514230       -13.9929
  48   2.0000      -0.504174       -13.7193
  49   2.0000      -0.500190       -13.6109
  50   2.0000      -0.485435       -13.2094
  51   2.0000      -0.477087       -12.9822
  52   2.0000      -0.473716       -12.8905
  53   2.0000      -0.461163       -12.5489
  54   2.0000      -0.460514       -12.5312
  55   2.0000      -0.446033       -12.1372
  56   2.0000      -0.441906       -12.0249
  57   2.0000      -0.437311       -11.8998
  58   2.0000      -0.436520       -11.8783
  59   2.0000      -0.426545       -11.6069
  60   2.0000      -0.417070       -11.3491
  61   2.0000      -0.416516       -11.3340
  62   2.0000      -0.406777       -11.0690
  63   2.0000      -0.356577        -9.7029
  64   2.0000      -0.331659        -9.0249
  65   2.0000      -0.328869        -8.9490
  66   2.0000      -0.292098        -7.9484
  67   0.0000       0.029580         0.8049
  68   0.0000       0.077733         2.1152
  69   0.0000       0.112977         3.0743
  70   0.0000       0.118468         3.2237
  71   0.0000       0.132562         3.6072

MULLIKEN ATOMIC CHARGES
-----------------------
   0 S :    0.111767
   1 C :   -0.101924
   2 C :   -0.074808
   3 C :   -0.023368
   4 C :   -0.099087
   5 H :    0.003523
   6 C :    0.067392
   7 H :    0.061444
   8 H :    0.044065
   9 C :   -0.144256
  10 H :    0.046176
  11 H :    0.039331
  12 C :   -0.079112
  13 H :    0.046898
  14 H :    0.040523
  15 H :    0.033383
  16 S :    0.103543
  17 C :   -0.099869
  18 C :   -0.051848
  19 C :   -0.041036
  20 C :   -0.144619
  21 H :    0.022591
  22 C :    0.063444
  23 H :    0.024784
  24 H :    0.027146
  25 C :   -0.038916
  26 H :    0.022718
  27 H :    0.010046
  28 C :   -0.034555
  29 H :    0.016358
  30 H :    0.023645
  31 H :    0.033736
  32 H :    0.021795
  33 H :    0.069090
Sum of atomic charges:    0.0000000

LOEWDIN ATOMIC CHARGES
----------------------
   0 S :    0.411217
   1 C :   -0.190557
   2 C :   -0.064131
   3 C :   -0.067853
   4 C :   -0.191248
   5 H :    0.023938
   6 C :   -0.037117
   7 H :    0.047670
   8 H :    0.038395
   9 C :   -0.052923
  10 H :    0.029248
  11 H :    0.022704
  12 C :   -0.074924
  13 H :    0.036364
  14 H :    0.024687
  15 H :    0.022800
  16 S :    0.422940
  17 C :   -0.195725
  18 C :   -0.073027
  19 C :   -0.060056
  20 C :   -0.194706
  21 H :    0.031767
  22 C :   -0.026560
  23 H :    0.023955
  24 H :    0.027052
  25 C :   -0.025410
  26 H :    0.021921
  27 H :    0.006537
  28 C :   -0.060347
  29 H :    0.024420
  30 H :    0.018743
  31 H :    0.024817
  32 H :    0.019079
  33 H :    0.036331

  Mayer bond orders larger than 0.100000
B(  0-S ,  1-C ) :   1.1166 B(  0-S ,  4-C ) :   1.1247 B(  1-C ,  2-C ) :   1.6643
B(  1-C , 32-H ) :   0.9629 B(  2-C ,  3-C ) :   1.1994 B(  2-C ,  6-C ) :   1.0168
B(  3-C ,  4-C ) :   1.6022 B(  3-C ,  5-H ) :   1.0043 B(  4-C , 20-C ) :   1.0671
B(  6-C ,  7-H ) :   0.9248 B(  6-C ,  8-H ) :   0.9461 B(  6-C ,  9-C ) :   1.0722
B(  9-C , 10-H ) :   0.9519 B(  9-C , 11-H ) :   0.9666 B(  9-C , 12-C ) :   1.0586
B( 12-C , 13-H ) :   0.9802 B( 12-C , 14-H ) :   0.9798 B( 12-C , 15-H ) :   0.9780
B( 16-S , 17-C ) :   1.1765 B( 16-S , 20-C ) :   1.1372 B( 17-C , 18-C ) :   1.5780
B( 17-C , 20-C ) :   0.1005 B( 17-C , 33-H ) :   0.9667 B( 18-C , 19-C ) :   1.2465
B( 18-C , 21-H ) :   0.9946 B( 19-C , 20-C ) :   1.5595 B( 19-C , 22-C ) :   1.0482
B( 22-C , 23-H ) :   0.9354 B( 22-C , 24-H ) :   0.9361 B( 22-C , 25-C ) :   1.0663
B( 25-C , 26-H ) :   0.9560 B( 25-C , 27-H ) :   0.9625 B( 25-C , 28-C ) :   1.0684
B( 28-C , 29-H ) :   0.9730 B( 28-C , 30-H ) :   0.9750 B( 28-C , 31-H ) :   0.9740

Dispersion correction           -0.014482755
FINAL SINGLE POINT ENERGY     -1339.874641501291

DIPOLE MOMENT
-------------
                                X             Y             Z
Electronic contribution:     11.35689       5.46755      16.06917
Nuclear contribution   :    -11.46206      -5.44029     -16.36496
                        -----------------------------------------
Total Dipole Moment    :     -0.10518       0.02726      -0.29579
                        -----------------------------------------
Magnitude (a.u.)       :      0.31512
Magnitude (Debye)      :      0.80096

Rotational constants in cm-1:     0.024003     0.007284     0.006603
Rotational constants in MHz :   719.592049   218.378634   197.964031

                             ****ORCA TERMINATED NORMALLY****
TOTAL RUN TIME: 0 days 0 hours 0 minutes 20 seconds 529 msec
