                         Program Version 4.2.1 -  RELEASE  -
|  1> ! wB97X-D3 SP def2-SVP
|  2> %pal
|  3> nprocs 24
|  4> end
|  5>
|  6> * xyz 0 1
|  7> S 	 -98.2709 	 1.35916 	 -105.788
|  8> C 	 -98.5645 	 2.7015 	 -106.962
|  9> C 	 -99.6916 	 3.43508 	 -106.612
| 10> C 	 -100.412 	 2.90404 	 -105.509
| 11> C 	 -99.8347 	 1.71536 	 -105.041
| 12> H 	 -101.374 	 3.23841 	 -105.099
| 13> C 	 -100.215 	 4.67502 	 -107.375
| 14> H 	 -101.153 	 4.89726 	 -106.881
| 15> H 	 -100.601 	 4.43943 	 -108.421
| 16> C 	 -99.2925 	 5.94804 	 -107.406
| 17> H 	 -99.144 	 6.26501 	 -106.396
| 18> H 	 -98.389 	 5.69687 	 -107.806
| 19> C 	 -99.9702 	 7.04162 	 -108.19
| 20> H 	 -100.27 	 6.74428 	 -109.188
| 21> H 	 -100.884 	 7.22489 	 -107.643
| 22> H 	 -99.4224 	 7.9367 	 -108.141
| 23> S 	 -99.5507 	 0.734432 	 -102.43
| 24> C 	 -100.668 	 -0.439585 	 -101.828
| 25> C 	 -101.701 	 -0.72193 	 -102.768
| 26> C 	 -101.552 	 0.102421 	 -103.921
| 27> C 	 -100.401 	 0.854656 	 -104.027
| 28> H 	 -102.439 	 -1.3979 	 -102.574
| 29> C 	 -102.585 	 -0.155851 	 -104.988
| 30> H 	 -102.335 	 0.630711 	 -105.75
| 31> H 	 -103.571 	 0.0203623 	 -104.563
| 32> C 	 -102.605 	 -1.52692 	 -105.694
| 33> H 	 -102.799 	 -2.41998 	 -105.048
| 34> H 	 -101.679 	 -1.67125 	 -106.236
| 35> C 	 -103.627 	 -1.5414 	 -106.824
| 36> H 	 -103.581 	 -2.42618 	 -107.5
| 37> H 	 -103.562 	 -0.778168 	 -107.518
| 38> H 	 -104.611 	 -1.44295 	 -106.32
| 39> H 	 -98.0228 	 2.90283 	 -107.9
| 40> H 	 -100.709 	 -0.970873 	 -100.836
| 41> *
| 42>
| 43>                          ****END OF INPUT****

CARTESIAN COORDINATES (ANGSTROEM)
---------------------------------
  S    -98.270900    1.359160  -105.788000
  C    -98.564500    2.701500  -106.962000
  C    -99.691600    3.435080  -106.612000
  C    -100.412000    2.904040  -105.509000
  C    -99.834700    1.715360  -105.041000
  H    -101.374000    3.238410  -105.099000
  C    -100.215000    4.675020  -107.375000
  H    -101.153000    4.897260  -106.881000
  H    -100.601000    4.439430  -108.421000
  C    -99.292500    5.948040  -107.406000
  H    -99.144000    6.265010  -106.396000
  H    -98.389000    5.696870  -107.806000
  C    -99.970200    7.041620  -108.190000
  H    -100.270000    6.744280  -109.188000
  H    -100.884000    7.224890  -107.643000
  H    -99.422400    7.936700  -108.141000
  S    -99.550700    0.734432  -102.430000
  C    -100.668000   -0.439585  -101.828000
  C    -101.701000   -0.721930  -102.768000
  C    -101.552000    0.102421  -103.921000
  C    -100.401000    0.854656  -104.027000
  H    -102.439000   -1.397900  -102.574000
  C    -102.585000   -0.155851  -104.988000
  H    -102.335000    0.630711  -105.750000
  H    -103.571000    0.020362  -104.563000
  C    -102.605000   -1.526920  -105.694000
  H    -102.799000   -2.419980  -105.048000
  H    -101.679000   -1.671250  -106.236000
  C    -103.627000   -1.541400  -106.824000
  H    -103.581000   -2.426180  -107.500000
  H    -103.562000   -0.778168  -107.518000
  H    -104.611000   -1.442950  -106.320000
  H    -98.022800    2.902830  -107.900000
  H    -100.709000   -0.970873  -100.836000

 Total Charge           Charge          ....    0
 Multiplicity           Mult            ....    1
 Number of Electrons    NEL             ....  134
 Basis Dimension        Dim             ....  322

ORBITAL ENERGIES
----------------

  NO   OCC          E(Eh)            E(eV)
   0   2.0000     -88.972603     -2421.0676
   1   2.0000     -88.965041     -2420.8618
   2   2.0000     -10.334604      -281.2189
   3   2.0000     -10.328407      -281.0502
   4   2.0000     -10.324273      -280.9378
   5   2.0000     -10.322040      -280.8770
   6   2.0000     -10.305850      -280.4364
   7   2.0000     -10.301198      -280.3098
   8   2.0000     -10.301166      -280.3090
   9   2.0000     -10.298939      -280.2484
  10   2.0000     -10.290804      -280.0270
  11   2.0000     -10.287352      -279.9331
  12   2.0000     -10.286583      -279.9122
  13   2.0000     -10.278685      -279.6972
  14   2.0000     -10.272302      -279.5235
  15   2.0000     -10.271556      -279.5032
  16   2.0000      -8.085861      -220.0275
  17   2.0000      -8.079124      -219.8441
  18   2.0000      -6.044441      -164.4776
  19   2.0000      -6.040652      -164.3745
  20   2.0000      -6.037744      -164.2954
  21   2.0000      -6.036545      -164.2627
  22   2.0000      -6.033607      -164.1828
  23   2.0000      -6.029905      -164.0820
  24   2.0000      -0.999743       -27.2044
  25   2.0000      -0.977126       -26.5890
  26   2.0000      -0.910901       -24.7869
  27   2.0000      -0.907179       -24.6856
  28   2.0000      -0.869149       -23.6507
  29   2.0000      -0.853735       -23.2313
  30   2.0000      -0.848472       -23.0881
  31   2.0000      -0.808563       -22.0021
  32   2.0000      -0.779026       -21.1984
  33   2.0000      -0.767273       -20.8786
  34   2.0000      -0.711213       -19.3531
  35   2.0000      -0.704212       -19.1626
  36   2.0000      -0.691155       -18.8073
  37   2.0000      -0.664904       -18.0930
  38   2.0000      -0.638858       -17.3842
  39   2.0000      -0.614503       -16.7215
  40   2.0000      -0.587395       -15.9838
  41   2.0000      -0.573795       -15.6138
  42   2.0000      -0.570438       -15.5224
  43   2.0000      -0.563947       -15.3458
  44   2.0000      -0.530761       -14.4427
  45   2.0000      -0.521407       -14.1882
  46   2.0000      -0.517771       -14.0893
  47   2.0000      -0.511153       -13.9092
  48   2.0000      -0.502915       -13.6850
  49   2.0000      -0.496816       -13.5191
  50   2.0000      -0.491520       -13.3749
  51   2.0000      -0.481665       -13.1068
  52   2.0000      -0.470649       -12.8070
  53   2.0000      -0.464029       -12.6269
  54   2.0000      -0.458177       -12.4676
  55   2.0000      -0.447258       -12.1705
  56   2.0000      -0.440247       -11.9797
  57   2.0000      -0.437611       -11.9080
  58   2.0000      -0.429512       -11.6876
  59   2.0000      -0.426546       -11.6069
  60   2.0000      -0.421187       -11.4611
  61   2.0000      -0.418807       -11.3963
  62   2.0000      -0.407961       -11.1012
  63   2.0000      -0.337976        -9.1968
  64   2.0000      -0.334734        -9.1086
  65   2.0000      -0.327479        -8.9111
  66   2.0000      -0.295042        -8.0285
  67   0.0000       0.028775         0.7830
  68   0.0000       0.053433         1.4540
  69   0.0000       0.106388         2.8950
  70   0.0000       0.117364         3.1936
  71   0.0000       0.125148         3.4055

MULLIKEN ATOMIC CHARGES
-----------------------
   0 S :    0.120108
   1 C :   -0.128717
   2 C :   -0.075439
   3 C :    0.051146
   4 C :   -0.184560
   5 H :    0.028869
   6 C :    0.010651
   7 H :    0.004253
   8 H :    0.039961
   9 C :   -0.015573
  10 H :    0.025531
  11 H :    0.006606
  12 C :   -0.009674
  13 H :    0.026871
  14 H :    0.012983
  15 H :    0.028093
  16 S :    0.101892
  17 C :   -0.098599
  18 C :   -0.017835
  19 C :   -0.005444
  20 C :   -0.160734
  21 H :   -0.015899
  22 C :    0.033261
  23 H :    0.026509
  24 H :    0.024979
  25 C :   -0.058282
  26 H :    0.039282
  27 H :    0.028396
  28 C :   -0.043511
  29 H :    0.036140
  30 H :    0.009134
  31 H :    0.022581
  32 H :    0.060457
  33 H :    0.076565
Sum of atomic charges:    0.0000000

LOEWDIN ATOMIC CHARGES
----------------------
   0 S :    0.386843
   1 C :   -0.185675
   2 C :   -0.064863
   3 C :   -0.056245
   4 C :   -0.190217
   5 H :    0.038972
   6 C :   -0.034914
   7 H :    0.023114
   8 H :    0.035914
   9 C :   -0.023512
  10 H :    0.025725
  11 H :    0.006773
  12 C :   -0.055544
  13 H :    0.023612
  14 H :    0.025264
  15 H :    0.021272
  16 S :    0.391610
  17 C :   -0.193786
  18 C :   -0.064518
  19 C :   -0.053870
  20 C :   -0.193709
  21 H :    0.014104
  22 C :   -0.034842
  23 H :    0.034523
  24 H :    0.028421
  25 C :   -0.040202
  26 H :    0.027689
  27 H :    0.025545
  28 C :   -0.065037
  29 H :    0.031207
  30 H :    0.011661
  31 H :    0.024494
  32 H :    0.036027
  33 H :    0.044163

  Mayer bond orders larger than 0.100000
B(  0-S ,  1-C ) :   1.1203 B(  0-S ,  4-C ) :   1.1486 B(  1-C ,  2-C ) :   1.6269
B(  1-C ,  4-C ) :   0.1039 B(  1-C , 32-H ) :   0.9655 B(  2-C ,  3-C ) :   1.2366
B(  2-C ,  6-C ) :   1.0071 B(  3-C ,  4-C ) :   1.5719 B(  3-C ,  5-H ) :   0.9872
B(  4-C , 20-C ) :   1.0419 B(  6-C ,  7-H ) :   0.9426 B(  6-C ,  8-H ) :   0.9444
B(  6-C ,  9-C ) :   1.0539 B(  9-C , 10-H ) :   0.9531 B(  9-C , 11-H ) :   0.9582
B(  9-C , 12-C ) :   1.0907 B( 12-C , 13-H ) :   0.9741 B( 12-C , 14-H ) :   0.9721
B( 12-C , 15-H ) :   0.9715 B( 16-S , 17-C ) :   1.1747 B( 16-S , 20-C ) :   1.1059
B( 17-C , 18-C ) :   1.5857 B( 17-C , 20-C ) :   0.1005 B( 17-C , 33-H ) :   0.9578
B( 18-C , 19-C ) :   1.2336 B( 18-C , 21-H ) :   1.0069 B( 19-C , 20-C ) :   1.6068
B( 19-C , 22-C ) :   1.0534 B( 22-C , 23-H ) :   0.9350 B( 22-C , 24-H ) :   0.9306
B( 22-C , 25-C ) :   1.0713 B( 25-C , 26-H ) :   0.9538 B( 25-C , 27-H ) :   0.9537
B( 25-C , 28-C ) :   1.0810 B( 28-C , 29-H ) :   0.9737 B( 28-C , 30-H ) :   0.9746
B( 28-C , 31-H ) :   0.9753

Dispersion correction           -0.013396265
FINAL SINGLE POINT ENERGY     -1339.858291928362

DIPOLE MOMENT
-------------
                                X             Y             Z
Electronic contribution:     16.62818      -8.92137      18.49552
Nuclear contribution   :    -17.14684       9.10579     -18.85738
                        -----------------------------------------
Total Dipole Moment    :     -0.51866       0.18442      -0.36185
                        -----------------------------------------
Magnitude (a.u.)       :      0.65875
Magnitude (Debye)      :      1.67442

Rotational constants in cm-1:     0.019016     0.007301     0.006140
Rotational constants in MHz :   570.082748   218.884150   184.063187

                             ****ORCA TERMINATED NORMALLY****
TOTAL RUN TIME: 0 days 0 hours 0 minutes 20 seconds 871 msec
