                         Program Version 4.2.1 -  RELEASE  -
|  1> ! wB97X-D3 SP def2-SVP
|  2> %pal
|  3> nprocs 24
|  4> end
|  5>
|  6> * xyz 0 1
|  7> S 	 -34.8448 	 -48.3183 	 -75.6837
|  8> C 	 -33.1907 	 -48.6183 	 -76.1757
|  9> C 	 -32.3122 	 -47.5814 	 -75.9592
| 10> C 	 -33.078 	 -46.426 	 -75.5475
| 11> C 	 -34.4367 	 -46.688 	 -75.3404
| 12> H 	 -32.712 	 -45.3911 	 -75.3519
| 13> C 	 -30.831 	 -47.6312 	 -76.2779
| 14> H 	 -30.2727 	 -46.6671 	 -76.0324
| 15> H 	 -30.6961 	 -47.869 	 -77.3707
| 16> C 	 -30.1109 	 -48.6973 	 -75.4342
| 17> H 	 -29.0897 	 -48.3358 	 -75.4418
| 18> H 	 -30.4516 	 -48.7549 	 -74.4194
| 19> C 	 -30.108 	 -50.1667 	 -75.9558
| 20> H 	 -31.1265 	 -50.6763 	 -76.0058
| 21> H 	 -29.5133 	 -50.3941 	 -76.8565
| 22> H 	 -29.6121 	 -50.811 	 -75.221
| 23> S 	 -36.2277 	 -45.9683 	 -73.3684
| 24> C 	 -37.5182 	 -44.817 	 -73.703
| 25> C 	 -37.2418 	 -44.168 	 -74.9255
| 26> C 	 -36.1526 	 -44.6613 	 -75.6309
| 27> C 	 -35.5676 	 -45.7734 	 -75.0099
| 28> H 	 -37.7228 	 -43.3277 	 -75.2453
| 29> C 	 -35.7758 	 -44.0979 	 -76.9836
| 30> H 	 -34.7332 	 -44.4039 	 -77.0215
| 31> H 	 -35.9759 	 -43.0634 	 -76.906
| 32> C 	 -36.3867 	 -44.7391 	 -78.2092
| 33> H 	 -37.4563 	 -44.6103 	 -78.3195
| 34> H 	 -36.1961 	 -45.8709 	 -78.2191
| 35> C 	 -35.7049 	 -44.2322 	 -79.506
| 36> H 	 -35.9781 	 -43.2202 	 -79.8591
| 37> H 	 -36.0152 	 -44.9315 	 -80.2985
| 38> H 	 -34.574 	 -44.2045 	 -79.4854
| 39> H 	 -32.887 	 -49.5694 	 -76.5204
| 40> H 	 -38.4035 	 -44.509 	 -73.1136
| 41> *
| 42>
| 43>                          ****END OF INPUT****

CARTESIAN COORDINATES (ANGSTROEM)
---------------------------------
  S    -34.844800  -48.318300  -75.683700
  C    -33.190700  -48.618300  -76.175700
  C    -32.312200  -47.581400  -75.959200
  C    -33.078000  -46.426000  -75.547500
  C    -34.436700  -46.688000  -75.340400
  H    -32.712000  -45.391100  -75.351900
  C    -30.831000  -47.631200  -76.277900
  H    -30.272700  -46.667100  -76.032400
  H    -30.696100  -47.869000  -77.370700
  C    -30.110900  -48.697300  -75.434200
  H    -29.089700  -48.335800  -75.441800
  H    -30.451600  -48.754900  -74.419400
  C    -30.108000  -50.166700  -75.955800
  H    -31.126500  -50.676300  -76.005800
  H    -29.513300  -50.394100  -76.856500
  H    -29.612100  -50.811000  -75.221000
  S    -36.227700  -45.968300  -73.368400
  C    -37.518200  -44.817000  -73.703000
  C    -37.241800  -44.168000  -74.925500
  C    -36.152600  -44.661300  -75.630900
  C    -35.567600  -45.773400  -75.009900
  H    -37.722800  -43.327700  -75.245300
  C    -35.775800  -44.097900  -76.983600
  H    -34.733200  -44.403900  -77.021500
  H    -35.975900  -43.063400  -76.906000
  C    -36.386700  -44.739100  -78.209200
  H    -37.456300  -44.610300  -78.319500
  H    -36.196100  -45.870900  -78.219100
  C    -35.704900  -44.232200  -79.506000
  H    -35.978100  -43.220200  -79.859100
  H    -36.015200  -44.931500  -80.298500
  H    -34.574000  -44.204500  -79.485400
  H    -32.887000  -49.569400  -76.520400
  H    -38.403500  -44.509000  -73.113600

 Total Charge           Charge          ....    0
 Multiplicity           Mult            ....    1
 Number of Electrons    NEL             ....  134
 Basis Dimension        Dim             ....  322

ORBITAL ENERGIES
----------------

  NO   OCC          E(Eh)            E(eV)
   0   2.0000     -88.966621     -2420.9048
   1   2.0000     -88.965764     -2420.8815
   2   2.0000     -10.328611      -281.0558
   3   2.0000     -10.327069      -281.0138
   4   2.0000     -10.320939      -280.8470
   5   2.0000     -10.309255      -280.5291
   6   2.0000     -10.305267      -280.4206
   7   2.0000     -10.304747      -280.4064
   8   2.0000     -10.301830      -280.3270
   9   2.0000     -10.295945      -280.1669
  10   2.0000     -10.289519      -279.9921
  11   2.0000     -10.289226      -279.9841
  12   2.0000     -10.287738      -279.9436
  13   2.0000     -10.283881      -279.8386
  14   2.0000     -10.281944      -279.7859
  15   2.0000     -10.281450      -279.7725
  16   2.0000      -8.081967      -219.9215
  17   2.0000      -8.079490      -219.8541
  18   2.0000      -6.040228      -164.3629
  19   2.0000      -6.038025      -164.3030
  20   2.0000      -6.036419      -164.2593
  21   2.0000      -6.034087      -164.1958
  22   2.0000      -6.032913      -164.1639
  23   2.0000      -6.030337      -164.0938
  24   2.0000      -1.003908       -27.3177
  25   2.0000      -0.981664       -26.7124
  26   2.0000      -0.912014       -24.8172
  27   2.0000      -0.907701       -24.6998
  28   2.0000      -0.861771       -23.4500
  29   2.0000      -0.847822       -23.0704
  30   2.0000      -0.844675       -22.9848
  31   2.0000      -0.807729       -21.9794
  32   2.0000      -0.785842       -21.3838
  33   2.0000      -0.769912       -20.9504
  34   2.0000      -0.702948       -19.1282
  35   2.0000      -0.696286       -18.9469
  36   2.0000      -0.687603       -18.7106
  37   2.0000      -0.666906       -18.1474
  38   2.0000      -0.644537       -17.5387
  39   2.0000      -0.611724       -16.6459
  40   2.0000      -0.588271       -16.0077
  41   2.0000      -0.577454       -15.7133
  42   2.0000      -0.568227       -15.4622
  43   2.0000      -0.541138       -14.7251
  44   2.0000      -0.536558       -14.6005
  45   2.0000      -0.521088       -14.1795
  46   2.0000      -0.516277       -14.0486
  47   2.0000      -0.506067       -13.7708
  48   2.0000      -0.502073       -13.6621
  49   2.0000      -0.494493       -13.4558
  50   2.0000      -0.486001       -13.2248
  51   2.0000      -0.480306       -13.0698
  52   2.0000      -0.472751       -12.8642
  53   2.0000      -0.461797       -12.5661
  54   2.0000      -0.459104       -12.4929
  55   2.0000      -0.446924       -12.1614
  56   2.0000      -0.437761       -11.9121
  57   2.0000      -0.436197       -11.8695
  58   2.0000      -0.434471       -11.8226
  59   2.0000      -0.426427       -11.6037
  60   2.0000      -0.419721       -11.4212
  61   2.0000      -0.416191       -11.3251
  62   2.0000      -0.411824       -11.2063
  63   2.0000      -0.335369        -9.1259
  64   2.0000      -0.328077        -8.9274
  65   2.0000      -0.326096        -8.8735
  66   2.0000      -0.297963        -8.1080
  67   0.0000       0.036073         0.9816
  68   0.0000       0.056972         1.5503
  69   0.0000       0.110818         3.0155
  70   0.0000       0.118459         3.2234
  71   0.0000       0.125624         3.4184

MULLIKEN ATOMIC CHARGES
-----------------------
   0 S :    0.132381
   1 C :   -0.116142
   2 C :   -0.063075
   3 C :    0.035342
   4 C :   -0.194976
   5 H :    0.026701
   6 C :    0.034490
   7 H :    0.040498
   8 H :    0.056050
   9 C :   -0.055127
  10 H :    0.027368
  11 H :    0.038509
  12 C :   -0.096737
  13 H :    0.040960
  14 H :    0.039214
  15 H :    0.027414
  16 S :    0.110534
  17 C :   -0.091765
  18 C :   -0.016035
  19 C :   -0.027267
  20 C :   -0.191084
  21 H :   -0.025571
  22 C :    0.122139
  23 H :    0.015550
  24 H :    0.017115
  25 C :   -0.074194
  26 H :    0.028905
  27 H :    0.043836
  28 C :   -0.080036
  29 H :    0.030463
  30 H :    0.036151
  31 H :    0.036106
  32 H :    0.023117
  33 H :    0.069169
Sum of atomic charges:    0.0000000

LOEWDIN ATOMIC CHARGES
----------------------
   0 S :    0.429857
   1 C :   -0.186432
   2 C :   -0.063643
   3 C :   -0.064927
   4 C :   -0.218529
   5 H :    0.037641
   6 C :   -0.036962
   7 H :    0.040114
   8 H :    0.042928
   9 C :   -0.037981
  10 H :    0.026126
  11 H :    0.027217
  12 C :   -0.083395
  13 H :    0.029587
  14 H :    0.025965
  15 H :    0.028639
  16 S :    0.400525
  17 C :   -0.191596
  18 C :   -0.065979
  19 C :   -0.055515
  20 C :   -0.201550
  21 H :    0.012858
  22 C :   -0.028483
  23 H :    0.035808
  24 H :    0.026294
  25 C :   -0.040303
  26 H :    0.021442
  27 H :    0.036961
  28 C :   -0.075422
  29 H :    0.021610
  30 H :    0.028130
  31 H :    0.028379
  32 H :    0.010810
  33 H :    0.039826

  Mayer bond orders larger than 0.100000
B(  0-S ,  1-C ) :   1.1521 B(  0-S ,  4-C ) :   1.1726 B(  1-C ,  2-C ) :   1.6070
B(  1-C , 32-H ) :   0.9714 B(  2-C ,  3-C ) :   1.2311 B(  2-C ,  6-C ) :   1.0172
B(  3-C ,  4-C ) :   1.5877 B(  3-C ,  5-H ) :   0.9891 B(  4-C , 20-C ) :   0.9819
B(  6-C ,  7-H ) :   0.9495 B(  6-C ,  8-H ) :   0.9418 B(  6-C ,  9-C ) :   1.0541
B(  9-C , 10-H ) :   0.9585 B(  9-C , 11-H ) :   0.9591 B(  9-C , 12-C ) :   1.0797
B( 12-C , 13-H ) :   0.9702 B( 12-C , 14-H ) :   0.9748 B( 12-C , 15-H ) :   0.9689
B( 16-S , 17-C ) :   1.1610 B( 16-S , 20-C ) :   1.1589 B( 17-C , 18-C ) :   1.5629
B( 17-C , 20-C ) :   0.1200 B( 17-C , 33-H ) :   0.9642 B( 18-C , 19-C ) :   1.2903
B( 18-C , 21-H ) :   0.9953 B( 19-C , 20-C ) :   1.5627 B( 19-C , 22-C ) :   1.0386
B( 22-C , 23-H ) :   0.9207 B( 22-C , 24-H ) :   0.9286 B( 22-C , 25-C ) :   1.0839
B( 25-C , 26-H ) :   0.9528 B( 25-C , 27-H ) :   0.9545 B( 25-C , 28-C ) :   1.0725
B( 28-C , 29-H ) :   0.9761 B( 28-C , 30-H ) :   0.9764 B( 28-C , 31-H ) :   0.9755

Dispersion correction           -0.014127765
FINAL SINGLE POINT ENERGY     -1339.866339866079

DIPOLE MOMENT
-------------
                                X             Y             Z
Electronic contribution:    -15.69397      -0.76547      17.48069
Nuclear contribution   :     16.13008       0.96751     -17.81947
                        -----------------------------------------
Total Dipole Moment    :      0.43611       0.20205      -0.33878
                        -----------------------------------------
Magnitude (a.u.)       :      0.58804
Magnitude (Debye)      :      1.49468

Rotational constants in cm-1:     0.020544     0.007845     0.006410
Rotational constants in MHz :   615.902400   235.177387   192.154423

                             ****ORCA TERMINATED NORMALLY****
TOTAL RUN TIME: 0 days 0 hours 0 minutes 22 seconds 395 msec
