                         Program Version 4.2.1 -  RELEASE  -
|  1> ! wB97X-D3 SP def2-SVP
|  2> %pal
|  3> nprocs 24
|  4> end
|  5>
|  6> * xyz 0 1
|  7> S 	 -105.161 	 53.5107 	 -81.0551
|  8> C 	 -104.988 	 54.2767 	 -82.6301
|  9> C 	 -105.657 	 53.6331 	 -83.5898
| 10> C 	 -106.255 	 52.4362 	 -83.0617
| 11> C 	 -106.089 	 52.1877 	 -81.7387
| 12> H 	 -106.82 	 51.6918 	 -83.6145
| 13> C 	 -105.759 	 54.0655 	 -84.9943
| 14> H 	 -105.626 	 55.1539 	 -85.0298
| 15> H 	 -106.772 	 53.8599 	 -85.3209
| 16> C 	 -104.775 	 53.3905 	 -85.9537
| 17> H 	 -103.777 	 53.4137 	 -85.5503
| 18> H 	 -105.131 	 52.4184 	 -86.1189
| 19> C 	 -104.707 	 54.091 	 -87.3505
| 20> H 	 -104.019 	 53.6708 	 -88.0823
| 21> H 	 -105.72 	 54.1976 	 -87.7461
| 22> H 	 -104.377 	 55.113 	 -87.2261
| 23> S 	 -108.09 	 51.761 	 -79.9703
| 24> C 	 -108.493 	 50.1152 	 -79.4301
| 25> C 	 -107.667 	 49.2085 	 -80.0266
| 26> C 	 -106.642 	 49.8345 	 -80.8439
| 27> C 	 -106.825 	 51.2324 	 -80.9355
| 28> H 	 -107.879 	 48.0977 	 -79.9514
| 29> C 	 -105.668 	 48.9681 	 -81.678
| 30> H 	 -105.572 	 48.0809 	 -81.1213
| 31> H 	 -104.724 	 49.4635 	 -81.7745
| 32> C 	 -106.142 	 48.6071 	 -83.1195
| 33> H 	 -105.256 	 48.2867 	 -83.6385
| 34> H 	 -106.509 	 49.5291 	 -83.5016
| 35> C 	 -107.239 	 47.5479 	 -83.3137
| 36> H 	 -106.948 	 46.7211 	 -84.0029
| 37> H 	 -108.129 	 48.0493 	 -83.679
| 38> H 	 -107.535 	 47.1867 	 -82.3095
| 39> H 	 -104.415 	 55.1152 	 -82.8605
| 40> H 	 -109.365 	 49.7194 	 -78.9091
| 41> *
| 42>
| 43>                          ****END OF INPUT****

CARTESIAN COORDINATES (ANGSTROEM)
---------------------------------
  S    -105.161000   53.510700  -81.055100
  C    -104.988000   54.276700  -82.630100
  C    -105.657000   53.633100  -83.589800
  C    -106.255000   52.436200  -83.061700
  C    -106.089000   52.187700  -81.738700
  H    -106.820000   51.691800  -83.614500
  C    -105.759000   54.065500  -84.994300
  H    -105.626000   55.153900  -85.029800
  H    -106.772000   53.859900  -85.320900
  C    -104.775000   53.390500  -85.953700
  H    -103.777000   53.413700  -85.550300
  H    -105.131000   52.418400  -86.118900
  C    -104.707000   54.091000  -87.350500
  H    -104.019000   53.670800  -88.082300
  H    -105.720000   54.197600  -87.746100
  H    -104.377000   55.113000  -87.226100
  S    -108.090000   51.761000  -79.970300
  C    -108.493000   50.115200  -79.430100
  C    -107.667000   49.208500  -80.026600
  C    -106.642000   49.834500  -80.843900
  C    -106.825000   51.232400  -80.935500
  H    -107.879000   48.097700  -79.951400
  C    -105.668000   48.968100  -81.678000
  H    -105.572000   48.080900  -81.121300
  H    -104.724000   49.463500  -81.774500
  C    -106.142000   48.607100  -83.119500
  H    -105.256000   48.286700  -83.638500
  H    -106.509000   49.529100  -83.501600
  C    -107.239000   47.547900  -83.313700
  H    -106.948000   46.721100  -84.002900
  H    -108.129000   48.049300  -83.679000
  H    -107.535000   47.186700  -82.309500
  H    -104.415000   55.115200  -82.860500
  H    -109.365000   49.719400  -78.909100

 Total Charge           Charge          ....    0
 Multiplicity           Mult            ....    1
 Number of Electrons    NEL             ....  134
 Basis Dimension        Dim             ....  322

ORBITAL ENERGIES
----------------

  NO   OCC          E(Eh)            E(eV)
   0   2.0000     -88.968522     -2420.9566
   1   2.0000     -88.963025     -2420.8070
   2   2.0000     -10.326150      -280.9888
   3   2.0000     -10.324346      -280.9397
   4   2.0000     -10.316587      -280.7286
   5   2.0000     -10.307381      -280.4781
   6   2.0000     -10.305072      -280.4153
   7   2.0000     -10.298469      -280.2356
   8   2.0000     -10.294737      -280.1340
   9   2.0000     -10.292549      -280.0745
  10   2.0000     -10.291430      -280.0440
  11   2.0000     -10.285704      -279.8882
  12   2.0000     -10.284605      -279.8583
  13   2.0000     -10.280090      -279.7355
  14   2.0000     -10.279994      -279.7329
  15   2.0000     -10.279610      -279.7224
  16   2.0000      -8.083844      -219.9726
  17   2.0000      -8.077813      -219.8085
  18   2.0000      -6.042388      -164.4217
  19   2.0000      -6.038153      -164.3065
  20   2.0000      -6.036433      -164.2597
  21   2.0000      -6.034605      -164.2099
  22   2.0000      -6.032326      -164.1479
  23   2.0000      -6.028420      -164.0417
  24   2.0000      -1.012779       -27.5591
  25   2.0000      -0.989275       -26.9195
  26   2.0000      -0.918152       -24.9842
  27   2.0000      -0.904446       -24.6112
  28   2.0000      -0.876595       -23.8534
  29   2.0000      -0.846976       -23.0474
  30   2.0000      -0.844501       -22.9801
  31   2.0000      -0.822016       -22.3682
  32   2.0000      -0.783998       -21.3337
  33   2.0000      -0.773482       -21.0475
  34   2.0000      -0.713352       -19.4113
  35   2.0000      -0.705747       -19.2043
  36   2.0000      -0.689811       -18.7707
  37   2.0000      -0.656389       -17.8613
  38   2.0000      -0.648399       -17.6438
  39   2.0000      -0.619491       -16.8572
  40   2.0000      -0.590597       -16.0710
  41   2.0000      -0.580601       -15.7990
  42   2.0000      -0.566192       -15.4069
  43   2.0000      -0.549794       -14.9607
  44   2.0000      -0.545336       -14.8393
  45   2.0000      -0.527068       -14.3422
  46   2.0000      -0.519752       -14.1432
  47   2.0000      -0.512772       -13.9532
  48   2.0000      -0.506501       -13.7826
  49   2.0000      -0.503935       -13.7128
  50   2.0000      -0.493834       -13.4379
  51   2.0000      -0.474422       -12.9097
  52   2.0000      -0.472235       -12.8502
  53   2.0000      -0.469287       -12.7700
  54   2.0000      -0.461503       -12.5581
  55   2.0000      -0.446819       -12.1586
  56   2.0000      -0.444425       -12.0934
  57   2.0000      -0.437151       -11.8955
  58   2.0000      -0.433303       -11.7908
  59   2.0000      -0.429258       -11.6807
  60   2.0000      -0.420630       -11.4459
  61   2.0000      -0.417483       -11.3603
  62   2.0000      -0.413961       -11.2645
  63   2.0000      -0.346866        -9.4387
  64   2.0000      -0.329379        -8.9629
  65   2.0000      -0.327079        -8.9003
  66   2.0000      -0.304396        -8.2830
  67   0.0000       0.042856         1.1662
  68   0.0000       0.059925         1.6306
  69   0.0000       0.116548         3.1714
  70   0.0000       0.125285         3.4092
  71   0.0000       0.129526         3.5246

MULLIKEN ATOMIC CHARGES
-----------------------
   0 S :    0.103433
   1 C :   -0.091384
   2 C :   -0.067900
   3 C :    0.035175
   4 C :   -0.159209
   5 H :    0.010838
   6 C :    0.060791
   7 H :    0.017546
   8 H :    0.023672
   9 C :   -0.035573
  10 H :    0.029846
  11 H :    0.021266
  12 C :   -0.053879
  13 H :    0.043381
  14 H :    0.025271
  15 H :    0.018329
  16 S :    0.133676
  17 C :   -0.093492
  18 C :   -0.069617
  19 C :   -0.066873
  20 C :   -0.174099
  21 H :    0.049113
  22 C :    0.103106
  23 H :    0.007781
  24 H :    0.027592
  25 C :   -0.048407
  26 H :    0.030057
  27 H :   -0.001384
  28 C :   -0.049138
  29 H :    0.050324
  30 H :    0.030341
  31 H :    0.016007
  32 H :    0.015605
  33 H :    0.057805
Sum of atomic charges:    0.0000000

LOEWDIN ATOMIC CHARGES
----------------------
   0 S :    0.391260
   1 C :   -0.172284
   2 C :   -0.067648
   3 C :   -0.054707
   4 C :   -0.197531
   5 H :    0.026280
   6 C :   -0.029788
   7 H :    0.030256
   8 H :    0.032152
   9 C :   -0.027099
  10 H :    0.023360
  11 H :    0.017500
  12 C :   -0.067021
  13 H :    0.027646
  14 H :    0.024081
  15 H :    0.020523
  16 S :    0.438064
  17 C :   -0.193062
  18 C :   -0.079052
  19 C :   -0.057943
  20 C :   -0.229593
  21 H :    0.042242
  22 C :   -0.021110
  23 H :    0.020225
  24 H :    0.031671
  25 C :   -0.035936
  26 H :    0.024008
  27 H :    0.014920
  28 C :   -0.070767
  29 H :    0.033422
  30 H :    0.027711
  31 H :    0.023205
  32 H :    0.018033
  33 H :    0.036979

  Mayer bond orders larger than 0.100000
B(  0-S ,  1-C ) :   1.1270 B(  0-S ,  4-C ) :   1.1279 B(  1-C ,  2-C ) :   1.6507
B(  1-C , 32-H ) :   0.9690 B(  2-C ,  3-C ) :   1.2082 B(  2-C ,  6-C ) :   1.0371
B(  3-C ,  4-C ) :   1.6264 B(  3-C ,  5-H ) :   0.9843 B(  4-C , 20-C ) :   1.0144
B(  6-C ,  7-H ) :   0.9409 B(  6-C ,  8-H ) :   0.9287 B(  6-C ,  9-C ) :   1.0631
B(  9-C , 10-H ) :   0.9599 B(  9-C , 11-H ) :   0.9548 B(  9-C , 12-C ) :   1.0820
B( 12-C , 13-H ) :   0.9764 B( 12-C , 14-H ) :   0.9738 B( 12-C , 15-H ) :   0.9752
B( 16-S , 17-C ) :   1.1401 B( 16-S , 20-C ) :   1.1740 B( 17-C , 18-C ) :   1.6418
B( 17-C , 33-H ) :   0.9615 B( 18-C , 19-C ) :   1.2494 B( 18-C , 21-H ) :   0.9692
B( 19-C , 20-C ) :   1.5728 B( 19-C , 22-C ) :   1.0581 B( 22-C , 23-H ) :   0.9337
B( 22-C , 24-H ) :   0.9264 B( 22-C , 25-C ) :   1.0791 B( 25-C , 26-H ) :   0.9594
B( 25-C , 27-H ) :   0.9590 B( 25-C , 28-C ) :   1.0626 B( 28-C , 29-H ) :   0.9776
B( 28-C , 30-H ) :   0.9773 B( 28-C , 31-H ) :   0.9784

Dispersion correction           -0.014440839
FINAL SINGLE POINT ENERGY     -1339.875102482049

DIPOLE MOMENT
-------------
                                X             Y             Z
Electronic contribution:     -4.62691       9.84743      27.15566
Nuclear contribution   :      4.57768     -10.12011     -27.86081
                        -----------------------------------------
Total Dipole Moment    :     -0.04923      -0.27268      -0.70516
                        -----------------------------------------
Magnitude (a.u.)       :      0.75764
Magnitude (Debye)      :      1.92578

Rotational constants in cm-1:     0.019142     0.008522     0.006564
Rotational constants in MHz :   573.847924   255.494552   196.792151

                             ****ORCA TERMINATED NORMALLY****
TOTAL RUN TIME: 0 days 0 hours 0 minutes 21 seconds 767 msec
