                         Program Version 4.2.1 -  RELEASE  -
|  1> ! wB97X-D3 SP def2-SVP
|  2> %pal
|  3> nprocs 24
|  4> end
|  5>
|  6> * xyz 0 1
|  7> S 	 -95.2395 	 5.85312 	 -1.67047
|  8> C 	 -96.4474 	 6.00871 	 -2.92436
|  9> C 	 -95.809 	 5.93 	 -4.14877
| 10> C 	 -94.3961 	 5.78382 	 -4.05729
| 11> C 	 -93.8862 	 5.79853 	 -2.76889
| 12> H 	 -93.7353 	 5.64549 	 -4.93273
| 13> C 	 -96.52 	 5.91327 	 -5.50547
| 14> H 	 -97.3738 	 5.22381 	 -5.46163
| 15> H 	 -95.8291 	 5.38818 	 -6.10362
| 16> C 	 -96.9835 	 7.26295 	 -6.16048
| 17> H 	 -97.7292 	 7.5598 	 -5.52793
| 18> H 	 -96.1785 	 7.99991 	 -6.22728
| 19> C 	 -97.4261 	 7.10312 	 -7.61136
| 20> H 	 -96.5398 	 7.1153 	 -8.29756
| 21> H 	 -97.8866 	 6.1146 	 -7.76906
| 22> H 	 -98.1293 	 7.83986 	 -7.88539
| 23> S 	 -92.0659 	 4.80923 	 -0.880396
| 24> C 	 -90.4559 	 5.3799 	 -0.889182
| 25> C 	 -90.142 	 6.01176 	 -2.11252
| 26> C 	 -91.3913 	 6.30969 	 -2.83357
| 27> C 	 -92.5081 	 5.76693 	 -2.29047
| 28> H 	 -89.097 	 6.15338 	 -2.49383
| 29> C 	 -91.3259 	 6.87307 	 -4.25276
| 30> H 	 -92.2872 	 7.16202 	 -4.71097
| 31> H 	 -90.9601 	 6.04646 	 -4.94182
| 32> C 	 -90.4518 	 8.04524 	 -4.50515
| 33> H 	 -89.4689 	 7.75199 	 -4.10809
| 34> H 	 -90.7235 	 8.87913 	 -3.8072
| 35> C 	 -90.5022 	 8.57709 	 -5.9181
| 36> H 	 -91.4082 	 8.87359 	 -6.43425
| 37> H 	 -89.9011 	 7.88231 	 -6.49568
| 38> H 	 -89.8864 	 9.48465 	 -5.91406
| 39> H 	 -97.5086 	 6.22046 	 -2.87925
| 40> H 	 -89.7258 	 5.24035 	 -0.0891638
| 41> *
| 42>
| 43>                          ****END OF INPUT****

CARTESIAN COORDINATES (ANGSTROEM)
---------------------------------
  S    -95.239500    5.853120   -1.670470
  C    -96.447400    6.008710   -2.924360
  C    -95.809000    5.930000   -4.148770
  C    -94.396100    5.783820   -4.057290
  C    -93.886200    5.798530   -2.768890
  H    -93.735300    5.645490   -4.932730
  C    -96.520000    5.913270   -5.505470
  H    -97.373800    5.223810   -5.461630
  H    -95.829100    5.388180   -6.103620
  C    -96.983500    7.262950   -6.160480
  H    -97.729200    7.559800   -5.527930
  H    -96.178500    7.999910   -6.227280
  C    -97.426100    7.103120   -7.611360
  H    -96.539800    7.115300   -8.297560
  H    -97.886600    6.114600   -7.769060
  H    -98.129300    7.839860   -7.885390
  S    -92.065900    4.809230   -0.880396
  C    -90.455900    5.379900   -0.889182
  C    -90.142000    6.011760   -2.112520
  C    -91.391300    6.309690   -2.833570
  C    -92.508100    5.766930   -2.290470
  H    -89.097000    6.153380   -2.493830
  C    -91.325900    6.873070   -4.252760
  H    -92.287200    7.162020   -4.710970
  H    -90.960100    6.046460   -4.941820
  C    -90.451800    8.045240   -4.505150
  H    -89.468900    7.751990   -4.108090
  H    -90.723500    8.879130   -3.807200
  C    -90.502200    8.577090   -5.918100
  H    -91.408200    8.873590   -6.434250
  H    -89.901100    7.882310   -6.495680
  H    -89.886400    9.484650   -5.914060
  H    -97.508600    6.220460   -2.879250
  H    -89.725800    5.240350   -0.089164

 Total Charge           Charge          ....    0
 Multiplicity           Mult            ....    1
 Number of Electrons    NEL             ....  134
 Basis Dimension        Dim             ....  322

ORBITAL ENERGIES
----------------

  NO   OCC          E(Eh)            E(eV)
   0   2.0000     -88.966781     -2420.9092
   1   2.0000     -88.965855     -2420.8840
   2   2.0000     -10.332002      -281.1481
   3   2.0000     -10.327179      -281.0168
   4   2.0000     -10.322945      -280.9016
   5   2.0000     -10.314400      -280.6691
   6   2.0000     -10.306440      -280.4525
   7   2.0000     -10.306164      -280.4450
   8   2.0000     -10.299241      -280.2566
   9   2.0000     -10.295174      -280.1459
  10   2.0000     -10.290969      -280.0315
  11   2.0000     -10.289501      -279.9915
  12   2.0000     -10.283896      -279.8390
  13   2.0000     -10.283232      -279.8210
  14   2.0000     -10.279562      -279.7211
  15   2.0000     -10.278786      -279.7000
  16   2.0000      -8.082188      -219.9275
  17   2.0000      -8.080467      -219.8807
  18   2.0000      -6.040754      -164.3773
  19   2.0000      -6.039093      -164.3321
  20   2.0000      -6.036692      -164.2667
  21   2.0000      -6.034760      -164.2142
  22   2.0000      -6.032745      -164.1593
  23   2.0000      -6.031330      -164.1208
  24   2.0000      -1.009443       -27.4683
  25   2.0000      -0.986995       -26.8575
  26   2.0000      -0.916056       -24.9272
  27   2.0000      -0.909068       -24.7370
  28   2.0000      -0.872585       -23.7442
  29   2.0000      -0.854479       -23.2516
  30   2.0000      -0.843228       -22.9454
  31   2.0000      -0.813910       -22.1476
  32   2.0000      -0.784251       -21.3405
  33   2.0000      -0.774197       -21.0670
  34   2.0000      -0.707834       -19.2611
  35   2.0000      -0.702897       -19.1268
  36   2.0000      -0.695364       -18.9218
  37   2.0000      -0.656981       -17.8774
  38   2.0000      -0.636873       -17.3302
  39   2.0000      -0.621225       -16.9044
  40   2.0000      -0.600940       -16.3524
  41   2.0000      -0.570341       -15.5198
  42   2.0000      -0.566845       -15.4246
  43   2.0000      -0.565678       -15.3929
  44   2.0000      -0.528802       -14.3894
  45   2.0000      -0.523206       -14.2372
  46   2.0000      -0.519127       -14.1262
  47   2.0000      -0.511519       -13.9191
  48   2.0000      -0.505775       -13.7628
  49   2.0000      -0.501908       -13.6576
  50   2.0000      -0.495764       -13.4904
  51   2.0000      -0.485568       -13.2130
  52   2.0000      -0.481523       -13.1029
  53   2.0000      -0.466747       -12.7008
  54   2.0000      -0.461246       -12.5511
  55   2.0000      -0.451647       -12.2899
  56   2.0000      -0.444526       -12.0962
  57   2.0000      -0.433040       -11.7836
  58   2.0000      -0.426511       -11.6059
  59   2.0000      -0.424981       -11.5643
  60   2.0000      -0.421956       -11.4820
  61   2.0000      -0.413539       -11.2530
  62   2.0000      -0.400677       -10.9030
  63   2.0000      -0.352814        -9.6006
  64   2.0000      -0.329902        -8.9771
  65   2.0000      -0.325839        -8.8665
  66   2.0000      -0.291309        -7.9269
  67   0.0000       0.024097         0.6557
  68   0.0000       0.074187         2.0187
  69   0.0000       0.098141         2.6706
  70   0.0000       0.122022         3.3204
  71   0.0000       0.130983         3.5642

MULLIKEN ATOMIC CHARGES
-----------------------
   0 S :    0.109819
   1 C :   -0.102706
   2 C :   -0.110898
   3 C :    0.005000
   4 C :   -0.141703
   5 H :    0.027678
   6 C :    0.047621
   7 H :    0.027294
   8 H :   -0.001638
   9 C :   -0.016512
  10 H :    0.008736
  11 H :    0.031803
  12 C :   -0.051684
  13 H :    0.038697
  14 H :    0.023431
  15 H :    0.033301
  16 S :    0.116433
  17 C :   -0.102246
  18 C :   -0.062157
  19 C :   -0.019983
  20 C :   -0.117833
  21 H :    0.056800
  22 C :   -0.003427
  23 H :    0.023787
  24 H :    0.042403
  25 C :   -0.094924
  26 H :    0.012084
  27 H :    0.029456
  28 C :   -0.022407
  29 H :    0.045128
  30 H :    0.023360
  31 H :    0.026995
  32 H :    0.047602
  33 H :    0.070689
Sum of atomic charges:   -0.0000000

LOEWDIN ATOMIC CHARGES
----------------------
   0 S :    0.415316
   1 C :   -0.200857
   2 C :   -0.067622
   3 C :   -0.070972
   4 C :   -0.191230
   5 H :    0.034988
   6 C :   -0.030384
   7 H :    0.031483
   8 H :    0.019158
   9 C :   -0.028907
  10 H :    0.010145
  11 H :    0.027797
  12 C :   -0.063135
  13 H :    0.031433
  14 H :    0.023743
  15 H :    0.021646
  16 S :    0.416327
  17 C :   -0.194666
  18 C :   -0.078171
  19 C :   -0.053703
  20 C :   -0.198272
  21 H :    0.041625
  22 C :   -0.044962
  23 H :    0.027994
  24 H :    0.037257
  25 C :   -0.051720
  26 H :    0.019962
  27 H :    0.026667
  28 C :   -0.067172
  29 H :    0.028893
  30 H :    0.025796
  31 H :    0.032511
  32 H :    0.034692
  33 H :    0.034341

  Mayer bond orders larger than 0.100000
B(  0-S ,  1-C ) :   1.1406 B(  0-S ,  4-C ) :   1.1598 B(  1-C ,  2-C ) :   1.5936
B(  1-C ,  4-C ) :   0.1030 B(  1-C , 32-H ) :   0.9705 B(  2-C ,  3-C ) :   1.2726
B(  2-C ,  6-C ) :   1.0143 B(  3-C ,  4-C ) :   1.5443 B(  3-C ,  5-H ) :   0.9827
B(  4-C , 20-C ) :   1.0532 B(  6-C ,  7-H ) :   0.9403 B(  6-C ,  8-H ) :   0.9424
B(  6-C ,  9-C ) :   1.0568 B(  9-C , 10-H ) :   0.9574 B(  9-C , 11-H ) :   0.9604
B(  9-C , 12-C ) :   1.0790 B( 12-C , 13-H ) :   0.9773 B( 12-C , 14-H ) :   0.9753
B( 12-C , 15-H ) :   0.9743 B( 16-S , 17-C ) :   1.1755 B( 16-S , 20-C ) :   1.1167
B( 17-C , 18-C ) :   1.5937 B( 17-C , 33-H ) :   0.9672 B( 18-C , 19-C ) :   1.2199
B( 18-C , 21-H ) :   0.9781 B( 19-C , 20-C ) :   1.6279 B( 19-C , 22-C ) :   1.0446
B( 22-C , 23-H ) :   0.9349 B( 22-C , 24-H ) :   0.9349 B( 22-C , 25-C ) :   1.0640
B( 25-C , 26-H ) :   0.9481 B( 25-C , 27-H ) :   0.9537 B( 25-C , 28-C ) :   1.0851
B( 28-C , 29-H ) :   0.9739 B( 28-C , 30-H ) :   0.9705 B( 28-C , 31-H ) :   0.9691

Dispersion correction           -0.013275762
FINAL SINGLE POINT ENERGY     -1339.863000899834

DIPOLE MOMENT
-------------
                                X             Y             Z
Electronic contribution:      1.28897     -13.44415      30.41384
Nuclear contribution   :     -1.13328      13.63465     -31.13458
                        -----------------------------------------
Total Dipole Moment    :      0.15569       0.19050      -0.72074
                        -----------------------------------------
Magnitude (a.u.)       :      0.76157
Magnitude (Debye)      :      1.93577

Rotational constants in cm-1:     0.017250     0.008636     0.006010
Rotational constants in MHz :   517.134096   258.899747   180.166916

                             ****ORCA TERMINATED NORMALLY****
TOTAL RUN TIME: 0 days 0 hours 0 minutes 21 seconds 182 msec
