                         Program Version 4.2.1 -  RELEASE  -
|  1> ! wB97X-D3 SP def2-SVP
|  2> %pal
|  3> nprocs 24
|  4> end
|  5>
|  6> * xyz 0 1
|  7> S 	 -125.968 	 66.8289 	 -49.6541
|  8> C 	 -124.681 	 67.5748 	 -50.4733
|  9> C 	 -125.058 	 68.6911 	 -51.1693
| 10> C 	 -126.361 	 69.1206 	 -50.8244
| 11> C 	 -127.02 	 68.2422 	 -49.9908
| 12> H 	 -126.961 	 69.9246 	 -51.1241
| 13> C 	 -124.212 	 69.3985 	 -52.1805
| 14> H 	 -123.18 	 68.9829 	 -52.1457
| 15> H 	 -124.127 	 70.449 	 -51.9141
| 16> C 	 -124.63 	 69.2542 	 -53.616
| 17> H 	 -124.85 	 68.1861 	 -53.8915
| 18> H 	 -125.516 	 69.7257 	 -53.8268
| 19> C 	 -123.568 	 69.8242 	 -54.5572
| 20> H 	 -122.727 	 69.1984 	 -54.5677
| 21> H 	 -123.835 	 69.9236 	 -55.5724
| 22> H 	 -123.269 	 70.87 	 -54.3355
| 23> S 	 -129.446 	 66.9744 	 -49.961
| 24> C 	 -130.716 	 67.5895 	 -48.8247
| 25> C 	 -130.363 	 68.8898 	 -48.3656
| 26> C 	 -129.041 	 69.1871 	 -48.6578
| 27> C 	 -128.39 	 68.2566 	 -49.4612
| 28> H 	 -131.183 	 69.3821 	 -47.8047
| 29> C 	 -128.572 	 70.631 	 -48.4709
| 30> H 	 -129.361 	 71.3539 	 -48.6247
| 31> H 	 -127.857 	 70.8705 	 -49.2462
| 32> C 	 -127.947 	 70.8574 	 -47.0538
| 33> H 	 -127.106 	 70.1521 	 -47.0556
| 34> H 	 -128.692 	 70.5626 	 -46.4036
| 35> C 	 -127.546 	 72.325 	 -46.9486
| 36> H 	 -127.058 	 72.4352 	 -46.003
| 37> H 	 -128.495 	 72.8589 	 -46.783
| 38> H 	 -126.887 	 72.6887 	 -47.7249
| 39> H 	 -123.759 	 67.0517 	 -50.6107
| 40> H 	 -131.643 	 67.0989 	 -48.5739
| 41> *
| 42>
| 43>                          ****END OF INPUT****

CARTESIAN COORDINATES (ANGSTROEM)
---------------------------------
  S    -125.968000   66.828900  -49.654100
  C    -124.681000   67.574800  -50.473300
  C    -125.058000   68.691100  -51.169300
  C    -126.361000   69.120600  -50.824400
  C    -127.020000   68.242200  -49.990800
  H    -126.961000   69.924600  -51.124100
  C    -124.212000   69.398500  -52.180500
  H    -123.180000   68.982900  -52.145700
  H    -124.127000   70.449000  -51.914100
  C    -124.630000   69.254200  -53.616000
  H    -124.850000   68.186100  -53.891500
  H    -125.516000   69.725700  -53.826800
  C    -123.568000   69.824200  -54.557200
  H    -122.727000   69.198400  -54.567700
  H    -123.835000   69.923600  -55.572400
  H    -123.269000   70.870000  -54.335500
  S    -129.446000   66.974400  -49.961000
  C    -130.716000   67.589500  -48.824700
  C    -130.363000   68.889800  -48.365600
  C    -129.041000   69.187100  -48.657800
  C    -128.390000   68.256600  -49.461200
  H    -131.183000   69.382100  -47.804700
  C    -128.572000   70.631000  -48.470900
  H    -129.361000   71.353900  -48.624700
  H    -127.857000   70.870500  -49.246200
  C    -127.947000   70.857400  -47.053800
  H    -127.106000   70.152100  -47.055600
  H    -128.692000   70.562600  -46.403600
  C    -127.546000   72.325000  -46.948600
  H    -127.058000   72.435200  -46.003000
  H    -128.495000   72.858900  -46.783000
  H    -126.887000   72.688700  -47.724900
  H    -123.759000   67.051700  -50.610700
  H    -131.643000   67.098900  -48.573900

 Total Charge           Charge          ....    0
 Multiplicity           Mult            ....    1
 Number of Electrons    NEL             ....  134
 Basis Dimension        Dim             ....  322

ORBITAL ENERGIES
----------------

  NO   OCC          E(Eh)            E(eV)
   0   2.0000     -88.968882     -2420.9664
   1   2.0000     -88.962928     -2420.8043
   2   2.0000     -10.329971      -281.0928
   3   2.0000     -10.326051      -280.9861
   4   2.0000     -10.322036      -280.8769
   5   2.0000     -10.308283      -280.5026
   6   2.0000     -10.298586      -280.2388
   7   2.0000     -10.298325      -280.2317
   8   2.0000     -10.297850      -280.2187
   9   2.0000     -10.291930      -280.0576
  10   2.0000     -10.289963      -280.0041
  11   2.0000     -10.283184      -279.8197
  12   2.0000     -10.280827      -279.7555
  13   2.0000     -10.275731      -279.6168
  14   2.0000     -10.273643      -279.5600
  15   2.0000     -10.271161      -279.4925
  16   2.0000      -8.082667      -219.9405
  17   2.0000      -8.078309      -219.8220
  18   2.0000      -6.041101      -164.3867
  19   2.0000      -6.037390      -164.2857
  20   2.0000      -6.036610      -164.2645
  21   2.0000      -6.033485      -164.1795
  22   2.0000      -6.032821      -164.1614
  23   2.0000      -6.029145      -164.0614
  24   2.0000      -1.007325       -27.4107
  25   2.0000      -0.984901       -26.8005
  26   2.0000      -0.916823       -24.9480
  27   2.0000      -0.905898       -24.6507
  28   2.0000      -0.870173       -23.6786
  29   2.0000      -0.855168       -23.2703
  30   2.0000      -0.848521       -23.0894
  31   2.0000      -0.816273       -22.2119
  32   2.0000      -0.780297       -21.2330
  33   2.0000      -0.766916       -20.8688
  34   2.0000      -0.710329       -19.3290
  35   2.0000      -0.698821       -19.0159
  36   2.0000      -0.693637       -18.8748
  37   2.0000      -0.662648       -18.0316
  38   2.0000      -0.654126       -17.7997
  39   2.0000      -0.621779       -16.9195
  40   2.0000      -0.592097       -16.1118
  41   2.0000      -0.574654       -15.6371
  42   2.0000      -0.571292       -15.5456
  43   2.0000      -0.563738       -15.3401
  44   2.0000      -0.528700       -14.3867
  45   2.0000      -0.518474       -14.1084
  46   2.0000      -0.515130       -14.0174
  47   2.0000      -0.512066       -13.9340
  48   2.0000      -0.507659       -13.8141
  49   2.0000      -0.495874       -13.4934
  50   2.0000      -0.491466       -13.3735
  51   2.0000      -0.478929       -13.0323
  52   2.0000      -0.476740       -12.9728
  53   2.0000      -0.469218       -12.7681
  54   2.0000      -0.459348       -12.4995
  55   2.0000      -0.447429       -12.1752
  56   2.0000      -0.440072       -11.9750
  57   2.0000      -0.436395       -11.8749
  58   2.0000      -0.433576       -11.7982
  59   2.0000      -0.426995       -11.6191
  60   2.0000      -0.422286       -11.4910
  61   2.0000      -0.420062       -11.4305
  62   2.0000      -0.406987       -11.0747
  63   2.0000      -0.344567        -9.3761
  64   2.0000      -0.332179        -9.0390
  65   2.0000      -0.325854        -8.8669
  66   2.0000      -0.291466        -7.9312
  67   0.0000       0.028556         0.7771
  68   0.0000       0.061248         1.6667
  69   0.0000       0.098780         2.6879
  70   0.0000       0.128700         3.5021
  71   0.0000       0.130203         3.5430

MULLIKEN ATOMIC CHARGES
-----------------------
   0 S :    0.111398
   1 C :   -0.105013
   2 C :   -0.067611
   3 C :    0.065607
   4 C :   -0.175733
   5 H :   -0.001060
   6 C :    0.067957
   7 H :    0.012845
   8 H :    0.027852
   9 C :   -0.041521
  10 H :    0.031824
  11 H :    0.004339
  12 C :   -0.029639
  13 H :    0.020018
  14 H :    0.016418
  15 H :    0.024455
  16 S :    0.114500
  17 C :   -0.119750
  18 C :   -0.058986
  19 C :    0.029365
  20 C :   -0.174921
  21 H :    0.041709
  22 C :    0.029297
  23 H :    0.017352
  24 H :   -0.001891
  25 C :   -0.071190
  26 H :    0.037656
  27 H :    0.011558
  28 C :   -0.005507
  29 H :    0.022065
  30 H :    0.027900
  31 H :    0.041509
  32 H :    0.042422
  33 H :    0.054778
Sum of atomic charges:   -0.0000000

LOEWDIN ATOMIC CHARGES
----------------------
   0 S :    0.408618
   1 C :   -0.201434
   2 C :   -0.067454
   3 C :   -0.051361
   4 C :   -0.179584
   5 H :    0.025476
   6 C :   -0.031417
   7 H :    0.032267
   8 H :    0.030816
   9 C :   -0.035198
  10 H :    0.032337
  11 H :    0.009566
  12 C :   -0.060883
  13 H :    0.017519
  14 H :    0.021095
  15 H :    0.028758
  16 S :    0.399369
  17 C :   -0.173114
  18 C :   -0.069235
  19 C :   -0.064419
  20 C :   -0.208209
  21 H :    0.042966
  22 C :   -0.025439
  23 H :    0.023651
  24 H :    0.019017
  25 C :   -0.028584
  26 H :    0.026666
  27 H :    0.011995
  28 C :   -0.063185
  29 H :    0.023118
  30 H :    0.030615
  31 H :    0.027098
  32 H :    0.023589
  33 H :    0.024980

  Mayer bond orders larger than 0.100000
B(  0-S ,  1-C ) :   1.1572 B(  0-S ,  4-C ) :   1.1459 B(  1-C ,  2-C ) :   1.6127
B(  1-C , 32-H ) :   0.9663 B(  2-C ,  3-C ) :   1.2116 B(  2-C ,  6-C ) :   1.0332
B(  3-C ,  4-C ) :   1.5965 B(  3-C ,  5-H ) :   0.9996 B(  4-C , 20-C ) :   1.0196
B(  6-C ,  7-H ) :   0.9419 B(  6-C ,  8-H ) :   0.9328 B(  6-C ,  9-C ) :   1.0651
B(  9-C , 10-H ) :   0.9523 B(  9-C , 11-H ) :   0.9512 B(  9-C , 12-C ) :   1.0882
B( 12-C , 13-H ) :   0.9759 B( 12-C , 14-H ) :   0.9721 B( 12-C , 15-H ) :   0.9712
B( 16-S , 17-C ) :   1.1534 B( 16-S , 20-C ) :   1.1626 B( 17-C , 18-C ) :   1.5859
B( 17-C , 20-C ) :   0.1184 B( 17-C , 33-H ) :   0.9702 B( 18-C , 19-C ) :   1.2520
B( 18-C , 21-H ) :   0.9869 B( 19-C , 20-C ) :   1.5668 B( 19-C , 22-C ) :   1.0290
B( 22-C , 23-H ) :   0.9501 B( 22-C , 24-H ) :   0.9435 B( 22-C , 25-C ) :   1.0416
B( 25-C , 26-H ) :   0.9585 B( 25-C , 27-H ) :   0.9622 B( 25-C , 28-C ) :   1.0856
B( 28-C , 29-H ) :   0.9709 B( 28-C , 30-H ) :   0.9698 B( 28-C , 31-H ) :   0.9739

Dispersion correction           -0.013684701
FINAL SINGLE POINT ENERGY     -1339.858684232307

DIPOLE MOMENT
-------------
                                X             Y             Z
Electronic contribution:    -11.43494     -22.69519       5.54864
Nuclear contribution   :     11.43617      23.22291      -5.76463
                        -----------------------------------------
Total Dipole Moment    :      0.00123       0.52772      -0.21599
                        -----------------------------------------
Magnitude (a.u.)       :      0.57021
Magnitude (Debye)      :      1.44935

Rotational constants in cm-1:     0.018017     0.008009     0.006628
Rotational constants in MHz :   540.126464   240.117352   198.714968

                             ****ORCA TERMINATED NORMALLY****
TOTAL RUN TIME: 0 days 0 hours 0 minutes 21 seconds 281 msec
