                         Program Version 4.2.1 -  RELEASE  -
|  1> ! wB97X-D3 SP def2-SVP
|  2> %pal
|  3> nprocs 24
|  4> end
|  5>
|  6> * xyz 0 1
|  7> S 	 -96.9738 	 0.637326 	 -105.792
|  8> C 	 -96.4689 	 2.13745 	 -106.563
|  9> C 	 -97.0785 	 3.26269 	 -106.108
| 10> C 	 -97.7831 	 2.93464 	 -104.925
| 11> C 	 -97.8152 	 1.58428 	 -104.587
| 12> H 	 -98.4555 	 3.56167 	 -104.404
| 13> C 	 -97.0288 	 4.60124 	 -106.781
| 14> H 	 -98.0916 	 4.89045 	 -106.792
| 15> H 	 -96.5965 	 4.39218 	 -107.786
| 16> C 	 -96.2416 	 5.69682 	 -105.886
| 17> H 	 -96.6883 	 5.72127 	 -104.905
| 18> H 	 -95.1908 	 5.43569 	 -105.734
| 19> C 	 -96.3393 	 7.0587 	 -106.484
| 20> H 	 -96.1212 	 7.04403 	 -107.557
| 21> H 	 -97.403 	 7.44655 	 -106.289
| 22> H 	 -95.5929 	 7.6973 	 -105.991
| 23> S 	 -99.6076 	 -0.371394 	 -103.722
| 24> C 	 -100.233 	 -0.247794 	 -102.113
| 25> C 	 -99.3857 	 0.525299 	 -101.358
| 26> C 	 -98.4483 	 1.30327 	 -102.089
| 27> C 	 -98.4816 	 0.904883 	 -103.448
| 28> H 	 -99.5964 	 0.64892 	 -100.313
| 29> C 	 -97.7553 	 2.50553 	 -101.499
| 30> H 	 -98.4269 	 2.92981 	 -100.726
| 31> H 	 -97.7221 	 3.26764 	 -102.348
| 32> C 	 -96.306 	 2.31329 	 -100.825
| 33> H 	 -95.6341 	 1.88389 	 -101.609
| 34> H 	 -96.3444 	 1.59515 	 -100.045
| 35> C 	 -95.7569 	 3.56465 	 -100.203
| 36> H 	 -95.544 	 4.26242 	 -100.958
| 37> H 	 -94.7591 	 3.32596 	 -99.7462
| 38> H 	 -96.3542 	 4.06641 	 -99.4742
| 39> H 	 -95.9726 	 2.14508 	 -107.554
| 40> H 	 -100.981 	 -0.900505 	 -101.709
| 41> *
| 42>
| 43>                          ****END OF INPUT****

CARTESIAN COORDINATES (ANGSTROEM)
---------------------------------
  S    -96.973800    0.637326  -105.792000
  C    -96.468900    2.137450  -106.563000
  C    -97.078500    3.262690  -106.108000
  C    -97.783100    2.934640  -104.925000
  C    -97.815200    1.584280  -104.587000
  H    -98.455500    3.561670  -104.404000
  C    -97.028800    4.601240  -106.781000
  H    -98.091600    4.890450  -106.792000
  H    -96.596500    4.392180  -107.786000
  C    -96.241600    5.696820  -105.886000
  H    -96.688300    5.721270  -104.905000
  H    -95.190800    5.435690  -105.734000
  C    -96.339300    7.058700  -106.484000
  H    -96.121200    7.044030  -107.557000
  H    -97.403000    7.446550  -106.289000
  H    -95.592900    7.697300  -105.991000
  S    -99.607600   -0.371394  -103.722000
  C    -100.233000   -0.247794  -102.113000
  C    -99.385700    0.525299  -101.358000
  C    -98.448300    1.303270  -102.089000
  C    -98.481600    0.904883  -103.448000
  H    -99.596400    0.648920  -100.313000
  C    -97.755300    2.505530  -101.499000
  H    -98.426900    2.929810  -100.726000
  H    -97.722100    3.267640  -102.348000
  C    -96.306000    2.313290  -100.825000
  H    -95.634100    1.883890  -101.609000
  H    -96.344400    1.595150  -100.045000
  C    -95.756900    3.564650  -100.203000
  H    -95.544000    4.262420  -100.958000
  H    -94.759100    3.325960  -99.746200
  H    -96.354200    4.066410  -99.474200
  H    -95.972600    2.145080  -107.554000
  H    -100.981000   -0.900505  -101.709000

 Total Charge           Charge          ....    0
 Multiplicity           Mult            ....    1
 Number of Electrons    NEL             ....  134
 Basis Dimension        Dim             ....  322

ORBITAL ENERGIES
----------------

  NO   OCC          E(Eh)            E(eV)
   0   2.0000     -88.966570     -2420.9034
   1   2.0000     -88.964080     -2420.8357
   2   2.0000     -10.330585      -281.1095
   3   2.0000     -10.327827      -281.0345
   4   2.0000     -10.313689      -280.6497
   5   2.0000     -10.308483      -280.5081
   6   2.0000     -10.304236      -280.3925
   7   2.0000     -10.303419      -280.3703
   8   2.0000     -10.300451      -280.2895
   9   2.0000     -10.295982      -280.1679
  10   2.0000     -10.290207      -280.0108
  11   2.0000     -10.290121      -280.0084
  12   2.0000     -10.289678      -279.9964
  13   2.0000     -10.287497      -279.9370
  14   2.0000     -10.283900      -279.8392
  15   2.0000     -10.272041      -279.5164
  16   2.0000      -8.082111      -219.9254
  17   2.0000      -8.078898      -219.8380
  18   2.0000      -6.040498      -164.3703
  19   2.0000      -6.037323      -164.2839
  20   2.0000      -6.036505      -164.2616
  21   2.0000      -6.033572      -164.1818
  22   2.0000      -6.032947      -164.1648
  23   2.0000      -6.029593      -164.0736
  24   2.0000      -1.008217       -27.4350
  25   2.0000      -0.987847       -26.8807
  26   2.0000      -0.910505       -24.7761
  27   2.0000      -0.901587       -24.5334
  28   2.0000      -0.870604       -23.6903
  29   2.0000      -0.857370       -23.3302
  30   2.0000      -0.848341       -23.0845
  31   2.0000      -0.815180       -22.1822
  32   2.0000      -0.780849       -21.2480
  33   2.0000      -0.767283       -20.8788
  34   2.0000      -0.705819       -19.2063
  35   2.0000      -0.697262       -18.9735
  36   2.0000      -0.691227       -18.8092
  37   2.0000      -0.659692       -17.9511
  38   2.0000      -0.638621       -17.3778
  39   2.0000      -0.619969       -16.8702
  40   2.0000      -0.592599       -16.1255
  41   2.0000      -0.571715       -15.5572
  42   2.0000      -0.562418       -15.3042
  43   2.0000      -0.556710       -15.1488
  44   2.0000      -0.526295       -14.3212
  45   2.0000      -0.523773       -14.2526
  46   2.0000      -0.518161       -14.0999
  47   2.0000      -0.511430       -13.9167
  48   2.0000      -0.507270       -13.8035
  49   2.0000      -0.494403       -13.4534
  50   2.0000      -0.489643       -13.3239
  51   2.0000      -0.482534       -13.1304
  52   2.0000      -0.466804       -12.7024
  53   2.0000      -0.464432       -12.6378
  54   2.0000      -0.455498       -12.3947
  55   2.0000      -0.451018       -12.2728
  56   2.0000      -0.447361       -12.1733
  57   2.0000      -0.436414       -11.8754
  58   2.0000      -0.431298       -11.7362
  59   2.0000      -0.427766       -11.6401
  60   2.0000      -0.424687       -11.5563
  61   2.0000      -0.422007       -11.4834
  62   2.0000      -0.417302       -11.3554
  63   2.0000      -0.346087        -9.4175
  64   2.0000      -0.330560        -8.9950
  65   2.0000      -0.327507        -8.9119
  66   2.0000      -0.288715        -7.8563
  67   0.0000       0.030825         0.8388
  68   0.0000       0.069536         1.8922
  69   0.0000       0.106202         2.8899
  70   0.0000       0.118082         3.2132
  71   0.0000       0.131325         3.5735

MULLIKEN ATOMIC CHARGES
-----------------------
   0 S :    0.102475
   1 C :   -0.137555
   2 C :   -0.081548
   3 C :    0.024175
   4 C :   -0.163033
   5 H :    0.004453
   6 C :    0.064327
   7 H :    0.039137
   8 H :    0.032826
   9 C :   -0.086231
  10 H :    0.027479
  11 H :    0.034920
  12 C :   -0.051424
  13 H :    0.036034
  14 H :    0.041953
  15 H :    0.039100
  16 S :    0.116978
  17 C :   -0.095083
  18 C :   -0.028363
  19 C :   -0.022444
  20 C :   -0.146381
  21 H :    0.013036
  22 C :    0.019601
  23 H :    0.025969
  24 H :    0.025365
  25 C :   -0.056659
  26 H :    0.044958
  27 H :    0.017778
  28 C :   -0.026680
  29 H :    0.015917
  30 H :    0.036871
  31 H :    0.026845
  32 H :    0.049300
  33 H :    0.055903
Sum of atomic charges:    0.0000000

LOEWDIN ATOMIC CHARGES
----------------------
   0 S :    0.394689
   1 C :   -0.202671
   2 C :   -0.066709
   3 C :   -0.068674
   4 C :   -0.183651
   5 H :    0.021250
   6 C :   -0.025201
   7 H :    0.038296
   8 H :    0.035302
   9 C :   -0.038478
  10 H :    0.022520
  11 H :    0.024980
  12 C :   -0.071577
  13 H :    0.024751
  14 H :    0.033190
  15 H :    0.028734
  16 S :    0.425603
  17 C :   -0.191254
  18 C :   -0.067220
  19 C :   -0.057582
  20 C :   -0.213389
  21 H :    0.027141
  22 C :   -0.039022
  23 H :    0.031004
  24 H :    0.036868
  25 C :   -0.034606
  26 H :    0.033765
  27 H :    0.016518
  28 C :   -0.064451
  29 H :    0.017796
  30 H :    0.035619
  31 H :    0.021058
  32 H :    0.027888
  33 H :    0.027514

  Mayer bond orders larger than 0.100000
B(  0-S ,  1-C ) :   1.1319 B(  0-S ,  4-C ) :   1.1528 B(  1-C ,  2-C ) :   1.6474
B(  1-C , 32-H ) :   0.9520 B(  2-C ,  3-C ) :   1.2273 B(  2-C ,  6-C ) :   1.0206
B(  3-C ,  4-C ) :   1.6023 B(  3-C ,  5-H ) :   0.9828 B(  4-C , 20-C ) :   1.0149
B(  6-C ,  7-H ) :   0.9367 B(  6-C ,  8-H ) :   0.9381 B(  6-C ,  9-C ) :   1.0506
B(  9-C , 10-H ) :   0.9574 B(  9-C , 11-H ) :   0.9588 B(  9-C , 12-C ) :   1.0902
B( 12-C , 13-H ) :   0.9726 B( 12-C , 14-H ) :   0.9747 B( 12-C , 15-H ) :   0.9726
B( 16-S , 17-C ) :   1.1583 B( 16-S , 20-C ) :   1.1667 B( 17-C , 18-C ) :   1.5983
B( 17-C , 20-C ) :   0.1027 B( 17-C , 33-H ) :   0.9699 B( 18-C , 19-C ) :   1.2654
B( 18-C , 21-H ) :   0.9872 B( 19-C , 20-C ) :   1.5502 B( 19-C , 22-C ) :   1.0432
B( 22-C , 23-H ) :   0.9370 B( 22-C , 24-H ) :   0.9327 B( 22-C , 25-C ) :   1.0506
B( 25-C , 26-H ) :   0.9552 B( 25-C , 27-H ) :   0.9579 B( 25-C , 28-C ) :   1.0891
B( 28-C , 29-H ) :   0.9734 B( 28-C , 30-H ) :   0.9706 B( 28-C , 31-H ) :   0.9735

Dispersion correction           -0.013595339
FINAL SINGLE POINT ENERGY     -1339.875460094361

DIPOLE MOMENT
-------------
                                X             Y             Z
Electronic contribution:    -11.87612     -28.41270      -7.53783
Nuclear contribution   :     11.84291      29.04911       7.79389
                        -----------------------------------------
Total Dipole Moment    :     -0.03321       0.63640       0.25606
                        -----------------------------------------
Magnitude (a.u.)       :      0.68679
Magnitude (Debye)      :      1.74568

Rotational constants in cm-1:     0.016648     0.008799     0.006590
Rotational constants in MHz :   499.087227   263.801370   197.554949

                             ****ORCA TERMINATED NORMALLY****
TOTAL RUN TIME: 0 days 0 hours 0 minutes 21 seconds 287 msec
