                         Program Version 4.2.1 -  RELEASE  -
|  1> ! wB97X-D3 SP def2-SVP
|  2> %pal
|  3> nprocs 24
|  4> end
|  5>
|  6> * xyz 0 1
|  7> S 	 -66.2925 	 6.71758 	 17.2728
|  8> C 	 -65.4057 	 8.15688 	 17.6885
|  9> C 	 -64.4137 	 7.86173 	 18.6536
| 10> C 	 -64.5254 	 6.50291 	 19.1227
| 11> C 	 -65.3338 	 5.71549 	 18.3601
| 12> H 	 -63.8608 	 6.12889 	 19.8715
| 13> C 	 -63.4264 	 8.75383 	 19.4135
| 14> H 	 -63.0018 	 8.21434 	 20.2824
| 15> H 	 -64.0036 	 9.54704 	 19.922
| 16> C 	 -62.3696 	 9.43901 	 18.5316
| 17> H 	 -61.7883 	 8.85653 	 17.8062
| 18> H 	 -62.9223 	 10.0834 	 17.8799
| 19> C 	 -61.4308 	 10.2835 	 19.3792
| 20> H 	 -60.5333 	 10.5899 	 18.897
| 21> H 	 -61.9871 	 11.1343 	 19.7838
| 22> H 	 -61.1367 	 9.61467 	 20.1677
| 23> S 	 -66.8684 	 4.15979 	 20.0059
| 24> C 	 -67.0795 	 2.5417 	 19.733
| 25> C 	 -66.4525 	 2.12493 	 18.5399
| 26> C 	 -65.7541 	 3.21434 	 17.9009
| 27> C 	 -65.8603 	 4.40501 	 18.6334
| 28> H 	 -66.4808 	 1.13493 	 18.1598
| 29> C 	 -65.1273 	 3.02611 	 16.5636
| 30> H 	 -64.6249 	 3.86873 	 16.221
| 31> H 	 -65.9635 	 2.8887 	 15.8227
| 32> C 	 -64.2749 	 1.74297 	 16.4757
| 33> H 	 -64.8408 	 0.858978 	 16.5375
| 34> H 	 -63.5503 	 1.65933 	 17.3042
| 35> C 	 -63.5138 	 1.90007 	 15.1927
| 36> H 	 -64.2261 	 1.7563 	 14.2913
| 37> H 	 -62.7688 	 1.1561 	 15.1601
| 38> H 	 -62.9606 	 2.8625 	 15.0752
| 39> H 	 -65.6467 	 9.1728 	 17.4981
| 40> H 	 -67.5856 	 1.87775 	 20.427
| 41> *
| 42>
| 43>                          ****END OF INPUT****

CARTESIAN COORDINATES (ANGSTROEM)
---------------------------------
  S    -66.292500    6.717580   17.272800
  C    -65.405700    8.156880   17.688500
  C    -64.413700    7.861730   18.653600
  C    -64.525400    6.502910   19.122700
  C    -65.333800    5.715490   18.360100
  H    -63.860800    6.128890   19.871500
  C    -63.426400    8.753830   19.413500
  H    -63.001800    8.214340   20.282400
  H    -64.003600    9.547040   19.922000
  C    -62.369600    9.439010   18.531600
  H    -61.788300    8.856530   17.806200
  H    -62.922300   10.083400   17.879900
  C    -61.430800   10.283500   19.379200
  H    -60.533300   10.589900   18.897000
  H    -61.987100   11.134300   19.783800
  H    -61.136700    9.614670   20.167700
  S    -66.868400    4.159790   20.005900
  C    -67.079500    2.541700   19.733000
  C    -66.452500    2.124930   18.539900
  C    -65.754100    3.214340   17.900900
  C    -65.860300    4.405010   18.633400
  H    -66.480800    1.134930   18.159800
  C    -65.127300    3.026110   16.563600
  H    -64.624900    3.868730   16.221000
  H    -65.963500    2.888700   15.822700
  C    -64.274900    1.742970   16.475700
  H    -64.840800    0.858978   16.537500
  H    -63.550300    1.659330   17.304200
  C    -63.513800    1.900070   15.192700
  H    -64.226100    1.756300   14.291300
  H    -62.768800    1.156100   15.160100
  H    -62.960600    2.862500   15.075200
  H    -65.646700    9.172800   17.498100
  H    -67.585600    1.877750   20.427000

 Total Charge           Charge          ....    0
 Multiplicity           Mult            ....    1
 Number of Electrons    NEL             ....  134
 Basis Dimension        Dim             ....  322

ORBITAL ENERGIES
----------------

  NO   OCC          E(Eh)            E(eV)
   0   2.0000     -88.965137     -2420.8645
   1   2.0000     -88.962383     -2420.7895
   2   2.0000     -10.323353      -280.9127
   3   2.0000     -10.315963      -280.7116
   4   2.0000     -10.315200      -280.6909
   5   2.0000     -10.312134      -280.6074
   6   2.0000     -10.303168      -280.3635
   7   2.0000     -10.298239      -280.2293
   8   2.0000     -10.298195      -280.2281
   9   2.0000     -10.290469      -280.0179
  10   2.0000     -10.289326      -279.9868
  11   2.0000     -10.283586      -279.8306
  12   2.0000     -10.282964      -279.8137
  13   2.0000     -10.280603      -279.7494
  14   2.0000     -10.278074      -279.6806
  15   2.0000     -10.272401      -279.5263
  16   2.0000      -8.079641      -219.8582
  17   2.0000      -8.079336      -219.8499
  18   2.0000      -6.038219      -164.3083
  19   2.0000      -6.037522      -164.2893
  20   2.0000      -6.034018      -164.1940
  21   2.0000      -6.033315      -164.1748
  22   2.0000      -6.030521      -164.0988
  23   2.0000      -6.030480      -164.0977
  24   2.0000      -1.010799       -27.5053
  25   2.0000      -0.985185       -26.8082
  26   2.0000      -0.917363       -24.9627
  27   2.0000      -0.912204       -24.8223
  28   2.0000      -0.869828       -23.6692
  29   2.0000      -0.852941       -23.2097
  30   2.0000      -0.849738       -23.1225
  31   2.0000      -0.809288       -22.0218
  32   2.0000      -0.778999       -21.1977
  33   2.0000      -0.766361       -20.8537
  34   2.0000      -0.707605       -19.2549
  35   2.0000      -0.704665       -19.1749
  36   2.0000      -0.694204       -18.8902
  37   2.0000      -0.657262       -17.8850
  38   2.0000      -0.641610       -17.4591
  39   2.0000      -0.619907       -16.8685
  40   2.0000      -0.604366       -16.4456
  41   2.0000      -0.569267       -15.4905
  42   2.0000      -0.565402       -15.3854
  43   2.0000      -0.561098       -15.2683
  44   2.0000      -0.530704       -14.4412
  45   2.0000      -0.525715       -14.3054
  46   2.0000      -0.521641       -14.1946
  47   2.0000      -0.515670       -14.0321
  48   2.0000      -0.505133       -13.7454
  49   2.0000      -0.495599       -13.4859
  50   2.0000      -0.487924       -13.2771
  51   2.0000      -0.476768       -12.9735
  52   2.0000      -0.470567       -12.8048
  53   2.0000      -0.469821       -12.7845
  54   2.0000      -0.456020       -12.4089
  55   2.0000      -0.447095       -12.1661
  56   2.0000      -0.445744       -12.1293
  57   2.0000      -0.441001       -12.0003
  58   2.0000      -0.437615       -11.9081
  59   2.0000      -0.423126       -11.5138
  60   2.0000      -0.421164       -11.4605
  61   2.0000      -0.412622       -11.2280
  62   2.0000      -0.410992       -11.1836
  63   2.0000      -0.335246        -9.1225
  64   2.0000      -0.326936        -8.8964
  65   2.0000      -0.321207        -8.7405
  66   2.0000      -0.299525        -8.1505
  67   0.0000       0.040075         1.0905
  68   0.0000       0.061360         1.6697
  69   0.0000       0.113522         3.0891
  70   0.0000       0.116259         3.1636
  71   0.0000       0.126472         3.4415

MULLIKEN ATOMIC CHARGES
-----------------------
   0 S :    0.112665
   1 C :   -0.095684
   2 C :   -0.099051
   3 C :    0.011073
   4 C :   -0.138604
   5 H :    0.013261
   6 C :    0.034348
   7 H :    0.022166
   8 H :    0.033374
   9 C :   -0.067946
  10 H :    0.031423
  11 H :    0.012275
  12 C :   -0.017995
  13 H :    0.028946
  14 H :    0.031486
  15 H :    0.017728
  16 S :    0.147129
  17 C :   -0.092871
  18 C :   -0.034678
  19 C :   -0.018470
  20 C :   -0.178256
  21 H :    0.003082
  22 C :    0.085443
  23 H :    0.000072
  24 H :    0.041308
  25 C :   -0.089224
  26 H :    0.024605
  27 H :    0.033218
  28 C :   -0.044411
  29 H :    0.037604
  30 H :    0.014690
  31 H :    0.041597
  32 H :    0.037991
  33 H :    0.061708
Sum of atomic charges:   -0.0000000

LOEWDIN ATOMIC CHARGES
----------------------
   0 S :    0.413853
   1 C :   -0.200531
   2 C :   -0.059691
   3 C :   -0.053723
   4 C :   -0.197008
   5 H :    0.029499
   6 C :   -0.033388
   7 H :    0.028305
   8 H :    0.035773
   9 C :   -0.042170
  10 H :    0.025987
  11 H :    0.017607
  12 C :   -0.059452
  13 H :    0.022064
  14 H :    0.026807
  15 H :    0.022212
  16 S :    0.468776
  17 C :   -0.215778
  18 C :   -0.074442
  19 C :   -0.048538
  20 C :   -0.237112
  21 H :    0.022132
  22 C :   -0.027012
  23 H :    0.017271
  24 H :    0.043830
  25 C :   -0.036992
  26 H :    0.016522
  27 H :    0.026837
  28 C :   -0.065025
  29 H :    0.033630
  30 H :    0.014166
  31 H :    0.031074
  32 H :    0.023721
  33 H :    0.030795

  Mayer bond orders larger than 0.100000
B(  0-S ,  1-C ) :   1.1546 B(  0-S ,  4-C ) :   1.1458 B(  1-C ,  2-C ) :   1.5889
B(  1-C , 32-H ) :   0.9711 B(  2-C ,  3-C ) :   1.2573 B(  2-C ,  6-C ) :   1.0155
B(  3-C ,  4-C ) :   1.5812 B(  3-C ,  5-H ) :   1.0004 B(  4-C , 20-C ) :   1.0180
B(  6-C ,  7-H ) :   0.9520 B(  6-C ,  8-H ) :   0.9370 B(  6-C ,  9-C ) :   1.0443
B(  9-C , 10-H ) :   0.9620 B(  9-C , 11-H ) :   0.9542 B(  9-C , 12-C ) :   1.0824
B( 12-C , 13-H ) :   0.9748 B( 12-C , 14-H ) :   0.9750 B( 12-C , 15-H ) :   0.9755
B( 16-S , 17-C ) :   1.2126 B( 16-S , 20-C ) :   1.1609 B( 17-C , 18-C ) :   1.5337
B( 17-C , 33-H ) :   0.9684 B( 18-C , 19-C ) :   1.2813 B( 18-C , 21-H ) :   0.9994
B( 19-C , 20-C ) :   1.5462 B( 19-C , 22-C ) :   1.0585 B( 22-C , 23-H ) :   0.9388
B( 22-C , 24-H ) :   0.9243 B( 22-C , 25-C ) :   1.0518 B( 25-C , 26-H ) :   0.9480
B( 25-C , 27-H ) :   0.9606 B( 25-C , 28-C ) :   1.0967 B( 28-C , 29-H ) :   0.9690
B( 28-C , 30-H ) :   0.9711 B( 28-C , 31-H ) :   0.9750

Dispersion correction           -0.013268072
FINAL SINGLE POINT ENERGY     -1339.869173834519

DIPOLE MOMENT
-------------
                                X             Y             Z
Electronic contribution:    -21.75154      -3.44706       7.15364
Nuclear contribution   :     22.09222       3.43612      -7.07637
                        -----------------------------------------
Total Dipole Moment    :      0.34068      -0.01094       0.07727
                        -----------------------------------------
Magnitude (a.u.)       :      0.34951
Magnitude (Debye)      :      0.88837

Rotational constants in cm-1:     0.019911     0.007194     0.006193
Rotational constants in MHz :   596.914187   215.683384   185.648884

                             ****ORCA TERMINATED NORMALLY****
TOTAL RUN TIME: 0 days 0 hours 0 minutes 19 seconds 622 msec
