                         Program Version 4.2.1 -  RELEASE  -
|  1> ! wB97X-D3 SP def2-SVP
|  2> %pal
|  3> nprocs 24
|  4> end
|  5>
|  6> * xyz 0 1
|  7> S 	 -106.558 	 36.1151 	 -15.365
|  8> C 	 -105.066 	 35.274 	 -15.1147
|  9> C 	 -104.75 	 34.4645 	 -16.1724
| 10> C 	 -105.608 	 34.6525 	 -17.2834
| 11> C 	 -106.628 	 35.5297 	 -16.997
| 12> H 	 -105.386 	 34.1761 	 -18.185
| 13> C 	 -103.695 	 33.4363 	 -16.2604
| 14> H 	 -103 	 33.6316 	 -15.4363
| 15> H 	 -103.195 	 33.7123 	 -17.1791
| 16> C 	 -104.179 	 31.9513 	 -16.5206
| 17> H 	 -104.9 	 31.6402 	 -15.747
| 18> H 	 -104.797 	 31.995 	 -17.405
| 19> C 	 -102.882 	 31.0857 	 -16.6527
| 20> H 	 -102.188 	 31.4919 	 -17.3521
| 21> H 	 -102.379 	 31.0244 	 -15.6736
| 22> H 	 -103.041 	 30.0782 	 -17.1864
| 23> S 	 -108.136 	 37.7569 	 -17.4972
| 24> C 	 -109.147 	 37.7566 	 -18.7642
| 25> C 	 -109.107 	 36.647 	 -19.5686
| 26> C 	 -108.128 	 35.6956 	 -19.1298
| 27> C 	 -107.568 	 36.1237 	 -17.8938
| 28> H 	 -109.823 	 36.5363 	 -20.3825
| 29> C 	 -108.009 	 34.293 	 -19.717
| 30> H 	 -108.996 	 33.8262 	 -19.6212
| 31> H 	 -107.416 	 33.5665 	 -19.1306
| 32> C 	 -107.303 	 34.2355 	 -21.0229
| 33> H 	 -106.247 	 34.4545 	 -20.8642
| 34> H 	 -107.754 	 34.7975 	 -21.8029
| 35> C 	 -107.401 	 32.7834 	 -21.5621
| 36> H 	 -107.052 	 32.8294 	 -22.6621
| 37> H 	 -108.46 	 32.4206 	 -21.4702
| 38> H 	 -106.683 	 32.1461 	 -21.0594
| 39> H 	 -104.673 	 35.3398 	 -14.1191
| 40> H 	 -109.86 	 38.5299 	 -19.0521
| 41> *
| 42>
| 43>                          ****END OF INPUT****

CARTESIAN COORDINATES (ANGSTROEM)
---------------------------------
  S    -106.558000   36.115100  -15.365000
  C    -105.066000   35.274000  -15.114700
  C    -104.750000   34.464500  -16.172400
  C    -105.608000   34.652500  -17.283400
  C    -106.628000   35.529700  -16.997000
  H    -105.386000   34.176100  -18.185000
  C    -103.695000   33.436300  -16.260400
  H    -103.000000   33.631600  -15.436300
  H    -103.195000   33.712300  -17.179100
  C    -104.179000   31.951300  -16.520600
  H    -104.900000   31.640200  -15.747000
  H    -104.797000   31.995000  -17.405000
  C    -102.882000   31.085700  -16.652700
  H    -102.188000   31.491900  -17.352100
  H    -102.379000   31.024400  -15.673600
  H    -103.041000   30.078200  -17.186400
  S    -108.136000   37.756900  -17.497200
  C    -109.147000   37.756600  -18.764200
  C    -109.107000   36.647000  -19.568600
  C    -108.128000   35.695600  -19.129800
  C    -107.568000   36.123700  -17.893800
  H    -109.823000   36.536300  -20.382500
  C    -108.009000   34.293000  -19.717000
  H    -108.996000   33.826200  -19.621200
  H    -107.416000   33.566500  -19.130600
  C    -107.303000   34.235500  -21.022900
  H    -106.247000   34.454500  -20.864200
  H    -107.754000   34.797500  -21.802900
  C    -107.401000   32.783400  -21.562100
  H    -107.052000   32.829400  -22.662100
  H    -108.460000   32.420600  -21.470200
  H    -106.683000   32.146100  -21.059400
  H    -104.673000   35.339800  -14.119100
  H    -109.860000   38.529900  -19.052100

 Total Charge           Charge          ....    0
 Multiplicity           Mult            ....    1
 Number of Electrons    NEL             ....  134
 Basis Dimension        Dim             ....  322

ORBITAL ENERGIES
----------------

  NO   OCC          E(Eh)            E(eV)
   0   2.0000     -88.965649     -2420.8784
   1   2.0000     -88.961908     -2420.7766
   2   2.0000     -10.325174      -280.9623
   3   2.0000     -10.324266      -280.9376
   4   2.0000     -10.306093      -280.4430
   5   2.0000     -10.305802      -280.4351
   6   2.0000     -10.304387      -280.3966
   7   2.0000     -10.297323      -280.2044
   8   2.0000     -10.292713      -280.0790
   9   2.0000     -10.291285      -280.0401
  10   2.0000     -10.289220      -279.9839
  11   2.0000     -10.289015      -279.9783
  12   2.0000     -10.288950      -279.9766
  13   2.0000     -10.287324      -279.9323
  14   2.0000     -10.283906      -279.8393
  15   2.0000     -10.282015      -279.7878
  16   2.0000      -8.082604      -219.9388
  17   2.0000      -8.077773      -219.8074
  18   2.0000      -6.040749      -164.3771
  19   2.0000      -6.036743      -164.2681
  20   2.0000      -6.036217      -164.2538
  21   2.0000      -6.033646      -164.1839
  22   2.0000      -6.032240      -164.1456
  23   2.0000      -6.028434      -164.0420
  24   2.0000      -1.015483       -27.6327
  25   2.0000      -0.992735       -27.0137
  26   2.0000      -0.919982       -25.0340
  27   2.0000      -0.912937       -24.8423
  28   2.0000      -0.870440       -23.6859
  29   2.0000      -0.857820       -23.3425
  30   2.0000      -0.847745       -23.0683
  31   2.0000      -0.810985       -22.0680
  32   2.0000      -0.782009       -21.2795
  33   2.0000      -0.766763       -20.8647
  34   2.0000      -0.714873       -19.4527
  35   2.0000      -0.700336       -19.0571
  36   2.0000      -0.693473       -18.8703
  37   2.0000      -0.661275       -17.9942
  38   2.0000      -0.638638       -17.3782
  39   2.0000      -0.630293       -17.1512
  40   2.0000      -0.603598       -16.4247
  41   2.0000      -0.576924       -15.6989
  42   2.0000      -0.564948       -15.3730
  43   2.0000      -0.556144       -15.1334
  44   2.0000      -0.528274       -14.3751
  45   2.0000      -0.523449       -14.2438
  46   2.0000      -0.519600       -14.1390
  47   2.0000      -0.509747       -13.8709
  48   2.0000      -0.502466       -13.6728
  49   2.0000      -0.500449       -13.6179
  50   2.0000      -0.489622       -13.3233
  51   2.0000      -0.483029       -13.1439
  52   2.0000      -0.469405       -12.7732
  53   2.0000      -0.464179       -12.6310
  54   2.0000      -0.462449       -12.5839
  55   2.0000      -0.456505       -12.4221
  56   2.0000      -0.445940       -12.1346
  57   2.0000      -0.441798       -12.0219
  58   2.0000      -0.437945       -11.9171
  59   2.0000      -0.428716       -11.6660
  60   2.0000      -0.421526       -11.4703
  61   2.0000      -0.416812       -11.3420
  62   2.0000      -0.405995       -11.0477
  63   2.0000      -0.360632        -9.8133
  64   2.0000      -0.332497        -9.0477
  65   2.0000      -0.327044        -8.8993
  66   2.0000      -0.276999        -7.5375
  67   0.0000       0.024581         0.6689
  68   0.0000       0.086573         2.3558
  69   0.0000       0.108003         2.9389
  70   0.0000       0.115402         3.1402
  71   0.0000       0.124637         3.3915

MULLIKEN ATOMIC CHARGES
-----------------------
   0 S :    0.089033
   1 C :   -0.145774
   2 C :   -0.052059
   3 C :   -0.001009
   4 C :   -0.093085
   5 H :   -0.021163
   6 C :    0.048213
   7 H :    0.020819
   8 H :    0.021295
   9 C :   -0.056444
  10 H :    0.043122
  11 H :    0.017846
  12 C :   -0.052501
  13 H :    0.018847
  14 H :    0.048716
  15 H :    0.043991
  16 S :    0.130100
  17 C :   -0.069565
  18 C :   -0.056741
  19 C :    0.009368
  20 C :   -0.148055
  21 H :    0.015416
  22 C :    0.002791
  23 H :    0.038291
  24 H :    0.008740
  25 C :   -0.049154
  26 H :    0.035880
  27 H :    0.026470
  28 C :   -0.090385
  29 H :    0.044696
  30 H :    0.045891
  31 H :    0.031770
  32 H :    0.041357
  33 H :    0.053281
Sum of atomic charges:   -0.0000000

LOEWDIN ATOMIC CHARGES
----------------------
   0 S :    0.408079
   1 C :   -0.203935
   2 C :   -0.063042
   3 C :   -0.063414
   4 C :   -0.183655
   5 H :    0.017550
   6 C :   -0.034723
   7 H :    0.029346
   8 H :    0.031453
   9 C :   -0.031865
  10 H :    0.028387
  11 H :    0.019141
  12 C :   -0.072411
  13 H :    0.019950
  14 H :    0.032522
  15 H :    0.035964
  16 S :    0.451907
  17 C :   -0.230316
  18 C :   -0.079046
  19 C :   -0.047360
  20 C :   -0.195097
  21 H :    0.031118
  22 C :   -0.041233
  23 H :    0.034549
  24 H :    0.030214
  25 C :   -0.037037
  26 H :    0.028031
  27 H :    0.017312
  28 C :   -0.069648
  29 H :    0.034265
  30 H :    0.029797
  31 H :    0.018141
  32 H :    0.020503
  33 H :    0.034553

  Mayer bond orders larger than 0.100000
B(  0-S ,  1-C ) :   1.1238 B(  0-S ,  4-C ) :   1.1558 B(  1-C ,  2-C ) :   1.5946
B(  1-C , 32-H ) :   0.9771 B(  2-C ,  3-C ) :   1.2449 B(  2-C ,  6-C ) :   1.0309
B(  3-C ,  4-C ) :   1.5323 B(  3-C ,  5-H ) :   1.0032 B(  4-C , 20-C ) :   1.1005
B(  6-C ,  7-H ) :   0.9462 B(  6-C ,  8-H ) :   0.9297 B(  6-C ,  9-C ) :   1.0451
B(  9-C , 10-H ) :   0.9613 B(  9-C , 11-H ) :   0.9524 B(  9-C , 12-C ) :   1.0673
B( 12-C , 13-H ) :   0.9736 B( 12-C , 14-H ) :   0.9767 B( 12-C , 15-H ) :   0.9737
B( 16-S , 17-C ) :   1.1870 B( 16-S , 20-C ) :   1.1465 B( 17-C , 18-C ) :   1.5929
B( 17-C , 33-H ) :   0.9589 B( 18-C , 19-C ) :   1.2578 B( 18-C , 21-H ) :   0.9905
B( 19-C , 20-C ) :   1.5446 B( 19-C , 22-C ) :   1.0311 B( 22-C , 23-H ) :   0.9453
B( 22-C , 24-H ) :   0.9402 B( 22-C , 25-C ) :   1.0621 B( 25-C , 26-H ) :   0.9503
B( 25-C , 27-H ) :   0.9612 B( 25-C , 28-C ) :   1.0775 B( 28-C , 29-H ) :   0.9763
B( 28-C , 30-H ) :   0.9737 B( 28-C , 31-H ) :   0.9753

Dispersion correction           -0.013726253
FINAL SINGLE POINT ENERGY     -1339.865684059190

DIPOLE MOMENT
-------------
                                X             Y             Z
Electronic contribution:    -12.04920      27.29582      14.93094
Nuclear contribution   :     12.17004     -27.75510     -15.30960
                        -----------------------------------------
Total Dipole Moment    :      0.12084      -0.45928      -0.37867
                        -----------------------------------------
Magnitude (a.u.)       :      0.60740
Magnitude (Debye)      :      1.54388

Rotational constants in cm-1:     0.016664     0.009758     0.006334
Rotational constants in MHz :   499.564071   292.544715   189.876676

                             ****ORCA TERMINATED NORMALLY****
TOTAL RUN TIME: 0 days 0 hours 0 minutes 20 seconds 641 msec
