                         Program Version 4.2.1 -  RELEASE  -
|  1> ! wB97X-D3 SP def2-SVP
|  2> %pal
|  3> nprocs 24
|  4> end
|  5>
|  6> * xyz 0 1
|  7> S 	 -119.813 	 24.6714 	 -12.2983
|  8> C 	 -119.968 	 23.9758 	 -13.8494
|  9> C 	 -119.196 	 24.6756 	 -14.739
| 10> C 	 -118.608 	 25.8813 	 -14.2041
| 11> C 	 -118.837 	 26.0535 	 -12.8512
| 12> H 	 -117.944 	 26.6105 	 -14.6839
| 13> C 	 -118.937 	 24.3105 	 -16.2024
| 14> H 	 -118.865 	 25.2943 	 -16.6937
| 15> H 	 -119.834 	 23.7754 	 -16.5513
| 16> C 	 -117.654 	 23.5377 	 -16.5951
| 17> H 	 -116.773 	 24.1829 	 -16.2877
| 18> H 	 -117.586 	 22.6767 	 -15.9258
| 19> C 	 -117.544 	 23.2315 	 -18.1753
| 20> H 	 -116.509 	 23.1524 	 -18.552
| 21> H 	 -118.217 	 22.3754 	 -18.5289
| 22> H 	 -117.917 	 24.1844 	 -18.6407
| 23> S 	 -118.268 	 26.6442 	 -10.2867
| 24> C 	 -117.64 	 28.212 	 -9.85967
| 25> C 	 -117.438 	 29.0439 	 -10.9938
| 26> C 	 -117.909 	 28.34 	 -12.1428
| 27> C 	 -118.393 	 27.073 	 -11.9715
| 28> H 	 -116.936 	 30.044 	 -10.9246
| 29> C 	 -117.906 	 29.0267 	 -13.5018
| 30> H 	 -117.229 	 28.4204 	 -14.0588
| 31> H 	 -117.379 	 29.9955 	 -13.5046
| 32> C 	 -119.264 	 29.295 	 -14.1409
| 33> H 	 -119.833 	 29.9259 	 -13.3654
| 34> H 	 -119.841 	 28.4132 	 -14.3399
| 35> C 	 -119.074 	 30.0348 	 -15.4667
| 36> H 	 -118.678 	 31.0364 	 -15.3359
| 37> H 	 -120.097 	 30.129 	 -15.8849
| 38> H 	 -118.48 	 29.4122 	 -16.1637
| 39> H 	 -120.366 	 22.948 	 -14.0487
| 40> H 	 -117.282 	 28.5343 	 -8.92658
| 41> *
| 42>
| 43>                          ****END OF INPUT****

CARTESIAN COORDINATES (ANGSTROEM)
---------------------------------
  S    -119.813000   24.671400  -12.298300
  C    -119.968000   23.975800  -13.849400
  C    -119.196000   24.675600  -14.739000
  C    -118.608000   25.881300  -14.204100
  C    -118.837000   26.053500  -12.851200
  H    -117.944000   26.610500  -14.683900
  C    -118.937000   24.310500  -16.202400
  H    -118.865000   25.294300  -16.693700
  H    -119.834000   23.775400  -16.551300
  C    -117.654000   23.537700  -16.595100
  H    -116.773000   24.182900  -16.287700
  H    -117.586000   22.676700  -15.925800
  C    -117.544000   23.231500  -18.175300
  H    -116.509000   23.152400  -18.552000
  H    -118.217000   22.375400  -18.528900
  H    -117.917000   24.184400  -18.640700
  S    -118.268000   26.644200  -10.286700
  C    -117.640000   28.212000   -9.859670
  C    -117.438000   29.043900  -10.993800
  C    -117.909000   28.340000  -12.142800
  C    -118.393000   27.073000  -11.971500
  H    -116.936000   30.044000  -10.924600
  C    -117.906000   29.026700  -13.501800
  H    -117.229000   28.420400  -14.058800
  H    -117.379000   29.995500  -13.504600
  C    -119.264000   29.295000  -14.140900
  H    -119.833000   29.925900  -13.365400
  H    -119.841000   28.413200  -14.339900
  C    -119.074000   30.034800  -15.466700
  H    -118.678000   31.036400  -15.335900
  H    -120.097000   30.129000  -15.884900
  H    -118.480000   29.412200  -16.163700
  H    -120.366000   22.948000  -14.048700
  H    -117.282000   28.534300   -8.926580

 Total Charge           Charge          ....    0
 Multiplicity           Mult            ....    1
 Number of Electrons    NEL             ....  134
 Basis Dimension        Dim             ....  322

ORBITAL ENERGIES
----------------

  NO   OCC          E(Eh)            E(eV)
   0   2.0000     -88.969715     -2420.9890
   1   2.0000     -88.964422     -2420.8450
   2   2.0000     -10.332835      -281.1707
   3   2.0000     -10.324360      -280.9401
   4   2.0000     -10.320371      -280.8316
   5   2.0000     -10.315376      -280.6957
   6   2.0000     -10.304138      -280.3899
   7   2.0000     -10.303282      -280.3666
   8   2.0000     -10.303200      -280.3643
   9   2.0000     -10.298067      -280.2246
  10   2.0000     -10.297166      -280.2001
  11   2.0000     -10.296110      -280.1714
  12   2.0000     -10.293928      -280.1120
  13   2.0000     -10.287180      -279.9284
  14   2.0000     -10.287104      -279.9263
  15   2.0000     -10.280988      -279.7599
  16   2.0000      -8.084528      -219.9912
  17   2.0000      -8.079532      -219.8552
  18   2.0000      -6.043028      -164.4391
  19   2.0000      -6.038993      -164.3294
  20   2.0000      -6.038163      -164.3068
  21   2.0000      -6.035323      -164.2295
  22   2.0000      -6.033943      -164.1919
  23   2.0000      -6.030165      -164.0891
  24   2.0000      -1.013502       -27.5788
  25   2.0000      -0.987771       -26.8786
  26   2.0000      -0.911603       -24.8060
  27   2.0000      -0.902601       -24.5610
  28   2.0000      -0.875010       -23.8102
  29   2.0000      -0.854388       -23.2491
  30   2.0000      -0.840517       -22.8716
  31   2.0000      -0.815339       -22.1865
  32   2.0000      -0.778082       -21.1727
  33   2.0000      -0.767955       -20.8971
  34   2.0000      -0.709750       -19.3133
  35   2.0000      -0.698887       -19.0177
  36   2.0000      -0.692231       -18.8366
  37   2.0000      -0.672170       -18.2907
  38   2.0000      -0.640168       -17.4198
  39   2.0000      -0.618138       -16.8204
  40   2.0000      -0.592080       -16.1113
  41   2.0000      -0.571257       -15.5447
  42   2.0000      -0.565821       -15.3968
  43   2.0000      -0.553439       -15.0598
  44   2.0000      -0.526455       -14.3256
  45   2.0000      -0.520369       -14.1600
  46   2.0000      -0.516975       -14.0676
  47   2.0000      -0.509975       -13.8771
  48   2.0000      -0.506205       -13.7745
  49   2.0000      -0.505294       -13.7498
  50   2.0000      -0.490423       -13.3451
  51   2.0000      -0.484997       -13.1974
  52   2.0000      -0.472573       -12.8594
  53   2.0000      -0.466160       -12.6849
  54   2.0000      -0.459952       -12.5159
  55   2.0000      -0.453097       -12.3294
  56   2.0000      -0.442019       -12.0280
  57   2.0000      -0.434446       -11.8219
  58   2.0000      -0.429022       -11.6743
  59   2.0000      -0.422598       -11.4995
  60   2.0000      -0.419001       -11.4016
  61   2.0000      -0.410637       -11.1740
  62   2.0000      -0.409661       -11.1475
  63   2.0000      -0.366324        -9.9682
  64   2.0000      -0.335872        -9.1395
  65   2.0000      -0.326418        -8.8823
  66   2.0000      -0.283417        -7.7122
  67   0.0000       0.017924         0.4877
  68   0.0000       0.080131         2.1805
  69   0.0000       0.099548         2.7088
  70   0.0000       0.114117         3.1053
  71   0.0000       0.135335         3.6826

MULLIKEN ATOMIC CHARGES
-----------------------
   0 S :    0.095882
   1 C :   -0.120328
   2 C :   -0.093839
   3 C :   -0.010328
   4 C :   -0.120919
   5 H :    0.012352
   6 C :    0.036780
   7 H :    0.024691
   8 H :    0.027536
   9 C :   -0.071828
  10 H :    0.031444
  11 H :    0.029991
  12 C :   -0.083473
  13 H :    0.049820
  14 H :    0.058636
  15 H :    0.031038
  16 S :    0.109054
  17 C :   -0.061339
  18 C :   -0.059474
  19 C :   -0.067181
  20 C :   -0.096993
  21 H :    0.046389
  22 C :    0.042019
  23 H :    0.017042
  24 H :    0.004246
  25 C :   -0.085456
  26 H :    0.042502
  27 H :    0.042722
  28 C :   -0.047166
  29 H :    0.036304
  30 H :    0.037437
  31 H :    0.032747
  32 H :    0.072697
  33 H :    0.036996
Sum of atomic charges:    0.0000000

LOEWDIN ATOMIC CHARGES
----------------------
   0 S :    0.402524
   1 C :   -0.219734
   2 C :   -0.067524
   3 C :   -0.073099
   4 C :   -0.176929
   5 H :    0.032570
   6 C :   -0.039037
   7 H :    0.029895
   8 H :    0.029185
   9 C :   -0.045513
  10 H :    0.029006
  11 H :    0.019889
  12 C :   -0.077735
  13 H :    0.030285
  14 H :    0.035723
  15 H :    0.029173
  16 S :    0.420465
  17 C :   -0.176188
  18 C :   -0.074115
  19 C :   -0.055610
  20 C :   -0.203906
  21 H :    0.045864
  22 C :   -0.039167
  23 H :    0.019782
  24 H :    0.029721
  25 C :   -0.041745
  26 H :    0.035417
  27 H :    0.021243
  28 C :   -0.065033
  29 H :    0.022636
  30 H :    0.031443
  31 H :    0.026584
  32 H :    0.045136
  33 H :    0.018795

  Mayer bond orders larger than 0.100000
B(  0-S ,  1-C ) :   1.1348 B(  0-S ,  4-C ) :   1.1374 B(  1-C ,  2-C ) :   1.6170
B(  1-C , 32-H ) :   0.9600 B(  2-C ,  3-C ) :   1.2344 B(  2-C ,  6-C ) :   1.0237
B(  3-C ,  4-C ) :   1.5699 B(  3-C ,  5-H ) :   0.9858 B(  4-C , 20-C ) :   1.1074
B(  6-C ,  7-H ) :   0.9360 B(  6-C ,  8-H ) :   0.9453 B(  6-C ,  9-C ) :   1.0621
B(  9-C , 10-H ) :   0.9555 B(  9-C , 11-H ) :   0.9601 B(  9-C , 12-C ) :   1.0518
B( 12-C , 13-H ) :   0.9781 B( 12-C , 14-H ) :   0.9767 B( 12-C , 15-H ) :   0.9745
B( 16-S , 17-C ) :   1.1800 B( 16-S , 20-C ) :   1.1143 B( 17-C , 18-C ) :   1.5755
B( 17-C , 20-C ) :   0.1008 B( 17-C , 33-H ) :   0.9706 B( 18-C , 19-C ) :   1.2677
B( 18-C , 21-H ) :   0.9843 B( 19-C , 20-C ) :   1.5822 B( 19-C , 22-C ) :   1.0292
B( 22-C , 23-H ) :   0.9281 B( 22-C , 24-H ) :   0.9327 B( 22-C , 25-C ) :   1.0599
B( 25-C , 26-H ) :   0.9507 B( 25-C , 27-H ) :   0.9534 B( 25-C , 28-C ) :   1.0864
B( 28-C , 29-H ) :   0.9742 B( 28-C , 30-H ) :   0.9735 B( 28-C , 31-H ) :   0.9729

Dispersion correction           -0.014158598
FINAL SINGLE POINT ENERGY     -1339.876643823392

DIPOLE MOMENT
-------------
                                X             Y             Z
Electronic contribution:     -4.31126      -5.57853      30.16096
Nuclear contribution   :      4.66524       5.89100     -30.65002
                        -----------------------------------------
Total Dipole Moment    :      0.35397       0.31247      -0.48906
                        -----------------------------------------
Magnitude (a.u.)       :      0.67979
Magnitude (Debye)      :      1.72789

Rotational constants in cm-1:     0.018418     0.008629     0.006644
Rotational constants in MHz :   552.163754   258.693751   199.180292

                             ****ORCA TERMINATED NORMALLY****
TOTAL RUN TIME: 0 days 0 hours 0 minutes 20 seconds 663 msec
