                         Program Version 4.2.1 -  RELEASE  -
|  1> ! wB97X-D3 SP def2-SVP
|  2> %pal
|  3> nprocs 24
|  4> end
|  5>
|  6> * xyz 0 1
|  7> S 	 -36.2607 	 3.16265 	 11.5209
|  8> C 	 -35.0365 	 2.32226 	 12.3701
|  9> C 	 -35.2086 	 0.93032 	 12.2925
| 10> C 	 -36.4719 	 0.592709 	 11.7477
| 11> C 	 -37.1914 	 1.68299 	 11.338
| 12> H 	 -36.9567 	 -0.393648 	 11.796
| 13> C 	 -34.2343 	 -0.111431 	 12.8048
| 14> H 	 -33.3103 	 0.0987281 	 12.336
| 15> H 	 -34.5798 	 -1.07996 	 12.4002
| 16> C 	 -33.9825 	 -0.113941 	 14.358
| 17> H 	 -33.2438 	 -0.974974 	 14.5401
| 18> H 	 -33.3003 	 0.684723 	 14.5536
| 19> C 	 -35.1165 	 0.0191853 	 15.2911
| 20> H 	 -35.9343 	 -0.646807 	 15.1743
| 21> H 	 -34.6763 	 -0.125127 	 16.3224
| 22> H 	 -35.4848 	 1.00721 	 15.3254
| 23> S 	 -38.8349 	 1.13357 	 9.2299
| 24> C 	 -40.4925 	 1.70203 	 9.33136
| 25> C 	 -40.8605 	 2.00315 	 10.633
| 26> C 	 -39.6983 	 2.06143 	 11.4437
| 27> C 	 -38.5397 	 1.70328 	 10.8463
| 28> H 	 -41.8365 	 2.33994 	 10.9267
| 29> C 	 -39.8196 	 2.33606 	 12.9302
| 30> H 	 -40.5483 	 3.11937 	 13.2023
| 31> H 	 -38.9737 	 2.86508 	 13.3459
| 32> C 	 -40.0693 	 1.10365 	 13.7283
| 33> H 	 -39.2287 	 0.462477 	 13.4884
| 34> H 	 -41.0059 	 0.605813 	 13.2748
| 35> C 	 -40.2974 	 1.34128 	 15.2394
| 36> H 	 -40.2883 	 0.297623 	 15.631
| 37> H 	 -41.2939 	 1.71216 	 15.3921
| 38> H 	 -39.5379 	 1.96218 	 15.732
| 39> H 	 -34.164 	 2.83549 	 12.7986
| 40> H 	 -41.2465 	 1.64818 	 8.61891
| 41> *
| 42>
| 43>                          ****END OF INPUT****

CARTESIAN COORDINATES (ANGSTROEM)
---------------------------------
  S    -36.260700    3.162650   11.520900
  C    -35.036500    2.322260   12.370100
  C    -35.208600    0.930320   12.292500
  C    -36.471900    0.592709   11.747700
  C    -37.191400    1.682990   11.338000
  H    -36.956700   -0.393648   11.796000
  C    -34.234300   -0.111431   12.804800
  H    -33.310300    0.098728   12.336000
  H    -34.579800   -1.079960   12.400200
  C    -33.982500   -0.113941   14.358000
  H    -33.243800   -0.974974   14.540100
  H    -33.300300    0.684723   14.553600
  C    -35.116500    0.019185   15.291100
  H    -35.934300   -0.646807   15.174300
  H    -34.676300   -0.125127   16.322400
  H    -35.484800    1.007210   15.325400
  S    -38.834900    1.133570    9.229900
  C    -40.492500    1.702030    9.331360
  C    -40.860500    2.003150   10.633000
  C    -39.698300    2.061430   11.443700
  C    -38.539700    1.703280   10.846300
  H    -41.836500    2.339940   10.926700
  C    -39.819600    2.336060   12.930200
  H    -40.548300    3.119370   13.202300
  H    -38.973700    2.865080   13.345900
  C    -40.069300    1.103650   13.728300
  H    -39.228700    0.462477   13.488400
  H    -41.005900    0.605813   13.274800
  C    -40.297400    1.341280   15.239400
  H    -40.288300    0.297623   15.631000
  H    -41.293900    1.712160   15.392100
  H    -39.537900    1.962180   15.732000
  H    -34.164000    2.835490   12.798600
  H    -41.246500    1.648180    8.618910

 Total Charge           Charge          ....    0
 Multiplicity           Mult            ....    1
 Number of Electrons    NEL             ....  134
 Basis Dimension        Dim             ....  322

ORBITAL ENERGIES
----------------

  NO   OCC          E(Eh)            E(eV)
   0   2.0000     -88.966505     -2420.9017
   1   2.0000     -88.964664     -2420.8516
   2   2.0000     -10.322725      -280.8956
   3   2.0000     -10.315893      -280.7097
   4   2.0000     -10.313472      -280.6439
   5   2.0000     -10.313245      -280.6377
   6   2.0000     -10.299661      -280.2680
   7   2.0000     -10.295289      -280.1491
   8   2.0000     -10.292913      -280.0844
   9   2.0000     -10.291177      -280.0372
  10   2.0000     -10.289998      -280.0051
  11   2.0000     -10.289447      -279.9901
  12   2.0000     -10.284305      -279.8502
  13   2.0000     -10.279964      -279.7320
  14   2.0000     -10.278930      -279.7039
  15   2.0000     -10.272171      -279.5200
  16   2.0000      -8.081568      -219.9106
  17   2.0000      -8.079594      -219.8569
  18   2.0000      -6.039904      -164.3542
  19   2.0000      -6.038079      -164.3045
  20   2.0000      -6.035967      -164.2470
  21   2.0000      -6.034187      -164.1986
  22   2.0000      -6.032551      -164.1541
  23   2.0000      -6.030248      -164.0914
  24   2.0000      -1.011501       -27.5243
  25   2.0000      -0.988119       -26.8881
  26   2.0000      -0.910131       -24.7659
  27   2.0000      -0.909570       -24.7507
  28   2.0000      -0.872166       -23.7328
  29   2.0000      -0.854583       -23.2544
  30   2.0000      -0.846710       -23.0402
  31   2.0000      -0.816795       -22.2261
  32   2.0000      -0.785231       -21.3672
  33   2.0000      -0.770810       -20.9748
  34   2.0000      -0.702977       -19.1290
  35   2.0000      -0.701604       -19.0916
  36   2.0000      -0.688348       -18.7309
  37   2.0000      -0.668076       -18.1793
  38   2.0000      -0.643228       -17.5031
  39   2.0000      -0.611670       -16.6444
  40   2.0000      -0.599073       -16.3016
  41   2.0000      -0.569755       -15.5038
  42   2.0000      -0.559994       -15.2382
  43   2.0000      -0.552952       -15.0466
  44   2.0000      -0.539086       -14.6693
  45   2.0000      -0.523654       -14.2494
  46   2.0000      -0.516063       -14.0428
  47   2.0000      -0.514944       -14.0123
  48   2.0000      -0.508254       -13.8303
  49   2.0000      -0.498963       -13.5775
  50   2.0000      -0.494166       -13.4469
  51   2.0000      -0.477399       -12.9907
  52   2.0000      -0.472115       -12.8469
  53   2.0000      -0.463503       -12.6126
  54   2.0000      -0.462490       -12.5850
  55   2.0000      -0.450489       -12.2584
  56   2.0000      -0.446191       -12.1415
  57   2.0000      -0.435495       -11.8504
  58   2.0000      -0.433844       -11.8055
  59   2.0000      -0.424035       -11.5386
  60   2.0000      -0.416630       -11.3371
  61   2.0000      -0.407047       -11.0763
  62   2.0000      -0.403672       -10.9845
  63   2.0000      -0.339609        -9.2412
  64   2.0000      -0.333636        -9.0787
  65   2.0000      -0.319796        -8.7021
  66   2.0000      -0.302839        -8.2407
  67   0.0000       0.040804         1.1103
  68   0.0000       0.056487         1.5371
  69   0.0000       0.109830         2.9886
  70   0.0000       0.117162         3.1881
  71   0.0000       0.127512         3.4698

MULLIKEN ATOMIC CHARGES
-----------------------
   0 S :    0.135983
   1 C :   -0.145983
   2 C :   -0.108508
   3 C :    0.029838
   4 C :   -0.173609
   5 H :    0.027814
   6 C :    0.105681
   7 H :    0.021483
   8 H :    0.021451
   9 C :   -0.102775
  10 H :    0.032917
  11 H :    0.011159
  12 C :    0.006023
  13 H :    0.027090
  14 H :    0.031760
  15 H :    0.025303
  16 S :    0.119853
  17 C :   -0.052183
  18 C :   -0.032973
  19 C :   -0.011516
  20 C :   -0.187836
  21 H :    0.017016
  22 C :    0.072422
  23 H :    0.003399
  24 H :    0.003323
  25 C :   -0.101705
  26 H :    0.021727
  27 H :    0.028650
  28 C :   -0.021447
  29 H :    0.038961
  30 H :    0.030744
  31 H :    0.042523
  32 H :    0.056559
  33 H :    0.026856
Sum of atomic charges:    0.0000000

LOEWDIN ATOMIC CHARGES
----------------------
   0 S :    0.428673
   1 C :   -0.214940
   2 C :   -0.066163
   3 C :   -0.065045
   4 C :   -0.197294
   5 H :    0.038132
   6 C :   -0.029775
   7 H :    0.029004
   8 H :    0.029473
   9 C :   -0.048509
  10 H :    0.031661
  11 H :    0.020022
  12 C :   -0.062547
  13 H :    0.019546
  14 H :    0.039176
  15 H :    0.023620
  16 S :    0.410975
  17 C :   -0.166706
  18 C :   -0.062423
  19 C :   -0.050928
  20 C :   -0.212237
  21 H :    0.031108
  22 C :   -0.044668
  23 H :    0.024672
  24 H :    0.022615
  25 C :   -0.043824
  26 H :    0.020064
  27 H :    0.029411
  28 C :   -0.063730
  29 H :    0.035292
  30 H :    0.023315
  31 H :    0.027026
  32 H :    0.030056
  33 H :    0.014949

  Mayer bond orders larger than 0.100000
B(  0-S ,  1-C ) :   1.1644 B(  0-S ,  4-C ) :   1.1540 B(  1-C ,  2-C ) :   1.5727
B(  1-C ,  4-C ) :   0.1035 B(  1-C , 32-H ) :   0.9695 B(  2-C ,  3-C ) :   1.2557
B(  2-C ,  6-C ) :   1.0173 B(  3-C ,  4-C ) :   1.5834 B(  3-C ,  5-H ) :   0.9855
B(  4-C , 20-C ) :   1.0236 B(  6-C ,  7-H ) :   0.9331 B(  6-C ,  8-H ) :   0.9450
B(  6-C ,  9-C ) :   1.0679 B(  9-C , 10-H ) :   0.9564 B(  9-C , 11-H ) :   0.9488
B(  9-C , 12-C ) :   1.0866 B( 12-C , 13-H ) :   0.9794 B( 12-C , 14-H ) :   0.9659
B( 12-C , 15-H ) :   0.9638 B( 16-S , 17-C ) :   1.1604 B( 16-S , 20-C ) :   1.1259
B( 17-C , 18-C ) :   1.6091 B( 17-C , 33-H ) :   0.9714 B( 18-C , 19-C ) :   1.2406
B( 18-C , 21-H ) :   0.9899 B( 19-C , 20-C ) :   1.6285 B( 19-C , 22-C ) :   1.0543
B( 22-C , 23-H ) :   0.9300 B( 22-C , 24-H ) :   0.9171 B( 22-C , 25-C ) :   1.0672
B( 25-C , 26-H ) :   0.9536 B( 25-C , 27-H ) :   0.9527 B( 25-C , 28-C ) :   1.0727
B( 28-C , 29-H ) :   0.9734 B( 28-C , 30-H ) :   0.9733 B( 28-C , 31-H ) :   0.9751

Dispersion correction           -0.015330684
FINAL SINGLE POINT ENERGY     -1339.873967250244

DIPOLE MOMENT
-------------
                                X             Y             Z
Electronic contribution:     -1.32394       9.11111     -26.55065
Nuclear contribution   :      1.30751      -9.27459      27.08504
                        -----------------------------------------
Total Dipole Moment    :     -0.01643      -0.16348       0.53439
                        -----------------------------------------
Magnitude (a.u.)       :      0.55908
Magnitude (Debye)      :      1.42108

Rotational constants in cm-1:     0.018763     0.009495     0.007477
Rotational constants in MHz :   562.490333   284.641540   224.168710

                             ****ORCA TERMINATED NORMALLY****
TOTAL RUN TIME: 0 days 0 hours 0 minutes 23 seconds 576 msec
