                         Program Version 4.2.1 -  RELEASE  -
|  1> ! wB97X-D3 SP def2-SVP
|  2> %pal
|  3> nprocs 24
|  4> end
|  5>
|  6> * xyz 0 1
|  7> S 	 -96.3643 	 39.5502 	 -81.9831
|  8> C 	 -96.0291 	 37.8497 	 -82.0338
|  9> C 	 -96.8177 	 37.2272 	 -82.967
| 10> C 	 -97.8145 	 38.1121 	 -83.4985
| 11> C 	 -97.6802 	 39.3991 	 -83.0118
| 12> H 	 -98.6754 	 37.9652 	 -84.1637
| 13> C 	 -96.7097 	 35.7459 	 -83.227
| 14> H 	 -97.4637 	 35.2129 	 -82.7113
| 15> H 	 -95.9014 	 35.3915 	 -82.6675
| 16> C 	 -96.605 	 35.4122 	 -84.6769
| 17> H 	 -97.3142 	 35.9969 	 -85.2587
| 18> H 	 -95.5638 	 35.5966 	 -84.8974
| 19> C 	 -96.8989 	 33.8715 	 -84.8863
| 20> H 	 -96.2446 	 33.384 	 -84.1534
| 21> H 	 -97.9025 	 33.6584 	 -84.5624
| 22> H 	 -96.7518 	 33.5183 	 -85.9233
| 23> S 	 -99.6759 	 41.1518 	 -82.0196
| 24> C 	 -100.606 	 42.1972 	 -83.0553
| 25> C 	 -100.223 	 41.9923 	 -84.3614
| 26> C 	 -99.009 	 41.1383 	 -84.531
| 27> C 	 -98.5895 	 40.561 	 -83.3081
| 28> H 	 -100.758 	 42.516 	 -85.165
| 29> C 	 -98.6078 	 40.6493 	 -85.8669
| 30> H 	 -99.0884 	 39.6639 	 -85.9703
| 31> H 	 -97.5561 	 40.5427 	 -85.9136
| 32> C 	 -98.9833 	 41.4577 	 -87.1102
| 33> H 	 -98.6526 	 42.4296 	 -86.9262
| 34> H 	 -100.042 	 41.3203 	 -87.1084
| 35> C 	 -98.4012 	 40.7268 	 -88.3734
| 36> H 	 -98.8985 	 39.7683 	 -88.4894
| 37> H 	 -97.3493 	 40.8936 	 -88.6439
| 38> H 	 -98.7321 	 41.2374 	 -89.3016
| 39> H 	 -95.3695 	 37.2318 	 -81.434
| 40> H 	 -101.273 	 43.0145 	 -82.8407
| 41> *
| 42>
| 43>                          ****END OF INPUT****

CARTESIAN COORDINATES (ANGSTROEM)
---------------------------------
  S    -96.364300   39.550200  -81.983100
  C    -96.029100   37.849700  -82.033800
  C    -96.817700   37.227200  -82.967000
  C    -97.814500   38.112100  -83.498500
  C    -97.680200   39.399100  -83.011800
  H    -98.675400   37.965200  -84.163700
  C    -96.709700   35.745900  -83.227000
  H    -97.463700   35.212900  -82.711300
  H    -95.901400   35.391500  -82.667500
  C    -96.605000   35.412200  -84.676900
  H    -97.314200   35.996900  -85.258700
  H    -95.563800   35.596600  -84.897400
  C    -96.898900   33.871500  -84.886300
  H    -96.244600   33.384000  -84.153400
  H    -97.902500   33.658400  -84.562400
  H    -96.751800   33.518300  -85.923300
  S    -99.675900   41.151800  -82.019600
  C    -100.606000   42.197200  -83.055300
  C    -100.223000   41.992300  -84.361400
  C    -99.009000   41.138300  -84.531000
  C    -98.589500   40.561000  -83.308100
  H    -100.758000   42.516000  -85.165000
  C    -98.607800   40.649300  -85.866900
  H    -99.088400   39.663900  -85.970300
  H    -97.556100   40.542700  -85.913600
  C    -98.983300   41.457700  -87.110200
  H    -98.652600   42.429600  -86.926200
  H    -100.042000   41.320300  -87.108400
  C    -98.401200   40.726800  -88.373400
  H    -98.898500   39.768300  -88.489400
  H    -97.349300   40.893600  -88.643900
  H    -98.732100   41.237400  -89.301600
  H    -95.369500   37.231800  -81.434000
  H    -101.273000   43.014500  -82.840700

 Total Charge           Charge          ....    0
 Multiplicity           Mult            ....    1
 Number of Electrons    NEL             ....  134
 Basis Dimension        Dim             ....  322

ORBITAL ENERGIES
----------------

  NO   OCC          E(Eh)            E(eV)
   0   2.0000     -88.966095     -2420.8905
   1   2.0000     -88.962299     -2420.7872
   2   2.0000     -10.333685      -281.1939
   3   2.0000     -10.326815      -281.0069
   4   2.0000     -10.317584      -280.7557
   5   2.0000     -10.309890      -280.5464
   6   2.0000     -10.309736      -280.5422
   7   2.0000     -10.299323      -280.2588
   8   2.0000     -10.297418      -280.2070
   9   2.0000     -10.295742      -280.1614
  10   2.0000     -10.285268      -279.8764
  11   2.0000     -10.284842      -279.8648
  12   2.0000     -10.283926      -279.8399
  13   2.0000     -10.281573      -279.7758
  14   2.0000     -10.281172      -279.7649
  15   2.0000     -10.279306      -279.7142
  16   2.0000      -8.082285      -219.9302
  17   2.0000      -8.076498      -219.7727
  18   2.0000      -6.040606      -164.3732
  19   2.0000      -6.036473      -164.2608
  20   2.0000      -6.035187      -164.2258
  21   2.0000      -6.033248      -164.1730
  22   2.0000      -6.030903      -164.1092
  23   2.0000      -6.027246      -164.0097
  24   2.0000      -1.010487       -27.4967
  25   2.0000      -0.981401       -26.7053
  26   2.0000      -0.921072       -25.0636
  27   2.0000      -0.914113       -24.8743
  28   2.0000      -0.867891       -23.6165
  29   2.0000      -0.848519       -23.0894
  30   2.0000      -0.839953       -22.8563
  31   2.0000      -0.817429       -22.2434
  32   2.0000      -0.782594       -21.2955
  33   2.0000      -0.771898       -21.0044
  34   2.0000      -0.713478       -19.4147
  35   2.0000      -0.704990       -19.1838
  36   2.0000      -0.690150       -18.7799
  37   2.0000      -0.648102       -17.6357
  38   2.0000      -0.643031       -17.4978
  39   2.0000      -0.618916       -16.8415
  40   2.0000      -0.595525       -16.2051
  41   2.0000      -0.589054       -16.0290
  42   2.0000      -0.574609       -15.6359
  43   2.0000      -0.567708       -15.4481
  44   2.0000      -0.526531       -14.3276
  45   2.0000      -0.523674       -14.2499
  46   2.0000      -0.522567       -14.2198
  47   2.0000      -0.506905       -13.7936
  48   2.0000      -0.501410       -13.6441
  49   2.0000      -0.499170       -13.5831
  50   2.0000      -0.492407       -13.3991
  51   2.0000      -0.483859       -13.1665
  52   2.0000      -0.465286       -12.6611
  53   2.0000      -0.464210       -12.6318
  54   2.0000      -0.461989       -12.5714
  55   2.0000      -0.451083       -12.2746
  56   2.0000      -0.444004       -12.0820
  57   2.0000      -0.441194       -12.0055
  58   2.0000      -0.438430       -11.9303
  59   2.0000      -0.428421       -11.6579
  60   2.0000      -0.414929       -11.2908
  61   2.0000      -0.413437       -11.2502
  62   2.0000      -0.403039       -10.9672
  63   2.0000      -0.335710        -9.1351
  64   2.0000      -0.330335        -8.9889
  65   2.0000      -0.320110        -8.7106
  66   2.0000      -0.306890        -8.3509
  67   0.0000       0.033990         0.9249
  68   0.0000       0.070009         1.9051
  69   0.0000       0.112548         3.0626
  70   0.0000       0.124475         3.3871
  71   0.0000       0.133931         3.6444

MULLIKEN ATOMIC CHARGES
-----------------------
   0 S :    0.139077
   1 C :   -0.112589
   2 C :   -0.104126
   3 C :    0.035706
   4 C :   -0.185538
   5 H :    0.021468
   6 C :    0.120470
   7 H :    0.015093
   8 H :   -0.019875
   9 C :   -0.077268
  10 H :    0.038405
  11 H :    0.033746
  12 C :   -0.049361
  13 H :    0.025488
  14 H :    0.025819
  15 H :    0.047165
  16 S :    0.099566
  17 C :   -0.071236
  18 C :   -0.083125
  19 C :   -0.027202
  20 C :   -0.143040
  21 H :    0.035194
  22 C :    0.024799
  23 H :    0.034833
  24 H :    0.024724
  25 C :   -0.055495
  26 H :    0.026260
  27 H :    0.027761
  28 C :   -0.044329
  29 H :    0.038244
  30 H :    0.044234
  31 H :    0.014494
  32 H :    0.040743
  33 H :    0.059895
Sum of atomic charges:    0.0000000

LOEWDIN ATOMIC CHARGES
----------------------
   0 S :    0.449615
   1 C :   -0.207698
   2 C :   -0.057558
   3 C :   -0.064592
   4 C :   -0.221894
   5 H :    0.035775
   6 C :   -0.031747
   7 H :    0.025474
   8 H :    0.020680
   9 C :   -0.031352
  10 H :    0.022310
  11 H :    0.027672
  12 C :   -0.062693
  13 H :    0.024867
  14 H :    0.019921
  15 H :    0.028111
  16 S :    0.395692
  17 C :   -0.190697
  18 C :   -0.082387
  19 C :   -0.051788
  20 C :   -0.197497
  21 H :    0.031736
  22 C :   -0.039516
  23 H :    0.034416
  24 H :    0.026154
  25 C :   -0.028324
  26 H :    0.017078
  27 H :    0.022048
  28 C :   -0.077282
  29 H :    0.030602
  30 H :    0.034489
  31 H :    0.030361
  32 H :    0.031119
  33 H :    0.036906

  Mayer bond orders larger than 0.100000
B(  0-S ,  1-C ) :   1.1434 B(  0-S ,  4-C ) :   1.1884 B(  1-C ,  2-C ) :   1.6179
B(  1-C , 32-H ) :   0.9655 B(  2-C ,  3-C ) :   1.2222 B(  2-C ,  6-C ) :   1.0258
B(  3-C ,  4-C ) :   1.5765 B(  3-C ,  5-H ) :   0.9920 B(  4-C , 20-C ) :   0.9939
B(  6-C ,  7-H ) :   0.9357 B(  6-C ,  8-H ) :   0.9193 B(  6-C ,  9-C ) :   1.0471
B(  9-C , 10-H ) :   0.9668 B(  9-C , 11-H ) :   0.9563 B(  9-C , 12-C ) :   1.0737
B( 12-C , 13-H ) :   0.9732 B( 12-C , 14-H ) :   0.9789 B( 12-C , 15-H ) :   0.9762
B( 16-S , 17-C ) :   1.1528 B( 16-S , 20-C ) :   1.1360 B( 17-C , 18-C ) :   1.6251
B( 17-C , 33-H ) :   0.9637 B( 18-C , 19-C ) :   1.2249 B( 18-C , 21-H ) :   0.9777
B( 19-C , 20-C ) :   1.5926 B( 19-C , 22-C ) :   1.0621 B( 22-C , 23-H ) :   0.9305
B( 22-C , 24-H ) :   0.9297 B( 22-C , 25-C ) :   1.0704 B( 25-C , 26-H ) :   0.9637
B( 25-C , 27-H ) :   0.9453 B( 25-C , 28-C ) :   1.0954 B( 28-C , 29-H ) :   0.9700
B( 28-C , 30-H ) :   0.9709 B( 28-C , 31-H ) :   0.9661

Dispersion correction           -0.013400113
FINAL SINGLE POINT ENERGY     -1339.847163061539

DIPOLE MOMENT
-------------
                                X             Y             Z
Electronic contribution:     -1.41889      16.83888      25.15068
Nuclear contribution   :      1.27781     -17.19264     -25.77111
                        -----------------------------------------
Total Dipole Moment    :     -0.14108      -0.35376      -0.62043
                        -----------------------------------------
Magnitude (a.u.)       :      0.72800
Magnitude (Debye)      :      1.85044

Rotational constants in cm-1:     0.016221     0.008498     0.006316
Rotational constants in MHz :   486.289188   254.772415   189.360636

                             ****ORCA TERMINATED NORMALLY****
TOTAL RUN TIME: 0 days 0 hours 0 minutes 20 seconds 992 msec
