                         Program Version 4.2.1 -  RELEASE  -
|  1> ! wB97X-D3 SP def2-SVP
|  2> %pal
|  3> nprocs 24
|  4> end
|  5>
|  6> * xyz 0 1
|  7> S 	 -108.559 	 53.29 	 -73.5608
|  8> C 	 -108.78 	 52.4413 	 -75.1031
|  9> C 	 -107.587 	 52.0905 	 -75.6391
| 10> C 	 -106.467 	 52.5832 	 -74.9251
| 11> C 	 -106.801 	 53.169 	 -73.7274
| 12> H 	 -105.371 	 52.4672 	 -75.0503
| 13> C 	 -107.452 	 51.3439 	 -76.9643
| 14> H 	 -108.276 	 50.6369 	 -76.9685
| 15> H 	 -106.556 	 50.7701 	 -76.8202
| 16> C 	 -107.3 	 52.1434 	 -78.2825
| 17> H 	 -108.089 	 52.8388 	 -78.463
| 18> H 	 -106.354 	 52.6987 	 -78.2298
| 19> C 	 -107.185 	 51.1458 	 -79.4351
| 20> H 	 -108.11 	 50.5747 	 -79.2513
| 21> H 	 -107.293 	 51.5863 	 -80.4176
| 22> H 	 -106.271 	 50.5463 	 -79.3563
| 23> S 	 -104.468 	 52.5647 	 -72.4553
| 24> C 	 -104.026 	 53.4683 	 -71.0242
| 25> C 	 -104.95 	 54.4719 	 -70.7139
| 26> C 	 -106.049 	 54.5866 	 -71.6266
| 27> C 	 -105.969 	 53.4747 	 -72.52
| 28> H 	 -104.925 	 55.16 	 -69.8268
| 29> C 	 -107.12 	 55.5318 	 -71.4198
| 30> H 	 -107.727 	 55.6671 	 -72.3202
| 31> H 	 -106.709 	 56.5047 	 -71.2214
| 32> C 	 -108.051 	 55.2084 	 -70.1528
| 33> H 	 -107.553 	 55.1974 	 -69.1948
| 34> H 	 -108.649 	 54.3149 	 -70.3198
| 35> C 	 -109.218 	 56.2143 	 -70.0108
| 36> H 	 -108.914 	 57.1956 	 -69.598
| 37> H 	 -109.866 	 55.741 	 -69.3598
| 38> H 	 -109.811 	 56.4338 	 -70.9041
| 39> H 	 -109.674 	 52.164 	 -75.6326
| 40> H 	 -103.129 	 53.2549 	 -70.5179
| 41> *
| 42>
| 43>                          ****END OF INPUT****

CARTESIAN COORDINATES (ANGSTROEM)
---------------------------------
  S    -108.559000   53.290000  -73.560800
  C    -108.780000   52.441300  -75.103100
  C    -107.587000   52.090500  -75.639100
  C    -106.467000   52.583200  -74.925100
  C    -106.801000   53.169000  -73.727400
  H    -105.371000   52.467200  -75.050300
  C    -107.452000   51.343900  -76.964300
  H    -108.276000   50.636900  -76.968500
  H    -106.556000   50.770100  -76.820200
  C    -107.300000   52.143400  -78.282500
  H    -108.089000   52.838800  -78.463000
  H    -106.354000   52.698700  -78.229800
  C    -107.185000   51.145800  -79.435100
  H    -108.110000   50.574700  -79.251300
  H    -107.293000   51.586300  -80.417600
  H    -106.271000   50.546300  -79.356300
  S    -104.468000   52.564700  -72.455300
  C    -104.026000   53.468300  -71.024200
  C    -104.950000   54.471900  -70.713900
  C    -106.049000   54.586600  -71.626600
  C    -105.969000   53.474700  -72.520000
  H    -104.925000   55.160000  -69.826800
  C    -107.120000   55.531800  -71.419800
  H    -107.727000   55.667100  -72.320200
  H    -106.709000   56.504700  -71.221400
  C    -108.051000   55.208400  -70.152800
  H    -107.553000   55.197400  -69.194800
  H    -108.649000   54.314900  -70.319800
  C    -109.218000   56.214300  -70.010800
  H    -108.914000   57.195600  -69.598000
  H    -109.866000   55.741000  -69.359800
  H    -109.811000   56.433800  -70.904100
  H    -109.674000   52.164000  -75.632600
  H    -103.129000   53.254900  -70.517900

 Total Charge           Charge          ....    0
 Multiplicity           Mult            ....    1
 Number of Electrons    NEL             ....  134
 Basis Dimension        Dim             ....  322

ORBITAL ENERGIES
----------------

  NO   OCC          E(Eh)            E(eV)
   0   2.0000     -88.971419     -2421.0354
   1   2.0000     -88.963808     -2420.8283
   2   2.0000     -10.333040      -281.1763
   3   2.0000     -10.329825      -281.0888
   4   2.0000     -10.318757      -280.7876
   5   2.0000     -10.308259      -280.5020
   6   2.0000     -10.305683      -280.4319
   7   2.0000     -10.301285      -280.3122
   8   2.0000     -10.295743      -280.1614
   9   2.0000     -10.292895      -280.0839
  10   2.0000     -10.291886      -280.0564
  11   2.0000     -10.291736      -280.0524
  12   2.0000     -10.288905      -279.9753
  13   2.0000     -10.284708      -279.8611
  14   2.0000     -10.277775      -279.6725
  15   2.0000     -10.272211      -279.5211
  16   2.0000      -8.085856      -220.0273
  17   2.0000      -8.077513      -219.8003
  18   2.0000      -6.044254      -164.4725
  19   2.0000      -6.040538      -164.3714
  20   2.0000      -6.036647      -164.2655
  21   2.0000      -6.036164      -164.2524
  22   2.0000      -6.032219      -164.1450
  23   2.0000      -6.028147      -164.0342
  24   2.0000      -1.003333       -27.3021
  25   2.0000      -0.982016       -26.7220
  26   2.0000      -0.911140       -24.7934
  27   2.0000      -0.910402       -24.7733
  28   2.0000      -0.866139       -23.5688
  29   2.0000      -0.859537       -23.3892
  30   2.0000      -0.844243       -22.9730
  31   2.0000      -0.811061       -22.0701
  32   2.0000      -0.784341       -21.3430
  33   2.0000      -0.767797       -20.8928
  34   2.0000      -0.703781       -19.1509
  35   2.0000      -0.700592       -19.0641
  36   2.0000      -0.692741       -18.8504
  37   2.0000      -0.668956       -18.2032
  38   2.0000      -0.631259       -17.1774
  39   2.0000      -0.614476       -16.7208
  40   2.0000      -0.600898       -16.3513
  41   2.0000      -0.574755       -15.6399
  42   2.0000      -0.565945       -15.4002
  43   2.0000      -0.558581       -15.1998
  44   2.0000      -0.530010       -14.4223
  45   2.0000      -0.524363       -14.2686
  46   2.0000      -0.514878       -14.0105
  47   2.0000      -0.511720       -13.9246
  48   2.0000      -0.509395       -13.8613
  49   2.0000      -0.499096       -13.5811
  50   2.0000      -0.489241       -13.3129
  51   2.0000      -0.471369       -12.8266
  52   2.0000      -0.468143       -12.7388
  53   2.0000      -0.464400       -12.6370
  54   2.0000      -0.455534       -12.3957
  55   2.0000      -0.450425       -12.2567
  56   2.0000      -0.439019       -11.9463
  57   2.0000      -0.437581       -11.9072
  58   2.0000      -0.436219       -11.8701
  59   2.0000      -0.432512       -11.7693
  60   2.0000      -0.421899       -11.4805
  61   2.0000      -0.420017       -11.4292
  62   2.0000      -0.414878       -11.2894
  63   2.0000      -0.349788        -9.5182
  64   2.0000      -0.332041        -9.0353
  65   2.0000      -0.331268        -9.0143
  66   2.0000      -0.283809        -7.7228
  67   0.0000       0.023381         0.6362
  68   0.0000       0.076396         2.0788
  69   0.0000       0.101504         2.7621
  70   0.0000       0.114763         3.1229
  71   0.0000       0.126010         3.4289

MULLIKEN ATOMIC CHARGES
-----------------------
   0 S :    0.078861
   1 C :   -0.086968
   2 C :   -0.098994
   3 C :   -0.007944
   4 C :   -0.135921
   5 H :    0.024298
   6 C :    0.049872
   7 H :    0.017216
   8 H :    0.014483
   9 C :   -0.039369
  10 H :    0.025899
  11 H :    0.026915
  12 C :   -0.047029
  13 H :    0.024115
  14 H :    0.034931
  15 H :    0.041692
  16 S :    0.098120
  17 C :   -0.076337
  18 C :   -0.026282
  19 C :   -0.025803
  20 C :   -0.130791
  21 H :    0.032404
  22 C :    0.053758
  23 H :    0.028553
  24 H :    0.021466
  25 C :   -0.077517
  26 H :    0.036729
  27 H :    0.036256
  28 C :   -0.046057
  29 H :    0.028670
  30 H :    0.017544
  31 H :    0.031842
  32 H :    0.031594
  33 H :    0.043796
Sum of atomic charges:    0.0000000

LOEWDIN ATOMIC CHARGES
----------------------
   0 S :    0.384857
   1 C :   -0.191639
   2 C :   -0.064325
   3 C :   -0.087990
   4 C :   -0.174054
   5 H :    0.031882
   6 C :   -0.028844
   7 H :    0.025930
   8 H :    0.029154
   9 C :   -0.034315
  10 H :    0.019517
  11 H :    0.024327
  12 C :   -0.064192
  13 H :    0.027299
  14 H :    0.023990
  15 H :    0.027379
  16 S :    0.414477
  17 C :   -0.179032
  18 C :   -0.065342
  19 C :   -0.053996
  20 C :   -0.195062
  21 H :    0.037449
  22 C :   -0.041374
  23 H :    0.027596
  24 H :    0.033420
  25 C :   -0.025367
  26 H :    0.024861
  27 H :    0.026669
  28 C :   -0.064127
  29 H :    0.021764
  30 H :    0.017014
  31 H :    0.026136
  32 H :    0.028353
  33 H :    0.017586

  Mayer bond orders larger than 0.100000
B(  0-S ,  1-C ) :   1.1080 B(  0-S ,  4-C ) :   1.1381 B(  1-C ,  2-C ) :   1.6614
B(  1-C , 32-H ) :   0.9667 B(  2-C ,  3-C ) :   1.2085 B(  2-C ,  6-C ) :   1.0166
B(  3-C ,  4-C ) :   1.6189 B(  3-C ,  5-H ) :   0.9764 B(  4-C , 20-C ) :   1.0255
B(  6-C ,  7-H ) :   0.9419 B(  6-C ,  8-H ) :   0.9361 B(  6-C ,  9-C ) :   1.0625
B(  9-C , 10-H ) :   0.9589 B(  9-C , 11-H ) :   0.9527 B(  9-C , 12-C ) :   1.0725
B( 12-C , 13-H ) :   0.9771 B( 12-C , 14-H ) :   0.9743 B( 12-C , 15-H ) :   0.9771
B( 16-S , 17-C ) :   1.1551 B( 16-S , 20-C ) :   1.1516 B( 17-C , 18-C ) :   1.5816
B( 17-C , 33-H ) :   0.9779 B( 18-C , 19-C ) :   1.2556 B( 18-C , 21-H ) :   0.9791
B( 19-C , 20-C ) :   1.5301 B( 19-C , 22-C ) :   1.0925 B( 22-C , 23-H ) :   0.9260
B( 22-C , 24-H ) :   0.9175 B( 22-C , 25-C ) :   1.0515 B( 25-C , 26-H ) :   0.9572
B( 25-C , 27-H ) :   0.9626 B( 25-C , 28-C ) :   1.0771 B( 28-C , 29-H ) :   0.9758
B( 28-C , 30-H ) :   0.9770 B( 28-C , 31-H ) :   0.9749

Dispersion correction           -0.013601579
FINAL SINGLE POINT ENERGY     -1339.869516798625

DIPOLE MOMENT
-------------
                                X             Y             Z
Electronic contribution:      9.31734      -3.93377       9.17406
Nuclear contribution   :     -9.30225       4.06534      -9.19243
                        -----------------------------------------
Total Dipole Moment    :      0.01510       0.13158      -0.01837
                        -----------------------------------------
Magnitude (a.u.)       :      0.13371
Magnitude (Debye)      :      0.33986

Rotational constants in cm-1:     0.022578     0.007348     0.005808
Rotational constants in MHz :   676.861004   220.280148   174.126202

                             ****ORCA TERMINATED NORMALLY****
TOTAL RUN TIME: 0 days 0 hours 0 minutes 20 seconds 795 msec
