                         Program Version 4.2.1 -  RELEASE  -
|  1> ! wB97X-D3 SP def2-SVP
|  2> %pal
|  3> nprocs 24
|  4> end
|  5>
|  6> * xyz 0 1
|  7> S 	 -66.661 	 7.03196 	 -70.1265
|  8> C 	 -67.5284 	 8.45381 	 -70.5492
|  9> C 	 -68.4887 	 8.16699 	 -71.4596
| 10> C 	 -68.6266 	 6.74426 	 -71.6644
| 11> C 	 -67.67 	 5.9774 	 -70.9894
| 12> H 	 -69.3871 	 6.26439 	 -72.2391
| 13> C 	 -69.3609 	 9.20177 	 -72.0898
| 14> H 	 -68.8619 	 9.56392 	 -72.9767
| 15> H 	 -69.4045 	 10.0391 	 -71.3237
| 16> C 	 -70.8337 	 8.76652 	 -72.4839
| 17> H 	 -71.3347 	 8.1748 	 -71.7418
| 18> H 	 -71.3575 	 9.67747 	 -72.613
| 19> C 	 -70.9694 	 8.10915 	 -73.9106
| 20> H 	 -70.4495 	 7.20484 	 -73.9374
| 21> H 	 -72.0028 	 7.98322 	 -74.1382
| 22> H 	 -70.5676 	 8.84357 	 -74.567
| 23> S 	 -67.1735 	 4.11782 	 -69.0087
| 24> C 	 -67.0907 	 2.48349 	 -69.4868
| 25> C 	 -67.184 	 2.2829 	 -70.8563
| 26> C 	 -67.2491 	 3.49183 	 -71.5399
| 27> C 	 -67.477 	 4.52813 	 -70.6836
| 28> H 	 -67.1347 	 1.25184 	 -71.2924
| 29> C 	 -67.2569 	 3.48844 	 -73.025
| 30> H 	 -66.3149 	 2.99252 	 -73.3915
| 31> H 	 -67.2361 	 4.5923 	 -73.2567
| 32> C 	 -68.4205 	 2.8099 	 -73.7749
| 33> H 	 -69.3195 	 3.42584 	 -73.5512
| 34> H 	 -68.6412 	 1.88509 	 -73.2777
| 35> C 	 -68.3793 	 2.62987 	 -75.3099
| 36> H 	 -67.7581 	 1.73335 	 -75.5366
| 37> H 	 -67.9599 	 3.4519 	 -75.8569
| 38> H 	 -69.3975 	 2.44473 	 -75.6393
| 39> H 	 -67.3873 	 9.43683 	 -70.1226
| 40> H 	 -66.9458 	 1.76427 	 -68.6953
| 41> *
| 42>
| 43>                          ****END OF INPUT****

CARTESIAN COORDINATES (ANGSTROEM)
---------------------------------
  S    -66.661000    7.031960  -70.126500
  C    -67.528400    8.453810  -70.549200
  C    -68.488700    8.166990  -71.459600
  C    -68.626600    6.744260  -71.664400
  C    -67.670000    5.977400  -70.989400
  H    -69.387100    6.264390  -72.239100
  C    -69.360900    9.201770  -72.089800
  H    -68.861900    9.563920  -72.976700
  H    -69.404500   10.039100  -71.323700
  C    -70.833700    8.766520  -72.483900
  H    -71.334700    8.174800  -71.741800
  H    -71.357500    9.677470  -72.613000
  C    -70.969400    8.109150  -73.910600
  H    -70.449500    7.204840  -73.937400
  H    -72.002800    7.983220  -74.138200
  H    -70.567600    8.843570  -74.567000
  S    -67.173500    4.117820  -69.008700
  C    -67.090700    2.483490  -69.486800
  C    -67.184000    2.282900  -70.856300
  C    -67.249100    3.491830  -71.539900
  C    -67.477000    4.528130  -70.683600
  H    -67.134700    1.251840  -71.292400
  C    -67.256900    3.488440  -73.025000
  H    -66.314900    2.992520  -73.391500
  H    -67.236100    4.592300  -73.256700
  C    -68.420500    2.809900  -73.774900
  H    -69.319500    3.425840  -73.551200
  H    -68.641200    1.885090  -73.277700
  C    -68.379300    2.629870  -75.309900
  H    -67.758100    1.733350  -75.536600
  H    -67.959900    3.451900  -75.856900
  H    -69.397500    2.444730  -75.639300
  H    -67.387300    9.436830  -70.122600
  H    -66.945800    1.764270  -68.695300

 Total Charge           Charge          ....    0
 Multiplicity           Mult            ....    1
 Number of Electrons    NEL             ....  134
 Basis Dimension        Dim             ....  322

ORBITAL ENERGIES
----------------

  NO   OCC          E(Eh)            E(eV)
   0   2.0000     -88.967466     -2420.9278
   1   2.0000     -88.957733     -2420.6630
   2   2.0000     -10.326090      -280.9872
   3   2.0000     -10.325364      -280.9674
   4   2.0000     -10.313981      -280.6577
   5   2.0000     -10.303181      -280.3638
   6   2.0000     -10.296731      -280.1883
   7   2.0000     -10.296439      -280.1804
   8   2.0000     -10.294855      -280.1372
   9   2.0000     -10.294590      -280.1300
  10   2.0000     -10.293479      -280.0998
  11   2.0000     -10.292364      -280.0695
  12   2.0000     -10.288006      -279.9509
  13   2.0000     -10.285579      -279.8848
  14   2.0000     -10.282386      -279.7979
  15   2.0000     -10.271536      -279.5027
  16   2.0000      -8.083224      -219.9557
  17   2.0000      -8.074336      -219.7139
  18   2.0000      -6.041445      -164.3961
  19   2.0000      -6.037752      -164.2956
  20   2.0000      -6.034032      -164.1943
  21   2.0000      -6.032757      -164.1597
  22   2.0000      -6.028341      -164.0395
  23   2.0000      -6.025306      -163.9569
  24   2.0000      -1.016602       -27.6631
  25   2.0000      -0.994279       -27.0557
  26   2.0000      -0.910396       -24.7731
  27   2.0000      -0.907783       -24.7020
  28   2.0000      -0.868739       -23.6396
  29   2.0000      -0.859123       -23.3779
  30   2.0000      -0.839828       -22.8529
  31   2.0000      -0.816018       -22.2050
  32   2.0000      -0.786845       -21.4111
  33   2.0000      -0.773938       -21.0599
  34   2.0000      -0.708940       -19.2912
  35   2.0000      -0.699538       -19.0354
  36   2.0000      -0.690190       -18.7810
  37   2.0000      -0.661562       -18.0020
  38   2.0000      -0.640503       -17.4290
  39   2.0000      -0.621062       -16.9000
  40   2.0000      -0.600627       -16.3439
  41   2.0000      -0.573024       -15.5928
  42   2.0000      -0.560376       -15.2486
  43   2.0000      -0.541516       -14.7354
  44   2.0000      -0.538027       -14.6405
  45   2.0000      -0.528621       -14.3845
  46   2.0000      -0.520939       -14.1755
  47   2.0000      -0.511786       -13.9264
  48   2.0000      -0.507697       -13.8151
  49   2.0000      -0.503232       -13.6936
  50   2.0000      -0.492032       -13.3889
  51   2.0000      -0.482723       -13.1356
  52   2.0000      -0.475175       -12.9302
  53   2.0000      -0.469585       -12.7781
  54   2.0000      -0.458827       -12.4853
  55   2.0000      -0.453382       -12.3371
  56   2.0000      -0.445465       -12.1217
  57   2.0000      -0.439674       -11.9641
  58   2.0000      -0.434091       -11.8122
  59   2.0000      -0.424041       -11.5388
  60   2.0000      -0.419719       -11.4211
  61   2.0000      -0.415310       -11.3012
  62   2.0000      -0.410939       -11.1822
  63   2.0000      -0.342106        -9.3092
  64   2.0000      -0.336081        -9.1452
  65   2.0000      -0.323742        -8.8095
  66   2.0000      -0.294235        -8.0065
  67   0.0000       0.034276         0.9327
  68   0.0000       0.073189         1.9916
  69   0.0000       0.114447         3.1143
  70   0.0000       0.125399         3.4123
  71   0.0000       0.132515         3.6059

MULLIKEN ATOMIC CHARGES
-----------------------
   0 S :    0.095900
   1 C :   -0.134198
   2 C :   -0.077771
   3 C :    0.036337
   4 C :   -0.155647
   5 H :   -0.008090
   6 C :    0.043906
   7 H :    0.039615
   8 H :    0.035054
   9 C :   -0.085078
  10 H :    0.035316
  11 H :    0.020425
  12 C :   -0.016990
  13 H :    0.021500
  14 H :    0.032358
  15 H :    0.022024
  16 S :    0.125346
  17 C :   -0.097945
  18 C :   -0.038043
  19 C :   -0.015874
  20 C :   -0.159161
  21 H :    0.037922
  22 C :    0.050412
  23 H :    0.035395
  24 H :    0.033780
  25 C :   -0.088297
  26 H :    0.020762
  27 H :    0.016882
  28 C :   -0.029503
  29 H :    0.034570
  30 H :    0.034636
  31 H :    0.038369
  32 H :    0.042740
  33 H :    0.053348
Sum of atomic charges:   -0.0000000

LOEWDIN ATOMIC CHARGES
----------------------
   0 S :    0.433437
   1 C :   -0.212033
   2 C :   -0.068634
   3 C :   -0.071922
   4 C :   -0.204456
   5 H :    0.022298
   6 C :   -0.031004
   7 H :    0.032660
   8 H :    0.038419
   9 C :   -0.033907
  10 H :    0.020272
  11 H :    0.021438
  12 C :   -0.049509
  13 H :    0.011224
  14 H :    0.024821
  15 H :    0.022048
  16 S :    0.428663
  17 C :   -0.188927
  18 C :   -0.075208
  19 C :   -0.060100
  20 C :   -0.203585
  21 H :    0.040992
  22 C :   -0.038682
  23 H :    0.036475
  24 H :    0.035485
  25 C :   -0.045255
  26 H :    0.024209
  27 H :    0.018102
  28 C :   -0.061258
  29 H :    0.028887
  30 H :    0.023706
  31 H :    0.030593
  32 H :    0.028839
  33 H :    0.021911

  Mayer bond orders larger than 0.100000
B(  0-S ,  1-C ) :   1.1407 B(  0-S ,  4-C ) :   1.1861 B(  1-C ,  2-C ) :   1.6075
B(  1-C , 32-H ) :   0.9725 B(  2-C ,  3-C ) :   1.2426 B(  2-C ,  6-C ) :   1.0184
B(  3-C ,  4-C ) :   1.5596 B(  3-C ,  5-H ) :   1.0013 B(  4-C , 20-C ) :   1.0011
B(  6-C ,  7-H ) :   0.9319 B(  6-C ,  8-H ) :   0.9466 B(  6-C ,  9-C ) :   1.0695
B(  9-C , 10-H ) :   0.9639 B(  9-C , 11-H ) :   0.9569 B(  9-C , 12-C ) :   1.0687
B( 12-C , 13-H ) :   0.9832 B( 12-C , 14-H ) :   0.9732 B( 12-C , 15-H ) :   0.9746
B( 16-S , 17-C ) :   1.1815 B( 16-S , 20-C ) :   1.1470 B( 17-C , 18-C ) :   1.5800
B( 17-C , 33-H ) :   0.9699 B( 18-C , 19-C ) :   1.2394 B( 18-C , 21-H ) :   0.9874
B( 19-C , 20-C ) :   1.5943 B( 19-C , 22-C ) :   1.0567 B( 22-C , 23-H ) :   0.9280
B( 22-C , 24-H ) :   0.9260 B( 22-C , 25-C ) :   1.0617 B( 25-C , 26-H ) :   0.9543
B( 25-C , 27-H ) :   0.9555 B( 25-C , 28-C ) :   1.0780 B( 28-C , 29-H ) :   0.9746
B( 28-C , 30-H ) :   0.9774 B( 28-C , 31-H ) :   0.9746

Dispersion correction           -0.013833279
FINAL SINGLE POINT ENERGY     -1339.875000745438

DIPOLE MOMENT
-------------
                                X             Y             Z
Electronic contribution:     15.90229      -1.13564      26.15303
Nuclear contribution   :    -16.26595       1.07025     -26.56964
                        -----------------------------------------
Total Dipole Moment    :     -0.36365      -0.06539      -0.41662
                        -----------------------------------------
Magnitude (a.u.)       :      0.55686
Magnitude (Debye)      :      1.41542

Rotational constants in cm-1:     0.015837     0.009909     0.006694
Rotational constants in MHz :   474.789538   297.050390   200.695918

                             ****ORCA TERMINATED NORMALLY****
TOTAL RUN TIME: 0 days 0 hours 0 minutes 21 seconds 449 msec
