                         Program Version 4.2.1 -  RELEASE  -
|  1> ! wB97X-D3 SP def2-SVP
|  2> %pal
|  3> nprocs 24
|  4> end
|  5>
|  6> * xyz 0 1
|  7> S 	 32.4209 	 -31.3088 	 -110.789
|  8> C 	 31.3192 	 -31.5663 	 -109.437
|  9> C 	 31.735 	 -30.7634 	 -108.367
| 10> C 	 32.7985 	 -29.8844 	 -108.688
| 11> C 	 33.4211 	 -30.2117 	 -109.893
| 12> H 	 33.197 	 -29.1907 	 -108.079
| 13> C 	 31.0825 	 -30.8554 	 -107.007
| 14> H 	 30.4048 	 -31.6877 	 -106.981
| 15> H 	 30.5344 	 -29.9297 	 -107.065
| 16> C 	 31.9453 	 -31.0162 	 -105.739
| 17> H 	 32.6943 	 -30.2759 	 -105.603
| 18> H 	 31.3606 	 -30.9784 	 -104.834
| 19> C 	 32.7179 	 -32.2465 	 -105.677
| 20> H 	 32.0747 	 -33.1415 	 -105.836
| 21> H 	 33.5958 	 -32.2701 	 -106.378
| 22> H 	 33.1222 	 -32.4402 	 -104.709
| 23> S 	 34.4841 	 -28.9763 	 -112.172
| 24> C 	 35.9819 	 -28.0617 	 -111.805
| 25> C 	 36.6145 	 -28.4352 	 -110.672
| 26> C 	 35.7952 	 -29.2488 	 -109.887
| 27> C 	 34.5674 	 -29.6209 	 -110.492
| 28> H 	 37.6439 	 -28.0265 	 -110.463
| 29> C 	 36.2816 	 -29.8249 	 -108.602
| 30> H 	 35.4908 	 -30.4885 	 -108.253
| 31> H 	 36.6096 	 -29.0465 	 -107.929
| 32> C 	 37.4797 	 -30.7045 	 -108.798
| 33> H 	 38.3049 	 -30.1043 	 -109.163
| 34> H 	 37.2567 	 -31.4978 	 -109.509
| 35> C 	 37.8757 	 -31.522 	 -107.577
| 36> H 	 37.0361 	 -32.0808 	 -107.244
| 37> H 	 38.1587 	 -30.8242 	 -106.778
| 38> H 	 38.6072 	 -32.3274 	 -107.793
| 39> H 	 30.4974 	 -32.1897 	 -109.361
| 40> H 	 36.5556 	 -27.5565 	 -112.539
| 41> *
| 42>
| 43>                          ****END OF INPUT****

CARTESIAN COORDINATES (ANGSTROEM)
---------------------------------
  S     32.420900  -31.308800  -110.789000
  C     31.319200  -31.566300  -109.437000
  C     31.735000  -30.763400  -108.367000
  C     32.798500  -29.884400  -108.688000
  C     33.421100  -30.211700  -109.893000
  H     33.197000  -29.190700  -108.079000
  C     31.082500  -30.855400  -107.007000
  H     30.404800  -31.687700  -106.981000
  H     30.534400  -29.929700  -107.065000
  C     31.945300  -31.016200  -105.739000
  H     32.694300  -30.275900  -105.603000
  H     31.360600  -30.978400  -104.834000
  C     32.717900  -32.246500  -105.677000
  H     32.074700  -33.141500  -105.836000
  H     33.595800  -32.270100  -106.378000
  H     33.122200  -32.440200  -104.709000
  S     34.484100  -28.976300  -112.172000
  C     35.981900  -28.061700  -111.805000
  C     36.614500  -28.435200  -110.672000
  C     35.795200  -29.248800  -109.887000
  C     34.567400  -29.620900  -110.492000
  H     37.643900  -28.026500  -110.463000
  C     36.281600  -29.824900  -108.602000
  H     35.490800  -30.488500  -108.253000
  H     36.609600  -29.046500  -107.929000
  C     37.479700  -30.704500  -108.798000
  H     38.304900  -30.104300  -109.163000
  H     37.256700  -31.497800  -109.509000
  C     37.875700  -31.522000  -107.577000
  H     37.036100  -32.080800  -107.244000
  H     38.158700  -30.824200  -106.778000
  H     38.607200  -32.327400  -107.793000
  H     30.497400  -32.189700  -109.361000
  H     36.555600  -27.556500  -112.539000

 Total Charge           Charge          ....    0
 Multiplicity           Mult            ....    1
 Number of Electrons    NEL             ....  134
 Basis Dimension        Dim             ....  322

ORBITAL ENERGIES
----------------

  NO   OCC          E(Eh)            E(eV)
   0   2.0000     -88.968046     -2420.9436
   1   2.0000     -88.964155     -2420.8377
   2   2.0000     -10.329793      -281.0880
   3   2.0000     -10.328438      -281.0511
   4   2.0000     -10.315809      -280.7074
   5   2.0000     -10.308691      -280.5137
   6   2.0000     -10.303952      -280.3848
   7   2.0000     -10.300777      -280.2984
   8   2.0000     -10.295821      -280.1635
   9   2.0000     -10.289881      -280.0019
  10   2.0000     -10.286449      -279.9085
  11   2.0000     -10.284519      -279.8560
  12   2.0000     -10.279578      -279.7215
  13   2.0000     -10.278683      -279.6972
  14   2.0000     -10.275702      -279.6161
  15   2.0000     -10.273268      -279.5498
  16   2.0000      -8.081495      -219.9087
  17   2.0000      -8.078915      -219.8384
  18   2.0000      -6.040080      -164.3589
  19   2.0000      -6.037446      -164.2872
  20   2.0000      -6.036514      -164.2619
  21   2.0000      -6.033320      -164.1750
  22   2.0000      -6.031915      -164.1368
  23   2.0000      -6.029766      -164.0783
  24   2.0000      -1.006974       -27.4012
  25   2.0000      -0.983536       -26.7634
  26   2.0000      -0.920635       -25.0518
  27   2.0000      -0.917628       -24.9699
  28   2.0000      -0.877929       -23.8897
  29   2.0000      -0.854717       -23.2580
  30   2.0000      -0.849400       -23.1133
  31   2.0000      -0.820948       -22.3391
  32   2.0000      -0.786239       -21.3946
  33   2.0000      -0.770076       -20.9548
  34   2.0000      -0.714366       -19.4389
  35   2.0000      -0.698015       -18.9940
  36   2.0000      -0.693663       -18.8755
  37   2.0000      -0.656643       -17.8682
  38   2.0000      -0.646042       -17.5797
  39   2.0000      -0.625779       -17.0283
  40   2.0000      -0.597737       -16.2652
  41   2.0000      -0.582547       -15.8519
  42   2.0000      -0.570687       -15.5292
  43   2.0000      -0.563067       -15.3218
  44   2.0000      -0.549311       -14.9475
  45   2.0000      -0.525066       -14.2878
  46   2.0000      -0.522138       -14.2081
  47   2.0000      -0.513035       -13.9604
  48   2.0000      -0.506653       -13.7867
  49   2.0000      -0.499494       -13.5919
  50   2.0000      -0.490206       -13.3392
  51   2.0000      -0.484224       -13.1764
  52   2.0000      -0.471546       -12.8314
  53   2.0000      -0.464324       -12.6349
  54   2.0000      -0.461362       -12.5543
  55   2.0000      -0.453194       -12.3320
  56   2.0000      -0.446756       -12.1568
  57   2.0000      -0.439106       -11.9487
  58   2.0000      -0.431480       -11.7412
  59   2.0000      -0.424624       -11.5546
  60   2.0000      -0.418521       -11.3885
  61   2.0000      -0.413871       -11.2620
  62   2.0000      -0.409917       -11.1544
  63   2.0000      -0.350853        -9.5472
  64   2.0000      -0.333844        -9.0843
  65   2.0000      -0.325321        -8.8524
  66   2.0000      -0.283620        -7.7177
  67   0.0000       0.019255         0.5240
  68   0.0000       0.067007         1.8234
  69   0.0000       0.099214         2.6997
  70   0.0000       0.121346         3.3020
  71   0.0000       0.127890         3.4801

MULLIKEN ATOMIC CHARGES
-----------------------
   0 S :    0.097842
   1 C :   -0.077068
   2 C :   -0.134155
   3 C :    0.089649
   4 C :   -0.160590
   5 H :   -0.034197
   6 C :    0.094655
   7 H :    0.009801
   8 H :    0.041807
   9 C :   -0.029326
  10 H :    0.012183
  11 H :    0.023132
  12 C :   -0.068442
  13 H :    0.019077
  14 H :    0.044791
  15 H :    0.020084
  16 S :    0.097165
  17 C :   -0.064783
  18 C :   -0.062569
  19 C :   -0.041578
  20 C :   -0.129962
  21 H :    0.047322
  22 C :    0.100877
  23 H :    0.023213
  24 H :    0.021602
  25 C :   -0.104005
  26 H :    0.023817
  27 H :    0.027204
  28 C :   -0.027839
  29 H :    0.014710
  30 H :    0.026635
  31 H :    0.042600
  32 H :    0.014914
  33 H :    0.041437
Sum of atomic charges:   -0.0000000

LOEWDIN ATOMIC CHARGES
----------------------
   0 S :    0.404874
   1 C :   -0.192987
   2 C :   -0.053457
   3 C :   -0.050103
   4 C :   -0.190554
   5 H :    0.010607
   6 C :   -0.026839
   7 H :    0.026158
   8 H :    0.038560
   9 C :   -0.044921
  10 H :    0.019931
  11 H :    0.027879
  12 C :   -0.066368
  13 H :    0.023474
  14 H :    0.028980
  15 H :    0.022158
  16 S :    0.365838
  17 C :   -0.157346
  18 C :   -0.074645
  19 C :   -0.045675
  20 C :   -0.190080
  21 H :    0.047633
  22 C :   -0.032074
  23 H :    0.031543
  24 H :    0.029123
  25 C :   -0.041210
  26 H :    0.016822
  27 H :    0.026522
  28 C :   -0.063721
  29 H :    0.019166
  30 H :    0.023117
  31 H :    0.032941
  32 H :    0.014219
  33 H :    0.020436

  Mayer bond orders larger than 0.100000
B(  0-S ,  1-C ) :   1.1253 B(  0-S ,  4-C ) :   1.1580 B(  1-C ,  2-C ) :   1.5945
B(  1-C ,  4-C ) :   0.1022 B(  1-C , 32-H ) :   0.9789 B(  2-C ,  3-C ) :   1.2478
B(  2-C ,  6-C ) :   1.0076 B(  3-C ,  4-C ) :   1.5262 B(  3-C ,  5-H ) :   1.0105
B(  4-C , 20-C ) :   1.0822 B(  6-C ,  7-H ) :   0.9447 B(  6-C ,  8-H ) :   0.9330
B(  6-C ,  9-C ) :   1.0738 B(  9-C , 10-H ) :   0.9498 B(  9-C , 11-H ) :   0.9513
B(  9-C , 12-C ) :   1.0925 B( 12-C , 13-H ) :   0.9700 B( 12-C , 14-H ) :   0.9717
B( 12-C , 15-H ) :   0.9683 B( 16-S , 17-C ) :   1.1409 B( 16-S , 20-C ) :   1.1057
B( 17-C , 18-C ) :   1.6496 B( 17-C , 20-C ) :   0.1027 B( 17-C , 33-H ) :   0.9582
B( 18-C , 19-C ) :   1.2241 B( 18-C , 21-H ) :   0.9780 B( 19-C , 20-C ) :   1.5860
B( 19-C , 22-C ) :   1.0618 B( 22-C , 23-H ) :   0.9297 B( 22-C , 24-H ) :   0.9198
B( 22-C , 25-C ) :   1.0792 B( 25-C , 26-H ) :   0.9507 B( 25-C , 27-H ) :   0.9527
B( 25-C , 28-C ) :   1.0928 B( 28-C , 29-H ) :   0.9714 B( 28-C , 30-H ) :   0.9718
B( 28-C , 31-H ) :   0.9736

Dispersion correction           -0.014480965
FINAL SINGLE POINT ENERGY     -1339.854473807206

DIPOLE MOMENT
-------------
                                X             Y             Z
Electronic contribution:     -8.84995       8.45882     -27.85714
Nuclear contribution   :      9.17328      -8.41461      28.56154
                        -----------------------------------------
Total Dipole Moment    :      0.32333       0.04421       0.70440
                        -----------------------------------------
Magnitude (a.u.)       :      0.77632
Magnitude (Debye)      :      1.97325

Rotational constants in cm-1:     0.017048     0.010079     0.007139
Rotational constants in MHz :   511.095296   302.163054   214.036121

                             ****ORCA TERMINATED NORMALLY****
TOTAL RUN TIME: 0 days 0 hours 0 minutes 22 seconds 451 msec
