                         Program Version 4.2.1 -  RELEASE  -
|  1> ! wB97X-D3 SP def2-SVP
|  2> %pal
|  3> nprocs 24
|  4> end
|  5>
|  6> * xyz 0 1
|  7> S 	 -108.602 	 1.84222 	 -109.526
|  8> C 	 -108.589 	 3.41094 	 -110.354
|  9> C 	 -107.657 	 4.28318 	 -109.767
| 10> C 	 -106.872 	 3.59132 	 -108.761
| 11> C 	 -107.179 	 2.2632 	 -108.576
| 12> H 	 -106.051 	 3.91315 	 -108.091
| 13> C 	 -107.61 	 5.76171 	 -110.003
| 14> H 	 -106.655 	 6.13486 	 -109.786
| 15> H 	 -108.269 	 6.35954 	 -109.335
| 16> C 	 -107.982 	 6.32476 	 -111.453
| 17> H 	 -107.445 	 5.77563 	 -112.253
| 18> H 	 -109.026 	 6.04905 	 -111.64
| 19> C 	 -107.87 	 7.91517 	 -111.678
| 20> H 	 -106.855 	 8.34635 	 -111.627
| 21> H 	 -108.184 	 8.1921 	 -112.719
| 22> H 	 -108.449 	 8.50061 	 -110.947
| 23> S 	 -105.829 	 -0.0392499 	 -108.239
| 24> C 	 -105.432 	 -0.65441 	 -106.686
| 25> C 	 -105.937 	 0.121268 	 -105.676
| 26> C 	 -106.553 	 1.29064 	 -106.195
| 27> C 	 -106.592 	 1.34238 	 -107.586
| 28> H 	 -105.654 	 -0.102555 	 -104.648
| 29> C 	 -107.127 	 2.30501 	 -105.273
| 30> H 	 -107.438 	 3.13101 	 -105.85
| 31> H 	 -106.369 	 2.75208 	 -104.583
| 32> C 	 -108.33 	 1.75435 	 -104.463
| 33> H 	 -108.812 	 2.57951 	 -103.875
| 34> H 	 -107.97 	 0.918318 	 -103.85
| 35> C 	 -109.417 	 1.39323 	 -105.468
| 36> H 	 -110.371 	 1.14031 	 -105.049
| 37> H 	 -108.983 	 0.587855 	 -106.109
| 38> H 	 -109.56 	 2.17771 	 -106.214
| 39> H 	 -109.469 	 3.74546 	 -110.91
| 40> H 	 -104.805 	 -1.55026 	 -106.4
| 41> *
| 42>
| 43>                          ****END OF INPUT****

CARTESIAN COORDINATES (ANGSTROEM)
---------------------------------
  S    -108.602000    1.842220  -109.526000
  C    -108.589000    3.410940  -110.354000
  C    -107.657000    4.283180  -109.767000
  C    -106.872000    3.591320  -108.761000
  C    -107.179000    2.263200  -108.576000
  H    -106.051000    3.913150  -108.091000
  C    -107.610000    5.761710  -110.003000
  H    -106.655000    6.134860  -109.786000
  H    -108.269000    6.359540  -109.335000
  C    -107.982000    6.324760  -111.453000
  H    -107.445000    5.775630  -112.253000
  H    -109.026000    6.049050  -111.640000
  C    -107.870000    7.915170  -111.678000
  H    -106.855000    8.346350  -111.627000
  H    -108.184000    8.192100  -112.719000
  H    -108.449000    8.500610  -110.947000
  S    -105.829000   -0.039250  -108.239000
  C    -105.432000   -0.654410  -106.686000
  C    -105.937000    0.121268  -105.676000
  C    -106.553000    1.290640  -106.195000
  C    -106.592000    1.342380  -107.586000
  H    -105.654000   -0.102555  -104.648000
  C    -107.127000    2.305010  -105.273000
  H    -107.438000    3.131010  -105.850000
  H    -106.369000    2.752080  -104.583000
  C    -108.330000    1.754350  -104.463000
  H    -108.812000    2.579510  -103.875000
  H    -107.970000    0.918318  -103.850000
  C    -109.417000    1.393230  -105.468000
  H    -110.371000    1.140310  -105.049000
  H    -108.983000    0.587855  -106.109000
  H    -109.560000    2.177710  -106.214000
  H    -109.469000    3.745460  -110.910000
  H    -104.805000   -1.550260  -106.400000

 Total Charge           Charge          ....    0
 Multiplicity           Mult            ....    1
 Number of Electrons    NEL             ....  134
 Basis Dimension        Dim             ....  322

ORBITAL ENERGIES
----------------

  NO   OCC          E(Eh)            E(eV)
   0   2.0000     -88.967305     -2420.9234
   1   2.0000     -88.966554     -2420.9030
   2   2.0000     -10.332829      -281.1706
   3   2.0000     -10.325642      -280.9750
   4   2.0000     -10.321333      -280.8577
   5   2.0000     -10.318653      -280.7848
   6   2.0000     -10.313694      -280.6499
   7   2.0000     -10.302957      -280.3577
   8   2.0000     -10.301238      -280.3109
   9   2.0000     -10.301101      -280.3072
  10   2.0000     -10.296887      -280.1925
  11   2.0000     -10.293256      -280.0937
  12   2.0000     -10.291567      -280.0478
  13   2.0000     -10.287455      -279.9359
  14   2.0000     -10.284315      -279.8504
  15   2.0000     -10.267404      -279.3903
  16   2.0000      -8.082579      -219.9382
  17   2.0000      -8.081366      -219.9051
  18   2.0000      -6.040954      -164.3827
  19   2.0000      -6.039862      -164.3530
  20   2.0000      -6.036728      -164.2677
  21   2.0000      -6.036020      -164.2484
  22   2.0000      -6.033564      -164.1816
  23   2.0000      -6.032097      -164.1417
  24   2.0000      -1.013378       -27.5754
  25   2.0000      -0.985650       -26.8209
  26   2.0000      -0.913542       -24.8588
  27   2.0000      -0.902478       -24.5577
  28   2.0000      -0.867681       -23.6108
  29   2.0000      -0.846921       -23.0459
  30   2.0000      -0.842440       -22.9240
  31   2.0000      -0.816465       -22.2171
  32   2.0000      -0.781078       -21.2542
  33   2.0000      -0.768612       -20.9150
  34   2.0000      -0.711260       -19.3544
  35   2.0000      -0.700183       -19.0530
  36   2.0000      -0.690054       -18.7773
  37   2.0000      -0.657311       -17.8864
  38   2.0000      -0.645882       -17.5753
  39   2.0000      -0.612913       -16.6782
  40   2.0000      -0.596949       -16.2438
  41   2.0000      -0.572519       -15.5790
  42   2.0000      -0.555744       -15.1225
  43   2.0000      -0.552923       -15.0458
  44   2.0000      -0.542150       -14.7526
  45   2.0000      -0.518407       -14.1066
  46   2.0000      -0.514892       -14.0109
  47   2.0000      -0.507022       -13.7968
  48   2.0000      -0.500906       -13.6303
  49   2.0000      -0.497476       -13.5370
  50   2.0000      -0.490209       -13.3393
  51   2.0000      -0.481224       -13.0948
  52   2.0000      -0.471959       -12.8427
  53   2.0000      -0.458026       -12.4635
  54   2.0000      -0.455551       -12.3962
  55   2.0000      -0.448723       -12.2104
  56   2.0000      -0.443606       -12.0711
  57   2.0000      -0.433857       -11.8058
  58   2.0000      -0.432230       -11.7616
  59   2.0000      -0.427197       -11.6246
  60   2.0000      -0.425060       -11.5665
  61   2.0000      -0.418632       -11.3916
  62   2.0000      -0.407408       -11.0861
  63   2.0000      -0.344497        -9.3742
  64   2.0000      -0.330643        -8.9973
  65   2.0000      -0.329033        -8.9534
  66   2.0000      -0.303115        -8.2482
  67   0.0000       0.036957         1.0057
  68   0.0000       0.057470         1.5638
  69   0.0000       0.104404         2.8410
  70   0.0000       0.122326         3.3287
  71   0.0000       0.129829         3.5328

MULLIKEN ATOMIC CHARGES
-----------------------
   0 S :    0.109012
   1 C :   -0.126138
   2 C :   -0.075386
   3 C :    0.042628
   4 C :   -0.163339
   5 H :    0.027522
   6 C :    0.076183
   7 H :    0.010989
   8 H :    0.043979
   9 C :   -0.111469
  10 H :    0.041424
  11 H :    0.029052
  12 C :   -0.080349
  13 H :    0.036963
  14 H :    0.043484
  15 H :    0.037473
  16 S :    0.128961
  17 C :   -0.103438
  18 C :   -0.049723
  19 C :   -0.046750
  20 C :   -0.192014
  21 H :    0.027449
  22 C :    0.079450
  23 H :   -0.005066
  24 H :    0.037245
  25 C :   -0.081314
  26 H :    0.038507
  27 H :    0.041107
  28 C :   -0.055093
  29 H :    0.034424
  30 H :    0.040226
  31 H :    0.021671
  32 H :    0.068916
  33 H :    0.073415
Sum of atomic charges:   -0.0000000

LOEWDIN ATOMIC CHARGES
----------------------
   0 S :    0.394791
   1 C :   -0.193541
   2 C :   -0.059234
   3 C :   -0.064552
   4 C :   -0.196315
   5 H :    0.040445
   6 C :   -0.033884
   7 H :    0.021318
   8 H :    0.039749
   9 C :   -0.040746
  10 H :    0.026997
  11 H :    0.019644
  12 C :   -0.075494
  13 H :    0.025828
  14 H :    0.034292
  15 H :    0.025177
  16 S :    0.446897
  17 C :   -0.201552
  18 C :   -0.079377
  19 C :   -0.055758
  20 C :   -0.223576
  21 H :    0.035658
  22 C :   -0.034853
  23 H :    0.018968
  24 H :    0.034820
  25 C :   -0.038255
  26 H :    0.029523
  27 H :    0.022866
  28 C :   -0.069446
  29 H :    0.019428
  30 H :    0.029448
  31 H :    0.023447
  32 H :    0.031802
  33 H :    0.045483

  Mayer bond orders larger than 0.100000
B(  0-S ,  1-C ) :   1.1354 B(  0-S ,  4-C ) :   1.1491 B(  1-C ,  2-C ) :   1.6087
B(  1-C , 32-H ) :   0.9643 B(  2-C ,  3-C ) :   1.2144 B(  2-C ,  6-C ) :   1.0359
B(  3-C ,  4-C ) :   1.6139 B(  3-C ,  5-H ) :   0.9887 B(  4-C , 20-C ) :   1.0038
B(  6-C ,  7-H ) :   0.9426 B(  6-C ,  8-H ) :   0.9329 B(  6-C ,  9-C ) :   1.0534
B(  9-C , 10-H ) :   0.9636 B(  9-C , 11-H ) :   0.9547 B(  9-C , 12-C ) :   1.0679
B( 12-C , 13-H ) :   0.9789 B( 12-C , 14-H ) :   0.9759 B( 12-C , 15-H ) :   0.9770
B( 16-S , 17-C ) :   1.1763 B( 16-S , 20-C ) :   1.1627 B( 17-C , 18-C ) :   1.6081
B( 17-C , 33-H ) :   0.9563 B( 18-C , 19-C ) :   1.2453 B( 18-C , 21-H ) :   0.9875
B( 19-C , 20-C ) :   1.5764 B( 19-C , 22-C ) :   1.0563 B( 22-C , 23-H ) :   0.9279
B( 22-C , 24-H ) :   0.9327 B( 22-C , 25-C ) :   1.0685 B( 25-C , 26-H ) :   0.9570
B( 25-C , 27-H ) :   0.9582 B( 25-C , 28-C ) :   1.0647 B( 28-C , 29-H ) :   0.9752
B( 28-C , 30-H ) :   0.9701 B( 28-C , 31-H ) :   0.9718

Dispersion correction           -0.014946785
FINAL SINGLE POINT ENERGY     -1339.877228499053

DIPOLE MOMENT
-------------
                                X             Y             Z
Electronic contribution:      7.44363     -22.08909      -3.52585
Nuclear contribution   :     -7.40804      22.64111       3.90393
                        -----------------------------------------
Total Dipole Moment    :      0.03558       0.55202       0.37807
                        -----------------------------------------
Magnitude (a.u.)       :      0.67002
Magnitude (Debye)      :      1.70306

Rotational constants in cm-1:     0.024597     0.006991     0.006407
Rotational constants in MHz :   737.401213   209.586452   192.072506

                             ****ORCA TERMINATED NORMALLY****
TOTAL RUN TIME: 0 days 0 hours 0 minutes 21 seconds 598 msec
