                         Program Version 4.2.1 -  RELEASE  -
|  1> ! wB97X-D3 SP def2-SVP
|  2> %pal
|  3> nprocs 24
|  4> end
|  5>
|  6> * xyz 0 1
|  7> S 	 -100.931 	 15.3641 	 -118.721
|  8> C 	 -100.417 	 15.6687 	 -117.103
|  9> C 	 -99.8118 	 14.5633 	 -116.447
| 10> C 	 -99.8256 	 13.4504 	 -117.356
| 11> C 	 -100.433 	 13.6844 	 -118.595
| 12> H 	 -99.5634 	 12.4209 	 -117.137
| 13> C 	 -99.3367 	 14.5436 	 -114.978
| 14> H 	 -99.5305 	 13.5896 	 -114.581
| 15> H 	 -100.053 	 15.0789 	 -114.378
| 16> C 	 -97.9665 	 15.0588 	 -114.645
| 17> H 	 -97.9305 	 14.8678 	 -113.594
| 18> H 	 -97.1347 	 14.5001 	 -114.99
| 19> C 	 -97.687 	 16.5463 	 -114.839
| 20> H 	 -96.6634 	 16.7269 	 -114.414
| 21> H 	 -97.5867 	 16.7714 	 -115.912
| 22> H 	 -98.3844 	 17.2693 	 -114.377
| 23> S 	 -102.33 	 12.2813 	 -119.936
| 24> C 	 -101.807 	 11.2383 	 -121.224
| 25> C 	 -100.434 	 11.2038 	 -121.395
| 26> C 	 -99.7396 	 11.9705 	 -120.391
| 27> C 	 -100.665 	 12.648 	 -119.597
| 28> H 	 -99.9863 	 10.6924 	 -122.299
| 29> C 	 -98.2272 	 12.1261 	 -120.289
| 30> H 	 -97.9504 	 11.8142 	 -119.223
| 31> H 	 -97.941 	 13.18 	 -120.468
| 32> C 	 -97.4338 	 11.1702 	 -121.263
| 33> H 	 -97.6849 	 11.4455 	 -122.286
| 34> H 	 -97.7957 	 10.1741 	 -121.18
| 35> C 	 -95.9324 	 11.1069 	 -120.871
| 36> H 	 -95.5268 	 12.112 	 -120.904
| 37> H 	 -95.3543 	 10.4906 	 -121.529
| 38> H 	 -95.7877 	 10.791 	 -119.818
| 39> H 	 -100.734 	 16.4561 	 -116.45
| 40> H 	 -102.512 	 10.648 	 -121.816
| 41> *
| 42>
| 43>                          ****END OF INPUT****

CARTESIAN COORDINATES (ANGSTROEM)
---------------------------------
  S    -100.931000   15.364100  -118.721000
  C    -100.417000   15.668700  -117.103000
  C    -99.811800   14.563300  -116.447000
  C    -99.825600   13.450400  -117.356000
  C    -100.433000   13.684400  -118.595000
  H    -99.563400   12.420900  -117.137000
  C    -99.336700   14.543600  -114.978000
  H    -99.530500   13.589600  -114.581000
  H    -100.053000   15.078900  -114.378000
  C    -97.966500   15.058800  -114.645000
  H    -97.930500   14.867800  -113.594000
  H    -97.134700   14.500100  -114.990000
  C    -97.687000   16.546300  -114.839000
  H    -96.663400   16.726900  -114.414000
  H    -97.586700   16.771400  -115.912000
  H    -98.384400   17.269300  -114.377000
  S    -102.330000   12.281300  -119.936000
  C    -101.807000   11.238300  -121.224000
  C    -100.434000   11.203800  -121.395000
  C    -99.739600   11.970500  -120.391000
  C    -100.665000   12.648000  -119.597000
  H    -99.986300   10.692400  -122.299000
  C    -98.227200   12.126100  -120.289000
  H    -97.950400   11.814200  -119.223000
  H    -97.941000   13.180000  -120.468000
  C    -97.433800   11.170200  -121.263000
  H    -97.684900   11.445500  -122.286000
  H    -97.795700   10.174100  -121.180000
  C    -95.932400   11.106900  -120.871000
  H    -95.526800   12.112000  -120.904000
  H    -95.354300   10.490600  -121.529000
  H    -95.787700   10.791000  -119.818000
  H    -100.734000   16.456100  -116.450000
  H    -102.512000   10.648000  -121.816000

 Total Charge           Charge          ....    0
 Multiplicity           Mult            ....    1
 Number of Electrons    NEL             ....  134
 Basis Dimension        Dim             ....  322

ORBITAL ENERGIES
----------------

  NO   OCC          E(Eh)            E(eV)
   0   2.0000     -88.969362     -2420.9794
   1   2.0000     -88.966240     -2420.8945
   2   2.0000     -10.324083      -280.9326
   3   2.0000     -10.321063      -280.8504
   4   2.0000     -10.315745      -280.7057
   5   2.0000     -10.309725      -280.5419
   6   2.0000     -10.305913      -280.4382
   7   2.0000     -10.303488      -280.3721
   8   2.0000     -10.301506      -280.3182
   9   2.0000     -10.299424      -280.2616
  10   2.0000     -10.292288      -280.0674
  11   2.0000     -10.289348      -279.9874
  12   2.0000     -10.288040      -279.9518
  13   2.0000     -10.281139      -279.7640
  14   2.0000     -10.280121      -279.7363
  15   2.0000     -10.279881      -279.7298
  16   2.0000      -8.083788      -219.9710
  17   2.0000      -8.081440      -219.9072
  18   2.0000      -6.042206      -164.4168
  19   2.0000      -6.039704      -164.3487
  20   2.0000      -6.038294      -164.3103
  21   2.0000      -6.035984      -164.2475
  22   2.0000      -6.034724      -164.2132
  23   2.0000      -6.032335      -164.1482
  24   2.0000      -1.003352       -27.3026
  25   2.0000      -0.979571       -26.6555
  26   2.0000      -0.913602       -24.8604
  27   2.0000      -0.903334       -24.5810
  28   2.0000      -0.864314       -23.5192
  29   2.0000      -0.850234       -23.1360
  30   2.0000      -0.845785       -23.0150
  31   2.0000      -0.808248       -21.9935
  32   2.0000      -0.785527       -21.3753
  33   2.0000      -0.769353       -20.9352
  34   2.0000      -0.708668       -19.2838
  35   2.0000      -0.701085       -19.0775
  36   2.0000      -0.691430       -18.8148
  37   2.0000      -0.647450       -17.6180
  38   2.0000      -0.638384       -17.3713
  39   2.0000      -0.613177       -16.6854
  40   2.0000      -0.594907       -16.1882
  41   2.0000      -0.567186       -15.4339
  42   2.0000      -0.565242       -15.3810
  43   2.0000      -0.550504       -14.9800
  44   2.0000      -0.540090       -14.6966
  45   2.0000      -0.524256       -14.2657
  46   2.0000      -0.512816       -13.9544
  47   2.0000      -0.509992       -13.8776
  48   2.0000      -0.497695       -13.5430
  49   2.0000      -0.491666       -13.3789
  50   2.0000      -0.479422       -13.0457
  51   2.0000      -0.474934       -12.9236
  52   2.0000      -0.471776       -12.8377
  53   2.0000      -0.462995       -12.5987
  54   2.0000      -0.458272       -12.4702
  55   2.0000      -0.456006       -12.4086
  56   2.0000      -0.442700       -12.0465
  57   2.0000      -0.442249       -12.0342
  58   2.0000      -0.432326       -11.7642
  59   2.0000      -0.427545       -11.6341
  60   2.0000      -0.423010       -11.5107
  61   2.0000      -0.419109       -11.4045
  62   2.0000      -0.411626       -11.2009
  63   2.0000      -0.338402        -9.2084
  64   2.0000      -0.330268        -8.9871
  65   2.0000      -0.325145        -8.8476
  66   2.0000      -0.293507        -7.9867
  67   0.0000       0.034251         0.9320
  68   0.0000       0.065345         1.7781
  69   0.0000       0.121100         3.2953
  70   0.0000       0.123488         3.3603
  71   0.0000       0.128531         3.4975

MULLIKEN ATOMIC CHARGES
-----------------------
   0 S :    0.136711
   1 C :   -0.103689
   2 C :   -0.111094
   3 C :    0.034219
   4 C :   -0.185865
   5 H :    0.011474
   6 C :    0.104897
   7 H :    0.003716
   8 H :    0.008104
   9 C :   -0.027117
  10 H :    0.013868
  11 H :    0.019750
  12 C :   -0.074540
  13 H :    0.034099
  14 H :    0.043075
  15 H :    0.035084
  16 S :    0.125795
  17 C :   -0.095440
  18 C :   -0.072550
  19 C :   -0.022640
  20 C :   -0.195894
  21 H :    0.044720
  22 C :    0.043490
  23 H :    0.040772
  24 H :    0.055669
  25 C :   -0.093955
  26 H :    0.032693
  27 H :    0.023837
  28 C :   -0.017987
  29 H :    0.023362
  30 H :    0.032524
  31 H :    0.034519
  32 H :    0.040963
  33 H :    0.057431
Sum of atomic charges:   -0.0000000

LOEWDIN ATOMIC CHARGES
----------------------
   0 S :    0.419742
   1 C :   -0.212805
   2 C :   -0.058604
   3 C :   -0.060722
   4 C :   -0.208933
   5 H :    0.028628
   6 C :   -0.029919
   7 H :    0.027199
   8 H :    0.032132
   9 C :   -0.039476
  10 H :    0.025209
  11 H :    0.022201
  12 C :   -0.069670
  13 H :    0.032920
  14 H :    0.027230
  15 H :    0.024730
  16 S :    0.421387
  17 C :   -0.192810
  18 C :   -0.083010
  19 C :   -0.052839
  20 C :   -0.210876
  21 H :    0.043527
  22 C :   -0.031383
  23 H :    0.040044
  24 H :    0.038839
  25 C :   -0.040924
  26 H :    0.021831
  27 H :    0.018117
  28 C :   -0.060541
  29 H :    0.023394
  30 H :    0.022594
  31 H :    0.030028
  32 H :    0.024177
  33 H :    0.028583

  Mayer bond orders larger than 0.100000
B(  0-S ,  1-C ) :   1.1587 B(  0-S ,  4-C ) :   1.1463 B(  1-C ,  2-C ) :   1.5917
B(  1-C , 32-H ) :   0.9593 B(  2-C ,  3-C ) :   1.2654 B(  2-C ,  6-C ) :   1.0125
B(  3-C ,  4-C ) :   1.5723 B(  3-C ,  5-H ) :   0.9868 B(  4-C , 20-C ) :   1.0444
B(  6-C ,  7-H ) :   0.9339 B(  6-C ,  8-H ) :   0.9331 B(  6-C ,  9-C ) :   1.0810
B(  9-C , 10-H ) :   0.9459 B(  9-C , 11-H ) :   0.9528 B(  9-C , 12-C ) :   1.0848
B( 12-C , 13-H ) :   0.9711 B( 12-C , 14-H ) :   0.9739 B( 12-C , 15-H ) :   0.9749
B( 16-S , 17-C ) :   1.1609 B( 16-S , 20-C ) :   1.1587 B( 17-C , 18-C ) :   1.6090
B( 17-C , 33-H ) :   0.9617 B( 18-C , 19-C ) :   1.2473 B( 18-C , 21-H ) :   0.9760
B( 19-C , 20-C ) :   1.5962 B( 19-C , 22-C ) :   1.0270 B( 22-C , 23-H ) :   0.9374
B( 22-C , 24-H ) :   0.9290 B( 22-C , 25-C ) :   1.0769 B( 25-C , 26-H ) :   0.9504
B( 25-C , 27-H ) :   0.9560 B( 25-C , 28-C ) :   1.0772 B( 28-C , 29-H ) :   0.9747
B( 28-C , 30-H ) :   0.9744 B( 28-C , 31-H ) :   0.9740

Dispersion correction           -0.013758257
FINAL SINGLE POINT ENERGY     -1339.878715316208

DIPOLE MOMENT
-------------
                                X             Y             Z
Electronic contribution:    -26.14619       1.33817     -10.01752
Nuclear contribution   :     26.56948      -1.62043      10.26606
                        -----------------------------------------
Total Dipole Moment    :      0.42329      -0.28226       0.24854
                        -----------------------------------------
Magnitude (a.u.)       :      0.56623
Magnitude (Debye)      :      1.43924

Rotational constants in cm-1:     0.017904     0.008157     0.006189
Rotational constants in MHz :   536.736166   244.539822   185.537612

                             ****ORCA TERMINATED NORMALLY****
TOTAL RUN TIME: 0 days 0 hours 0 minutes 20 seconds 777 msec
