                         Program Version 4.2.1 -  RELEASE  -
|  1> ! wB97X-D3 SP def2-SVP
|  2> %pal
|  3> nprocs 24
|  4> end
|  5>
|  6> * xyz 0 1
|  7> S 	 -119.727 	 64.0325 	 -53.2897
|  8> C 	 -118.661 	 64.5066 	 -51.9846
|  9> C 	 -119.315 	 65.3908 	 -51.1233
| 10> C 	 -120.578 	 65.7159 	 -51.548
| 11> C 	 -121.002 	 65.075 	 -52.6887
| 12> H 	 -121.333 	 66.303 	 -51.0379
| 13> C 	 -118.677 	 66.0088 	 -49.936
| 14> H 	 -118.069 	 65.2324 	 -49.4293
| 15> H 	 -119.491 	 66.2267 	 -49.1761
| 16> C 	 -117.706 	 67.2205 	 -50.2638
| 17> H 	 -117.324 	 67.5753 	 -49.3788
| 18> H 	 -116.851 	 66.9446 	 -50.8948
| 19> C 	 -118.275 	 68.4254 	 -51.0075
| 20> H 	 -118.805 	 68.1969 	 -51.964
| 21> H 	 -119.043 	 68.8255 	 -50.3739
| 22> H 	 -117.524 	 69.1514 	 -51.2274
| 23> S 	 -122.205 	 65.7934 	 -55.0431
| 24> C 	 -123.839 	 66.2728 	 -55.1122
| 25> C 	 -124.564 	 65.7509 	 -54.0463
| 26> C 	 -123.633 	 65.2568 	 -53.028
| 27> C 	 -122.299 	 65.2198 	 -53.3933
| 28> H 	 -125.568 	 65.9228 	 -54.0812
| 29> C 	 -124.113 	 64.9649 	 -51.6235
| 30> H 	 -124.59 	 65.9079 	 -51.2082
| 31> H 	 -123.227 	 64.8092 	 -50.9866
| 32> C 	 -125.023 	 63.7192 	 -51.518
| 33> H 	 -124.515 	 62.8833 	 -52.058
| 34> H 	 -125.966 	 63.7444 	 -52.0591
| 35> C 	 -125.188 	 63.1516 	 -50.0358
| 36> H 	 -124.335 	 62.7049 	 -49.4806
| 37> H 	 -126.104 	 62.5049 	 -49.8213
| 38> H 	 -125.598 	 63.9796 	 -49.4136
| 39> H 	 -117.589 	 64.2471 	 -51.8732
| 40> H 	 -124.357 	 66.7433 	 -55.9212
| 41> *
| 42>
| 43>                          ****END OF INPUT****

CARTESIAN COORDINATES (ANGSTROEM)
---------------------------------
  S    -119.727000   64.032500  -53.289700
  C    -118.661000   64.506600  -51.984600
  C    -119.315000   65.390800  -51.123300
  C    -120.578000   65.715900  -51.548000
  C    -121.002000   65.075000  -52.688700
  H    -121.333000   66.303000  -51.037900
  C    -118.677000   66.008800  -49.936000
  H    -118.069000   65.232400  -49.429300
  H    -119.491000   66.226700  -49.176100
  C    -117.706000   67.220500  -50.263800
  H    -117.324000   67.575300  -49.378800
  H    -116.851000   66.944600  -50.894800
  C    -118.275000   68.425400  -51.007500
  H    -118.805000   68.196900  -51.964000
  H    -119.043000   68.825500  -50.373900
  H    -117.524000   69.151400  -51.227400
  S    -122.205000   65.793400  -55.043100
  C    -123.839000   66.272800  -55.112200
  C    -124.564000   65.750900  -54.046300
  C    -123.633000   65.256800  -53.028000
  C    -122.299000   65.219800  -53.393300
  H    -125.568000   65.922800  -54.081200
  C    -124.113000   64.964900  -51.623500
  H    -124.590000   65.907900  -51.208200
  H    -123.227000   64.809200  -50.986600
  C    -125.023000   63.719200  -51.518000
  H    -124.515000   62.883300  -52.058000
  H    -125.966000   63.744400  -52.059100
  C    -125.188000   63.151600  -50.035800
  H    -124.335000   62.704900  -49.480600
  H    -126.104000   62.504900  -49.821300
  H    -125.598000   63.979600  -49.413600
  H    -117.589000   64.247100  -51.873200
  H    -124.357000   66.743300  -55.921200

 Total Charge           Charge          ....    0
 Multiplicity           Mult            ....    1
 Number of Electrons    NEL             ....  134
 Basis Dimension        Dim             ....  322

ORBITAL ENERGIES
----------------

  NO   OCC          E(Eh)            E(eV)
   0   2.0000     -88.969745     -2420.9898
   1   2.0000     -88.961350     -2420.7614
   2   2.0000     -10.332152      -281.1521
   3   2.0000     -10.328837      -281.0619
   4   2.0000     -10.316490      -280.7260
   5   2.0000     -10.315890      -280.7097
   6   2.0000     -10.310744      -280.5696
   7   2.0000     -10.299587      -280.2660
   8   2.0000     -10.297492      -280.2090
   9   2.0000     -10.295565      -280.1566
  10   2.0000     -10.294975      -280.1405
  11   2.0000     -10.292605      -280.0760
  12   2.0000     -10.288918      -279.9757
  13   2.0000     -10.288385      -279.9612
  14   2.0000     -10.283691      -279.8335
  15   2.0000     -10.270534      -279.4754
  16   2.0000      -8.084064      -219.9786
  17   2.0000      -8.077280      -219.7940
  18   2.0000      -6.042486      -164.4244
  19   2.0000      -6.038541      -164.3171
  20   2.0000      -6.035769      -164.2416
  21   2.0000      -6.035039      -164.2217
  22   2.0000      -6.031539      -164.1265
  23   2.0000      -6.028037      -164.0312
  24   2.0000      -1.010208       -27.4892
  25   2.0000      -0.990083       -26.9415
  26   2.0000      -0.908623       -24.7249
  27   2.0000      -0.900909       -24.5150
  28   2.0000      -0.869097       -23.6493
  29   2.0000      -0.853467       -23.2240
  30   2.0000      -0.840578       -22.8733
  31   2.0000      -0.820192       -22.3186
  32   2.0000      -0.780415       -21.2362
  33   2.0000      -0.767560       -20.8864
  34   2.0000      -0.706478       -19.2242
  35   2.0000      -0.703227       -19.1358
  36   2.0000      -0.697461       -18.9789
  37   2.0000      -0.662490       -18.0273
  38   2.0000      -0.640757       -17.4359
  39   2.0000      -0.621258       -16.9053
  40   2.0000      -0.590995       -16.0818
  41   2.0000      -0.577693       -15.7198
  42   2.0000      -0.557006       -15.1569
  43   2.0000      -0.547356       -14.8943
  44   2.0000      -0.546097       -14.8601
  45   2.0000      -0.521889       -14.2013
  46   2.0000      -0.513755       -13.9800
  47   2.0000      -0.510885       -13.9019
  48   2.0000      -0.501013       -13.6333
  49   2.0000      -0.498406       -13.5623
  50   2.0000      -0.484793       -13.1919
  51   2.0000      -0.481680       -13.1072
  52   2.0000      -0.475920       -12.9504
  53   2.0000      -0.465892       -12.6776
  54   2.0000      -0.458612       -12.4795
  55   2.0000      -0.444336       -12.0910
  56   2.0000      -0.443347       -12.0641
  57   2.0000      -0.436157       -11.8684
  58   2.0000      -0.430232       -11.7072
  59   2.0000      -0.427116       -11.6224
  60   2.0000      -0.415151       -11.2968
  61   2.0000      -0.410942       -11.1823
  62   2.0000      -0.405559       -11.0358
  63   2.0000      -0.347062        -9.4440
  64   2.0000      -0.335774        -9.1369
  65   2.0000      -0.325210        -8.8494
  66   2.0000      -0.294968        -8.0265
  67   0.0000       0.033630         0.9151
  68   0.0000       0.061922         1.6850
  69   0.0000       0.111572         3.0360
  70   0.0000       0.122869         3.3434
  71   0.0000       0.133604         3.6356

MULLIKEN ATOMIC CHARGES
-----------------------
   0 S :    0.121520
   1 C :   -0.132598
   2 C :   -0.076196
   3 C :    0.038288
   4 C :   -0.166476
   5 H :    0.010707
   6 C :    0.033824
   7 H :    0.030668
   8 H :    0.036222
   9 C :   -0.028070
  10 H :    0.011327
  11 H :    0.025354
  12 C :   -0.064080
  13 H :    0.047035
  14 H :    0.017044
  15 H :    0.033852
  16 S :    0.103071
  17 C :   -0.090685
  18 C :    0.003244
  19 C :   -0.063019
  20 C :   -0.122573
  21 H :   -0.012191
  22 C :    0.050015
  23 H :    0.045144
  24 H :    0.023183
  25 C :   -0.070579
  26 H :    0.039783
  27 H :    0.034262
  28 C :   -0.105338
  29 H :    0.058083
  30 H :    0.035021
  31 H :    0.020499
  32 H :    0.060547
  33 H :    0.053113
Sum of atomic charges:    0.0000000

LOEWDIN ATOMIC CHARGES
----------------------
   0 S :    0.414659
   1 C :   -0.203653
   2 C :   -0.073989
   3 C :   -0.067204
   4 C :   -0.192755
   5 H :    0.033208
   6 C :   -0.035424
   7 H :    0.035601
   8 H :    0.037106
   9 C :   -0.030251
  10 H :    0.012416
  11 H :    0.025996
  12 C :   -0.066407
  13 H :    0.031504
  14 H :    0.018455
  15 H :    0.024063
  16 S :    0.421044
  17 C :   -0.184179
  18 C :   -0.063896
  19 C :   -0.049938
  20 C :   -0.206899
  21 H :    0.016556
  22 C :   -0.039106
  23 H :    0.036199
  24 H :    0.030929
  25 C :   -0.044580
  26 H :    0.032550
  27 H :    0.025078
  28 C :   -0.093732
  29 H :    0.031181
  30 H :    0.035247
  31 H :    0.024799
  32 H :    0.037122
  33 H :    0.028301

  Mayer bond orders larger than 0.100000
B(  0-S ,  1-C ) :   1.1510 B(  0-S ,  4-C ) :   1.1723 B(  1-C ,  2-C ) :   1.5653
B(  1-C ,  4-C ) :   0.1131 B(  1-C , 32-H ) :   0.9651 B(  2-C ,  3-C ) :   1.2798
B(  2-C ,  6-C ) :   1.0286 B(  3-C ,  4-C ) :   1.5524 B(  3-C ,  5-H ) :   0.9947
B(  4-C , 20-C ) :   0.9984 B(  6-C ,  7-H ) :   0.9357 B(  6-C ,  8-H ) :   0.9448
B(  6-C ,  9-C ) :   1.0618 B(  9-C , 10-H ) :   0.9553 B(  9-C , 11-H ) :   0.9587
B(  9-C , 12-C ) :   1.0816 B( 12-C , 13-H ) :   0.9729 B( 12-C , 14-H ) :   0.9761
B( 12-C , 15-H ) :   0.9735 B( 16-S , 17-C ) :   1.1839 B( 16-S , 20-C ) :   1.1241
B( 17-C , 18-C ) :   1.6146 B( 17-C , 33-H ) :   0.9665 B( 18-C , 19-C ) :   1.1978
B( 18-C , 21-H ) :   1.0104 B( 19-C , 20-C ) :   1.6260 B( 19-C , 22-C ) :   1.0507
B( 22-C , 23-H ) :   0.9347 B( 22-C , 24-H ) :   0.9378 B( 22-C , 25-C ) :   1.0453
B( 25-C , 26-H ) :   0.9577 B( 25-C , 27-H ) :   0.9604 B( 25-C , 28-C ) :   1.0651
B( 28-C , 29-H ) :   0.9784 B( 28-C , 30-H ) :   0.9740 B( 28-C , 31-H ) :   0.9717

Dispersion correction           -0.014156741
FINAL SINGLE POINT ENERGY     -1339.859806546445

DIPOLE MOMENT
-------------
                                X             Y             Z
Electronic contribution:      3.47746      -5.03242     -22.01139
Nuclear contribution   :     -3.68299       5.34984      22.49469
                        -----------------------------------------
Total Dipole Moment    :     -0.20553       0.31742       0.48331
                        -----------------------------------------
Magnitude (a.u.)       :      0.61366
Magnitude (Debye)      :      1.55981

Rotational constants in cm-1:     0.017666     0.008366     0.007098
Rotational constants in MHz :   529.606876   250.795679   212.789033

                             ****ORCA TERMINATED NORMALLY****
TOTAL RUN TIME: 0 days 0 hours 0 minutes 21 seconds 354 msec
