                         Program Version 4.2.1 -  RELEASE  -
|  1> ! wB97X-D3 SP def2-SVP
|  2> %pal
|  3> nprocs 24
|  4> end
|  5>
|  6> * xyz 0 1
|  7> S 	 -72.108 	 5.85411 	 -102.48
|  8> C 	 -72.7708 	 7.41737 	 -101.973
|  9> C 	 -73.6133 	 7.86972 	 -102.968
| 10> C 	 -73.5515 	 7.11606 	 -104.15
| 11> C 	 -72.6524 	 6.1133 	 -104.105
| 12> H 	 -74.0544 	 7.31079 	 -105.092
| 13> C 	 -74.447 	 9.16718 	 -102.984
| 14> H 	 -74.8957 	 9.11751 	 -101.961
| 15> H 	 -75.1459 	 9.02645 	 -103.784
| 16> C 	 -73.5293 	 10.4271 	 -103.284
| 17> H 	 -73.0824 	 10.2992 	 -104.287
| 18> H 	 -74.2019 	 11.2995 	 -103.38
| 19> C 	 -72.4201 	 10.7221 	 -102.235
| 20> H 	 -72.8904 	 10.8235 	 -101.282
| 21> H 	 -71.5902 	 10.0109 	 -102.198
| 22> H 	 -71.9351 	 11.6445 	 -102.497
| 23> S 	 -72.5896 	 3.39127 	 -104.606
| 24> C 	 -72.3327 	 2.81457 	 -106.223
| 25> C 	 -71.834 	 3.82419 	 -107.005
| 26> C 	 -71.9178 	 5.13507 	 -106.432
| 27> C 	 -72.3495 	 5.04003 	 -105.086
| 28> H 	 -71.549 	 3.64653 	 -108.012
| 29> C 	 -71.6944 	 6.30986 	 -107.296
| 30> H 	 -72.2003 	 7.23209 	 -106.846
| 31> H 	 -72.0954 	 6.10364 	 -108.221
| 32> C 	 -70.2593 	 6.85312 	 -107.38
| 33> H 	 -69.8376 	 6.05026 	 -108.079
| 34> H 	 -69.9134 	 6.66247 	 -106.366
| 35> C 	 -70.1343 	 8.19582 	 -108.04
| 36> H 	 -70.8103 	 8.9798 	 -107.591
| 37> H 	 -70.4064 	 8.1486 	 -109.067
| 38> H 	 -69.1306 	 8.48427 	 -108.023
| 39> H 	 -72.7767 	 7.68846 	 -100.896
| 40> H 	 -72.264 	 1.83732 	 -106.478
| 41> *
| 42>
| 43>                          ****END OF INPUT****

CARTESIAN COORDINATES (ANGSTROEM)
---------------------------------
  S    -72.108000    5.854110  -102.480000
  C    -72.770800    7.417370  -101.973000
  C    -73.613300    7.869720  -102.968000
  C    -73.551500    7.116060  -104.150000
  C    -72.652400    6.113300  -104.105000
  H    -74.054400    7.310790  -105.092000
  C    -74.447000    9.167180  -102.984000
  H    -74.895700    9.117510  -101.961000
  H    -75.145900    9.026450  -103.784000
  C    -73.529300   10.427100  -103.284000
  H    -73.082400   10.299200  -104.287000
  H    -74.201900   11.299500  -103.380000
  C    -72.420100   10.722100  -102.235000
  H    -72.890400   10.823500  -101.282000
  H    -71.590200   10.010900  -102.198000
  H    -71.935100   11.644500  -102.497000
  S    -72.589600    3.391270  -104.606000
  C    -72.332700    2.814570  -106.223000
  C    -71.834000    3.824190  -107.005000
  C    -71.917800    5.135070  -106.432000
  C    -72.349500    5.040030  -105.086000
  H    -71.549000    3.646530  -108.012000
  C    -71.694400    6.309860  -107.296000
  H    -72.200300    7.232090  -106.846000
  H    -72.095400    6.103640  -108.221000
  C    -70.259300    6.853120  -107.380000
  H    -69.837600    6.050260  -108.079000
  H    -69.913400    6.662470  -106.366000
  C    -70.134300    8.195820  -108.040000
  H    -70.810300    8.979800  -107.591000
  H    -70.406400    8.148600  -109.067000
  H    -69.130600    8.484270  -108.023000
  H    -72.776700    7.688460  -100.896000
  H    -72.264000    1.837320  -106.478000

 Total Charge           Charge          ....    0
 Multiplicity           Mult            ....    1
 Number of Electrons    NEL             ....  134
 Basis Dimension        Dim             ....  322

ORBITAL ENERGIES
----------------

  NO   OCC          E(Eh)            E(eV)
   0   2.0000     -88.966509     -2420.9018
   1   2.0000     -88.960164     -2420.7291
   2   2.0000     -10.330059      -281.0952
   3   2.0000     -10.325354      -280.9672
   4   2.0000     -10.315329      -280.6944
   5   2.0000     -10.307895      -280.4921
   6   2.0000     -10.302358      -280.3414
   7   2.0000     -10.298406      -280.2339
   8   2.0000     -10.297172      -280.2003
   9   2.0000     -10.296295      -280.1764
  10   2.0000     -10.289608      -279.9945
  11   2.0000     -10.287242      -279.9301
  12   2.0000     -10.286573      -279.9119
  13   2.0000     -10.284454      -279.8542
  14   2.0000     -10.276886      -279.6483
  15   2.0000     -10.274853      -279.5930
  16   2.0000      -8.081660      -219.9131
  17   2.0000      -8.075370      -219.7420
  18   2.0000      -6.040189      -164.3619
  19   2.0000      -6.036073      -164.2499
  20   2.0000      -6.033843      -164.1892
  21   2.0000      -6.032417      -164.1504
  22   2.0000      -6.029932      -164.0828
  23   2.0000      -6.026031      -163.9766
  24   2.0000      -1.010621       -27.5004
  25   2.0000      -0.988382       -26.8953
  26   2.0000      -0.917576       -24.9685
  27   2.0000      -0.903985       -24.5987
  28   2.0000      -0.864718       -23.5302
  29   2.0000      -0.856756       -23.3135
  30   2.0000      -0.845483       -23.0068
  31   2.0000      -0.816445       -22.2166
  32   2.0000      -0.785379       -21.3712
  33   2.0000      -0.775489       -21.1021
  34   2.0000      -0.706160       -19.2156
  35   2.0000      -0.698120       -18.9968
  36   2.0000      -0.691726       -18.8228
  37   2.0000      -0.664264       -18.0755
  38   2.0000      -0.641798       -17.4642
  39   2.0000      -0.618796       -16.8383
  40   2.0000      -0.601292       -16.3620
  41   2.0000      -0.573499       -15.6057
  42   2.0000      -0.560152       -15.2425
  43   2.0000      -0.549725       -14.9588
  44   2.0000      -0.536709       -14.6046
  45   2.0000      -0.528295       -14.3756
  46   2.0000      -0.521368       -14.1872
  47   2.0000      -0.514363       -13.9965
  48   2.0000      -0.510408       -13.8889
  49   2.0000      -0.498714       -13.5707
  50   2.0000      -0.492999       -13.4152
  51   2.0000      -0.484631       -13.1875
  52   2.0000      -0.467811       -12.7298
  53   2.0000      -0.463404       -12.6099
  54   2.0000      -0.460033       -12.5181
  55   2.0000      -0.453828       -12.3493
  56   2.0000      -0.446499       -12.1499
  57   2.0000      -0.436058       -11.8657
  58   2.0000      -0.434078       -11.8119
  59   2.0000      -0.429843       -11.6966
  60   2.0000      -0.423613       -11.5271
  61   2.0000      -0.407658       -11.0929
  62   2.0000      -0.401458       -10.9242
  63   2.0000      -0.346831        -9.4378
  64   2.0000      -0.331135        -9.0106
  65   2.0000      -0.326003        -8.8710
  66   2.0000      -0.292900        -7.9702
  67   0.0000       0.031197         0.8489
  68   0.0000       0.065011         1.7690
  69   0.0000       0.105297         2.8653
  70   0.0000       0.117780         3.2050
  71   0.0000       0.132708         3.6112

MULLIKEN ATOMIC CHARGES
-----------------------
   0 S :    0.079037
   1 C :   -0.139412
   2 C :   -0.105420
   3 C :    0.031421
   4 C :   -0.144222
   5 H :    0.015962
   6 C :    0.067874
   7 H :    0.040754
   8 H :    0.022520
   9 C :   -0.080368
  10 H :    0.028415
  11 H :    0.037718
  12 C :   -0.034597
  13 H :    0.024085
  14 H :    0.047560
  15 H :    0.026778
  16 S :    0.112267
  17 C :   -0.042782
  18 C :   -0.029617
  19 C :   -0.037432
  20 C :   -0.152696
  21 H :    0.006494
  22 C :    0.050658
  23 H :    0.014332
  24 H :    0.008291
  25 C :   -0.098579
  26 H :    0.023851
  27 H :    0.041232
  28 C :    0.012179
  29 H :    0.035949
  30 H :    0.018812
  31 H :    0.030338
  32 H :    0.067908
  33 H :    0.020687
Sum of atomic charges:    0.0000000

LOEWDIN ATOMIC CHARGES
----------------------
   0 S :    0.393618
   1 C :   -0.203124
   2 C :   -0.063358
   3 C :   -0.072591
   4 C :   -0.186697
   5 H :    0.033654
   6 C :   -0.027602
   7 H :    0.035414
   8 H :    0.026481
   9 C :   -0.035687
  10 H :    0.025299
  11 H :    0.025347
  12 C :   -0.063728
  13 H :    0.020499
  14 H :    0.028601
  15 H :    0.026066
  16 S :    0.421161
  17 C :   -0.176102
  18 C :   -0.060049
  19 C :   -0.057794
  20 C :   -0.203583
  21 H :    0.024042
  22 C :   -0.035905
  23 H :    0.032811
  24 H :    0.015150
  25 C :   -0.041621
  26 H :    0.028507
  27 H :    0.027289
  28 C :   -0.060110
  29 H :    0.031242
  30 H :    0.025191
  31 H :    0.023888
  32 H :    0.035145
  33 H :    0.008547

  Mayer bond orders larger than 0.100000
B(  0-S ,  1-C ) :   1.1263 B(  0-S ,  4-C ) :   1.1606 B(  1-C ,  2-C ) :   1.6090
B(  1-C ,  4-C ) :   0.1019 B(  1-C , 32-H ) :   0.9666 B(  2-C ,  3-C ) :   1.2426
B(  2-C ,  6-C ) :   1.0044 B(  3-C ,  4-C ) :   1.5967 B(  3-C ,  5-H ) :   0.9914
B(  4-C , 20-C ) :   1.0055 B(  6-C ,  7-H ) :   0.9435 B(  6-C ,  8-H ) :   0.9432
B(  6-C ,  9-C ) :   1.0613 B(  9-C , 10-H ) :   0.9549 B(  9-C , 11-H ) :   0.9597
B(  9-C , 12-C ) :   1.0782 B( 12-C , 13-H ) :   0.9771 B( 12-C , 14-H ) :   0.9708
B( 12-C , 15-H ) :   0.9711 B( 16-S , 17-C ) :   1.1524 B( 16-S , 20-C ) :   1.1625
B( 17-C , 18-C ) :   1.6057 B( 17-C , 33-H ) :   0.9774 B( 18-C , 19-C ) :   1.2526
B( 18-C , 21-H ) :   0.9886 B( 19-C , 20-C ) :   1.5683 B( 19-C , 22-C ) :   1.0639
B( 22-C , 23-H ) :   0.9290 B( 22-C , 24-H ) :   0.9332 B( 22-C , 25-C ) :   1.0436
B( 25-C , 26-H ) :   0.9519 B( 25-C , 27-H ) :   0.9614 B( 25-C , 28-C ) :   1.0854
B( 28-C , 29-H ) :   0.9706 B( 28-C , 30-H ) :   0.9659 B( 28-C , 31-H ) :   0.9709

Dispersion correction           -0.014237614
FINAL SINGLE POINT ENERGY     -1339.859665810719

DIPOLE MOMENT
-------------
                                X             Y             Z
Electronic contribution:     -3.64321     -26.69358      10.08899
Nuclear contribution   :      3.54843      27.17084     -10.57402
                        -----------------------------------------
Total Dipole Moment    :     -0.09478       0.47726      -0.48503
                        -----------------------------------------
Magnitude (a.u.)       :      0.68703
Magnitude (Debye)      :      1.74630

Rotational constants in cm-1:     0.018081     0.009298     0.006833
Rotational constants in MHz :   542.066802   278.757949   204.853539

                             ****ORCA TERMINATED NORMALLY****
TOTAL RUN TIME: 0 days 0 hours 0 minutes 21 seconds 889 msec
