                         Program Version 4.2.1 -  RELEASE  -
|  1> ! wB97X-D3 SP def2-SVP
|  2> %pal
|  3> nprocs 24
|  4> end
|  5>
|  6> * xyz 0 1
|  7> S 	 -123.323 	 66.3543 	 -38.4213
|  8> C 	 -122.695 	 67.9964 	 -38.6124
|  9> C 	 -123.675 	 68.9175 	 -38.9896
| 10> C 	 -124.913 	 68.2576 	 -39.351
| 11> C 	 -124.9 	 66.862 	 -39.1678
| 12> H 	 -125.795 	 68.7579 	 -39.806
| 13> C 	 -123.336 	 70.357 	 -39.0639
| 14> H 	 -123.532 	 70.548 	 -40.0813
| 15> H 	 -122.244 	 70.5406 	 -39.1041
| 16> C 	 -123.965 	 71.3997 	 -38.0715
| 17> H 	 -123.865 	 72.4416 	 -38.325
| 18> H 	 -125.066 	 71.3252 	 -38.0798
| 19> C 	 -123.417 	 71.1198 	 -36.6633
| 20> H 	 -123.72 	 70.0803 	 -36.4672
| 21> H 	 -122.257 	 71.1162 	 -36.5557
| 22> H 	 -123.757 	 71.8197 	 -35.9823
| 23> S 	 -125.551 	 64.4251 	 -40.0233
| 24> C 	 -127.237 	 63.9402 	 -40.0023
| 25> C 	 -128.081 	 65.0578 	 -39.8019
| 26> C 	 -127.334 	 66.1881 	 -39.4309
| 27> C 	 -125.99 	 65.9856 	 -39.4153
| 28> H 	 -129.141 	 64.9362 	 -39.8302
| 29> C 	 -128.046 	 67.4889 	 -39.0378
| 30> H 	 -127.683 	 67.9686 	 -38.118
| 31> H 	 -128.973 	 67.1687 	 -38.6111
| 32> C 	 -128.277 	 68.4187 	 -40.2499
| 33> H 	 -129.124 	 68.1787 	 -40.8334
| 34> H 	 -127.529 	 68.313 	 -41.0033
| 35> C 	 -128.414 	 69.8721 	 -39.7698
| 36> H 	 -127.527 	 70.1369 	 -39.2694
| 37> H 	 -129.286 	 70.0455 	 -39.1335
| 38> H 	 -128.526 	 70.6442 	 -40.4958
| 39> H 	 -121.762 	 68.303 	 -38.3125
| 40> H 	 -127.449 	 62.8634 	 -40.22
| 41> *
| 42>
| 43>                          ****END OF INPUT****

CARTESIAN COORDINATES (ANGSTROEM)
---------------------------------
  S    -123.323000   66.354300  -38.421300
  C    -122.695000   67.996400  -38.612400
  C    -123.675000   68.917500  -38.989600
  C    -124.913000   68.257600  -39.351000
  C    -124.900000   66.862000  -39.167800
  H    -125.795000   68.757900  -39.806000
  C    -123.336000   70.357000  -39.063900
  H    -123.532000   70.548000  -40.081300
  H    -122.244000   70.540600  -39.104100
  C    -123.965000   71.399700  -38.071500
  H    -123.865000   72.441600  -38.325000
  H    -125.066000   71.325200  -38.079800
  C    -123.417000   71.119800  -36.663300
  H    -123.720000   70.080300  -36.467200
  H    -122.257000   71.116200  -36.555700
  H    -123.757000   71.819700  -35.982300
  S    -125.551000   64.425100  -40.023300
  C    -127.237000   63.940200  -40.002300
  C    -128.081000   65.057800  -39.801900
  C    -127.334000   66.188100  -39.430900
  C    -125.990000   65.985600  -39.415300
  H    -129.141000   64.936200  -39.830200
  C    -128.046000   67.488900  -39.037800
  H    -127.683000   67.968600  -38.118000
  H    -128.973000   67.168700  -38.611100
  C    -128.277000   68.418700  -40.249900
  H    -129.124000   68.178700  -40.833400
  H    -127.529000   68.313000  -41.003300
  C    -128.414000   69.872100  -39.769800
  H    -127.527000   70.136900  -39.269400
  H    -129.286000   70.045500  -39.133500
  H    -128.526000   70.644200  -40.495800
  H    -121.762000   68.303000  -38.312500
  H    -127.449000   62.863400  -40.220000

 Total Charge           Charge          ....    0
 Multiplicity           Mult            ....    1
 Number of Electrons    NEL             ....  134
 Basis Dimension        Dim             ....  322

ORBITAL ENERGIES
----------------

  NO   OCC          E(Eh)            E(eV)
   0   2.0000     -88.967166     -2420.9197
   1   2.0000     -88.963938     -2420.8318
   2   2.0000     -10.333670      -281.1935
   3   2.0000     -10.324789      -280.9518
   4   2.0000     -10.318992      -280.7940
   5   2.0000     -10.309158      -280.5265
   6   2.0000     -10.304003      -280.3862
   7   2.0000     -10.301007      -280.3046
   8   2.0000     -10.300925      -280.3024
   9   2.0000     -10.298310      -280.2313
  10   2.0000     -10.293217      -280.0927
  11   2.0000     -10.291781      -280.0536
  12   2.0000     -10.289832      -280.0006
  13   2.0000     -10.286180      -279.9012
  14   2.0000     -10.277594      -279.6676
  15   2.0000     -10.274485      -279.5830
  16   2.0000      -8.080346      -219.8774
  17   2.0000      -8.079375      -219.8510
  18   2.0000      -6.039022      -164.3302
  19   2.0000      -6.037681      -164.2936
  20   2.0000      -6.035187      -164.2258
  21   2.0000      -6.033831      -164.1889
  22   2.0000      -6.030914      -164.1095
  23   2.0000      -6.030260      -164.0917
  24   2.0000      -1.008725       -27.4488
  25   2.0000      -0.976654       -26.5761
  26   2.0000      -0.912427       -24.8284
  27   2.0000      -0.908701       -24.7270
  28   2.0000      -0.870155       -23.6781
  29   2.0000      -0.856803       -23.3148
  30   2.0000      -0.844001       -22.9664
  31   2.0000      -0.811887       -22.0926
  32   2.0000      -0.784159       -21.3381
  33   2.0000      -0.770362       -20.9626
  34   2.0000      -0.718701       -19.5569
  35   2.0000      -0.707266       -19.2457
  36   2.0000      -0.697342       -18.9756
  37   2.0000      -0.672081       -18.2882
  38   2.0000      -0.637623       -17.3506
  39   2.0000      -0.617382       -16.7998
  40   2.0000      -0.600374       -16.3370
  41   2.0000      -0.569773       -15.5043
  42   2.0000      -0.564766       -15.3681
  43   2.0000      -0.557074       -15.1587
  44   2.0000      -0.533811       -14.5257
  45   2.0000      -0.527092       -14.3429
  46   2.0000      -0.522498       -14.2179
  47   2.0000      -0.515571       -14.0294
  48   2.0000      -0.499918       -13.6035
  49   2.0000      -0.495443       -13.4817
  50   2.0000      -0.485195       -13.2028
  51   2.0000      -0.479570       -13.0498
  52   2.0000      -0.469756       -12.7827
  53   2.0000      -0.465580       -12.6691
  54   2.0000      -0.458564       -12.4782
  55   2.0000      -0.450484       -12.2583
  56   2.0000      -0.447629       -12.1806
  57   2.0000      -0.444417       -12.0932
  58   2.0000      -0.432450       -11.7676
  59   2.0000      -0.427882       -11.6433
  60   2.0000      -0.418966       -11.4006
  61   2.0000      -0.413270       -11.2456
  62   2.0000      -0.412380       -11.2214
  63   2.0000      -0.352500        -9.5920
  64   2.0000      -0.335632        -9.1330
  65   2.0000      -0.326753        -8.8914
  66   2.0000      -0.282143        -7.6775
  67   0.0000       0.017963         0.4888
  68   0.0000       0.076633         2.0853
  69   0.0000       0.100448         2.7333
  70   0.0000       0.113296         3.0829
  71   0.0000       0.129478         3.5233

MULLIKEN ATOMIC CHARGES
-----------------------
   0 S :    0.100487
   1 C :   -0.074327
   2 C :   -0.089510
   3 C :    0.012649
   4 C :   -0.120239
   5 H :    0.002410
   6 C :    0.054247
   7 H :    0.016623
   8 H :    0.019697
   9 C :   -0.051139
  10 H :    0.023175
  11 H :    0.028981
  12 C :   -0.060493
  13 H :    0.046982
  14 H :    0.033112
  15 H :    0.025065
  16 S :    0.100715
  17 C :   -0.124884
  18 C :   -0.015818
  19 C :   -0.057353
  20 C :   -0.127738
  21 H :    0.015641
  22 C :    0.056908
  23 H :    0.039667
  24 H :    0.005075
  25 C :   -0.030963
  26 H :    0.013231
  27 H :    0.032466
  28 C :   -0.029019
  29 H :    0.013287
  30 H :    0.029931
  31 H :    0.018869
  32 H :    0.013503
  33 H :    0.078761
Sum of atomic charges:   -0.0000000

LOEWDIN ATOMIC CHARGES
----------------------
   0 S :    0.366868
   1 C :   -0.175777
   2 C :   -0.058760
   3 C :   -0.063396
   4 C :   -0.171419
   5 H :    0.038416
   6 C :   -0.038399
   7 H :    0.028354
   8 H :    0.035888
   9 C :   -0.038659
  10 H :    0.021217
  11 H :    0.024964
  12 C :   -0.065731
  13 H :    0.031161
  14 H :    0.032053
  15 H :    0.012715
  16 S :    0.413215
  17 C :   -0.184354
  18 C :   -0.064062
  19 C :   -0.057483
  20 C :   -0.203930
  21 H :    0.030476
  22 C :   -0.030871
  23 H :    0.037168
  24 H :    0.028167
  25 C :   -0.036455
  26 H :    0.022322
  27 H :    0.021106
  28 C :   -0.062025
  29 H :    0.013938
  30 H :    0.028551
  31 H :    0.021796
  32 H :    0.008402
  33 H :    0.034545

  Mayer bond orders larger than 0.100000
B(  0-S ,  1-C ) :   1.1206 B(  0-S ,  4-C ) :   1.1210 B(  1-C ,  2-C ) :   1.6078
B(  1-C , 32-H ) :   0.9737 B(  2-C ,  3-C ) :   1.2239 B(  2-C ,  6-C ) :   1.0252
B(  3-C ,  4-C ) :   1.5694 B(  3-C ,  5-H ) :   0.9817 B(  4-C , 20-C ) :   1.0996
B(  6-C ,  7-H ) :   0.9307 B(  6-C ,  8-H ) :   0.9445 B(  6-C ,  9-C ) :   1.0561
B(  9-C , 10-H ) :   0.9569 B(  9-C , 11-H ) :   0.9566 B(  9-C , 12-C ) :   1.0657
B( 12-C , 13-H ) :   0.9773 B( 12-C , 14-H ) :   0.9752 B( 12-C , 15-H ) :   0.9749
B( 16-S , 17-C ) :   1.1726 B( 16-S , 20-C ) :   1.1414 B( 17-C , 18-C ) :   1.5565
B( 17-C , 20-C ) :   0.1069 B( 17-C , 33-H ) :   0.9671 B( 18-C , 19-C ) :   1.2626
B( 18-C , 21-H ) :   0.9992 B( 19-C , 20-C ) :   1.5871 B( 19-C , 22-C ) :   1.0307
B( 22-C , 23-H ) :   0.9537 B( 22-C , 24-H ) :   0.9214 B( 22-C , 25-C ) :   1.0293
B( 25-C , 26-H ) :   0.9429 B( 25-C , 27-H ) :   0.9620 B( 25-C , 28-C ) :   1.0776
B( 28-C , 29-H ) :   0.9775 B( 28-C , 30-H ) :   0.9711 B( 28-C , 31-H ) :   0.9702

Dispersion correction           -0.015234797
FINAL SINGLE POINT ENERGY     -1339.857426166100

DIPOLE MOMENT
-------------
                                X             Y             Z
Electronic contribution:      8.64883     -29.37701      -3.89906
Nuclear contribution   :     -9.16348      29.95373       3.82632
                        -----------------------------------------
Total Dipole Moment    :     -0.51465       0.57672      -0.07275
                        -----------------------------------------
Magnitude (a.u.)       :      0.77637
Magnitude (Debye)      :      1.97338

Rotational constants in cm-1:     0.019168     0.009792     0.006911
Rotational constants in MHz :   574.653888   293.565160   207.192198

                             ****ORCA TERMINATED NORMALLY****
TOTAL RUN TIME: 0 days 0 hours 0 minutes 21 seconds 550 msec
