                         Program Version 4.2.1 -  RELEASE  -
|  1> ! wB97X-D3 SP def2-SVP
|  2> %pal
|  3> nprocs 24
|  4> end
|  5>
|  6> * xyz 0 1
|  7> S 	 3.01307 	 -17.5188 	 -105.973
|  8> C 	 2.52458 	 -18.633 	 -107.285
|  9> C 	 1.38244 	 -19.3856 	 -106.914
| 10> C 	 0.98946 	 -18.9163 	 -105.603
| 11> C 	 1.77806 	 -18.0177 	 -104.868
| 12> H 	 0.0942429 	 -19.3639 	 -105.174
| 13> C 	 0.474953 	 -20.2485 	 -107.804
| 14> H 	 0.35075 	 -19.6941 	 -108.686
| 15> H 	 -0.462685 	 -20.4511 	 -107.361
| 16> C 	 1.01168 	 -21.5948 	 -108.244
| 17> H 	 1.98137 	 -21.5089 	 -108.779
| 18> H 	 1.09286 	 -22.1617 	 -107.271
| 19> C 	 0.0667685 	 -22.3263 	 -109.166
| 20> H 	 0.604532 	 -22.996 	 -109.834
| 21> H 	 -0.719929 	 -22.8497 	 -108.546
| 22> H 	 -0.42124 	 -21.6923 	 -109.871
| 23> S 	 1.14633 	 -18.6041 	 -102.264
| 24> C 	 0.976764 	 -17.3112 	 -101.06
| 25> C 	 1.11473 	 -16.0742 	 -101.658
| 26> C 	 1.28585 	 -16.1768 	 -103.078
| 27> C 	 1.49564 	 -17.4271 	 -103.585
| 28> H 	 1.01236 	 -15.1506 	 -101.112
| 29> C 	 1.38428 	 -14.8791 	 -103.945
| 30> H 	 0.732403 	 -14.1465 	 -103.554
| 31> H 	 0.998506 	 -14.9848 	 -104.986
| 32> C 	 2.76365 	 -14.1969 	 -103.878
| 33> H 	 3.467 	 -14.8786 	 -104.293
| 34> H 	 3.13746 	 -14.2088 	 -102.857
| 35> C 	 2.91312 	 -12.7958 	 -104.491
| 36> H 	 3.87657 	 -12.2371 	 -104.287
| 37> H 	 2.13958 	 -12.1847 	 -104.054
| 38> H 	 2.68105 	 -12.8413 	 -105.581
| 39> H 	 3.10321 	 -18.8573 	 -108.134
| 40> H 	 0.957624 	 -17.4384 	 -99.9669
| 41> *
| 42>
| 43>                          ****END OF INPUT****

CARTESIAN COORDINATES (ANGSTROEM)
---------------------------------
  S      3.013070  -17.518800  -105.973000
  C      2.524580  -18.633000  -107.285000
  C      1.382440  -19.385600  -106.914000
  C      0.989460  -18.916300  -105.603000
  C      1.778060  -18.017700  -104.868000
  H      0.094243  -19.363900  -105.174000
  C      0.474953  -20.248500  -107.804000
  H      0.350750  -19.694100  -108.686000
  H     -0.462685  -20.451100  -107.361000
  C      1.011680  -21.594800  -108.244000
  H      1.981370  -21.508900  -108.779000
  H      1.092860  -22.161700  -107.271000
  C      0.066768  -22.326300  -109.166000
  H      0.604532  -22.996000  -109.834000
  H     -0.719929  -22.849700  -108.546000
  H     -0.421240  -21.692300  -109.871000
  S      1.146330  -18.604100  -102.264000
  C      0.976764  -17.311200  -101.060000
  C      1.114730  -16.074200  -101.658000
  C      1.285850  -16.176800  -103.078000
  C      1.495640  -17.427100  -103.585000
  H      1.012360  -15.150600  -101.112000
  C      1.384280  -14.879100  -103.945000
  H      0.732403  -14.146500  -103.554000
  H      0.998506  -14.984800  -104.986000
  C      2.763650  -14.196900  -103.878000
  H      3.467000  -14.878600  -104.293000
  H      3.137460  -14.208800  -102.857000
  C      2.913120  -12.795800  -104.491000
  H      3.876570  -12.237100  -104.287000
  H      2.139580  -12.184700  -104.054000
  H      2.681050  -12.841300  -105.581000
  H      3.103210  -18.857300  -108.134000
  H      0.957624  -17.438400  -99.966900

 Total Charge           Charge          ....    0
 Multiplicity           Mult            ....    1
 Number of Electrons    NEL             ....  134
 Basis Dimension        Dim             ....  322

ORBITAL ENERGIES
----------------

  NO   OCC          E(Eh)            E(eV)
   0   2.0000     -88.970746     -2421.0171
   1   2.0000     -88.963922     -2420.8314
   2   2.0000     -10.334223      -281.2085
   3   2.0000     -10.333310      -281.1837
   4   2.0000     -10.324843      -280.9533
   5   2.0000     -10.320959      -280.8476
   6   2.0000     -10.310232      -280.5557
   7   2.0000     -10.308812      -280.5170
   8   2.0000     -10.297822      -280.2180
   9   2.0000     -10.296721      -280.1880
  10   2.0000     -10.291597      -280.0486
  11   2.0000     -10.290184      -280.0101
  12   2.0000     -10.289789      -279.9994
  13   2.0000     -10.282736      -279.8075
  14   2.0000     -10.280140      -279.7368
  15   2.0000     -10.278696      -279.6975
  16   2.0000      -8.084371      -219.9869
  17   2.0000      -8.077703      -219.8055
  18   2.0000      -6.042993      -164.4382
  19   2.0000      -6.038834      -164.3250
  20   2.0000      -6.036480      -164.2610
  21   2.0000      -6.035250      -164.2275
  22   2.0000      -6.032319      -164.1477
  23   2.0000      -6.028228      -164.0364
  24   2.0000      -1.003151       -27.2971
  25   2.0000      -0.979925       -26.6651
  26   2.0000      -0.920148       -25.0385
  27   2.0000      -0.902068       -24.5465
  28   2.0000      -0.873867       -23.7791
  29   2.0000      -0.847696       -23.0670
  30   2.0000      -0.842193       -22.9172
  31   2.0000      -0.810413       -22.0524
  32   2.0000      -0.786901       -21.4127
  33   2.0000      -0.773522       -21.0486
  34   2.0000      -0.708089       -19.2681
  35   2.0000      -0.698046       -18.9948
  36   2.0000      -0.695424       -18.9235
  37   2.0000      -0.668354       -18.1868
  38   2.0000      -0.637862       -17.3571
  39   2.0000      -0.618207       -16.8223
  40   2.0000      -0.595586       -16.2067
  41   2.0000      -0.584901       -15.9160
  42   2.0000      -0.570365       -15.5204
  43   2.0000      -0.554616       -15.0919
  44   2.0000      -0.524421       -14.2702
  45   2.0000      -0.522099       -14.2070
  46   2.0000      -0.516423       -14.0526
  47   2.0000      -0.515407       -14.0249
  48   2.0000      -0.512052       -13.9336
  49   2.0000      -0.503468       -13.7001
  50   2.0000      -0.497697       -13.5430
  51   2.0000      -0.469269       -12.7695
  52   2.0000      -0.467862       -12.7312
  53   2.0000      -0.464708       -12.6453
  54   2.0000      -0.461388       -12.5550
  55   2.0000      -0.449479       -12.2309
  56   2.0000      -0.440594       -11.9892
  57   2.0000      -0.433487       -11.7958
  58   2.0000      -0.429737       -11.6937
  59   2.0000      -0.424399       -11.5485
  60   2.0000      -0.420595       -11.4450
  61   2.0000      -0.412462       -11.2237
  62   2.0000      -0.406693       -11.0667
  63   2.0000      -0.349521        -9.5109
  64   2.0000      -0.331693        -9.0258
  65   2.0000      -0.329152        -8.9567
  66   2.0000      -0.293995        -8.0000
  67   0.0000       0.025429         0.6920
  68   0.0000       0.060574         1.6483
  69   0.0000       0.097185         2.6445
  70   0.0000       0.119218         3.2441
  71   0.0000       0.129898         3.5347

MULLIKEN ATOMIC CHARGES
-----------------------
   0 S :    0.110281
   1 C :   -0.110032
   2 C :   -0.076289
   3 C :    0.002434
   4 C :   -0.124355
   5 H :    0.005788
   6 C :    0.101878
   7 H :    0.020810
   8 H :    0.012211
   9 C :   -0.126180
  10 H :    0.034667
  11 H :    0.043927
  12 C :   -0.028816
  13 H :    0.031673
  14 H :    0.043680
  15 H :    0.014335
  16 S :    0.084628
  17 C :   -0.089360
  18 C :   -0.024336
  19 C :   -0.046884
  20 C :   -0.139919
  21 H :    0.023959
  22 C :    0.063145
  23 H :   -0.003077
  24 H :    0.038973
  25 C :   -0.051905
  26 H :    0.005042
  27 H :    0.013176
  28 C :   -0.054834
  29 H :    0.053213
  30 H :    0.019351
  31 H :    0.040699
  32 H :    0.040161
  33 H :    0.071955
Sum of atomic charges:    0.0000000

LOEWDIN ATOMIC CHARGES
----------------------
   0 S :    0.417642
   1 C :   -0.180186
   2 C :   -0.054808
   3 C :   -0.065128
   4 C :   -0.214190
   5 H :    0.022335
   6 C :   -0.022650
   7 H :    0.027013
   8 H :    0.026685
   9 C :   -0.046714
  10 H :    0.024442
  11 H :    0.032492
  12 C :   -0.068413
  13 H :    0.028855
  14 H :    0.033953
  15 H :    0.018506
  16 S :    0.375636
  17 C :   -0.174307
  18 C :   -0.069357
  19 C :   -0.051661
  20 C :   -0.175451
  21 H :    0.033195
  22 C :   -0.030363
  23 H :    0.019595
  24 H :    0.033644
  25 C :   -0.047721
  26 H :    0.011419
  27 H :    0.023092
  28 C :   -0.071664
  29 H :    0.037522
  30 H :    0.019375
  31 H :    0.030397
  32 H :    0.018371
  33 H :    0.038444

  Mayer bond orders larger than 0.100000
B(  0-S ,  1-C ) :   1.1632 B(  0-S ,  4-C ) :   1.1415 B(  1-C ,  2-C ) :   1.5625
B(  1-C ,  4-C ) :   0.1083 B(  1-C , 32-H ) :   0.9702 B(  2-C ,  3-C ) :   1.2937
B(  2-C ,  6-C ) :   1.0159 B(  3-C ,  4-C ) :   1.5394 B(  3-C ,  5-H ) :   0.9841
B(  4-C , 20-C ) :   1.0474 B(  6-C ,  7-H ) :   0.9371 B(  6-C ,  8-H ) :   0.9465
B(  6-C ,  9-C ) :   1.0634 B(  9-C , 10-H ) :   0.9593 B(  9-C , 11-H ) :   0.9593
B(  9-C , 12-C ) :   1.0830 B( 12-C , 13-H ) :   0.9746 B( 12-C , 14-H ) :   0.9737
B( 12-C , 15-H ) :   0.9709 B( 16-S , 17-C ) :   1.1455 B( 16-S , 20-C ) :   1.1083
B( 17-C , 18-C ) :   1.6267 B( 17-C , 33-H ) :   0.9624 B( 18-C , 19-C ) :   1.2195
B( 18-C , 21-H ) :   0.9883 B( 19-C , 20-C ) :   1.6314 B( 19-C , 22-C ) :   1.0472
B( 22-C , 23-H ) :   0.9284 B( 22-C , 24-H ) :   0.9418 B( 22-C , 25-C ) :   1.0521
B( 25-C , 26-H ) :   0.9484 B( 25-C , 27-H ) :   0.9522 B( 25-C , 28-C ) :   1.0736
B( 28-C , 29-H ) :   0.9736 B( 28-C , 30-H ) :   0.9743 B( 28-C , 31-H ) :   0.9748

Dispersion correction           -0.013660326
FINAL SINGLE POINT ENERGY     -1339.863267706914

DIPOLE MOMENT
-------------
                                X             Y             Z
Electronic contribution:      3.64917      -2.45518      14.81298
Nuclear contribution   :     -3.92184       2.55700     -15.06304
                        -----------------------------------------
Total Dipole Moment    :     -0.27267       0.10182      -0.25006
                        -----------------------------------------
Magnitude (a.u.)       :      0.38373
Magnitude (Debye)      :      0.97535

Rotational constants in cm-1:     0.021919     0.007072     0.005692
Rotational constants in MHz :   657.103225   212.014297   170.629240

                             ****ORCA TERMINATED NORMALLY****
TOTAL RUN TIME: 0 days 0 hours 0 minutes 20 seconds 712 msec
