                         Program Version 4.2.1 -  RELEASE  -
|  1> ! wB97X-D3 SP def2-SVP
|  2> %pal
|  3> nprocs 24
|  4> end
|  5>
|  6> * xyz 0 1
|  7> S 	 -108.008 	 69.1687 	 -6.21293
|  8> C 	 -107.918 	 70.4483 	 -7.35953
|  9> C 	 -107.463 	 69.9864 	 -8.54966
| 10> C 	 -107.324 	 68.542 	 -8.55026
| 11> C 	 -107.841 	 67.9584 	 -7.4448
| 12> H 	 -107.06 	 67.8647 	 -9.37567
| 13> C 	 -107.158 	 70.7708 	 -9.73484
| 14> H 	 -106.859 	 71.701 	 -9.21455
| 15> H 	 -108.066 	 71.0127 	 -10.2881
| 16> C 	 -106.033 	 70.3587 	 -10.7856
| 17> H 	 -105.137 	 69.9949 	 -10.2977
| 18> H 	 -106.609 	 69.6108 	 -11.287
| 19> C 	 -105.648 	 71.3603 	 -11.7969
| 20> H 	 -105.018 	 70.869 	 -12.5481
| 21> H 	 -106.462 	 72.0094 	 -12.1557
| 22> H 	 -104.949 	 72.0666 	 -11.296
| 23> S 	 -106.989 	 65.7496 	 -6.10899
| 24> C 	 -107.358 	 64.1171 	 -6.65825
| 25> C 	 -108.164 	 64.2305 	 -7.80549
| 26> C 	 -108.601 	 65.5636 	 -8.10894
| 27> C 	 -107.954 	 66.4874 	 -7.30875
| 28> H 	 -108.542 	 63.2576 	 -8.218
| 29> C 	 -109.525 	 65.8749 	 -9.26777
| 30> H 	 -108.857 	 66.0569 	 -10.1076
| 31> H 	 -110.089 	 66.7624 	 -8.99675
| 32> C 	 -110.695 	 64.9819 	 -9.69468
| 33> H 	 -110.118 	 64.0845 	 -9.85283
| 34> H 	 -111.097 	 65.1627 	 -10.7154
| 35> C 	 -111.798 	 64.7817 	 -8.66484
| 36> H 	 -111.385 	 64.5472 	 -7.71984
| 37> H 	 -112.374 	 63.8555 	 -8.81971
| 38> H 	 -112.501 	 65.6579 	 -8.52755
| 39> H 	 -108.173 	 71.5413 	 -7.31662
| 40> H 	 -107.008 	 63.1585 	 -6.3522
| 41> *
| 42>
| 43>                          ****END OF INPUT****

CARTESIAN COORDINATES (ANGSTROEM)
---------------------------------
  S    -108.008000   69.168700   -6.212930
  C    -107.918000   70.448300   -7.359530
  C    -107.463000   69.986400   -8.549660
  C    -107.324000   68.542000   -8.550260
  C    -107.841000   67.958400   -7.444800
  H    -107.060000   67.864700   -9.375670
  C    -107.158000   70.770800   -9.734840
  H    -106.859000   71.701000   -9.214550
  H    -108.066000   71.012700  -10.288100
  C    -106.033000   70.358700  -10.785600
  H    -105.137000   69.994900  -10.297700
  H    -106.609000   69.610800  -11.287000
  C    -105.648000   71.360300  -11.796900
  H    -105.018000   70.869000  -12.548100
  H    -106.462000   72.009400  -12.155700
  H    -104.949000   72.066600  -11.296000
  S    -106.989000   65.749600   -6.108990
  C    -107.358000   64.117100   -6.658250
  C    -108.164000   64.230500   -7.805490
  C    -108.601000   65.563600   -8.108940
  C    -107.954000   66.487400   -7.308750
  H    -108.542000   63.257600   -8.218000
  C    -109.525000   65.874900   -9.267770
  H    -108.857000   66.056900  -10.107600
  H    -110.089000   66.762400   -8.996750
  C    -110.695000   64.981900   -9.694680
  H    -110.118000   64.084500   -9.852830
  H    -111.097000   65.162700  -10.715400
  C    -111.798000   64.781700   -8.664840
  H    -111.385000   64.547200   -7.719840
  H    -112.374000   63.855500   -8.819710
  H    -112.501000   65.657900   -8.527550
  H    -108.173000   71.541300   -7.316620
  H    -107.008000   63.158500   -6.352200

 Total Charge           Charge          ....    0
 Multiplicity           Mult            ....    1
 Number of Electrons    NEL             ....  134
 Basis Dimension        Dim             ....  322

ORBITAL ENERGIES
----------------

  NO   OCC          E(Eh)            E(eV)
   0   2.0000     -88.966938     -2420.9135
   1   2.0000     -88.963658     -2420.8242
   2   2.0000     -10.326495      -280.9982
   3   2.0000     -10.324588      -280.9463
   4   2.0000     -10.318765      -280.7879
   5   2.0000     -10.310696      -280.5683
   6   2.0000     -10.306207      -280.4462
   7   2.0000     -10.299304      -280.2583
   8   2.0000     -10.294987      -280.1408
   9   2.0000     -10.289789      -279.9994
  10   2.0000     -10.288798      -279.9724
  11   2.0000     -10.288707      -279.9700
  12   2.0000     -10.287459      -279.9360
  13   2.0000     -10.286786      -279.9177
  14   2.0000     -10.281817      -279.7825
  15   2.0000     -10.277933      -279.6768
  16   2.0000      -8.082001      -219.9224
  17   2.0000      -8.079149      -219.8448
  18   2.0000      -6.040539      -164.3714
  19   2.0000      -6.037874      -164.2989
  20   2.0000      -6.036273      -164.2553
  21   2.0000      -6.033653      -164.1840
  22   2.0000      -6.032893      -164.1634
  23   2.0000      -6.029529      -164.0718
  24   2.0000      -1.013668       -27.5833
  25   2.0000      -0.990783       -26.9606
  26   2.0000      -0.915693       -24.9173
  27   2.0000      -0.910679       -24.7808
  28   2.0000      -0.875949       -23.8358
  29   2.0000      -0.855586       -23.2817
  30   2.0000      -0.847088       -23.0504
  31   2.0000      -0.819277       -22.2937
  32   2.0000      -0.782516       -21.2934
  33   2.0000      -0.773623       -21.0514
  34   2.0000      -0.711679       -19.3658
  35   2.0000      -0.699770       -19.0417
  36   2.0000      -0.690435       -18.7877
  37   2.0000      -0.653244       -17.7757
  38   2.0000      -0.636848       -17.3295
  39   2.0000      -0.615940       -16.7606
  40   2.0000      -0.593128       -16.1398
  41   2.0000      -0.584010       -15.8917
  42   2.0000      -0.562581       -15.3086
  43   2.0000      -0.560161       -15.2428
  44   2.0000      -0.540693       -14.7130
  45   2.0000      -0.529774       -14.4159
  46   2.0000      -0.521521       -14.1913
  47   2.0000      -0.511899       -13.9295
  48   2.0000      -0.506189       -13.7741
  49   2.0000      -0.500254       -13.6126
  50   2.0000      -0.489521       -13.3205
  51   2.0000      -0.480804       -13.0833
  52   2.0000      -0.472683       -12.8624
  53   2.0000      -0.467340       -12.7170
  54   2.0000      -0.462223       -12.5777
  55   2.0000      -0.454480       -12.3670
  56   2.0000      -0.445481       -12.1222
  57   2.0000      -0.439534       -11.9603
  58   2.0000      -0.433903       -11.8071
  59   2.0000      -0.426861       -11.6155
  60   2.0000      -0.420566       -11.4442
  61   2.0000      -0.398485       -10.8433
  62   2.0000      -0.391352       -10.6492
  63   2.0000      -0.345565        -9.4033
  64   2.0000      -0.329233        -8.9589
  65   2.0000      -0.322181        -8.7670
  66   2.0000      -0.298146        -8.1130
  67   0.0000       0.035572         0.9680
  68   0.0000       0.065568         1.7842
  69   0.0000       0.111074         3.0225
  70   0.0000       0.123514         3.3610
  71   0.0000       0.138564         3.7705

MULLIKEN ATOMIC CHARGES
-----------------------
   0 S :    0.119073
   1 C :   -0.122852
   2 C :   -0.079819
   3 C :    0.020925
   4 C :   -0.152962
   5 H :    0.025192
   6 C :    0.012285
   7 H :    0.014336
   8 H :    0.042433
   9 C :   -0.060644
  10 H :    0.037957
  11 H :    0.026955
  12 C :   -0.039697
  13 H :    0.042938
  14 H :    0.036906
  15 H :    0.023865
  16 S :    0.117767
  17 C :   -0.082917
  18 C :   -0.083322
  19 C :   -0.048735
  20 C :   -0.157358
  21 H :    0.041364
  22 C :    0.055039
  23 H :    0.044515
  24 H :    0.028273
  25 C :   -0.058146
  26 H :    0.006338
  27 H :    0.035150
  28 C :   -0.047628
  29 H :    0.020491
  30 H :    0.031009
  31 H :    0.048038
  32 H :    0.057135
  33 H :    0.046099
Sum of atomic charges:   -0.0000000

LOEWDIN ATOMIC CHARGES
----------------------
   0 S :    0.411833
   1 C :   -0.217083
   2 C :   -0.070506
   3 C :   -0.061355
   4 C :   -0.199414
   5 H :    0.034729
   6 C :   -0.043442
   7 H :    0.029357
   8 H :    0.034312
   9 C :   -0.037695
  10 H :    0.028129
  11 H :    0.020481
  12 C :   -0.067394
  13 H :    0.033500
  14 H :    0.028715
  15 H :    0.027385
  16 S :    0.427080
  17 C :   -0.188967
  18 C :   -0.079358
  19 C :   -0.064086
  20 C :   -0.206115
  21 H :    0.037102
  22 C :   -0.035713
  23 H :    0.035409
  24 H :    0.031289
  25 C :   -0.047818
  26 H :    0.017591
  27 H :    0.032190
  28 C :   -0.071981
  29 H :    0.022034
  30 H :    0.032090
  31 H :    0.033731
  32 H :    0.046093
  33 H :    0.027877

  Mayer bond orders larger than 0.100000
B(  0-S ,  1-C ) :   1.1198 B(  0-S ,  4-C ) :   1.1399 B(  1-C ,  2-C ) :   1.6547
B(  1-C , 32-H ) :   0.9586 B(  2-C ,  3-C ) :   1.1939 B(  2-C ,  6-C ) :   1.0217
B(  3-C ,  4-C ) :   1.6049 B(  3-C ,  5-H ) :   0.9913 B(  4-C , 20-C ) :   1.0076
B(  6-C ,  7-H ) :   0.9400 B(  6-C ,  8-H ) :   0.9302 B(  6-C ,  9-C ) :   1.0593
B(  9-C , 10-H ) :   0.9586 B(  9-C , 11-H ) :   0.9477 B(  9-C , 12-C ) :   1.1014
B( 12-C , 13-H ) :   0.9686 B( 12-C , 14-H ) :   0.9706 B( 12-C , 15-H ) :   0.9713
B( 16-S , 17-C ) :   1.1521 B( 16-S , 20-C ) :   1.1697 B( 17-C , 18-C ) :   1.6152
B( 17-C , 20-C ) :   0.1006 B( 17-C , 33-H ) :   0.9708 B( 18-C , 19-C ) :   1.2389
B( 18-C , 21-H ) :   0.9741 B( 19-C , 20-C ) :   1.5989 B( 19-C , 22-C ) :   1.0335
B( 22-C , 23-H ) :   0.9323 B( 22-C , 24-H ) :   0.9353 B( 22-C , 25-C ) :   1.0646
B( 25-C , 26-H ) :   0.9489 B( 25-C , 27-H ) :   0.9527 B( 25-C , 28-C ) :   1.0824
B( 28-C , 29-H ) :   0.9713 B( 28-C , 30-H ) :   0.9709 B( 28-C , 31-H ) :   0.9732

Dispersion correction           -0.013837064
FINAL SINGLE POINT ENERGY     -1339.840932958370

DIPOLE MOMENT
-------------
                                X             Y             Z
Electronic contribution:      6.43244      -3.52149      24.72901
Nuclear contribution   :     -6.48265       3.47313     -25.49728
                        -----------------------------------------
Total Dipole Moment    :     -0.05021      -0.04836      -0.76826
                        -----------------------------------------
Magnitude (a.u.)       :      0.77142
Magnitude (Debye)      :      1.96080

Rotational constants in cm-1:     0.017875     0.007878     0.006802
Rotational constants in MHz :   535.887010   236.167832   203.920093

                             ****ORCA TERMINATED NORMALLY****
TOTAL RUN TIME: 0 days 0 hours 0 minutes 21 seconds 363 msec
