                         Program Version 4.2.1 -  RELEASE  -
|  1> ! wB97X-D3 SP def2-SVP
|  2> %pal
|  3> nprocs 24
|  4> end
|  5>
|  6> * xyz 0 1
|  7> S 	 -34.6888 	 11.0466 	 -2.74421
|  8> C 	 -35.3477 	 9.39742 	 -2.5937
|  9> C 	 -34.8746 	 8.82377 	 -1.4198
| 10> C 	 -34.055 	 9.6887 	 -0.706152
| 11> C 	 -34.0882 	 11.0331 	 -1.06172
| 12> H 	 -33.554 	 9.4869 	 0.228306
| 13> C 	 -35.3259 	 7.43882 	 -0.966875
| 14> H 	 -34.5358 	 7.05254 	 -0.324794
| 15> H 	 -35.4437 	 6.75991 	 -1.7613
| 16> C 	 -36.5858 	 7.48545 	 -0.0690376
| 17> H 	 -36.493 	 8.1745 	 0.76313
| 18> H 	 -37.3416 	 8.03612 	 -0.684982
| 19> C 	 -37.0369 	 6.08417 	 0.476908
| 20> H 	 -36.2837 	 5.67069 	 1.05092
| 21> H 	 -37.8984 	 6.19321 	 1.12716
| 22> H 	 -37.3383 	 5.48253 	 -0.40372
| 23> S 	 -32.7937 	 13.3944 	 -1.39903
| 24> C 	 -32.5766 	 14.5085 	 -0.073815
| 25> C 	 -32.9597 	 13.9301 	 1.11954
| 26> C 	 -33.5843 	 12.6587 	 0.933592
| 27> C 	 -33.6053 	 12.2065 	 -0.380831
| 28> H 	 -32.7545 	 14.279 	 2.09255
| 29> C 	 -34.0891 	 11.8337 	 2.14216
| 30> H 	 -33.4295 	 11.9117 	 3.0264
| 31> H 	 -34.0287 	 10.7606 	 1.92592
| 32> C 	 -35.4973 	 12.1401 	 2.70175
| 33> H 	 -35.4622 	 13.2326 	 2.87295
| 34> H 	 -35.5825 	 11.5619 	 3.64721
| 35> C 	 -36.6505 	 11.9892 	 1.72053
| 36> H 	 -36.8845 	 10.9185 	 1.68133
| 37> H 	 -36.3288 	 12.328 	 0.677403
| 38> H 	 -37.5449 	 12.541 	 1.99513
| 39> H 	 -36.0491 	 8.91557 	 -3.25651
| 40> H 	 -32.2424 	 15.5409 	 -0.175717
| 41> *
| 42>
| 43>                          ****END OF INPUT****

CARTESIAN COORDINATES (ANGSTROEM)
---------------------------------
  S    -34.688800   11.046600   -2.744210
  C    -35.347700    9.397420   -2.593700
  C    -34.874600    8.823770   -1.419800
  C    -34.055000    9.688700   -0.706152
  C    -34.088200   11.033100   -1.061720
  H    -33.554000    9.486900    0.228306
  C    -35.325900    7.438820   -0.966875
  H    -34.535800    7.052540   -0.324794
  H    -35.443700    6.759910   -1.761300
  C    -36.585800    7.485450   -0.069038
  H    -36.493000    8.174500    0.763130
  H    -37.341600    8.036120   -0.684982
  C    -37.036900    6.084170    0.476908
  H    -36.283700    5.670690    1.050920
  H    -37.898400    6.193210    1.127160
  H    -37.338300    5.482530   -0.403720
  S    -32.793700   13.394400   -1.399030
  C    -32.576600   14.508500   -0.073815
  C    -32.959700   13.930100    1.119540
  C    -33.584300   12.658700    0.933592
  C    -33.605300   12.206500   -0.380831
  H    -32.754500   14.279000    2.092550
  C    -34.089100   11.833700    2.142160
  H    -33.429500   11.911700    3.026400
  H    -34.028700   10.760600    1.925920
  C    -35.497300   12.140100    2.701750
  H    -35.462200   13.232600    2.872950
  H    -35.582500   11.561900    3.647210
  C    -36.650500   11.989200    1.720530
  H    -36.884500   10.918500    1.681330
  H    -36.328800   12.328000    0.677403
  H    -37.544900   12.541000    1.995130
  H    -36.049100    8.915570   -3.256510
  H    -32.242400   15.540900   -0.175717

 Total Charge           Charge          ....    0
 Multiplicity           Mult            ....    1
 Number of Electrons    NEL             ....  134
 Basis Dimension        Dim             ....  322

ORBITAL ENERGIES
----------------

  NO   OCC          E(Eh)            E(eV)
   0   2.0000     -88.966826     -2420.9104
   1   2.0000     -88.964741     -2420.8537
   2   2.0000     -10.335223      -281.2357
   3   2.0000     -10.332588      -281.1640
   4   2.0000     -10.322969      -280.9023
   5   2.0000     -10.317353      -280.7494
   6   2.0000     -10.309171      -280.5268
   7   2.0000     -10.301513      -280.3184
   8   2.0000     -10.295434      -280.1530
   9   2.0000     -10.295210      -280.1469
  10   2.0000     -10.293447      -280.0989
  11   2.0000     -10.291361      -280.0422
  12   2.0000     -10.290762      -280.0259
  13   2.0000     -10.287674      -279.9418
  14   2.0000     -10.279972      -279.7323
  15   2.0000     -10.275586      -279.6129
  16   2.0000      -8.081714      -219.9146
  17   2.0000      -8.078469      -219.8263
  18   2.0000      -6.040290      -164.3646
  19   2.0000      -6.037076      -164.2772
  20   2.0000      -6.036125      -164.2513
  21   2.0000      -6.033234      -164.1727
  22   2.0000      -6.032463      -164.1517
  23   2.0000      -6.029037      -164.0584
  24   2.0000      -1.007905       -27.4265
  25   2.0000      -0.985170       -26.8078
  26   2.0000      -0.909644       -24.7527
  27   2.0000      -0.904923       -24.6242
  28   2.0000      -0.872034       -23.7293
  29   2.0000      -0.848785       -23.0966
  30   2.0000      -0.842289       -22.9198
  31   2.0000      -0.816622       -22.2214
  32   2.0000      -0.784121       -21.3370
  33   2.0000      -0.774462       -21.0742
  34   2.0000      -0.709331       -19.3019
  35   2.0000      -0.702230       -19.1087
  36   2.0000      -0.687123       -18.6976
  37   2.0000      -0.665886       -18.1197
  38   2.0000      -0.644592       -17.5402
  39   2.0000      -0.621138       -16.9020
  40   2.0000      -0.600285       -16.3346
  41   2.0000      -0.568724       -15.4758
  42   2.0000      -0.561912       -15.2904
  43   2.0000      -0.548477       -14.9248
  44   2.0000      -0.542313       -14.7571
  45   2.0000      -0.526053       -14.3146
  46   2.0000      -0.517933       -14.0937
  47   2.0000      -0.511969       -13.9314
  48   2.0000      -0.511254       -13.9119
  49   2.0000      -0.503080       -13.6895
  50   2.0000      -0.493333       -13.4243
  51   2.0000      -0.479731       -13.0541
  52   2.0000      -0.478460       -13.0196
  53   2.0000      -0.466467       -12.6932
  54   2.0000      -0.458733       -12.4828
  55   2.0000      -0.449013       -12.2183
  56   2.0000      -0.441356       -12.0099
  57   2.0000      -0.439563       -11.9611
  58   2.0000      -0.432007       -11.7555
  59   2.0000      -0.421421       -11.4675
  60   2.0000      -0.417815       -11.3693
  61   2.0000      -0.409267       -11.1367
  62   2.0000      -0.404028       -10.9942
  63   2.0000      -0.352888        -9.6026
  64   2.0000      -0.334654        -9.1064
  65   2.0000      -0.329104        -8.9554
  66   2.0000      -0.285681        -7.7738
  67   0.0000       0.012683         0.3451
  68   0.0000       0.070397         1.9156
  69   0.0000       0.093336         2.5398
  70   0.0000       0.117482         3.1969
  71   0.0000       0.134155         3.6505

MULLIKEN ATOMIC CHARGES
-----------------------
   0 S :    0.093355
   1 C :   -0.105154
   2 C :   -0.092873
   3 C :    0.039541
   4 C :   -0.148730
   5 H :    0.010398
   6 C :    0.099736
   7 H :    0.014427
   8 H :    0.015538
   9 C :   -0.109204
  10 H :    0.023303
  11 H :    0.022742
  12 C :   -0.010155
  13 H :    0.023342
  14 H :    0.034481
  15 H :    0.039625
  16 S :    0.097526
  17 C :   -0.087523
  18 C :    0.000317
  19 C :   -0.052133
  20 C :   -0.143766
  21 H :    0.005658
  22 C :    0.032107
  23 H :    0.027342
  24 H :    0.007609
  25 C :   -0.077154
  26 H :    0.022750
  27 H :    0.040102
  28 C :   -0.063492
  29 H :    0.029001
  30 H :    0.055549
  31 H :    0.037918
  32 H :    0.048414
  33 H :    0.069401
Sum of atomic charges:    0.0000000

LOEWDIN ATOMIC CHARGES
----------------------
   0 S :    0.373025
   1 C :   -0.180330
   2 C :   -0.063596
   3 C :   -0.061961
   4 C :   -0.178439
   5 H :    0.026780
   6 C :   -0.023698
   7 H :    0.028928
   8 H :    0.021844
   9 C :   -0.042345
  10 H :    0.019175
  11 H :    0.023861
  12 C :   -0.056408
  13 H :    0.015204
  14 H :    0.028780
  15 H :    0.030997
  16 S :    0.405388
  17 C :   -0.181362
  18 C :   -0.064177
  19 C :   -0.056596
  20 C :   -0.193111
  21 H :    0.026402
  22 C :   -0.037162
  23 H :    0.033908
  24 H :    0.021787
  25 C :   -0.045568
  26 H :    0.023381
  27 H :    0.027932
  28 C :   -0.072954
  29 H :    0.022313
  30 H :    0.039073
  31 H :    0.024685
  32 H :    0.029390
  33 H :    0.034854

  Mayer bond orders larger than 0.100000
B(  0-S ,  1-C ) :   1.1315 B(  0-S ,  4-C ) :   1.1340 B(  1-C ,  2-C ) :   1.5894
B(  1-C ,  4-C ) :   0.1169 B(  1-C , 32-H ) :   0.9723 B(  2-C ,  3-C ) :   1.2580
B(  2-C ,  6-C ) :   1.0317 B(  3-C ,  4-C ) :   1.5522 B(  3-C ,  5-H ) :   0.9884
B(  4-C , 20-C ) :   1.0871 B(  6-C ,  7-H ) :   0.9362 B(  6-C ,  8-H ) :   0.9430
B(  6-C ,  9-C ) :   1.0534 B(  9-C , 10-H ) :   0.9570 B(  9-C , 11-H ) :   0.9578
B(  9-C , 12-C ) :   1.0713 B( 12-C , 13-H ) :   0.9757 B( 12-C , 14-H ) :   0.9748
B( 12-C , 15-H ) :   0.9769 B( 16-S , 17-C ) :   1.1612 B( 16-S , 20-C ) :   1.1323
B( 17-C , 18-C ) :   1.5771 B( 17-C , 33-H ) :   0.9673 B( 18-C , 19-C ) :   1.2674
B( 18-C , 21-H ) :   0.9936 B( 19-C , 20-C ) :   1.5813 B( 19-C , 22-C ) :   1.0298
B( 22-C , 23-H ) :   0.9384 B( 22-C , 24-H ) :   0.9406 B( 22-C , 25-C ) :   1.0698
B( 25-C , 26-H ) :   0.9559 B( 25-C , 27-H ) :   0.9559 B( 25-C , 28-C ) :   1.0743
B( 28-C , 29-H ) :   0.9756 B( 28-C , 30-H ) :   0.9705 B( 28-C , 31-H ) :   0.9747

Dispersion correction           -0.015115626
FINAL SINGLE POINT ENERGY     -1339.870856176195

DIPOLE MOMENT
-------------
                                X             Y             Z
Electronic contribution:     16.33837      17.80419     -19.50532
Nuclear contribution   :    -16.50648     -18.14232      20.18084
                        -----------------------------------------
Total Dipole Moment    :     -0.16811      -0.33814       0.67552
                        -----------------------------------------
Magnitude (a.u.)       :      0.77390
Magnitude (Debye)      :      1.96711

Rotational constants in cm-1:     0.020315     0.009124     0.006923
Rotational constants in MHz :   609.026412   273.537654   207.555752

                             ****ORCA TERMINATED NORMALLY****
TOTAL RUN TIME: 0 days 0 hours 0 minutes 22 seconds 394 msec
