                         Program Version 4.2.1 -  RELEASE  -
|  1> ! wB97X-D3 SP def2-SVP
|  2> %pal
|  3> nprocs 24
|  4> end
|  5>
|  6> * xyz 0 1
|  7> S 	 -58.183 	 21.1885 	 -100.809
|  8> C 	 -59.7926 	 21.9603 	 -100.886
|  9> C 	 -60.7162 	 20.9871 	 -100.868
| 10> C 	 -60.2301 	 19.681 	 -100.737
| 11> C 	 -58.8819 	 19.5773 	 -100.637
| 12> H 	 -60.8605 	 18.77 	 -100.597
| 13> C 	 -62.1952 	 21.2743 	 -100.875
| 14> H 	 -62.5962 	 20.5882 	 -101.585
| 15> H 	 -62.3767 	 22.2177 	 -101.286
| 16> C 	 -62.8322 	 21.0907 	 -99.4601
| 17> H 	 -62.6697 	 20.0501 	 -99.0982
| 18> H 	 -62.3496 	 21.7948 	 -98.7446
| 19> C 	 -64.3638 	 21.2457 	 -99.4605
| 20> H 	 -64.8834 	 20.6866 	 -100.221
| 21> H 	 -64.7921 	 21.2027 	 -98.4698
| 22> H 	 -64.5075 	 22.2848 	 -99.7934
| 23> S 	 -56.8869 	 18.3408 	 -99.0527
| 24> C 	 -56.3276 	 16.7961 	 -99.4583
| 25> C 	 -57.0417 	 16.2511 	 -100.498
| 26> C 	 -58.124 	 17.056 	 -100.884
| 27> C 	 -58.1017 	 18.3359 	 -100.365
| 28> H 	 -56.7923 	 15.3024 	 -100.929
| 29> C 	 -59.1631 	 16.5124 	 -101.841
| 30> H 	 -58.5883 	 16.1573 	 -102.769
| 31> H 	 -59.753 	 17.354 	 -102.202
| 32> C 	 -60.1404 	 15.5069 	 -101.193
| 33> H 	 -60.7386 	 16.0386 	 -100.366
| 34> H 	 -59.6359 	 14.6529 	 -100.787
| 35> C 	 -61.2331 	 15.0195 	 -102.218
| 36> H 	 -62.0581 	 14.5096 	 -101.647
| 37> H 	 -60.7611 	 14.3392 	 -102.947
| 38> H 	 -61.6008 	 15.8398 	 -102.782
| 39> H 	 -60.1508 	 22.9738 	 -100.943
| 40> H 	 -55.5075 	 16.2988 	 -99.0483
| 41> *
| 42>
| 43>                          ****END OF INPUT****

CARTESIAN COORDINATES (ANGSTROEM)
---------------------------------
  S    -58.183000   21.188500  -100.809000
  C    -59.792600   21.960300  -100.886000
  C    -60.716200   20.987100  -100.868000
  C    -60.230100   19.681000  -100.737000
  C    -58.881900   19.577300  -100.637000
  H    -60.860500   18.770000  -100.597000
  C    -62.195200   21.274300  -100.875000
  H    -62.596200   20.588200  -101.585000
  H    -62.376700   22.217700  -101.286000
  C    -62.832200   21.090700  -99.460100
  H    -62.669700   20.050100  -99.098200
  H    -62.349600   21.794800  -98.744600
  C    -64.363800   21.245700  -99.460500
  H    -64.883400   20.686600  -100.221000
  H    -64.792100   21.202700  -98.469800
  H    -64.507500   22.284800  -99.793400
  S    -56.886900   18.340800  -99.052700
  C    -56.327600   16.796100  -99.458300
  C    -57.041700   16.251100  -100.498000
  C    -58.124000   17.056000  -100.884000
  C    -58.101700   18.335900  -100.365000
  H    -56.792300   15.302400  -100.929000
  C    -59.163100   16.512400  -101.841000
  H    -58.588300   16.157300  -102.769000
  H    -59.753000   17.354000  -102.202000
  C    -60.140400   15.506900  -101.193000
  H    -60.738600   16.038600  -100.366000
  H    -59.635900   14.652900  -100.787000
  C    -61.233100   15.019500  -102.218000
  H    -62.058100   14.509600  -101.647000
  H    -60.761100   14.339200  -102.947000
  H    -61.600800   15.839800  -102.782000
  H    -60.150800   22.973800  -100.943000
  H    -55.507500   16.298800  -99.048300

 Total Charge           Charge          ....    0
 Multiplicity           Mult            ....    1
 Number of Electrons    NEL             ....  134
 Basis Dimension        Dim             ....  322

ORBITAL ENERGIES
----------------

  NO   OCC          E(Eh)            E(eV)
   0   2.0000     -88.966116     -2420.8911
   1   2.0000     -88.963736     -2420.8263
   2   2.0000     -10.333637      -281.1926
   3   2.0000     -10.330858      -281.1169
   4   2.0000     -10.310847      -280.5724
   5   2.0000     -10.310063      -280.5511
   6   2.0000     -10.300781      -280.2985
   7   2.0000     -10.296547      -280.1833
   8   2.0000     -10.296136      -280.1721
   9   2.0000     -10.294110      -280.1170
  10   2.0000     -10.290610      -280.0217
  11   2.0000     -10.290158      -280.0094
  12   2.0000     -10.287239      -279.9300
  13   2.0000     -10.285800      -279.8909
  14   2.0000     -10.283351      -279.8242
  15   2.0000     -10.277238      -279.6579
  16   2.0000      -8.079860      -219.8642
  17   2.0000      -8.079052      -219.8422
  18   2.0000      -6.038677      -164.3208
  19   2.0000      -6.037478      -164.2881
  20   2.0000      -6.034534      -164.2080
  21   2.0000      -6.033360      -164.1761
  22   2.0000      -6.030269      -164.0919
  23   2.0000      -6.029978      -164.0840
  24   2.0000      -1.009455       -27.4687
  25   2.0000      -0.992207       -26.9993
  26   2.0000      -0.911324       -24.7984
  27   2.0000      -0.906459       -24.6660
  28   2.0000      -0.869819       -23.6690
  29   2.0000      -0.851567       -23.1723
  30   2.0000      -0.844242       -22.9730
  31   2.0000      -0.819510       -22.3000
  32   2.0000      -0.781701       -21.2712
  33   2.0000      -0.772456       -21.0196
  34   2.0000      -0.709771       -19.3138
  35   2.0000      -0.699013       -19.0211
  36   2.0000      -0.697440       -18.9783
  37   2.0000      -0.662235       -18.0203
  38   2.0000      -0.639343       -17.3974
  39   2.0000      -0.620946       -16.8968
  40   2.0000      -0.597779       -16.2664
  41   2.0000      -0.572801       -15.5867
  42   2.0000      -0.562739       -15.3129
  43   2.0000      -0.556861       -15.1529
  44   2.0000      -0.532654       -14.4943
  45   2.0000      -0.527563       -14.3557
  46   2.0000      -0.516448       -14.0533
  47   2.0000      -0.512776       -13.9533
  48   2.0000      -0.510502       -13.8915
  49   2.0000      -0.503264       -13.6945
  50   2.0000      -0.499323       -13.5873
  51   2.0000      -0.473153       -12.8752
  52   2.0000      -0.472296       -12.8518
  53   2.0000      -0.463805       -12.6208
  54   2.0000      -0.461894       -12.5688
  55   2.0000      -0.449296       -12.2260
  56   2.0000      -0.445814       -12.1312
  57   2.0000      -0.442176       -12.0322
  58   2.0000      -0.434718       -11.8293
  59   2.0000      -0.427025       -11.6199
  60   2.0000      -0.417321       -11.3559
  61   2.0000      -0.412677       -11.2295
  62   2.0000      -0.410504       -11.1704
  63   2.0000      -0.349696        -9.5157
  64   2.0000      -0.332772        -9.0552
  65   2.0000      -0.328807        -8.9473
  66   2.0000      -0.295932        -8.0527
  67   0.0000       0.030042         0.8175
  68   0.0000       0.076035         2.0690
  69   0.0000       0.117297         3.1918
  70   0.0000       0.118481         3.2240
  71   0.0000       0.129398         3.5211

MULLIKEN ATOMIC CHARGES
-----------------------
   0 S :    0.104124
   1 C :   -0.100214
   2 C :   -0.106177
   3 C :    0.008392
   4 C :   -0.127707
   5 H :    0.023869
   6 C :    0.115259
   7 H :    0.013664
   8 H :   -0.005291
   9 C :   -0.103707
  10 H :    0.034732
  11 H :    0.040185
  12 C :   -0.022201
  13 H :    0.029529
  14 H :    0.041670
  15 H :    0.012076
  16 S :    0.109901
  17 C :   -0.052569
  18 C :   -0.032944
  19 C :   -0.032277
  20 C :   -0.160976
  21 H :    0.009451
  22 C :    0.032796
  23 H :    0.044262
  24 H :    0.012014
  25 C :   -0.092608
  26 H :    0.044046
  27 H :    0.033054
  28 C :   -0.047070
  29 H :    0.049494
  30 H :    0.034140
  31 H :    0.022763
  32 H :    0.033178
  33 H :    0.035140
Sum of atomic charges:   -0.0000000

LOEWDIN ATOMIC CHARGES
----------------------
   0 S :    0.384138
   1 C :   -0.187274
   2 C :   -0.069400
   3 C :   -0.073363
   4 C :   -0.180779
   5 H :    0.037220
   6 C :   -0.022028
   7 H :    0.027572
   8 H :    0.017575
   9 C :   -0.037625
  10 H :    0.024490
  11 H :    0.029623
  12 C :   -0.068823
  13 H :    0.023361
  14 H :    0.027223
  15 H :    0.024113
  16 S :    0.415856
  17 C :   -0.186099
  18 C :   -0.073182
  19 C :   -0.054965
  20 C :   -0.190463
  21 H :    0.028973
  22 C :   -0.040120
  23 H :    0.039534
  24 H :    0.024833
  25 C :   -0.037353
  26 H :    0.032634
  27 H :    0.018793
  28 C :   -0.065736
  29 H :    0.033293
  30 H :    0.025925
  31 H :    0.017155
  32 H :    0.034290
  33 H :    0.020608

  Mayer bond orders larger than 0.100000
B(  0-S ,  1-C ) :   1.1027 B(  0-S ,  4-C ) :   1.1414 B(  1-C ,  2-C ) :   1.6524
B(  1-C , 32-H ) :   0.9651 B(  2-C ,  3-C ) :   1.2312 B(  2-C ,  6-C ) :   1.0312
B(  3-C ,  4-C ) :   1.5895 B(  3-C ,  5-H ) :   0.9859 B(  4-C , 20-C ) :   1.0284
B(  6-C ,  7-H ) :   0.9312 B(  6-C ,  8-H ) :   0.9359 B(  6-C ,  9-C ) :   1.0539
B(  9-C , 10-H ) :   0.9590 B(  9-C , 11-H ) :   0.9568 B(  9-C , 12-C ) :   1.0799
B( 12-C , 13-H ) :   0.9744 B( 12-C , 14-H ) :   0.9743 B( 12-C , 15-H ) :   0.9719
B( 16-S , 17-C ) :   1.1781 B( 16-S , 20-C ) :   1.1312 B( 17-C , 18-C ) :   1.5814
B( 17-C , 33-H ) :   0.9724 B( 18-C , 19-C ) :   1.2561 B( 18-C , 21-H ) :   0.9962
B( 19-C , 20-C ) :   1.5923 B( 19-C , 22-C ) :   1.0480 B( 22-C , 23-H ) :   0.9383
B( 22-C , 24-H ) :   0.9288 B( 22-C , 25-C ) :   1.0545 B( 25-C , 26-H ) :   0.9545
B( 25-C , 27-H ) :   0.9596 B( 25-C , 28-C ) :   1.0747 B( 28-C , 29-H ) :   0.9772
B( 28-C , 30-H ) :   0.9765 B( 28-C , 31-H ) :   0.9751

Dispersion correction           -0.013885916
FINAL SINGLE POINT ENERGY     -1339.878001361141

DIPOLE MOMENT
-------------
                                X             Y             Z
Electronic contribution:     28.81345       8.69577       4.95749
Nuclear contribution   :    -29.40650      -9.06227      -5.10324
                        -----------------------------------------
Total Dipole Moment    :     -0.59305      -0.36650      -0.14575
                        -----------------------------------------
Magnitude (a.u.)       :      0.71223
Magnitude (Debye)      :      1.81035

Rotational constants in cm-1:     0.016522     0.008872     0.006549
Rotational constants in MHz :   495.317044   265.971851   196.326832

                             ****ORCA TERMINATED NORMALLY****
TOTAL RUN TIME: 0 days 0 hours 0 minutes 22 seconds 562 msec
