                         Program Version 4.2.1 -  RELEASE  -
|  1> ! wB97X-D3 SP def2-SVP
|  2> %pal
|  3> nprocs 24
|  4> end
|  5>
|  6> * xyz 0 1
|  7> S 	 -52.3087 	 17.2759 	 24.6684
|  8> C 	 -50.7442 	 16.9362 	 23.8794
|  9> C 	 -49.6532 	 17.4404 	 24.4963
| 10> C 	 -50.0882 	 18.1414 	 25.6818
| 11> C 	 -51.4202 	 18.0456 	 25.9922
| 12> H 	 -49.447 	 18.656 	 26.3816
| 13> C 	 -48.2032 	 17.4592 	 24.0294
| 14> H 	 -47.5635 	 18.1219 	 24.6162
| 15> H 	 -48.0878 	 17.8924 	 23.1207
| 16> C 	 -47.4556 	 16.1423 	 24.1432
| 17> H 	 -47.8911 	 15.5217 	 23.421
| 18> H 	 -46.4074 	 16.2951 	 24.0511
| 19> C 	 -47.5872 	 15.4392 	 25.5156
| 20> H 	 -46.8537 	 14.6291 	 25.5981
| 21> H 	 -47.4629 	 16.1044 	 26.3605
| 22> H 	 -48.5061 	 14.9524 	 25.7666
| 23> S 	 -52.7707 	 20.0291 	 27.3079
| 24> C 	 -53.0931 	 19.9424 	 28.983
| 25> C 	 -52.5182 	 18.8321 	 29.504
| 26> C 	 -51.854 	 18.0075 	 28.5357
| 27> C 	 -52.0167 	 18.4417 	 27.2561
| 28> H 	 -52.5667 	 18.5963 	 30.5783
| 29> C 	 -51.1621 	 16.7302 	 28.9666
| 30> H 	 -50.7964 	 16.1317 	 28.1042
| 31> H 	 -52.007 	 16.0996 	 29.3384
| 32> C 	 -50.0772 	 16.9912 	 30.0007
| 33> H 	 -49.7887 	 16.0265 	 30.5022
| 34> H 	 -50.4748 	 17.5571 	 30.8337
| 35> C 	 -48.8687 	 17.7365 	 29.423
| 36> H 	 -49.1143 	 18.5525 	 28.71
| 37> H 	 -48.162 	 16.991 	 28.9725
| 38> H 	 -48.2397 	 18.1389 	 30.1944
| 39> H 	 -50.6533 	 16.3652 	 22.9869
| 40> H 	 -53.6168 	 20.5907 	 29.6319
| 41> *
| 42>
| 43>                          ****END OF INPUT****

CARTESIAN COORDINATES (ANGSTROEM)
---------------------------------
  S    -52.308700   17.275900   24.668400
  C    -50.744200   16.936200   23.879400
  C    -49.653200   17.440400   24.496300
  C    -50.088200   18.141400   25.681800
  C    -51.420200   18.045600   25.992200
  H    -49.447000   18.656000   26.381600
  C    -48.203200   17.459200   24.029400
  H    -47.563500   18.121900   24.616200
  H    -48.087800   17.892400   23.120700
  C    -47.455600   16.142300   24.143200
  H    -47.891100   15.521700   23.421000
  H    -46.407400   16.295100   24.051100
  C    -47.587200   15.439200   25.515600
  H    -46.853700   14.629100   25.598100
  H    -47.462900   16.104400   26.360500
  H    -48.506100   14.952400   25.766600
  S    -52.770700   20.029100   27.307900
  C    -53.093100   19.942400   28.983000
  C    -52.518200   18.832100   29.504000
  C    -51.854000   18.007500   28.535700
  C    -52.016700   18.441700   27.256100
  H    -52.566700   18.596300   30.578300
  C    -51.162100   16.730200   28.966600
  H    -50.796400   16.131700   28.104200
  H    -52.007000   16.099600   29.338400
  C    -50.077200   16.991200   30.000700
  H    -49.788700   16.026500   30.502200
  H    -50.474800   17.557100   30.833700
  C    -48.868700   17.736500   29.423000
  H    -49.114300   18.552500   28.710000
  H    -48.162000   16.991000   28.972500
  H    -48.239700   18.138900   30.194400
  H    -50.653300   16.365200   22.986900
  H    -53.616800   20.590700   29.631900

 Total Charge           Charge          ....    0
 Multiplicity           Mult            ....    1
 Number of Electrons    NEL             ....  134
 Basis Dimension        Dim             ....  322

ORBITAL ENERGIES
----------------

  NO   OCC          E(Eh)            E(eV)
   0   2.0000     -88.966656     -2420.9058
   1   2.0000     -88.958359     -2420.6800
   2   2.0000     -10.326187      -280.9898
   3   2.0000     -10.320383      -280.8319
   4   2.0000     -10.313459      -280.6435
   5   2.0000     -10.309612      -280.5388
   6   2.0000     -10.301688      -280.3232
   7   2.0000     -10.299266      -280.2573
   8   2.0000     -10.292902      -280.0841
   9   2.0000     -10.292661      -280.0775
  10   2.0000     -10.289732      -279.9978
  11   2.0000     -10.288570      -279.9662
  12   2.0000     -10.286015      -279.8967
  13   2.0000     -10.281757      -279.7808
  14   2.0000     -10.280464      -279.7457
  15   2.0000     -10.272592      -279.5314
  16   2.0000      -8.080631      -219.8852
  17   2.0000      -8.074114      -219.7078
  18   2.0000      -6.039219      -164.3355
  19   2.0000      -6.035434      -164.2325
  20   2.0000      -6.032707      -164.1583
  21   2.0000      -6.031169      -164.1164
  22   2.0000      -6.028439      -164.0422
  23   2.0000      -6.024735      -163.9414
  24   2.0000      -1.009036       -27.4573
  25   2.0000      -0.986018       -26.8309
  26   2.0000      -0.916624       -24.9426
  27   2.0000      -0.910047       -24.7636
  28   2.0000      -0.872644       -23.7459
  29   2.0000      -0.845463       -23.0062
  30   2.0000      -0.842771       -22.9330
  31   2.0000      -0.814667       -22.1682
  32   2.0000      -0.790813       -21.5191
  33   2.0000      -0.776724       -21.1357
  34   2.0000      -0.708293       -19.2736
  35   2.0000      -0.705694       -19.2029
  36   2.0000      -0.696804       -18.9610
  37   2.0000      -0.654869       -17.8199
  38   2.0000      -0.644287       -17.5320
  39   2.0000      -0.614556       -16.7229
  40   2.0000      -0.598751       -16.2928
  41   2.0000      -0.585599       -15.9350
  42   2.0000      -0.559542       -15.2259
  43   2.0000      -0.557088       -15.1591
  44   2.0000      -0.547997       -14.9118
  45   2.0000      -0.531652       -14.4670
  46   2.0000      -0.516477       -14.0541
  47   2.0000      -0.503823       -13.7097
  48   2.0000      -0.503037       -13.6883
  49   2.0000      -0.498322       -13.5600
  50   2.0000      -0.489214       -13.3122
  51   2.0000      -0.472480       -12.8568
  52   2.0000      -0.469202       -12.7676
  53   2.0000      -0.465076       -12.6553
  54   2.0000      -0.459374       -12.5002
  55   2.0000      -0.446141       -12.1401
  56   2.0000      -0.445192       -12.1143
  57   2.0000      -0.441028       -12.0010
  58   2.0000      -0.437887       -11.9155
  59   2.0000      -0.427609       -11.6358
  60   2.0000      -0.418511       -11.3883
  61   2.0000      -0.414220       -11.2715
  62   2.0000      -0.407446       -11.0872
  63   2.0000      -0.334827        -9.1111
  64   2.0000      -0.331585        -9.0229
  65   2.0000      -0.322810        -8.7841
  66   2.0000      -0.312791        -8.5115
  67   0.0000       0.043152         1.1742
  68   0.0000       0.061781         1.6811
  69   0.0000       0.109366         2.9760
  70   0.0000       0.122352         3.3294
  71   0.0000       0.132526         3.6062

MULLIKEN ATOMIC CHARGES
-----------------------
   0 S :    0.111414
   1 C :   -0.116810
   2 C :   -0.061420
   3 C :    0.043683
   4 C :   -0.174474
   5 H :    0.002071
   6 C :    0.115013
   7 H :    0.006146
   8 H :    0.009811
   9 C :   -0.040964
  10 H :    0.020126
  11 H :    0.030658
  12 C :   -0.064413
  13 H :    0.029386
  14 H :    0.017395
  15 H :    0.028353
  16 S :    0.099829
  17 C :   -0.044648
  18 C :   -0.063291
  19 C :   -0.036161
  20 C :   -0.171221
  21 H :    0.025538
  22 C :    0.058377
  23 H :    0.034343
  24 H :    0.042493
  25 C :   -0.075020
  26 H :    0.032158
  27 H :    0.021258
  28 C :   -0.060773
  29 H :    0.054811
  30 H :    0.035967
  31 H :    0.023824
  32 H :    0.030426
  33 H :    0.036117
Sum of atomic charges:    0.0000000

LOEWDIN ATOMIC CHARGES
----------------------
   0 S :    0.380591
   1 C :   -0.169830
   2 C :   -0.059281
   3 C :   -0.046589
   4 C :   -0.197736
   5 H :    0.026682
   6 C :   -0.023009
   7 H :    0.032317
   8 H :    0.018777
   9 C :   -0.025702
  10 H :    0.015828
  11 H :    0.025175
  12 C :   -0.068837
  13 H :    0.027412
  14 H :    0.020580
  15 H :    0.022009
  16 S :    0.412822
  17 C :   -0.186913
  18 C :   -0.080218
  19 C :   -0.055109
  20 C :   -0.204599
  21 H :    0.032691
  22 C :   -0.035829
  23 H :    0.033716
  24 H :    0.039696
  25 C :   -0.044706
  26 H :    0.030493
  27 H :    0.018708
  28 C :   -0.070479
  29 H :    0.029672
  30 H :    0.030621
  31 H :    0.023765
  32 H :    0.019859
  33 H :    0.027426

  Mayer bond orders larger than 0.100000
B(  0-S ,  1-C ) :   1.1301 B(  0-S ,  4-C ) :   1.1191 B(  1-C ,  2-C ) :   1.6598
B(  1-C , 32-H ) :   0.9655 B(  2-C ,  3-C ) :   1.2047 B(  2-C ,  6-C ) :   1.0074
B(  3-C ,  4-C ) :   1.6340 B(  3-C ,  5-H ) :   0.9935 B(  4-C , 20-C ) :   1.0041
B(  6-C ,  7-H ) :   0.9362 B(  6-C ,  8-H ) :   0.9401 B(  6-C ,  9-C ) :   1.0808
B(  9-C , 10-H ) :   0.9583 B(  9-C , 11-H ) :   0.9589 B(  9-C , 12-C ) :   1.0762
B( 12-C , 13-H ) :   0.9748 B( 12-C , 14-H ) :   0.9759 B( 12-C , 15-H ) :   0.9704
B( 16-S , 17-C ) :   1.1569 B( 16-S , 20-C ) :   1.1325 B( 17-C , 18-C ) :   1.6239
B( 17-C , 33-H ) :   0.9693 B( 18-C , 19-C ) :   1.2257 B( 18-C , 21-H ) :   0.9841
B( 19-C , 20-C ) :   1.6291 B( 19-C , 22-C ) :   1.0332 B( 22-C , 23-H ) :   0.9414
B( 22-C , 24-H ) :   0.9368 B( 22-C , 25-C ) :   1.0651 B( 25-C , 26-H ) :   0.9531
B( 25-C , 27-H ) :   0.9592 B( 25-C , 28-C ) :   1.0699 B( 28-C , 29-H ) :   0.9720
B( 28-C , 30-H ) :   0.9729 B( 28-C , 31-H ) :   0.9682

Dispersion correction           -0.016159760
FINAL SINGLE POINT ENERGY     -1339.875562856676

DIPOLE MOMENT
-------------
                                X             Y             Z
Electronic contribution:    -25.02311      12.58404      -8.11779
Nuclear contribution   :     25.67786     -12.84082       8.46248
                        -----------------------------------------
Total Dipole Moment    :      0.65476      -0.25678       0.34468
                        -----------------------------------------
Magnitude (a.u.)       :      0.78323
Magnitude (Debye)      :      1.99081

Rotational constants in cm-1:     0.019386     0.009980     0.007514
Rotational constants in MHz :   581.186213   299.189370   225.261159

                             ****ORCA TERMINATED NORMALLY****
TOTAL RUN TIME: 0 days 0 hours 0 minutes 22 seconds 958 msec
