                         Program Version 4.2.1 -  RELEASE  -
|  1> ! wB97X-D3 SP def2-SVP
|  2> %pal
|  3> nprocs 24
|  4> end
|  5>
|  6> * xyz 0 1
|  7> S 	 -86.9367 	 -32.238 	 -56.8831
|  8> C 	 -85.2969 	 -32.435 	 -57.3929
|  9> C 	 -84.409 	 -31.8238 	 -56.5614
| 10> C 	 -85.0313 	 -31.2686 	 -55.383
| 11> C 	 -86.3887 	 -31.472 	 -55.3623
| 12> H 	 -84.6674 	 -30.677 	 -54.5953
| 13> C 	 -82.8924 	 -31.844 	 -56.606
| 14> H 	 -82.639 	 -32.7037 	 -57.1952
| 15> H 	 -82.5084 	 -32.2133 	 -55.5961
| 16> C 	 -82.2208 	 -30.5671 	 -56.9782
| 17> H 	 -81.1796 	 -30.9111 	 -57.2013
| 18> H 	 -82.7345 	 -30.2284 	 -57.8798
| 19> C 	 -82.1112 	 -29.5044 	 -55.8822
| 20> H 	 -81.3312 	 -28.8499 	 -56.0629
| 21> H 	 -83.025 	 -28.9788 	 -55.9799
| 22> H 	 -82.0284 	 -29.7885 	 -54.7665
| 23> S 	 -88.7791 	 -30.0395 	 -55.3652
| 24> C 	 -89.6517 	 -29.8679 	 -53.928
| 25> C 	 -88.9377 	 -30.2601 	 -52.8483
| 26> C 	 -87.6168 	 -30.7054 	 -53.2287
| 27> C 	 -87.4341 	 -30.8887 	 -54.5788
| 28> H 	 -89.3434 	 -30.1109 	 -51.8806
| 29> C 	 -86.6171 	 -31.1071 	 -52.1652
| 30> H 	 -85.8207 	 -31.7149 	 -52.6269
| 31> H 	 -87.2005 	 -31.7202 	 -51.4604
| 32> C 	 -86.0455 	 -29.9489 	 -51.3938
| 33> H 	 -86.8504 	 -29.5211 	 -50.8375
| 34> H 	 -85.7659 	 -29.1933 	 -52.0836
| 35> C 	 -84.9634 	 -30.2622 	 -50.3176
| 36> H 	 -84.4897 	 -29.3456 	 -49.916
| 37> H 	 -84.1833 	 -30.7994 	 -50.7154
| 38> H 	 -85.3459 	 -30.7897 	 -49.5024
| 39> H 	 -85.069 	 -32.8753 	 -58.3352
| 40> H 	 -90.643 	 -29.4712 	 -53.8312
| 41> *
| 42>
| 43>                          ****END OF INPUT****

CARTESIAN COORDINATES (ANGSTROEM)
---------------------------------
  S    -86.936700  -32.238000  -56.883100
  C    -85.296900  -32.435000  -57.392900
  C    -84.409000  -31.823800  -56.561400
  C    -85.031300  -31.268600  -55.383000
  C    -86.388700  -31.472000  -55.362300
  H    -84.667400  -30.677000  -54.595300
  C    -82.892400  -31.844000  -56.606000
  H    -82.639000  -32.703700  -57.195200
  H    -82.508400  -32.213300  -55.596100
  C    -82.220800  -30.567100  -56.978200
  H    -81.179600  -30.911100  -57.201300
  H    -82.734500  -30.228400  -57.879800
  C    -82.111200  -29.504400  -55.882200
  H    -81.331200  -28.849900  -56.062900
  H    -83.025000  -28.978800  -55.979900
  H    -82.028400  -29.788500  -54.766500
  S    -88.779100  -30.039500  -55.365200
  C    -89.651700  -29.867900  -53.928000
  C    -88.937700  -30.260100  -52.848300
  C    -87.616800  -30.705400  -53.228700
  C    -87.434100  -30.888700  -54.578800
  H    -89.343400  -30.110900  -51.880600
  C    -86.617100  -31.107100  -52.165200
  H    -85.820700  -31.714900  -52.626900
  H    -87.200500  -31.720200  -51.460400
  C    -86.045500  -29.948900  -51.393800
  H    -86.850400  -29.521100  -50.837500
  H    -85.765900  -29.193300  -52.083600
  C    -84.963400  -30.262200  -50.317600
  H    -84.489700  -29.345600  -49.916000
  H    -84.183300  -30.799400  -50.715400
  H    -85.345900  -30.789700  -49.502400
  H    -85.069000  -32.875300  -58.335200
  H    -90.643000  -29.471200  -53.831200

 Total Charge           Charge          ....    0
 Multiplicity           Mult            ....    1
 Number of Electrons    NEL             ....  134
 Basis Dimension        Dim             ....  322

ORBITAL ENERGIES
----------------

  NO   OCC          E(Eh)            E(eV)
   0   2.0000     -88.962300     -2420.7872
   1   2.0000     -88.959942     -2420.7231
   2   2.0000     -10.329064      -281.0681
   3   2.0000     -10.323072      -280.9051
   4   2.0000     -10.312168      -280.6084
   5   2.0000     -10.308602      -280.5113
   6   2.0000     -10.300655      -280.2951
   7   2.0000     -10.300508      -280.2911
   8   2.0000     -10.293031      -280.0876
   9   2.0000     -10.289932      -280.0033
  10   2.0000     -10.288858      -279.9741
  11   2.0000     -10.287236      -279.9299
  12   2.0000     -10.287072      -279.9254
  13   2.0000     -10.278845      -279.7016
  14   2.0000     -10.276483      -279.6373
  15   2.0000     -10.270463      -279.4735
  16   2.0000      -8.077338      -219.7955
  17   2.0000      -8.075687      -219.7506
  18   2.0000      -6.035843      -164.2436
  19   2.0000      -6.034247      -164.2002
  20   2.0000      -6.031869      -164.1355
  21   2.0000      -6.030074      -164.0867
  22   2.0000      -6.027990      -164.0299
  23   2.0000      -6.026272      -163.9832
  24   2.0000      -1.011623       -27.5277
  25   2.0000      -0.988685       -26.9035
  26   2.0000      -0.916929       -24.9509
  27   2.0000      -0.912193       -24.8220
  28   2.0000      -0.877507       -23.8782
  29   2.0000      -0.852277       -23.1916
  30   2.0000      -0.844805       -22.9883
  31   2.0000      -0.821528       -22.3549
  32   2.0000      -0.788712       -21.4619
  33   2.0000      -0.777872       -21.1670
  34   2.0000      -0.710690       -19.3389
  35   2.0000      -0.699448       -19.0330
  36   2.0000      -0.698857       -19.0169
  37   2.0000      -0.663765       -18.0620
  38   2.0000      -0.647802       -17.6276
  39   2.0000      -0.620035       -16.8720
  40   2.0000      -0.595332       -16.1998
  41   2.0000      -0.578956       -15.7542
  42   2.0000      -0.570408       -15.5216
  43   2.0000      -0.548524       -14.9261
  44   2.0000      -0.546356       -14.8671
  45   2.0000      -0.524111       -14.2618
  46   2.0000      -0.518200       -14.1009
  47   2.0000      -0.512494       -13.9457
  48   2.0000      -0.510446       -13.8899
  49   2.0000      -0.504319       -13.7232
  50   2.0000      -0.497694       -13.5429
  51   2.0000      -0.486007       -13.2249
  52   2.0000      -0.476623       -12.9696
  53   2.0000      -0.466823       -12.7029
  54   2.0000      -0.461599       -12.5607
  55   2.0000      -0.452212       -12.3053
  56   2.0000      -0.444109       -12.0848
  57   2.0000      -0.435783       -11.8583
  58   2.0000      -0.432668       -11.7735
  59   2.0000      -0.424920       -11.5627
  60   2.0000      -0.419117       -11.4048
  61   2.0000      -0.413076       -11.2404
  62   2.0000      -0.403921       -10.9912
  63   2.0000      -0.356970        -9.7137
  64   2.0000      -0.329428        -8.9642
  65   2.0000      -0.324122        -8.8198
  66   2.0000      -0.292117        -7.9489
  67   0.0000       0.028543         0.7767
  68   0.0000       0.072661         1.9772
  69   0.0000       0.111872         3.0442
  70   0.0000       0.117754         3.2043
  71   0.0000       0.130912         3.5623

MULLIKEN ATOMIC CHARGES
-----------------------
   0 S :    0.090116
   1 C :   -0.102351
   2 C :   -0.076675
   3 C :    0.053005
   4 C :   -0.159407
   5 H :   -0.006097
   6 C :    0.038183
   7 H :    0.009546
   8 H :    0.030368
   9 C :   -0.054933
  10 H :    0.033238
  11 H :    0.036095
  12 C :   -0.034005
  13 H :    0.023513
  14 H :    0.028919
  15 H :    0.042140
  16 S :    0.102492
  17 C :   -0.072620
  18 C :   -0.019014
  19 C :   -0.055107
  20 C :   -0.131345
  21 H :    0.005753
  22 C :    0.056803
  23 H :    0.020795
  24 H :    0.024211
  25 C :   -0.070842
  26 H :    0.012856
  27 H :    0.018080
  28 C :    0.011473
  29 H :    0.031140
  30 H :    0.006801
  31 H :    0.018330
  32 H :    0.038499
  33 H :    0.050041
Sum of atomic charges:   -0.0000000

LOEWDIN ATOMIC CHARGES
----------------------
   0 S :    0.394254
   1 C :   -0.190103
   2 C :   -0.066192
   3 C :   -0.050490
   4 C :   -0.171599
   5 H :    0.025534
   6 C :   -0.038238
   7 H :    0.025130
   8 H :    0.036149
   9 C :   -0.040103
  10 H :    0.029800
  11 H :    0.029884
  12 C :   -0.067161
  13 H :    0.017716
  14 H :    0.023783
  15 H :    0.035999
  16 S :    0.409082
  17 C :   -0.192684
  18 C :   -0.074045
  19 C :   -0.052574
  20 C :   -0.200616
  21 H :    0.026650
  22 C :   -0.033660
  23 H :    0.025967
  24 H :    0.031774
  25 C :   -0.037788
  26 H :    0.020461
  27 H :    0.017929
  28 C :   -0.051862
  29 H :    0.033513
  30 H :    0.011436
  31 H :    0.018603
  32 H :    0.023270
  33 H :    0.030181

  Mayer bond orders larger than 0.100000
B(  0-S ,  1-C ) :   1.1347 B(  0-S ,  4-C ) :   1.1270 B(  1-C ,  2-C ) :   1.6362
B(  1-C , 32-H ) :   0.9717 B(  2-C ,  3-C ) :   1.1966 B(  2-C ,  6-C ) :   1.0134
B(  3-C ,  4-C ) :   1.6007 B(  3-C ,  5-H ) :   0.9979 B(  4-C , 20-C ) :   1.0657
B(  6-C ,  7-H ) :   0.9420 B(  6-C ,  8-H ) :   0.9447 B(  6-C ,  9-C ) :   1.0672
B(  9-C , 10-H ) :   0.9555 B(  9-C , 11-H ) :   0.9534 B(  9-C , 12-C ) :   1.0704
B( 12-C , 13-H ) :   0.9723 B( 12-C , 14-H ) :   0.9719 B( 12-C , 15-H ) :   0.9741
B( 16-S , 17-C ) :   1.1600 B( 16-S , 20-C ) :   1.1144 B( 17-C , 18-C ) :   1.6209
B( 17-C , 33-H ) :   0.9657 B( 18-C , 19-C ) :   1.2132 B( 18-C , 21-H ) :   0.9997
B( 19-C , 20-C ) :   1.6053 B( 19-C , 22-C ) :   1.0620 B( 22-C , 23-H ) :   0.9356
B( 22-C , 24-H ) :   0.9335 B( 22-C , 25-C ) :   1.0618 B( 25-C , 26-H ) :   0.9524
B( 25-C , 27-H ) :   0.9565 B( 25-C , 28-C ) :   1.0834 B( 28-C , 29-H ) :   0.9730
B( 28-C , 30-H ) :   0.9751 B( 28-C , 31-H ) :   0.9742

Dispersion correction           -0.014208332
FINAL SINGLE POINT ENERGY     -1339.862983163863

DIPOLE MOMENT
-------------
                                X             Y             Z
Electronic contribution:    -24.27215      -5.81142     -15.59258
Nuclear contribution   :     24.74736       6.01259      15.96018
                        -----------------------------------------
Total Dipole Moment    :      0.47521       0.20118       0.36760
                        -----------------------------------------
Magnitude (a.u.)       :      0.63358
Magnitude (Debye)      :      1.61044

Rotational constants in cm-1:     0.016302     0.009883     0.006923
Rotational constants in MHz :   488.731012   296.282898   207.550687

                             ****ORCA TERMINATED NORMALLY****
TOTAL RUN TIME: 0 days 0 hours 0 minutes 22 seconds 57 msec
