                         Program Version 4.2.1 -  RELEASE  -
|  1> ! wB97X-D3 SP def2-SVP
|  2> %pal
|  3> nprocs 24
|  4> end
|  5>
|  6> * xyz 0 1
|  7> S 	 -45.9314 	 11.0438 	 27.5526
|  8> C 	 -45.8133 	 12.4341 	 28.6789
|  9> C 	 -47.0745 	 12.9082 	 29.032
| 10> C 	 -48.1206 	 12.1062 	 28.4366
| 11> C 	 -47.7041 	 11.1806 	 27.5044
| 12> H 	 -49.2073 	 12.1568 	 28.5316
| 13> C 	 -47.1465 	 14.1508 	 29.818
| 14> H 	 -46.3427 	 14.2495 	 30.549
| 15> H 	 -48.0222 	 14.0912 	 30.4817
| 16> C 	 -47.3448 	 15.4858 	 29.0777
| 17> H 	 -48.1732 	 15.304 	 28.3693
| 18> H 	 -47.5512 	 16.1675 	 29.8889
| 19> C 	 -46.0747 	 15.9448 	 28.3824
| 20> H 	 -46.1907 	 16.9076 	 27.8105
| 21> H 	 -45.2336 	 16.1816 	 29.0014
| 22> H 	 -45.6544 	 15.2386 	 27.6282
| 23> S 	 -48.5569 	 8.58171 	 27.599
| 24> C 	 -49.9065 	 8.08365 	 26.635
| 25> C 	 -50.3938 	 9.10991 	 25.8723
| 26> C 	 -49.7285 	 10.3674 	 26.103
| 27> C 	 -48.5905 	 10.1783 	 26.9218
| 28> H 	 -51.2648 	 8.9048 	 25.2828
| 29> C 	 -50.188 	 11.6972 	 25.5643
| 30> H 	 -49.8672 	 11.8916 	 24.5366
| 31> H 	 -49.781 	 12.6028 	 26.0898
| 32> C 	 -51.6761 	 12.1124 	 25.6466
| 33> H 	 -52.3534 	 11.4075 	 25.1236
| 34> H 	 -51.7111 	 13.0964 	 25.1799
| 35> C 	 -52.2238 	 12.1869 	 27.0606
| 36> H 	 -53.2852 	 12.5996 	 26.9861
| 37> H 	 -51.6323 	 12.8401 	 27.6442
| 38> H 	 -52.4018 	 11.1678 	 27.556
| 39> H 	 -44.8406 	 12.815 	 29.0349
| 40> H 	 -50.3026 	 7.11427 	 26.6969
| 41> *
| 42>
| 43>                          ****END OF INPUT****

CARTESIAN COORDINATES (ANGSTROEM)
---------------------------------
  S    -45.931400   11.043800   27.552600
  C    -45.813300   12.434100   28.678900
  C    -47.074500   12.908200   29.032000
  C    -48.120600   12.106200   28.436600
  C    -47.704100   11.180600   27.504400
  H    -49.207300   12.156800   28.531600
  C    -47.146500   14.150800   29.818000
  H    -46.342700   14.249500   30.549000
  H    -48.022200   14.091200   30.481700
  C    -47.344800   15.485800   29.077700
  H    -48.173200   15.304000   28.369300
  H    -47.551200   16.167500   29.888900
  C    -46.074700   15.944800   28.382400
  H    -46.190700   16.907600   27.810500
  H    -45.233600   16.181600   29.001400
  H    -45.654400   15.238600   27.628200
  S    -48.556900    8.581710   27.599000
  C    -49.906500    8.083650   26.635000
  C    -50.393800    9.109910   25.872300
  C    -49.728500   10.367400   26.103000
  C    -48.590500   10.178300   26.921800
  H    -51.264800    8.904800   25.282800
  C    -50.188000   11.697200   25.564300
  H    -49.867200   11.891600   24.536600
  H    -49.781000   12.602800   26.089800
  C    -51.676100   12.112400   25.646600
  H    -52.353400   11.407500   25.123600
  H    -51.711100   13.096400   25.179900
  C    -52.223800   12.186900   27.060600
  H    -53.285200   12.599600   26.986100
  H    -51.632300   12.840100   27.644200
  H    -52.401800   11.167800   27.556000
  H    -44.840600   12.815000   29.034900
  H    -50.302600    7.114270   26.696900

 Total Charge           Charge          ....    0
 Multiplicity           Mult            ....    1
 Number of Electrons    NEL             ....  134
 Basis Dimension        Dim             ....  322

ORBITAL ENERGIES
----------------

  NO   OCC          E(Eh)            E(eV)
   0   2.0000     -88.965235     -2420.8671
   1   2.0000     -88.964053     -2420.8349
   2   2.0000     -10.328967      -281.0655
   3   2.0000     -10.326999      -281.0119
   4   2.0000     -10.321017      -280.8492
   5   2.0000     -10.312528      -280.6181
   6   2.0000     -10.310836      -280.5721
   7   2.0000     -10.304696      -280.4050
   8   2.0000     -10.298543      -280.2376
   9   2.0000     -10.294592      -280.1301
  10   2.0000     -10.293811      -280.1088
  11   2.0000     -10.290667      -280.0233
  12   2.0000     -10.289615      -279.9947
  13   2.0000     -10.289115      -279.9811
  14   2.0000     -10.283482      -279.8278
  15   2.0000     -10.277744      -279.6716
  16   2.0000      -8.080691      -219.8868
  17   2.0000      -8.077740      -219.8065
  18   2.0000      -6.039103      -164.3324
  19   2.0000      -6.036287      -164.2557
  20   2.0000      -6.035049      -164.2220
  21   2.0000      -6.032400      -164.1500
  22   2.0000      -6.031546      -164.1267
  23   2.0000      -6.028517      -164.0443
  24   2.0000      -1.005273       -27.3549
  25   2.0000      -0.980314       -26.6757
  26   2.0000      -0.915447       -24.9106
  27   2.0000      -0.910209       -24.7681
  28   2.0000      -0.869840       -23.6696
  29   2.0000      -0.849769       -23.1234
  30   2.0000      -0.842301       -22.9202
  31   2.0000      -0.815854       -22.2005
  32   2.0000      -0.784070       -21.3356
  33   2.0000      -0.773977       -21.0610
  34   2.0000      -0.709208       -19.2985
  35   2.0000      -0.692760       -18.8510
  36   2.0000      -0.691559       -18.8183
  37   2.0000      -0.652844       -17.7648
  38   2.0000      -0.643999       -17.5241
  39   2.0000      -0.618187       -16.8217
  40   2.0000      -0.605361       -16.4727
  41   2.0000      -0.577863       -15.7245
  42   2.0000      -0.552928       -15.0459
  43   2.0000      -0.544168       -14.8076
  44   2.0000      -0.542455       -14.7609
  45   2.0000      -0.539402       -14.6779
  46   2.0000      -0.518355       -14.1052
  47   2.0000      -0.515230       -14.0201
  48   2.0000      -0.498496       -13.5648
  49   2.0000      -0.492882       -13.4120
  50   2.0000      -0.489853       -13.3296
  51   2.0000      -0.480720       -13.0811
  52   2.0000      -0.475843       -12.9484
  53   2.0000      -0.465621       -12.6702
  54   2.0000      -0.459454       -12.5024
  55   2.0000      -0.444361       -12.0917
  56   2.0000      -0.439243       -11.9524
  57   2.0000      -0.435365       -11.8469
  58   2.0000      -0.434581       -11.8255
  59   2.0000      -0.424174       -11.5423
  60   2.0000      -0.420623       -11.4457
  61   2.0000      -0.410459       -11.1692
  62   2.0000      -0.408644       -11.1198
  63   2.0000      -0.343897        -9.3579
  64   2.0000      -0.327848        -8.9212
  65   2.0000      -0.324963        -8.8427
  66   2.0000      -0.299300        -8.1444
  67   0.0000       0.033760         0.9187
  68   0.0000       0.061187         1.6650
  69   0.0000       0.116589         3.1725
  70   0.0000       0.118438         3.2229
  71   0.0000       0.122098         3.3225

MULLIKEN ATOMIC CHARGES
-----------------------
   0 S :    0.090809
   1 C :   -0.132145
   2 C :   -0.052919
   3 C :    0.041691
   4 C :   -0.173902
   5 H :    0.015396
   6 C :    0.028950
   7 H :    0.019460
   8 H :    0.017332
   9 C :   -0.014398
  10 H :    0.036245
  11 H :    0.033635
  12 C :   -0.083731
  13 H :    0.033875
  14 H :    0.016479
  15 H :    0.040940
  16 S :    0.120617
  17 C :   -0.087264
  18 C :   -0.015996
  19 C :   -0.011796
  20 C :   -0.153740
  21 H :    0.014138
  22 C :    0.035194
  23 H :    0.040705
  24 H :    0.021711
  25 C :   -0.087405
  26 H :    0.028612
  27 H :    0.034109
  28 C :   -0.079277
  29 H :    0.039656
  30 H :    0.024284
  31 H :    0.053458
  32 H :    0.063217
  33 H :    0.042061
Sum of atomic charges:    0.0000000

LOEWDIN ATOMIC CHARGES
----------------------
   0 S :    0.370123
   1 C :   -0.176777
   2 C :   -0.066561
   3 C :   -0.056576
   4 C :   -0.191722
   5 H :    0.033269
   6 C :   -0.040386
   7 H :    0.029623
   8 H :    0.031063
   9 C :   -0.031151
  10 H :    0.030008
  11 H :    0.028256
  12 C :   -0.081563
  13 H :    0.030832
  14 H :    0.019152
  15 H :    0.029614
  16 S :    0.426674
  17 C :   -0.180259
  18 C :   -0.068421
  19 C :   -0.052374
  20 C :   -0.206469
  21 H :    0.030278
  22 C :   -0.044260
  23 H :    0.035101
  24 H :    0.035916
  25 C :   -0.042900
  26 H :    0.019769
  27 H :    0.028247
  28 C :   -0.074034
  29 H :    0.034803
  30 H :    0.011345
  31 H :    0.036542
  32 H :    0.033236
  33 H :    0.019603

  Mayer bond orders larger than 0.100000
B(  0-S ,  1-C ) :   1.1327 B(  0-S ,  4-C ) :   1.1313 B(  1-C ,  2-C ) :   1.6055
B(  1-C , 32-H ) :   0.9662 B(  2-C ,  3-C ) :   1.2049 B(  2-C ,  6-C ) :   1.0479
B(  3-C ,  4-C ) :   1.5986 B(  3-C ,  5-H ) :   0.9901 B(  4-C , 20-C ) :   1.0271
B(  6-C ,  7-H ) :   0.9387 B(  6-C ,  8-H ) :   0.9325 B(  6-C ,  9-C ) :   1.0678
B(  9-C , 10-H ) :   0.9538 B(  9-C , 11-H ) :   0.9518 B(  9-C , 12-C ) :   1.0824
B( 12-C , 13-H ) :   0.9724 B( 12-C , 14-H ) :   0.9732 B( 12-C , 15-H ) :   0.9729
B( 16-S , 17-C ) :   1.1642 B( 16-S , 20-C ) :   1.1658 B( 17-C , 18-C ) :   1.6046
B( 17-C , 33-H ) :   0.9749 B( 18-C , 19-C ) :   1.2326 B( 18-C , 21-H ) :   0.9968
B( 19-C , 20-C ) :   1.5755 B( 19-C , 22-C ) :   1.0446 B( 22-C , 23-H ) :   0.9336
B( 22-C , 24-H ) :   0.9382 B( 22-C , 25-C ) :   1.0712 B( 25-C , 26-H ) :   0.9516
B( 25-C , 27-H ) :   0.9552 B( 25-C , 28-C ) :   1.0836 B( 28-C , 29-H ) :   0.9705
B( 28-C , 30-H ) :   0.9715 B( 28-C , 31-H ) :   0.9717

Dispersion correction           -0.014967086
FINAL SINGLE POINT ENERGY     -1339.877737746719

DIPOLE MOMENT
-------------
                                X             Y             Z
Electronic contribution:     11.98942     -25.42216      -0.95671
Nuclear contribution   :    -12.48834      25.90426       1.09514
                        -----------------------------------------
Total Dipole Moment    :     -0.49892       0.48210       0.13842
                        -----------------------------------------
Magnitude (a.u.)       :      0.70746
Magnitude (Debye)      :      1.79822

Rotational constants in cm-1:     0.019474     0.009058     0.006868
Rotational constants in MHz :   583.802786   271.543664   205.910870

                             ****ORCA TERMINATED NORMALLY****
TOTAL RUN TIME: 0 days 0 hours 0 minutes 22 seconds 106 msec
