                         Program Version 4.2.1 -  RELEASE  -
|  1> ! wB97X-D3 SP def2-SVP
|  2> %pal
|  3> nprocs 24
|  4> end
|  5>
|  6> * xyz 0 1
|  7> S 	 -34.5753 	 4.83042 	 4.76363
|  8> C 	 -34.9547 	 3.35654 	 3.85013
|  9> C 	 -34.1532 	 2.30269 	 4.31941
| 10> C 	 -33.1641 	 2.75835 	 5.26071
| 11> C 	 -33.1083 	 4.11422 	 5.45123
| 12> H 	 -32.4531 	 2.07189 	 5.77271
| 13> C 	 -34.4651 	 0.896272 	 3.98985
| 14> H 	 -35.5384 	 0.884688 	 3.85036
| 15> H 	 -34.0339 	 0.173561 	 4.77703
| 16> C 	 -34.0518 	 0.386798 	 2.55615
| 17> H 	 -34.4116 	 1.08998 	 1.81496
| 18> H 	 -32.9276 	 0.457973 	 2.54639
| 19> C 	 -34.4967 	 -1.0647 	 2.2536
| 20> H 	 -35.5102 	 -1.17265 	 2.02983
| 21> H 	 -33.9087 	 -1.56592 	 1.38788
| 22> H 	 -34.2586 	 -1.71318 	 3.08383
| 23> S 	 -33.0535 	 5.52022 	 7.81652
| 24> C 	 -31.5922 	 5.69681 	 8.7235
| 25> C 	 -30.4907 	 5.1214 	 8.06827
| 26> C 	 -30.86 	 4.58392 	 6.74034
| 27> C 	 -32.232 	 4.77644 	 6.42422
| 28> H 	 -29.4569 	 5.1878 	 8.55053
| 29> C 	 -29.7594 	 4.04905 	 5.88212
| 30> H 	 -29.9164 	 3.00414 	 5.46585
| 31> H 	 -28.9377 	 3.72188 	 6.48414
| 32> C 	 -29.118 	 4.88259 	 4.71231
| 33> H 	 -28.2547 	 4.3929 	 4.26171
| 34> H 	 -28.746 	 5.85249 	 5.03137
| 35> C 	 -30.1112 	 5.19855 	 3.57997
| 36> H 	 -31.0625 	 5.73038 	 3.80788
| 37> H 	 -30.4539 	 4.29255 	 3.07815
| 38> H 	 -29.6809 	 5.8028 	 2.75456
| 39> H 	 -35.7044 	 3.2934 	 3.13057
| 40> H 	 -31.5816 	 5.97708 	 9.72932
| 41> *
| 42>
| 43>                          ****END OF INPUT****

CARTESIAN COORDINATES (ANGSTROEM)
---------------------------------
  S    -34.575300    4.830420    4.763630
  C    -34.954700    3.356540    3.850130
  C    -34.153200    2.302690    4.319410
  C    -33.164100    2.758350    5.260710
  C    -33.108300    4.114220    5.451230
  H    -32.453100    2.071890    5.772710
  C    -34.465100    0.896272    3.989850
  H    -35.538400    0.884688    3.850360
  H    -34.033900    0.173561    4.777030
  C    -34.051800    0.386798    2.556150
  H    -34.411600    1.089980    1.814960
  H    -32.927600    0.457973    2.546390
  C    -34.496700   -1.064700    2.253600
  H    -35.510200   -1.172650    2.029830
  H    -33.908700   -1.565920    1.387880
  H    -34.258600   -1.713180    3.083830
  S    -33.053500    5.520220    7.816520
  C    -31.592200    5.696810    8.723500
  C    -30.490700    5.121400    8.068270
  C    -30.860000    4.583920    6.740340
  C    -32.232000    4.776440    6.424220
  H    -29.456900    5.187800    8.550530
  C    -29.759400    4.049050    5.882120
  H    -29.916400    3.004140    5.465850
  H    -28.937700    3.721880    6.484140
  C    -29.118000    4.882590    4.712310
  H    -28.254700    4.392900    4.261710
  H    -28.746000    5.852490    5.031370
  C    -30.111200    5.198550    3.579970
  H    -31.062500    5.730380    3.807880
  H    -30.453900    4.292550    3.078150
  H    -29.680900    5.802800    2.754560
  H    -35.704400    3.293400    3.130570
  H    -31.581600    5.977080    9.729320

 Total Charge           Charge          ....    0
 Multiplicity           Mult            ....    1
 Number of Electrons    NEL             ....  134
 Basis Dimension        Dim             ....  322

ORBITAL ENERGIES
----------------

  NO   OCC          E(Eh)            E(eV)
   0   2.0000     -88.967054     -2420.9166
   1   2.0000     -88.966902     -2420.9125
   2   2.0000     -10.337259      -281.2911
   3   2.0000     -10.333928      -281.2005
   4   2.0000     -10.317615      -280.7566
   5   2.0000     -10.317536      -280.7544
   6   2.0000     -10.316109      -280.7156
   7   2.0000     -10.308085      -280.4972
   8   2.0000     -10.304410      -280.3972
   9   2.0000     -10.298502      -280.2365
  10   2.0000     -10.298135      -280.2265
  11   2.0000     -10.295345      -280.1506
  12   2.0000     -10.294361      -280.1238
  13   2.0000     -10.289117      -279.9811
  14   2.0000     -10.283073      -279.8167
  15   2.0000     -10.270258      -279.4679
  16   2.0000      -8.081820      -219.9175
  17   2.0000      -8.080806      -219.8899
  18   2.0000      -6.040323      -164.3655
  19   2.0000      -6.039449      -164.3418
  20   2.0000      -6.036201      -164.2534
  21   2.0000      -6.035505      -164.2344
  22   2.0000      -6.032677      -164.1575
  23   2.0000      -6.031394      -164.1226
  24   2.0000      -1.002024       -27.2665
  25   2.0000      -0.978898       -26.6372
  26   2.0000      -0.909686       -24.7538
  27   2.0000      -0.901065       -24.5192
  28   2.0000      -0.867369       -23.6023
  29   2.0000      -0.847636       -23.0653
  30   2.0000      -0.842207       -22.9176
  31   2.0000      -0.814196       -22.1554
  32   2.0000      -0.780085       -21.2272
  33   2.0000      -0.769619       -20.9424
  34   2.0000      -0.707206       -19.2440
  35   2.0000      -0.701634       -19.0924
  36   2.0000      -0.692691       -18.8491
  37   2.0000      -0.659009       -17.9325
  38   2.0000      -0.641339       -17.4517
  39   2.0000      -0.619409       -16.8550
  40   2.0000      -0.595885       -16.2148
  41   2.0000      -0.571866       -15.5613
  42   2.0000      -0.560368       -15.2484
  43   2.0000      -0.544222       -14.8090
  44   2.0000      -0.533775       -14.5248
  45   2.0000      -0.519964       -14.1490
  46   2.0000      -0.510988       -13.9047
  47   2.0000      -0.509909       -13.8753
  48   2.0000      -0.505617       -13.7585
  49   2.0000      -0.496787       -13.5183
  50   2.0000      -0.493516       -13.4293
  51   2.0000      -0.475524       -12.9397
  52   2.0000      -0.468035       -12.7359
  53   2.0000      -0.466855       -12.7038
  54   2.0000      -0.455700       -12.4002
  55   2.0000      -0.448357       -12.2004
  56   2.0000      -0.440359       -11.9828
  57   2.0000      -0.433566       -11.7979
  58   2.0000      -0.429012       -11.6740
  59   2.0000      -0.425425       -11.5764
  60   2.0000      -0.419389       -11.4122
  61   2.0000      -0.414332       -11.2745
  62   2.0000      -0.405800       -11.0424
  63   2.0000      -0.349335        -9.5059
  64   2.0000      -0.329317        -8.9612
  65   2.0000      -0.324063        -8.8182
  66   2.0000      -0.290238        -7.8978
  67   0.0000       0.022643         0.6162
  68   0.0000       0.057910         1.5758
  69   0.0000       0.099965         2.7202
  70   0.0000       0.115591         3.1454
  71   0.0000       0.123729         3.3668

MULLIKEN ATOMIC CHARGES
-----------------------
   0 S :    0.092104
   1 C :   -0.096080
   2 C :   -0.066634
   3 C :    0.020110
   4 C :   -0.136415
   5 H :    0.030914
   6 C :    0.022377
   7 H :    0.027874
   8 H :    0.047706
   9 C :   -0.091797
  10 H :    0.028830
  11 H :    0.032096
  12 C :   -0.042590
  13 H :    0.027037
  14 H :    0.044602
  15 H :    0.024791
  16 S :    0.098818
  17 C :   -0.078563
  18 C :   -0.057880
  19 C :   -0.046004
  20 C :   -0.111549
  21 H :    0.056352
  22 C :    0.039982
  23 H :    0.023617
  24 H :    0.004336
  25 C :   -0.024084
  26 H :    0.028057
  27 H :    0.022777
  28 C :   -0.089891
  29 H :    0.045115
  30 H :    0.019591
  31 H :    0.028646
  32 H :    0.028101
  33 H :    0.047657
Sum of atomic charges:   -0.0000000

LOEWDIN ATOMIC CHARGES
----------------------
   0 S :    0.384236
   1 C :   -0.174143
   2 C :   -0.062732
   3 C :   -0.059940
   4 C :   -0.191712
   5 H :    0.037984
   6 C :   -0.041739
   7 H :    0.032587
   8 H :    0.041811
   9 C :   -0.040539
  10 H :    0.019673
  11 H :    0.025501
  12 C :   -0.069263
  13 H :    0.015466
  14 H :    0.040154
  15 H :    0.023752
  16 S :    0.410270
  17 C :   -0.186346
  18 C :   -0.075746
  19 C :   -0.053559
  20 C :   -0.188061
  21 H :    0.047561
  22 C :   -0.048042
  23 H :    0.037052
  24 H :    0.028482
  25 C :   -0.032220
  26 H :    0.028156
  27 H :    0.021878
  28 C :   -0.080800
  29 H :    0.029382
  30 H :    0.020520
  31 H :    0.026497
  32 H :    0.014220
  33 H :    0.019660

  Mayer bond orders larger than 0.100000
B(  0-S ,  1-C ) :   1.1357 B(  0-S ,  4-C ) :   1.1378 B(  1-C ,  2-C ) :   1.5812
B(  1-C , 32-H ) :   0.9807 B(  2-C ,  3-C ) :   1.2497 B(  2-C ,  6-C ) :   1.0347
B(  3-C ,  4-C ) :   1.5687 B(  3-C ,  5-H ) :   0.9846 B(  4-C , 20-C ) :   1.0373
B(  6-C ,  7-H ) :   0.9400 B(  6-C ,  8-H ) :   0.9430 B(  6-C ,  9-C ) :   1.0524
B(  9-C , 10-H ) :   0.9601 B(  9-C , 11-H ) :   0.9580 B(  9-C , 12-C ) :   1.0723
B( 12-C , 13-H ) :   0.9776 B( 12-C , 14-H ) :   0.9745 B( 12-C , 15-H ) :   0.9730
B( 16-S , 17-C ) :   1.1724 B( 16-S , 20-C ) :   1.1369 B( 17-C , 18-C ) :   1.6015
B( 17-C , 33-H ) :   0.9718 B( 18-C , 19-C ) :   1.2451 B( 18-C , 21-H ) :   0.9765
B( 19-C , 20-C ) :   1.5795 B( 19-C , 22-C ) :   1.0578 B( 22-C , 23-H ) :   0.9312
B( 22-C , 24-H ) :   0.9254 B( 22-C , 25-C ) :   1.0693 B( 25-C , 26-H ) :   0.9510
B( 25-C , 27-H ) :   0.9564 B( 25-C , 28-C ) :   1.0774 B( 28-C , 29-H ) :   0.9737
B( 28-C , 30-H ) :   0.9750 B( 28-C , 31-H ) :   0.9735

Dispersion correction           -0.014371280
FINAL SINGLE POINT ENERGY     -1339.857013543895

DIPOLE MOMENT
-------------
                                X             Y             Z
Electronic contribution:    -10.55788      18.59963      17.91667
Nuclear contribution   :     10.87368     -19.25701     -17.92708
                        -----------------------------------------
Total Dipole Moment    :      0.31580      -0.65738      -0.01041
                        -----------------------------------------
Magnitude (a.u.)       :      0.72938
Magnitude (Debye)      :      1.85393

Rotational constants in cm-1:     0.020083     0.007858     0.006747
Rotational constants in MHz :   602.068517   235.583650   202.283266

                             ****ORCA TERMINATED NORMALLY****
TOTAL RUN TIME: 0 days 0 hours 0 minutes 21 seconds 416 msec
