                         Program Version 4.2.1 -  RELEASE  -
|  1> ! wB97X-D3 SP def2-SVP
|  2> %pal
|  3> nprocs 24
|  4> end
|  5>
|  6> * xyz 0 1
|  7> S 	 -57.0036 	 1.28562 	 -20.193
|  8> C 	 -58.1279 	 1.3825 	 -21.547
|  9> C 	 -59.0148 	 2.39592 	 -21.3532
| 10> C 	 -58.7285 	 3.21723 	 -20.1809
| 11> C 	 -57.7629 	 2.60515 	 -19.3485
| 12> H 	 -59.2616 	 4.04435 	 -19.8043
| 13> C 	 -60.1506 	 2.71923 	 -22.2562
| 14> H 	 -60.5717 	 1.85716 	 -22.698
| 15> H 	 -59.661 	 3.1558 	 -23.1591
| 16> C 	 -61.2007 	 3.63441 	 -21.6292
| 17> H 	 -61.4229 	 3.2353 	 -20.6562
| 18> H 	 -60.6932 	 4.57869 	 -21.4291
| 19> C 	 -62.3845 	 3.90037 	 -22.5459
| 20> H 	 -62.8667 	 4.77809 	 -22.1387
| 21> H 	 -61.9531 	 4.10977 	 -23.5308
| 22> H 	 -63.0118 	 3.03694 	 -22.7024
| 23> S 	 -57.9093 	 2.47441 	 -16.7364
| 24> C 	 -57.1974 	 3.67425 	 -15.7079
| 25> C 	 -56.4026 	 4.52851 	 -16.4325
| 26> C 	 -56.5332 	 4.36166 	 -17.8826
| 27> C 	 -57.1667 	 3.18118 	 -18.1074
| 28> H 	 -55.8205 	 5.25017 	 -16.0068
| 29> C 	 -55.8946 	 5.18771 	 -18.9298
| 30> H 	 -55.979 	 4.54332 	 -19.7577
| 31> H 	 -54.8846 	 5.20581 	 -18.623
| 32> C 	 -56.537 	 6.59041 	 -19.132
| 33> H 	 -56.7977 	 7.10878 	 -18.2646
| 34> H 	 -57.5074 	 6.49918 	 -19.6948
| 35> C 	 -55.5063 	 7.5382 	 -19.9441
| 36> H 	 -54.5742 	 7.61782 	 -19.3074
| 37> H 	 -55.9157 	 8.53849 	 -20.038
| 38> H 	 -55.2267 	 7.08621 	 -20.889
| 39> H 	 -58.2278 	 0.683879 	 -22.3334
| 40> H 	 -57.1024 	 3.45241 	 -14.6358
| 41> *
| 42>
| 43>                          ****END OF INPUT****

CARTESIAN COORDINATES (ANGSTROEM)
---------------------------------
  S    -57.003600    1.285620  -20.193000
  C    -58.127900    1.382500  -21.547000
  C    -59.014800    2.395920  -21.353200
  C    -58.728500    3.217230  -20.180900
  C    -57.762900    2.605150  -19.348500
  H    -59.261600    4.044350  -19.804300
  C    -60.150600    2.719230  -22.256200
  H    -60.571700    1.857160  -22.698000
  H    -59.661000    3.155800  -23.159100
  C    -61.200700    3.634410  -21.629200
  H    -61.422900    3.235300  -20.656200
  H    -60.693200    4.578690  -21.429100
  C    -62.384500    3.900370  -22.545900
  H    -62.866700    4.778090  -22.138700
  H    -61.953100    4.109770  -23.530800
  H    -63.011800    3.036940  -22.702400
  S    -57.909300    2.474410  -16.736400
  C    -57.197400    3.674250  -15.707900
  C    -56.402600    4.528510  -16.432500
  C    -56.533200    4.361660  -17.882600
  C    -57.166700    3.181180  -18.107400
  H    -55.820500    5.250170  -16.006800
  C    -55.894600    5.187710  -18.929800
  H    -55.979000    4.543320  -19.757700
  H    -54.884600    5.205810  -18.623000
  C    -56.537000    6.590410  -19.132000
  H    -56.797700    7.108780  -18.264600
  H    -57.507400    6.499180  -19.694800
  C    -55.506300    7.538200  -19.944100
  H    -54.574200    7.617820  -19.307400
  H    -55.915700    8.538490  -20.038000
  H    -55.226700    7.086210  -20.889000
  H    -58.227800    0.683879  -22.333400
  H    -57.102400    3.452410  -14.635800

 Total Charge           Charge          ....    0
 Multiplicity           Mult            ....    1
 Number of Electrons    NEL             ....  134
 Basis Dimension        Dim             ....  322

ORBITAL ENERGIES
----------------

  NO   OCC          E(Eh)            E(eV)
   0   2.0000     -88.963480     -2420.8194
   1   2.0000     -88.957809     -2420.6650
   2   2.0000     -10.329700      -281.0854
   3   2.0000     -10.317490      -280.7532
   4   2.0000     -10.313905      -280.6556
   5   2.0000     -10.306644      -280.4580
   6   2.0000     -10.299562      -280.2653
   7   2.0000     -10.298866      -280.2464
   8   2.0000     -10.294223      -280.1201
   9   2.0000     -10.293773      -280.1078
  10   2.0000     -10.289856      -280.0012
  11   2.0000     -10.285809      -279.8911
  12   2.0000     -10.285331      -279.8781
  13   2.0000     -10.284020      -279.8424
  14   2.0000     -10.283289      -279.8225
  15   2.0000     -10.278096      -279.6812
  16   2.0000      -8.077934      -219.8118
  17   2.0000      -8.074178      -219.7096
  18   2.0000      -6.036516      -164.2620
  19   2.0000      -6.032657      -164.1569
  20   2.0000      -6.032290      -164.1470
  21   2.0000      -6.028829      -164.0528
  22   2.0000      -6.028445      -164.0423
  23   2.0000      -6.024873      -163.9451
  24   2.0000      -1.009085       -27.4586
  25   2.0000      -0.984136       -26.7797
  26   2.0000      -0.916875       -24.9494
  27   2.0000      -0.909176       -24.7399
  28   2.0000      -0.870038       -23.6749
  29   2.0000      -0.846845       -23.0438
  30   2.0000      -0.844917       -22.9914
  31   2.0000      -0.815323       -22.1861
  32   2.0000      -0.781365       -21.2620
  33   2.0000      -0.771837       -21.0028
  34   2.0000      -0.714400       -19.4398
  35   2.0000      -0.708178       -19.2705
  36   2.0000      -0.684316       -18.6212
  37   2.0000      -0.668658       -18.1951
  38   2.0000      -0.643430       -17.5086
  39   2.0000      -0.615398       -16.7458
  40   2.0000      -0.594772       -16.1846
  41   2.0000      -0.570984       -15.5373
  42   2.0000      -0.569591       -15.4994
  43   2.0000      -0.558578       -15.1997
  44   2.0000      -0.532329       -14.4854
  45   2.0000      -0.531092       -14.4518
  46   2.0000      -0.522292       -14.2123
  47   2.0000      -0.512477       -13.9452
  48   2.0000      -0.508675       -13.8418
  49   2.0000      -0.498855       -13.5745
  50   2.0000      -0.488231       -13.2854
  51   2.0000      -0.478204       -13.0126
  52   2.0000      -0.469681       -12.7807
  53   2.0000      -0.462858       -12.5950
  54   2.0000      -0.453163       -12.3312
  55   2.0000      -0.451556       -12.2875
  56   2.0000      -0.444445       -12.0940
  57   2.0000      -0.443104       -12.0575
  58   2.0000      -0.433610       -11.7991
  59   2.0000      -0.427430       -11.6310
  60   2.0000      -0.423886       -11.5345
  61   2.0000      -0.415760       -11.3134
  62   2.0000      -0.413699       -11.2573
  63   2.0000      -0.333950        -9.0872
  64   2.0000      -0.327494        -8.9116
  65   2.0000      -0.317957        -8.6520
  66   2.0000      -0.311384        -8.4732
  67   0.0000       0.044607         1.2138
  68   0.0000       0.063275         1.7218
  69   0.0000       0.111341         3.0297
  70   0.0000       0.124715         3.3937
  71   0.0000       0.131945         3.5904

MULLIKEN ATOMIC CHARGES
-----------------------
   0 S :    0.107196
   1 C :   -0.103571
   2 C :   -0.092616
   3 C :    0.039932
   4 C :   -0.173688
   5 H :    0.006540
   6 C :    0.071009
   7 H :    0.003540
   8 H :    0.035052
   9 C :   -0.115282
  10 H :    0.033553
  11 H :    0.032276
  12 C :    0.011773
  13 H :    0.038180
  14 H :    0.019830
  15 H :    0.034873
  16 S :    0.099266
  17 C :   -0.092791
  18 C :    0.012347
  19 C :   -0.075475
  20 C :   -0.169489
  21 H :   -0.020260
  22 C :    0.131724
  23 H :    0.019444
  24 H :    0.019770
  25 C :   -0.078301
  26 H :    0.022867
  27 H :    0.037201
  28 C :   -0.070332
  29 H :    0.035545
  30 H :    0.039857
  31 H :    0.040907
  32 H :    0.026263
  33 H :    0.072862
Sum of atomic charges:   -0.0000000

LOEWDIN ATOMIC CHARGES
----------------------
   0 S :    0.404618
   1 C :   -0.195458
   2 C :   -0.056890
   3 C :   -0.062519
   4 C :   -0.205279
   5 H :    0.022865
   6 C :   -0.038603
   7 H :    0.021604
   8 H :    0.039784
   9 C :   -0.041221
  10 H :    0.021998
  11 H :    0.024156
  12 C :   -0.056653
  13 H :    0.029520
  14 H :    0.027412
  15 H :    0.024582
  16 S :    0.424674
  17 C :   -0.193722
  18 C :   -0.054422
  19 C :   -0.049122
  20 C :   -0.216611
  21 H :    0.012357
  22 C :   -0.023687
  23 H :    0.030920
  24 H :    0.030849
  25 C :   -0.029400
  26 H :    0.013744
  27 H :    0.029974
  28 C :   -0.065204
  29 H :    0.028808
  30 H :    0.023385
  31 H :    0.023617
  32 H :    0.021387
  33 H :    0.032538

  Mayer bond orders larger than 0.100000
B(  0-S ,  1-C ) :   1.1226 B(  0-S ,  4-C ) :   1.1682 B(  1-C ,  2-C ) :   1.6313
B(  1-C , 32-H ) :   0.9761 B(  2-C ,  3-C ) :   1.2199 B(  2-C ,  6-C ) :   1.0227
B(  3-C ,  4-C ) :   1.5714 B(  3-C ,  5-H ) :   0.9937 B(  4-C , 20-C ) :   0.9480
B(  6-C ,  7-H ) :   0.9378 B(  6-C ,  8-H ) :   0.9203 B(  6-C ,  9-C ) :   1.0787
B(  9-C , 10-H ) :   0.9593 B(  9-C , 11-H ) :   0.9401 B(  9-C , 12-C ) :   1.0783
B( 12-C , 13-H ) :   0.9729 B( 12-C , 14-H ) :   0.9699 B( 12-C , 15-H ) :   0.9749
B( 16-S , 17-C ) :   1.1546 B( 16-S , 20-C ) :   1.1612 B( 17-C , 18-C ) :   1.6215
B( 17-C , 33-H ) :   0.9610 B( 18-C , 19-C ) :   1.1951 B( 18-C , 21-H ) :   1.0028
B( 19-C , 20-C ) :   1.6418 B( 19-C , 22-C ) :   1.0370 B( 22-C , 23-H ) :   0.9259
B( 22-C , 24-H ) :   0.9364 B( 22-C , 25-C ) :   1.0427 B( 25-C , 26-H ) :   0.9681
B( 25-C , 27-H ) :   0.9530 B( 25-C , 28-C ) :   1.0711 B( 28-C , 29-H ) :   0.9794
B( 28-C , 30-H ) :   0.9775 B( 28-C , 31-H ) :   0.9778

Dispersion correction           -0.014118350
FINAL SINGLE POINT ENERGY     -1339.863019915734

DIPOLE MOMENT
-------------
                                X             Y             Z
Electronic contribution:      8.25427     -20.72283      15.39788
Nuclear contribution   :     -8.39229      21.25856     -15.67758
                        -----------------------------------------
Total Dipole Moment    :     -0.13802       0.53574      -0.27970
                        -----------------------------------------
Magnitude (a.u.)       :      0.61991
Magnitude (Debye)      :      1.57570

Rotational constants in cm-1:     0.015955     0.008723     0.007330
Rotational constants in MHz :   478.329434   261.519117   219.734461

                             ****ORCA TERMINATED NORMALLY****
TOTAL RUN TIME: 0 days 0 hours 0 minutes 21 seconds 467 msec
