                         Program Version 4.2.1 -  RELEASE  -
|  1> ! wB97X-D3 SP def2-SVP
|  2> %pal
|  3> nprocs 24
|  4> end
|  5>
|  6> * xyz 0 1
|  7> S 	 -31.8039 	 11.7261 	 11.5122
|  8> C 	 -31.9868 	 13.4499 	 11.4025
|  9> C 	 -32.8928 	 14.0088 	 12.2218
| 10> C 	 -33.4985 	 13.0084 	 13.0493
| 11> C 	 -33.1378 	 11.7507 	 12.6575
| 12> H 	 -34.2796 	 13.2067 	 13.8341
| 13> C 	 -33.2459 	 15.4071 	 12.2609
| 14> H 	 -32.5304 	 15.8978 	 11.6095
| 15> H 	 -33.0679 	 15.7466 	 13.3015
| 16> C 	 -34.6619 	 15.7857 	 11.7587
| 17> H 	 -34.8467 	 15.325 	 10.8062
| 18> H 	 -35.5257 	 15.4664 	 12.4475
| 19> C 	 -34.7514 	 17.3305 	 11.6214
| 20> H 	 -35.6492 	 17.5886 	 10.9928
| 21> H 	 -34.8862 	 17.7752 	 12.629
| 22> H 	 -33.9557 	 17.7745 	 11.1373
| 23> S 	 -32.1344 	 9.47534 	 13.8631
| 24> C 	 -33.2872 	 8.37416 	 14.6359
| 25> C 	 -34.5852 	 8.8809 	 14.6696
| 26> C 	 -34.7505 	 10.0728 	 13.8491
| 27> C 	 -33.4952 	 10.5299 	 13.3593
| 28> H 	 -35.333 	 8.27441 	 15.1437
| 29> C 	 -36.0473 	 10.7068 	 13.6325
| 30> H 	 -35.9104 	 11.7651 	 13.3076
| 31> H 	 -36.508 	 10.7435 	 14.6175
| 32> C 	 -36.9623 	 9.97409 	 12.6672
| 33> H 	 -37.3278 	 9.03089 	 13.0052
| 34> H 	 -36.47 	 9.7518 	 11.7234
| 35> C 	 -38.1853 	 10.7755 	 12.181
| 36> H 	 -37.8273 	 11.6434 	 11.6451
| 37> H 	 -38.9105 	 11.031 	 12.9167
| 38> H 	 -38.7022 	 10.2972 	 11.344
| 39> H 	 -31.446 	 14.0731 	 10.6724
| 40> H 	 -33.0292 	 7.5455 	 15.3383
| 41> *
| 42>
| 43>                          ****END OF INPUT****

CARTESIAN COORDINATES (ANGSTROEM)
---------------------------------
  S    -31.803900   11.726100   11.512200
  C    -31.986800   13.449900   11.402500
  C    -32.892800   14.008800   12.221800
  C    -33.498500   13.008400   13.049300
  C    -33.137800   11.750700   12.657500
  H    -34.279600   13.206700   13.834100
  C    -33.245900   15.407100   12.260900
  H    -32.530400   15.897800   11.609500
  H    -33.067900   15.746600   13.301500
  C    -34.661900   15.785700   11.758700
  H    -34.846700   15.325000   10.806200
  H    -35.525700   15.466400   12.447500
  C    -34.751400   17.330500   11.621400
  H    -35.649200   17.588600   10.992800
  H    -34.886200   17.775200   12.629000
  H    -33.955700   17.774500   11.137300
  S    -32.134400    9.475340   13.863100
  C    -33.287200    8.374160   14.635900
  C    -34.585200    8.880900   14.669600
  C    -34.750500   10.072800   13.849100
  C    -33.495200   10.529900   13.359300
  H    -35.333000    8.274410   15.143700
  C    -36.047300   10.706800   13.632500
  H    -35.910400   11.765100   13.307600
  H    -36.508000   10.743500   14.617500
  C    -36.962300    9.974090   12.667200
  H    -37.327800    9.030890   13.005200
  H    -36.470000    9.751800   11.723400
  C    -38.185300   10.775500   12.181000
  H    -37.827300   11.643400   11.645100
  H    -38.910500   11.031000   12.916700
  H    -38.702200   10.297200   11.344000
  H    -31.446000   14.073100   10.672400
  H    -33.029200    7.545500   15.338300

 Total Charge           Charge          ....    0
 Multiplicity           Mult            ....    1
 Number of Electrons    NEL             ....  134
 Basis Dimension        Dim             ....  322

ORBITAL ENERGIES
----------------

  NO   OCC          E(Eh)            E(eV)
   0   2.0000     -88.966888     -2420.9121
   1   2.0000     -88.966049     -2420.8893
   2   2.0000     -10.328926      -281.0644
   3   2.0000     -10.326669      -281.0029
   4   2.0000     -10.319469      -280.8070
   5   2.0000     -10.307675      -280.4861
   6   2.0000     -10.305672      -280.4316
   7   2.0000     -10.296092      -280.1709
   8   2.0000     -10.295513      -280.1551
   9   2.0000     -10.295481      -280.1543
  10   2.0000     -10.290979      -280.0318
  11   2.0000     -10.290323      -280.0139
  12   2.0000     -10.289930      -280.0032
  13   2.0000     -10.281222      -279.7663
  14   2.0000     -10.279898      -279.7302
  15   2.0000     -10.271911      -279.5129
  16   2.0000      -8.081946      -219.9209
  17   2.0000      -8.079589      -219.8568
  18   2.0000      -6.040400      -164.3676
  19   2.0000      -6.038169      -164.3069
  20   2.0000      -6.036726      -164.2677
  21   2.0000      -6.034384      -164.2039
  22   2.0000      -6.032436      -164.1509
  23   2.0000      -6.030222      -164.0907
  24   2.0000      -1.008222       -27.4351
  25   2.0000      -0.977690       -26.6043
  26   2.0000      -0.917692       -24.9717
  27   2.0000      -0.911353       -24.7992
  28   2.0000      -0.868295       -23.6275
  29   2.0000      -0.855024       -23.2664
  30   2.0000      -0.847646       -23.0656
  31   2.0000      -0.815165       -22.1818
  32   2.0000      -0.782810       -21.3013
  33   2.0000      -0.767399       -20.8820
  34   2.0000      -0.710841       -19.3430
  35   2.0000      -0.701248       -19.0819
  36   2.0000      -0.692482       -18.8434
  37   2.0000      -0.657633       -17.8951
  38   2.0000      -0.635370       -17.2893
  39   2.0000      -0.621679       -16.9167
  40   2.0000      -0.590911       -16.0795
  41   2.0000      -0.573284       -15.5999
  42   2.0000      -0.569856       -15.5066
  43   2.0000      -0.555130       -15.1058
  44   2.0000      -0.526611       -14.3298
  45   2.0000      -0.523786       -14.2529
  46   2.0000      -0.519231       -14.1290
  47   2.0000      -0.514268       -13.9939
  48   2.0000      -0.504460       -13.7271
  49   2.0000      -0.492042       -13.3891
  50   2.0000      -0.486785       -13.2461
  51   2.0000      -0.485297       -13.2056
  52   2.0000      -0.466168       -12.6851
  53   2.0000      -0.464723       -12.6458
  54   2.0000      -0.454704       -12.3731
  55   2.0000      -0.447333       -12.1725
  56   2.0000      -0.442913       -12.0523
  57   2.0000      -0.438321       -11.9273
  58   2.0000      -0.434008       -11.8100
  59   2.0000      -0.427564       -11.6346
  60   2.0000      -0.427110       -11.6223
  61   2.0000      -0.423174       -11.5152
  62   2.0000      -0.416436       -11.3318
  63   2.0000      -0.351261        -9.5583
  64   2.0000      -0.330265        -8.9870
  65   2.0000      -0.328314        -8.9339
  66   2.0000      -0.284802        -7.7499
  67   0.0000       0.028176         0.7667
  68   0.0000       0.072950         1.9851
  69   0.0000       0.097253         2.6464
  70   0.0000       0.119084         3.2404
  71   0.0000       0.129231         3.5166

MULLIKEN ATOMIC CHARGES
-----------------------
   0 S :    0.108492
   1 C :   -0.124467
   2 C :   -0.078527
   3 C :    0.007340
   4 C :   -0.151084
   5 H :    0.041916
   6 C :    0.075154
   7 H :    0.004727
   8 H :    0.038678
   9 C :   -0.089324
  10 H :    0.030275
  11 H :    0.042007
  12 C :   -0.043021
  13 H :    0.037334
  14 H :    0.037961
  15 H :    0.017056
  16 S :    0.095660
  17 C :   -0.105892
  18 C :   -0.038751
  19 C :   -0.045840
  20 C :   -0.139375
  21 H :    0.020453
  22 C :    0.086373
  23 H :    0.013597
  24 H :    0.026917
  25 C :   -0.053557
  26 H :    0.017940
  27 H :    0.026976
  28 C :   -0.050064
  29 H :    0.020375
  30 H :    0.030311
  31 H :    0.025510
  32 H :    0.042641
  33 H :    0.072210
Sum of atomic charges:   -0.0000000

LOEWDIN ATOMIC CHARGES
----------------------
   0 S :    0.397195
   1 C :   -0.199602
   2 C :   -0.072443
   3 C :   -0.058415
   4 C :   -0.188139
   5 H :    0.041202
   6 C :   -0.035342
   7 H :    0.029493
   8 H :    0.039157
   9 C :   -0.037523
  10 H :    0.021198
  11 H :    0.031886
  12 C :   -0.063463
  13 H :    0.032658
  14 H :    0.029635
  15 H :    0.010258
  16 S :    0.374817
  17 C :   -0.191592
  18 C :   -0.066910
  19 C :   -0.052864
  20 C :   -0.183187
  21 H :    0.029660
  22 C :   -0.039243
  23 H :    0.033117
  24 H :    0.035683
  25 C :   -0.034944
  26 H :    0.017937
  27 H :    0.029584
  28 C :   -0.066254
  29 H :    0.023455
  30 H :    0.016947
  31 H :    0.029013
  32 H :    0.028171
  33 H :    0.038854

  Mayer bond orders larger than 0.100000
B(  0-S ,  1-C ) :   1.1138 B(  0-S ,  4-C ) :   1.1349 B(  1-C ,  2-C ) :   1.6657
B(  1-C , 32-H ) :   0.9520 B(  2-C ,  3-C ) :   1.2004 B(  2-C ,  6-C ) :   1.0488
B(  3-C ,  4-C ) :   1.5996 B(  3-C ,  5-H ) :   0.9787 B(  4-C , 20-C ) :   1.0528
B(  6-C ,  7-H ) :   0.9329 B(  6-C ,  8-H ) :   0.9240 B(  6-C ,  9-C ) :   1.0585
B(  9-C , 10-H ) :   0.9581 B(  9-C , 11-H ) :   0.9536 B(  9-C , 12-C ) :   1.0819
B( 12-C , 13-H ) :   0.9754 B( 12-C , 14-H ) :   0.9765 B( 12-C , 15-H ) :   0.9771
B( 16-S , 17-C ) :   1.1331 B( 16-S , 20-C ) :   1.1275 B( 17-C , 18-C ) :   1.6522
B( 17-C , 33-H ) :   0.9559 B( 18-C , 19-C ) :   1.2111 B( 18-C , 21-H ) :   0.9850
B( 19-C , 20-C ) :   1.5961 B( 19-C , 22-C ) :   1.0707 B( 22-C , 23-H ) :   0.9252
B( 22-C , 24-H ) :   0.9191 B( 22-C , 25-C ) :   1.0642 B( 25-C , 26-H ) :   0.9542
B( 25-C , 27-H ) :   0.9547 B( 25-C , 28-C ) :   1.0924 B( 28-C , 29-H ) :   0.9721
B( 28-C , 30-H ) :   0.9765 B( 28-C , 31-H ) :   0.9732

Dispersion correction           -0.013632909
FINAL SINGLE POINT ENERGY     -1339.876519568056

DIPOLE MOMENT
-------------
                                X             Y             Z
Electronic contribution:     24.93283     -18.73228       3.66238
Nuclear contribution   :    -25.50844      19.19404      -3.54748
                        -----------------------------------------
Total Dipole Moment    :     -0.57561       0.46176       0.11490
                        -----------------------------------------
Magnitude (a.u.)       :      0.74682
Magnitude (Debye)      :      1.89828

Rotational constants in cm-1:     0.017227     0.008943     0.006492
Rotational constants in MHz :   516.458428   268.103664   194.616972

                             ****ORCA TERMINATED NORMALLY****
TOTAL RUN TIME: 0 days 0 hours 0 minutes 21 seconds 303 msec
