                         Program Version 4.2.1 -  RELEASE  -
|  1> ! wB97X-D3 SP def2-SVP
|  2> %pal
|  3> nprocs 24
|  4> end
|  5>
|  6> * xyz 0 1
|  7> S 	 -49.9603 	 -4.1702 	 -18.4776
|  8> C 	 -51.3364 	 -4.23375 	 -19.6646
|  9> C 	 -52.0812 	 -3.02674 	 -19.7018
| 10> C 	 -51.4745 	 -2.06831 	 -18.8971
| 11> C 	 -50.4373 	 -2.56646 	 -18.0819
| 12> H 	 -51.7344 	 -1.05702 	 -18.739
| 13> C 	 -53.3392 	 -2.71744 	 -20.5611
| 14> H 	 -53.6865 	 -3.56259 	 -21.1259
| 15> H 	 -53.1292 	 -1.99093 	 -21.3413
| 16> C 	 -54.5046 	 -2.31624 	 -19.6948
| 17> H 	 -54.7878 	 -3.18692 	 -19.0956
| 18> H 	 -54.2148 	 -1.51202 	 -19.0259
| 19> C 	 -55.699 	 -1.60644 	 -20.4182
| 20> H 	 -56.4821 	 -2.2592 	 -20.7788
| 21> H 	 -56.0987 	 -1.05906 	 -19.6274
| 22> H 	 -55.4473 	 -0.905694 	 -21.2892
| 23> S 	 -47.9573 	 -1.54387 	 -18.0865
| 24> C 	 -47.4722 	 -0.379126 	 -16.8345
| 25> C 	 -48.5537 	 0.0628287 	 -16.1528
| 26> C 	 -49.7637 	 -0.652497 	 -16.439
| 27> C 	 -49.5464 	 -1.67722 	 -17.3351
| 28> H 	 -48.4252 	 0.842848 	 -15.4375
| 29> C 	 -51.0506 	 -0.406825 	 -15.7868
| 30> H 	 -50.8593 	 -0.245187 	 -14.7436
| 31> H 	 -51.6449 	 -1.30604 	 -15.829
| 32> C 	 -51.7975 	 0.797759 	 -16.3354
| 33> H 	 -51.9311 	 0.802502 	 -17.4215
| 34> H 	 -51.2755 	 1.68154 	 -15.9417
| 35> C 	 -53.3004 	 0.695797 	 -15.9094
| 36> H 	 -53.72 	 -0.214582 	 -16.2363
| 37> H 	 -53.8704 	 1.45214 	 -16.4299
| 38> H 	 -53.4831 	 0.79406 	 -14.8399
| 39> H 	 -51.5373 	 -5.03883 	 -20.3261
| 40> H 	 -46.5263 	 0.0249067 	 -16.8098
| 41> *
| 42>
| 43>                          ****END OF INPUT****

CARTESIAN COORDINATES (ANGSTROEM)
---------------------------------
  S    -49.960300   -4.170200  -18.477600
  C    -51.336400   -4.233750  -19.664600
  C    -52.081200   -3.026740  -19.701800
  C    -51.474500   -2.068310  -18.897100
  C    -50.437300   -2.566460  -18.081900
  H    -51.734400   -1.057020  -18.739000
  C    -53.339200   -2.717440  -20.561100
  H    -53.686500   -3.562590  -21.125900
  H    -53.129200   -1.990930  -21.341300
  C    -54.504600   -2.316240  -19.694800
  H    -54.787800   -3.186920  -19.095600
  H    -54.214800   -1.512020  -19.025900
  C    -55.699000   -1.606440  -20.418200
  H    -56.482100   -2.259200  -20.778800
  H    -56.098700   -1.059060  -19.627400
  H    -55.447300   -0.905694  -21.289200
  S    -47.957300   -1.543870  -18.086500
  C    -47.472200   -0.379126  -16.834500
  C    -48.553700    0.062829  -16.152800
  C    -49.763700   -0.652497  -16.439000
  C    -49.546400   -1.677220  -17.335100
  H    -48.425200    0.842848  -15.437500
  C    -51.050600   -0.406825  -15.786800
  H    -50.859300   -0.245187  -14.743600
  H    -51.644900   -1.306040  -15.829000
  C    -51.797500    0.797759  -16.335400
  H    -51.931100    0.802502  -17.421500
  H    -51.275500    1.681540  -15.941700
  C    -53.300400    0.695797  -15.909400
  H    -53.720000   -0.214582  -16.236300
  H    -53.870400    1.452140  -16.429900
  H    -53.483100    0.794060  -14.839900
  H    -51.537300   -5.038830  -20.326100
  H    -46.526300    0.024907  -16.809800

 Total Charge           Charge          ....    0
 Multiplicity           Mult            ....    1
 Number of Electrons    NEL             ....  134
 Basis Dimension        Dim             ....  322

ORBITAL ENERGIES
----------------

  NO   OCC          E(Eh)            E(eV)
   0   2.0000     -88.973152     -2421.0825
   1   2.0000     -88.956031     -2420.6167
   2   2.0000     -10.326427      -280.9964
   3   2.0000     -10.320493      -280.8349
   4   2.0000     -10.320168      -280.8261
   5   2.0000     -10.308224      -280.5010
   6   2.0000     -10.307247      -280.4745
   7   2.0000     -10.296675      -280.1868
   8   2.0000     -10.293164      -280.0912
   9   2.0000     -10.291502      -280.0460
  10   2.0000     -10.290545      -280.0200
  11   2.0000     -10.289177      -279.9827
  12   2.0000     -10.288591      -279.9668
  13   2.0000     -10.281287      -279.7680
  14   2.0000     -10.281286      -279.7680
  15   2.0000     -10.275321      -279.6057
  16   2.0000      -8.086877      -220.0551
  17   2.0000      -8.070861      -219.6193
  18   2.0000      -6.045186      -164.4979
  19   2.0000      -6.041561      -164.3992
  20   2.0000      -6.037865      -164.2987
  21   2.0000      -6.029439      -164.0694
  22   2.0000      -6.025549      -163.9635
  23   2.0000      -6.021325      -163.8486
  24   2.0000      -1.005658       -27.3653
  25   2.0000      -0.979635       -26.6572
  26   2.0000      -0.915805       -24.9203
  27   2.0000      -0.912921       -24.8419
  28   2.0000      -0.868224       -23.6256
  29   2.0000      -0.851962       -23.1831
  30   2.0000      -0.846285       -23.0286
  31   2.0000      -0.811897       -22.0928
  32   2.0000      -0.787161       -21.4197
  33   2.0000      -0.773333       -21.0434
  34   2.0000      -0.706564       -19.2266
  35   2.0000      -0.700702       -19.0671
  36   2.0000      -0.694705       -18.9039
  37   2.0000      -0.664312       -18.0769
  38   2.0000      -0.645704       -17.5705
  39   2.0000      -0.621102       -16.9011
  40   2.0000      -0.600124       -16.3302
  41   2.0000      -0.575653       -15.6643
  42   2.0000      -0.569124       -15.4866
  43   2.0000      -0.562298       -15.3009
  44   2.0000      -0.529807       -14.4168
  45   2.0000      -0.524807       -14.2807
  46   2.0000      -0.520832       -14.1726
  47   2.0000      -0.513137       -13.9632
  48   2.0000      -0.501476       -13.6459
  49   2.0000      -0.498976       -13.5778
  50   2.0000      -0.486129       -13.2282
  51   2.0000      -0.483716       -13.1626
  52   2.0000      -0.470169       -12.7939
  53   2.0000      -0.465627       -12.6704
  54   2.0000      -0.461587       -12.5604
  55   2.0000      -0.448512       -12.2046
  56   2.0000      -0.442946       -12.0532
  57   2.0000      -0.439636       -11.9631
  58   2.0000      -0.436247       -11.8709
  59   2.0000      -0.433121       -11.7858
  60   2.0000      -0.421398       -11.4668
  61   2.0000      -0.418895       -11.3987
  62   2.0000      -0.412291       -11.2190
  63   2.0000      -0.342842        -9.3292
  64   2.0000      -0.334826        -9.1111
  65   2.0000      -0.321299        -8.7430
  66   2.0000      -0.291920        -7.9436
  67   0.0000       0.027506         0.7485
  68   0.0000       0.067031         1.8240
  69   0.0000       0.106560         2.8996
  70   0.0000       0.115257         3.1363
  71   0.0000       0.121957         3.3186

MULLIKEN ATOMIC CHARGES
-----------------------
   0 S :    0.121077
   1 C :   -0.120236
   2 C :   -0.056295
   3 C :    0.045598
   4 C :   -0.167173
   5 H :   -0.021329
   6 C :    0.115468
   7 H :    0.009444
   8 H :    0.030144
   9 C :   -0.122143
  10 H :    0.041457
  11 H :    0.028136
  12 C :   -0.043879
  13 H :    0.032976
  14 H :    0.021213
  15 H :    0.044220
  16 S :    0.077233
  17 C :   -0.056043
  18 C :   -0.012270
  19 C :   -0.038229
  20 C :   -0.138617
  21 H :    0.004910
  22 C :    0.073286
  23 H :    0.018368
  24 H :    0.020483
  25 C :   -0.084957
  26 H :    0.038860
  27 H :    0.037454
  28 C :   -0.035248
  29 H :    0.019735
  30 H :    0.025400
  31 H :    0.031002
  32 H :    0.034220
  33 H :    0.025734
Sum of atomic charges:   -0.0000000

LOEWDIN ATOMIC CHARGES
----------------------
   0 S :    0.408686
   1 C :   -0.177044
   2 C :   -0.052550
   3 C :   -0.052358
   4 C :   -0.211928
   5 H :    0.020965
   6 C :   -0.028856
   7 H :    0.026462
   8 H :    0.030814
   9 C :   -0.040473
  10 H :    0.031436
  11 H :    0.020343
  12 C :   -0.066733
  13 H :    0.021387
  14 H :    0.019656
  15 H :    0.035811
  16 S :    0.376274
  17 C :   -0.156320
  18 C :   -0.064321
  19 C :   -0.058424
  20 C :   -0.189260
  21 H :    0.027095
  22 C :   -0.035171
  23 H :    0.031062
  24 H :    0.029580
  25 C :   -0.031195
  26 H :    0.023726
  27 H :    0.027192
  28 C :   -0.059521
  29 H :    0.017470
  30 H :    0.023017
  31 H :    0.023344
  32 H :    0.018321
  33 H :    0.011512

  Mayer bond orders larger than 0.100000
B(  0-S ,  1-C ) :   1.1429 B(  0-S ,  4-C ) :   1.1657 B(  1-C ,  2-C ) :   1.5799
B(  1-C ,  4-C ) :   0.1046 B(  1-C , 32-H ) :   0.9714 B(  2-C ,  3-C ) :   1.2636
B(  2-C ,  6-C ) :   1.0189 B(  3-C ,  4-C ) :   1.5407 B(  3-C ,  5-H ) :   0.9928
B(  4-C , 20-C ) :   1.0192 B(  6-C ,  7-H ) :   0.9388 B(  6-C ,  8-H ) :   0.9411
B(  6-C ,  9-C ) :   1.0624 B(  9-C , 10-H ) :   0.9532 B(  9-C , 11-H ) :   0.9707
B(  9-C , 12-C ) :   1.0600 B( 12-C , 13-H ) :   0.9768 B( 12-C , 14-H ) :   0.9810
B( 12-C , 15-H ) :   0.9748 B( 16-S , 17-C ) :   1.1330 B( 16-S , 20-C ) :   1.1335
B( 17-C , 18-C ) :   1.6358 B( 17-C , 33-H ) :   0.9795 B( 18-C , 19-C ) :   1.1984
B( 18-C , 21-H ) :   0.9986 B( 19-C , 20-C ) :   1.6334 B( 19-C , 22-C ) :   1.0633
B( 22-C , 23-H ) :   0.9258 B( 22-C , 24-H ) :   0.9380 B( 22-C , 25-C ) :   1.0551
B( 25-C , 26-H ) :   0.9580 B( 25-C , 27-H ) :   0.9538 B( 25-C , 28-C ) :   1.0775
B( 28-C , 29-H ) :   0.9748 B( 28-C , 30-H ) :   0.9776 B( 28-C , 31-H ) :   0.9737

Dispersion correction           -0.014698148
FINAL SINGLE POINT ENERGY     -1339.859833266701

DIPOLE MOMENT
-------------
                                X             Y             Z
Electronic contribution:     30.03151     -13.65095      -0.21134
Nuclear contribution   :    -30.63924      14.12606       0.17652
                        -----------------------------------------
Total Dipole Moment    :     -0.60772       0.47512      -0.03482
                        -----------------------------------------
Magnitude (a.u.)       :      0.77219
Magnitude (Debye)      :      1.96275

Rotational constants in cm-1:     0.017144     0.010016     0.006911
Rotational constants in MHz :   513.959659   300.272173   207.188165

                             ****ORCA TERMINATED NORMALLY****
TOTAL RUN TIME: 0 days 0 hours 0 minutes 22 seconds 360 msec
