                         Program Version 4.2.1 -  RELEASE  -
|  1> ! wB97X-D3 SP def2-SVP
|  2> %pal
|  3> nprocs 24
|  4> end
|  5>
|  6> * xyz 0 1
|  7> S 	 -39.7946 	 -49.3103 	 -72.5597
|  8> C 	 -40.8763 	 -48.5819 	 -73.7508
|  9> C 	 -40.4879 	 -48.7071 	 -75.0186
| 10> C 	 -39.284 	 -49.4982 	 -75.0473
| 11> C 	 -38.7982 	 -49.9072 	 -73.8431
| 12> H 	 -38.765 	 -49.7197 	 -75.9829
| 13> C 	 -41.1242 	 -48.1635 	 -76.276
| 14> H 	 -42.1372 	 -47.8895 	 -76.0415
| 15> H 	 -41.1399 	 -48.8911 	 -77.0564
| 16> C 	 -40.3142 	 -46.9875 	 -76.7286
| 17> H 	 -39.3766 	 -47.3815 	 -77.0251
| 18> H 	 -40.7539 	 -46.5732 	 -77.6566
| 19> C 	 -40.0788 	 -45.9322 	 -75.6678
| 20> H 	 -39.3471 	 -46.1834 	 -74.8743
| 21> H 	 -39.4847 	 -45.0999 	 -76.1827
| 22> H 	 -40.9268 	 -45.4962 	 -75.1855
| 23> S 	 -37.6216 	 -52.392 	 -73.3939
| 24> C 	 -35.9486 	 -52.4622 	 -72.9468
| 25> C 	 -35.2954 	 -51.2602 	 -73.2228
| 26> C 	 -36.2406 	 -50.2178 	 -73.5549
| 27> C 	 -37.5643 	 -50.6439 	 -73.5709
| 28> H 	 -34.2088 	 -51.3099 	 -73.2008
| 29> C 	 -35.7469 	 -48.7769 	 -73.7994
| 30> H 	 -35.1458 	 -48.3897 	 -72.9504
| 31> H 	 -36.6521 	 -48.1525 	 -73.8836
| 32> C 	 -34.9179 	 -48.6782 	 -75.0637
| 33> H 	 -34.2468 	 -49.549 	 -75.2448
| 34> H 	 -34.2861 	 -47.8156 	 -74.8911
| 35> C 	 -35.8118 	 -48.2226 	 -76.2619
| 36> H 	 -35.1625 	 -48.292 	 -77.1769
| 37> H 	 -35.9809 	 -47.1723 	 -76.0918
| 38> H 	 -36.6871 	 -48.8742 	 -76.4263
| 39> H 	 -41.6874 	 -48.0216 	 -73.5122
| 40> H 	 -35.3796 	 -53.3994 	 -72.8378
| 41> *
| 42>
| 43>                          ****END OF INPUT****

CARTESIAN COORDINATES (ANGSTROEM)
---------------------------------
  S    -39.794600  -49.310300  -72.559700
  C    -40.876300  -48.581900  -73.750800
  C    -40.487900  -48.707100  -75.018600
  C    -39.284000  -49.498200  -75.047300
  C    -38.798200  -49.907200  -73.843100
  H    -38.765000  -49.719700  -75.982900
  C    -41.124200  -48.163500  -76.276000
  H    -42.137200  -47.889500  -76.041500
  H    -41.139900  -48.891100  -77.056400
  C    -40.314200  -46.987500  -76.728600
  H    -39.376600  -47.381500  -77.025100
  H    -40.753900  -46.573200  -77.656600
  C    -40.078800  -45.932200  -75.667800
  H    -39.347100  -46.183400  -74.874300
  H    -39.484700  -45.099900  -76.182700
  H    -40.926800  -45.496200  -75.185500
  S    -37.621600  -52.392000  -73.393900
  C    -35.948600  -52.462200  -72.946800
  C    -35.295400  -51.260200  -73.222800
  C    -36.240600  -50.217800  -73.554900
  C    -37.564300  -50.643900  -73.570900
  H    -34.208800  -51.309900  -73.200800
  C    -35.746900  -48.776900  -73.799400
  H    -35.145800  -48.389700  -72.950400
  H    -36.652100  -48.152500  -73.883600
  C    -34.917900  -48.678200  -75.063700
  H    -34.246800  -49.549000  -75.244800
  H    -34.286100  -47.815600  -74.891100
  C    -35.811800  -48.222600  -76.261900
  H    -35.162500  -48.292000  -77.176900
  H    -35.980900  -47.172300  -76.091800
  H    -36.687100  -48.874200  -76.426300
  H    -41.687400  -48.021600  -73.512200
  H    -35.379600  -53.399400  -72.837800

 Total Charge           Charge          ....    0
 Multiplicity           Mult            ....    1
 Number of Electrons    NEL             ....  134
 Basis Dimension        Dim             ....  322

ORBITAL ENERGIES
----------------

  NO   OCC          E(Eh)            E(eV)
   0   2.0000     -88.963494     -2420.8197
   1   2.0000     -88.962662     -2420.7971
   2   2.0000     -10.325540      -280.9722
   3   2.0000     -10.324922      -280.9554
   4   2.0000     -10.317029      -280.7406
   5   2.0000     -10.307036      -280.4687
   6   2.0000     -10.301893      -280.3288
   7   2.0000     -10.295974      -280.1677
   8   2.0000     -10.293475      -280.0997
   9   2.0000     -10.291839      -280.0552
  10   2.0000     -10.290534      -280.0197
  11   2.0000     -10.288245      -279.9574
  12   2.0000     -10.286138      -279.9000
  13   2.0000     -10.284614      -279.8586
  14   2.0000     -10.282477      -279.8004
  15   2.0000     -10.279654      -279.7236
  16   2.0000      -8.078523      -219.8278
  17   2.0000      -8.077655      -219.8042
  18   2.0000      -6.037044      -164.2763
  19   2.0000      -6.036121      -164.2512
  20   2.0000      -6.033118      -164.1695
  21   2.0000      -6.032207      -164.1447
  22   2.0000      -6.029119      -164.0607
  23   2.0000      -6.028363      -164.0401
  24   2.0000      -1.007958       -27.4279
  25   2.0000      -0.985694       -26.8221
  26   2.0000      -0.924048       -25.1446
  27   2.0000      -0.908023       -24.7086
  28   2.0000      -0.869513       -23.6607
  29   2.0000      -0.842958       -22.9380
  30   2.0000      -0.842399       -22.9229
  31   2.0000      -0.813842       -22.1458
  32   2.0000      -0.790212       -21.5028
  33   2.0000      -0.773058       -21.0360
  34   2.0000      -0.709249       -19.2996
  35   2.0000      -0.696763       -18.9599
  36   2.0000      -0.690668       -18.7940
  37   2.0000      -0.650977       -17.7140
  38   2.0000      -0.644617       -17.5409
  39   2.0000      -0.624831       -17.0025
  40   2.0000      -0.596885       -16.2421
  41   2.0000      -0.575470       -15.6593
  42   2.0000      -0.559066       -15.2130
  43   2.0000      -0.551344       -15.0028
  44   2.0000      -0.546730       -14.8773
  45   2.0000      -0.534269       -14.5382
  46   2.0000      -0.521122       -14.1804
  47   2.0000      -0.516639       -14.0585
  48   2.0000      -0.500323       -13.6145
  49   2.0000      -0.493768       -13.4361
  50   2.0000      -0.485565       -13.2129
  51   2.0000      -0.479875       -13.0581
  52   2.0000      -0.469539       -12.7768
  53   2.0000      -0.463407       -12.6099
  54   2.0000      -0.456478       -12.4214
  55   2.0000      -0.447352       -12.1731
  56   2.0000      -0.440808       -11.9950
  57   2.0000      -0.435366       -11.8469
  58   2.0000      -0.433171       -11.7872
  59   2.0000      -0.432545       -11.7701
  60   2.0000      -0.417704       -11.3663
  61   2.0000      -0.414012       -11.2658
  62   2.0000      -0.410215       -11.1625
  63   2.0000      -0.333437        -9.0733
  64   2.0000      -0.325726        -8.8634
  65   2.0000      -0.324007        -8.8167
  66   2.0000      -0.315633        -8.5888
  67   0.0000       0.047481         1.2920
  68   0.0000       0.058591         1.5943
  69   0.0000       0.110927         3.0185
  70   0.0000       0.120045         3.2666
  71   0.0000       0.129420         3.5217

MULLIKEN ATOMIC CHARGES
-----------------------
   0 S :    0.116747
   1 C :   -0.087464
   2 C :   -0.106945
   3 C :    0.029905
   4 C :   -0.177572
   5 H :    0.010675
   6 C :    0.144432
   7 H :    0.011329
   8 H :    0.022183
   9 C :   -0.057315
  10 H :    0.010912
  11 H :    0.033460
  12 C :   -0.070584
  13 H :    0.048142
  14 H :    0.031238
  15 H :    0.030084
  16 S :    0.112974
  17 C :   -0.106135
  18 C :   -0.052270
  19 C :   -0.010002
  20 C :   -0.178087
  21 H :    0.028457
  22 C :    0.061462
  23 H :    0.040018
  24 H :    0.029828
  25 C :   -0.088368
  26 H :    0.043616
  27 H :    0.020044
  28 C :   -0.059575
  29 H :    0.033425
  30 H :    0.037718
  31 H :    0.038649
  32 H :   -0.008176
  33 H :    0.067192
Sum of atomic charges:   -0.0000000

LOEWDIN ATOMIC CHARGES
----------------------
   0 S :    0.403857
   1 C :   -0.168097
   2 C :   -0.058962
   3 C :   -0.056248
   4 C :   -0.206503
   5 H :    0.026678
   6 C :   -0.020576
   7 H :    0.025405
   8 H :    0.029613
   9 C :   -0.039143
  10 H :    0.020069
  11 H :    0.027634
  12 C :   -0.072658
  13 H :    0.031890
  14 H :    0.035313
  15 H :    0.018515
  16 S :    0.409345
  17 C :   -0.194350
  18 C :   -0.076412
  19 C :   -0.048073
  20 C :   -0.209603
  21 H :    0.034215
  22 C :   -0.032393
  23 H :    0.033976
  24 H :    0.031169
  25 C :   -0.044254
  26 H :    0.025737
  27 H :    0.023172
  28 C :   -0.064722
  29 H :    0.029402
  30 H :    0.025177
  31 H :    0.022623
  32 H :    0.004313
  33 H :    0.033891

  Mayer bond orders larger than 0.100000
B(  0-S ,  1-C ) :   1.1287 B(  0-S ,  4-C ) :   1.1370 B(  1-C ,  2-C ) :   1.6643
B(  1-C , 32-H ) :   0.9690 B(  2-C ,  3-C ) :   1.2036 B(  2-C ,  6-C ) :   1.0194
B(  3-C ,  4-C ) :   1.6296 B(  3-C ,  5-H ) :   0.9895 B(  4-C , 20-C ) :   1.0040
B(  6-C ,  7-H ) :   0.9348 B(  6-C ,  8-H ) :   0.9368 B(  6-C ,  9-C ) :   1.0760
B(  9-C , 10-H ) :   0.9497 B(  9-C , 11-H ) :   0.9555 B(  9-C , 12-C ) :   1.0808
B( 12-C , 13-H ) :   0.9665 B( 12-C , 14-H ) :   0.9691 B( 12-C , 15-H ) :   0.9783
B( 16-S , 17-C ) :   1.1666 B( 16-S , 20-C ) :   1.1440 B( 17-C , 18-C ) :   1.6211
B( 17-C , 33-H ) :   0.9600 B( 18-C , 19-C ) :   1.2191 B( 18-C , 21-H ) :   0.9894
B( 19-C , 20-C ) :   1.6100 B( 19-C , 22-C ) :   1.0423 B( 22-C , 23-H ) :   0.9449
B( 22-C , 24-H ) :   0.9318 B( 22-C , 25-C ) :   1.0558 B( 25-C , 26-H ) :   0.9632
B( 25-C , 27-H ) :   0.9552 B( 25-C , 28-C ) :   1.0759 B( 28-C , 29-H ) :   0.9724
B( 28-C , 30-H ) :   0.9764 B( 28-C , 31-H ) :   0.9750

Dispersion correction           -0.016262577
FINAL SINGLE POINT ENERGY     -1339.878216676618

DIPOLE MOMENT
-------------
                                X             Y             Z
Electronic contribution:     -5.46591     -21.28066      17.91760
Nuclear contribution   :      5.77784      21.73297     -18.48584
                        -----------------------------------------
Total Dipole Moment    :      0.31193       0.45231      -0.56824
                        -----------------------------------------
Magnitude (a.u.)       :      0.79043
Magnitude (Debye)      :      2.00912

Rotational constants in cm-1:     0.020085     0.009926     0.007702
Rotational constants in MHz :   602.129700   297.581460   230.885224

                             ****ORCA TERMINATED NORMALLY****
TOTAL RUN TIME: 0 days 0 hours 0 minutes 23 seconds 371 msec
