                         Program Version 4.2.1 -  RELEASE  -
|  1> ! wB97X-D3 SP def2-SVP
|  2> %pal
|  3> nprocs 24
|  4> end
|  5>
|  6> * xyz 0 1
|  7> S 	 -121.328 	 46.6083 	 -30.3465
|  8> C 	 -121.297 	 45.0747 	 -29.5323
|  9> C 	 -121.144 	 44.0246 	 -30.3759
| 10> C 	 -121.175 	 44.4707 	 -31.7182
| 11> C 	 -121.36 	 45.7544 	 -31.9467
| 12> H 	 -121.243 	 43.8488 	 -32.5703
| 13> C 	 -120.874 	 42.595 	 -30.0537
| 14> H 	 -120.651 	 42.5195 	 -28.9937
| 15> H 	 -119.866 	 42.408 	 -30.4427
| 16> C 	 -122.038 	 41.7091 	 -30.4406
| 17> H 	 -122.935 	 42.0457 	 -29.9131
| 18> H 	 -122.241 	 41.7977 	 -31.539
| 19> C 	 -121.713 	 40.2331 	 -30.2236
| 20> H 	 -122.323 	 39.5374 	 -30.8053
| 21> H 	 -120.654 	 40.0301 	 -30.5455
| 22> H 	 -121.728 	 40.033 	 -29.1534
| 23> S 	 -122.472 	 45.5644 	 -34.4777
| 24> C 	 -122.131 	 46.8234 	 -35.5859
| 25> C 	 -121.229 	 47.7391 	 -35.1274
| 26> C 	 -120.74 	 47.3838 	 -33.8403
| 27> C 	 -121.461 	 46.3218 	 -33.2581
| 28> H 	 -120.871 	 48.5765 	 -35.7421
| 29> C 	 -119.813 	 48.3564 	 -33.0704
| 30> H 	 -120.292 	 48.6877 	 -32.1424
| 31> H 	 -119.594 	 49.2932 	 -33.6284
| 32> C 	 -118.438 	 47.7154 	 -32.7417
| 33> H 	 -117.912 	 47.5299 	 -33.675
| 34> H 	 -118.519 	 46.6229 	 -32.354
| 35> C 	 -117.612 	 48.5335 	 -31.8195
| 36> H 	 -117.583 	 49.5642 	 -32.1402
| 37> H 	 -116.598 	 48.0271 	 -31.6803
| 38> H 	 -118.085 	 48.5053 	 -30.8488
| 39> H 	 -121.173 	 45.0768 	 -28.4721
| 40> H 	 -122.494 	 46.8679 	 -36.6374
| 41> *
| 42>
| 43>                          ****END OF INPUT****

CARTESIAN COORDINATES (ANGSTROEM)
---------------------------------
  S    -121.328000   46.608300  -30.346500
  C    -121.297000   45.074700  -29.532300
  C    -121.144000   44.024600  -30.375900
  C    -121.175000   44.470700  -31.718200
  C    -121.360000   45.754400  -31.946700
  H    -121.243000   43.848800  -32.570300
  C    -120.874000   42.595000  -30.053700
  H    -120.651000   42.519500  -28.993700
  H    -119.866000   42.408000  -30.442700
  C    -122.038000   41.709100  -30.440600
  H    -122.935000   42.045700  -29.913100
  H    -122.241000   41.797700  -31.539000
  C    -121.713000   40.233100  -30.223600
  H    -122.323000   39.537400  -30.805300
  H    -120.654000   40.030100  -30.545500
  H    -121.728000   40.033000  -29.153400
  S    -122.472000   45.564400  -34.477700
  C    -122.131000   46.823400  -35.585900
  C    -121.229000   47.739100  -35.127400
  C    -120.740000   47.383800  -33.840300
  C    -121.461000   46.321800  -33.258100
  H    -120.871000   48.576500  -35.742100
  C    -119.813000   48.356400  -33.070400
  H    -120.292000   48.687700  -32.142400
  H    -119.594000   49.293200  -33.628400
  C    -118.438000   47.715400  -32.741700
  H    -117.912000   47.529900  -33.675000
  H    -118.519000   46.622900  -32.354000
  C    -117.612000   48.533500  -31.819500
  H    -117.583000   49.564200  -32.140200
  H    -116.598000   48.027100  -31.680300
  H    -118.085000   48.505300  -30.848800
  H    -121.173000   45.076800  -28.472100
  H    -122.494000   46.867900  -36.637400

 Total Charge           Charge          ....    0
 Multiplicity           Mult            ....    1
 Number of Electrons    NEL             ....  134
 Basis Dimension        Dim             ....  322

ORBITAL ENERGIES
----------------

  NO   OCC          E(Eh)            E(eV)
   0   2.0000     -88.970035     -2420.9977
   1   2.0000     -88.961892     -2420.7761
   2   2.0000     -10.326095      -280.9873
   3   2.0000     -10.323153      -280.9073
   4   2.0000     -10.315311      -280.6939
   5   2.0000     -10.309920      -280.5472
   6   2.0000     -10.304382      -280.3965
   7   2.0000     -10.294749      -280.1344
   8   2.0000     -10.293941      -280.1124
   9   2.0000     -10.292100      -280.0623
  10   2.0000     -10.290362      -280.0150
  11   2.0000     -10.290173      -280.0098
  12   2.0000     -10.281261      -279.7673
  13   2.0000     -10.280944      -279.7587
  14   2.0000     -10.279486      -279.7190
  15   2.0000     -10.272668      -279.5335
  16   2.0000      -8.085043      -220.0052
  17   2.0000      -8.076061      -219.7608
  18   2.0000      -6.043486      -164.4516
  19   2.0000      -6.039537      -164.3442
  20   2.0000      -6.035853      -164.2439
  21   2.0000      -6.034812      -164.2156
  22   2.0000      -6.030824      -164.1071
  23   2.0000      -6.026430      -163.9875
  24   2.0000      -1.011464       -27.5233
  25   2.0000      -0.990021       -26.9398
  26   2.0000      -0.917235       -24.9592
  27   2.0000      -0.905104       -24.6291
  28   2.0000      -0.879114       -23.9219
  29   2.0000      -0.853572       -23.2269
  30   2.0000      -0.847526       -23.0624
  31   2.0000      -0.817109       -22.2347
  32   2.0000      -0.779888       -21.2218
  33   2.0000      -0.766902       -20.8685
  34   2.0000      -0.707441       -19.2505
  35   2.0000      -0.698457       -19.0060
  36   2.0000      -0.683513       -18.5993
  37   2.0000      -0.667419       -18.1614
  38   2.0000      -0.639912       -17.4129
  39   2.0000      -0.625095       -17.0097
  40   2.0000      -0.597425       -16.2568
  41   2.0000      -0.567467       -15.4416
  42   2.0000      -0.562755       -15.3134
  43   2.0000      -0.556565       -15.1449
  44   2.0000      -0.532028       -14.4772
  45   2.0000      -0.521637       -14.1945
  46   2.0000      -0.517045       -14.0695
  47   2.0000      -0.509599       -13.8669
  48   2.0000      -0.505609       -13.7583
  49   2.0000      -0.500872       -13.6294
  50   2.0000      -0.493793       -13.4368
  51   2.0000      -0.483671       -13.1614
  52   2.0000      -0.472829       -12.8663
  53   2.0000      -0.465313       -12.6618
  54   2.0000      -0.458766       -12.4837
  55   2.0000      -0.451096       -12.2749
  56   2.0000      -0.442655       -12.0453
  57   2.0000      -0.439128       -11.9493
  58   2.0000      -0.428900       -11.6709
  59   2.0000      -0.419082       -11.4038
  60   2.0000      -0.417036       -11.3481
  61   2.0000      -0.415653       -11.3105
  62   2.0000      -0.403875       -10.9900
  63   2.0000      -0.353491        -9.6190
  64   2.0000      -0.334807        -9.1106
  65   2.0000      -0.327981        -8.9248
  66   2.0000      -0.291254        -7.9254
  67   0.0000       0.028921         0.7870
  68   0.0000       0.074210         2.0194
  69   0.0000       0.109072         2.9680
  70   0.0000       0.112923         3.0728
  71   0.0000       0.132533         3.6064

MULLIKEN ATOMIC CHARGES
-----------------------
   0 S :    0.079728
   1 C :   -0.116416
   2 C :   -0.072506
   3 C :    0.002354
   4 C :   -0.105448
   5 H :   -0.005483
   6 C :    0.090990
   7 H :    0.001589
   8 H :    0.034538
   9 C :   -0.089954
  10 H :    0.040956
  11 H :    0.037074
  12 C :   -0.033561
  13 H :    0.040055
  14 H :    0.025833
  15 H :    0.030267
  16 S :    0.122195
  17 C :   -0.099151
  18 C :   -0.038063
  19 C :   -0.017755
  20 C :   -0.167212
  21 H :    0.028826
  22 C :    0.027221
  23 H :    0.033824
  24 H :    0.025298
  25 C :   -0.125814
  26 H :    0.019545
  27 H :    0.045219
  28 C :   -0.015922
  29 H :    0.025569
  30 H :    0.043919
  31 H :    0.024837
  32 H :    0.039207
  33 H :    0.068240
Sum of atomic charges:   -0.0000000

LOEWDIN ATOMIC CHARGES
----------------------
   0 S :    0.369666
   1 C :   -0.183530
   2 C :   -0.066215
   3 C :   -0.059989
   4 C :   -0.168208
   5 H :    0.019465
   6 C :   -0.034476
   7 H :    0.027074
   8 H :    0.037340
   9 C :   -0.041354
  10 H :    0.030270
  11 H :    0.028435
  12 C :   -0.068097
  13 H :    0.026035
  14 H :    0.029377
  15 H :    0.023562
  16 S :    0.427680
  17 C :   -0.204044
  18 C :   -0.076916
  19 C :   -0.050322
  20 C :   -0.193675
  21 H :    0.037407
  22 C :   -0.033616
  23 H :    0.023860
  24 H :    0.031679
  25 C :   -0.055609
  26 H :    0.018088
  27 H :    0.032489
  28 C :   -0.068297
  29 H :    0.021233
  30 H :    0.037262
  31 H :    0.023092
  32 H :    0.021551
  33 H :    0.038783

  Mayer bond orders larger than 0.100000
B(  0-S ,  1-C ) :   1.1284 B(  0-S ,  4-C ) :   1.0911 B(  1-C ,  2-C ) :   1.6440
B(  1-C , 32-H ) :   0.9676 B(  2-C ,  3-C ) :   1.1996 B(  2-C ,  6-C ) :   1.0255
B(  3-C ,  4-C ) :   1.6443 B(  3-C ,  5-H ) :   0.9961 B(  4-C , 20-C ) :   1.0700
B(  6-C ,  7-H ) :   0.9318 B(  6-C ,  8-H ) :   0.9334 B(  6-C ,  9-C ) :   1.0511
B(  9-C , 10-H ) :   0.9536 B(  9-C , 11-H ) :   0.9605 B(  9-C , 12-C ) :   1.0775
B( 12-C , 13-H ) :   0.9759 B( 12-C , 14-H ) :   0.9724 B( 12-C , 15-H ) :   0.9746
B( 16-S , 17-C ) :   1.1653 B( 16-S , 20-C ) :   1.1445 B( 17-C , 18-C ) :   1.6003
B( 17-C , 33-H ) :   0.9576 B( 18-C , 19-C ) :   1.2658 B( 18-C , 21-H ) :   0.9856
B( 19-C , 20-C ) :   1.5491 B( 19-C , 22-C ) :   1.0369 B( 22-C , 23-H ) :   0.9503
B( 22-C , 24-H ) :   0.9418 B( 22-C , 25-C ) :   1.0362 B( 25-C , 26-H ) :   0.9523
B( 25-C , 27-H ) :   0.9578 B( 25-C , 28-C ) :   1.0882 B( 28-C , 29-H ) :   0.9681
B( 28-C , 30-H ) :   0.9693 B( 28-C , 31-H ) :   0.9715

Dispersion correction           -0.014445912
FINAL SINGLE POINT ENERGY     -1339.882473226949

DIPOLE MOMENT
-------------
                                X             Y             Z
Electronic contribution:    -12.74773       9.08702      -7.35348
Nuclear contribution   :     13.05176      -9.33483       7.30482
                        -----------------------------------------
Total Dipole Moment    :      0.30403      -0.24781      -0.04866
                        -----------------------------------------
Magnitude (a.u.)       :      0.39523
Magnitude (Debye)      :      1.00460

Rotational constants in cm-1:     0.018789     0.008754     0.006795
Rotational constants in MHz :   563.268215   262.428609   203.706324

                             ****ORCA TERMINATED NORMALLY****
TOTAL RUN TIME: 0 days 0 hours 0 minutes 20 seconds 690 msec
