                         Program Version 4.2.1 -  RELEASE  -
|  1> ! wB97X-D3 SP def2-SVP
|  2> %pal
|  3> nprocs 24
|  4> end
|  5>
|  6> * xyz 0 1
|  7> S 	 -43.609 	 -1.66394 	 -11.628
|  8> C 	 -43.3828 	 -1.03294 	 -10.0073
|  9> C 	 -44.55 	 -1.05226 	 -9.39589
| 10> C 	 -45.6244 	 -1.60238 	 -10.2106
| 11> C 	 -45.3193 	 -1.97387 	 -11.5135
| 12> H 	 -46.6034 	 -1.75264 	 -9.91591
| 13> C 	 -44.7635 	 -0.463385 	 -8.03551
| 14> H 	 -43.8684 	 -0.468435 	 -7.52355
| 15> H 	 -45.3909 	 -1.02408 	 -7.3138
| 16> C 	 -45.2147 	 1.02351 	 -8.08701
| 17> H 	 -44.4913 	 1.59657 	 -8.61717
| 18> H 	 -46.1639 	 1.00676 	 -8.70458
| 19> C 	 -45.5849 	 1.71079 	 -6.75477
| 20> H 	 -46.3471 	 2.48992 	 -6.88561
| 21> H 	 -45.9282 	 0.925959 	 -6.02185
| 22> H 	 -44.7232 	 2.25951 	 -6.31481
| 23> S 	 -45.8219 	 -1.8911 	 -14.1247
| 24> C 	 -47.0221 	 -2.94564 	 -14.8412
| 25> C 	 -47.6118 	 -3.77162 	 -13.9145
| 26> C 	 -47.1263 	 -3.44506 	 -12.5821
| 27> C 	 -46.1214 	 -2.50798 	 -12.517
| 28> H 	 -48.3403 	 -4.57599 	 -14.1242
| 29> C 	 -47.4956 	 -4.28948 	 -11.3651
| 30> H 	 -48.5491 	 -4.5514 	 -11.4065
| 31> H 	 -47.3838 	 -3.68545 	 -10.5518
| 32> C 	 -46.579 	 -5.49514 	 -11.0575
| 33> H 	 -45.4759 	 -5.11983 	 -11.0529
| 34> H 	 -46.6459 	 -6.24804 	 -11.8552
| 35> C 	 -46.9033 	 -6.10935 	 -9.68396
| 36> H 	 -47.9234 	 -6.4987 	 -9.62556
| 37> H 	 -46.6581 	 -5.36081 	 -8.9525
| 38> H 	 -46.2459 	 -6.89978 	 -9.46856
| 39> H 	 -42.5435 	 -0.435893 	 -9.66084
| 40> H 	 -47.0975 	 -2.93756 	 -15.9034
| 41> *
| 42>
| 43>                          ****END OF INPUT****

CARTESIAN COORDINATES (ANGSTROEM)
---------------------------------
  S    -43.609000   -1.663940  -11.628000
  C    -43.382800   -1.032940  -10.007300
  C    -44.550000   -1.052260   -9.395890
  C    -45.624400   -1.602380  -10.210600
  C    -45.319300   -1.973870  -11.513500
  H    -46.603400   -1.752640   -9.915910
  C    -44.763500   -0.463385   -8.035510
  H    -43.868400   -0.468435   -7.523550
  H    -45.390900   -1.024080   -7.313800
  C    -45.214700    1.023510   -8.087010
  H    -44.491300    1.596570   -8.617170
  H    -46.163900    1.006760   -8.704580
  C    -45.584900    1.710790   -6.754770
  H    -46.347100    2.489920   -6.885610
  H    -45.928200    0.925959   -6.021850
  H    -44.723200    2.259510   -6.314810
  S    -45.821900   -1.891100  -14.124700
  C    -47.022100   -2.945640  -14.841200
  C    -47.611800   -3.771620  -13.914500
  C    -47.126300   -3.445060  -12.582100
  C    -46.121400   -2.507980  -12.517000
  H    -48.340300   -4.575990  -14.124200
  C    -47.495600   -4.289480  -11.365100
  H    -48.549100   -4.551400  -11.406500
  H    -47.383800   -3.685450  -10.551800
  C    -46.579000   -5.495140  -11.057500
  H    -45.475900   -5.119830  -11.052900
  H    -46.645900   -6.248040  -11.855200
  C    -46.903300   -6.109350   -9.683960
  H    -47.923400   -6.498700   -9.625560
  H    -46.658100   -5.360810   -8.952500
  H    -46.245900   -6.899780   -9.468560
  H    -42.543500   -0.435893   -9.660840
  H    -47.097500   -2.937560  -15.903400

 Total Charge           Charge          ....    0
 Multiplicity           Mult            ....    1
 Number of Electrons    NEL             ....  134
 Basis Dimension        Dim             ....  322

ORBITAL ENERGIES
----------------

  NO   OCC          E(Eh)            E(eV)
   0   2.0000     -88.963406     -2420.8173
   1   2.0000     -88.959873     -2420.7212
   2   2.0000     -10.330114      -281.0967
   3   2.0000     -10.324867      -280.9539
   4   2.0000     -10.321707      -280.8679
   5   2.0000     -10.310389      -280.5599
   6   2.0000     -10.307476      -280.4807
   7   2.0000     -10.304230      -280.3923
   8   2.0000     -10.298438      -280.2347
   9   2.0000     -10.292111      -280.0626
  10   2.0000     -10.289606      -279.9944
  11   2.0000     -10.287940      -279.9491
  12   2.0000     -10.287346      -279.9329
  13   2.0000     -10.286090      -279.8987
  14   2.0000     -10.282258      -279.7945
  15   2.0000     -10.272488      -279.5286
  16   2.0000      -8.078772      -219.8346
  17   2.0000      -8.075031      -219.7328
  18   2.0000      -6.037293      -164.2831
  19   2.0000      -6.033758      -164.1869
  20   2.0000      -6.033117      -164.1695
  21   2.0000      -6.029542      -164.0722
  22   2.0000      -6.029347      -164.0669
  23   2.0000      -6.025591      -163.9647
  24   2.0000      -1.015551       -27.6345
  25   2.0000      -0.990074       -26.9413
  26   2.0000      -0.914794       -24.8928
  27   2.0000      -0.907974       -24.7072
  28   2.0000      -0.880885       -23.9701
  29   2.0000      -0.850936       -23.1552
  30   2.0000      -0.839754       -22.8509
  31   2.0000      -0.822032       -22.3686
  32   2.0000      -0.784078       -21.3358
  33   2.0000      -0.775236       -21.0952
  34   2.0000      -0.714716       -19.4484
  35   2.0000      -0.696523       -18.9534
  36   2.0000      -0.693931       -18.8828
  37   2.0000      -0.672020       -18.2866
  38   2.0000      -0.646897       -17.6030
  39   2.0000      -0.621964       -16.9245
  40   2.0000      -0.601468       -16.3668
  41   2.0000      -0.577928       -15.7262
  42   2.0000      -0.567703       -15.4480
  43   2.0000      -0.556363       -15.1394
  44   2.0000      -0.528061       -14.3693
  45   2.0000      -0.523952       -14.2575
  46   2.0000      -0.522272       -14.2117
  47   2.0000      -0.515607       -14.0304
  48   2.0000      -0.512868       -13.9558
  49   2.0000      -0.508032       -13.8242
  50   2.0000      -0.495029       -13.4704
  51   2.0000      -0.486206       -13.2303
  52   2.0000      -0.470716       -12.8088
  53   2.0000      -0.462679       -12.5901
  54   2.0000      -0.459299       -12.4982
  55   2.0000      -0.451023       -12.2729
  56   2.0000      -0.447799       -12.1852
  57   2.0000      -0.434821       -11.8321
  58   2.0000      -0.430972       -11.7273
  59   2.0000      -0.421877       -11.4799
  60   2.0000      -0.419549       -11.4165
  61   2.0000      -0.410206       -11.1623
  62   2.0000      -0.404985       -11.0202
  63   2.0000      -0.360530        -9.8105
  64   2.0000      -0.331843        -9.0299
  65   2.0000      -0.325685        -8.8623
  66   2.0000      -0.295171        -8.0320
  67   0.0000       0.021841         0.5943
  68   0.0000       0.078648         2.1401
  69   0.0000       0.114947         3.1279
  70   0.0000       0.120109         3.2683
  71   0.0000       0.127349         3.4653

MULLIKEN ATOMIC CHARGES
-----------------------
   0 S :    0.085928
   1 C :   -0.114101
   2 C :   -0.068654
   3 C :    0.036192
   4 C :   -0.125536
   5 H :   -0.019881
   6 C :    0.089161
   7 H :   -0.008123
   8 H :    0.023372
   9 C :   -0.091581
  10 H :    0.021401
  11 H :    0.035183
  12 C :   -0.058853
  13 H :    0.041862
  14 H :    0.037188
  15 H :    0.036397
  16 S :    0.093108
  17 C :   -0.078503
  18 C :   -0.016398
  19 C :   -0.070023
  20 C :   -0.141639
  21 H :    0.037027
  22 C :    0.128810
  23 H :    0.016438
  24 H :   -0.038238
  25 C :   -0.113176
  26 H :    0.049933
  27 H :    0.025903
  28 C :   -0.013998
  29 H :    0.036061
  30 H :    0.028908
  31 H :    0.021752
  32 H :    0.058138
  33 H :    0.055942
Sum of atomic charges:   -0.0000000

LOEWDIN ATOMIC CHARGES
----------------------
   0 S :    0.395947
   1 C :   -0.189367
   2 C :   -0.065096
   3 C :   -0.060536
   4 C :   -0.193637
   5 H :    0.011767
   6 C :   -0.032155
   7 H :    0.016808
   8 H :    0.031860
   9 C :   -0.040948
  10 H :    0.017577
  11 H :    0.029397
  12 C :   -0.074309
  13 H :    0.029541
  14 H :    0.029982
  15 H :    0.026989
  16 S :    0.407695
  17 C :   -0.167119
  18 C :   -0.070125
  19 C :   -0.045523
  20 C :   -0.201747
  21 H :    0.041389
  22 C :   -0.029085
  23 H :    0.028262
  24 H :    0.011323
  25 C :   -0.037965
  26 H :    0.037680
  27 H :    0.017661
  28 C :   -0.060816
  29 H :    0.026892
  30 H :    0.025641
  31 H :    0.021291
  32 H :    0.038445
  33 H :    0.022279

  Mayer bond orders larger than 0.100000
B(  0-S ,  1-C ) :   1.1178 B(  0-S ,  4-C ) :   1.1298 B(  1-C ,  2-C ) :   1.6434
B(  1-C , 32-H ) :   0.9624 B(  2-C ,  3-C ) :   1.2165 B(  2-C ,  6-C ) :   1.0415
B(  3-C ,  4-C ) :   1.5648 B(  3-C ,  5-H ) :   1.0100 B(  4-C , 20-C ) :   1.1004
B(  6-C ,  7-H ) :   0.9306 B(  6-C ,  8-H ) :   0.9362 B(  6-C ,  9-C ) :   1.0581
B(  9-C , 10-H ) :   0.9578 B(  9-C , 11-H ) :   0.9637 B(  9-C , 12-C ) :   1.0687
B( 12-C , 13-H ) :   0.9768 B( 12-C , 14-H ) :   0.9747 B( 12-C , 15-H ) :   0.9767
B( 16-S , 17-C ) :   1.1664 B( 16-S , 20-C ) :   1.1226 B( 17-C , 18-C ) :   1.5847
B( 17-C , 33-H ) :   0.9739 B( 18-C , 19-C ) :   1.2352 B( 18-C , 21-H ) :   0.9903
B( 19-C , 20-C ) :   1.5880 B( 19-C , 22-C ) :   1.0636 B( 22-C , 23-H ) :   0.9255
B( 22-C , 24-H ) :   0.9223 B( 22-C , 25-C ) :   1.0538 B( 25-C , 26-H ) :   0.9547
B( 25-C , 27-H ) :   0.9577 B( 25-C , 28-C ) :   1.0810 B( 28-C , 29-H ) :   0.9745
B( 28-C , 30-H ) :   0.9735 B( 28-C , 31-H ) :   0.9714

Dispersion correction           -0.014000381
FINAL SINGLE POINT ENERGY     -1339.868552005934

DIPOLE MOMENT
-------------
                                X             Y             Z
Electronic contribution:      7.89354       2.22995     -25.49106
Nuclear contribution   :     -8.24694      -2.37508      25.91642
                        -----------------------------------------
Total Dipole Moment    :     -0.35340      -0.14513       0.42536
                        -----------------------------------------
Magnitude (a.u.)       :      0.57174
Magnitude (Debye)      :      1.45325

Rotational constants in cm-1:     0.018722     0.008142     0.006777
Rotational constants in MHz :   561.284238   244.100213   203.157287

                             ****ORCA TERMINATED NORMALLY****
TOTAL RUN TIME: 0 days 0 hours 0 minutes 21 seconds 681 msec
