                         Program Version 4.2.1 -  RELEASE  -
|  1> ! wB97X-D3 SP def2-SVP
|  2> %pal
|  3> nprocs 24
|  4> end
|  5>
|  6> * xyz 0 1
|  7> S 	 -96.0795 	 -30.2057 	 -66.6975
|  8> C 	 -97.4285 	 -31.2731 	 -66.4501
|  9> C 	 -97.3169 	 -31.9468 	 -65.2212
| 10> C 	 -96.1912 	 -31.543 	 -64.4575
| 11> C 	 -95.4677 	 -30.5148 	 -65.0822
| 12> H 	 -95.9017 	 -31.9674 	 -63.4647
| 13> C 	 -98.3119 	 -32.8857 	 -64.6562
| 14> H 	 -97.8499 	 -33.3324 	 -63.7244
| 15> H 	 -98.4899 	 -33.707 	 -65.2761
| 16> C 	 -99.6155 	 -32.2822 	 -64.1888
| 17> H 	 -100.346 	 -32.1903 	 -65.0224
| 18> H 	 -99.977 	 -33.0439 	 -63.4544
| 19> C 	 -99.5927 	 -30.9606 	 -63.2763
| 20> H 	 -100.577 	 -30.8138 	 -62.7436
| 21> H 	 -98.9152 	 -31.0667 	 -62.501
| 22> H 	 -99.3789 	 -30.0547 	 -63.824
| 23> S 	 -92.9707 	 -29.5033 	 -65.6058
| 24> C 	 -91.9687 	 -28.9026 	 -64.3662
| 25> C 	 -92.7623 	 -28.7385 	 -63.2221
| 26> C 	 -94.0825 	 -29.2304 	 -63.3204
| 27> C 	 -94.3388 	 -29.7641 	 -64.5527
| 28> H 	 -92.3552 	 -28.2268 	 -62.3836
| 29> C 	 -95.0715 	 -29.1983 	 -62.1598
| 30> H 	 -95.8963 	 -29.855 	 -62.3833
| 31> H 	 -95.6526 	 -28.2994 	 -62.0519
| 32> C 	 -94.4517 	 -29.7131 	 -60.8402
| 33> H 	 -93.4761 	 -29.3226 	 -60.737
| 34> H 	 -94.3893 	 -30.7799 	 -60.8955
| 35> C 	 -95.2023 	 -29.3584 	 -59.5131
| 36> H 	 -96.2388 	 -29.7675 	 -59.5296
| 37> H 	 -95.2648 	 -28.3162 	 -59.3092
| 38> H 	 -94.7474 	 -29.8124 	 -58.6174
| 39> H 	 -98.2914 	 -31.3135 	 -67.0486
| 40> H 	 -91.158 	 -28.3181 	 -64.6271
| 41> *
| 42>
| 43>                          ****END OF INPUT****

CARTESIAN COORDINATES (ANGSTROEM)
---------------------------------
  S    -96.079500  -30.205700  -66.697500
  C    -97.428500  -31.273100  -66.450100
  C    -97.316900  -31.946800  -65.221200
  C    -96.191200  -31.543000  -64.457500
  C    -95.467700  -30.514800  -65.082200
  H    -95.901700  -31.967400  -63.464700
  C    -98.311900  -32.885700  -64.656200
  H    -97.849900  -33.332400  -63.724400
  H    -98.489900  -33.707000  -65.276100
  C    -99.615500  -32.282200  -64.188800
  H    -100.346000  -32.190300  -65.022400
  H    -99.977000  -33.043900  -63.454400
  C    -99.592700  -30.960600  -63.276300
  H    -100.577000  -30.813800  -62.743600
  H    -98.915200  -31.066700  -62.501000
  H    -99.378900  -30.054700  -63.824000
  S    -92.970700  -29.503300  -65.605800
  C    -91.968700  -28.902600  -64.366200
  C    -92.762300  -28.738500  -63.222100
  C    -94.082500  -29.230400  -63.320400
  C    -94.338800  -29.764100  -64.552700
  H    -92.355200  -28.226800  -62.383600
  C    -95.071500  -29.198300  -62.159800
  H    -95.896300  -29.855000  -62.383300
  H    -95.652600  -28.299400  -62.051900
  C    -94.451700  -29.713100  -60.840200
  H    -93.476100  -29.322600  -60.737000
  H    -94.389300  -30.779900  -60.895500
  C    -95.202300  -29.358400  -59.513100
  H    -96.238800  -29.767500  -59.529600
  H    -95.264800  -28.316200  -59.309200
  H    -94.747400  -29.812400  -58.617400
  H    -98.291400  -31.313500  -67.048600
  H    -91.158000  -28.318100  -64.627100

 Total Charge           Charge          ....    0
 Multiplicity           Mult            ....    1
 Number of Electrons    NEL             ....  134
 Basis Dimension        Dim             ....  322

ORBITAL ENERGIES
----------------

  NO   OCC          E(Eh)            E(eV)
   0   2.0000     -88.970494     -2421.0102
   1   2.0000     -88.961144     -2420.7558
   2   2.0000     -10.333085      -281.1775
   3   2.0000     -10.325422      -280.9690
   4   2.0000     -10.312316      -280.6124
   5   2.0000     -10.309840      -280.5450
   6   2.0000     -10.301910      -280.3292
   7   2.0000     -10.300350      -280.2868
   8   2.0000     -10.299890      -280.2743
   9   2.0000     -10.296159      -280.1727
  10   2.0000     -10.293223      -280.0928
  11   2.0000     -10.288453      -279.9630
  12   2.0000     -10.288447      -279.9629
  13   2.0000     -10.283709      -279.8339
  14   2.0000     -10.280506      -279.7468
  15   2.0000     -10.279736      -279.7258
  16   2.0000      -8.085052      -220.0055
  17   2.0000      -8.077231      -219.7926
  18   2.0000      -6.043529      -164.4528
  19   2.0000      -6.039477      -164.3425
  20   2.0000      -6.035982      -164.2474
  21   2.0000      -6.035629      -164.2378
  22   2.0000      -6.031409      -164.1230
  23   2.0000      -6.028162      -164.0346
  24   2.0000      -1.011908       -27.5354
  25   2.0000      -0.988277       -26.8924
  26   2.0000      -0.913919       -24.8690
  27   2.0000      -0.907720       -24.7003
  28   2.0000      -0.868562       -23.6348
  29   2.0000      -0.850906       -23.1543
  30   2.0000      -0.844002       -22.9665
  31   2.0000      -0.812709       -22.1149
  32   2.0000      -0.787468       -21.4281
  33   2.0000      -0.779018       -21.1981
  34   2.0000      -0.708983       -19.2924
  35   2.0000      -0.705326       -19.1929
  36   2.0000      -0.700371       -19.0581
  37   2.0000      -0.663548       -18.0561
  38   2.0000      -0.639411       -17.3993
  39   2.0000      -0.618646       -16.8342
  40   2.0000      -0.604674       -16.4540
  41   2.0000      -0.573804       -15.6140
  42   2.0000      -0.560880       -15.2623
  43   2.0000      -0.556723       -15.1492
  44   2.0000      -0.538411       -14.6509
  45   2.0000      -0.526885       -14.3373
  46   2.0000      -0.521269       -14.1845
  47   2.0000      -0.509410       -13.8617
  48   2.0000      -0.504643       -13.7320
  49   2.0000      -0.500264       -13.6129
  50   2.0000      -0.493986       -13.4421
  51   2.0000      -0.478799       -13.0288
  52   2.0000      -0.471356       -12.8263
  53   2.0000      -0.468878       -12.7588
  54   2.0000      -0.462545       -12.5865
  55   2.0000      -0.450706       -12.2643
  56   2.0000      -0.445484       -12.1222
  57   2.0000      -0.443078       -12.0568
  58   2.0000      -0.433687       -11.8012
  59   2.0000      -0.423298       -11.5185
  60   2.0000      -0.419014       -11.4020
  61   2.0000      -0.414850       -11.2886
  62   2.0000      -0.410818       -11.1789
  63   2.0000      -0.351074        -9.5532
  64   2.0000      -0.334402        -9.0995
  65   2.0000      -0.330527        -8.9941
  66   2.0000      -0.287290        -7.8176
  67   0.0000       0.022261         0.6057
  68   0.0000       0.067191         1.8284
  69   0.0000       0.107070         2.9135
  70   0.0000       0.120455         3.2777
  71   0.0000       0.124800         3.3960

MULLIKEN ATOMIC CHARGES
-----------------------
   0 S :    0.120837
   1 C :   -0.098368
   2 C :   -0.097728
   3 C :    0.015534
   4 C :   -0.156586
   5 H :    0.035714
   6 C :    0.094110
   7 H :    0.015651
   8 H :    0.024057
   9 C :   -0.117154
  10 H :    0.039936
  11 H :    0.036041
  12 C :   -0.040075
  13 H :    0.037959
  14 H :    0.009408
  15 H :    0.044355
  16 S :    0.093950
  17 C :   -0.055749
  18 C :   -0.070002
  19 C :   -0.022324
  20 C :   -0.149783
  21 H :    0.015720
  22 C :    0.116449
  23 H :   -0.005488
  24 H :    0.028931
  25 C :   -0.074474
  26 H :    0.022334
  27 H :    0.026976
  28 C :   -0.062856
  29 H :    0.027750
  30 H :    0.029430
  31 H :    0.034967
  32 H :    0.031864
  33 H :    0.048614
Sum of atomic charges:    0.0000000

LOEWDIN ATOMIC CHARGES
----------------------
   0 S :    0.418888
   1 C :   -0.199135
   2 C :   -0.062244
   3 C :   -0.066099
   4 C :   -0.189408
   5 H :    0.039782
   6 C :   -0.037144
   7 H :    0.035429
   8 H :    0.027197
   9 C :   -0.040893
  10 H :    0.022892
  11 H :    0.031713
  12 C :   -0.063221
  13 H :    0.035063
  14 H :    0.010920
  15 H :    0.024692
  16 S :    0.426022
  17 C :   -0.195407
  18 C :   -0.062312
  19 C :   -0.060349
  20 C :   -0.196703
  21 H :    0.024451
  22 C :   -0.030373
  23 H :    0.026965
  24 H :    0.031583
  25 C :   -0.031141
  26 H :    0.014893
  27 H :    0.022982
  28 C :   -0.068005
  29 H :    0.025478
  30 H :    0.018389
  31 H :    0.029293
  32 H :    0.019274
  33 H :    0.016530

  Mayer bond orders larger than 0.100000
B(  0-S ,  1-C ) :   1.1443 B(  0-S ,  4-C ) :   1.1720 B(  1-C ,  2-C ) :   1.5703
B(  1-C ,  4-C ) :   0.1098 B(  1-C , 32-H ) :   0.9791 B(  2-C ,  3-C ) :   1.2723
B(  2-C ,  6-C ) :   1.0345 B(  3-C ,  4-C ) :   1.5376 B(  3-C ,  5-H ) :   0.9803
B(  4-C , 20-C ) :   1.0342 B(  6-C ,  7-H ) :   0.9387 B(  6-C ,  8-H ) :   0.9312
B(  6-C ,  9-C ) :   1.0743 B(  9-C , 10-H ) :   0.9592 B(  9-C , 11-H ) :   0.9596
B(  9-C , 12-C ) :   1.0675 B( 12-C , 13-H ) :   0.9765 B( 12-C , 14-H ) :   0.9755
B( 12-C , 15-H ) :   0.9760 B( 16-S , 17-C ) :   1.1789 B( 16-S , 20-C ) :   1.1624
B( 17-C , 18-C ) :   1.5633 B( 17-C , 20-C ) :   0.1084 B( 17-C , 33-H ) :   0.9707
B( 18-C , 19-C ) :   1.2747 B( 18-C , 21-H ) :   0.9911 B( 19-C , 20-C ) :   1.5716
B( 19-C , 22-C ) :   1.0349 B( 22-C , 23-H ) :   0.9258 B( 22-C , 24-H ) :   0.9341
B( 22-C , 25-C ) :   1.0439 B( 25-C , 26-H ) :   0.9642 B( 25-C , 27-H ) :   0.9573
B( 25-C , 28-C ) :   1.0830 B( 28-C , 29-H ) :   0.9753 B( 28-C , 30-H ) :   0.9782
B( 28-C , 31-H ) :   0.9745

Dispersion correction           -0.014575159
FINAL SINGLE POINT ENERGY     -1339.870870040182

DIPOLE MOMENT
-------------
                                X             Y             Z
Electronic contribution:     17.28621       4.37460     -26.26268
Nuclear contribution   :    -17.70756      -4.40834      26.85205
                        -----------------------------------------
Total Dipole Moment    :     -0.42135      -0.03375       0.58937
                        -----------------------------------------
Magnitude (a.u.)       :      0.72528
Magnitude (Debye)      :      1.84352

Rotational constants in cm-1:     0.016629     0.010191     0.006726
Rotational constants in MHz :   498.529873   305.515308   201.633814

                             ****ORCA TERMINATED NORMALLY****
TOTAL RUN TIME: 0 days 0 hours 0 minutes 21 seconds 965 msec
