                         Program Version 4.2.1 -  RELEASE  -
|  1> ! wB97X-D3 SP def2-SVP
|  2> %pal
|  3> nprocs 24
|  4> end
|  5>
|  6> * xyz 0 1
|  7> S 	 -137.35 	 23.1231 	 -16.864
|  8> C 	 -138.779 	 22.3293 	 -17.432
|  9> C 	 -138.795 	 22.2276 	 -18.8043
| 10> C 	 -137.731 	 22.9428 	 -19.4255
| 11> C 	 -136.848 	 23.5358 	 -18.5188
| 12> H 	 -137.476 	 23.0189 	 -20.4697
| 13> C 	 -139.755 	 21.3407 	 -19.5388
| 14> H 	 -140.555 	 22.0157 	 -20.0229
| 15> H 	 -140.408 	 20.8876 	 -18.8271
| 16> C 	 -139.165 	 20.3511 	 -20.5122
| 17> H 	 -139.856 	 20.2375 	 -21.3125
| 18> H 	 -138.195 	 20.6759 	 -20.835
| 19> C 	 -138.895 	 18.9958 	 -19.8592
| 20> H 	 -138.34 	 19.0347 	 -18.952
| 21> H 	 -139.915 	 18.6437 	 -19.5791
| 22> H 	 -138.357 	 18.3596 	 -20.5442
| 23> S 	 -134.203 	 23.6429 	 -17.5827
| 24> C 	 -132.945 	 24.4574 	 -18.4373
| 25> C 	 -133.467 	 24.8935 	 -19.63
| 26> C 	 -134.874 	 24.6617 	 -19.7896
| 27> C 	 -135.463 	 23.998 	 -18.73
| 28> H 	 -132.93 	 25.4277 	 -20.3821
| 29> C 	 -135.6 	 25.1777 	 -21.0293
| 30> H 	 -135.529 	 26.278 	 -21.0301
| 31> H 	 -136.641 	 24.9574 	 -20.9585
| 32> C 	 -135.135 	 24.6771 	 -22.4138
| 33> H 	 -135.565 	 23.6938 	 -22.5516
| 34> H 	 -134.037 	 24.7014 	 -22.4188
| 35> C 	 -135.672 	 25.6374 	 -23.5283
| 36> H 	 -135.377 	 26.6664 	 -23.1873
| 37> H 	 -136.754 	 25.5383 	 -23.6183
| 38> H 	 -135.278 	 25.2734 	 -24.5193
| 39> H 	 -139.26 	 21.6393 	 -16.7153
| 40> H 	 -131.907 	 24.5504 	 -18.0826
| 41> *
| 42>
| 43>                          ****END OF INPUT****

CARTESIAN COORDINATES (ANGSTROEM)
---------------------------------
  S    -137.350000   23.123100  -16.864000
  C    -138.779000   22.329300  -17.432000
  C    -138.795000   22.227600  -18.804300
  C    -137.731000   22.942800  -19.425500
  C    -136.848000   23.535800  -18.518800
  H    -137.476000   23.018900  -20.469700
  C    -139.755000   21.340700  -19.538800
  H    -140.555000   22.015700  -20.022900
  H    -140.408000   20.887600  -18.827100
  C    -139.165000   20.351100  -20.512200
  H    -139.856000   20.237500  -21.312500
  H    -138.195000   20.675900  -20.835000
  C    -138.895000   18.995800  -19.859200
  H    -138.340000   19.034700  -18.952000
  H    -139.915000   18.643700  -19.579100
  H    -138.357000   18.359600  -20.544200
  S    -134.203000   23.642900  -17.582700
  C    -132.945000   24.457400  -18.437300
  C    -133.467000   24.893500  -19.630000
  C    -134.874000   24.661700  -19.789600
  C    -135.463000   23.998000  -18.730000
  H    -132.930000   25.427700  -20.382100
  C    -135.600000   25.177700  -21.029300
  H    -135.529000   26.278000  -21.030100
  H    -136.641000   24.957400  -20.958500
  C    -135.135000   24.677100  -22.413800
  H    -135.565000   23.693800  -22.551600
  H    -134.037000   24.701400  -22.418800
  C    -135.672000   25.637400  -23.528300
  H    -135.377000   26.666400  -23.187300
  H    -136.754000   25.538300  -23.618300
  H    -135.278000   25.273400  -24.519300
  H    -139.260000   21.639300  -16.715300
  H    -131.907000   24.550400  -18.082600

 Total Charge           Charge          ....    0
 Multiplicity           Mult            ....    1
 Number of Electrons    NEL             ....  134
 Basis Dimension        Dim             ....  322

ORBITAL ENERGIES
----------------

  NO   OCC          E(Eh)            E(eV)
   0   2.0000     -88.964204     -2420.8391
   1   2.0000     -88.963544     -2420.8211
   2   2.0000     -10.337825      -281.3065
   3   2.0000     -10.329719      -281.0860
   4   2.0000     -10.320909      -280.8462
   5   2.0000     -10.314173      -280.6629
   6   2.0000     -10.304541      -280.4008
   7   2.0000     -10.300778      -280.2984
   8   2.0000     -10.299779      -280.2712
   9   2.0000     -10.292513      -280.0735
  10   2.0000     -10.292362      -280.0694
  11   2.0000     -10.290229      -280.0114
  12   2.0000     -10.290042      -280.0063
  13   2.0000     -10.288774      -279.9718
  14   2.0000     -10.281856      -279.7835
  15   2.0000     -10.275270      -279.6043
  16   2.0000      -8.079193      -219.8460
  17   2.0000      -8.078988      -219.8404
  18   2.0000      -6.037653      -164.2929
  19   2.0000      -6.037618      -164.2919
  20   2.0000      -6.033650      -164.1840
  21   2.0000      -6.033205      -164.1719
  22   2.0000      -6.030013      -164.0850
  23   2.0000      -6.029722      -164.0771
  24   2.0000      -1.009973       -27.4828
  25   2.0000      -0.989035       -26.9130
  26   2.0000      -0.918640       -24.9975
  27   2.0000      -0.909129       -24.7386
  28   2.0000      -0.873002       -23.7556
  29   2.0000      -0.852957       -23.2101
  30   2.0000      -0.843900       -22.9637
  31   2.0000      -0.819300       -22.2943
  32   2.0000      -0.780167       -21.2294
  33   2.0000      -0.770517       -20.9668
  34   2.0000      -0.711631       -19.3645
  35   2.0000      -0.697161       -18.9707
  36   2.0000      -0.691284       -18.8108
  37   2.0000      -0.662056       -18.0155
  38   2.0000      -0.644967       -17.5504
  39   2.0000      -0.627041       -17.0626
  40   2.0000      -0.602762       -16.4020
  41   2.0000      -0.575152       -15.6507
  42   2.0000      -0.573648       -15.6097
  43   2.0000      -0.554178       -15.0799
  44   2.0000      -0.537495       -14.6260
  45   2.0000      -0.524370       -14.2688
  46   2.0000      -0.521760       -14.1978
  47   2.0000      -0.513018       -13.9599
  48   2.0000      -0.509329       -13.8596
  49   2.0000      -0.497644       -13.5416
  50   2.0000      -0.488182       -13.2841
  51   2.0000      -0.482617       -13.1327
  52   2.0000      -0.473666       -12.8891
  53   2.0000      -0.467733       -12.7277
  54   2.0000      -0.459893       -12.5143
  55   2.0000      -0.452932       -12.3249
  56   2.0000      -0.443745       -12.0749
  57   2.0000      -0.441770       -12.0212
  58   2.0000      -0.434275       -11.8172
  59   2.0000      -0.424810       -11.5597
  60   2.0000      -0.419173       -11.4063
  61   2.0000      -0.416633       -11.3372
  62   2.0000      -0.408029       -11.1030
  63   2.0000      -0.360776        -9.8172
  64   2.0000      -0.331908        -9.0317
  65   2.0000      -0.326419        -8.8823
  66   2.0000      -0.288688        -7.8556
  67   0.0000       0.019927         0.5422
  68   0.0000       0.080440         2.1889
  69   0.0000       0.107850         2.9347
  70   0.0000       0.118686         3.2296
  71   0.0000       0.127756         3.4764

MULLIKEN ATOMIC CHARGES
-----------------------
   0 S :    0.083061
   1 C :   -0.119597
   2 C :   -0.101226
   3 C :    0.024966
   4 C :   -0.139545
   5 H :    0.014417
   6 C :    0.054479
   7 H :    0.043117
   8 H :   -0.006764
   9 C :   -0.027205
  10 H :    0.025252
  11 H :    0.025603
  12 C :   -0.048492
  13 H :    0.029110
  14 H :    0.024891
  15 H :    0.036767
  16 S :    0.092104
  17 C :   -0.094193
  18 C :   -0.011354
  19 C :   -0.054717
  20 C :   -0.116830
  21 H :    0.007735
  22 C :    0.032890
  23 H :    0.029022
  24 H :    0.005738
  25 C :   -0.073697
  26 H :    0.030989
  27 H :    0.032828
  28 C :   -0.070775
  29 H :    0.043698
  30 H :    0.034535
  31 H :    0.046931
  32 H :    0.070950
  33 H :    0.075311
Sum of atomic charges:   -0.0000000

LOEWDIN ATOMIC CHARGES
----------------------
   0 S :    0.399781
   1 C :   -0.209738
   2 C :   -0.062640
   3 C :   -0.061060
   4 C :   -0.173058
   5 H :    0.029083
   6 C :   -0.037327
   7 H :    0.042540
   8 H :    0.022102
   9 C :   -0.034441
  10 H :    0.023450
  11 H :    0.021672
  12 C :   -0.056422
  13 H :    0.020913
  14 H :    0.025974
  15 H :    0.024455
  16 S :    0.415179
  17 C :   -0.192687
  18 C :   -0.071647
  19 C :   -0.063875
  20 C :   -0.203146
  21 H :    0.024501
  22 C :   -0.035636
  23 H :    0.031384
  24 H :    0.020341
  25 C :   -0.035922
  26 H :    0.021141
  27 H :    0.021545
  28 C :   -0.068010
  29 H :    0.030139
  30 H :    0.023288
  31 H :    0.032717
  32 H :    0.034477
  33 H :    0.040925

  Mayer bond orders larger than 0.100000
B(  0-S ,  1-C ) :   1.1439 B(  0-S ,  4-C ) :   1.1601 B(  1-C ,  2-C ) :   1.6036
B(  1-C , 32-H ) :   0.9573 B(  2-C ,  3-C ) :   1.2536 B(  2-C ,  6-C ) :   1.0409
B(  3-C ,  4-C ) :   1.5494 B(  3-C ,  5-H ) :   0.9853 B(  4-C , 20-C ) :   1.0574
B(  6-C ,  7-H ) :   0.9322 B(  6-C ,  8-H ) :   0.9363 B(  6-C ,  9-C ) :   1.0505
B(  9-C , 10-H ) :   0.9525 B(  9-C , 11-H ) :   0.9620 B(  9-C , 12-C ) :   1.0779
B( 12-C , 13-H ) :   0.9789 B( 12-C , 14-H ) :   0.9764 B( 12-C , 15-H ) :   0.9743
B( 16-S , 17-C ) :   1.1639 B( 16-S , 20-C ) :   1.1350 B( 17-C , 18-C ) :   1.5641
B( 17-C , 33-H ) :   0.9699 B( 18-C , 19-C ) :   1.2747 B( 18-C , 21-H ) :   0.9935
B( 19-C , 20-C ) :   1.5826 B( 19-C , 22-C ) :   1.0408 B( 22-C , 23-H ) :   0.9379
B( 22-C , 24-H ) :   0.9342 B( 22-C , 25-C ) :   1.0594 B( 25-C , 26-H ) :   0.9553
B( 25-C , 27-H ) :   0.9588 B( 25-C , 28-C ) :   1.0741 B( 28-C , 29-H ) :   0.9750
B( 28-C , 30-H ) :   0.9773 B( 28-C , 31-H ) :   0.9738

Dispersion correction           -0.013679847
FINAL SINGLE POINT ENERGY     -1339.880502285916

DIPOLE MOMENT
-------------
                                X             Y             Z
Electronic contribution:      9.55787       6.12482      25.55899
Nuclear contribution   :     -9.60976      -6.36582     -26.21510
                        -----------------------------------------
Total Dipole Moment    :     -0.05189      -0.24100      -0.65611
                        -----------------------------------------
Magnitude (a.u.)       :      0.70090
Magnitude (Debye)      :      1.78153

Rotational constants in cm-1:     0.016438     0.009197     0.006762
Rotational constants in MHz :   492.803300   275.705062   202.710569

                             ****ORCA TERMINATED NORMALLY****
TOTAL RUN TIME: 0 days 0 hours 0 minutes 21 seconds 302 msec
