                         Program Version 4.2.1 -  RELEASE  -
|  1> ! wB97X-D3 SP def2-SVP
|  2> %pal
|  3> nprocs 24
|  4> end
|  5>
|  6> * xyz 0 1
|  7> S 	 -84.0603 	 -39.2 	 -72.6841
|  8> C 	 -85.3489 	 -39.6296 	 -73.8107
|  9> C 	 -84.7738 	 -40.2464 	 -74.9411
| 10> C 	 -83.3566 	 -40.1821 	 -74.9778
| 11> C 	 -82.8493 	 -39.8112 	 -73.7651
| 12> H 	 -82.617 	 -40.412 	 -75.7147
| 13> C 	 -85.6721 	 -40.8686 	 -76.0847
| 14> H 	 -85.5612 	 -40.3594 	 -76.9865
| 15> H 	 -86.6602 	 -40.7085 	 -75.7085
| 16> C 	 -85.3788 	 -42.4102 	 -76.3876
| 17> H 	 -85.8884 	 -42.5938 	 -77.3259
| 18> H 	 -84.3293 	 -42.3948 	 -76.6308
| 19> C 	 -85.8462 	 -43.3692 	 -75.2608
| 20> H 	 -86.9277 	 -43.5175 	 -75.4019
| 21> H 	 -85.3067 	 -44.323 	 -75.3372
| 22> H 	 -85.5868 	 -42.8883 	 -74.2641
| 23> S 	 -80.6125 	 -38.4336 	 -72.9382
| 24> C 	 -79.0965 	 -39.2004 	 -73.0226
| 25> C 	 -79.2166 	 -40.5855 	 -73.1938
| 26> C 	 -80.5578 	 -40.9774 	 -73.42
| 27> C 	 -81.4507 	 -39.8919 	 -73.3777
| 28> H 	 -78.2336 	 -41.1783 	 -73.2297
| 29> C 	 -80.9844 	 -42.3816 	 -73.8247
| 30> H 	 -81.2998 	 -42.2667 	 -74.849
| 31> H 	 -81.8464 	 -42.8195 	 -73.3018
| 32> C 	 -79.8747 	 -43.4418 	 -73.8194
| 33> H 	 -78.9586 	 -43.2135 	 -74.3807
| 34> H 	 -80.2957 	 -44.2712 	 -74.4009
| 35> C 	 -79.6265 	 -43.8988 	 -72.419
| 36> H 	 -79.5544 	 -43.0403 	 -71.7225
| 37> H 	 -78.6311 	 -44.4284 	 -72.4683
| 38> H 	 -80.4191 	 -44.5356 	 -71.9911
| 39> H 	 -86.4085 	 -39.6156 	 -73.5692
| 40> H 	 -78.1127 	 -38.6686 	 -72.8452
| 41> *
| 42>
| 43>                          ****END OF INPUT****

CARTESIAN COORDINATES (ANGSTROEM)
---------------------------------
  S    -84.060300  -39.200000  -72.684100
  C    -85.348900  -39.629600  -73.810700
  C    -84.773800  -40.246400  -74.941100
  C    -83.356600  -40.182100  -74.977800
  C    -82.849300  -39.811200  -73.765100
  H    -82.617000  -40.412000  -75.714700
  C    -85.672100  -40.868600  -76.084700
  H    -85.561200  -40.359400  -76.986500
  H    -86.660200  -40.708500  -75.708500
  C    -85.378800  -42.410200  -76.387600
  H    -85.888400  -42.593800  -77.325900
  H    -84.329300  -42.394800  -76.630800
  C    -85.846200  -43.369200  -75.260800
  H    -86.927700  -43.517500  -75.401900
  H    -85.306700  -44.323000  -75.337200
  H    -85.586800  -42.888300  -74.264100
  S    -80.612500  -38.433600  -72.938200
  C    -79.096500  -39.200400  -73.022600
  C    -79.216600  -40.585500  -73.193800
  C    -80.557800  -40.977400  -73.420000
  C    -81.450700  -39.891900  -73.377700
  H    -78.233600  -41.178300  -73.229700
  C    -80.984400  -42.381600  -73.824700
  H    -81.299800  -42.266700  -74.849000
  H    -81.846400  -42.819500  -73.301800
  C    -79.874700  -43.441800  -73.819400
  H    -78.958600  -43.213500  -74.380700
  H    -80.295700  -44.271200  -74.400900
  C    -79.626500  -43.898800  -72.419000
  H    -79.554400  -43.040300  -71.722500
  H    -78.631100  -44.428400  -72.468300
  H    -80.419100  -44.535600  -71.991100
  H    -86.408500  -39.615600  -73.569200
  H    -78.112700  -38.668600  -72.845200

 Total Charge           Charge          ....    0
 Multiplicity           Mult            ....    1
 Number of Electrons    NEL             ....  134
 Basis Dimension        Dim             ....  322

ORBITAL ENERGIES
----------------

  NO   OCC          E(Eh)            E(eV)
   0   2.0000     -88.966768     -2420.9088
   1   2.0000     -88.965016     -2420.8612
   2   2.0000     -10.325026      -280.9582
   3   2.0000     -10.322018      -280.8764
   4   2.0000     -10.320179      -280.8263
   5   2.0000     -10.316823      -280.7350
   6   2.0000     -10.308063      -280.4967
   7   2.0000     -10.307435      -280.4796
   8   2.0000     -10.301336      -280.3136
   9   2.0000     -10.290219      -280.0111
  10   2.0000     -10.290073      -280.0071
  11   2.0000     -10.289224      -279.9840
  12   2.0000     -10.288241      -279.9573
  13   2.0000     -10.285604      -279.8855
  14   2.0000     -10.284186      -279.8469
  15   2.0000     -10.279153      -279.7100
  16   2.0000      -8.082526      -219.9367
  17   2.0000      -8.079865      -219.8643
  18   2.0000      -6.040809      -164.3788
  19   2.0000      -6.038357      -164.3120
  20   2.0000      -6.036749      -164.2683
  21   2.0000      -6.034307      -164.2018
  22   2.0000      -6.033618      -164.1831
  23   2.0000      -6.030685      -164.1033
  24   2.0000      -1.010290       -27.4914
  25   2.0000      -0.985863       -26.8267
  26   2.0000      -0.915475       -24.9114
  27   2.0000      -0.899819       -24.4853
  28   2.0000      -0.866969       -23.5914
  29   2.0000      -0.851709       -23.1762
  30   2.0000      -0.842828       -22.9345
  31   2.0000      -0.812237       -22.1021
  32   2.0000      -0.783064       -21.3082
  33   2.0000      -0.769428       -20.9372
  34   2.0000      -0.706040       -19.2123
  35   2.0000      -0.694518       -18.8988
  36   2.0000      -0.689372       -18.7588
  37   2.0000      -0.649472       -17.6730
  38   2.0000      -0.644090       -17.5266
  39   2.0000      -0.617844       -16.8124
  40   2.0000      -0.600970       -16.3532
  41   2.0000      -0.564661       -15.3652
  42   2.0000      -0.555078       -15.1044
  43   2.0000      -0.545715       -14.8497
  44   2.0000      -0.539495       -14.6804
  45   2.0000      -0.528239       -14.3741
  46   2.0000      -0.522448       -14.2165
  47   2.0000      -0.515888       -14.0380
  48   2.0000      -0.502778       -13.6813
  49   2.0000      -0.496341       -13.5061
  50   2.0000      -0.487427       -13.2636
  51   2.0000      -0.474978       -12.9248
  52   2.0000      -0.471999       -12.8437
  53   2.0000      -0.467299       -12.7159
  54   2.0000      -0.461174       -12.5492
  55   2.0000      -0.447415       -12.1748
  56   2.0000      -0.445369       -12.1191
  57   2.0000      -0.439870       -11.9695
  58   2.0000      -0.434442       -11.8218
  59   2.0000      -0.422928       -11.5085
  60   2.0000      -0.416560       -11.3352
  61   2.0000      -0.411322       -11.1926
  62   2.0000      -0.410966       -11.1829
  63   2.0000      -0.341155        -9.2833
  64   2.0000      -0.332375        -9.0444
  65   2.0000      -0.329375        -8.9627
  66   2.0000      -0.291700        -7.9375
  67   0.0000       0.032927         0.8960
  68   0.0000       0.063164         1.7188
  69   0.0000       0.115955         3.1553
  70   0.0000       0.122471         3.3326
  71   0.0000       0.130277         3.5450

MULLIKEN ATOMIC CHARGES
-----------------------
   0 S :    0.109397
   1 C :   -0.121701
   2 C :   -0.113029
   3 C :    0.045616
   4 C :   -0.168552
   5 H :    0.015857
   6 C :    0.090868
   7 H :    0.023424
   8 H :    0.000665
   9 C :   -0.083082
  10 H :    0.026048
  11 H :    0.022956
  12 C :   -0.063113
  13 H :    0.044146
  14 H :    0.041681
  15 H :    0.054095
  16 S :    0.131063
  17 C :   -0.122429
  18 C :   -0.084629
  19 C :   -0.022743
  20 C :   -0.177141
  21 H :    0.052699
  22 C :    0.075395
  23 H :    0.019035
  24 H :    0.040325
  25 C :   -0.082676
  26 H :    0.031527
  27 H :    0.023807
  28 C :   -0.066052
  29 H :    0.039768
  30 H :    0.039837
  31 H :    0.038849
  32 H :    0.059119
  33 H :    0.078972
Sum of atomic charges:    0.0000000

LOEWDIN ATOMIC CHARGES
----------------------
   0 S :    0.403854
   1 C :   -0.205484
   2 C :   -0.055457
   3 C :   -0.066363
   4 C :   -0.192958
   5 H :    0.032682
   6 C :   -0.017601
   7 H :    0.021445
   8 H :    0.019771
   9 C :   -0.039205
  10 H :    0.021454
  11 H :    0.017344
  12 C :   -0.070478
  13 H :    0.030057
  14 H :    0.028081
  15 H :    0.035775
  16 S :    0.440273
  17 C :   -0.212251
  18 C :   -0.092498
  19 C :   -0.051595
  20 C :   -0.219143
  21 H :    0.048511
  22 C :   -0.031322
  23 H :    0.029459
  24 H :    0.038036
  25 C :   -0.051751
  26 H :    0.023592
  27 H :    0.028283
  28 C :   -0.072970
  29 H :    0.026663
  30 H :    0.032661
  31 H :    0.028238
  32 H :    0.030451
  33 H :    0.042447

  Mayer bond orders larger than 0.100000
B(  0-S ,  1-C ) :   1.1277 B(  0-S ,  4-C ) :   1.1664 B(  1-C ,  2-C ) :   1.6098
B(  1-C ,  4-C ) :   0.1005 B(  1-C , 32-H ) :   0.9673 B(  2-C ,  3-C ) :   1.2113
B(  2-C ,  6-C ) :   1.0164 B(  3-C ,  4-C ) :   1.5889 B(  3-C ,  5-H ) :   0.9941
B(  4-C , 20-C ) :   1.0244 B(  6-C ,  7-H ) :   0.9449 B(  6-C ,  8-H ) :   0.9445
B(  6-C ,  9-C ) :   1.0626 B(  9-C , 10-H ) :   0.9606 B(  9-C , 11-H ) :   0.9611
B(  9-C , 12-C ) :   1.0591 B( 12-C , 13-H ) :   0.9759 B( 12-C , 14-H ) :   0.9756
B( 12-C , 15-H ) :   0.9784 B( 16-S , 17-C ) :   1.1986 B( 16-S , 20-C ) :   1.1630
B( 17-C , 18-C ) :   1.5658 B( 17-C , 20-C ) :   0.1098 B( 17-C , 33-H ) :   0.9563
B( 18-C , 19-C ) :   1.2743 B( 18-C , 21-H ) :   0.9768 B( 19-C , 20-C ) :   1.5616
B( 19-C , 22-C ) :   1.0251 B( 22-C , 23-H ) :   0.9223 B( 22-C , 24-H ) :   0.9339
B( 22-C , 25-C ) :   1.0985 B( 25-C , 26-H ) :   0.9521 B( 25-C , 27-H ) :   0.9469
B( 25-C , 28-C ) :   1.0710 B( 28-C , 29-H ) :   0.9785 B( 28-C , 30-H ) :   0.9742
B( 28-C , 31-H ) :   0.9715

Dispersion correction           -0.014775302
FINAL SINGLE POINT ENERGY     -1339.873809064299

DIPOLE MOMENT
-------------
                                X             Y             Z
Electronic contribution:      3.02613      26.86217       9.94192
Nuclear contribution   :     -2.92017     -27.42212     -10.40609
                        -----------------------------------------
Total Dipole Moment    :      0.10596      -0.55996      -0.46417
                        -----------------------------------------
Magnitude (a.u.)       :      0.73500
Magnitude (Debye)      :      1.86823

Rotational constants in cm-1:     0.017690     0.009626     0.006980
Rotational constants in MHz :   530.342519   288.579658   209.247414

                             ****ORCA TERMINATED NORMALLY****
TOTAL RUN TIME: 0 days 0 hours 0 minutes 21 seconds 74 msec
