                         Program Version 4.2.1 -  RELEASE  -
|  1> ! wB97X-D3 SP def2-SVP
|  2> %pal
|  3> nprocs 24
|  4> end
|  5>
|  6> * xyz 0 1
|  7> S 	 -105.928 	 54.5509 	 -81.8803
|  8> C 	 -107.142 	 55.2915 	 -82.9811
|  9> C 	 -108.409 	 54.9952 	 -82.5635
| 10> C 	 -108.445 	 54.1103 	 -81.4519
| 11> C 	 -107.221 	 53.6491 	 -81.0365
| 12> H 	 -109.328 	 53.7917 	 -80.9515
| 13> C 	 -109.724 	 55.6049 	 -83.207
| 14> H 	 -109.692 	 56.6433 	 -82.8865
| 15> H 	 -110.538 	 55.1146 	 -82.7262
| 16> C 	 -109.696 	 55.3693 	 -84.7979
| 17> H 	 -108.883 	 55.996 	 -85.1666
| 18> H 	 -109.43 	 54.3018 	 -84.905
| 19> C 	 -110.977 	 55.7072 	 -85.462
| 20> H 	 -110.853 	 55.6319 	 -86.4935
| 21> H 	 -111.724 	 54.956 	 -85.0993
| 22> H 	 -111.223 	 56.7863 	 -85.1746
| 23> S 	 -107.992 	 52.612 	 -78.581
| 24> C 	 -107.191 	 51.1758 	 -78.0277
| 25> C 	 -106.093 	 50.8313 	 -78.7825
| 26> C 	 -105.977 	 51.6834 	 -79.9647
| 27> C 	 -106.948 	 52.6534 	 -80.0023
| 28> H 	 -105.514 	 50.0207 	 -78.4364
| 29> C 	 -104.778 	 51.4017 	 -80.9639
| 30> H 	 -103.966 	 51.0127 	 -80.3139
| 31> H 	 -104.507 	 52.3475 	 -81.4073
| 32> C 	 -105.214 	 50.3723 	 -82.0739
| 33> H 	 -104.408 	 50.4506 	 -82.7758
| 34> H 	 -106.122 	 50.8141 	 -82.5231
| 35> C 	 -105.404 	 48.9711 	 -81.4912
| 36> H 	 -105.383 	 48.2178 	 -82.2193
| 37> H 	 -106.372 	 48.8003 	 -80.9739
| 38> H 	 -104.665 	 48.6741 	 -80.7627
| 39> H 	 -106.827 	 56.0428 	 -83.7111
| 40> H 	 -107.557 	 50.6483 	 -77.1792
| 41> *
| 42>
| 43>                          ****END OF INPUT****

CARTESIAN COORDINATES (ANGSTROEM)
---------------------------------
  S    -105.928000   54.550900  -81.880300
  C    -107.142000   55.291500  -82.981100
  C    -108.409000   54.995200  -82.563500
  C    -108.445000   54.110300  -81.451900
  C    -107.221000   53.649100  -81.036500
  H    -109.328000   53.791700  -80.951500
  C    -109.724000   55.604900  -83.207000
  H    -109.692000   56.643300  -82.886500
  H    -110.538000   55.114600  -82.726200
  C    -109.696000   55.369300  -84.797900
  H    -108.883000   55.996000  -85.166600
  H    -109.430000   54.301800  -84.905000
  C    -110.977000   55.707200  -85.462000
  H    -110.853000   55.631900  -86.493500
  H    -111.724000   54.956000  -85.099300
  H    -111.223000   56.786300  -85.174600
  S    -107.992000   52.612000  -78.581000
  C    -107.191000   51.175800  -78.027700
  C    -106.093000   50.831300  -78.782500
  C    -105.977000   51.683400  -79.964700
  C    -106.948000   52.653400  -80.002300
  H    -105.514000   50.020700  -78.436400
  C    -104.778000   51.401700  -80.963900
  H    -103.966000   51.012700  -80.313900
  H    -104.507000   52.347500  -81.407300
  C    -105.214000   50.372300  -82.073900
  H    -104.408000   50.450600  -82.775800
  H    -106.122000   50.814100  -82.523100
  C    -105.404000   48.971100  -81.491200
  H    -105.383000   48.217800  -82.219300
  H    -106.372000   48.800300  -80.973900
  H    -104.665000   48.674100  -80.762700
  H    -106.827000   56.042800  -83.711100
  H    -107.557000   50.648300  -77.179200

 Total Charge           Charge          ....    0
 Multiplicity           Mult            ....    1
 Number of Electrons    NEL             ....  134
 Basis Dimension        Dim             ....  322

ORBITAL ENERGIES
----------------

  NO   OCC          E(Eh)            E(eV)
   0   2.0000     -88.964310     -2420.8419
   1   2.0000     -88.963474     -2420.8192
   2   2.0000     -10.331343      -281.1301
   3   2.0000     -10.325642      -280.9750
   4   2.0000     -10.314693      -280.6771
   5   2.0000     -10.313121      -280.6343
   6   2.0000     -10.306344      -280.4499
   7   2.0000     -10.301733      -280.3244
   8   2.0000     -10.295963      -280.1674
   9   2.0000     -10.294878      -280.1379
  10   2.0000     -10.292450      -280.0718
  11   2.0000     -10.289571      -279.9935
  12   2.0000     -10.289441      -279.9899
  13   2.0000     -10.286886      -279.9204
  14   2.0000     -10.280127      -279.7365
  15   2.0000     -10.271822      -279.5105
  16   2.0000      -8.079229      -219.8470
  17   2.0000      -8.076739      -219.7793
  18   2.0000      -6.037730      -164.2950
  19   2.0000      -6.035362      -164.2306
  20   2.0000      -6.033856      -164.1896
  21   2.0000      -6.031607      -164.1284
  22   2.0000      -6.029872      -164.0812
  23   2.0000      -6.027332      -164.0120
  24   2.0000      -1.001597       -27.2548
  25   2.0000      -0.978529       -26.6271
  26   2.0000      -0.905362       -24.6361
  27   2.0000      -0.899947       -24.4888
  28   2.0000      -0.869107       -23.6496
  29   2.0000      -0.848216       -23.0811
  30   2.0000      -0.839946       -22.8561
  31   2.0000      -0.813677       -22.1413
  32   2.0000      -0.782655       -21.2971
  33   2.0000      -0.770228       -20.9590
  34   2.0000      -0.708092       -19.2682
  35   2.0000      -0.696351       -18.9487
  36   2.0000      -0.686083       -18.6693
  37   2.0000      -0.666862       -18.1462
  38   2.0000      -0.636374       -17.3166
  39   2.0000      -0.612266       -16.6606
  40   2.0000      -0.587614       -15.9898
  41   2.0000      -0.572913       -15.5898
  42   2.0000      -0.559142       -15.2150
  43   2.0000      -0.551204       -14.9990
  44   2.0000      -0.539064       -14.6687
  45   2.0000      -0.527001       -14.3404
  46   2.0000      -0.517292       -14.0762
  47   2.0000      -0.513183       -13.9644
  48   2.0000      -0.504877       -13.7384
  49   2.0000      -0.495669       -13.4878
  50   2.0000      -0.486307       -13.2331
  51   2.0000      -0.480836       -13.0842
  52   2.0000      -0.470535       -12.8039
  53   2.0000      -0.467199       -12.7131
  54   2.0000      -0.454227       -12.3601
  55   2.0000      -0.449806       -12.2398
  56   2.0000      -0.440888       -11.9972
  57   2.0000      -0.436337       -11.8733
  58   2.0000      -0.428084       -11.6488
  59   2.0000      -0.426800       -11.6138
  60   2.0000      -0.420362       -11.4386
  61   2.0000      -0.412945       -11.2368
  62   2.0000      -0.408479       -11.1153
  63   2.0000      -0.350186        -9.5290
  64   2.0000      -0.330728        -8.9996
  65   2.0000      -0.329262        -8.9597
  66   2.0000      -0.288147        -7.8409
  67   0.0000       0.025615         0.6970
  68   0.0000       0.082175         2.2361
  69   0.0000       0.102320         2.7843
  70   0.0000       0.113389         3.0855
  71   0.0000       0.132000         3.5919

MULLIKEN ATOMIC CHARGES
-----------------------
   0 S :    0.080583
   1 C :   -0.157404
   2 C :   -0.086755
   3 C :    0.010235
   4 C :   -0.121708
   5 H :   -0.001280
   6 C :    0.089010
   7 H :    0.044307
   8 H :    0.008892
   9 C :   -0.124878
  10 H :    0.031134
  11 H :    0.045181
  12 C :   -0.013776
  13 H :    0.028713
  14 H :    0.041140
  15 H :    0.039692
  16 S :    0.100696
  17 C :   -0.090993
  18 C :   -0.015995
  19 C :   -0.067046
  20 C :   -0.140181
  21 H :    0.006568
  22 C :    0.050267
  23 H :    0.035368
  24 H :    0.019877
  25 C :   -0.036167
  26 H :    0.029914
  27 H :    0.043716
  28 C :   -0.030752
  29 H :    0.017338
  30 H :    0.040003
  31 H :    0.016764
  32 H :    0.060341
  33 H :    0.047195
Sum of atomic charges:   -0.0000000

LOEWDIN ATOMIC CHARGES
----------------------
   0 S :    0.371877
   1 C :   -0.188033
   2 C :   -0.060310
   3 C :   -0.070844
   4 C :   -0.168526
   5 H :    0.022888
   6 C :   -0.019147
   7 H :    0.031868
   8 H :    0.019085
   9 C :   -0.040516
  10 H :    0.020718
  11 H :    0.029134
  12 C :   -0.065634
  13 H :    0.017986
  14 H :    0.033043
  15 H :    0.035428
  16 S :    0.398804
  17 C :   -0.177821
  18 C :   -0.066501
  19 C :   -0.049715
  20 C :   -0.199651
  21 H :    0.026142
  22 C :   -0.024148
  23 H :    0.031075
  24 H :    0.011155
  25 C :   -0.030296
  26 H :    0.021525
  27 H :    0.033426
  28 C :   -0.067781
  29 H :    0.018504
  30 H :    0.033503
  31 H :    0.021630
  32 H :    0.029695
  33 H :    0.021436

  Mayer bond orders larger than 0.100000
B(  0-S ,  1-C ) :   1.1147 B(  0-S ,  4-C ) :   1.1354 B(  1-C ,  2-C ) :   1.6276
B(  1-C , 32-H ) :   0.9705 B(  2-C ,  3-C ) :   1.2417 B(  2-C ,  6-C ) :   0.9966
B(  3-C ,  4-C ) :   1.5790 B(  3-C ,  5-H ) :   0.9974 B(  4-C , 20-C ) :   1.0625
B(  6-C ,  7-H ) :   0.9397 B(  6-C ,  8-H ) :   0.9478 B(  6-C ,  9-C ) :   1.0510
B(  9-C , 10-H ) :   0.9523 B(  9-C , 11-H ) :   0.9616 B(  9-C , 12-C ) :   1.0957
B( 12-C , 13-H ) :   0.9710 B( 12-C , 14-H ) :   0.9729 B( 12-C , 15-H ) :   0.9694
B( 16-S , 17-C ) :   1.1506 B( 16-S , 20-C ) :   1.1234 B( 17-C , 18-C ) :   1.6330
B( 17-C , 33-H ) :   0.9697 B( 18-C , 19-C ) :   1.2030 B( 18-C , 21-H ) :   0.9979
B( 19-C , 20-C ) :   1.6256 B( 19-C , 22-C ) :   1.0156 B( 22-C , 23-H ) :   0.9446
B( 22-C , 24-H ) :   0.9337 B( 22-C , 25-C ) :   1.0660 B( 25-C , 26-H ) :   0.9603
B( 25-C , 27-H ) :   0.9560 B( 25-C , 28-C ) :   1.0714 B( 28-C , 29-H ) :   0.9725
B( 28-C , 30-H ) :   0.9695 B( 28-C , 31-H ) :   0.9748

Dispersion correction           -0.014296469
FINAL SINGLE POINT ENERGY     -1339.879002558923

DIPOLE MOMENT
-------------
                                X             Y             Z
Electronic contribution:      5.36581       5.45624      18.35814
Nuclear contribution   :     -5.52974      -5.65480     -18.62684
                        -----------------------------------------
Total Dipole Moment    :     -0.16393      -0.19856      -0.26870
                        -----------------------------------------
Magnitude (a.u.)       :      0.37216
Magnitude (Debye)      :      0.94595

Rotational constants in cm-1:     0.021701     0.007247     0.006492
Rotational constants in MHz :   650.582395   217.265274   194.634488

                             ****ORCA TERMINATED NORMALLY****
TOTAL RUN TIME: 0 days 0 hours 0 minutes 20 seconds 20 msec
