                         Program Version 4.2.1 -  RELEASE  -
|  1> ! wB97X-D3 SP def2-SVP
|  2> %pal
|  3> nprocs 24
|  4> end
|  5>
|  6> * xyz 0 1
|  7> S 	 -124.681 	 66.7772 	 -43.3182
|  8> C 	 -124.975 	 68.1326 	 -42.3393
|  9> C 	 -123.858 	 68.7294 	 -41.7854
| 10> C 	 -122.667 	 68.123 	 -42.2544
| 11> C 	 -122.957 	 67.049 	 -43.0952
| 12> H 	 -121.668 	 68.4135 	 -41.9778
| 13> C 	 -123.841 	 69.9809 	 -40.9089
| 14> H 	 -123.158 	 69.7944 	 -40.0371
| 15> H 	 -124.881 	 69.9864 	 -40.5871
| 16> C 	 -123.485 	 71.2944 	 -41.6958
| 17> H 	 -123.263 	 72.0477 	 -40.9385
| 18> H 	 -122.589 	 71.1778 	 -42.242
| 19> C 	 -124.594 	 71.6922 	 -42.6257
| 20> H 	 -124.236 	 72.4449 	 -43.3094
| 21> H 	 -124.986 	 70.9112 	 -43.2684
| 22> H 	 -125.496 	 71.9019 	 -42.1136
| 23> S 	 -120.736 	 65.386 	 -42.6269
| 24> C 	 -120.206 	 64.3328 	 -43.9202
| 25> C 	 -120.833 	 64.6377 	 -45.1313
| 26> C 	 -121.869 	 65.5813 	 -44.9984
| 27> C 	 -121.989 	 66.0935 	 -43.6598
| 28> H 	 -120.527 	 64.1784 	 -46.0403
| 29> C 	 -122.835 	 65.9069 	 -46.1379
| 30> H 	 -123.885 	 65.8066 	 -45.9049
| 31> H 	 -122.634 	 65.0618 	 -46.8047
| 32> C 	 -122.525 	 67.0969 	 -47.0244
| 33> H 	 -122.819 	 66.9587 	 -48.0204
| 34> H 	 -121.467 	 67.3726 	 -46.924
| 35> C 	 -123.266 	 68.3362 	 -46.5124
| 36> H 	 -124.313 	 67.9933 	 -46.2798
| 37> H 	 -123.149 	 69.1519 	 -47.231
| 38> H 	 -122.925 	 68.4792 	 -45.4749
| 39> H 	 -126.043 	 68.5483 	 -42.2508
| 40> H 	 -119.313 	 63.6436 	 -43.7293
| 41> *
| 42>
| 43>                          ****END OF INPUT****

CARTESIAN COORDINATES (ANGSTROEM)
---------------------------------
  S    -124.681000   66.777200  -43.318200
  C    -124.975000   68.132600  -42.339300
  C    -123.858000   68.729400  -41.785400
  C    -122.667000   68.123000  -42.254400
  C    -122.957000   67.049000  -43.095200
  H    -121.668000   68.413500  -41.977800
  C    -123.841000   69.980900  -40.908900
  H    -123.158000   69.794400  -40.037100
  H    -124.881000   69.986400  -40.587100
  C    -123.485000   71.294400  -41.695800
  H    -123.263000   72.047700  -40.938500
  H    -122.589000   71.177800  -42.242000
  C    -124.594000   71.692200  -42.625700
  H    -124.236000   72.444900  -43.309400
  H    -124.986000   70.911200  -43.268400
  H    -125.496000   71.901900  -42.113600
  S    -120.736000   65.386000  -42.626900
  C    -120.206000   64.332800  -43.920200
  C    -120.833000   64.637700  -45.131300
  C    -121.869000   65.581300  -44.998400
  C    -121.989000   66.093500  -43.659800
  H    -120.527000   64.178400  -46.040300
  C    -122.835000   65.906900  -46.137900
  H    -123.885000   65.806600  -45.904900
  H    -122.634000   65.061800  -46.804700
  C    -122.525000   67.096900  -47.024400
  H    -122.819000   66.958700  -48.020400
  H    -121.467000   67.372600  -46.924000
  C    -123.266000   68.336200  -46.512400
  H    -124.313000   67.993300  -46.279800
  H    -123.149000   69.151900  -47.231000
  H    -122.925000   68.479200  -45.474900
  H    -126.043000   68.548300  -42.250800
  H    -119.313000   63.643600  -43.729300

 Total Charge           Charge          ....    0
 Multiplicity           Mult            ....    1
 Number of Electrons    NEL             ....  134
 Basis Dimension        Dim             ....  322

ORBITAL ENERGIES
----------------

  NO   OCC          E(Eh)            E(eV)
   0   2.0000     -88.971327     -2421.0329
   1   2.0000     -88.968409     -2420.9535
   2   2.0000     -10.331411      -281.1320
   3   2.0000     -10.330048      -281.0949
   4   2.0000     -10.325142      -280.9614
   5   2.0000     -10.315025      -280.6861
   6   2.0000     -10.307394      -280.4785
   7   2.0000     -10.298283      -280.2305
   8   2.0000     -10.296494      -280.1818
   9   2.0000     -10.295384      -280.1516
  10   2.0000     -10.294258      -280.1210
  11   2.0000     -10.286889      -279.9205
  12   2.0000     -10.284586      -279.8578
  13   2.0000     -10.274102      -279.5725
  14   2.0000     -10.269373      -279.4438
  15   2.0000     -10.267906      -279.4039
  16   2.0000      -8.086371      -220.0413
  17   2.0000      -8.082505      -219.9361
  18   2.0000      -6.044708      -164.4849
  19   2.0000      -6.040939      -164.3823
  20   2.0000      -6.040853      -164.3800
  21   2.0000      -6.037202      -164.2806
  22   2.0000      -6.037023      -164.2757
  23   2.0000      -6.033575      -164.1819
  24   2.0000      -1.006096       -27.3773
  25   2.0000      -0.982954       -26.7475
  26   2.0000      -0.911405       -24.8006
  27   2.0000      -0.909739       -24.7553
  28   2.0000      -0.864679       -23.5291
  29   2.0000      -0.856683       -23.3115
  30   2.0000      -0.847360       -23.0579
  31   2.0000      -0.808046       -21.9880
  32   2.0000      -0.781411       -21.2633
  33   2.0000      -0.765103       -20.8195
  34   2.0000      -0.709751       -19.3133
  35   2.0000      -0.694368       -18.8947
  36   2.0000      -0.682394       -18.5689
  37   2.0000      -0.661058       -17.9883
  38   2.0000      -0.639852       -17.4113
  39   2.0000      -0.618004       -16.8167
  40   2.0000      -0.598986       -16.2992
  41   2.0000      -0.564940       -15.3728
  42   2.0000      -0.559182       -15.2161
  43   2.0000      -0.551170       -14.9981
  44   2.0000      -0.537354       -14.6222
  45   2.0000      -0.531439       -14.4612
  46   2.0000      -0.522018       -14.2048
  47   2.0000      -0.516054       -14.0425
  48   2.0000      -0.496920       -13.5219
  49   2.0000      -0.490289       -13.3414
  50   2.0000      -0.481079       -13.0908
  51   2.0000      -0.478557       -13.0222
  52   2.0000      -0.474173       -12.9029
  53   2.0000      -0.463769       -12.6198
  54   2.0000      -0.456588       -12.4244
  55   2.0000      -0.451009       -12.2726
  56   2.0000      -0.446394       -12.1470
  57   2.0000      -0.438323       -11.9274
  58   2.0000      -0.433339       -11.7917
  59   2.0000      -0.429719       -11.6932
  60   2.0000      -0.414097       -11.2682
  61   2.0000      -0.411705       -11.2031
  62   2.0000      -0.400654       -10.9024
  63   2.0000      -0.345148        -9.3920
  64   2.0000      -0.335643        -9.1333
  65   2.0000      -0.331442        -9.0190
  66   2.0000      -0.285628        -7.7723
  67   0.0000       0.025583         0.6961
  68   0.0000       0.070201         1.9103
  69   0.0000       0.108232         2.9451
  70   0.0000       0.112764         3.0685
  71   0.0000       0.126922         3.4537

MULLIKEN ATOMIC CHARGES
-----------------------
   0 S :    0.128916
   1 C :   -0.154278
   2 C :   -0.101968
   3 C :    0.024659
   4 C :   -0.166967
   5 H :    0.009879
   6 C :    0.043224
   7 H :    0.043866
   8 H :    0.016928
   9 C :   -0.022791
  10 H :    0.032329
  11 H :    0.018886
  12 C :   -0.031142
  13 H :    0.035394
  14 H :    0.023326
  15 H :    0.012619
  16 S :    0.112503
  17 C :   -0.134503
  18 C :   -0.010297
  19 C :   -0.043087
  20 C :   -0.146785
  21 H :    0.011975
  22 C :    0.048207
  23 H :    0.031091
  24 H :    0.008574
  25 C :   -0.035521
  26 H :    0.020235
  27 H :    0.032390
  28 C :   -0.057783
  29 H :    0.013178
  30 H :    0.044681
  31 H :    0.033359
  32 H :    0.070780
  33 H :    0.088121
Sum of atomic charges:   -0.0000000

LOEWDIN ATOMIC CHARGES
----------------------
   0 S :    0.437863
   1 C :   -0.230021
   2 C :   -0.068104
   3 C :   -0.058580
   4 C :   -0.190155
   5 H :    0.030570
   6 C :   -0.029625
   7 H :    0.036480
   8 H :    0.027821
   9 C :   -0.031705
  10 H :    0.026545
  11 H :    0.018557
  12 C :   -0.065719
  13 H :    0.028740
  14 H :    0.027491
  15 H :    0.019960
  16 S :    0.406910
  17 C :   -0.198095
  18 C :   -0.069452
  19 C :   -0.054498
  20 C :   -0.202176
  21 H :    0.028947
  22 C :   -0.038127
  23 H :    0.022338
  24 H :    0.034731
  25 C :   -0.036154
  26 H :    0.014211
  27 H :    0.028778
  28 C :   -0.071327
  29 H :    0.020032
  30 H :    0.024157
  31 H :    0.027442
  32 H :    0.038598
  33 H :    0.043568

  Mayer bond orders larger than 0.100000
B(  0-S ,  1-C ) :   1.1533 B(  0-S ,  4-C ) :   1.1659 B(  1-C ,  2-C ) :   1.6067
B(  1-C , 32-H ) :   0.9486 B(  2-C ,  3-C ) :   1.2495 B(  2-C ,  6-C ) :   1.0194
B(  3-C ,  4-C ) :   1.5481 B(  3-C ,  5-H ) :   1.0003 B(  4-C , 20-C ) :   1.0469
B(  6-C ,  7-H ) :   0.9406 B(  6-C ,  8-H ) :   0.9431 B(  6-C ,  9-C ) :   1.0586
B(  9-C , 10-H ) :   0.9550 B(  9-C , 11-H ) :   0.9589 B(  9-C , 12-C ) :   1.0772
B( 12-C , 13-H ) :   0.9707 B( 12-C , 14-H ) :   0.9715 B( 12-C , 15-H ) :   0.9717
B( 16-S , 17-C ) :   1.1758 B( 16-S , 20-C ) :   1.1535 B( 17-C , 18-C ) :   1.5589
B( 17-C , 20-C ) :   0.1075 B( 17-C , 33-H ) :   0.9574 B( 18-C , 19-C ) :   1.2987
B( 18-C , 21-H ) :   0.9915 B( 19-C , 20-C ) :   1.5149 B( 19-C , 22-C ) :   1.0345
B( 22-C , 23-H ) :   0.9430 B( 22-C , 24-H ) :   0.9250 B( 22-C , 25-C ) :   1.0630
B( 25-C , 26-H ) :   0.9566 B( 25-C , 27-H ) :   0.9537 B( 25-C , 28-C ) :   1.0808
B( 28-C , 29-H ) :   0.9732 B( 28-C , 30-H ) :   0.9730 B( 28-C , 31-H ) :   0.9725

Dispersion correction           -0.015933516
FINAL SINGLE POINT ENERGY     -1339.873586308390

DIPOLE MOMENT
-------------
                                X             Y             Z
Electronic contribution:      5.95491     -20.77460       8.44888
Nuclear contribution   :     -5.88581      21.01752      -8.63088
                        -----------------------------------------
Total Dipole Moment    :      0.06910       0.24291      -0.18200
                        -----------------------------------------
Magnitude (a.u.)       :      0.31130
Magnitude (Debye)      :      0.79125

Rotational constants in cm-1:     0.021099     0.009056     0.007625
Rotational constants in MHz :   632.540154   271.505752   228.599809

                             ****ORCA TERMINATED NORMALLY****
TOTAL RUN TIME: 0 days 0 hours 0 minutes 21 seconds 494 msec
