                         Program Version 4.2.1 -  RELEASE  -
|  1> ! wB97X-D3 SP def2-SVP
|  2> %pal
|  3> nprocs 24
|  4> end
|  5>
|  6> * xyz 0 1
|  7> S 	 27.4842 	 -26.2008 	 -129.022
|  8> C 	 25.9287 	 -26.1008 	 -128.361
|  9> C 	 25.1984 	 -27.2787 	 -128.581
| 10> C 	 26.0383 	 -28.3018 	 -129.171
| 11> C 	 27.3382 	 -27.8658 	 -129.392
| 12> H 	 25.7411 	 -29.277 	 -129.412
| 13> C 	 23.6912 	 -27.5188 	 -128.26
| 14> H 	 23.4477 	 -28.5512 	 -128.469
| 15> H 	 23.114 	 -26.89 	 -128.962
| 16> C 	 23.3651 	 -27.1074 	 -126.889
| 17> H 	 23.7504 	 -27.8693 	 -126.221
| 18> H 	 23.8842 	 -26.1479 	 -126.783
| 19> C 	 21.8263 	 -27.1166 	 -126.687
| 20> H 	 21.2724 	 -28.0731 	 -126.941
| 21> H 	 21.6225 	 -26.8773 	 -125.574
| 22> H 	 21.3402 	 -26.2054 	 -127.151
| 23> S 	 29.6318 	 -28.0391 	 -130.82
| 24> C 	 30.6154 	 -29.4527 	 -130.748
| 25> C 	 30.0056 	 -30.4563 	 -129.995
| 26> C 	 28.7559 	 -30.0065 	 -129.404
| 27> C 	 28.4381 	 -28.732 	 -129.769
| 28> H 	 30.4043 	 -31.4348 	 -130.013
| 29> C 	 27.8814 	 -30.8802 	 -128.434
| 30> H 	 26.8703 	 -30.9935 	 -128.8
| 31> H 	 27.6575 	 -30.1679 	 -127.597
| 32> C 	 28.4918 	 -32.2216 	 -127.959
| 33> H 	 29.5767 	 -32.0179 	 -127.692
| 34> H 	 28.6181 	 -32.9162 	 -128.761
| 35> C 	 27.7061 	 -32.8871 	 -126.853
| 36> H 	 28.3523 	 -33.6572 	 -126.334
| 37> H 	 26.7346 	 -33.3775 	 -127.133
| 38> H 	 27.5132 	 -32.1342 	 -126.117
| 39> H 	 25.4782 	 -25.1718 	 -128.094
| 40> H 	 31.5633 	 -29.5107 	 -131.216
| 41> *
| 42>
| 43>                          ****END OF INPUT****

CARTESIAN COORDINATES (ANGSTROEM)
---------------------------------
  S     27.484200  -26.200800  -129.022000
  C     25.928700  -26.100800  -128.361000
  C     25.198400  -27.278700  -128.581000
  C     26.038300  -28.301800  -129.171000
  C     27.338200  -27.865800  -129.392000
  H     25.741100  -29.277000  -129.412000
  C     23.691200  -27.518800  -128.260000
  H     23.447700  -28.551200  -128.469000
  H     23.114000  -26.890000  -128.962000
  C     23.365100  -27.107400  -126.889000
  H     23.750400  -27.869300  -126.221000
  H     23.884200  -26.147900  -126.783000
  C     21.826300  -27.116600  -126.687000
  H     21.272400  -28.073100  -126.941000
  H     21.622500  -26.877300  -125.574000
  H     21.340200  -26.205400  -127.151000
  S     29.631800  -28.039100  -130.820000
  C     30.615400  -29.452700  -130.748000
  C     30.005600  -30.456300  -129.995000
  C     28.755900  -30.006500  -129.404000
  C     28.438100  -28.732000  -129.769000
  H     30.404300  -31.434800  -130.013000
  C     27.881400  -30.880200  -128.434000
  H     26.870300  -30.993500  -128.800000
  H     27.657500  -30.167900  -127.597000
  C     28.491800  -32.221600  -127.959000
  H     29.576700  -32.017900  -127.692000
  H     28.618100  -32.916200  -128.761000
  C     27.706100  -32.887100  -126.853000
  H     28.352300  -33.657200  -126.334000
  H     26.734600  -33.377500  -127.133000
  H     27.513200  -32.134200  -126.117000
  H     25.478200  -25.171800  -128.094000
  H     31.563300  -29.510700  -131.216000

 Total Charge           Charge          ....    0
 Multiplicity           Mult            ....    1
 Number of Electrons    NEL             ....  134
 Basis Dimension        Dim             ....  322

ORBITAL ENERGIES
----------------

  NO   OCC          E(Eh)            E(eV)
   0   2.0000     -88.967713     -2420.9345
   1   2.0000     -88.962626     -2420.7961
   2   2.0000     -10.324925      -280.9555
   3   2.0000     -10.320593      -280.8376
   4   2.0000     -10.314918      -280.6832
   5   2.0000     -10.310388      -280.5599
   6   2.0000     -10.307018      -280.4682
   7   2.0000     -10.305265      -280.4205
   8   2.0000     -10.298436      -280.2347
   9   2.0000     -10.295391      -280.1518
  10   2.0000     -10.295062      -280.1429
  11   2.0000     -10.291343      -280.0417
  12   2.0000     -10.290760      -280.0258
  13   2.0000     -10.289931      -280.0033
  14   2.0000     -10.285549      -279.8840
  15   2.0000     -10.284508      -279.8557
  16   2.0000      -8.083922      -219.9747
  17   2.0000      -8.078416      -219.8249
  18   2.0000      -6.042329      -164.4201
  19   2.0000      -6.038117      -164.3055
  20   2.0000      -6.036827      -164.2704
  21   2.0000      -6.034804      -164.2154
  22   2.0000      -6.032739      -164.1592
  23   2.0000      -6.029282      -164.0651
  24   2.0000      -1.013562       -27.5804
  25   2.0000      -0.988666       -26.9030
  26   2.0000      -0.919912       -25.0321
  27   2.0000      -0.905750       -24.6467
  28   2.0000      -0.872576       -23.7440
  29   2.0000      -0.853426       -23.2229
  30   2.0000      -0.843968       -22.9655
  31   2.0000      -0.811816       -22.0906
  32   2.0000      -0.779950       -21.2235
  33   2.0000      -0.770882       -20.9768
  34   2.0000      -0.707896       -19.2628
  35   2.0000      -0.703851       -19.1528
  36   2.0000      -0.690895       -18.8002
  37   2.0000      -0.661791       -18.0082
  38   2.0000      -0.647118       -17.6090
  39   2.0000      -0.616588       -16.7782
  40   2.0000      -0.596780       -16.2392
  41   2.0000      -0.583568       -15.8797
  42   2.0000      -0.563524       -15.3343
  43   2.0000      -0.559781       -15.2324
  44   2.0000      -0.529756       -14.4154
  45   2.0000      -0.518856       -14.1188
  46   2.0000      -0.515762       -14.0346
  47   2.0000      -0.512857       -13.9556
  48   2.0000      -0.506888       -13.7931
  49   2.0000      -0.498027       -13.5520
  50   2.0000      -0.491743       -13.3810
  51   2.0000      -0.481814       -13.1108
  52   2.0000      -0.475136       -12.9291
  53   2.0000      -0.472162       -12.8482
  54   2.0000      -0.457736       -12.4556
  55   2.0000      -0.454256       -12.3609
  56   2.0000      -0.449506       -12.2317
  57   2.0000      -0.434354       -11.8194
  58   2.0000      -0.432192       -11.7605
  59   2.0000      -0.423679       -11.5289
  60   2.0000      -0.420367       -11.4388
  61   2.0000      -0.413558       -11.2535
  62   2.0000      -0.412385       -11.2216
  63   2.0000      -0.352412        -9.5896
  64   2.0000      -0.330736        -8.9998
  65   2.0000      -0.328985        -8.9521
  66   2.0000      -0.288702        -7.8560
  67   0.0000       0.028826         0.7844
  68   0.0000       0.078230         2.1287
  69   0.0000       0.109672         2.9843
  70   0.0000       0.128374         3.4932
  71   0.0000       0.135374         3.6837

MULLIKEN ATOMIC CHARGES
-----------------------
   0 S :    0.137812
   1 C :   -0.132182
   2 C :   -0.100912
   3 C :    0.013193
   4 C :   -0.127858
   5 H :   -0.015542
   6 C :    0.097763
   7 H :    0.009741
   8 H :    0.032811
   9 C :   -0.074683
  10 H :    0.034225
  11 H :    0.033954
  12 C :   -0.103393
  13 H :    0.056750
  14 H :    0.039159
  15 H :    0.040250
  16 S :    0.100173
  17 C :   -0.076692
  18 C :   -0.041222
  19 C :   -0.039214
  20 C :   -0.147061
  21 H :    0.011900
  22 C :    0.031346
  23 H :    0.025213
  24 H :    0.041139
  25 C :   -0.074668
  26 H :    0.037394
  27 H :    0.026158
  28 C :   -0.044234
  29 H :    0.040458
  30 H :    0.047018
  31 H :    0.024218
  32 H :    0.048864
  33 H :    0.048123
Sum of atomic charges:   -0.0000000

LOEWDIN ATOMIC CHARGES
----------------------
   0 S :    0.452263
   1 C :   -0.225482
   2 C :   -0.053997
   3 C :   -0.059738
   4 C :   -0.209831
   5 H :    0.019174
   6 C :   -0.029303
   7 H :    0.022764
   8 H :    0.032596
   9 C :   -0.044778
  10 H :    0.027792
  11 H :    0.028913
  12 C :   -0.083688
  13 H :    0.034788
  14 H :    0.032543
  15 H :    0.029034
  16 S :    0.415981
  17 C :   -0.183051
  18 C :   -0.070465
  19 C :   -0.051908
  20 C :   -0.203904
  21 H :    0.025717
  22 C :   -0.036096
  23 H :    0.023895
  24 H :    0.040562
  25 C :   -0.049540
  26 H :    0.032743
  27 H :    0.019222
  28 C :   -0.068633
  29 H :    0.035359
  30 H :    0.031773
  31 H :    0.021264
  32 H :    0.021772
  33 H :    0.022259

  Mayer bond orders larger than 0.100000
B(  0-S ,  1-C ) :   1.1628 B(  0-S ,  4-C ) :   1.1765 B(  1-C ,  2-C ) :   1.5685
B(  1-C , 32-H ) :   0.9660 B(  2-C ,  3-C ) :   1.2765 B(  2-C ,  6-C ) :   1.0072
B(  3-C ,  4-C ) :   1.5202 B(  3-C ,  5-H ) :   1.0105 B(  4-C , 20-C ) :   1.0485
B(  6-C ,  7-H ) :   0.9424 B(  6-C ,  8-H ) :   0.9374 B(  6-C ,  9-C ) :   1.0690
B(  9-C , 10-H ) :   0.9533 B(  9-C , 11-H ) :   0.9566 B(  9-C , 12-C ) :   1.0773
B( 12-C , 13-H ) :   0.9710 B( 12-C , 14-H ) :   0.9747 B( 12-C , 15-H ) :   0.9733
B( 16-S , 17-C ) :   1.1697 B( 16-S , 20-C ) :   1.1365 B( 17-C , 18-C ) :   1.5912
B( 17-C , 33-H ) :   0.9719 B( 18-C , 19-C ) :   1.2360 B( 18-C , 21-H ) :   0.9966
B( 19-C , 20-C ) :   1.6239 B( 19-C , 22-C ) :   1.0186 B( 22-C , 23-H ) :   0.9366
B( 22-C , 24-H ) :   0.9310 B( 22-C , 25-C ) :   1.0651 B( 25-C , 26-H ) :   0.9508
B( 25-C , 27-H ) :   0.9486 B( 25-C , 28-C ) :   1.0831 B( 28-C , 29-H ) :   0.9716
B( 28-C , 30-H ) :   0.9730 B( 28-C , 31-H ) :   0.9753

Dispersion correction           -0.013356484
FINAL SINGLE POINT ENERGY     -1339.879044167845

DIPOLE MOMENT
-------------
                                X             Y             Z
Electronic contribution:     20.81301      15.88966     -17.39377
Nuclear contribution   :    -21.19832     -16.34124      17.62901
                        -----------------------------------------
Total Dipole Moment    :     -0.38531      -0.45158       0.23524
                        -----------------------------------------
Magnitude (a.u.)       :      0.63853
Magnitude (Debye)      :      1.62302

Rotational constants in cm-1:     0.017793     0.008329     0.005931
Rotational constants in MHz :   533.416169   249.704445   177.803520

                             ****ORCA TERMINATED NORMALLY****
TOTAL RUN TIME: 0 days 0 hours 0 minutes 21 seconds 60 msec
