                         Program Version 4.2.1 -  RELEASE  -
|  1> ! wB97X-D3 SP def2-SVP
|  2> %pal
|  3> nprocs 24
|  4> end
|  5>
|  6> * xyz 0 1
|  7> S 	 -105.766 	 48.433 	 -81.874
|  8> C 	 -104.049 	 48.8109 	 -81.6614
|  9> C 	 -103.494 	 48.7991 	 -82.955
| 10> C 	 -104.309 	 48.1838 	 -83.9119
| 11> C 	 -105.575 	 47.9428 	 -83.4796
| 12> H 	 -104.096 	 47.9854 	 -84.9834
| 13> C 	 -102.078 	 49.1825 	 -83.3301
| 14> H 	 -101.605 	 48.4712 	 -84.0376
| 15> H 	 -101.472 	 49.0843 	 -82.3985
| 16> C 	 -101.88 	 50.6581 	 -83.7467
| 17> H 	 -100.854 	 50.8708 	 -84.1265
| 18> H 	 -102.56 	 50.7509 	 -84.5525
| 19> C 	 -102.323 	 51.6884 	 -82.6854
| 20> H 	 -101.812 	 51.4338 	 -81.7348
| 21> H 	 -102.069 	 52.7269 	 -82.946
| 22> H 	 -103.399 	 51.5856 	 -82.5644
| 23> S 	 -108.103 	 48.4092 	 -84.4266
| 24> C 	 -109.003 	 47.0455 	 -84.929
| 25> C 	 -108.261 	 45.9306 	 -85.1803
| 26> C 	 -106.931 	 46.1182 	 -84.7559
| 27> C 	 -106.686 	 47.4196 	 -84.2273
| 28> H 	 -108.743 	 45.0963 	 -85.6695
| 29> C 	 -105.993 	 44.9493 	 -84.6507
| 30> H 	 -105.136 	 45.3866 	 -84.0515
| 31> H 	 -105.507 	 44.6741 	 -85.6189
| 32> C 	 -106.675 	 43.6934 	 -83.9699
| 33> H 	 -105.931 	 42.8983 	 -83.9881
| 34> H 	 -107.532 	 43.4423 	 -84.5231
| 35> C 	 -106.833 	 43.953 	 -82.4945
| 36> H 	 -107.535 	 44.7338 	 -82.3784
| 37> H 	 -105.847 	 44.2578 	 -82.0056
| 38> H 	 -107.344 	 43.0864 	 -81.9933
| 39> H 	 -103.631 	 49.3266 	 -80.8436
| 40> H 	 -110.062 	 47.1089 	 -85.2654
| 41> *
| 42>
| 43>                          ****END OF INPUT****

CARTESIAN COORDINATES (ANGSTROEM)
---------------------------------
  S    -105.766000   48.433000  -81.874000
  C    -104.049000   48.810900  -81.661400
  C    -103.494000   48.799100  -82.955000
  C    -104.309000   48.183800  -83.911900
  C    -105.575000   47.942800  -83.479600
  H    -104.096000   47.985400  -84.983400
  C    -102.078000   49.182500  -83.330100
  H    -101.605000   48.471200  -84.037600
  H    -101.472000   49.084300  -82.398500
  C    -101.880000   50.658100  -83.746700
  H    -100.854000   50.870800  -84.126500
  H    -102.560000   50.750900  -84.552500
  C    -102.323000   51.688400  -82.685400
  H    -101.812000   51.433800  -81.734800
  H    -102.069000   52.726900  -82.946000
  H    -103.399000   51.585600  -82.564400
  S    -108.103000   48.409200  -84.426600
  C    -109.003000   47.045500  -84.929000
  C    -108.261000   45.930600  -85.180300
  C    -106.931000   46.118200  -84.755900
  C    -106.686000   47.419600  -84.227300
  H    -108.743000   45.096300  -85.669500
  C    -105.993000   44.949300  -84.650700
  H    -105.136000   45.386600  -84.051500
  H    -105.507000   44.674100  -85.618900
  C    -106.675000   43.693400  -83.969900
  H    -105.931000   42.898300  -83.988100
  H    -107.532000   43.442300  -84.523100
  C    -106.833000   43.953000  -82.494500
  H    -107.535000   44.733800  -82.378400
  H    -105.847000   44.257800  -82.005600
  H    -107.344000   43.086400  -81.993300
  H    -103.631000   49.326600  -80.843600
  H    -110.062000   47.108900  -85.265400

 Total Charge           Charge          ....    0
 Multiplicity           Mult            ....    1
 Number of Electrons    NEL             ....  134
 Basis Dimension        Dim             ....  322

ORBITAL ENERGIES
----------------

  NO   OCC          E(Eh)            E(eV)
   0   2.0000     -88.968137     -2420.9461
   1   2.0000     -88.966273     -2420.8954
   2   2.0000     -10.324780      -280.9515
   3   2.0000     -10.321875      -280.8725
   4   2.0000     -10.316280      -280.7202
   5   2.0000     -10.314657      -280.6761
   6   2.0000     -10.304254      -280.3930
   7   2.0000     -10.303530      -280.3733
   8   2.0000     -10.294288      -280.1218
   9   2.0000     -10.293146      -280.0907
  10   2.0000     -10.289679      -279.9964
  11   2.0000     -10.289597      -279.9942
  12   2.0000     -10.285042      -279.8702
  13   2.0000     -10.281953      -279.7862
  14   2.0000     -10.279582      -279.7217
  15   2.0000     -10.273675      -279.5609
  16   2.0000      -8.083755      -219.9702
  17   2.0000      -8.081719      -219.9148
  18   2.0000      -6.042087      -164.4135
  19   2.0000      -6.040110      -164.3598
  20   2.0000      -6.038162      -164.3067
  21   2.0000      -6.035992      -164.2477
  22   2.0000      -6.034637      -164.2108
  23   2.0000      -6.032654      -164.1569
  24   2.0000      -1.017078       -27.6761
  25   2.0000      -0.992972       -27.0201
  26   2.0000      -0.912491       -24.8301
  27   2.0000      -0.908177       -24.7128
  28   2.0000      -0.871522       -23.7153
  29   2.0000      -0.851089       -23.1593
  30   2.0000      -0.846841       -23.0437
  31   2.0000      -0.814948       -22.1759
  32   2.0000      -0.781593       -21.2682
  33   2.0000      -0.766417       -20.8553
  34   2.0000      -0.708197       -19.2710
  35   2.0000      -0.695972       -18.9384
  36   2.0000      -0.694972       -18.9112
  37   2.0000      -0.651833       -17.7373
  38   2.0000      -0.644359       -17.5339
  39   2.0000      -0.620602       -16.8874
  40   2.0000      -0.597251       -16.2520
  41   2.0000      -0.574917       -15.6443
  42   2.0000      -0.553099       -15.0506
  43   2.0000      -0.545899       -14.8547
  44   2.0000      -0.542522       -14.7628
  45   2.0000      -0.540627       -14.7112
  46   2.0000      -0.520890       -14.1741
  47   2.0000      -0.515172       -14.0185
  48   2.0000      -0.500649       -13.6234
  49   2.0000      -0.492867       -13.4116
  50   2.0000      -0.487291       -13.2598
  51   2.0000      -0.475653       -12.9432
  52   2.0000      -0.471444       -12.8287
  53   2.0000      -0.461437       -12.5563
  54   2.0000      -0.458900       -12.4873
  55   2.0000      -0.447999       -12.1907
  56   2.0000      -0.441549       -12.0151
  57   2.0000      -0.438820       -11.9409
  58   2.0000      -0.429380       -11.6840
  59   2.0000      -0.425795       -11.5865
  60   2.0000      -0.419145       -11.4055
  61   2.0000      -0.411968       -11.2102
  62   2.0000      -0.408768       -11.1231
  63   2.0000      -0.341164        -9.2835
  64   2.0000      -0.334034        -9.0895
  65   2.0000      -0.330506        -8.9935
  66   2.0000      -0.297236        -8.0882
  67   0.0000       0.031738         0.8636
  68   0.0000       0.060952         1.6586
  69   0.0000       0.118207         3.2166
  70   0.0000       0.121975         3.3191
  71   0.0000       0.125005         3.4016

MULLIKEN ATOMIC CHARGES
-----------------------
   0 S :    0.118721
   1 C :   -0.091310
   2 C :   -0.110411
   3 C :    0.027999
   4 C :   -0.164785
   5 H :    0.024184
   6 C :    0.030820
   7 H :    0.039862
   8 H :    0.019591
   9 C :   -0.053547
  10 H :    0.039643
  11 H :    0.012731
  12 C :   -0.070063
  13 H :    0.024824
  14 H :    0.043351
  15 H :    0.046135
  16 S :    0.130188
  17 C :   -0.107710
  18 C :   -0.048611
  19 C :   -0.009626
  20 C :   -0.185709
  21 H :    0.026092
  22 C :    0.018115
  23 H :    0.029500
  24 H :    0.042056
  25 C :   -0.046194
  26 H :    0.026393
  27 H :    0.025679
  28 C :   -0.056693
  29 H :    0.023253
  30 H :    0.050333
  31 H :    0.036986
  32 H :    0.043179
  33 H :    0.065024
Sum of atomic charges:   -0.0000000

LOEWDIN ATOMIC CHARGES
----------------------
   0 S :    0.435354
   1 C :   -0.190589
   2 C :   -0.061265
   3 C :   -0.073396
   4 C :   -0.218786
   5 H :    0.040356
   6 C :   -0.037094
   7 H :    0.035049
   8 H :    0.028495
   9 C :   -0.040756
  10 H :    0.027185
  11 H :    0.015443
  12 C :   -0.066599
  13 H :    0.021855
  14 H :    0.029326
  15 H :    0.026741
  16 S :    0.430927
  17 C :   -0.197239
  18 C :   -0.079032
  19 C :   -0.051125
  20 C :   -0.216650
  21 H :    0.035651
  22 C :   -0.040820
  23 H :    0.034723
  24 H :    0.033369
  25 C :   -0.032942
  26 H :    0.025134
  27 H :    0.014769
  28 C :   -0.067130
  29 H :    0.016088
  30 H :    0.037988
  31 H :    0.029915
  32 H :    0.020692
  33 H :    0.034364

  Mayer bond orders larger than 0.100000
B(  0-S ,  1-C ) :   1.1422 B(  0-S ,  4-C ) :   1.1825 B(  1-C ,  2-C ) :   1.5682
B(  1-C ,  4-C ) :   0.1088 B(  1-C , 32-H ) :   0.9739 B(  2-C ,  3-C ) :   1.2590
B(  2-C ,  6-C ) :   1.0202 B(  3-C ,  4-C ) :   1.5510 B(  3-C ,  5-H ) :   0.9952
B(  4-C , 20-C ) :   1.0327 B(  6-C ,  7-H ) :   0.9511 B(  6-C ,  8-H ) :   0.9452
B(  6-C ,  9-C ) :   1.0568 B(  9-C , 10-H ) :   0.9591 B(  9-C , 11-H ) :   0.9555
B(  9-C , 12-C ) :   1.0755 B( 12-C , 13-H ) :   0.9773 B( 12-C , 14-H ) :   0.9744
B( 12-C , 15-H ) :   0.9718 B( 16-S , 17-C ) :   1.1755 B( 16-S , 20-C ) :   1.1589
B( 17-C , 18-C ) :   1.6064 B( 17-C , 33-H ) :   0.9554 B( 18-C , 19-C ) :   1.2483
B( 18-C , 21-H ) :   0.9921 B( 19-C , 20-C ) :   1.5501 B( 19-C , 22-C ) :   1.0457
B( 22-C , 23-H ) :   0.9360 B( 22-C , 24-H ) :   0.9327 B( 22-C , 25-C ) :   1.0640
B( 25-C , 26-H ) :   0.9547 B( 25-C , 27-H ) :   0.9554 B( 25-C , 28-C ) :   1.0735
B( 28-C , 29-H ) :   0.9763 B( 28-C , 30-H ) :   0.9712 B( 28-C , 31-H ) :   0.9711

Dispersion correction           -0.015231776
FINAL SINGLE POINT ENERGY     -1339.873769624351

DIPOLE MOMENT
-------------
                                X             Y             Z
Electronic contribution:    -15.78424       5.17074      -0.59105
Nuclear contribution   :     15.98418      -5.32867       0.28357
                        -----------------------------------------
Total Dipole Moment    :      0.19995      -0.15793      -0.30748
                        -----------------------------------------
Magnitude (a.u.)       :      0.39933
Magnitude (Debye)      :      1.01501

Rotational constants in cm-1:     0.024310     0.007896     0.007093
Rotational constants in MHz :   728.803898   236.727788   212.639846

                             ****ORCA TERMINATED NORMALLY****
TOTAL RUN TIME: 0 days 0 hours 0 minutes 22 seconds 245 msec
