                         Program Version 4.2.1 -  RELEASE  -
|  1> ! wB97X-D3 SP def2-SVP
|  2> %pal
|  3> nprocs 24
|  4> end
|  5>
|  6> * xyz 0 1
|  7> S 	 -39.988 	 -1.7432 	 -25.4609
|  8> C 	 -40.8535 	 -0.303088 	 -25.2276
|  9> C 	 -41.9542 	 -0.586799 	 -24.4336
| 10> C 	 -42.2901 	 -1.93635 	 -24.2941
| 11> C 	 -41.2744 	 -2.73683 	 -24.7795
| 12> H 	 -43.1513 	 -2.2364 	 -23.7244
| 13> C 	 -42.8672 	 0.489546 	 -23.9376
| 14> H 	 -42.3266 	 1.4155 	 -23.6756
| 15> H 	 -43.4085 	 0.218951 	 -23.0523
| 16> C 	 -43.8543 	 0.823625 	 -25.0117
| 17> H 	 -44.1778 	 1.9298 	 -24.9254
| 18> H 	 -43.5178 	 0.725168 	 -26.008
| 19> C 	 -45.2666 	 0.188743 	 -24.9297
| 20> H 	 -45.2739 	 -0.804166 	 -25.3536
| 21> H 	 -45.7261 	 0.119988 	 -24.0183
| 22> H 	 -46.0319 	 0.740066 	 -25.5105
| 23> S 	 -41.7509 	 -5.11598 	 -26.0364
| 24> C 	 -41.5106 	 -6.652 	 -25.1913
| 25> C 	 -40.8157 	 -6.38416 	 -23.9881
| 26> C 	 -40.738 	 -4.98499 	 -23.688
| 27> C 	 -41.1712 	 -4.16833 	 -24.6715
| 28> H 	 -40.5737 	 -7.09572 	 -23.247
| 29> C 	 -39.9683 	 -4.46373 	 -22.5171
| 30> H 	 -40.4974 	 -4.74288 	 -21.6053
| 31> H 	 -40.03 	 -3.404 	 -22.6223
| 32> C 	 -38.481 	 -4.8944 	 -22.3226
| 33> H 	 -37.9308 	 -4.70395 	 -23.2656
| 34> H 	 -38.448 	 -5.94333 	 -22.1499
| 35> C 	 -37.7265 	 -4.22117 	 -21.1533
| 36> H 	 -38.194 	 -4.41278 	 -20.1792
| 37> H 	 -37.8375 	 -3.15579 	 -21.3122
| 38> H 	 -36.6679 	 -4.579 	 -21.0119
| 39> H 	 -40.4687 	 0.716688 	 -25.4008
| 40> H 	 -41.8605 	 -7.64981 	 -25.4829
| 41> *
| 42>
| 43>                          ****END OF INPUT****

CARTESIAN COORDINATES (ANGSTROEM)
---------------------------------
  S    -39.988000   -1.743200  -25.460900
  C    -40.853500   -0.303088  -25.227600
  C    -41.954200   -0.586799  -24.433600
  C    -42.290100   -1.936350  -24.294100
  C    -41.274400   -2.736830  -24.779500
  H    -43.151300   -2.236400  -23.724400
  C    -42.867200    0.489546  -23.937600
  H    -42.326600    1.415500  -23.675600
  H    -43.408500    0.218951  -23.052300
  C    -43.854300    0.823625  -25.011700
  H    -44.177800    1.929800  -24.925400
  H    -43.517800    0.725168  -26.008000
  C    -45.266600    0.188743  -24.929700
  H    -45.273900   -0.804166  -25.353600
  H    -45.726100    0.119988  -24.018300
  H    -46.031900    0.740066  -25.510500
  S    -41.750900   -5.115980  -26.036400
  C    -41.510600   -6.652000  -25.191300
  C    -40.815700   -6.384160  -23.988100
  C    -40.738000   -4.984990  -23.688000
  C    -41.171200   -4.168330  -24.671500
  H    -40.573700   -7.095720  -23.247000
  C    -39.968300   -4.463730  -22.517100
  H    -40.497400   -4.742880  -21.605300
  H    -40.030000   -3.404000  -22.622300
  C    -38.481000   -4.894400  -22.322600
  H    -37.930800   -4.703950  -23.265600
  H    -38.448000   -5.943330  -22.149900
  C    -37.726500   -4.221170  -21.153300
  H    -38.194000   -4.412780  -20.179200
  H    -37.837500   -3.155790  -21.312200
  H    -36.667900   -4.579000  -21.011900
  H    -40.468700    0.716688  -25.400800
  H    -41.860500   -7.649810  -25.482900

 Total Charge           Charge          ....    0
 Multiplicity           Mult            ....    1
 Number of Electrons    NEL             ....  134
 Basis Dimension        Dim             ....  322

ORBITAL ENERGIES
----------------

  NO   OCC          E(Eh)            E(eV)
   0   2.0000     -88.968394     -2420.9531
   1   2.0000     -88.962498     -2420.7926
   2   2.0000     -10.329638      -281.0837
   3   2.0000     -10.326289      -280.9926
   4   2.0000     -10.319745      -280.8145
   5   2.0000     -10.312303      -280.6120
   6   2.0000     -10.296029      -280.1692
   7   2.0000     -10.294615      -280.1307
   8   2.0000     -10.293679      -280.1053
   9   2.0000     -10.293142      -280.0906
  10   2.0000     -10.286092      -279.8988
  11   2.0000     -10.285747      -279.8894
  12   2.0000     -10.284445      -279.8540
  13   2.0000     -10.284234      -279.8482
  14   2.0000     -10.281321      -279.7690
  15   2.0000     -10.268210      -279.4122
  16   2.0000      -8.083562      -219.9649
  17   2.0000      -8.076914      -219.7840
  18   2.0000      -6.041927      -164.4092
  19   2.0000      -6.037904      -164.2997
  20   2.0000      -6.035580      -164.2365
  21   2.0000      -6.034543      -164.2083
  22   2.0000      -6.031347      -164.1213
  23   2.0000      -6.027628      -164.0201
  24   2.0000      -1.012836       -27.5607
  25   2.0000      -0.987729       -26.8775
  26   2.0000      -0.916087       -24.9280
  27   2.0000      -0.903480       -24.5849
  28   2.0000      -0.871711       -23.7205
  29   2.0000      -0.851387       -23.1674
  30   2.0000      -0.848079       -23.0774
  31   2.0000      -0.816695       -22.2234
  32   2.0000      -0.782132       -21.2829
  33   2.0000      -0.768795       -20.9200
  34   2.0000      -0.703845       -19.1526
  35   2.0000      -0.700673       -19.0663
  36   2.0000      -0.699091       -19.0232
  37   2.0000      -0.665718       -18.1151
  38   2.0000      -0.646960       -17.6047
  39   2.0000      -0.623337       -16.9618
  40   2.0000      -0.591884       -16.1060
  41   2.0000      -0.573449       -15.6043
  42   2.0000      -0.565399       -15.3853
  43   2.0000      -0.545251       -14.8370
  44   2.0000      -0.537394       -14.6232
  45   2.0000      -0.526886       -14.3373
  46   2.0000      -0.519988       -14.1496
  47   2.0000      -0.512810       -13.9543
  48   2.0000      -0.509600       -13.8669
  49   2.0000      -0.504661       -13.7325
  50   2.0000      -0.490483       -13.3467
  51   2.0000      -0.477348       -12.9893
  52   2.0000      -0.473582       -12.8868
  53   2.0000      -0.461928       -12.5697
  54   2.0000      -0.457672       -12.4539
  55   2.0000      -0.453036       -12.3277
  56   2.0000      -0.447857       -12.1868
  57   2.0000      -0.441583       -12.0161
  58   2.0000      -0.424229       -11.5439
  59   2.0000      -0.422810       -11.5052
  60   2.0000      -0.420429       -11.4405
  61   2.0000      -0.416574       -11.3356
  62   2.0000      -0.398034       -10.8310
  63   2.0000      -0.341075        -9.2811
  64   2.0000      -0.326949        -8.8967
  65   2.0000      -0.318547        -8.6681
  66   2.0000      -0.310420        -8.4469
  67   0.0000       0.043241         1.1767
  68   0.0000       0.047798         1.3007
  69   0.0000       0.113252         3.0817
  70   0.0000       0.119026         3.2389
  71   0.0000       0.131205         3.5703

MULLIKEN ATOMIC CHARGES
-----------------------
   0 S :    0.132862
   1 C :   -0.115274
   2 C :   -0.128898
   3 C :    0.072584
   4 C :   -0.182626
   5 H :    0.015083
   6 C :    0.109769
   7 H :    0.026363
   8 H :    0.011021
   9 C :   -0.088904
  10 H :    0.028139
  11 H :    0.028912
  12 C :   -0.040418
  13 H :    0.024916
  14 H :    0.005179
  15 H :    0.026392
  16 S :    0.105570
  17 C :   -0.098374
  18 C :   -0.014850
  19 C :   -0.024834
  20 C :   -0.175175
  21 H :    0.008190
  22 C :    0.073601
  23 H :    0.019834
  24 H :    0.015572
  25 C :   -0.067420
  26 H :    0.037339
  27 H :    0.017466
  28 C :   -0.063194
  29 H :    0.022888
  30 H :    0.034080
  31 H :    0.050921
  32 H :    0.063258
  33 H :    0.070029
Sum of atomic charges:   -0.0000000

LOEWDIN ATOMIC CHARGES
----------------------
   0 S :    0.434743
   1 C :   -0.221399
   2 C :   -0.065643
   3 C :   -0.049856
   4 C :   -0.197699
   5 H :    0.036144
   6 C :   -0.033946
   7 H :    0.034474
   8 H :    0.027079
   9 C :   -0.039883
  10 H :    0.031231
  11 H :    0.020067
  12 C :   -0.066750
  13 H :    0.020813
  14 H :    0.008887
  15 H :    0.030898
  16 S :    0.397922
  17 C :   -0.177304
  18 C :   -0.066678
  19 C :   -0.057869
  20 C :   -0.203639
  21 H :    0.022670
  22 C :   -0.030111
  23 H :    0.029704
  24 H :    0.023229
  25 C :   -0.036915
  26 H :    0.028051
  27 H :    0.014539
  28 C :   -0.069925
  29 H :    0.022804
  30 H :    0.024691
  31 H :    0.035944
  32 H :    0.037494
  33 H :    0.036230

  Mayer bond orders larger than 0.100000
B(  0-S ,  1-C ) :   1.1597 B(  0-S ,  4-C ) :   1.1760 B(  1-C ,  2-C ) :   1.5644
B(  1-C ,  4-C ) :   0.1064 B(  1-C , 32-H ) :   0.9654 B(  2-C ,  3-C ) :   1.2840
B(  2-C ,  6-C ) :   1.0526 B(  3-C ,  4-C ) :   1.5318 B(  3-C ,  5-H ) :   0.9987
B(  4-C , 20-C ) :   1.0039 B(  6-C ,  7-H ) :   0.9371 B(  6-C ,  8-H ) :   0.9393
B(  6-C ,  9-C ) :   1.0510 B(  9-C , 10-H ) :   0.9600 B(  9-C , 11-H ) :   0.9599
B(  9-C , 12-C ) :   1.0814 B( 12-C , 13-H ) :   0.9731 B( 12-C , 14-H ) :   0.9747
B( 12-C , 15-H ) :   0.9750 B( 16-S , 17-C ) :   1.1610 B( 16-S , 20-C ) :   1.1279
B( 17-C , 18-C ) :   1.5856 B( 17-C , 20-C ) :   0.1014 B( 17-C , 33-H ) :   0.9684
B( 18-C , 19-C ) :   1.2388 B( 18-C , 21-H ) :   0.9884 B( 19-C , 20-C ) :   1.6349
B( 19-C , 22-C ) :   1.0623 B( 22-C , 23-H ) :   0.9185 B( 22-C , 24-H ) :   0.9331
B( 22-C , 25-C ) :   1.0645 B( 25-C , 26-H ) :   0.9567 B( 25-C , 27-H ) :   0.9515
B( 25-C , 28-C ) :   1.0817 B( 28-C , 29-H ) :   0.9741 B( 28-C , 30-H ) :   0.9775
B( 28-C , 31-H ) :   0.9734

Dispersion correction           -0.014347989
FINAL SINGLE POINT ENERGY     -1339.866797745199

DIPOLE MOMENT
-------------
                                X             Y             Z
Electronic contribution:      3.63267      -9.64736     -15.40585
Nuclear contribution   :     -3.78852       9.81956      15.98386
                        -----------------------------------------
Total Dipole Moment    :     -0.15584       0.17221       0.57801
                        -----------------------------------------
Magnitude (a.u.)       :      0.62293
Magnitude (Debye)      :      1.58336

Rotational constants in cm-1:     0.019178     0.008302     0.006895
Rotational constants in MHz :   574.954188   248.873690   206.699121

                             ****ORCA TERMINATED NORMALLY****
TOTAL RUN TIME: 0 days 0 hours 0 minutes 20 seconds 230 msec
