                         Program Version 4.2.1 -  RELEASE  -
|  1> ! wB97X-D3 SP def2-SVP
|  2> %pal
|  3> nprocs 24
|  4> end
|  5>
|  6> * xyz 0 1
|  7> S 	 -64.0944 	 9.84005 	 21.5939
|  8> C 	 -62.469 	 10.3434 	 21.2354
|  9> C 	 -61.6707 	 9.25533 	 20.9979
| 10> C 	 -62.3461 	 7.94909 	 21.2502
| 11> C 	 -63.6255 	 8.18673 	 21.7043
| 12> H 	 -61.9565 	 6.93715 	 21.0209
| 13> C 	 -60.2586 	 9.37812 	 20.5151
| 14> H 	 -60.1567 	 10.4012 	 20.2845
| 15> H 	 -60.1385 	 8.75249 	 19.6077
| 16> C 	 -59.2287 	 9.11145 	 21.6047
| 17> H 	 -59.5134 	 9.68724 	 22.5416
| 18> H 	 -59.2905 	 8.07807 	 21.9392
| 19> C 	 -57.7902 	 9.51437 	 21.2437
| 20> H 	 -57.1113 	 9.22025 	 22.0001
| 21> H 	 -57.3453 	 8.99828 	 20.3766
| 22> H 	 -57.6621 	 10.5613 	 21.0413
| 23> S 	 -64.7152 	 6.78148 	 23.909
| 24> C 	 -65.8238 	 5.48965 	 23.7129
| 25> C 	 -65.9294 	 5.22427 	 22.347
| 26> C 	 -65.3069 	 6.15082 	 21.4424
| 27> C 	 -64.5324 	 7.10314 	 22.1777
| 28> H 	 -66.4616 	 4.31415 	 22.039
| 29> C 	 -65.4548 	 5.97419 	 19.9846
| 30> H 	 -65.5604 	 6.9473 	 19.5014
| 31> H 	 -66.3913 	 5.44298 	 19.7708
| 32> C 	 -64.2947 	 5.08427 	 19.2863
| 33> H 	 -64.1613 	 4.18933 	 19.9351
| 34> H 	 -63.3038 	 5.5471 	 19.3878
| 35> C 	 -64.6148 	 4.80828 	 17.7725
| 36> H 	 -64.7311 	 5.76769 	 17.2497
| 37> H 	 -65.5418 	 4.26211 	 17.5669
| 38> H 	 -63.8033 	 4.29533 	 17.1719
| 39> H 	 -61.9853 	 11.306 	 21.2043
| 40> H 	 -66.2757 	 4.86308 	 24.4443
| 41> *
| 42>
| 43>                          ****END OF INPUT****

CARTESIAN COORDINATES (ANGSTROEM)
---------------------------------
  S    -64.094400    9.840050   21.593900
  C    -62.469000   10.343400   21.235400
  C    -61.670700    9.255330   20.997900
  C    -62.346100    7.949090   21.250200
  C    -63.625500    8.186730   21.704300
  H    -61.956500    6.937150   21.020900
  C    -60.258600    9.378120   20.515100
  H    -60.156700   10.401200   20.284500
  H    -60.138500    8.752490   19.607700
  C    -59.228700    9.111450   21.604700
  H    -59.513400    9.687240   22.541600
  H    -59.290500    8.078070   21.939200
  C    -57.790200    9.514370   21.243700
  H    -57.111300    9.220250   22.000100
  H    -57.345300    8.998280   20.376600
  H    -57.662100   10.561300   21.041300
  S    -64.715200    6.781480   23.909000
  C    -65.823800    5.489650   23.712900
  C    -65.929400    5.224270   22.347000
  C    -65.306900    6.150820   21.442400
  C    -64.532400    7.103140   22.177700
  H    -66.461600    4.314150   22.039000
  C    -65.454800    5.974190   19.984600
  H    -65.560400    6.947300   19.501400
  H    -66.391300    5.442980   19.770800
  C    -64.294700    5.084270   19.286300
  H    -64.161300    4.189330   19.935100
  H    -63.303800    5.547100   19.387800
  C    -64.614800    4.808280   17.772500
  H    -64.731100    5.767690   17.249700
  H    -65.541800    4.262110   17.566900
  H    -63.803300    4.295330   17.171900
  H    -61.985300   11.306000   21.204300
  H    -66.275700    4.863080   24.444300

 Total Charge           Charge          ....    0
 Multiplicity           Mult            ....    1
 Number of Electrons    NEL             ....  134
 Basis Dimension        Dim             ....  322

ORBITAL ENERGIES
----------------

  NO   OCC          E(Eh)            E(eV)
   0   2.0000     -88.967421     -2420.9266
   1   2.0000     -88.966048     -2420.8892
   2   2.0000     -10.332577      -281.1637
   3   2.0000     -10.330515      -281.1076
   4   2.0000     -10.314740      -280.6783
   5   2.0000     -10.310584      -280.5653
   6   2.0000     -10.306585      -280.4564
   7   2.0000     -10.301845      -280.3274
   8   2.0000     -10.300441      -280.2892
   9   2.0000     -10.299738      -280.2701
  10   2.0000     -10.295233      -280.1475
  11   2.0000     -10.292672      -280.0778
  12   2.0000     -10.289875      -280.0017
  13   2.0000     -10.288131      -279.9543
  14   2.0000     -10.287260      -279.9306
  15   2.0000     -10.274471      -279.5826
  16   2.0000      -8.082573      -219.9380
  17   2.0000      -8.080653      -219.8857
  18   2.0000      -6.041223      -164.3900
  19   2.0000      -6.039090      -164.3320
  20   2.0000      -6.037082      -164.2774
  21   2.0000      -6.034958      -164.2195
  22   2.0000      -6.033079      -164.1684
  23   2.0000      -6.031695      -164.1308
  24   2.0000      -1.004031       -27.3211
  25   2.0000      -0.984048       -26.7773
  26   2.0000      -0.914218       -24.8771
  27   2.0000      -0.900079       -24.4924
  28   2.0000      -0.866065       -23.5668
  29   2.0000      -0.845805       -23.0155
  30   2.0000      -0.844176       -22.9712
  31   2.0000      -0.813616       -22.1396
  32   2.0000      -0.781250       -21.2589
  33   2.0000      -0.769605       -20.9420
  34   2.0000      -0.709643       -19.3104
  35   2.0000      -0.702167       -19.1069
  36   2.0000      -0.693340       -18.8667
  37   2.0000      -0.654644       -17.8138
  38   2.0000      -0.639097       -17.3907
  39   2.0000      -0.616099       -16.7649
  40   2.0000      -0.593554       -16.1514
  41   2.0000      -0.572317       -15.5735
  42   2.0000      -0.561442       -15.2776
  43   2.0000      -0.551643       -15.0110
  44   2.0000      -0.523771       -14.2525
  45   2.0000      -0.517265       -14.0755
  46   2.0000      -0.515780       -14.0351
  47   2.0000      -0.509743       -13.8708
  48   2.0000      -0.504738       -13.7346
  49   2.0000      -0.501924       -13.6580
  50   2.0000      -0.496651       -13.5146
  51   2.0000      -0.477003       -12.9799
  52   2.0000      -0.469809       -12.7841
  53   2.0000      -0.465343       -12.6626
  54   2.0000      -0.460295       -12.5253
  55   2.0000      -0.451723       -12.2920
  56   2.0000      -0.444672       -12.1001
  57   2.0000      -0.434818       -11.8320
  58   2.0000      -0.430626       -11.7179
  59   2.0000      -0.424763       -11.5584
  60   2.0000      -0.422969       -11.5096
  61   2.0000      -0.417423       -11.3586
  62   2.0000      -0.415831       -11.3153
  63   2.0000      -0.331624        -9.0239
  64   2.0000      -0.323800        -8.8110
  65   2.0000      -0.319775        -8.7015
  66   2.0000      -0.312438        -8.5019
  67   0.0000       0.041130         1.1192
  68   0.0000       0.056906         1.5485
  69   0.0000       0.108350         2.9483
  70   0.0000       0.124261         3.3813
  71   0.0000       0.132751         3.6123

MULLIKEN ATOMIC CHARGES
-----------------------
   0 S :    0.133974
   1 C :   -0.096776
   2 C :   -0.151715
   3 C :    0.047131
   4 C :   -0.170328
   5 H :    0.037450
   6 C :    0.115933
   7 H :   -0.009919
   8 H :    0.040674
   9 C :   -0.099328
  10 H :    0.035641
  11 H :    0.026356
  12 C :   -0.023114
  13 H :    0.024134
  14 H :    0.021051
  15 H :    0.028191
  16 S :    0.122897
  17 C :   -0.077899
  18 C :   -0.067780
  19 C :   -0.011050
  20 C :   -0.187207
  21 H :    0.023522
  22 C :    0.063818
  23 H :    0.032581
  24 H :    0.022547
  25 C :   -0.075283
  26 H :    0.031454
  27 H :    0.027984
  28 C :   -0.071281
  29 H :    0.032565
  30 H :    0.036922
  31 H :    0.045274
  32 H :    0.040088
  33 H :    0.051493
Sum of atomic charges:   -0.0000000

LOEWDIN ATOMIC CHARGES
----------------------
   0 S :    0.422080
   1 C :   -0.208391
   2 C :   -0.057830
   3 C :   -0.058370
   4 C :   -0.207754
   5 H :    0.038202
   6 C :   -0.032361
   7 H :    0.020983
   8 H :    0.037135
   9 C :   -0.042677
  10 H :    0.033219
  11 H :    0.021383
  12 C :   -0.068276
  13 H :    0.023736
  14 H :    0.026358
  15 H :    0.022316
  16 S :    0.426196
  17 C :   -0.200446
  18 C :   -0.078691
  19 C :   -0.056587
  20 C :   -0.203739
  21 H :    0.030037
  22 C :   -0.033211
  23 H :    0.032874
  24 H :    0.032993
  25 C :   -0.037304
  26 H :    0.025405
  27 H :    0.022416
  28 C :   -0.078919
  29 H :    0.028153
  30 H :    0.024730
  31 H :    0.033791
  32 H :    0.032414
  33 H :    0.030137

  Mayer bond orders larger than 0.100000
B(  0-S ,  1-C ) :   1.1141 B(  0-S ,  4-C ) :   1.1604 B(  1-C ,  2-C ) :   1.6609
B(  1-C , 32-H ) :   0.9609 B(  2-C ,  3-C ) :   1.1898 B(  2-C ,  6-C ) :   1.0431
B(  3-C ,  4-C ) :   1.6047 B(  3-C ,  5-H ) :   0.9849 B(  4-C , 20-C ) :   1.0090
B(  6-C ,  7-H ) :   0.9310 B(  6-C ,  8-H ) :   0.9334 B(  6-C ,  9-C ) :   1.0588
B(  9-C , 10-H ) :   0.9533 B(  9-C , 11-H ) :   0.9565 B(  9-C , 12-C ) :   1.0854
B( 12-C , 13-H ) :   0.9724 B( 12-C , 14-H ) :   0.9717 B( 12-C , 15-H ) :   0.9753
B( 16-S , 17-C ) :   1.1723 B( 16-S , 20-C ) :   1.1664 B( 17-C , 18-C ) :   1.5798
B( 17-C , 20-C ) :   0.1064 B( 17-C , 33-H ) :   0.9713 B( 18-C , 19-C ) :   1.2756
B( 18-C , 21-H ) :   0.9805 B( 19-C , 20-C ) :   1.5386 B( 19-C , 22-C ) :   1.0721
B( 22-C , 23-H ) :   0.9261 B( 22-C , 24-H ) :   0.9359 B( 22-C , 25-C ) :   1.0398
B( 25-C , 26-H ) :   0.9608 B( 25-C , 27-H ) :   0.9562 B( 25-C , 28-C ) :   1.0629
B( 28-C , 29-H ) :   0.9741 B( 28-C , 30-H ) :   0.9784 B( 28-C , 31-H ) :   0.9760

Dispersion correction           -0.014064755
FINAL SINGLE POINT ENERGY     -1339.877770965293

DIPOLE MOMENT
-------------
                                X             Y             Z
Electronic contribution:    -17.82574       6.79407      17.76419
Nuclear contribution   :     18.19728      -7.11443     -18.18007
                        -----------------------------------------
Total Dipole Moment    :      0.37154      -0.32036      -0.41588
                        -----------------------------------------
Magnitude (a.u.)       :      0.64314
Magnitude (Debye)      :      1.63472

Rotational constants in cm-1:     0.017395     0.007865     0.006670
Rotational constants in MHz :   521.501769   235.783616   199.971838

                             ****ORCA TERMINATED NORMALLY****
TOTAL RUN TIME: 0 days 0 hours 0 minutes 20 seconds 994 msec
