                         Program Version 4.2.1 -  RELEASE  -
|  1> ! wB97X-D3 SP def2-SVP
|  2> %pal
|  3> nprocs 24
|  4> end
|  5>
|  6> * xyz 0 1
|  7> S 	 -91.2887 	 -5.27415 	 -114.929
|  8> C 	 -90.3945 	 -3.82368 	 -114.712
|  9> C 	 -91.1723 	 -2.73813 	 -115.192
| 10> C 	 -92.4247 	 -3.14348 	 -115.706
| 11> C 	 -92.7855 	 -4.4693 	 -115.435
| 12> H 	 -93.1892 	 -2.56582 	 -116.172
| 13> C 	 -90.6765 	 -1.389 	 -115.539
| 14> H 	 -89.6017 	 -1.59735 	 -115.647
| 15> H 	 -91.0033 	 -0.678882 	 -114.81
| 16> C 	 -91.0492 	 -0.787397 	 -116.959
| 17> H 	 -90.9581 	 -1.55368 	 -117.736
| 18> H 	 -92.0765 	 -0.431803 	 -116.909
| 19> C 	 -90.0282 	 0.335334 	 -117.476
| 20> H 	 -90.6705 	 1.04023 	 -118.035
| 21> H 	 -89.649 	 0.960345 	 -116.666
| 22> H 	 -89.2355 	 -0.0969012 	 -117.996
| 23> S 	 -93.754 	 -6.61331 	 -116.686
| 24> C 	 -95.429 	 -6.57958 	 -117.257
| 25> C 	 -96.1718 	 -5.71555 	 -116.508
| 26> C 	 -95.384 	 -4.84914 	 -115.619
| 27> C 	 -94.0638 	 -5.16442 	 -115.713
| 28> H 	 -97.2999 	 -5.64369 	 -116.491
| 29> C 	 -95.8857 	 -3.56662 	 -115.028
| 30> H 	 -94.9997 	 -3.29058 	 -114.331
| 31> H 	 -96.8083 	 -3.69135 	 -114.485
| 32> C 	 -96.0502 	 -2.26935 	 -115.837
| 33> H 	 -95.1722 	 -1.8039 	 -116.321
| 34> H 	 -96.2313 	 -1.63255 	 -115.017
| 35> C 	 -97.2826 	 -2.17496 	 -116.716
| 36> H 	 -98.1184 	 -2.58904 	 -116.199
| 37> H 	 -97.2699 	 -2.64897 	 -117.73
| 38> H 	 -97.5334 	 -1.13777 	 -116.936
| 39> H 	 -89.3398 	 -3.76952 	 -114.484
| 40> H 	 -95.8395 	 -7.36233 	 -117.978
| 41> *
| 42>
| 43>                          ****END OF INPUT****

CARTESIAN COORDINATES (ANGSTROEM)
---------------------------------
  S    -91.288700   -5.274150  -114.929000
  C    -90.394500   -3.823680  -114.712000
  C    -91.172300   -2.738130  -115.192000
  C    -92.424700   -3.143480  -115.706000
  C    -92.785500   -4.469300  -115.435000
  H    -93.189200   -2.565820  -116.172000
  C    -90.676500   -1.389000  -115.539000
  H    -89.601700   -1.597350  -115.647000
  H    -91.003300   -0.678882  -114.810000
  C    -91.049200   -0.787397  -116.959000
  H    -90.958100   -1.553680  -117.736000
  H    -92.076500   -0.431803  -116.909000
  C    -90.028200    0.335334  -117.476000
  H    -90.670500    1.040230  -118.035000
  H    -89.649000    0.960345  -116.666000
  H    -89.235500   -0.096901  -117.996000
  S    -93.754000   -6.613310  -116.686000
  C    -95.429000   -6.579580  -117.257000
  C    -96.171800   -5.715550  -116.508000
  C    -95.384000   -4.849140  -115.619000
  C    -94.063800   -5.164420  -115.713000
  H    -97.299900   -5.643690  -116.491000
  C    -95.885700   -3.566620  -115.028000
  H    -94.999700   -3.290580  -114.331000
  H    -96.808300   -3.691350  -114.485000
  C    -96.050200   -2.269350  -115.837000
  H    -95.172200   -1.803900  -116.321000
  H    -96.231300   -1.632550  -115.017000
  C    -97.282600   -2.174960  -116.716000
  H    -98.118400   -2.589040  -116.199000
  H    -97.269900   -2.648970  -117.730000
  H    -97.533400   -1.137770  -116.936000
  H    -89.339800   -3.769520  -114.484000
  H    -95.839500   -7.362330  -117.978000

 Total Charge           Charge          ....    0
 Multiplicity           Mult            ....    1
 Number of Electrons    NEL             ....  134
 Basis Dimension        Dim             ....  322

ORBITAL ENERGIES
----------------

  NO   OCC          E(Eh)            E(eV)
   0   2.0000     -88.964947     -2420.8593
   1   2.0000     -88.960743     -2420.7449
   2   2.0000     -10.333022      -281.1758
   3   2.0000     -10.329832      -281.0890
   4   2.0000     -10.326163      -280.9892
   5   2.0000     -10.316503      -280.7263
   6   2.0000     -10.305587      -280.4293
   7   2.0000     -10.303332      -280.3679
   8   2.0000     -10.300207      -280.2829
   9   2.0000     -10.299098      -280.2527
  10   2.0000     -10.293691      -280.1056
  11   2.0000     -10.289235      -279.9843
  12   2.0000     -10.288841      -279.9736
  13   2.0000     -10.288606      -279.9672
  14   2.0000     -10.280836      -279.7558
  15   2.0000     -10.277808      -279.6734
  16   2.0000      -8.079599      -219.8571
  17   2.0000      -8.075655      -219.7497
  18   2.0000      -6.038108      -164.3053
  19   2.0000      -6.034327      -164.2024
  20   2.0000      -6.034030      -164.1943
  21   2.0000      -6.030450      -164.0969
  22   2.0000      -6.030363      -164.0945
  23   2.0000      -6.025971      -163.9750
  24   2.0000      -1.005436       -27.3593
  25   2.0000      -0.983548       -26.7637
  26   2.0000      -0.914158       -24.8755
  27   2.0000      -0.904938       -24.6246
  28   2.0000      -0.867122       -23.5956
  29   2.0000      -0.853196       -23.2166
  30   2.0000      -0.844054       -22.9679
  31   2.0000      -0.815732       -22.1972
  32   2.0000      -0.783659       -21.3244
  33   2.0000      -0.769417       -20.9369
  34   2.0000      -0.711664       -19.3654
  35   2.0000      -0.701732       -19.0951
  36   2.0000      -0.687655       -18.7121
  37   2.0000      -0.662209       -18.0196
  38   2.0000      -0.641842       -17.4654
  39   2.0000      -0.613648       -16.6982
  40   2.0000      -0.595748       -16.2111
  41   2.0000      -0.580200       -15.7880
  42   2.0000      -0.556442       -15.1416
  43   2.0000      -0.553250       -15.0547
  44   2.0000      -0.542051       -14.7500
  45   2.0000      -0.524632       -14.2760
  46   2.0000      -0.521295       -14.1852
  47   2.0000      -0.512227       -13.9384
  48   2.0000      -0.504260       -13.7216
  49   2.0000      -0.497558       -13.5392
  50   2.0000      -0.494016       -13.4429
  51   2.0000      -0.487784       -13.2733
  52   2.0000      -0.476446       -12.9647
  53   2.0000      -0.463932       -12.6242
  54   2.0000      -0.451539       -12.2870
  55   2.0000      -0.444196       -12.0872
  56   2.0000      -0.442681       -12.0460
  57   2.0000      -0.438546       -11.9335
  58   2.0000      -0.433022       -11.7831
  59   2.0000      -0.424080       -11.5398
  60   2.0000      -0.413881       -11.2623
  61   2.0000      -0.411514       -11.1979
  62   2.0000      -0.406972       -11.0743
  63   2.0000      -0.350862        -9.5474
  64   2.0000      -0.328646        -8.9429
  65   2.0000      -0.324650        -8.8342
  66   2.0000      -0.289075        -7.8661
  67   0.0000       0.025283         0.6880
  68   0.0000       0.065531         1.7832
  69   0.0000       0.101602         2.7647
  70   0.0000       0.116693         3.1754
  71   0.0000       0.129748         3.5306

MULLIKEN ATOMIC CHARGES
-----------------------
   0 S :    0.104319
   1 C :   -0.110237
   2 C :   -0.092542
   3 C :    0.035280
   4 C :   -0.137809
   5 H :   -0.022558
   6 C :    0.062891
   7 H :    0.023937
   8 H :    0.042523
   9 C :   -0.127960
  10 H :    0.039828
  11 H :    0.035994
  12 C :   -0.034011
  13 H :    0.035889
  14 H :    0.028740
  15 H :    0.039056
  16 S :    0.079335
  17 C :   -0.107735
  18 C :   -0.039455
  19 C :   -0.020476
  20 C :   -0.137542
  21 H :    0.040741
  22 C :   -0.007033
  23 H :    0.053630
  24 H :    0.026004
  25 C :   -0.045381
  26 H :    0.038014
  27 H :    0.020618
  28 C :   -0.045293
  29 H :    0.010008
  30 H :    0.042935
  31 H :    0.026351
  32 H :    0.056444
  33 H :    0.085494
Sum of atomic charges:   -0.0000000

LOEWDIN ATOMIC CHARGES
----------------------
   0 S :    0.411387
   1 C :   -0.210339
   2 C :   -0.071945
   3 C :   -0.064323
   4 C :   -0.191020
   5 H :    0.021761
   6 C :   -0.037236
   7 H :    0.034442
   8 H :    0.030633
   9 C :   -0.036230
  10 H :    0.026359
  11 H :    0.017429
  12 C :   -0.059295
  13 H :    0.033458
  14 H :    0.024341
  15 H :    0.018048
  16 S :    0.375522
  17 C :   -0.182452
  18 C :   -0.075804
  19 C :   -0.064115
  20 C :   -0.176126
  21 H :    0.040030
  22 C :   -0.036827
  23 H :    0.050200
  24 H :    0.030129
  25 C :   -0.040768
  26 H :    0.025058
  27 H :    0.027559
  28 C :   -0.070797
  29 H :    0.017715
  30 H :    0.030023
  31 H :    0.026878
  32 H :    0.031179
  33 H :    0.045125

  Mayer bond orders larger than 0.100000
B(  0-S ,  1-C ) :   1.1643 B(  0-S ,  4-C ) :   1.1575 B(  1-C ,  2-C ) :   1.5543
B(  1-C ,  4-C ) :   0.1101 B(  1-C , 32-H ) :   0.9697 B(  2-C ,  3-C ) :   1.2744
B(  2-C ,  6-C ) :   1.0253 B(  3-C ,  4-C ) :   1.5342 B(  3-C ,  5-H ) :   0.9974
B(  4-C , 20-C ) :   1.0169 B(  6-C ,  7-H ) :   0.9532 B(  6-C ,  8-H ) :   0.9240
B(  6-C ,  9-C ) :   1.0811 B(  9-C , 10-H ) :   0.9636 B(  9-C , 11-H ) :   0.9556
B(  9-C , 12-C ) :   1.0645 B( 12-C , 13-H ) :   0.9761 B( 12-C , 14-H ) :   0.9785
B( 12-C , 15-H ) :   0.9812 B( 16-S , 17-C ) :   1.1284 B( 16-S , 20-C ) :   1.1168
B( 17-C , 18-C ) :   1.6553 B( 17-C , 33-H ) :   0.9585 B( 18-C , 19-C ) :   1.1805
B( 18-C , 21-H ) :   0.9780 B( 19-C , 20-C ) :   1.6581 B( 19-C , 22-C ) :   1.0637
B( 22-C , 23-H ) :   0.9344 B( 22-C , 24-H ) :   0.9293 B( 22-C , 25-C ) :   1.0691
B( 25-C , 26-H ) :   0.9466 B( 25-C , 27-H ) :   0.9443 B( 25-C , 28-C ) :   1.0864
B( 28-C , 29-H ) :   0.9706 B( 28-C , 30-H ) :   0.9745 B( 28-C , 31-H ) :   0.9701

Dispersion correction           -0.014347003
FINAL SINGLE POINT ENERGY     -1339.839608974264

DIPOLE MOMENT
-------------
                                X             Y             Z
Electronic contribution:      5.83089     -29.13423       6.00181
Nuclear contribution   :     -6.17444      29.85221      -6.25823
                        -----------------------------------------
Total Dipole Moment    :     -0.34356       0.71798      -0.25642
                        -----------------------------------------
Magnitude (a.u.)       :      0.83623
Magnitude (Debye)      :      2.12553

Rotational constants in cm-1:     0.016877     0.009365     0.006881
Rotational constants in MHz :   505.946026   280.764526   206.278532

                             ****ORCA TERMINATED NORMALLY****
TOTAL RUN TIME: 0 days 0 hours 0 minutes 21 seconds 909 msec
