                         Program Version 4.2.1 -  RELEASE  -
|  1> ! wB97X-D3 SP def2-SVP
|  2> %pal
|  3> nprocs 24
|  4> end
|  5>
|  6> * xyz 0 1
|  7> S 	 -27.8356 	 -34.0576 	 -95.8918
|  8> C 	 -26.3894 	 -35.0201 	 -95.5998
|  9> C 	 -25.5429 	 -34.5177 	 -94.6009
| 10> C 	 -26.1495 	 -33.3636 	 -94.0178
| 11> C 	 -27.3977 	 -32.9834 	 -94.6146
| 12> H 	 -25.8133 	 -32.8898 	 -93.0753
| 13> C 	 -24.3341 	 -35.2351 	 -94.0416
| 14> H 	 -24.6057 	 -36.2389 	 -94.3464
| 15> H 	 -24.4042 	 -35.1453 	 -92.9734
| 16> C 	 -22.9501 	 -34.8812 	 -94.5945
| 17> H 	 -22.9808 	 -34.6705 	 -95.69
| 18> H 	 -22.5353 	 -33.9624 	 -94.1981
| 19> C 	 -21.9359 	 -35.9826 	 -94.3594
| 20> H 	 -21.8035 	 -36.2083 	 -93.2693
| 21> H 	 -22.0983 	 -36.9114 	 -94.929
| 22> H 	 -20.9346 	 -35.7393 	 -94.7562
| 23> S 	 -29.4206 	 -32.1018 	 -92.8904
| 24> C 	 -30.0246 	 -30.5545 	 -93.1607
| 25> C 	 -29.1741 	 -29.7413 	 -93.934
| 26> C 	 -28.0989 	 -30.4702 	 -94.487
| 27> C 	 -28.2252 	 -31.8328 	 -94.1502
| 28> H 	 -29.4233 	 -28.7642 	 -94.0998
| 29> C 	 -27.1204 	 -29.772 	 -95.4704
| 30> H 	 -27.7616 	 -29.412 	 -96.3265
| 31> H 	 -26.6369 	 -30.6307 	 -95.8485
| 32> C 	 -26.1435 	 -28.8531 	 -94.7252
| 33> H 	 -25.8468 	 -29.412 	 -93.8676
| 34> H 	 -26.7156 	 -28.021 	 -94.4141
| 35> C 	 -24.8362 	 -28.5248 	 -95.3917
| 36> H 	 -24.4196 	 -29.3857 	 -95.8368
| 37> H 	 -24.1367 	 -28.1251 	 -94.6979
| 38> H 	 -24.8927 	 -27.7544 	 -96.1566
| 39> H 	 -25.9632 	 -35.7909 	 -96.294
| 40> H 	 -30.9223 	 -30.1138 	 -92.7757
| 41> *
| 42>
| 43>                          ****END OF INPUT****

CARTESIAN COORDINATES (ANGSTROEM)
---------------------------------
  S    -27.835600  -34.057600  -95.891800
  C    -26.389400  -35.020100  -95.599800
  C    -25.542900  -34.517700  -94.600900
  C    -26.149500  -33.363600  -94.017800
  C    -27.397700  -32.983400  -94.614600
  H    -25.813300  -32.889800  -93.075300
  C    -24.334100  -35.235100  -94.041600
  H    -24.605700  -36.238900  -94.346400
  H    -24.404200  -35.145300  -92.973400
  C    -22.950100  -34.881200  -94.594500
  H    -22.980800  -34.670500  -95.690000
  H    -22.535300  -33.962400  -94.198100
  C    -21.935900  -35.982600  -94.359400
  H    -21.803500  -36.208300  -93.269300
  H    -22.098300  -36.911400  -94.929000
  H    -20.934600  -35.739300  -94.756200
  S    -29.420600  -32.101800  -92.890400
  C    -30.024600  -30.554500  -93.160700
  C    -29.174100  -29.741300  -93.934000
  C    -28.098900  -30.470200  -94.487000
  C    -28.225200  -31.832800  -94.150200
  H    -29.423300  -28.764200  -94.099800
  C    -27.120400  -29.772000  -95.470400
  H    -27.761600  -29.412000  -96.326500
  H    -26.636900  -30.630700  -95.848500
  C    -26.143500  -28.853100  -94.725200
  H    -25.846800  -29.412000  -93.867600
  H    -26.715600  -28.021000  -94.414100
  C    -24.836200  -28.524800  -95.391700
  H    -24.419600  -29.385700  -95.836800
  H    -24.136700  -28.125100  -94.697900
  H    -24.892700  -27.754400  -96.156600
  H    -25.963200  -35.790900  -96.294000
  H    -30.922300  -30.113800  -92.775700

 Total Charge           Charge          ....    0
 Multiplicity           Mult            ....    1
 Number of Electrons    NEL             ....  134
 Basis Dimension        Dim             ....  322

ORBITAL ENERGIES
----------------

  NO   OCC          E(Eh)            E(eV)
   0   2.0000     -88.972956     -2421.0772
   1   2.0000     -88.967318     -2420.9238
   2   2.0000     -10.330037      -281.0946
   3   2.0000     -10.324459      -280.9428
   4   2.0000     -10.316812      -280.7347
   5   2.0000     -10.308887      -280.5191
   6   2.0000     -10.301894      -280.3288
   7   2.0000     -10.301100      -280.3072
   8   2.0000     -10.297322      -280.2044
   9   2.0000     -10.292754      -280.0801
  10   2.0000     -10.290436      -280.0170
  11   2.0000     -10.289266      -279.9852
  12   2.0000     -10.283172      -279.8193
  13   2.0000     -10.280917      -279.7580
  14   2.0000     -10.279086      -279.7082
  15   2.0000     -10.268201      -279.4120
  16   2.0000      -8.087126      -220.0619
  17   2.0000      -8.082927      -219.9476
  18   2.0000      -6.045460      -164.5053
  19   2.0000      -6.041659      -164.4019
  20   2.0000      -6.041154      -164.3881
  21   2.0000      -6.038167      -164.3069
  22   2.0000      -6.037424      -164.2867
  23   2.0000      -6.033836      -164.1890
  24   2.0000      -1.002491       -27.2792
  25   2.0000      -0.982502       -26.7352
  26   2.0000      -0.913636       -24.8613
  27   2.0000      -0.911164       -24.7940
  28   2.0000      -0.862801       -23.4780
  29   2.0000      -0.856225       -23.2991
  30   2.0000      -0.846727       -23.0406
  31   2.0000      -0.805595       -21.9214
  32   2.0000      -0.786394       -21.3989
  33   2.0000      -0.770319       -20.9614
  34   2.0000      -0.705945       -19.2097
  35   2.0000      -0.703134       -19.1332
  36   2.0000      -0.691581       -18.8189
  37   2.0000      -0.657584       -17.8938
  38   2.0000      -0.631714       -17.1898
  39   2.0000      -0.613572       -16.6961
  40   2.0000      -0.588234       -16.0067
  41   2.0000      -0.574398       -15.6302
  42   2.0000      -0.570412       -15.5217
  43   2.0000      -0.554154       -15.0793
  44   2.0000      -0.527775       -14.3615
  45   2.0000      -0.524677       -14.2772
  46   2.0000      -0.519636       -14.1400
  47   2.0000      -0.511301       -13.9132
  48   2.0000      -0.508944       -13.8491
  49   2.0000      -0.497805       -13.5460
  50   2.0000      -0.484562       -13.1856
  51   2.0000      -0.476185       -12.9577
  52   2.0000      -0.469915       -12.7870
  53   2.0000      -0.464191       -12.6313
  54   2.0000      -0.458537       -12.4774
  55   2.0000      -0.448650       -12.2084
  56   2.0000      -0.441967       -12.0265
  57   2.0000      -0.435157       -11.8412
  58   2.0000      -0.430859       -11.7243
  59   2.0000      -0.429425       -11.6853
  60   2.0000      -0.421585       -11.4719
  61   2.0000      -0.420239       -11.4353
  62   2.0000      -0.416884       -11.3440
  63   2.0000      -0.336119        -9.1463
  64   2.0000      -0.329417        -8.9639
  65   2.0000      -0.310631        -8.4527
  66   2.0000      -0.306325        -8.3355
  67   0.0000       0.040481         1.1016
  68   0.0000       0.052573         1.4306
  69   0.0000       0.110602         3.0096
  70   0.0000       0.121607         3.3091
  71   0.0000       0.132485         3.6051

MULLIKEN ATOMIC CHARGES
-----------------------
   0 S :    0.142233
   1 C :   -0.141700
   2 C :   -0.113692
   3 C :    0.029590
   4 C :   -0.196431
   5 H :    0.023228
   6 C :    0.088767
   7 H :    0.017644
   8 H :    0.030603
   9 C :   -0.046065
  10 H :    0.030700
  11 H :    0.025735
  12 C :   -0.077527
  13 H :    0.040795
  14 H :    0.031590
  15 H :    0.027173
  16 S :    0.143869
  17 C :   -0.079248
  18 C :   -0.018068
  19 C :   -0.039344
  20 C :   -0.218321
  21 H :   -0.021288
  22 C :    0.103694
  23 H :    0.048155
  24 H :   -0.000438
  25 C :   -0.047290
  26 H :    0.024535
  27 H :    0.020791
  28 C :    0.000259
  29 H :    0.020333
  30 H :    0.022929
  31 H :    0.020263
  32 H :    0.063968
  33 H :    0.042559
Sum of atomic charges:    0.0000000

LOEWDIN ATOMIC CHARGES
----------------------
   0 S :    0.429964
   1 C :   -0.215160
   2 C :   -0.065193
   3 C :   -0.065405
   4 C :   -0.218580
   5 H :    0.033148
   6 C :   -0.027120
   7 H :    0.034712
   8 H :    0.032687
   9 C :   -0.044142
  10 H :    0.030236
  11 H :    0.023982
  12 C :   -0.075093
  13 H :    0.029240
  14 H :    0.025047
  15 H :    0.027267
  16 S :    0.438381
  17 C :   -0.201950
  18 C :   -0.066587
  19 C :   -0.042722
  20 C :   -0.217134
  21 H :    0.012834
  22 C :   -0.027102
  23 H :    0.038749
  24 H :    0.020596
  25 C :   -0.032946
  26 H :    0.029395
  27 H :    0.019096
  28 C :   -0.056123
  29 H :    0.022165
  30 H :    0.024665
  31 H :    0.022838
  32 H :    0.036031
  33 H :    0.024223

  Mayer bond orders larger than 0.100000
B(  0-S ,  1-C ) :   1.1560 B(  0-S ,  4-C ) :   1.1747 B(  1-C ,  2-C ) :   1.5977
B(  1-C ,  4-C ) :   0.1030 B(  1-C , 32-H ) :   0.9494 B(  2-C ,  3-C ) :   1.2775
B(  2-C ,  6-C ) :   1.0073 B(  3-C ,  4-C ) :   1.5465 B(  3-C ,  5-H ) :   0.9847
B(  4-C , 20-C ) :   1.0118 B(  6-C ,  7-H ) :   0.9450 B(  6-C ,  8-H ) :   0.9395
B(  6-C ,  9-C ) :   1.0524 B(  9-C , 10-H ) :   0.9563 B(  9-C , 11-H ) :   0.9515
B(  9-C , 12-C ) :   1.0892 B( 12-C , 13-H ) :   0.9738 B( 12-C , 14-H ) :   0.9744
B( 12-C , 15-H ) :   0.9720 B( 16-S , 17-C ) :   1.1802 B( 16-S , 20-C ) :   1.1602
B( 17-C , 18-C ) :   1.5851 B( 17-C , 20-C ) :   0.1021 B( 17-C , 33-H ) :   0.9678
B( 18-C , 19-C ) :   1.2534 B( 18-C , 21-H ) :   1.0046 B( 19-C , 20-C ) :   1.5742
B( 19-C , 22-C ) :   1.0234 B( 22-C , 23-H ) :   0.9435 B( 22-C , 24-H ) :   0.9202
B( 22-C , 25-C ) :   1.0517 B( 25-C , 26-H ) :   0.9502 B( 25-C , 27-H ) :   0.9592
B( 25-C , 28-C ) :   1.0972 B( 28-C , 29-H ) :   0.9708 B( 28-C , 30-H ) :   0.9735
B( 28-C , 31-H ) :   0.9717

Dispersion correction           -0.013711499
FINAL SINGLE POINT ENERGY     -1339.859745542980

DIPOLE MOMENT
-------------
                                X             Y             Z
Electronic contribution:    -28.45383      -4.74743       2.59593
Nuclear contribution   :     28.98506       4.96366      -2.58040
                        -----------------------------------------
Total Dipole Moment    :      0.53122       0.21623       0.01553
                        -----------------------------------------
Magnitude (a.u.)       :      0.57375
Magnitude (Debye)      :      1.45837

Rotational constants in cm-1:     0.017795     0.007915     0.006332
Rotational constants in MHz :   533.466473   237.275519   189.816822

                             ****ORCA TERMINATED NORMALLY****
TOTAL RUN TIME: 0 days 0 hours 0 minutes 20 seconds 843 msec
