                         Program Version 4.2.1 -  RELEASE  -
|  1> ! wB97X-D3 SP def2-SVP
|  2> %pal
|  3> nprocs 24
|  4> end
|  5>
|  6> * xyz 0 1
|  7> S 	 -122.263 	 50.8888 	 -35.7304
|  8> C 	 -121.015 	 51.4546 	 -36.8244
|  9> C 	 -121.468 	 52.1581 	 -37.919
| 10> C 	 -122.87 	 52.2963 	 -37.8205
| 11> C 	 -123.429 	 51.674 	 -36.7494
| 12> H 	 -123.498 	 52.9074 	 -38.5207
| 13> C 	 -120.616 	 52.6805 	 -39.0523
| 14> H 	 -120.495 	 51.917 	 -39.8123
| 15> H 	 -119.636 	 52.7186 	 -38.5805
| 16> C 	 -120.902 	 54.0957 	 -39.6941
| 17> H 	 -120.298 	 54.1916 	 -40.6264
| 18> H 	 -121.968 	 54.2801 	 -40.0137
| 19> C 	 -120.452 	 55.2141 	 -38.6886
| 20> H 	 -120.871 	 55.0073 	 -37.7177
| 21> H 	 -119.381 	 55.3026 	 -38.467
| 22> H 	 -120.804 	 56.1601 	 -39.0624
| 23> S 	 -125.218 	 51.4718 	 -34.6952
| 24> C 	 -126.901 	 51.7775 	 -34.9982
| 25> C 	 -127.318 	 51.8213 	 -36.3624
| 26> C 	 -126.035 	 51.8643 	 -37.1243
| 27> C 	 -124.833 	 51.7838 	 -36.4028
| 28> H 	 -128.389 	 51.8876 	 -36.6905
| 29> C 	 -126.237 	 51.8086 	 -38.5986
| 30> H 	 -126.842 	 50.948 	 -38.6167
| 31> H 	 -125.4 	 51.3849 	 -39.184
| 32> C 	 -126.785 	 53.0966 	 -39.2403
| 33> H 	 -125.905 	 53.6641 	 -39.473
| 34> H 	 -127.393 	 53.7083 	 -38.5394
| 35> C 	 -127.691 	 52.8744 	 -40.4634
| 36> H 	 -127.006 	 52.5437 	 -41.2789
| 37> H 	 -128.221 	 53.8208 	 -40.7093
| 38> H 	 -128.415 	 52.0445 	 -40.3043
| 39> H 	 -120.006 	 51.346 	 -36.626
| 40> H 	 -127.675 	 51.9186 	 -34.2401
| 41> *
| 42>
| 43>                          ****END OF INPUT****

CARTESIAN COORDINATES (ANGSTROEM)
---------------------------------
  S    -122.263000   50.888800  -35.730400
  C    -121.015000   51.454600  -36.824400
  C    -121.468000   52.158100  -37.919000
  C    -122.870000   52.296300  -37.820500
  C    -123.429000   51.674000  -36.749400
  H    -123.498000   52.907400  -38.520700
  C    -120.616000   52.680500  -39.052300
  H    -120.495000   51.917000  -39.812300
  H    -119.636000   52.718600  -38.580500
  C    -120.902000   54.095700  -39.694100
  H    -120.298000   54.191600  -40.626400
  H    -121.968000   54.280100  -40.013700
  C    -120.452000   55.214100  -38.688600
  H    -120.871000   55.007300  -37.717700
  H    -119.381000   55.302600  -38.467000
  H    -120.804000   56.160100  -39.062400
  S    -125.218000   51.471800  -34.695200
  C    -126.901000   51.777500  -34.998200
  C    -127.318000   51.821300  -36.362400
  C    -126.035000   51.864300  -37.124300
  C    -124.833000   51.783800  -36.402800
  H    -128.389000   51.887600  -36.690500
  C    -126.237000   51.808600  -38.598600
  H    -126.842000   50.948000  -38.616700
  H    -125.400000   51.384900  -39.184000
  C    -126.785000   53.096600  -39.240300
  H    -125.905000   53.664100  -39.473000
  H    -127.393000   53.708300  -38.539400
  C    -127.691000   52.874400  -40.463400
  H    -127.006000   52.543700  -41.278900
  H    -128.221000   53.820800  -40.709300
  H    -128.415000   52.044500  -40.304300
  H    -120.006000   51.346000  -36.626000
  H    -127.675000   51.918600  -34.240100

 Total Charge           Charge          ....    0
 Multiplicity           Mult            ....    1
 Number of Electrons    NEL             ....  134
 Basis Dimension        Dim             ....  322

ORBITAL ENERGIES
----------------

  NO   OCC          E(Eh)            E(eV)
   0   2.0000     -88.970199     -2421.0022
   1   2.0000     -88.965237     -2420.8672
   2   2.0000     -10.328066      -281.0410
   3   2.0000     -10.325339      -280.9668
   4   2.0000     -10.323428      -280.9148
   5   2.0000     -10.310947      -280.5751
   6   2.0000     -10.308484      -280.5081
   7   2.0000     -10.306666      -280.4586
   8   2.0000     -10.302992      -280.3587
   9   2.0000     -10.299573      -280.2656
  10   2.0000     -10.296313      -280.1769
  11   2.0000     -10.288890      -279.9749
  12   2.0000     -10.288078      -279.9528
  13   2.0000     -10.286410      -279.9074
  14   2.0000     -10.283595      -279.8308
  15   2.0000     -10.276342      -279.6335
  16   2.0000      -8.085072      -220.0060
  17   2.0000      -8.079938      -219.8663
  18   2.0000      -6.043640      -164.4558
  19   2.0000      -6.039772      -164.3505
  20   2.0000      -6.038588      -164.3183
  21   2.0000      -6.035579      -164.2365
  22   2.0000      -6.034632      -164.2107
  23   2.0000      -6.030391      -164.0953
  24   2.0000      -1.008403       -27.4401
  25   2.0000      -0.979708       -26.6592
  26   2.0000      -0.911248       -24.7963
  27   2.0000      -0.905613       -24.6430
  28   2.0000      -0.866190       -23.5702
  29   2.0000      -0.852908       -23.2088
  30   2.0000      -0.844519       -22.9805
  31   2.0000      -0.813276       -22.1304
  32   2.0000      -0.781585       -21.2680
  33   2.0000      -0.768338       -20.9075
  34   2.0000      -0.710203       -19.3256
  35   2.0000      -0.701648       -19.0928
  36   2.0000      -0.691312       -18.8115
  37   2.0000      -0.662585       -18.0298
  38   2.0000      -0.637102       -17.3364
  39   2.0000      -0.622629       -16.9426
  40   2.0000      -0.592455       -16.1215
  41   2.0000      -0.563959       -15.3461
  42   2.0000      -0.552792       -15.0422
  43   2.0000      -0.551882       -15.0175
  44   2.0000      -0.532275       -14.4839
  45   2.0000      -0.530992       -14.4490
  46   2.0000      -0.521198       -14.1825
  47   2.0000      -0.509660       -13.8685
  48   2.0000      -0.502225       -13.6662
  49   2.0000      -0.498292       -13.5592
  50   2.0000      -0.486661       -13.2427
  51   2.0000      -0.481045       -13.0899
  52   2.0000      -0.469639       -12.7795
  53   2.0000      -0.464439       -12.6380
  54   2.0000      -0.454811       -12.3760
  55   2.0000      -0.447855       -12.1868
  56   2.0000      -0.445548       -12.1240
  57   2.0000      -0.440421       -11.9845
  58   2.0000      -0.432499       -11.7689
  59   2.0000      -0.431622       -11.7450
  60   2.0000      -0.421351       -11.4655
  61   2.0000      -0.412393       -11.2218
  62   2.0000      -0.407974       -11.1015
  63   2.0000      -0.357203        -9.7200
  64   2.0000      -0.336263        -9.1502
  65   2.0000      -0.323425        -8.8008
  66   2.0000      -0.278765        -7.5856
  67   0.0000       0.025521         0.6945
  68   0.0000       0.068190         1.8555
  69   0.0000       0.097538         2.6541
  70   0.0000       0.116466         3.1692
  71   0.0000       0.126516         3.4427

MULLIKEN ATOMIC CHARGES
-----------------------
   0 S :    0.114149
   1 C :   -0.102253
   2 C :   -0.066806
   3 C :   -0.038932
   4 C :   -0.098084
   5 H :    0.021856
   6 C :    0.071034
   7 H :    0.045318
   8 H :    0.011473
   9 C :   -0.093160
  10 H :    0.039261
  11 H :    0.046132
  12 C :   -0.054213
  13 H :    0.035352
  14 H :    0.032409
  15 H :    0.030917
  16 S :    0.085255
  17 C :   -0.084885
  18 C :   -0.056347
  19 C :   -0.084059
  20 C :   -0.107079
  21 H :    0.057688
  22 C :    0.034058
  23 H :    0.017684
  24 H :    0.019752
  25 C :   -0.061604
  26 H :    0.027508
  27 H :    0.034378
  28 C :   -0.069702
  29 H :    0.035747
  30 H :    0.048138
  31 H :    0.038751
  32 H :    0.011416
  33 H :    0.058849
Sum of atomic charges:   -0.0000000

LOEWDIN ATOMIC CHARGES
----------------------
   0 S :    0.404219
   1 C :   -0.185312
   2 C :   -0.059664
   3 C :   -0.072246
   4 C :   -0.193753
   5 H :    0.036664
   6 C :   -0.033407
   7 H :    0.034080
   8 H :    0.032756
   9 C :   -0.041041
  10 H :    0.029943
  11 H :    0.028358
  12 C :   -0.066536
  13 H :    0.025020
  14 H :    0.026556
  15 H :    0.022399
  16 S :    0.386238
  17 C :   -0.181916
  18 C :   -0.075153
  19 C :   -0.045386
  20 C :   -0.191225
  21 H :    0.048215
  22 C :   -0.046391
  23 H :    0.028664
  24 H :    0.029730
  25 C :   -0.040447
  26 H :    0.021757
  27 H :    0.025237
  28 C :   -0.069918
  29 H :    0.028144
  30 H :    0.030859
  31 H :    0.026793
  32 H :    0.008775
  33 H :    0.027989

  Mayer bond orders larger than 0.100000
B(  0-S ,  1-C ) :   1.1265 B(  0-S ,  4-C ) :   1.1321 B(  1-C ,  2-C ) :   1.6225
B(  1-C , 32-H ) :   0.9705 B(  2-C ,  3-C ) :   1.2342 B(  2-C ,  6-C ) :   1.0108
B(  3-C ,  4-C ) :   1.5904 B(  3-C ,  5-H ) :   0.9885 B(  4-C , 20-C ) :   1.0852
B(  6-C ,  7-H ) :   0.9362 B(  6-C ,  8-H ) :   0.9359 B(  6-C ,  9-C ) :   1.0632
B(  9-C , 10-H ) :   0.9555 B(  9-C , 11-H ) :   0.9596 B(  9-C , 12-C ) :   1.0631
B( 12-C , 13-H ) :   0.9804 B( 12-C , 14-H ) :   0.9753 B( 12-C , 15-H ) :   0.9768
B( 16-S , 17-C ) :   1.1696 B( 16-S , 20-C ) :   1.0870 B( 17-C , 18-C ) :   1.6237
B( 17-C , 33-H ) :   0.9625 B( 18-C , 19-C ) :   1.2029 B( 18-C , 21-H ) :   0.9795
B( 19-C , 20-C ) :   1.6137 B( 19-C , 22-C ) :   1.0377 B( 22-C , 23-H ) :   0.9414
B( 22-C , 24-H ) :   0.9363 B( 22-C , 25-C ) :   1.0304 B( 25-C , 26-H ) :   0.9550
B( 25-C , 27-H ) :   0.9666 B( 25-C , 28-C ) :   1.0706 B( 28-C , 29-H ) :   0.9761
B( 28-C , 30-H ) :   0.9758 B( 28-C , 31-H ) :   0.9787

Dispersion correction           -0.014030437
FINAL SINGLE POINT ENERGY     -1339.857041509024

DIPOLE MOMENT
-------------
                                X             Y             Z
Electronic contribution:      0.73692     -15.18045      25.81508
Nuclear contribution   :     -0.86438      15.44447     -26.42508
                        -----------------------------------------
Total Dipole Moment    :     -0.12746       0.26402      -0.61000
                        -----------------------------------------
Magnitude (a.u.)       :      0.67680
Magnitude (Debye)      :      1.72028

Rotational constants in cm-1:     0.016064     0.009546     0.006588
Rotational constants in MHz :   481.577657   286.192523   197.515086

                             ****ORCA TERMINATED NORMALLY****
TOTAL RUN TIME: 0 days 0 hours 0 minutes 21 seconds 537 msec
