                         Program Version 4.2.1 -  RELEASE  -
|  1> ! wB97X-D3 SP def2-SVP
|  2> %pal
|  3> nprocs 24
|  4> end
|  5>
|  6> * xyz 0 1
|  7> S 	 -51.8232 	 -50.8839 	 -83.0679
|  8> C 	 -51.1859 	 -52.428 	 -82.622
|  9> C 	 -51.5842 	 -52.7865 	 -81.3126
| 10> C 	 -52.5458 	 -51.9029 	 -80.8049
| 11> C 	 -52.8481 	 -50.834 	 -81.6574
| 12> H 	 -53.1336 	 -51.8575 	 -79.899
| 13> C 	 -50.7609 	 -53.8467 	 -80.4712
| 14> H 	 -50.2181 	 -54.4742 	 -81.1846
| 15> H 	 -51.3793 	 -54.4575 	 -79.8163
| 16> C 	 -49.8136 	 -53.2182 	 -79.5154
| 17> H 	 -49.1027 	 -52.691 	 -80.2439
| 18> H 	 -50.3716 	 -52.4273 	 -79.0623
| 19> C 	 -48.9085 	 -54.0691 	 -78.6079
| 20> H 	 -48.5535 	 -54.8829 	 -79.17
| 21> H 	 -48.1517 	 -53.4602 	 -78.1689
| 22> H 	 -49.4756 	 -54.3584 	 -77.701
| 23> S 	 -54.1442 	 -49.4406 	 -79.6647
| 24> C 	 -55.0622 	 -48.0389 	 -80.0924
| 25> C 	 -55.2104 	 -47.8992 	 -81.4504
| 26> C 	 -54.5521 	 -48.9933 	 -82.1851
| 27> C 	 -53.8899 	 -49.8648 	 -81.3751
| 28> H 	 -55.7059 	 -46.9673 	 -81.8357
| 29> C 	 -54.6571 	 -48.9748 	 -83.6591
| 30> H 	 -55.6718 	 -48.5983 	 -83.7351
| 31> H 	 -54.6264 	 -49.9433 	 -84.0529
| 32> C 	 -53.7558 	 -47.9779 	 -84.3379
| 33> H 	 -52.7588 	 -48.1678 	 -84.0385
| 34> H 	 -54.0295 	 -46.955 	 -84.1164
| 35> C 	 -53.7737 	 -48.1354 	 -85.8578
| 36> H 	 -53.317 	 -49.0029 	 -86.1466
| 37> H 	 -53.1954 	 -47.3833 	 -86.4332
| 38> H 	 -54.8604 	 -48.125 	 -86.1951
| 39> H 	 -50.3788 	 -52.9978 	 -83.021
| 40> H 	 -55.2418 	 -47.0963 	 -79.5492
| 41> *
| 42>
| 43>                          ****END OF INPUT****

CARTESIAN COORDINATES (ANGSTROEM)
---------------------------------
  S    -51.823200  -50.883900  -83.067900
  C    -51.185900  -52.428000  -82.622000
  C    -51.584200  -52.786500  -81.312600
  C    -52.545800  -51.902900  -80.804900
  C    -52.848100  -50.834000  -81.657400
  H    -53.133600  -51.857500  -79.899000
  C    -50.760900  -53.846700  -80.471200
  H    -50.218100  -54.474200  -81.184600
  H    -51.379300  -54.457500  -79.816300
  C    -49.813600  -53.218200  -79.515400
  H    -49.102700  -52.691000  -80.243900
  H    -50.371600  -52.427300  -79.062300
  C    -48.908500  -54.069100  -78.607900
  H    -48.553500  -54.882900  -79.170000
  H    -48.151700  -53.460200  -78.168900
  H    -49.475600  -54.358400  -77.701000
  S    -54.144200  -49.440600  -79.664700
  C    -55.062200  -48.038900  -80.092400
  C    -55.210400  -47.899200  -81.450400
  C    -54.552100  -48.993300  -82.185100
  C    -53.889900  -49.864800  -81.375100
  H    -55.705900  -46.967300  -81.835700
  C    -54.657100  -48.974800  -83.659100
  H    -55.671800  -48.598300  -83.735100
  H    -54.626400  -49.943300  -84.052900
  C    -53.755800  -47.977900  -84.337900
  H    -52.758800  -48.167800  -84.038500
  H    -54.029500  -46.955000  -84.116400
  C    -53.773700  -48.135400  -85.857800
  H    -53.317000  -49.002900  -86.146600
  H    -53.195400  -47.383300  -86.433200
  H    -54.860400  -48.125000  -86.195100
  H    -50.378800  -52.997800  -83.021000
  H    -55.241800  -47.096300  -79.549200

 Total Charge           Charge          ....    0
 Multiplicity           Mult            ....    1
 Number of Electrons    NEL             ....  134
 Basis Dimension        Dim             ....  322

ORBITAL ENERGIES
----------------

  NO   OCC          E(Eh)            E(eV)
   0   2.0000     -88.977867     -2421.2109
   1   2.0000     -88.966693     -2420.9068
   2   2.0000     -10.332532      -281.1625
   3   2.0000     -10.328072      -281.0411
   4   2.0000     -10.317250      -280.7466
   5   2.0000     -10.314756      -280.6788
   6   2.0000     -10.308891      -280.5192
   7   2.0000     -10.303713      -280.3783
   8   2.0000     -10.299699      -280.2691
   9   2.0000     -10.293891      -280.1110
  10   2.0000     -10.293014      -280.0871
  11   2.0000     -10.281401      -279.7711
  12   2.0000     -10.281305      -279.7685
  13   2.0000     -10.279772      -279.7268
  14   2.0000     -10.277571      -279.6669
  15   2.0000     -10.273773      -279.5636
  16   2.0000      -8.091630      -220.1844
  17   2.0000      -8.081315      -219.9038
  18   2.0000      -6.050141      -164.6327
  19   2.0000      -6.046188      -164.5251
  20   2.0000      -6.042564      -164.4265
  21   2.0000      -6.040082      -164.3590
  22   2.0000      -6.035970      -164.2471
  23   2.0000      -6.031676      -164.1303
  24   2.0000      -1.010966       -27.5098
  25   2.0000      -0.987303       -26.8659
  26   2.0000      -0.920626       -25.0515
  27   2.0000      -0.914095       -24.8738
  28   2.0000      -0.874456       -23.7952
  29   2.0000      -0.856513       -23.3069
  30   2.0000      -0.848693       -23.0941
  31   2.0000      -0.815388       -22.1878
  32   2.0000      -0.789552       -21.4848
  33   2.0000      -0.775628       -21.1059
  34   2.0000      -0.711183       -19.3523
  35   2.0000      -0.698218       -18.9995
  36   2.0000      -0.687912       -18.7190
  37   2.0000      -0.671103       -18.2617
  38   2.0000      -0.634502       -17.2657
  39   2.0000      -0.615767       -16.7559
  40   2.0000      -0.596076       -16.2201
  41   2.0000      -0.577550       -15.7159
  42   2.0000      -0.571675       -15.5561
  43   2.0000      -0.566790       -15.4231
  44   2.0000      -0.532112       -14.4795
  45   2.0000      -0.528913       -14.3924
  46   2.0000      -0.524099       -14.2615
  47   2.0000      -0.512328       -13.9412
  48   2.0000      -0.500479       -13.6187
  49   2.0000      -0.498154       -13.5555
  50   2.0000      -0.494250       -13.4492
  51   2.0000      -0.480561       -13.0767
  52   2.0000      -0.479744       -13.0545
  53   2.0000      -0.469306       -12.7705
  54   2.0000      -0.466147       -12.6845
  55   2.0000      -0.454726       -12.3737
  56   2.0000      -0.442197       -12.0328
  57   2.0000      -0.436727       -11.8839
  58   2.0000      -0.431018       -11.7286
  59   2.0000      -0.426884       -11.6161
  60   2.0000      -0.423906       -11.5351
  61   2.0000      -0.413684       -11.2569
  62   2.0000      -0.397033       -10.8038
  63   2.0000      -0.363434        -9.8895
  64   2.0000      -0.336229        -9.1493
  65   2.0000      -0.328879        -8.9492
  66   2.0000      -0.283843        -7.7238
  67   0.0000       0.019274         0.5245
  68   0.0000       0.071733         1.9520
  69   0.0000       0.104148         2.8340
  70   0.0000       0.111647         3.0381
  71   0.0000       0.126854         3.4519

MULLIKEN ATOMIC CHARGES
-----------------------
   0 S :    0.126563
   1 C :   -0.086652
   2 C :   -0.085190
   3 C :   -0.011149
   4 C :   -0.130305
   5 H :    0.015832
   6 C :    0.080682
   7 H :    0.014301
   8 H :    0.017663
   9 C :   -0.117832
  10 H :    0.014336
  11 H :    0.021689
  12 C :    0.018349
  13 H :    0.029294
  14 H :    0.032288
  15 H :    0.028519
  16 S :    0.077568
  17 C :   -0.069809
  18 C :   -0.088128
  19 C :   -0.100375
  20 C :   -0.102139
  21 H :    0.045338
  22 C :    0.081973
  23 H :    0.019665
  24 H :    0.014626
  25 C :   -0.034007
  26 H :    0.013744
  27 H :    0.024308
  28 C :   -0.033522
  29 H :    0.009822
  30 H :    0.033210
  31 H :    0.030871
  32 H :    0.038194
  33 H :    0.070272
Sum of atomic charges:   -0.0000000

LOEWDIN ATOMIC CHARGES
----------------------
   0 S :    0.435747
   1 C :   -0.210537
   2 C :   -0.051480
   3 C :   -0.075541
   4 C :   -0.189236
   5 H :    0.024300
   6 C :   -0.026162
   7 H :    0.023173
   8 H :    0.023671
   9 C :   -0.051638
  10 H :    0.024910
  11 H :    0.019069
  12 C :   -0.054778
  13 H :    0.021586
  14 H :    0.028928
  15 H :    0.029382
  16 S :    0.394570
  17 C :   -0.200372
  18 C :   -0.077230
  19 C :   -0.052425
  20 C :   -0.185076
  21 H :    0.041675
  22 C :   -0.033446
  23 H :    0.037256
  24 H :    0.021103
  25 C :   -0.031257
  26 H :    0.012113
  27 H :    0.023332
  28 C :   -0.060892
  29 H :    0.009814
  30 H :    0.029220
  31 H :    0.030119
  32 H :    0.025409
  33 H :    0.044693

  Mayer bond orders larger than 0.100000
B(  0-S ,  1-C ) :   1.1508 B(  0-S ,  4-C ) :   1.1523 B(  1-C ,  2-C ) :   1.5802
B(  1-C ,  4-C ) :   0.1032 B(  1-C , 32-H ) :   0.9628 B(  2-C ,  3-C ) :   1.2654
B(  2-C ,  6-C ) :   1.0317 B(  3-C ,  4-C ) :   1.5192 B(  3-C ,  5-H ) :   0.9928
B(  4-C , 20-C ) :   1.0911 B(  6-C ,  7-H ) :   0.9392 B(  6-C ,  8-H ) :   0.9403
B(  6-C ,  9-C ) :   1.0601 B(  9-C , 10-H ) :   0.9530 B(  9-C , 11-H ) :   0.9569
B(  9-C , 12-C ) :   1.0762 B( 12-C , 13-H ) :   0.9736 B( 12-C , 14-H ) :   0.9720
B( 12-C , 15-H ) :   0.9716 B( 16-S , 17-C ) :   1.1394 B( 16-S , 20-C ) :   1.0906
B( 17-C , 18-C ) :   1.6823 B( 17-C , 33-H ) :   0.9514 B( 18-C , 19-C ) :   1.1852
B( 18-C , 21-H ) :   0.9766 B( 19-C , 20-C ) :   1.6403 B( 19-C , 22-C ) :   1.0492
B( 22-C , 23-H ) :   0.9151 B( 22-C , 24-H ) :   0.9413 B( 22-C , 25-C ) :   1.0666
B( 25-C , 26-H ) :   0.9543 B( 25-C , 27-H ) :   0.9521 B( 25-C , 28-C ) :   1.0904
B( 28-C , 29-H ) :   0.9744 B( 28-C , 30-H ) :   0.9733 B( 28-C , 31-H ) :   0.9718

Dispersion correction           -0.014033963
FINAL SINGLE POINT ENERGY     -1339.848770719540

DIPOLE MOMENT
-------------
                                X             Y             Z
Electronic contribution:     -8.95728       4.32004       4.56727
Nuclear contribution   :      9.17899      -4.10317      -4.61813
                        -----------------------------------------
Total Dipole Moment    :      0.22171       0.21687      -0.05086
                        -----------------------------------------
Magnitude (a.u.)       :      0.31429
Magnitude (Debye)      :      0.79885

Rotational constants in cm-1:     0.022153     0.007937     0.006106
Rotational constants in MHz :   664.131903   237.954969   183.062018

                             ****ORCA TERMINATED NORMALLY****
TOTAL RUN TIME: 0 days 0 hours 0 minutes 20 seconds 115 msec
