                         Program Version 4.2.1 -  RELEASE  -
|  1> ! wB97X-D3 SP def2-SVP
|  2> %pal
|  3> nprocs 24
|  4> end
|  5>
|  6> * xyz 0 1
|  7> S 	 34.971 	 -23.3256 	 -114.495
|  8> C 	 36.6383 	 -23.1294 	 -114.893
|  9> C 	 37.4333 	 -22.811 	 -113.772
| 10> C 	 36.6305 	 -22.823 	 -112.576
| 11> C 	 35.3379 	 -23.2229 	 -112.793
| 12> H 	 37.0432 	 -22.5854 	 -111.63
| 13> C 	 38.811 	 -22.1887 	 -113.81
| 14> H 	 39.1148 	 -21.1514 	 -113.356
| 15> H 	 38.9545 	 -22.0252 	 -114.86
| 16> C 	 39.8588 	 -23.1702 	 -113.213
| 17> H 	 40.8285 	 -22.7712 	 -113.397
| 18> H 	 39.7369 	 -23.1846 	 -112.119
| 19> C 	 39.7102 	 -24.5774 	 -113.773
| 20> H 	 38.7025 	 -24.9389 	 -113.489
| 21> H 	 39.8256 	 -24.6175 	 -114.874
| 22> H 	 40.415 	 -25.272 	 -113.222
| 23> S 	 33.3957 	 -22.1406 	 -111.296
| 24> C 	 32.3558 	 -23.1389 	 -110.326
| 25> C 	 32.5843 	 -24.4838 	 -110.499
| 26> C 	 33.7646 	 -24.6883 	 -111.247
| 27> C 	 34.2822 	 -23.499 	 -111.824
| 28> H 	 32.0216 	 -25.1914 	 -110.074
| 29> C 	 34.2392 	 -26.1734 	 -111.363
| 30> H 	 34.3097 	 -26.5928 	 -110.314
| 31> H 	 35.217 	 -26.1586 	 -111.852
| 32> C 	 33.3367 	 -27.0588 	 -112.289
| 33> H 	 32.4501 	 -27.2952 	 -111.753
| 34> H 	 33.8323 	 -28.0385 	 -112.433
| 35> C 	 32.9996 	 -26.5308 	 -113.667
| 36> H 	 32.1465 	 -25.8286 	 -113.605
| 37> H 	 32.5036 	 -27.1972 	 -114.293
| 38> H 	 33.8512 	 -25.9956 	 -114.2
| 39> H 	 36.963 	 -23.1291 	 -115.922
| 40> H 	 31.6128 	 -22.7687 	 -109.633
| 41> *
| 42>
| 43>                          ****END OF INPUT****

CARTESIAN COORDINATES (ANGSTROEM)
---------------------------------
  S     34.971000  -23.325600  -114.495000
  C     36.638300  -23.129400  -114.893000
  C     37.433300  -22.811000  -113.772000
  C     36.630500  -22.823000  -112.576000
  C     35.337900  -23.222900  -112.793000
  H     37.043200  -22.585400  -111.630000
  C     38.811000  -22.188700  -113.810000
  H     39.114800  -21.151400  -113.356000
  H     38.954500  -22.025200  -114.860000
  C     39.858800  -23.170200  -113.213000
  H     40.828500  -22.771200  -113.397000
  H     39.736900  -23.184600  -112.119000
  C     39.710200  -24.577400  -113.773000
  H     38.702500  -24.938900  -113.489000
  H     39.825600  -24.617500  -114.874000
  H     40.415000  -25.272000  -113.222000
  S     33.395700  -22.140600  -111.296000
  C     32.355800  -23.138900  -110.326000
  C     32.584300  -24.483800  -110.499000
  C     33.764600  -24.688300  -111.247000
  C     34.282200  -23.499000  -111.824000
  H     32.021600  -25.191400  -110.074000
  C     34.239200  -26.173400  -111.363000
  H     34.309700  -26.592800  -110.314000
  H     35.217000  -26.158600  -111.852000
  C     33.336700  -27.058800  -112.289000
  H     32.450100  -27.295200  -111.753000
  H     33.832300  -28.038500  -112.433000
  C     32.999600  -26.530800  -113.667000
  H     32.146500  -25.828600  -113.605000
  H     32.503600  -27.197200  -114.293000
  H     33.851200  -25.995600  -114.200000
  H     36.963000  -23.129100  -115.922000
  H     31.612800  -22.768700  -109.633000

 Total Charge           Charge          ....    0
 Multiplicity           Mult            ....    1
 Number of Electrons    NEL             ....  134
 Basis Dimension        Dim             ....  322

ORBITAL ENERGIES
----------------

  NO   OCC          E(Eh)            E(eV)
   0   2.0000     -88.968550     -2420.9573
   1   2.0000     -88.964873     -2420.8573
   2   2.0000     -10.326508      -280.9986
   3   2.0000     -10.322185      -280.8809
   4   2.0000     -10.317233      -280.7462
   5   2.0000     -10.312979      -280.6304
   6   2.0000     -10.304611      -280.4027
   7   2.0000     -10.303757      -280.3795
   8   2.0000     -10.297662      -280.2136
   9   2.0000     -10.297357      -280.2053
  10   2.0000     -10.292470      -280.0724
  11   2.0000     -10.283199      -279.8201
  12   2.0000     -10.282470      -279.8002
  13   2.0000     -10.280995      -279.7601
  14   2.0000     -10.278761      -279.6993
  15   2.0000     -10.269335      -279.4428
  16   2.0000      -8.083473      -219.9625
  17   2.0000      -8.080566      -219.8834
  18   2.0000      -6.041826      -164.4065
  19   2.0000      -6.038902      -164.3269
  20   2.0000      -6.037961      -164.3013
  21   2.0000      -6.034795      -164.2151
  22   2.0000      -6.034352      -164.2031
  23   2.0000      -6.031610      -164.1285
  24   2.0000      -1.009488       -27.4696
  25   2.0000      -0.987117       -26.8608
  26   2.0000      -0.911534       -24.8041
  27   2.0000      -0.900236       -24.4967
  28   2.0000      -0.869779       -23.6679
  29   2.0000      -0.846497       -23.0344
  30   2.0000      -0.844701       -22.9855
  31   2.0000      -0.812386       -22.1062
  32   2.0000      -0.780697       -21.2438
  33   2.0000      -0.767379       -20.8814
  34   2.0000      -0.707138       -19.2422
  35   2.0000      -0.692968       -18.8566
  36   2.0000      -0.684804       -18.6345
  37   2.0000      -0.666489       -18.1361
  38   2.0000      -0.644256       -17.5311
  39   2.0000      -0.625994       -17.0342
  40   2.0000      -0.590344       -16.0641
  41   2.0000      -0.568782       -15.4773
  42   2.0000      -0.554619       -15.0920
  43   2.0000      -0.547018       -14.8851
  44   2.0000      -0.540829       -14.7167
  45   2.0000      -0.530441       -14.4340
  46   2.0000      -0.517897       -14.0927
  47   2.0000      -0.511804       -13.9269
  48   2.0000      -0.501208       -13.6386
  49   2.0000      -0.495842       -13.4925
  50   2.0000      -0.489257       -13.3134
  51   2.0000      -0.475958       -12.9515
  52   2.0000      -0.469606       -12.7786
  53   2.0000      -0.457290       -12.4435
  54   2.0000      -0.452878       -12.3234
  55   2.0000      -0.448248       -12.1975
  56   2.0000      -0.447281       -12.1711
  57   2.0000      -0.435777       -11.8581
  58   2.0000      -0.428706       -11.6657
  59   2.0000      -0.427197       -11.6246
  60   2.0000      -0.419713       -11.4210
  61   2.0000      -0.409445       -11.1416
  62   2.0000      -0.400615       -10.9013
  63   2.0000      -0.337870        -9.1939
  64   2.0000      -0.332412        -9.0454
  65   2.0000      -0.312845        -8.5129
  66   2.0000      -0.307853        -8.3771
  67   0.0000       0.043470         1.1829
  68   0.0000       0.055471         1.5094
  69   0.0000       0.101353         2.7580
  70   0.0000       0.120662         3.2834
  71   0.0000       0.129301         3.5185

MULLIKEN ATOMIC CHARGES
-----------------------
   0 S :    0.136897
   1 C :   -0.116448
   2 C :   -0.112488
   3 C :    0.079993
   4 C :   -0.171217
   5 H :   -0.000216
   6 C :    0.032763
   7 H :    0.060149
   8 H :    0.007867
   9 C :   -0.072784
  10 H :    0.019769
  11 H :    0.031336
  12 C :   -0.071738
  13 H :    0.048846
  14 H :    0.038681
  15 H :    0.038818
  16 S :    0.128382
  17 C :   -0.088159
  18 C :    0.013886
  19 C :   -0.023333
  20 C :   -0.197738
  21 H :   -0.032096
  22 C :    0.057101
  23 H :    0.049203
  24 H :    0.027804
  25 C :   -0.074197
  26 H :    0.013593
  27 H :    0.032208
  28 C :   -0.035765
  29 H :    0.019706
  30 H :    0.012475
  31 H :    0.045246
  32 H :    0.048840
  33 H :    0.052617
Sum of atomic charges:    0.0000000

LOEWDIN ATOMIC CHARGES
----------------------
   0 S :    0.438777
   1 C :   -0.198657
   2 C :   -0.064428
   3 C :   -0.045393
   4 C :   -0.206285
   5 H :    0.027425
   6 C :   -0.041821
   7 H :    0.048079
   8 H :    0.022174
   9 C :   -0.044042
  10 H :    0.016036
  11 H :    0.023898
  12 C :   -0.072619
  13 H :    0.028669
  14 H :    0.025991
  15 H :    0.030953
  16 S :    0.439324
  17 C :   -0.184010
  18 C :   -0.056313
  19 C :   -0.049124
  20 C :   -0.232539
  21 H :    0.010511
  22 C :   -0.029377
  23 H :    0.040132
  24 H :    0.028153
  25 C :   -0.043267
  26 H :    0.014735
  27 H :    0.027012
  28 C :   -0.076755
  29 H :    0.029165
  30 H :    0.018270
  31 H :    0.025130
  32 H :    0.023477
  33 H :    0.026722

  Mayer bond orders larger than 0.100000
B(  0-S ,  1-C ) :   1.1676 B(  0-S ,  4-C ) :   1.1619 B(  1-C ,  2-C ) :   1.5820
B(  1-C , 32-H ) :   0.9654 B(  2-C ,  3-C ) :   1.2386 B(  2-C ,  6-C ) :   1.0143
B(  3-C ,  4-C ) :   1.5917 B(  3-C ,  5-H ) :   1.0036 B(  4-C , 20-C ) :   0.9888
B(  6-C ,  7-H ) :   0.9560 B(  6-C ,  8-H ) :   0.9411 B(  6-C ,  9-C ) :   1.0529
B(  9-C , 10-H ) :   0.9573 B(  9-C , 11-H ) :   0.9580 B(  9-C , 12-C ) :   1.0832
B( 12-C , 13-H ) :   0.9630 B( 12-C , 14-H ) :   0.9765 B( 12-C , 15-H ) :   0.9718
B( 16-S , 17-C ) :   1.1719 B( 16-S , 20-C ) :   1.1800 B( 17-C , 18-C ) :   1.5792
B( 17-C , 20-C ) :   0.1056 B( 17-C , 33-H ) :   0.9677 B( 18-C , 19-C ) :   1.2621
B( 18-C , 21-H ) :   1.0113 B( 19-C , 20-C ) :   1.5681 B( 19-C , 22-C ) :   1.0340
B( 22-C , 23-H ) :   0.9452 B( 22-C , 24-H ) :   0.9357 B( 22-C , 25-C ) :   1.0656
B( 25-C , 26-H ) :   0.9543 B( 25-C , 27-H ) :   0.9584 B( 25-C , 28-C ) :   1.0819
B( 28-C , 29-H ) :   0.9648 B( 28-C , 30-H ) :   0.9666 B( 28-C , 31-H ) :   0.9687

Dispersion correction           -0.015573409
FINAL SINGLE POINT ENERGY     -1339.863447768997

DIPOLE MOMENT
-------------
                                X             Y             Z
Electronic contribution:    -13.93537      15.24639       2.79295
Nuclear contribution   :     14.12153     -15.41638      -2.67454
                        -----------------------------------------
Total Dipole Moment    :      0.18616      -0.16999       0.11841
                        -----------------------------------------
Magnitude (a.u.)       :      0.27852
Magnitude (Debye)      :      0.70794

Rotational constants in cm-1:     0.021020     0.008615     0.007625
Rotational constants in MHz :   630.166776   258.259415   228.598155

                             ****ORCA TERMINATED NORMALLY****
TOTAL RUN TIME: 0 days 0 hours 0 minutes 22 seconds 266 msec
