                         Program Version 4.2.1 -  RELEASE  -
|  1> ! wB97X-D3 SP def2-SVP
|  2> %pal
|  3> nprocs 24
|  4> end
|  5>
|  6> * xyz 0 1
|  7> S 	 -118.099 	 47.1523 	 -28.5112
|  8> C 	 -117.466 	 46.9806 	 -30.1225
|  9> C 	 -118.096 	 47.8051 	 -31.0581
| 10> C 	 -119.073 	 48.6303 	 -30.4176
| 11> C 	 -119.125 	 48.4297 	 -29.011
| 12> H 	 -119.785 	 49.2954 	 -30.9492
| 13> C 	 -117.621 	 47.9103 	 -32.539
| 14> H 	 -117.08 	 47.0071 	 -32.8285
| 15> H 	 -116.88 	 48.7116 	 -32.5639
| 16> C 	 -118.75 	 48.0203 	 -33.524
| 17> H 	 -119.231 	 48.9801 	 -33.371
| 18> H 	 -118.437 	 47.9767 	 -34.5223
| 19> C 	 -119.827 	 46.9678 	 -33.311
| 20> H 	 -120.66 	 47.2245 	 -33.9487
| 21> H 	 -119.402 	 45.9738 	 -33.5592
| 22> H 	 -120.235 	 47.0027 	 -32.2971
| 23> S 	 -119.899 	 50.8786 	 -27.9852
| 24> C 	 -121.045 	 50.9574 	 -26.6047
| 25> C 	 -121.478 	 49.6702 	 -26.2438
| 26> C 	 -120.937 	 48.6267 	 -27.0811
| 27> C 	 -120.002 	 49.1111 	 -28.036
| 28> H 	 -122.325 	 49.4856 	 -25.539
| 29> C 	 -121.474 	 47.303 	 -26.988
| 30> H 	 -121.06 	 46.8976 	 -26.0229
| 31> H 	 -121.025 	 46.5876 	 -27.6555
| 32> C 	 -122.908 	 47.0922 	 -27.1953
| 33> H 	 -123.472 	 47.5464 	 -26.3858
| 34> H 	 -123.122 	 46.044 	 -27.2061
| 35> C 	 -123.404 	 47.6191 	 -28.507
| 36> H 	 -122.93 	 47.148 	 -29.3864
| 37> H 	 -123.312 	 48.6983 	 -28.6721
| 38> H 	 -124.451 	 47.4606 	 -28.6582
| 39> H 	 -116.703 	 46.2915 	 -30.4064
| 40> H 	 -121.442 	 51.832 	 -26.0415
| 41> *
| 42>
| 43>                          ****END OF INPUT****

CARTESIAN COORDINATES (ANGSTROEM)
---------------------------------
  S    -118.099000   47.152300  -28.511200
  C    -117.466000   46.980600  -30.122500
  C    -118.096000   47.805100  -31.058100
  C    -119.073000   48.630300  -30.417600
  C    -119.125000   48.429700  -29.011000
  H    -119.785000   49.295400  -30.949200
  C    -117.621000   47.910300  -32.539000
  H    -117.080000   47.007100  -32.828500
  H    -116.880000   48.711600  -32.563900
  C    -118.750000   48.020300  -33.524000
  H    -119.231000   48.980100  -33.371000
  H    -118.437000   47.976700  -34.522300
  C    -119.827000   46.967800  -33.311000
  H    -120.660000   47.224500  -33.948700
  H    -119.402000   45.973800  -33.559200
  H    -120.235000   47.002700  -32.297100
  S    -119.899000   50.878600  -27.985200
  C    -121.045000   50.957400  -26.604700
  C    -121.478000   49.670200  -26.243800
  C    -120.937000   48.626700  -27.081100
  C    -120.002000   49.111100  -28.036000
  H    -122.325000   49.485600  -25.539000
  C    -121.474000   47.303000  -26.988000
  H    -121.060000   46.897600  -26.022900
  H    -121.025000   46.587600  -27.655500
  C    -122.908000   47.092200  -27.195300
  H    -123.472000   47.546400  -26.385800
  H    -123.122000   46.044000  -27.206100
  C    -123.404000   47.619100  -28.507000
  H    -122.930000   47.148000  -29.386400
  H    -123.312000   48.698300  -28.672100
  H    -124.451000   47.460600  -28.658200
  H    -116.703000   46.291500  -30.406400
  H    -121.442000   51.832000  -26.041500

 Total Charge           Charge          ....    0
 Multiplicity           Mult            ....    1
 Number of Electrons    NEL             ....  134
 Basis Dimension        Dim             ....  322

ORBITAL ENERGIES
----------------

  NO   OCC          E(Eh)            E(eV)
   0   2.0000     -88.971299     -2421.0321
   1   2.0000     -88.968824     -2420.9648
   2   2.0000     -10.332844      -281.1710
   3   2.0000     -10.331710      -281.1401
   4   2.0000     -10.326692      -281.0036
   5   2.0000     -10.310682      -280.5679
   6   2.0000     -10.304999      -280.4133
   7   2.0000     -10.301879      -280.3284
   8   2.0000     -10.301621      -280.3214
   9   2.0000     -10.299513      -280.2640
  10   2.0000     -10.294291      -280.1219
  11   2.0000     -10.279245      -279.7125
  12   2.0000     -10.278542      -279.6933
  13   2.0000     -10.277764      -279.6722
  14   2.0000     -10.274032      -279.5706
  15   2.0000     -10.269004      -279.4338
  16   2.0000      -8.086217      -220.0372
  17   2.0000      -8.081970      -219.9216
  18   2.0000      -6.044495      -164.4791
  19   2.0000      -6.040664      -164.3748
  20   2.0000      -6.040661      -164.3747
  21   2.0000      -6.037252      -164.2820
  22   2.0000      -6.036637      -164.2653
  23   2.0000      -6.032688      -164.1578
  24   2.0000      -1.002477       -27.2788
  25   2.0000      -0.978373       -26.6229
  26   2.0000      -0.924177       -25.1481
  27   2.0000      -0.917097       -24.9555
  28   2.0000      -0.863587       -23.4994
  29   2.0000      -0.850572       -23.1452
  30   2.0000      -0.843061       -22.9409
  31   2.0000      -0.809906       -22.0387
  32   2.0000      -0.786648       -21.4058
  33   2.0000      -0.772099       -21.0099
  34   2.0000      -0.709512       -19.3068
  35   2.0000      -0.697437       -18.9782
  36   2.0000      -0.685878       -18.6637
  37   2.0000      -0.659661       -17.9503
  38   2.0000      -0.634314       -17.2606
  39   2.0000      -0.617357       -16.7991
  40   2.0000      -0.601848       -16.3771
  41   2.0000      -0.566651       -15.4193
  42   2.0000      -0.561876       -15.2894
  43   2.0000      -0.559483       -15.2243
  44   2.0000      -0.546654       -14.8752
  45   2.0000      -0.544161       -14.8074
  46   2.0000      -0.515313       -14.0224
  47   2.0000      -0.506494       -13.7824
  48   2.0000      -0.498114       -13.5544
  49   2.0000      -0.493307       -13.4236
  50   2.0000      -0.487996       -13.2791
  51   2.0000      -0.475112       -12.9284
  52   2.0000      -0.468104       -12.7378
  53   2.0000      -0.461671       -12.5627
  54   2.0000      -0.459401       -12.5009
  55   2.0000      -0.448659       -12.2086
  56   2.0000      -0.442578       -12.0432
  57   2.0000      -0.439464       -11.9584
  58   2.0000      -0.437401       -11.9023
  59   2.0000      -0.425880       -11.5888
  60   2.0000      -0.419468       -11.4143
  61   2.0000      -0.414812       -11.2876
  62   2.0000      -0.407290       -11.0829
  63   2.0000      -0.341375        -9.2893
  64   2.0000      -0.334209        -9.0943
  65   2.0000      -0.325888        -8.8679
  66   2.0000      -0.288597        -7.8531
  67   0.0000       0.029260         0.7962
  68   0.0000       0.066760         1.8166
  69   0.0000       0.103287         2.8106
  70   0.0000       0.122519         3.3339
  71   0.0000       0.131266         3.5719

MULLIKEN ATOMIC CHARGES
-----------------------
   0 S :    0.140935
   1 C :   -0.118713
   2 C :   -0.117923
   3 C :    0.010331
   4 C :   -0.164201
   5 H :    0.029926
   6 C :    0.093171
   7 H :    0.011900
   8 H :    0.050341
   9 C :   -0.065626
  10 H :    0.019543
  11 H :    0.020844
  12 C :   -0.058222
  13 H :    0.029372
  14 H :    0.033834
  15 H :    0.045239
  16 S :    0.111139
  17 C :   -0.108143
  18 C :   -0.052257
  19 C :   -0.039304
  20 C :   -0.157522
  21 H :    0.040292
  22 C :    0.054140
  23 H :    0.036434
  24 H :    0.001722
  25 C :   -0.023309
  26 H :    0.018091
  27 H :    0.023985
  28 C :   -0.055364
  29 H :    0.024305
  30 H :    0.036604
  31 H :    0.020060
  32 H :    0.034966
  33 H :    0.073408
Sum of atomic charges:   -0.0000000

LOEWDIN ATOMIC CHARGES
----------------------
   0 S :    0.442830
   1 C :   -0.204094
   2 C :   -0.059126
   3 C :   -0.072535
   4 C :   -0.210496
   5 H :    0.035610
   6 C :   -0.025612
   7 H :    0.027430
   8 H :    0.035487
   9 C :   -0.042737
  10 H :    0.019953
  11 H :    0.019369
  12 C :   -0.060798
  13 H :    0.025119
  14 H :    0.026394
  15 H :    0.027731
  16 S :    0.390975
  17 C :   -0.185603
  18 C :   -0.073247
  19 C :   -0.059554
  20 C :   -0.198070
  21 H :    0.038979
  22 C :   -0.051376
  23 H :    0.042643
  24 H :    0.025241
  25 C :   -0.036371
  26 H :    0.019129
  27 H :    0.028574
  28 C :   -0.066134
  29 H :    0.027318
  30 H :    0.027672
  31 H :    0.022428
  32 H :    0.021191
  33 H :    0.041679

  Mayer bond orders larger than 0.100000
B(  0-S ,  1-C ) :   1.1554 B(  0-S ,  4-C ) :   1.1801 B(  1-C ,  2-C ) :   1.5966
B(  1-C , 32-H ) :   0.9688 B(  2-C ,  3-C ) :   1.2664 B(  2-C ,  6-C ) :   1.0017
B(  3-C ,  4-C ) :   1.5314 B(  3-C ,  5-H ) :   0.9855 B(  4-C , 20-C ) :   1.0281
B(  6-C ,  7-H ) :   0.9405 B(  6-C ,  8-H ) :   0.9450 B(  6-C ,  9-C ) :   1.0733
B(  9-C , 10-H ) :   0.9497 B(  9-C , 11-H ) :   0.9565 B(  9-C , 12-C ) :   1.0879
B( 12-C , 13-H ) :   0.9724 B( 12-C , 14-H ) :   0.9764 B( 12-C , 15-H ) :   0.9669
B( 16-S , 17-C ) :   1.1436 B( 16-S , 20-C ) :   1.1331 B( 17-C , 18-C ) :   1.6141
B( 17-C , 20-C ) :   0.1000 B( 17-C , 33-H ) :   0.9607 B( 18-C , 19-C ) :   1.2420
B( 18-C , 21-H ) :   0.9750 B( 19-C , 20-C ) :   1.5656 B( 19-C , 22-C ) :   1.0703
B( 22-C , 23-H ) :   0.9153 B( 22-C , 24-H ) :   0.9228 B( 22-C , 25-C ) :   1.0881
B( 25-C , 26-H ) :   0.9469 B( 25-C , 27-H ) :   0.9469 B( 25-C , 28-C ) :   1.0873
B( 28-C , 29-H ) :   0.9708 B( 28-C , 30-H ) :   0.9702 B( 28-C , 31-H ) :   0.9710

Dispersion correction           -0.015298971
FINAL SINGLE POINT ENERGY     -1339.879422565045

DIPOLE MOMENT
-------------
                                X             Y             Z
Electronic contribution:     13.13281      10.05316      14.91879
Nuclear contribution   :    -13.45321     -10.29548     -15.21832
                        -----------------------------------------
Total Dipole Moment    :     -0.32040      -0.24232      -0.29953
                        -----------------------------------------
Magnitude (a.u.)       :      0.50109
Magnitude (Debye)      :      1.27368

Rotational constants in cm-1:     0.020289     0.008429     0.007829
Rotational constants in MHz :   608.245695   252.704310   234.700945

                             ****ORCA TERMINATED NORMALLY****
TOTAL RUN TIME: 0 days 0 hours 0 minutes 22 seconds 204 msec
