                         Program Version 4.2.1 -  RELEASE  -
|  1> ! wB97X-D3 SP def2-SVP
|  2> %pal
|  3> nprocs 24
|  4> end
|  5>
|  6> * xyz 0 1
|  7> S 	 -43.0701 	 -50.0999 	 -70.5253
|  8> C 	 -41.3852 	 -49.7762 	 -70.2258
|  9> C 	 -40.6634 	 -50.9293 	 -69.9192
| 10> C 	 -41.4932 	 -52.0615 	 -69.9836
| 11> C 	 -42.8483 	 -51.7877 	 -70.1663
| 12> H 	 -41.2607 	 -53.1336 	 -69.9556
| 13> C 	 -39.1953 	 -51.0061 	 -69.5226
| 14> H 	 -38.5685 	 -50.8625 	 -70.4051
| 15> H 	 -39.0742 	 -51.9821 	 -69.1737
| 16> C 	 -38.6269 	 -50.0709 	 -68.4338
| 17> H 	 -38.3803 	 -49.05 	 -68.7914
| 18> H 	 -39.3267 	 -49.9055 	 -67.6073
| 19> C 	 -37.3073 	 -50.6214 	 -67.8705
| 20> H 	 -37.586 	 -51.528 	 -67.3712
| 21> H 	 -36.5482 	 -50.7498 	 -68.5898
| 22> H 	 -36.9599 	 -49.876 	 -67.1428
| 23> S 	 -44.8785 	 -52.84 	 -71.7778
| 24> C 	 -45.6974 	 -54.2965 	 -71.2908
| 25> C 	 -45.3226 	 -54.7434 	 -70.0288
| 26> C 	 -44.2197 	 -53.9608 	 -69.5336
| 27> C 	 -43.9054 	 -52.8301 	 -70.2729
| 28> H 	 -45.8302 	 -55.6684 	 -69.698
| 29> C 	 -43.6029 	 -54.2418 	 -68.1951
| 30> H 	 -44.3441 	 -54.1497 	 -67.3921
| 31> H 	 -42.776 	 -53.5195 	 -68.0571
| 32> C 	 -43.0296 	 -55.6489 	 -68.088
| 33> H 	 -42.3026 	 -55.8444 	 -68.8453
| 34> H 	 -43.8089 	 -56.4133 	 -68.2776
| 35> C 	 -42.4701 	 -55.9648 	 -66.7015
| 36> H 	 -41.9968 	 -56.9202 	 -66.667
| 37> H 	 -43.2293 	 -56.0824 	 -65.8697
| 38> H 	 -41.6957 	 -55.2439 	 -66.3254
| 39> H 	 -40.963 	 -48.7592 	 -70.2855
| 40> H 	 -46.5193 	 -54.7343 	 -71.9051
| 41> *
| 42>
| 43>                          ****END OF INPUT****

CARTESIAN COORDINATES (ANGSTROEM)
---------------------------------
  S    -43.070100  -50.099900  -70.525300
  C    -41.385200  -49.776200  -70.225800
  C    -40.663400  -50.929300  -69.919200
  C    -41.493200  -52.061500  -69.983600
  C    -42.848300  -51.787700  -70.166300
  H    -41.260700  -53.133600  -69.955600
  C    -39.195300  -51.006100  -69.522600
  H    -38.568500  -50.862500  -70.405100
  H    -39.074200  -51.982100  -69.173700
  C    -38.626900  -50.070900  -68.433800
  H    -38.380300  -49.050000  -68.791400
  H    -39.326700  -49.905500  -67.607300
  C    -37.307300  -50.621400  -67.870500
  H    -37.586000  -51.528000  -67.371200
  H    -36.548200  -50.749800  -68.589800
  H    -36.959900  -49.876000  -67.142800
  S    -44.878500  -52.840000  -71.777800
  C    -45.697400  -54.296500  -71.290800
  C    -45.322600  -54.743400  -70.028800
  C    -44.219700  -53.960800  -69.533600
  C    -43.905400  -52.830100  -70.272900
  H    -45.830200  -55.668400  -69.698000
  C    -43.602900  -54.241800  -68.195100
  H    -44.344100  -54.149700  -67.392100
  H    -42.776000  -53.519500  -68.057100
  C    -43.029600  -55.648900  -68.088000
  H    -42.302600  -55.844400  -68.845300
  H    -43.808900  -56.413300  -68.277600
  C    -42.470100  -55.964800  -66.701500
  H    -41.996800  -56.920200  -66.667000
  H    -43.229300  -56.082400  -65.869700
  H    -41.695700  -55.243900  -66.325400
  H    -40.963000  -48.759200  -70.285500
  H    -46.519300  -54.734300  -71.905100

 Total Charge           Charge          ....    0
 Multiplicity           Mult            ....    1
 Number of Electrons    NEL             ....  134
 Basis Dimension        Dim             ....  322

ORBITAL ENERGIES
----------------

  NO   OCC          E(Eh)            E(eV)
   0   2.0000     -88.969792     -2420.9911
   1   2.0000     -88.962224     -2420.7852
   2   2.0000     -10.331415      -281.1321
   3   2.0000     -10.331000      -281.1208
   4   2.0000     -10.321670      -280.8669
   5   2.0000     -10.316770      -280.7336
   6   2.0000     -10.306601      -280.4569
   7   2.0000     -10.302930      -280.3570
   8   2.0000     -10.299451      -280.2623
   9   2.0000     -10.294390      -280.1246
  10   2.0000     -10.290048      -280.0065
  11   2.0000     -10.289322      -279.9867
  12   2.0000     -10.287814      -279.9457
  13   2.0000     -10.284859      -279.8652
  14   2.0000     -10.281333      -279.7693
  15   2.0000     -10.275245      -279.6036
  16   2.0000      -8.084578      -219.9926
  17   2.0000      -8.076861      -219.7826
  18   2.0000      -6.042993      -164.4382
  19   2.0000      -6.039033      -164.3304
  20   2.0000      -6.035486      -164.2339
  21   2.0000      -6.035364      -164.2306
  22   2.0000      -6.031351      -164.1214
  23   2.0000      -6.027660      -164.0210
  24   2.0000      -1.004916       -27.3452
  25   2.0000      -0.983578       -26.7645
  26   2.0000      -0.912457       -24.8292
  27   2.0000      -0.909767       -24.7560
  28   2.0000      -0.867085       -23.5946
  29   2.0000      -0.855567       -23.2812
  30   2.0000      -0.846084       -23.0231
  31   2.0000      -0.812511       -22.1096
  32   2.0000      -0.782645       -21.2968
  33   2.0000      -0.769845       -20.9485
  34   2.0000      -0.705003       -19.1841
  35   2.0000      -0.700458       -19.0604
  36   2.0000      -0.689930       -18.7740
  37   2.0000      -0.657526       -17.8922
  38   2.0000      -0.641349       -17.4520
  39   2.0000      -0.615075       -16.7370
  40   2.0000      -0.593803       -16.1582
  41   2.0000      -0.574647       -15.6369
  42   2.0000      -0.570131       -15.5141
  43   2.0000      -0.563557       -15.3352
  44   2.0000      -0.523322       -14.2403
  45   2.0000      -0.521119       -14.1804
  46   2.0000      -0.518047       -14.0968
  47   2.0000      -0.513539       -13.9741
  48   2.0000      -0.507320       -13.8049
  49   2.0000      -0.494132       -13.4460
  50   2.0000      -0.490616       -13.3503
  51   2.0000      -0.477081       -12.9820
  52   2.0000      -0.474121       -12.9015
  53   2.0000      -0.463642       -12.6163
  54   2.0000      -0.460839       -12.5401
  55   2.0000      -0.449477       -12.2309
  56   2.0000      -0.443012       -12.0550
  57   2.0000      -0.435425       -11.8485
  58   2.0000      -0.433259       -11.7896
  59   2.0000      -0.429120       -11.6769
  60   2.0000      -0.420373       -11.4389
  61   2.0000      -0.417745       -11.3674
  62   2.0000      -0.415755       -11.3133
  63   2.0000      -0.345877        -9.4118
  64   2.0000      -0.332771        -9.0552
  65   2.0000      -0.329564        -8.9679
  66   2.0000      -0.291414        -7.9298
  67   0.0000       0.030434         0.8281
  68   0.0000       0.068148         1.8544
  69   0.0000       0.114684         3.1207
  70   0.0000       0.120258         3.2724
  71   0.0000       0.131653         3.5825

MULLIKEN ATOMIC CHARGES
-----------------------
   0 S :    0.122444
   1 C :   -0.137741
   2 C :   -0.076713
   3 C :    0.011637
   4 C :   -0.169467
   5 H :    0.025153
   6 C :    0.121731
   7 H :    0.041131
   8 H :   -0.004380
   9 C :   -0.107055
  10 H :    0.025195
  11 H :    0.033706
  12 C :   -0.038342
  13 H :    0.031029
  14 H :    0.028587
  15 H :    0.035183
  16 S :    0.089043
  17 C :   -0.118496
  18 C :   -0.035416
  19 C :   -0.042002
  20 C :   -0.131264
  21 H :    0.039702
  22 C :    0.073533
  23 H :    0.035615
  24 H :    0.023499
  25 C :   -0.087876
  26 H :    0.020977
  27 H :    0.026343
  28 C :   -0.060251
  29 H :    0.022947
  30 H :    0.033685
  31 H :    0.034085
  32 H :    0.059554
  33 H :    0.074222
Sum of atomic charges:    0.0000000

LOEWDIN ATOMIC CHARGES
----------------------
   0 S :    0.421152
   1 C :   -0.201272
   2 C :   -0.065682
   3 C :   -0.066219
   4 C :   -0.203820
   5 H :    0.036143
   6 C :   -0.026933
   7 H :    0.038215
   8 H :    0.020607
   9 C :   -0.040986
  10 H :    0.020925
  11 H :    0.024358
  12 C :   -0.055376
  13 H :    0.022061
  14 H :    0.017858
  15 H :    0.031092
  16 S :    0.384838
  17 C :   -0.184873
  18 C :   -0.080759
  19 C :   -0.056050
  20 C :   -0.186489
  21 H :    0.041972
  22 C :   -0.031203
  23 H :    0.034600
  24 H :    0.030250
  25 C :   -0.042972
  26 H :    0.019445
  27 H :    0.025390
  28 C :   -0.075008
  29 H :    0.021540
  30 H :    0.029901
  31 H :    0.027457
  32 H :    0.033293
  33 H :    0.036544

  Mayer bond orders larger than 0.100000
B(  0-S ,  1-C ) :   1.1548 B(  0-S ,  4-C ) :   1.1670 B(  1-C ,  2-C ) :   1.5743
B(  1-C ,  4-C ) :   0.1018 B(  1-C , 32-H ) :   0.9695 B(  2-C ,  3-C ) :   1.2712
B(  2-C ,  6-C ) :   1.0168 B(  3-C ,  4-C ) :   1.5488 B(  3-C ,  5-H ) :   0.9864
B(  4-C , 20-C ) :   1.0269 B(  6-C ,  7-H ) :   0.9264 B(  6-C ,  8-H ) :   0.9435
B(  6-C ,  9-C ) :   1.0628 B(  9-C , 10-H ) :   0.9524 B(  9-C , 11-H ) :   0.9613
B(  9-C , 12-C ) :   1.0861 B( 12-C , 13-H ) :   0.9777 B( 12-C , 14-H ) :   0.9770
B( 12-C , 15-H ) :   0.9739 B( 16-S , 17-C ) :   1.1690 B( 16-S , 20-C ) :   1.1181
B( 17-C , 18-C ) :   1.6237 B( 17-C , 33-H ) :   0.9585 B( 18-C , 19-C ) :   1.1977
B( 18-C , 21-H ) :   0.9885 B( 19-C , 20-C ) :   1.6234 B( 19-C , 22-C ) :   1.0558
B( 22-C , 23-H ) :   0.9371 B( 22-C , 24-H ) :   0.9330 B( 22-C , 25-C ) :   1.0567
B( 25-C , 26-H ) :   0.9547 B( 25-C , 27-H ) :   0.9517 B( 25-C , 28-C ) :   1.0896
B( 28-C , 29-H ) :   0.9720 B( 28-C , 30-H ) :   0.9724 B( 28-C , 31-H ) :   0.9735

Dispersion correction           -0.013446421
FINAL SINGLE POINT ENERGY     -1339.887651802678

DIPOLE MOMENT
-------------
                                X             Y             Z
Electronic contribution:    -22.52307       9.97588     -20.88067
Nuclear contribution   :     22.95665     -10.32755      21.20366
                        -----------------------------------------
Total Dipole Moment    :      0.43357      -0.35167       0.32299
                        -----------------------------------------
Magnitude (a.u.)       :      0.64497
Magnitude (Debye)      :      1.63937

Rotational constants in cm-1:     0.017383     0.008448     0.005993
Rotational constants in MHz :   521.117519   253.273961   179.664945

                             ****ORCA TERMINATED NORMALLY****
TOTAL RUN TIME: 0 days 0 hours 0 minutes 21 seconds 193 msec
