                         Program Version 4.2.1 -  RELEASE  -
|  1> ! wB97X-D3 SP def2-SVP
|  2> %pal
|  3> nprocs 24
|  4> end
|  5>
|  6> * xyz 0 1
|  7> S 	 -44.1469 	 -49.6569 	 -70.2278
|  8> C 	 -44.455 	 -51.3092 	 -70.5925
|  9> C 	 -43.6802 	 -52.16 	 -69.9515
| 10> C 	 -42.6684 	 -51.5413 	 -69.1888
| 11> C 	 -42.7997 	 -50.1636 	 -69.1904
| 12> H 	 -41.8961 	 -52.0215 	 -68.6779
| 13> C 	 -43.7636 	 -53.6187 	 -69.8613
| 14> H 	 -43.0097 	 -54.0867 	 -69.1994
| 15> H 	 -43.4497 	 -53.9411 	 -70.8718
| 16> C 	 -45.1486 	 -54.1605 	 -69.4593
| 17> H 	 -45.8399 	 -53.797 	 -70.1795
| 18> H 	 -45.1688 	 -55.2313 	 -69.5137
| 19> C 	 -45.6594 	 -53.7762 	 -68.0124
| 20> H 	 -45.4 	 -52.7326 	 -67.8543
| 21> H 	 -46.6815 	 -53.8774 	 -67.6871
| 22> H 	 -45.1486 	 -54.5252 	 -67.3366
| 23> S 	 -43.1353 	 -48.066 	 -67.6417
| 24> C 	 -41.8187 	 -47.0637 	 -66.995
| 25> C 	 -40.6382 	 -47.6859 	 -67.3531
| 26> C 	 -40.7496 	 -48.914 	 -68.0648
| 27> C 	 -42.105 	 -49.1981 	 -68.4158
| 28> H 	 -39.7116 	 -47.2238 	 -67.1538
| 29> C 	 -39.5138 	 -49.5969 	 -68.4764
| 30> H 	 -39.4665 	 -50.6856 	 -68.3799
| 31> H 	 -38.7324 	 -49.3098 	 -67.7945
| 32> C 	 -39.0094 	 -49.1274 	 -69.8948
| 33> H 	 -39.1348 	 -48.0736 	 -70.0821
| 34> H 	 -39.6228 	 -49.5351 	 -70.6275
| 35> C 	 -37.5766 	 -49.6306 	 -70.252
| 36> H 	 -37.5253 	 -50.7498 	 -70.2634
| 37> H 	 -36.9895 	 -49.1157 	 -69.4602
| 38> H 	 -37.2047 	 -49.2005 	 -71.1831
| 39> H 	 -45.3636 	 -51.5922 	 -71.1467
| 40> H 	 -41.7957 	 -46.0923 	 -66.4929
| 41> *
| 42>
| 43>                          ****END OF INPUT****

CARTESIAN COORDINATES (ANGSTROEM)
---------------------------------
  S    -44.146900  -49.656900  -70.227800
  C    -44.455000  -51.309200  -70.592500
  C    -43.680200  -52.160000  -69.951500
  C    -42.668400  -51.541300  -69.188800
  C    -42.799700  -50.163600  -69.190400
  H    -41.896100  -52.021500  -68.677900
  C    -43.763600  -53.618700  -69.861300
  H    -43.009700  -54.086700  -69.199400
  H    -43.449700  -53.941100  -70.871800
  C    -45.148600  -54.160500  -69.459300
  H    -45.839900  -53.797000  -70.179500
  H    -45.168800  -55.231300  -69.513700
  C    -45.659400  -53.776200  -68.012400
  H    -45.400000  -52.732600  -67.854300
  H    -46.681500  -53.877400  -67.687100
  H    -45.148600  -54.525200  -67.336600
  S    -43.135300  -48.066000  -67.641700
  C    -41.818700  -47.063700  -66.995000
  C    -40.638200  -47.685900  -67.353100
  C    -40.749600  -48.914000  -68.064800
  C    -42.105000  -49.198100  -68.415800
  H    -39.711600  -47.223800  -67.153800
  C    -39.513800  -49.596900  -68.476400
  H    -39.466500  -50.685600  -68.379900
  H    -38.732400  -49.309800  -67.794500
  C    -39.009400  -49.127400  -69.894800
  H    -39.134800  -48.073600  -70.082100
  H    -39.622800  -49.535100  -70.627500
  C    -37.576600  -49.630600  -70.252000
  H    -37.525300  -50.749800  -70.263400
  H    -36.989500  -49.115700  -69.460200
  H    -37.204700  -49.200500  -71.183100
  H    -45.363600  -51.592200  -71.146700
  H    -41.795700  -46.092300  -66.492900

 Total Charge           Charge          ....    0
 Multiplicity           Mult            ....    1
 Number of Electrons    NEL             ....  134
 Basis Dimension        Dim             ....  322

ORBITAL ENERGIES
----------------

  NO   OCC          E(Eh)            E(eV)
   0   2.0000     -88.966294     -2420.8959
   1   2.0000     -88.964699     -2420.8525
   2   2.0000     -10.328772      -281.0602
   3   2.0000     -10.326281      -280.9924
   4   2.0000     -10.317000      -280.7398
   5   2.0000     -10.305928      -280.4386
   6   2.0000     -10.303232      -280.3652
   7   2.0000     -10.292876      -280.0834
   8   2.0000     -10.290282      -280.0128
   9   2.0000     -10.288787      -279.9721
  10   2.0000     -10.288416      -279.9620
  11   2.0000     -10.287806      -279.9454
  12   2.0000     -10.286455      -279.9087
  13   2.0000     -10.283997      -279.8418
  14   2.0000     -10.279765      -279.7266
  15   2.0000     -10.278609      -279.6952
  16   2.0000      -8.081462      -219.9078
  17   2.0000      -8.079338      -219.8500
  18   2.0000      -6.039921      -164.3546
  19   2.0000      -6.037948      -164.3009
  20   2.0000      -6.036041      -164.2490
  21   2.0000      -6.033568      -164.1817
  22   2.0000      -6.032093      -164.1416
  23   2.0000      -6.030241      -164.0912
  24   2.0000      -1.014954       -27.6183
  25   2.0000      -0.988966       -26.9111
  26   2.0000      -0.916351       -24.9352
  27   2.0000      -0.906030       -24.6543
  28   2.0000      -0.874070       -23.7846
  29   2.0000      -0.853297       -23.2194
  30   2.0000      -0.845465       -23.0063
  31   2.0000      -0.815643       -22.1948
  32   2.0000      -0.781341       -21.2614
  33   2.0000      -0.767849       -20.8942
  34   2.0000      -0.713681       -19.4203
  35   2.0000      -0.706886       -19.2353
  36   2.0000      -0.697302       -18.9745
  37   2.0000      -0.667932       -18.1754
  38   2.0000      -0.642925       -17.4949
  39   2.0000      -0.614947       -16.7336
  40   2.0000      -0.597594       -16.2614
  41   2.0000      -0.580341       -15.7919
  42   2.0000      -0.559337       -15.2203
  43   2.0000      -0.556998       -15.1567
  44   2.0000      -0.542341       -14.7578
  45   2.0000      -0.522348       -14.2138
  46   2.0000      -0.516996       -14.0682
  47   2.0000      -0.511586       -13.9210
  48   2.0000      -0.505549       -13.7567
  49   2.0000      -0.501734       -13.6529
  50   2.0000      -0.494940       -13.4680
  51   2.0000      -0.482053       -13.1173
  52   2.0000      -0.473195       -12.8763
  53   2.0000      -0.459819       -12.5123
  54   2.0000      -0.456484       -12.4216
  55   2.0000      -0.452581       -12.3154
  56   2.0000      -0.443896       -12.0790
  57   2.0000      -0.438930       -11.9439
  58   2.0000      -0.435860       -11.8604
  59   2.0000      -0.426941       -11.6177
  60   2.0000      -0.421393       -11.4667
  61   2.0000      -0.409180       -11.1343
  62   2.0000      -0.401114       -10.9149
  63   2.0000      -0.353866        -9.6292
  64   2.0000      -0.332442        -9.0462
  65   2.0000      -0.326826        -8.8934
  66   2.0000      -0.285992        -7.7822
  67   0.0000       0.023043         0.6270
  68   0.0000       0.073645         2.0040
  69   0.0000       0.114651         3.1198
  70   0.0000       0.122364         3.3297
  71   0.0000       0.131211         3.5704

MULLIKEN ATOMIC CHARGES
-----------------------
   0 S :    0.117262
   1 C :   -0.148902
   2 C :   -0.047592
   3 C :    0.038353
   4 C :   -0.143028
   5 H :   -0.014362
   6 C :    0.062369
   7 H :    0.022439
   8 H :    0.041183
   9 C :   -0.058283
  10 H :    0.017385
  11 H :    0.024444
  12 C :   -0.074806
  13 H :    0.048295
  14 H :    0.035992
  15 H :    0.031569
  16 S :    0.099014
  17 C :   -0.089341
  18 C :   -0.038440
  19 C :   -0.008431
  20 C :   -0.150347
  21 H :    0.001496
  22 C :    0.060878
  23 H :    0.024190
  24 H :    0.002603
  25 C :   -0.056294
  26 H :    0.022360
  27 H :    0.013426
  28 C :   -0.067362
  29 H :    0.049868
  30 H :    0.030905
  31 H :    0.037183
  32 H :    0.053287
  33 H :    0.062683
Sum of atomic charges:    0.0000000

LOEWDIN ATOMIC CHARGES
----------------------
   0 S :    0.408128
   1 C :   -0.207014
   2 C :   -0.074750
   3 C :   -0.045510
   4 C :   -0.183987
   5 H :    0.022720
   6 C :   -0.030798
   7 H :    0.030482
   8 H :    0.041828
   9 C :   -0.033770
  10 H :    0.013997
  11 H :    0.020462
  12 C :   -0.072306
  13 H :    0.027515
  14 H :    0.025090
  15 H :    0.030935
  16 S :    0.419837
  17 C :   -0.196435
  18 C :   -0.062872
  19 C :   -0.061641
  20 C :   -0.205077
  21 H :    0.022583
  22 C :   -0.034777
  23 H :    0.030034
  24 H :    0.026984
  25 C :   -0.034375
  26 H :    0.023494
  27 H :    0.013584
  28 C :   -0.069682
  29 H :    0.031228
  30 H :    0.026363
  31 H :    0.026356
  32 H :    0.031569
  33 H :    0.039807

  Mayer bond orders larger than 0.100000
B(  0-S ,  1-C ) :   1.1198 B(  0-S ,  4-C ) :   1.1484 B(  1-C ,  2-C ) :   1.6428
B(  1-C , 32-H ) :   0.9594 B(  2-C ,  3-C ) :   1.2243 B(  2-C ,  6-C ) :   1.0116
B(  3-C ,  4-C ) :   1.5622 B(  3-C ,  5-H ) :   1.0146 B(  4-C , 20-C ) :   1.0782
B(  6-C ,  7-H ) :   0.9480 B(  6-C ,  8-H ) :   0.9262 B(  6-C ,  9-C ) :   1.0757
B(  9-C , 10-H ) :   0.9583 B(  9-C , 11-H ) :   0.9604 B(  9-C , 12-C ) :   1.0538
B( 12-C , 13-H ) :   0.9800 B( 12-C , 14-H ) :   0.9794 B( 12-C , 15-H ) :   0.9778
B( 16-S , 17-C ) :   1.1367 B( 16-S , 20-C ) :   1.1686 B( 17-C , 18-C ) :   1.5943
B( 17-C , 20-C ) :   0.1085 B( 17-C , 33-H ) :   0.9667 B( 18-C , 19-C ) :   1.2761
B( 18-C , 21-H ) :   0.9876 B( 19-C , 20-C ) :   1.5080 B( 19-C , 22-C ) :   1.0751
B( 22-C , 23-H ) :   0.9322 B( 22-C , 24-H ) :   0.9265 B( 22-C , 25-C ) :   1.0456
B( 25-C , 26-H ) :   0.9578 B( 25-C , 27-H ) :   0.9542 B( 25-C , 28-C ) :   1.0736
B( 28-C , 29-H ) :   0.9750 B( 28-C , 30-H ) :   0.9796 B( 28-C , 31-H ) :   0.9740

Dispersion correction           -0.014144840
FINAL SINGLE POINT ENERGY     -1339.858533426680

DIPOLE MOMENT
-------------
                                X             Y             Z
Electronic contribution:    -11.45863      17.15186       2.12729
Nuclear contribution   :     11.80600     -17.52586      -2.17823
                        -----------------------------------------
Total Dipole Moment    :      0.34737      -0.37401      -0.05093
                        -----------------------------------------
Magnitude (a.u.)       :      0.51297
Magnitude (Debye)      :      1.30387

Rotational constants in cm-1:     0.019707     0.008304     0.006882
Rotational constants in MHz :   590.803850   248.962133   206.331107

                             ****ORCA TERMINATED NORMALLY****
TOTAL RUN TIME: 0 days 0 hours 0 minutes 21 seconds 607 msec
