                         Program Version 4.2.1 -  RELEASE  -
|  1> ! wB97X-D3 SP def2-SVP
|  2> %pal
|  3> nprocs 24
|  4> end
|  5>
|  6> * xyz 0 1
|  7> S 	 -80.6932 	 -24.8766 	 -53.1373
|  8> C 	 -79.8549 	 -24.8572 	 -51.634
|  9> C 	 -80.5994 	 -25.5946 	 -50.7156
| 10> C 	 -81.7299 	 -26.2669 	 -51.3124
| 11> C 	 -81.9023 	 -25.9293 	 -52.6367
| 12> H 	 -82.4966 	 -26.9031 	 -50.9452
| 13> C 	 -80.3907 	 -25.6657 	 -49.2083
| 14> H 	 -79.4255 	 -26.0708 	 -49.0203
| 15> H 	 -81.0685 	 -26.3857 	 -48.9398
| 16> C 	 -80.6171 	 -24.3874 	 -48.3011
| 17> H 	 -80.1008 	 -23.5035 	 -48.7471
| 18> H 	 -81.6804 	 -24.1933 	 -48.4787
| 19> C 	 -80.2029 	 -24.3623 	 -46.8562
| 20> H 	 -79.0613 	 -24.3464 	 -46.8643
| 21> H 	 -80.5026 	 -23.4753 	 -46.3614
| 22> H 	 -80.6016 	 -25.2594 	 -46.3561
| 23> S 	 -83.7063 	 -25.3772 	 -54.6123
| 24> C 	 -84.3892 	 -26.6191 	 -55.4949
| 25> C 	 -84.1068 	 -27.8345 	 -54.9827
| 26> C 	 -83.1607 	 -27.8511 	 -53.9442
| 27> C 	 -82.907 	 -26.5291 	 -53.5057
| 28> H 	 -84.5682 	 -28.6701 	 -55.4808
| 29> C 	 -82.4407 	 -29.059 	 -53.4314
| 30> H 	 -83.1766 	 -29.8537 	 -53.1581
| 31> H 	 -82.051 	 -28.7744 	 -52.487
| 32> C 	 -81.2716 	 -29.5857 	 -54.2663
| 33> H 	 -81.6997 	 -29.7282 	 -55.2349
| 34> H 	 -80.9398 	 -30.5241 	 -53.8598
| 35> C 	 -80.1669 	 -28.5133 	 -54.2797
| 36> H 	 -79.723 	 -28.4162 	 -53.2509
| 37> H 	 -80.5392 	 -27.6009 	 -54.7159
| 38> H 	 -79.3111 	 -28.617 	 -54.9626
| 39> H 	 -79.0948 	 -24.1308 	 -51.2845
| 40> H 	 -85.0125 	 -26.4418 	 -56.3556
| 41> *
| 42>
| 43>                          ****END OF INPUT****

CARTESIAN COORDINATES (ANGSTROEM)
---------------------------------
  S    -80.693200  -24.876600  -53.137300
  C    -79.854900  -24.857200  -51.634000
  C    -80.599400  -25.594600  -50.715600
  C    -81.729900  -26.266900  -51.312400
  C    -81.902300  -25.929300  -52.636700
  H    -82.496600  -26.903100  -50.945200
  C    -80.390700  -25.665700  -49.208300
  H    -79.425500  -26.070800  -49.020300
  H    -81.068500  -26.385700  -48.939800
  C    -80.617100  -24.387400  -48.301100
  H    -80.100800  -23.503500  -48.747100
  H    -81.680400  -24.193300  -48.478700
  C    -80.202900  -24.362300  -46.856200
  H    -79.061300  -24.346400  -46.864300
  H    -80.502600  -23.475300  -46.361400
  H    -80.601600  -25.259400  -46.356100
  S    -83.706300  -25.377200  -54.612300
  C    -84.389200  -26.619100  -55.494900
  C    -84.106800  -27.834500  -54.982700
  C    -83.160700  -27.851100  -53.944200
  C    -82.907000  -26.529100  -53.505700
  H    -84.568200  -28.670100  -55.480800
  C    -82.440700  -29.059000  -53.431400
  H    -83.176600  -29.853700  -53.158100
  H    -82.051000  -28.774400  -52.487000
  C    -81.271600  -29.585700  -54.266300
  H    -81.699700  -29.728200  -55.234900
  H    -80.939800  -30.524100  -53.859800
  C    -80.166900  -28.513300  -54.279700
  H    -79.723000  -28.416200  -53.250900
  H    -80.539200  -27.600900  -54.715900
  H    -79.311100  -28.617000  -54.962600
  H    -79.094800  -24.130800  -51.284500
  H    -85.012500  -26.441800  -56.355600

 Total Charge           Charge          ....    0
 Multiplicity           Mult            ....    1
 Number of Electrons    NEL             ....  134
 Basis Dimension        Dim             ....  322

ORBITAL ENERGIES
----------------

  NO   OCC          E(Eh)            E(eV)
   0   2.0000     -88.965656     -2420.8786
   1   2.0000     -88.963306     -2420.8146
   2   2.0000     -10.328504      -281.0529
   3   2.0000     -10.320613      -280.8382
   4   2.0000     -10.313399      -280.6419
   5   2.0000     -10.309358      -280.5319
   6   2.0000     -10.307286      -280.4755
   7   2.0000     -10.304554      -280.4012
   8   2.0000     -10.288361      -279.9605
   9   2.0000     -10.287658      -279.9414
  10   2.0000     -10.286499      -279.9099
  11   2.0000     -10.286385      -279.9068
  12   2.0000     -10.283633      -279.8319
  13   2.0000     -10.283060      -279.8163
  14   2.0000     -10.282823      -279.8098
  15   2.0000     -10.272392      -279.5260
  16   2.0000      -8.081633      -219.9124
  17   2.0000      -8.079439      -219.8527
  18   2.0000      -6.040044      -164.3580
  19   2.0000      -6.037605      -164.2916
  20   2.0000      -6.035752      -164.2412
  21   2.0000      -6.033697      -164.1853
  22   2.0000      -6.032579      -164.1548
  23   2.0000      -6.030522      -164.0988
  24   2.0000      -1.016087       -27.6491
  25   2.0000      -0.994627       -27.0652
  26   2.0000      -0.914811       -24.8933
  27   2.0000      -0.907816       -24.7029
  28   2.0000      -0.872301       -23.7365
  29   2.0000      -0.854370       -23.2486
  30   2.0000      -0.848182       -23.0802
  31   2.0000      -0.815277       -22.1848
  32   2.0000      -0.785582       -21.3768
  33   2.0000      -0.773784       -21.0557
  34   2.0000      -0.708126       -19.2691
  35   2.0000      -0.700297       -19.0561
  36   2.0000      -0.694285       -18.8925
  37   2.0000      -0.656809       -17.8727
  38   2.0000      -0.643348       -17.5064
  39   2.0000      -0.616034       -16.7631
  40   2.0000      -0.600879       -16.3507
  41   2.0000      -0.571433       -15.5495
  42   2.0000      -0.561303       -15.2738
  43   2.0000      -0.554497       -15.0886
  44   2.0000      -0.547197       -14.8900
  45   2.0000      -0.526194       -14.3185
  46   2.0000      -0.516480       -14.0541
  47   2.0000      -0.514468       -13.9994
  48   2.0000      -0.505476       -13.7547
  49   2.0000      -0.500503       -13.6194
  50   2.0000      -0.489668       -13.3245
  51   2.0000      -0.481656       -13.1065
  52   2.0000      -0.476664       -12.9707
  53   2.0000      -0.465921       -12.6784
  54   2.0000      -0.459723       -12.5097
  55   2.0000      -0.448617       -12.2075
  56   2.0000      -0.441765       -12.0210
  57   2.0000      -0.432900       -11.7798
  58   2.0000      -0.427853       -11.6425
  59   2.0000      -0.424161       -11.5420
  60   2.0000      -0.417784       -11.3685
  61   2.0000      -0.412192       -11.2163
  62   2.0000      -0.409413       -11.1407
  63   2.0000      -0.346161        -9.4195
  64   2.0000      -0.333804        -9.0833
  65   2.0000      -0.327405        -8.9092
  66   2.0000      -0.295136        -8.0311
  67   0.0000       0.030987         0.8432
  68   0.0000       0.072387         1.9698
  69   0.0000       0.119352         3.2477
  70   0.0000       0.122759         3.3405
  71   0.0000       0.130467         3.5502

MULLIKEN ATOMIC CHARGES
-----------------------
   0 S :    0.128722
   1 C :   -0.120652
   2 C :   -0.130461
   3 C :    0.026023
   4 C :   -0.134043
   5 H :    0.005984
   6 C :    0.138662
   7 H :    0.015447
   8 H :   -0.009045
   9 C :   -0.104918
  10 H :    0.021046
  11 H :    0.028005
  12 C :   -0.032395
  13 H :    0.037126
  14 H :    0.036577
  15 H :    0.038020
  16 S :    0.102351
  17 C :   -0.083148
  18 C :   -0.031392
  19 C :   -0.046819
  20 C :   -0.192957
  21 H :    0.009270
  22 C :    0.083570
  23 H :    0.031839
  24 H :   -0.013977
  25 C :   -0.001017
  26 H :    0.017284
  27 H :    0.028768
  28 C :   -0.070920
  29 H :    0.045869
  30 H :    0.031974
  31 H :    0.024357
  32 H :    0.066120
  33 H :    0.054729
Sum of atomic charges:    0.0000000

LOEWDIN ATOMIC CHARGES
----------------------
   0 S :    0.456020
   1 C :   -0.222880
   2 C :   -0.056572
   3 C :   -0.071997
   4 C :   -0.223026
   5 H :    0.027744
   6 C :   -0.026316
   7 H :    0.024587
   8 H :    0.017416
   9 C :   -0.047338
  10 H :    0.022554
  11 H :    0.022710
  12 C :   -0.063566
  13 H :    0.034363
  14 H :    0.025200
  15 H :    0.026452
  16 S :    0.423810
  17 C :   -0.199818
  18 C :   -0.080807
  19 C :   -0.045791
  20 C :   -0.190557
  21 H :    0.030409
  22 C :   -0.034225
  23 H :    0.035833
  24 H :    0.020314
  25 C :   -0.026728
  26 H :    0.019216
  27 H :    0.023259
  28 C :   -0.072824
  29 H :    0.033943
  30 H :    0.022918
  31 H :    0.025473
  32 H :    0.040678
  33 H :    0.029547

  Mayer bond orders larger than 0.100000
B(  0-S ,  1-C ) :   1.1480 B(  0-S ,  4-C ) :   1.1839 B(  1-C ,  2-C ) :   1.5806
B(  1-C , 32-H ) :   0.9665 B(  2-C ,  3-C ) :   1.2474 B(  2-C ,  6-C ) :   1.0258
B(  3-C ,  4-C ) :   1.5550 B(  3-C ,  5-H ) :   0.9976 B(  4-C , 20-C ) :   1.0314
B(  6-C ,  7-H ) :   0.9329 B(  6-C ,  8-H ) :   0.9335 B(  6-C ,  9-C ) :   1.0463
B(  9-C , 10-H ) :   0.9599 B(  9-C , 11-H ) :   0.9567 B(  9-C , 12-C ) :   1.0848
B( 12-C , 13-H ) :   0.9723 B( 12-C , 14-H ) :   0.9706 B( 12-C , 15-H ) :   0.9762
B( 16-S , 17-C ) :   1.1845 B( 16-S , 20-C ) :   1.1481 B( 17-C , 18-C ) :   1.5931
B( 17-C , 33-H ) :   0.9653 B( 18-C , 19-C ) :   1.2508 B( 18-C , 21-H ) :   0.9958
B( 19-C , 20-C ) :   1.5538 B( 19-C , 22-C ) :   1.0478 B( 22-C , 23-H ) :   0.9272
B( 22-C , 24-H ) :   0.9202 B( 22-C , 25-C ) :   1.0635 B( 25-C , 26-H ) :   0.9567
B( 25-C , 27-H ) :   0.9553 B( 25-C , 28-C ) :   1.0720 B( 28-C , 29-H ) :   0.9742
B( 28-C , 30-H ) :   0.9701 B( 28-C , 31-H ) :   0.9728

Dispersion correction           -0.015425301
FINAL SINGLE POINT ENERGY     -1339.867190566679

DIPOLE MOMENT
-------------
                                X             Y             Z
Electronic contribution:    -10.44861       9.15983     -18.30873
Nuclear contribution   :     10.44395      -9.46842      18.52774
                        -----------------------------------------
Total Dipole Moment    :     -0.00466      -0.30859       0.21900
                        -----------------------------------------
Magnitude (a.u.)       :      0.37843
Magnitude (Debye)      :      0.96190

Rotational constants in cm-1:     0.023871     0.007581     0.006890
Rotational constants in MHz :   715.628473   227.276867   206.566036

                             ****ORCA TERMINATED NORMALLY****
TOTAL RUN TIME: 0 days 0 hours 0 minutes 22 seconds 164 msec
