                         Program Version 4.2.1 -  RELEASE  -
|  1> ! wB97X-D3 SP def2-SVP
|  2> %pal
|  3> nprocs 24
|  4> end
|  5>
|  6> * xyz 0 1
|  7> S 	 24.4526 	 -7.26483 	 -119.607
|  8> C 	 24.4573 	 -7.12913 	 -121.326
|  9> C 	 25.6468 	 -6.63971 	 -121.904
| 10> C 	 26.6015 	 -6.34609 	 -120.892
| 11> C 	 26.1706 	 -6.63847 	 -119.623
| 12> H 	 27.534 	 -5.91779 	 -121.205
| 13> C 	 25.9013 	 -6.55773 	 -123.451
| 14> H 	 27.0164 	 -6.42949 	 -123.566
| 15> H 	 25.3913 	 -5.67218 	 -123.753
| 16> C 	 25.4899 	 -7.74651 	 -124.369
| 17> H 	 24.3948 	 -8.05086 	 -124.195
| 18> H 	 25.6246 	 -7.49589 	 -125.407
| 19> C 	 26.4966 	 -8.86819 	 -124.094
| 20> H 	 26.5518 	 -9.10274 	 -123.017
| 21> H 	 26.1496 	 -9.80947 	 -124.54
| 22> H 	 27.471 	 -8.67755 	 -124.587
| 23> S 	 26.7984 	 -5.20162 	 -117.375
| 24> C 	 28.029 	 -5.85231 	 -116.251
| 25> C 	 28.5573 	 -7.00959 	 -116.768
| 26> C 	 27.9101 	 -7.49516 	 -117.905
| 27> C 	 26.9035 	 -6.57021 	 -118.381
| 28> H 	 29.3805 	 -7.37893 	 -116.2
| 29> C 	 28.3768 	 -8.76969 	 -118.628
| 30> H 	 29.4155 	 -8.77343 	 -118.832
| 31> H 	 27.9414 	 -8.58066 	 -119.628
| 32> C 	 27.8496 	 -10.075 	 -118.021
| 33> H 	 26.8558 	 -9.88984 	 -117.714
| 34> H 	 28.4298 	 -10.3291 	 -117.135
| 35> C 	 27.9258 	 -11.3191 	 -118.868
| 36> H 	 27.4815 	 -11.1936 	 -119.905
| 37> H 	 27.3673 	 -12.1354 	 -118.377
| 38> H 	 28.9187 	 -11.7184 	 -119.16
| 39> H 	 23.6666 	 -7.34979 	 -121.98
| 40> H 	 28.3984 	 -5.21177 	 -115.504
| 41> *
| 42>
| 43>                          ****END OF INPUT****

CARTESIAN COORDINATES (ANGSTROEM)
---------------------------------
  S     24.452600   -7.264830  -119.607000
  C     24.457300   -7.129130  -121.326000
  C     25.646800   -6.639710  -121.904000
  C     26.601500   -6.346090  -120.892000
  C     26.170600   -6.638470  -119.623000
  H     27.534000   -5.917790  -121.205000
  C     25.901300   -6.557730  -123.451000
  H     27.016400   -6.429490  -123.566000
  H     25.391300   -5.672180  -123.753000
  C     25.489900   -7.746510  -124.369000
  H     24.394800   -8.050860  -124.195000
  H     25.624600   -7.495890  -125.407000
  C     26.496600   -8.868190  -124.094000
  H     26.551800   -9.102740  -123.017000
  H     26.149600   -9.809470  -124.540000
  H     27.471000   -8.677550  -124.587000
  S     26.798400   -5.201620  -117.375000
  C     28.029000   -5.852310  -116.251000
  C     28.557300   -7.009590  -116.768000
  C     27.910100   -7.495160  -117.905000
  C     26.903500   -6.570210  -118.381000
  H     29.380500   -7.378930  -116.200000
  C     28.376800   -8.769690  -118.628000
  H     29.415500   -8.773430  -118.832000
  H     27.941400   -8.580660  -119.628000
  C     27.849600  -10.075000  -118.021000
  H     26.855800   -9.889840  -117.714000
  H     28.429800  -10.329100  -117.135000
  C     27.925800  -11.319100  -118.868000
  H     27.481500  -11.193600  -119.905000
  H     27.367300  -12.135400  -118.377000
  H     28.918700  -11.718400  -119.160000
  H     23.666600   -7.349790  -121.980000
  H     28.398400   -5.211770  -115.504000

 Total Charge           Charge          ....    0
 Multiplicity           Mult            ....    1
 Number of Electrons    NEL             ....  134
 Basis Dimension        Dim             ....  322

ORBITAL ENERGIES
----------------

  NO   OCC          E(Eh)            E(eV)
   0   2.0000     -88.970052     -2420.9982
   1   2.0000     -88.964264     -2420.8407
   2   2.0000     -10.331755      -281.1413
   3   2.0000     -10.325043      -280.9587
   4   2.0000     -10.312979      -280.6304
   5   2.0000     -10.310551      -280.5644
   6   2.0000     -10.304742      -280.4063
   7   2.0000     -10.302306      -280.3400
   8   2.0000     -10.300052      -280.2787
   9   2.0000     -10.297485      -280.2088
  10   2.0000     -10.296938      -280.1939
  11   2.0000     -10.289012      -279.9782
  12   2.0000     -10.284898      -279.8663
  13   2.0000     -10.279544      -279.7206
  14   2.0000     -10.279472      -279.7186
  15   2.0000     -10.278474      -279.6915
  16   2.0000      -8.083842      -219.9725
  17   2.0000      -8.079311      -219.8492
  18   2.0000      -6.042229      -164.4174
  19   2.0000      -6.038658      -164.3202
  20   2.0000      -6.037497      -164.2887
  21   2.0000      -6.034621      -164.2104
  22   2.0000      -6.033652      -164.1840
  23   2.0000      -6.030523      -164.0989
  24   2.0000      -1.002372       -27.2759
  25   2.0000      -0.979465       -26.6526
  26   2.0000      -0.906598       -24.6698
  27   2.0000      -0.904490       -24.6124
  28   2.0000      -0.870099       -23.6766
  29   2.0000      -0.851966       -23.1832
  30   2.0000      -0.847290       -23.0559
  31   2.0000      -0.812760       -22.1163
  32   2.0000      -0.779152       -21.2018
  33   2.0000      -0.764238       -20.7960
  34   2.0000      -0.706236       -19.2177
  35   2.0000      -0.699704       -19.0399
  36   2.0000      -0.695489       -18.9252
  37   2.0000      -0.657367       -17.8879
  38   2.0000      -0.637563       -17.3490
  39   2.0000      -0.619000       -16.8438
  40   2.0000      -0.593830       -16.1589
  41   2.0000      -0.572880       -15.5889
  42   2.0000      -0.562917       -15.3177
  43   2.0000      -0.556353       -15.1391
  44   2.0000      -0.544951       -14.8289
  45   2.0000      -0.524872       -14.2825
  46   2.0000      -0.514257       -13.9937
  47   2.0000      -0.506113       -13.7720
  48   2.0000      -0.499133       -13.5821
  49   2.0000      -0.493788       -13.4367
  50   2.0000      -0.489154       -13.3106
  51   2.0000      -0.472688       -12.8625
  52   2.0000      -0.466333       -12.6896
  53   2.0000      -0.460752       -12.5377
  54   2.0000      -0.457437       -12.4475
  55   2.0000      -0.448678       -12.2092
  56   2.0000      -0.436517       -11.8782
  57   2.0000      -0.434611       -11.8264
  58   2.0000      -0.432513       -11.7693
  59   2.0000      -0.429620       -11.6905
  60   2.0000      -0.423778       -11.5316
  61   2.0000      -0.415551       -11.3077
  62   2.0000      -0.406505       -11.0616
  63   2.0000      -0.344536        -9.3753
  64   2.0000      -0.336365        -9.1530
  65   2.0000      -0.311435        -8.4746
  66   2.0000      -0.302211        -8.2236
  67   0.0000       0.040139         1.0922
  68   0.0000       0.047308         1.2873
  69   0.0000       0.107202         2.9171
  70   0.0000       0.119871         3.2619
  71   0.0000       0.132416         3.6032

MULLIKEN ATOMIC CHARGES
-----------------------
   0 S :    0.124972
   1 C :   -0.085884
   2 C :   -0.141925
   3 C :    0.080626
   4 C :   -0.187590
   5 H :    0.006909
   6 C :    0.061736
   7 H :    0.025014
   8 H :    0.037667
   9 C :   -0.074089
  10 H :    0.045573
  11 H :    0.033133
  12 C :   -0.079465
  13 H :    0.049760
  14 H :    0.025562
  15 H :    0.039886
  16 S :    0.112292
  17 C :   -0.103595
  18 C :   -0.014916
  19 C :   -0.028961
  20 C :   -0.174816
  21 H :    0.014178
  22 C :    0.090404
  23 H :    0.018090
  24 H :    0.016247
  25 C :   -0.020722
  26 H :    0.021325
  27 H :    0.024957
  28 C :   -0.079698
  29 H :    0.028244
  30 H :    0.040367
  31 H :    0.028554
  32 H :    0.018837
  33 H :    0.047329
Sum of atomic charges:    0.0000000

LOEWDIN ATOMIC CHARGES
----------------------
   0 S :    0.393145
   1 C :   -0.196391
   2 C :   -0.067127
   3 C :   -0.046260
   4 C :   -0.179321
   5 H :    0.033030
   6 C :   -0.029715
   7 H :    0.033594
   8 H :    0.026898
   9 C :   -0.042952
  10 H :    0.030312
  11 H :    0.025479
  12 C :   -0.072178
  13 H :    0.029139
  14 H :    0.023586
  15 H :    0.028699
  16 S :    0.421983
  17 C :   -0.170891
  18 C :   -0.066352
  19 C :   -0.050854
  20 C :   -0.229480
  21 H :    0.032173
  22 C :   -0.030616
  23 H :    0.023637
  24 H :    0.033139
  25 C :   -0.038375
  26 H :    0.023198
  27 H :    0.026062
  28 C :   -0.076164
  29 H :    0.026994
  30 H :    0.030523
  31 H :    0.024191
  32 H :    0.013578
  33 H :    0.017314

  Mayer bond orders larger than 0.100000
B(  0-S ,  1-C ) :   1.1543 B(  0-S ,  4-C ) :   1.1249 B(  1-C ,  2-C ) :   1.6148
B(  1-C ,  4-C ) :   0.1012 B(  1-C , 32-H ) :   0.9666 B(  2-C ,  3-C ) :   1.2653
B(  2-C ,  6-C ) :   0.9941 B(  3-C ,  4-C ) :   1.5850 B(  3-C ,  5-H ) :   0.9950
B(  4-C , 20-C ) :   1.0278 B(  6-C ,  7-H ) :   0.9477 B(  6-C ,  8-H ) :   0.9356
B(  6-C ,  9-C ) :   1.0722 B(  9-C , 10-H ) :   0.9556 B(  9-C , 11-H ) :   0.9533
B(  9-C , 12-C ) :   1.0733 B( 12-C , 13-H ) :   0.9781 B( 12-C , 14-H ) :   0.9732
B( 12-C , 15-H ) :   0.9731 B( 16-S , 17-C ) :   1.1608 B( 16-S , 20-C ) :   1.1980
B( 17-C , 18-C ) :   1.5719 B( 17-C , 20-C ) :   0.1146 B( 17-C , 33-H ) :   0.9749
B( 18-C , 19-C ) :   1.2735 B( 18-C , 21-H ) :   0.9987 B( 19-C , 20-C ) :   1.5132
B( 19-C , 22-C ) :   1.0380 B( 22-C , 23-H ) :   0.9393 B( 22-C , 24-H ) :   0.9255
B( 22-C , 25-C ) :   1.0622 B( 25-C , 26-H ) :   0.9511 B( 25-C , 27-H ) :   0.9507
B( 25-C , 28-C ) :   1.0920 B( 28-C , 29-H ) :   0.9725 B( 28-C , 30-H ) :   0.9733
B( 28-C , 31-H ) :   0.9734

Dispersion correction           -0.014603667
FINAL SINGLE POINT ENERGY     -1339.869894391727

DIPOLE MOMENT
-------------
                                X             Y             Z
Electronic contribution:     -8.66174      20.01647      18.51361
Nuclear contribution   :      9.09306     -20.19588     -19.00137
                        -----------------------------------------
Total Dipole Moment    :      0.43133      -0.17941      -0.48777
                        -----------------------------------------
Magnitude (a.u.)       :      0.67539
Magnitude (Debye)      :      1.71670

Rotational constants in cm-1:     0.018174     0.008916     0.007055
Rotational constants in MHz :   544.846646   267.280568   211.513364

                             ****ORCA TERMINATED NORMALLY****
TOTAL RUN TIME: 0 days 0 hours 0 minutes 21 seconds 803 msec
