                         Program Version 4.2.1 -  RELEASE  -
|  1> ! wB97X-D3 SP def2-SVP
|  2> %pal
|  3> nprocs 24
|  4> end
|  5>
|  6> * xyz 0 1
|  7> S 	 -41.4586 	 -4.69637 	 18.5977
|  8> C 	 -43.0126 	 -5.02045 	 17.8106
|  9> C 	 -44.081 	 -4.36351 	 18.3803
| 10> C 	 -43.5943 	 -3.67267 	 19.4875
| 11> C 	 -42.2616 	 -3.77614 	 19.7517
| 12> H 	 -44.2813 	 -3.13592 	 20.0982
| 13> C 	 -45.5652 	 -4.44636 	 17.9704
| 14> H 	 -45.8982 	 -5.28051 	 18.6015
| 15> H 	 -45.4605 	 -4.78209 	 16.9796
| 16> C 	 -46.4708 	 -3.16666 	 18.1665
| 17> H 	 -46.2017 	 -2.75862 	 19.1513
| 18> H 	 -46.1475 	 -2.31664 	 17.5696
| 19> C 	 -47.9363 	 -3.49699 	 17.9452
| 20> H 	 -48.5819 	 -2.66543 	 18.2724
| 21> H 	 -48.1638 	 -3.72055 	 16.8918
| 22> H 	 -48.2477 	 -4.30858 	 18.5864
| 23> S 	 -41.1715 	 -4.33798 	 22.1435
| 24> C 	 -40.874 	 -2.96931 	 23.2456
| 25> C 	 -40.757 	 -1.7599 	 22.5728
| 26> C 	 -41.1493 	 -1.87238 	 21.1656
| 27> C 	 -41.5074 	 -3.16359 	 20.8611
| 28> H 	 -40.3563 	 -0.904693 	 23.098
| 29> C 	 -41.4328 	 -0.705842 	 20.2033
| 30> H 	 -41.484 	 0.191657 	 20.85
| 31> H 	 -42.4684 	 -0.904746 	 19.9107
| 32> C 	 -40.4438 	 -0.431607 	 19.0698
| 33> H 	 -40.7652 	 0.432576 	 18.4211
| 34> H 	 -40.495 	 -1.27757 	 18.3153
| 35> C 	 -39.0336 	 -0.107534 	 19.6372
| 36> H 	 -38.6509 	 -0.936902 	 20.209
| 37> H 	 -39.1049 	 0.808974 	 20.234
| 38> H 	 -38.3727 	 -0.0106808 	 18.8142
| 39> H 	 -43.1085 	 -5.6273 	 16.9188
| 40> H 	 -40.6162 	 -3.13606 	 24.2138
| 41> *
| 42>
| 43>                          ****END OF INPUT****

CARTESIAN COORDINATES (ANGSTROEM)
---------------------------------
  S    -41.458600   -4.696370   18.597700
  C    -43.012600   -5.020450   17.810600
  C    -44.081000   -4.363510   18.380300
  C    -43.594300   -3.672670   19.487500
  C    -42.261600   -3.776140   19.751700
  H    -44.281300   -3.135920   20.098200
  C    -45.565200   -4.446360   17.970400
  H    -45.898200   -5.280510   18.601500
  H    -45.460500   -4.782090   16.979600
  C    -46.470800   -3.166660   18.166500
  H    -46.201700   -2.758620   19.151300
  H    -46.147500   -2.316640   17.569600
  C    -47.936300   -3.496990   17.945200
  H    -48.581900   -2.665430   18.272400
  H    -48.163800   -3.720550   16.891800
  H    -48.247700   -4.308580   18.586400
  S    -41.171500   -4.337980   22.143500
  C    -40.874000   -2.969310   23.245600
  C    -40.757000   -1.759900   22.572800
  C    -41.149300   -1.872380   21.165600
  C    -41.507400   -3.163590   20.861100
  H    -40.356300   -0.904693   23.098000
  C    -41.432800   -0.705842   20.203300
  H    -41.484000    0.191657   20.850000
  H    -42.468400   -0.904746   19.910700
  C    -40.443800   -0.431607   19.069800
  H    -40.765200    0.432576   18.421100
  H    -40.495000   -1.277570   18.315300
  C    -39.033600   -0.107534   19.637200
  H    -38.650900   -0.936902   20.209000
  H    -39.104900    0.808974   20.234000
  H    -38.372700   -0.010681   18.814200
  H    -43.108500   -5.627300   16.918800
  H    -40.616200   -3.136060   24.213800

 Total Charge           Charge          ....    0
 Multiplicity           Mult            ....    1
 Number of Electrons    NEL             ....  134
 Basis Dimension        Dim             ....  322

ORBITAL ENERGIES
----------------

  NO   OCC          E(Eh)            E(eV)
   0   2.0000     -88.966170     -2420.8926
   1   2.0000     -88.960458     -2420.7371
   2   2.0000     -10.322806      -280.8978
   3   2.0000     -10.319244      -280.8009
   4   2.0000     -10.313399      -280.6419
   5   2.0000     -10.308546      -280.5098
   6   2.0000     -10.307233      -280.4741
   7   2.0000     -10.299728      -280.2698
   8   2.0000     -10.296671      -280.1867
   9   2.0000     -10.295792      -280.1627
  10   2.0000     -10.295271      -280.1486
  11   2.0000     -10.292333      -280.0686
  12   2.0000     -10.292078      -280.0617
  13   2.0000     -10.283701      -279.8337
  14   2.0000     -10.280739      -279.7531
  15   2.0000     -10.273039      -279.5436
  16   2.0000      -8.081738      -219.9153
  17   2.0000      -8.074944      -219.7304
  18   2.0000      -6.040056      -164.3583
  19   2.0000      -6.036143      -164.2518
  20   2.0000      -6.033462      -164.1788
  21   2.0000      -6.032651      -164.1568
  22   2.0000      -6.029707      -164.0767
  23   2.0000      -6.025479      -163.9616
  24   2.0000      -1.010636       -27.5008
  25   2.0000      -0.980158       -26.6715
  26   2.0000      -0.910731       -24.7823
  27   2.0000      -0.901801       -24.5393
  28   2.0000      -0.869418       -23.6581
  29   2.0000      -0.848569       -23.0907
  30   2.0000      -0.842507       -22.9258
  31   2.0000      -0.813185       -22.1279
  32   2.0000      -0.784758       -21.3544
  33   2.0000      -0.772321       -21.0159
  34   2.0000      -0.715721       -19.4758
  35   2.0000      -0.697735       -18.9863
  36   2.0000      -0.686677       -18.6854
  37   2.0000      -0.664763       -18.0891
  38   2.0000      -0.638758       -17.3815
  39   2.0000      -0.624674       -16.9983
  40   2.0000      -0.583226       -15.8704
  41   2.0000      -0.568405       -15.4671
  42   2.0000      -0.560205       -15.2439
  43   2.0000      -0.553671       -15.0662
  44   2.0000      -0.544584       -14.8189
  45   2.0000      -0.525902       -14.3105
  46   2.0000      -0.521225       -14.1833
  47   2.0000      -0.507197       -13.8015
  48   2.0000      -0.499272       -13.5859
  49   2.0000      -0.495142       -13.4735
  50   2.0000      -0.481459       -13.1012
  51   2.0000      -0.479886       -13.0584
  52   2.0000      -0.471598       -12.8328
  53   2.0000      -0.464505       -12.6398
  54   2.0000      -0.454594       -12.3701
  55   2.0000      -0.452526       -12.3139
  56   2.0000      -0.441522       -12.0144
  57   2.0000      -0.439241       -11.9523
  58   2.0000      -0.433601       -11.7989
  59   2.0000      -0.427188       -11.6244
  60   2.0000      -0.424540       -11.5523
  61   2.0000      -0.419728       -11.4214
  62   2.0000      -0.408252       -11.1091
  63   2.0000      -0.336617        -9.1598
  64   2.0000      -0.330909        -9.0045
  65   2.0000      -0.321334        -8.7440
  66   2.0000      -0.302555        -8.2329
  67   0.0000       0.045944         1.2502
  68   0.0000       0.057249         1.5578
  69   0.0000       0.108404         2.9498
  70   0.0000       0.121592         3.3087
  71   0.0000       0.126637         3.4460

MULLIKEN ATOMIC CHARGES
-----------------------
   0 S :    0.129260
   1 C :   -0.151732
   2 C :   -0.096050
   3 C :    0.043607
   4 C :   -0.158574
   5 H :   -0.014274
   6 C :    0.101911
   7 H :    0.050700
   8 H :    0.010940
   9 C :   -0.079455
  10 H :    0.024009
  11 H :    0.031364
  12 C :   -0.036687
  13 H :    0.035349
  14 H :    0.044524
  15 H :    0.028030
  16 S :    0.093814
  17 C :   -0.056268
  18 C :   -0.038257
  19 C :   -0.029159
  20 C :   -0.183947
  21 H :    0.024599
  22 C :    0.075302
  23 H :    0.013564
  24 H :    0.034040
  25 C :   -0.091943
  26 H :    0.035065
  27 H :    0.037373
  28 C :   -0.033255
  29 H :    0.041464
  30 H :    0.034859
  31 H :    0.026740
  32 H :    0.033196
  33 H :    0.019895
Sum of atomic charges:   -0.0000000

LOEWDIN ATOMIC CHARGES
----------------------
   0 S :    0.432231
   1 C :   -0.198201
   2 C :   -0.061593
   3 C :   -0.068680
   4 C :   -0.224135
   5 H :    0.021026
   6 C :   -0.021094
   7 H :    0.041721
   8 H :    0.023054
   9 C :   -0.042329
  10 H :    0.023785
  11 H :    0.027225
  12 C :   -0.064883
  13 H :    0.031051
  14 H :    0.030940
  15 H :    0.024733
  16 S :    0.378465
  17 C :   -0.152985
  18 C :   -0.065947
  19 C :   -0.052863
  20 C :   -0.190337
  21 H :    0.032518
  22 C :   -0.035492
  23 H :    0.028087
  24 H :    0.034762
  25 C :   -0.047244
  26 H :    0.028828
  27 H :    0.026880
  28 C :   -0.059597
  29 H :    0.026077
  30 H :    0.027549
  31 H :    0.022471
  32 H :    0.019933
  33 H :    0.004041

  Mayer bond orders larger than 0.100000
B(  0-S ,  1-C ) :   1.1444 B(  0-S ,  4-C ) :   1.1795 B(  1-C ,  2-C ) :   1.6101
B(  1-C , 32-H ) :   0.9652 B(  2-C ,  3-C ) :   1.2733 B(  2-C ,  6-C ) :   0.9899
B(  3-C ,  4-C ) :   1.5779 B(  3-C ,  5-H ) :   0.9990 B(  4-C , 20-C ) :   0.9679
B(  6-C ,  7-H ) :   0.9396 B(  6-C ,  8-H ) :   0.9371 B(  6-C ,  9-C ) :   1.0516
B(  9-C , 10-H ) :   0.9539 B(  9-C , 11-H ) :   0.9552 B(  9-C , 12-C ) :   1.0856
B( 12-C , 13-H ) :   0.9718 B( 12-C , 14-H ) :   0.9753 B( 12-C , 15-H ) :   0.9752
B( 16-S , 17-C ) :   1.1392 B( 16-S , 20-C ) :   1.1354 B( 17-C , 18-C ) :   1.6456
B( 17-C , 33-H ) :   0.9803 B( 18-C , 19-C ) :   1.1823 B( 18-C , 21-H ) :   0.9900
B( 19-C , 20-C ) :   1.6581 B( 19-C , 22-C ) :   1.0172 B( 22-C , 23-H ) :   0.9381
B( 22-C , 24-H ) :   0.9358 B( 22-C , 25-C ) :   1.0692 B( 25-C , 26-H ) :   0.9556
B( 25-C , 27-H ) :   0.9563 B( 25-C , 28-C ) :   1.0646 B( 28-C , 29-H ) :   0.9759
B( 28-C , 30-H ) :   0.9754 B( 28-C , 31-H ) :   0.9731

Dispersion correction           -0.014404660
FINAL SINGLE POINT ENERGY     -1339.870402104735

DIPOLE MOMENT
-------------
                                X             Y             Z
Electronic contribution:     13.86946     -15.63915       9.70103
Nuclear contribution   :    -14.32445      16.06218      -9.80318
                        -----------------------------------------
Total Dipole Moment    :     -0.45499       0.42303      -0.10215
                        -----------------------------------------
Magnitude (a.u.)       :      0.62961
Magnitude (Debye)      :      1.60034

Rotational constants in cm-1:     0.018993     0.007761     0.007263
Rotational constants in MHz :   569.409191   232.678977   217.742130

                             ****ORCA TERMINATED NORMALLY****
TOTAL RUN TIME: 0 days 0 hours 0 minutes 21 seconds 486 msec
