                         Program Version 4.2.1 -  RELEASE  -
|  1> ! wB97X-D3 SP def2-SVP
|  2> %pal
|  3> nprocs 24
|  4> end
|  5>
|  6> * xyz 0 1
|  7> S 	 -69.218 	 8.23072 	 -103.662
|  8> C 	 -68.8228 	 6.51102 	 -103.841
|  9> C 	 -69.971 	 5.68483 	 -103.923
| 10> C 	 -71.136 	 6.49423 	 -103.668
| 11> C 	 -70.9711 	 7.8381 	 -103.603
| 12> H 	 -72.1283 	 6.02748 	 -103.576
| 13> C 	 -70.0266 	 4.2387 	 -104.156
| 14> H 	 -69.2592 	 3.9723 	 -104.918
| 15> H 	 -70.9761 	 4.02439 	 -104.62
| 16> C 	 -69.8264 	 3.33588 	 -102.985
| 17> H 	 -70.7995 	 3.39247 	 -102.476
| 18> H 	 -69.8209 	 2.30144 	 -103.376
| 19> C 	 -68.569 	 3.68183 	 -102.166
| 20> H 	 -67.6677 	 3.64376 	 -102.868
| 21> H 	 -68.7248 	 4.68026 	 -101.769
| 22> H 	 -68.4053 	 2.96599 	 -101.359
| 23> S 	 -71.6457 	 10.4385 	 -104.146
| 24> C 	 -73.2406 	 11.0638 	 -103.758
| 25> C 	 -73.9466 	 10.1726 	 -102.993
| 26> C 	 -73.2439 	 8.9144 	 -102.763
| 27> C 	 -72.03 	 8.86712 	 -103.45
| 28> H 	 -74.9934 	 10.4845 	 -102.71
| 29> C 	 -73.9447 	 7.71768 	 -102.12
| 30> H 	 -73.9025 	 6.88086 	 -102.897
| 31> H 	 -74.8725 	 8.05612 	 -101.749
| 32> C 	 -73.1796 	 7.22989 	 -100.858
| 33> H 	 -73.259 	 7.94896 	 -100.043
| 34> H 	 -72.1311 	 7.3255 	 -101.193
| 35> C 	 -73.6339 	 5.74265 	 -100.487
| 36> H 	 -73.2776 	 5.5102 	 -99.4648
| 37> H 	 -73.1122 	 4.9838 	 -101.188
| 38> H 	 -74.7034 	 5.69691 	 -100.633
| 39> H 	 -67.7823 	 6.08801 	 -103.839
| 40> H 	 -73.5237 	 12.0408 	 -103.812
| 41> *
| 42>
| 43>                          ****END OF INPUT****

CARTESIAN COORDINATES (ANGSTROEM)
---------------------------------
  S    -69.218000    8.230720  -103.662000
  C    -68.822800    6.511020  -103.841000
  C    -69.971000    5.684830  -103.923000
  C    -71.136000    6.494230  -103.668000
  C    -70.971100    7.838100  -103.603000
  H    -72.128300    6.027480  -103.576000
  C    -70.026600    4.238700  -104.156000
  H    -69.259200    3.972300  -104.918000
  H    -70.976100    4.024390  -104.620000
  C    -69.826400    3.335880  -102.985000
  H    -70.799500    3.392470  -102.476000
  H    -69.820900    2.301440  -103.376000
  C    -68.569000    3.681830  -102.166000
  H    -67.667700    3.643760  -102.868000
  H    -68.724800    4.680260  -101.769000
  H    -68.405300    2.965990  -101.359000
  S    -71.645700   10.438500  -104.146000
  C    -73.240600   11.063800  -103.758000
  C    -73.946600   10.172600  -102.993000
  C    -73.243900    8.914400  -102.763000
  C    -72.030000    8.867120  -103.450000
  H    -74.993400   10.484500  -102.710000
  C    -73.944700    7.717680  -102.120000
  H    -73.902500    6.880860  -102.897000
  H    -74.872500    8.056120  -101.749000
  C    -73.179600    7.229890  -100.858000
  H    -73.259000    7.948960  -100.043000
  H    -72.131100    7.325500  -101.193000
  C    -73.633900    5.742650  -100.487000
  H    -73.277600    5.510200  -99.464800
  H    -73.112200    4.983800  -101.188000
  H    -74.703400    5.696910  -100.633000
  H    -67.782300    6.088010  -103.839000
  H    -73.523700   12.040800  -103.812000

 Total Charge           Charge          ....    0
 Multiplicity           Mult            ....    1
 Number of Electrons    NEL             ....  134
 Basis Dimension        Dim             ....  322

ORBITAL ENERGIES
----------------

  NO   OCC          E(Eh)            E(eV)
   0   2.0000     -88.971586     -2421.0399
   1   2.0000     -88.964433     -2420.8453
   2   2.0000     -10.336249      -281.2636
   3   2.0000     -10.333910      -281.2000
   4   2.0000     -10.325689      -280.9763
   5   2.0000     -10.310056      -280.5509
   6   2.0000     -10.308684      -280.5135
   7   2.0000     -10.305002      -280.4134
   8   2.0000     -10.301012      -280.3048
   9   2.0000     -10.297280      -280.2032
  10   2.0000     -10.295837      -280.1640
  11   2.0000     -10.291808      -280.0543
  12   2.0000     -10.288922      -279.9758
  13   2.0000     -10.288768      -279.9716
  14   2.0000     -10.286572      -279.9118
  15   2.0000     -10.286182      -279.9012
  16   2.0000      -8.084897      -220.0012
  17   2.0000      -8.079042      -219.8419
  18   2.0000      -6.043650      -164.4561
  19   2.0000      -6.039696      -164.3485
  20   2.0000      -6.037677      -164.2935
  21   2.0000      -6.035380      -164.2310
  22   2.0000      -6.033555      -164.1814
  23   2.0000      -6.029715      -164.0769
  24   2.0000      -1.002786       -27.2872
  25   2.0000      -0.980861       -26.6906
  26   2.0000      -0.922804       -25.1108
  27   2.0000      -0.904642       -24.6166
  28   2.0000      -0.866234       -23.5714
  29   2.0000      -0.848432       -23.0870
  30   2.0000      -0.839165       -22.8348
  31   2.0000      -0.815640       -22.1947
  32   2.0000      -0.784738       -21.3538
  33   2.0000      -0.770769       -20.9737
  34   2.0000      -0.709136       -19.2966
  35   2.0000      -0.699264       -19.0280
  36   2.0000      -0.687928       -18.7195
  37   2.0000      -0.662963       -18.0401
  38   2.0000      -0.635348       -17.2887
  39   2.0000      -0.624301       -16.9881
  40   2.0000      -0.589162       -16.0319
  41   2.0000      -0.572940       -15.5905
  42   2.0000      -0.569405       -15.4943
  43   2.0000      -0.555650       -15.1200
  44   2.0000      -0.542265       -14.7558
  45   2.0000      -0.520628       -14.1670
  46   2.0000      -0.518465       -14.1082
  47   2.0000      -0.503565       -13.7027
  48   2.0000      -0.500049       -13.6070
  49   2.0000      -0.496804       -13.5187
  50   2.0000      -0.491380       -13.3711
  51   2.0000      -0.486903       -13.2493
  52   2.0000      -0.469904       -12.7867
  53   2.0000      -0.466277       -12.6880
  54   2.0000      -0.464001       -12.6261
  55   2.0000      -0.447600       -12.1798
  56   2.0000      -0.441463       -12.0128
  57   2.0000      -0.436833       -11.8868
  58   2.0000      -0.434108       -11.8127
  59   2.0000      -0.423980       -11.5371
  60   2.0000      -0.418046       -11.3756
  61   2.0000      -0.413928       -11.2636
  62   2.0000      -0.412054       -11.2126
  63   2.0000      -0.355517        -9.6741
  64   2.0000      -0.334137        -9.0923
  65   2.0000      -0.327068        -8.9000
  66   2.0000      -0.287482        -7.8228
  67   0.0000       0.021611         0.5881
  68   0.0000       0.067737         1.8432
  69   0.0000       0.099527         2.7083
  70   0.0000       0.115053         3.1308
  71   0.0000       0.119749         3.2585

MULLIKEN ATOMIC CHARGES
-----------------------
   0 S :    0.108288
   1 C :   -0.140321
   2 C :   -0.105186
   3 C :   -0.013034
   4 C :   -0.085023
   5 H :    0.002396
   6 C :    0.052597
   7 H :    0.031580
   8 H :    0.020040
   9 C :   -0.065682
  10 H :    0.022194
  11 H :    0.031150
  12 C :   -0.064347
  13 H :    0.036611
  14 H :    0.059054
  15 H :    0.043044
  16 S :    0.083955
  17 C :   -0.044936
  18 C :   -0.069299
  19 C :   -0.059134
  20 C :   -0.142256
  21 H :    0.042857
  22 C :    0.065276
  23 H :    0.057027
  24 H :    0.009289
  25 C :   -0.115643
  26 H :    0.029778
  27 H :    0.047688
  28 C :   -0.062997
  29 H :    0.047071
  30 H :    0.041420
  31 H :    0.042217
  32 H :    0.069076
  33 H :    0.025250
Sum of atomic charges:    0.0000000

LOEWDIN ATOMIC CHARGES
----------------------
   0 S :    0.377669
   1 C :   -0.192939
   2 C :   -0.061577
   3 C :   -0.065995
   4 C :   -0.181655
   5 H :    0.029962
   6 C :   -0.042406
   7 H :    0.035381
   8 H :    0.031714
   9 C :   -0.043889
  10 H :    0.022465
  11 H :    0.026612
  12 C :   -0.065786
  13 H :    0.031349
  14 H :    0.029212
  15 H :    0.027478
  16 S :    0.392645
  17 C :   -0.172781
  18 C :   -0.074078
  19 C :   -0.061544
  20 C :   -0.184355
  21 H :    0.043073
  22 C :   -0.029281
  23 H :    0.038906
  24 H :    0.021786
  25 C :   -0.045479
  26 H :    0.022265
  27 H :    0.025937
  28 C :   -0.069298
  29 H :    0.029636
  30 H :    0.032220
  31 H :    0.022733
  32 H :    0.038206
  33 H :    0.011813

  Mayer bond orders larger than 0.100000
B(  0-S ,  1-C ) :   1.1362 B(  0-S ,  4-C ) :   1.1142 B(  1-C ,  2-C ) :   1.5989
B(  1-C , 32-H ) :   0.9588 B(  2-C ,  3-C ) :   1.2407 B(  2-C ,  6-C ) :   1.0371
B(  3-C ,  4-C ) :   1.5964 B(  3-C ,  5-H ) :   0.9837 B(  4-C , 20-C ) :   1.0548
B(  6-C ,  7-H ) :   0.9334 B(  6-C ,  8-H ) :   0.9337 B(  6-C ,  9-C ) :   1.0793
B(  9-C , 10-H ) :   0.9531 B(  9-C , 11-H ) :   0.9512 B(  9-C , 12-C ) :   1.0709
B( 12-C , 13-H ) :   0.9722 B( 12-C , 14-H ) :   0.9679 B( 12-C , 15-H ) :   0.9728
B( 16-S , 17-C ) :   1.1415 B( 16-S , 20-C ) :   1.1340 B( 17-C , 18-C ) :   1.6504
B( 17-C , 33-H ) :   0.9723 B( 18-C , 19-C ) :   1.2233 B( 18-C , 21-H ) :   0.9774
B( 19-C , 20-C ) :   1.5893 B( 19-C , 22-C ) :   1.0425 B( 22-C , 23-H ) :   0.9466
B( 22-C , 24-H ) :   0.9249 B( 22-C , 25-C ) :   1.0430 B( 25-C , 26-H ) :   0.9559
B( 25-C , 27-H ) :   0.9676 B( 25-C , 28-C ) :   1.0575 B( 28-C , 29-H ) :   0.9760
B( 28-C , 30-H ) :   0.9755 B( 28-C , 31-H ) :   0.9748

Dispersion correction           -0.015274623
FINAL SINGLE POINT ENERGY     -1339.868324589238

DIPOLE MOMENT
-------------
                                X             Y             Z
Electronic contribution:      5.12464      26.60468     -12.69802
Nuclear contribution   :     -5.45620     -27.17394      12.97378
                        -----------------------------------------
Total Dipole Moment    :     -0.33156      -0.56926       0.27577
                        -----------------------------------------
Magnitude (a.u.)       :      0.71417
Magnitude (Debye)      :      1.81527

Rotational constants in cm-1:     0.020275     0.009431     0.006988
Rotational constants in MHz :   607.818916   282.733378   209.500596

                             ****ORCA TERMINATED NORMALLY****
TOTAL RUN TIME: 0 days 0 hours 0 minutes 22 seconds 647 msec
