                         Program Version 4.2.1 -  RELEASE  -
|  1> ! wB97X-D3 SP def2-SVP
|  2> %pal
|  3> nprocs 24
|  4> end
|  5>
|  6> * xyz 0 1
|  7> S 	 -98.4036 	 48.6244 	 -92.2204
|  8> C 	 -97.7512 	 47.1617 	 -91.5365
|  9> C 	 -96.5682 	 46.7975 	 -92.1725
| 10> C 	 -96.2437 	 47.62 	 -93.2896
| 11> C 	 -97.1619 	 48.6359 	 -93.5178
| 12> H 	 -95.3589 	 47.422 	 -93.9194
| 13> C 	 -95.7471 	 45.6083 	 -91.7523
| 14> H 	 -95.9237 	 45.4908 	 -90.6791
| 15> H 	 -94.7217 	 45.8584 	 -91.8622
| 16> C 	 -95.9774 	 44.3974 	 -92.6856
| 17> H 	 -96.9413 	 44.0862 	 -92.8086
| 18> H 	 -95.7145 	 44.7364 	 -93.7059
| 19> C 	 -95.0216 	 43.2655 	 -92.2685
| 20> H 	 -94.0028 	 43.5986 	 -92.2073
| 21> H 	 -95.3321 	 42.7503 	 -91.3602
| 22> H 	 -95.0534 	 42.6125 	 -93.1769
| 23> S 	 -97.4923 	 51.2687 	 -94.1282
| 24> C 	 -97.5994 	 51.7641 	 -95.8091
| 25> C 	 -97.3858 	 50.6698 	 -96.6261
| 26> C 	 -97.0967 	 49.4512 	 -95.9224
| 27> C 	 -97.2084 	 49.6315 	 -94.5574
| 28> H 	 -97.3694 	 50.7514 	 -97.6879
| 29> C 	 -96.8623 	 48.1603 	 -96.6561
| 30> H 	 -96.0849 	 47.5583 	 -96.1649
| 31> H 	 -96.6373 	 48.4453 	 -97.6994
| 32> C 	 -98.0905 	 47.3105 	 -96.7823
| 33> H 	 -99.0065 	 47.769 	 -97.1922
| 34> H 	 -98.3164 	 47.0771 	 -95.8083
| 35> C 	 -97.713 	 46.1095 	 -97.5717
| 36> H 	 -98.0745 	 46.2771 	 -98.5854
| 37> H 	 -98.2689 	 45.267 	 -97.2345
| 38> H 	 -96.6262 	 45.8708 	 -97.6506
| 39> H 	 -98.0582 	 46.6549 	 -90.6337
| 40> H 	 -97.91 	 52.695 	 -96.2221
| 41> *
| 42>
| 43>                          ****END OF INPUT****

CARTESIAN COORDINATES (ANGSTROEM)
---------------------------------
  S    -98.403600   48.624400  -92.220400
  C    -97.751200   47.161700  -91.536500
  C    -96.568200   46.797500  -92.172500
  C    -96.243700   47.620000  -93.289600
  C    -97.161900   48.635900  -93.517800
  H    -95.358900   47.422000  -93.919400
  C    -95.747100   45.608300  -91.752300
  H    -95.923700   45.490800  -90.679100
  H    -94.721700   45.858400  -91.862200
  C    -95.977400   44.397400  -92.685600
  H    -96.941300   44.086200  -92.808600
  H    -95.714500   44.736400  -93.705900
  C    -95.021600   43.265500  -92.268500
  H    -94.002800   43.598600  -92.207300
  H    -95.332100   42.750300  -91.360200
  H    -95.053400   42.612500  -93.176900
  S    -97.492300   51.268700  -94.128200
  C    -97.599400   51.764100  -95.809100
  C    -97.385800   50.669800  -96.626100
  C    -97.096700   49.451200  -95.922400
  C    -97.208400   49.631500  -94.557400
  H    -97.369400   50.751400  -97.687900
  C    -96.862300   48.160300  -96.656100
  H    -96.084900   47.558300  -96.164900
  H    -96.637300   48.445300  -97.699400
  C    -98.090500   47.310500  -96.782300
  H    -99.006500   47.769000  -97.192200
  H    -98.316400   47.077100  -95.808300
  C    -97.713000   46.109500  -97.571700
  H    -98.074500   46.277100  -98.585400
  H    -98.268900   45.267000  -97.234500
  H    -96.626200   45.870800  -97.650600
  H    -98.058200   46.654900  -90.633700
  H    -97.910000   52.695000  -96.222100

 Total Charge           Charge          ....    0
 Multiplicity           Mult            ....    1
 Number of Electrons    NEL             ....  134
 Basis Dimension        Dim             ....  322

ORBITAL ENERGIES
----------------

  NO   OCC          E(Eh)            E(eV)
   0   2.0000     -88.966349     -2420.8974
   1   2.0000     -88.966295     -2420.8960
   2   2.0000     -10.333451      -281.1875
   3   2.0000     -10.321088      -280.8511
   4   2.0000     -10.314610      -280.6748
   5   2.0000     -10.311363      -280.5864
   6   2.0000     -10.297750      -280.2160
   7   2.0000     -10.297547      -280.2105
   8   2.0000     -10.296607      -280.1849
   9   2.0000     -10.291131      -280.0359
  10   2.0000     -10.289653      -279.9957
  11   2.0000     -10.287880      -279.9474
  12   2.0000     -10.283921      -279.8397
  13   2.0000     -10.280446      -279.7452
  14   2.0000     -10.270402      -279.4718
  15   2.0000     -10.269387      -279.4442
  16   2.0000      -8.081388      -219.9057
  17   2.0000      -8.080287      -219.8758
  18   2.0000      -6.039958      -164.3556
  19   2.0000      -6.038874      -164.3261
  20   2.0000      -6.035790      -164.2422
  21   2.0000      -6.034852      -164.2167
  22   2.0000      -6.032123      -164.1424
  23   2.0000      -6.031056      -164.1134
  24   2.0000      -1.008061       -27.4307
  25   2.0000      -0.982540       -26.7363
  26   2.0000      -0.922983       -25.1156
  27   2.0000      -0.913899       -24.8685
  28   2.0000      -0.871345       -23.7105
  29   2.0000      -0.855170       -23.2704
  30   2.0000      -0.846456       -23.0332
  31   2.0000      -0.816330       -22.2135
  32   2.0000      -0.779425       -21.2092
  33   2.0000      -0.767118       -20.8744
  34   2.0000      -0.712418       -19.3859
  35   2.0000      -0.705063       -19.1857
  36   2.0000      -0.693525       -18.8718
  37   2.0000      -0.667576       -18.1657
  38   2.0000      -0.637323       -17.3425
  39   2.0000      -0.622444       -16.9376
  40   2.0000      -0.599828       -16.3222
  41   2.0000      -0.575758       -15.6672
  42   2.0000      -0.573988       -15.6190
  43   2.0000      -0.557215       -15.1626
  44   2.0000      -0.529741       -14.4150
  45   2.0000      -0.525114       -14.2891
  46   2.0000      -0.519120       -14.1260
  47   2.0000      -0.509879       -13.8745
  48   2.0000      -0.504604       -13.7310
  49   2.0000      -0.499822       -13.6008
  50   2.0000      -0.493418       -13.4266
  51   2.0000      -0.486965       -13.2510
  52   2.0000      -0.470276       -12.7969
  53   2.0000      -0.466464       -12.6931
  54   2.0000      -0.462259       -12.5787
  55   2.0000      -0.456734       -12.4284
  56   2.0000      -0.447477       -12.1765
  57   2.0000      -0.440835       -11.9957
  58   2.0000      -0.433158       -11.7868
  59   2.0000      -0.427733       -11.6392
  60   2.0000      -0.419000       -11.4016
  61   2.0000      -0.412363       -11.2210
  62   2.0000      -0.409031       -11.1303
  63   2.0000      -0.349376        -9.5070
  64   2.0000      -0.330934        -9.0052
  65   2.0000      -0.327950        -8.9240
  66   2.0000      -0.287253        -7.8166
  67   0.0000       0.026630         0.7246
  68   0.0000       0.072764         1.9800
  69   0.0000       0.111804         3.0423
  70   0.0000       0.120113         3.2684
  71   0.0000       0.132683         3.6105

MULLIKEN ATOMIC CHARGES
-----------------------
   0 S :    0.107725
   1 C :   -0.107743
   2 C :   -0.123748
   3 C :    0.023587
   4 C :   -0.151834
   5 H :    0.025657
   6 C :    0.088066
   7 H :    0.022760
   8 H :    0.008729
   9 C :   -0.054373
  10 H :    0.009814
  11 H :    0.014533
  12 C :   -0.033233
  13 H :    0.024800
  14 H :    0.044812
  15 H :    0.034304
  16 S :    0.117910
  17 C :   -0.073979
  18 C :   -0.036238
  19 C :   -0.026756
  20 C :   -0.158593
  21 H :    0.007137
  22 C :    0.052071
  23 H :    0.025284
  24 H :    0.015071
  25 C :   -0.038440
  26 H :    0.030402
  27 H :    0.007723
  28 C :   -0.027193
  29 H :    0.024670
  30 H :    0.023029
  31 H :    0.036641
  32 H :    0.042382
  33 H :    0.045022
Sum of atomic charges:   -0.0000000

LOEWDIN ATOMIC CHARGES
----------------------
   0 S :    0.391702
   1 C :   -0.206106
   2 C :   -0.063900
   3 C :   -0.068058
   4 C :   -0.175616
   5 H :    0.035011
   6 C :   -0.029823
   7 H :    0.029565
   8 H :    0.025292
   9 C :   -0.027060
  10 H :    0.010611
  11 H :    0.025806
  12 C :   -0.062421
  13 H :    0.020876
  14 H :    0.026406
  15 H :    0.032715
  16 S :    0.420931
  17 C :   -0.185618
  18 C :   -0.063013
  19 C :   -0.054907
  20 C :   -0.216448
  21 H :    0.025155
  22 C :   -0.027771
  23 H :    0.031031
  24 H :    0.030623
  25 C :   -0.037411
  26 H :    0.029975
  27 H :    0.011524
  28 C :   -0.064042
  29 H :    0.027233
  30 H :    0.023048
  31 H :    0.028949
  32 H :    0.028604
  33 H :    0.027139

  Mayer bond orders larger than 0.100000
B(  0-S ,  1-C ) :   1.1312 B(  0-S ,  4-C ) :   1.1397 B(  1-C ,  2-C ) :   1.6127
B(  1-C ,  4-C ) :   0.1032 B(  1-C , 32-H ) :   0.9654 B(  2-C ,  3-C ) :   1.2527
B(  2-C ,  6-C ) :   1.0326 B(  3-C ,  4-C ) :   1.5594 B(  3-C ,  5-H ) :   0.9849
B(  4-C , 20-C ) :   1.0587 B(  6-C ,  7-H ) :   0.9423 B(  6-C ,  8-H ) :   0.9340
B(  6-C ,  9-C ) :   1.0523 B(  9-C , 10-H ) :   0.9599 B(  9-C , 11-H ) :   0.9543
B(  9-C , 12-C ) :   1.0777 B( 12-C , 13-H ) :   0.9737 B( 12-C , 14-H ) :   0.9772
B( 12-C , 15-H ) :   0.9752 B( 16-S , 17-C ) :   1.1431 B( 16-S , 20-C ) :   1.1496
B( 17-C , 18-C ) :   1.6084 B( 17-C , 33-H ) :   0.9704 B( 18-C , 19-C ) :   1.2594
B( 18-C , 21-H ) :   0.9873 B( 19-C , 20-C ) :   1.5682 B( 19-C , 22-C ) :   1.0550
B( 22-C , 23-H ) :   0.9262 B( 22-C , 24-H ) :   0.9291 B( 22-C , 25-C ) :   1.0790
B( 25-C , 26-H ) :   0.9523 B( 25-C , 27-H ) :   0.9534 B( 25-C , 28-C ) :   1.0790
B( 28-C , 29-H ) :   0.9741 B( 28-C , 30-H ) :   0.9703 B( 28-C , 31-H ) :   0.9709

Dispersion correction           -0.014349260
FINAL SINGLE POINT ENERGY     -1339.876408413481

DIPOLE MOMENT
-------------
                                X             Y             Z
Electronic contribution:     -8.41552      28.87005      10.05513
Nuclear contribution   :      8.61446     -29.43956     -10.41677
                        -----------------------------------------
Total Dipole Moment    :      0.19894      -0.56951      -0.36164
                        -----------------------------------------
Magnitude (a.u.)       :      0.70335
Magnitude (Debye)      :      1.78776

Rotational constants in cm-1:     0.019204     0.009047     0.006832
Rotational constants in MHz :   575.714389   271.235679   204.831425

                             ****ORCA TERMINATED NORMALLY****
TOTAL RUN TIME: 0 days 0 hours 0 minutes 21 seconds 151 msec
