                         Program Version 4.2.1 -  RELEASE  -
|  1> ! wB97X-D3 SP def2-SVP
|  2> %pal
|  3> nprocs 24
|  4> end
|  5>
|  6> * xyz 0 1
|  7> S 	 -45.4107 	 7.79442 	 -24.4086
|  8> C 	 -46.5974 	 7.7174 	 -23.1261
|  9> C 	 -47.6552 	 8.60154 	 -23.3934
| 10> C 	 -47.3857 	 9.4437 	 -24.5326
| 11> C 	 -46.1644 	 9.22006 	 -25.1141
| 12> H 	 -47.9872 	 10.1914 	 -24.9687
| 13> C 	 -48.9385 	 8.81275 	 -22.5752
| 14> H 	 -48.909 	 8.08866 	 -21.8443
| 15> H 	 -49.8816 	 8.65608 	 -23.1518
| 16> C 	 -48.9531 	 10.1441 	 -21.8414
| 17> H 	 -48.1291 	 10.2017 	 -21.099
| 18> H 	 -48.7726 	 10.9763 	 -22.5823
| 19> C 	 -50.2766 	 10.4129 	 -21.1974
| 20> H 	 -50.4702 	 9.52096 	 -20.6599
| 21> H 	 -50.2675 	 11.3419 	 -20.6411
| 22> H 	 -51.0324 	 10.4515 	 -21.9743
| 23> S 	 -44.9754 	 8.9121 	 -27.6461
| 24> C 	 -44.0644 	 10.2643 	 -28.2715
| 25> C 	 -44.2679 	 11.4035 	 -27.5511
| 26> C 	 -45.1244 	 11.2258 	 -26.4222
| 27> C 	 -45.5389 	 9.88385 	 -26.3005
| 28> H 	 -43.9042 	 12.3628 	 -27.9385
| 29> C 	 -45.479 	 12.4127 	 -25.667
| 30> H 	 -46.6053 	 12.3652 	 -25.5539
| 31> H 	 -45.3175 	 13.2843 	 -26.2512
| 32> C 	 -44.6622 	 12.6945 	 -24.3575
| 33> H 	 -43.679 	 12.8022 	 -24.7632
| 34> H 	 -44.6776 	 11.9093 	 -23.6069
| 35> C 	 -44.9401 	 14.0435 	 -23.831
| 36> H 	 -45.9344 	 14.1915 	 -23.279
| 37> H 	 -44.9997 	 14.799 	 -24.6553
| 38> H 	 -44.0623 	 14.3593 	 -23.1943
| 39> H 	 -46.5514 	 7.19854 	 -22.2022
| 40> H 	 -43.5595 	 10.2354 	 -29.2436
| 41> *
| 42>
| 43>                          ****END OF INPUT****

CARTESIAN COORDINATES (ANGSTROEM)
---------------------------------
  S    -45.410700    7.794420  -24.408600
  C    -46.597400    7.717400  -23.126100
  C    -47.655200    8.601540  -23.393400
  C    -47.385700    9.443700  -24.532600
  C    -46.164400    9.220060  -25.114100
  H    -47.987200   10.191400  -24.968700
  C    -48.938500    8.812750  -22.575200
  H    -48.909000    8.088660  -21.844300
  H    -49.881600    8.656080  -23.151800
  C    -48.953100   10.144100  -21.841400
  H    -48.129100   10.201700  -21.099000
  H    -48.772600   10.976300  -22.582300
  C    -50.276600   10.412900  -21.197400
  H    -50.470200    9.520960  -20.659900
  H    -50.267500   11.341900  -20.641100
  H    -51.032400   10.451500  -21.974300
  S    -44.975400    8.912100  -27.646100
  C    -44.064400   10.264300  -28.271500
  C    -44.267900   11.403500  -27.551100
  C    -45.124400   11.225800  -26.422200
  C    -45.538900    9.883850  -26.300500
  H    -43.904200   12.362800  -27.938500
  C    -45.479000   12.412700  -25.667000
  H    -46.605300   12.365200  -25.553900
  H    -45.317500   13.284300  -26.251200
  C    -44.662200   12.694500  -24.357500
  H    -43.679000   12.802200  -24.763200
  H    -44.677600   11.909300  -23.606900
  C    -44.940100   14.043500  -23.831000
  H    -45.934400   14.191500  -23.279000
  H    -44.999700   14.799000  -24.655300
  H    -44.062300   14.359300  -23.194300
  H    -46.551400    7.198540  -22.202200
  H    -43.559500   10.235400  -29.243600

 Total Charge           Charge          ....    0
 Multiplicity           Mult            ....    1
 Number of Electrons    NEL             ....  134
 Basis Dimension        Dim             ....  322

ORBITAL ENERGIES
----------------

  NO   OCC          E(Eh)            E(eV)
   0   2.0000     -88.967978     -2420.9418
   1   2.0000     -88.964612     -2420.8502
   2   2.0000     -10.330488      -281.1069
   3   2.0000     -10.330363      -281.1035
   4   2.0000     -10.316130      -280.7162
   5   2.0000     -10.314522      -280.6724
   6   2.0000     -10.305027      -280.4141
   7   2.0000     -10.300819      -280.2995
   8   2.0000     -10.291849      -280.0554
   9   2.0000     -10.289448      -279.9901
  10   2.0000     -10.289294      -279.9859
  11   2.0000     -10.289098      -279.9806
  12   2.0000     -10.285786      -279.8905
  13   2.0000     -10.285752      -279.8895
  14   2.0000     -10.282303      -279.7957
  15   2.0000     -10.271808      -279.5101
  16   2.0000      -8.082653      -219.9402
  17   2.0000      -8.079080      -219.8429
  18   2.0000      -6.041142      -164.3878
  19   2.0000      -6.037684      -164.2937
  20   2.0000      -6.037160      -164.2795
  21   2.0000      -6.033609      -164.1828
  22   2.0000      -6.033458      -164.1787
  23   2.0000      -6.029759      -164.0781
  24   2.0000      -1.003993       -27.3200
  25   2.0000      -0.983328       -26.7577
  26   2.0000      -0.918135       -24.9837
  27   2.0000      -0.916478       -24.9386
  28   2.0000      -0.866983       -23.5918
  29   2.0000      -0.859159       -23.3789
  30   2.0000      -0.846878       -23.0447
  31   2.0000      -0.817667       -22.2498
  32   2.0000      -0.781064       -21.2538
  33   2.0000      -0.767204       -20.8767
  34   2.0000      -0.703425       -19.1412
  35   2.0000      -0.693119       -18.8607
  36   2.0000      -0.688266       -18.7287
  37   2.0000      -0.660276       -17.9670
  38   2.0000      -0.645908       -17.5761
  39   2.0000      -0.621054       -16.8998
  40   2.0000      -0.597321       -16.2539
  41   2.0000      -0.573242       -15.5987
  42   2.0000      -0.570708       -15.5297
  43   2.0000      -0.562462       -15.3054
  44   2.0000      -0.537187       -14.6176
  45   2.0000      -0.525191       -14.2912
  46   2.0000      -0.515114       -14.0170
  47   2.0000      -0.513662       -13.9775
  48   2.0000      -0.506842       -13.7919
  49   2.0000      -0.496588       -13.5128
  50   2.0000      -0.493590       -13.4313
  51   2.0000      -0.485419       -13.2089
  52   2.0000      -0.464608       -12.6426
  53   2.0000      -0.461502       -12.5581
  54   2.0000      -0.457729       -12.4554
  55   2.0000      -0.447961       -12.1896
  56   2.0000      -0.442949       -12.0533
  57   2.0000      -0.439199       -11.9512
  58   2.0000      -0.432664       -11.7734
  59   2.0000      -0.425145       -11.5688
  60   2.0000      -0.422146       -11.4872
  61   2.0000      -0.414404       -11.2765
  62   2.0000      -0.412301       -11.2193
  63   2.0000      -0.345764        -9.4087
  64   2.0000      -0.331575        -9.0226
  65   2.0000      -0.327270        -8.9055
  66   2.0000      -0.290749        -7.9117
  67   0.0000       0.033147         0.9020
  68   0.0000       0.060852         1.6559
  69   0.0000       0.108784         2.9602
  70   0.0000       0.120733         3.2853
  71   0.0000       0.131271         3.5721

MULLIKEN ATOMIC CHARGES
-----------------------
   0 S :    0.109761
   1 C :   -0.099513
   2 C :   -0.102445
   3 C :    0.043482
   4 C :   -0.141056
   5 H :   -0.003088
   6 C :    0.097894
   7 H :   -0.013230
   8 H :    0.041628
   9 C :   -0.125161
  10 H :    0.032349
  11 H :    0.027243
  12 C :    0.008598
  13 H :    0.014604
  14 H :    0.043168
  15 H :    0.018058
  16 S :    0.111581
  17 C :   -0.104070
  18 C :   -0.031422
  19 C :   -0.020234
  20 C :   -0.171746
  21 H :    0.024473
  22 C :    0.045806
  23 H :    0.032668
  24 H :   -0.003484
  25 C :   -0.023795
  26 H :    0.013991
  27 H :    0.048081
  28 C :   -0.085919
  29 H :    0.043632
  30 H :    0.021443
  31 H :    0.045889
  32 H :    0.036546
  33 H :    0.064267
Sum of atomic charges:   -0.0000000

LOEWDIN ATOMIC CHARGES
----------------------
   0 S :    0.399863
   1 C :   -0.199033
   2 C :   -0.052708
   3 C :   -0.062048
   4 C :   -0.183118
   5 H :    0.024174
   6 C :   -0.028920
   7 H :    0.015147
   8 H :    0.037976
   9 C :   -0.044377
  10 H :    0.025484
  11 H :    0.021363
  12 C :   -0.058641
  13 H :    0.019577
  14 H :    0.028997
  15 H :    0.023080
  16 S :    0.408529
  17 C :   -0.187789
  18 C :   -0.074132
  19 C :   -0.055416
  20 C :   -0.204623
  21 H :    0.034746
  22 C :   -0.036333
  23 H :    0.035006
  24 H :    0.024327
  25 C :   -0.034126
  26 H :    0.026457
  27 H :    0.028623
  28 C :   -0.077280
  29 H :    0.029577
  30 H :    0.024090
  31 H :    0.033479
  32 H :    0.024917
  33 H :    0.033131

  Mayer bond orders larger than 0.100000
B(  0-S ,  1-C ) :   1.1344 B(  0-S ,  4-C ) :   1.1418 B(  1-C ,  2-C ) :   1.6201
B(  1-C , 32-H ) :   0.9694 B(  2-C ,  3-C ) :   1.2109 B(  2-C ,  6-C ) :   1.0318
B(  3-C ,  4-C ) :   1.6067 B(  3-C ,  5-H ) :   0.9996 B(  4-C , 20-C ) :   1.0181
B(  6-C ,  7-H ) :   0.9254 B(  6-C ,  8-H ) :   0.9432 B(  6-C ,  9-C ) :   1.0611
B(  9-C , 10-H ) :   0.9523 B(  9-C , 11-H ) :   0.9582 B(  9-C , 12-C ) :   1.0829
B( 12-C , 13-H ) :   0.9706 B( 12-C , 14-H ) :   0.9715 B( 12-C , 15-H ) :   0.9719
B( 16-S , 17-C ) :   1.1571 B( 16-S , 20-C ) :   1.1465 B( 17-C , 18-C ) :   1.6092
B( 17-C , 33-H ) :   0.9615 B( 18-C , 19-C ) :   1.2588 B( 18-C , 21-H ) :   0.9827
B( 19-C , 20-C ) :   1.5711 B( 19-C , 22-C ) :   1.0604 B( 22-C , 23-H ) :   0.9291
B( 22-C , 24-H ) :   0.9267 B( 22-C , 25-C ) :   1.0548 B( 25-C , 26-H ) :   0.9458
B( 25-C , 27-H ) :   0.9580 B( 25-C , 28-C ) :   1.0916 B( 28-C , 29-H ) :   0.9718
B( 28-C , 30-H ) :   0.9668 B( 28-C , 31-H ) :   0.9735

Dispersion correction           -0.013830719
FINAL SINGLE POINT ENERGY     -1339.870170403585

DIPOLE MOMENT
-------------
                                X             Y             Z
Electronic contribution:     12.97504     -21.48569     -19.09704
Nuclear contribution   :    -13.21374      22.08606      19.27888
                        -----------------------------------------
Total Dipole Moment    :     -0.23870       0.60036       0.18184
                        -----------------------------------------
Magnitude (a.u.)       :      0.67118
Magnitude (Debye)      :      1.70600

Rotational constants in cm-1:     0.017531     0.008989     0.006674
Rotational constants in MHz :   525.579937   269.494701   200.077815

                             ****ORCA TERMINATED NORMALLY****
TOTAL RUN TIME: 0 days 0 hours 0 minutes 21 seconds 527 msec
