                         Program Version 4.2.1 -  RELEASE  -
|  1> ! wB97X-D3 SP def2-SVP
|  2> %pal
|  3> nprocs 24
|  4> end
|  5>
|  6> * xyz 0 1
|  7> S 	 -110.692 	 30.1612 	 -23.1214
|  8> C 	 -112.211 	 30.2485 	 -23.9435
|  9> C 	 -113.162 	 30.9893 	 -23.2607
| 10> C 	 -112.695 	 31.2068 	 -21.9099
| 11> C 	 -111.358 	 30.8081 	 -21.6272
| 12> H 	 -113.17 	 31.843 	 -21.1287
| 13> C 	 -114.541 	 31.3808 	 -23.7172
| 14> H 	 -115.119 	 31.7885 	 -22.8532
| 15> H 	 -115.062 	 30.5408 	 -24.1493
| 16> C 	 -114.539 	 32.4429 	 -24.8337
| 17> H 	 -114.444 	 33.4533 	 -24.4295
| 18> H 	 -113.727 	 32.2673 	 -25.5554
| 19> C 	 -115.908 	 32.4372 	 -25.5128
| 20> H 	 -116.152 	 31.4684 	 -25.8643
| 21> H 	 -116.783 	 32.656 	 -24.9299
| 22> H 	 -115.884 	 33.0502 	 -26.3867
| 23> S 	 -109.084 	 32.1329 	 -20.6083
| 24> C 	 -108.525 	 31.785 	 -18.9741
| 25> C 	 -109.373 	 30.8891 	 -18.3381
| 26> C 	 -110.479 	 30.4621 	 -19.1541
| 27> C 	 -110.501 	 31.0533 	 -20.4384
| 28> H 	 -109.204 	 30.5805 	 -17.3263
| 29> C 	 -111.652 	 29.5701 	 -18.693
| 30> H 	 -111.129 	 28.8527 	 -18.0721
| 31> H 	 -112.027 	 28.9514 	 -19.4922
| 32> C 	 -112.838 	 30.3589 	 -18.0192
| 33> H 	 -113.157 	 31.351 	 -18.4945
| 34> H 	 -112.48 	 30.6007 	 -16.9938
| 35> C 	 -114.085 	 29.5402 	 -18.0897
| 36> H 	 -113.866 	 28.5133 	 -17.8306
| 37> H 	 -114.601 	 29.3876 	 -19.0269
| 38> H 	 -114.72 	 29.9477 	 -17.2221
| 39> H 	 -112.361 	 29.8073 	 -24.985
| 40> H 	 -107.616 	 32.2205 	 -18.6078
| 41> *
| 42>
| 43>                          ****END OF INPUT****

CARTESIAN COORDINATES (ANGSTROEM)
---------------------------------
  S    -110.692000   30.161200  -23.121400
  C    -112.211000   30.248500  -23.943500
  C    -113.162000   30.989300  -23.260700
  C    -112.695000   31.206800  -21.909900
  C    -111.358000   30.808100  -21.627200
  H    -113.170000   31.843000  -21.128700
  C    -114.541000   31.380800  -23.717200
  H    -115.119000   31.788500  -22.853200
  H    -115.062000   30.540800  -24.149300
  C    -114.539000   32.442900  -24.833700
  H    -114.444000   33.453300  -24.429500
  H    -113.727000   32.267300  -25.555400
  C    -115.908000   32.437200  -25.512800
  H    -116.152000   31.468400  -25.864300
  H    -116.783000   32.656000  -24.929900
  H    -115.884000   33.050200  -26.386700
  S    -109.084000   32.132900  -20.608300
  C    -108.525000   31.785000  -18.974100
  C    -109.373000   30.889100  -18.338100
  C    -110.479000   30.462100  -19.154100
  C    -110.501000   31.053300  -20.438400
  H    -109.204000   30.580500  -17.326300
  C    -111.652000   29.570100  -18.693000
  H    -111.129000   28.852700  -18.072100
  H    -112.027000   28.951400  -19.492200
  C    -112.838000   30.358900  -18.019200
  H    -113.157000   31.351000  -18.494500
  H    -112.480000   30.600700  -16.993800
  C    -114.085000   29.540200  -18.089700
  H    -113.866000   28.513300  -17.830600
  H    -114.601000   29.387600  -19.026900
  H    -114.720000   29.947700  -17.222100
  H    -112.361000   29.807300  -24.985000
  H    -107.616000   32.220500  -18.607800

 Total Charge           Charge          ....    0
 Multiplicity           Mult            ....    1
 Number of Electrons    NEL             ....  134
 Basis Dimension        Dim             ....  322

ORBITAL ENERGIES
----------------

  NO   OCC          E(Eh)            E(eV)
   0   2.0000     -88.966214     -2420.8938
   1   2.0000     -88.963199     -2420.8117
   2   2.0000     -10.334799      -281.2242
   3   2.0000     -10.331357      -281.1305
   4   2.0000     -10.320953      -280.8474
   5   2.0000     -10.320414      -280.8327
   6   2.0000     -10.307468      -280.4805
   7   2.0000     -10.304936      -280.4116
   8   2.0000     -10.302360      -280.3415
   9   2.0000     -10.297599      -280.2119
  10   2.0000     -10.294989      -280.1409
  11   2.0000     -10.294879      -280.1379
  12   2.0000     -10.291045      -280.0336
  13   2.0000     -10.287770      -279.9445
  14   2.0000     -10.277601      -279.6677
  15   2.0000     -10.269704      -279.4529
  16   2.0000      -8.081026      -219.8959
  17   2.0000      -8.077241      -219.7929
  18   2.0000      -6.039474      -164.3424
  19   2.0000      -6.035751      -164.2411
  20   2.0000      -6.035443      -164.2327
  21   2.0000      -6.031902      -164.1364
  22   2.0000      -6.031703      -164.1310
  23   2.0000      -6.028186      -164.0353
  24   2.0000      -0.997915       -27.1547
  25   2.0000      -0.977759       -26.6062
  26   2.0000      -0.914499       -24.8848
  27   2.0000      -0.903982       -24.5986
  28   2.0000      -0.865334       -23.5469
  29   2.0000      -0.849054       -23.1039
  30   2.0000      -0.845339       -23.0028
  31   2.0000      -0.809802       -22.0358
  32   2.0000      -0.780795       -21.2465
  33   2.0000      -0.766440       -20.8559
  34   2.0000      -0.703842       -19.1525
  35   2.0000      -0.698222       -18.9996
  36   2.0000      -0.692374       -18.8404
  37   2.0000      -0.659129       -17.9358
  38   2.0000      -0.639211       -17.3938
  39   2.0000      -0.613559       -16.6958
  40   2.0000      -0.593375       -16.1466
  41   2.0000      -0.574309       -15.6277
  42   2.0000      -0.561933       -15.2910
  43   2.0000      -0.554320       -15.0838
  44   2.0000      -0.529229       -14.4011
  45   2.0000      -0.524629       -14.2759
  46   2.0000      -0.514579       -14.0024
  47   2.0000      -0.511520       -13.9192
  48   2.0000      -0.505087       -13.7441
  49   2.0000      -0.499502       -13.5921
  50   2.0000      -0.491855       -13.3841
  51   2.0000      -0.479146       -13.0382
  52   2.0000      -0.473068       -12.8728
  53   2.0000      -0.460039       -12.5183
  54   2.0000      -0.455512       -12.3951
  55   2.0000      -0.445468       -12.1218
  56   2.0000      -0.442597       -12.0437
  57   2.0000      -0.436587       -11.8801
  58   2.0000      -0.430913       -11.7257
  59   2.0000      -0.424824       -11.5601
  60   2.0000      -0.422328       -11.4921
  61   2.0000      -0.420098       -11.4315
  62   2.0000      -0.397618       -10.8197
  63   2.0000      -0.337873        -9.1940
  64   2.0000      -0.328618        -8.9422
  65   2.0000      -0.326478        -8.8839
  66   2.0000      -0.295848        -8.0504
  67   0.0000       0.033624         0.9150
  68   0.0000       0.054196         1.4748
  69   0.0000       0.117885         3.2078
  70   0.0000       0.123729         3.3668
  71   0.0000       0.127067         3.4577

MULLIKEN ATOMIC CHARGES
-----------------------
   0 S :    0.123219
   1 C :   -0.156289
   2 C :   -0.067574
   3 C :    0.017948
   4 C :   -0.173250
   5 H :    0.028151
   6 C :    0.059468
   7 H :    0.035007
   8 H :    0.027220
   9 C :   -0.081097
  10 H :    0.034258
  11 H :    0.038045
  12 C :   -0.022878
  13 H :    0.002236
  14 H :    0.025440
  15 H :    0.026264
  16 S :    0.092953
  17 C :   -0.095307
  18 C :   -0.016105
  19 C :   -0.047622
  20 C :   -0.170809
  21 H :    0.013181
  22 C :    0.069578
  23 H :    0.021426
  24 H :    0.027478
  25 C :   -0.072518
  26 H :    0.046820
  27 H :    0.034912
  28 C :   -0.060628
  29 H :    0.014781
  30 H :    0.047042
  31 H :    0.043086
  32 H :    0.076008
  33 H :    0.059561
Sum of atomic charges:   -0.0000000

LOEWDIN ATOMIC CHARGES
----------------------
   0 S :    0.419104
   1 C :   -0.211221
   2 C :   -0.070034
   3 C :   -0.065326
   4 C :   -0.203235
   5 H :    0.035017
   6 C :   -0.031736
   7 H :    0.037924
   8 H :    0.029936
   9 C :   -0.034818
  10 H :    0.026378
  11 H :    0.026323
  12 C :   -0.064475
  13 H :    0.015283
  14 H :    0.024696
  15 H :    0.024011
  16 S :    0.385048
  17 C :   -0.173221
  18 C :   -0.074174
  19 C :   -0.049343
  20 C :   -0.198060
  21 H :    0.029388
  22 C :   -0.031983
  23 H :    0.030156
  24 H :    0.028745
  25 C :   -0.043549
  26 H :    0.033480
  27 H :    0.027822
  28 C :   -0.076713
  29 H :    0.018985
  30 H :    0.027460
  31 H :    0.039243
  32 H :    0.042181
  33 H :    0.026709

  Mayer bond orders larger than 0.100000
B(  0-S ,  1-C ) :   1.1685 B(  0-S ,  4-C ) :   1.1570 B(  1-C ,  2-C ) :   1.5740
B(  1-C ,  4-C ) :   0.1011 B(  1-C , 32-H ) :   0.9577 B(  2-C ,  3-C ) :   1.2688
B(  2-C ,  6-C ) :   1.0260 B(  3-C ,  4-C ) :   1.5635 B(  3-C ,  5-H ) :   0.9785
B(  4-C , 20-C ) :   1.0346 B(  6-C ,  7-H ) :   0.9411 B(  6-C ,  8-H ) :   0.9485
B(  6-C ,  9-C ) :   1.0549 B(  9-C , 10-H ) :   0.9539 B(  9-C , 11-H ) :   0.9620
B(  9-C , 12-C ) :   1.0826 B( 12-C , 13-H ) :   0.9717 B( 12-C , 14-H ) :   0.9723
B( 12-C , 15-H ) :   0.9720 B( 16-S , 17-C ) :   1.1655 B( 16-S , 20-C ) :   1.1376
B( 17-C , 18-C ) :   1.5788 B( 17-C , 20-C ) :   0.1027 B( 17-C , 33-H ) :   0.9717
B( 18-C , 19-C ) :   1.2559 B( 18-C , 21-H ) :   0.9949 B( 19-C , 20-C ) :   1.5817
B( 19-C , 22-C ) :   1.0410 B( 22-C , 23-H ) :   0.9298 B( 22-C , 24-H ) :   0.9391
B( 22-C , 25-C ) :   1.0404 B( 25-C , 26-H ) :   0.9606 B( 25-C , 27-H ) :   0.9548
B( 25-C , 28-C ) :   1.0778 B( 28-C , 29-H ) :   0.9691 B( 28-C , 30-H ) :   0.9751
B( 28-C , 31-H ) :   0.9704

Dispersion correction           -0.013899758
FINAL SINGLE POINT ENERGY     -1339.869423482031

DIPOLE MOMENT
-------------
                                X             Y             Z
Electronic contribution:     27.77891       0.56539      -0.99669
Nuclear contribution   :    -28.29963      -0.60060       1.14887
                        -----------------------------------------
Total Dipole Moment    :     -0.52071      -0.03521       0.15218
                        -----------------------------------------
Magnitude (a.u.)       :      0.54364
Magnitude (Debye)      :      1.38182

Rotational constants in cm-1:     0.019425     0.007807     0.006295
Rotational constants in MHz :   582.346898   234.037777   188.715852

                             ****ORCA TERMINATED NORMALLY****
TOTAL RUN TIME: 0 days 0 hours 0 minutes 21 seconds 96 msec
