                         Program Version 4.2.1 -  RELEASE  -
|  1> ! wB97X-D3 SP def2-SVP
|  2> %pal
|  3> nprocs 24
|  4> end
|  5>
|  6> * xyz 0 1
|  7> S 	 -104.768 	 -1.80954 	 -107.607
|  8> C 	 -104.443 	 -0.456374 	 -108.744
|  9> C 	 -104.759 	 0.706513 	 -108.151
| 10> C 	 -105.04 	 0.531877 	 -106.779
| 11> C 	 -104.903 	 -0.699915 	 -106.276
| 12> H 	 -105.437 	 1.30264 	 -106.128
| 13> C 	 -104.911 	 1.9901 	 -108.937
| 14> H 	 -105.865 	 2.42523 	 -108.652
| 15> H 	 -104.814 	 1.70124 	 -110.036
| 16> C 	 -103.855 	 3.07999 	 -108.691
| 17> H 	 -104.046 	 3.22926 	 -107.664
| 18> H 	 -102.907 	 2.54936 	 -108.767
| 19> C 	 -104.141 	 4.39653 	 -109.577
| 20> H 	 -103.443 	 5.18552 	 -109.315
| 21> H 	 -104.057 	 4.09923 	 -110.655
| 22> H 	 -105.105 	 4.93986 	 -109.454
| 23> S 	 -106.433 	 -2.33497 	 -104.535
| 24> C 	 -106.273 	 -2.14955 	 -102.783
| 25> C 	 -105.235 	 -1.2684 	 -102.511
| 26> C 	 -104.665 	 -0.618901 	 -103.659
| 27> C 	 -105.19 	 -1.07725 	 -104.878
| 28> H 	 -104.751 	 -1.18009 	 -101.582
| 29> C 	 -103.529 	 0.352001 	 -103.505
| 30> H 	 -103.813 	 1.12105 	 -102.833
| 31> H 	 -103.434 	 0.831263 	 -104.458
| 32> C 	 -102.211 	 -0.231633 	 -103.04
| 33> H 	 -102.34 	 -0.535324 	 -102.019
| 34> H 	 -101.453 	 0.584927 	 -103.119
| 35> C 	 -101.726 	 -1.33408 	 -104.034
| 36> H 	 -102.347 	 -2.20879 	 -103.89
| 37> H 	 -100.699 	 -1.60654 	 -103.854
| 38> H 	 -101.814 	 -1.03115 	 -105.114
| 39> H 	 -104.343 	 -0.48963 	 -109.81
| 40> H 	 -106.6 	 -2.84028 	 -102.099
| 41> *
| 42>
| 43>                          ****END OF INPUT****

CARTESIAN COORDINATES (ANGSTROEM)
---------------------------------
  S    -104.768000   -1.809540  -107.607000
  C    -104.443000   -0.456374  -108.744000
  C    -104.759000    0.706513  -108.151000
  C    -105.040000    0.531877  -106.779000
  C    -104.903000   -0.699915  -106.276000
  H    -105.437000    1.302640  -106.128000
  C    -104.911000    1.990100  -108.937000
  H    -105.865000    2.425230  -108.652000
  H    -104.814000    1.701240  -110.036000
  C    -103.855000    3.079990  -108.691000
  H    -104.046000    3.229260  -107.664000
  H    -102.907000    2.549360  -108.767000
  C    -104.141000    4.396530  -109.577000
  H    -103.443000    5.185520  -109.315000
  H    -104.057000    4.099230  -110.655000
  H    -105.105000    4.939860  -109.454000
  S    -106.433000   -2.334970  -104.535000
  C    -106.273000   -2.149550  -102.783000
  C    -105.235000   -1.268400  -102.511000
  C    -104.665000   -0.618901  -103.659000
  C    -105.190000   -1.077250  -104.878000
  H    -104.751000   -1.180090  -101.582000
  C    -103.529000    0.352001  -103.505000
  H    -103.813000    1.121050  -102.833000
  H    -103.434000    0.831263  -104.458000
  C    -102.211000   -0.231633  -103.040000
  H    -102.340000   -0.535324  -102.019000
  H    -101.453000    0.584927  -103.119000
  C    -101.726000   -1.334080  -104.034000
  H    -102.347000   -2.208790  -103.890000
  H    -100.699000   -1.606540  -103.854000
  H    -101.814000   -1.031150  -105.114000
  H    -104.343000   -0.489630  -109.810000
  H    -106.600000   -2.840280  -102.099000

 Total Charge           Charge          ....    0
 Multiplicity           Mult            ....    1
 Number of Electrons    NEL             ....  134
 Basis Dimension        Dim             ....  322

ORBITAL ENERGIES
----------------

  NO   OCC          E(Eh)            E(eV)
   0   2.0000     -88.965921     -2420.8858
   1   2.0000     -88.965735     -2420.8807
   2   2.0000     -10.336315      -281.2654
   3   2.0000     -10.329945      -281.0921
   4   2.0000     -10.317618      -280.7567
   5   2.0000     -10.313801      -280.6528
   6   2.0000     -10.304786      -280.4075
   7   2.0000     -10.296862      -280.1918
   8   2.0000     -10.296350      -280.1779
   9   2.0000     -10.294591      -280.1301
  10   2.0000     -10.293822      -280.1091
  11   2.0000     -10.290284      -280.0129
  12   2.0000     -10.289435      -279.9898
  13   2.0000     -10.287886      -279.9476
  14   2.0000     -10.280781      -279.7543
  15   2.0000     -10.273734      -279.5625
  16   2.0000      -8.080348      -219.8775
  17   2.0000      -8.079391      -219.8514
  18   2.0000      -6.039078      -164.3317
  19   2.0000      -6.038101      -164.3051
  20   2.0000      -6.035147      -164.2247
  21   2.0000      -6.034018      -164.1940
  22   2.0000      -6.030611      -164.1013
  23   2.0000      -6.030023      -164.0853
  24   2.0000      -1.010877       -27.5074
  25   2.0000      -0.983377       -26.7591
  26   2.0000      -0.913675       -24.8624
  27   2.0000      -0.911322       -24.7983
  28   2.0000      -0.870892       -23.6982
  29   2.0000      -0.845009       -22.9939
  30   2.0000      -0.838578       -22.8189
  31   2.0000      -0.818974       -22.2854
  32   2.0000      -0.782970       -21.3057
  33   2.0000      -0.776443       -21.1281
  34   2.0000      -0.713493       -19.4151
  35   2.0000      -0.701255       -19.0821
  36   2.0000      -0.698866       -19.0171
  37   2.0000      -0.661946       -18.0125
  38   2.0000      -0.642558       -17.4849
  39   2.0000      -0.621345       -16.9077
  40   2.0000      -0.599983       -16.3264
  41   2.0000      -0.575614       -15.6632
  42   2.0000      -0.564252       -15.3541
  43   2.0000      -0.554792       -15.0967
  44   2.0000      -0.544066       -14.8048
  45   2.0000      -0.521404       -14.1881
  46   2.0000      -0.516828       -14.0636
  47   2.0000      -0.511986       -13.9318
  48   2.0000      -0.503704       -13.7065
  49   2.0000      -0.498399       -13.5621
  50   2.0000      -0.492478       -13.4010
  51   2.0000      -0.480236       -13.0679
  52   2.0000      -0.467956       -12.7337
  53   2.0000      -0.465991       -12.6803
  54   2.0000      -0.462972       -12.5981
  55   2.0000      -0.449945       -12.2436
  56   2.0000      -0.441297       -12.0083
  57   2.0000      -0.432382       -11.7657
  58   2.0000      -0.430455       -11.7133
  59   2.0000      -0.429088       -11.6761
  60   2.0000      -0.423045       -11.5116
  61   2.0000      -0.419826       -11.4240
  62   2.0000      -0.409952       -11.1554
  63   2.0000      -0.349613        -9.5135
  64   2.0000      -0.330272        -8.9872
  65   2.0000      -0.328804        -8.9472
  66   2.0000      -0.298974        -8.1355
  67   0.0000       0.024120         0.6564
  68   0.0000       0.065782         1.7900
  69   0.0000       0.102827         2.7981
  70   0.0000       0.119482         3.2513
  71   0.0000       0.125015         3.4018

MULLIKEN ATOMIC CHARGES
-----------------------
   0 S :    0.091294
   1 C :   -0.106212
   2 C :   -0.080446
   3 C :    0.026715
   4 C :   -0.135200
   5 H :    0.015968
   6 C :    0.036868
   7 H :    0.030868
   8 H :    0.021917
   9 C :   -0.051254
  10 H :    0.012723
  11 H :    0.034660
  12 C :   -0.067700
  13 H :    0.041390
  14 H :    0.045533
  15 H :    0.041392
  16 S :    0.085460
  17 C :   -0.047658
  18 C :   -0.023390
  19 C :   -0.079305
  20 C :   -0.154659
  21 H :    0.005765
  22 C :    0.105429
  23 H :    0.018161
  24 H :    0.004001
  25 C :   -0.069467
  26 H :    0.027432
  27 H :    0.036900
  28 C :   -0.064808
  29 H :    0.042021
  30 H :    0.031131
  31 H :    0.045840
  32 H :    0.038838
  33 H :    0.039796
Sum of atomic charges:    0.0000000

LOEWDIN ATOMIC CHARGES
----------------------
   0 S :    0.384217
   1 C :   -0.172225
   2 C :   -0.070132
   3 C :   -0.065041
   4 C :   -0.193618
   5 H :    0.031627
   6 C :   -0.028693
   7 H :    0.030244
   8 H :    0.029752
   9 C :   -0.037718
  10 H :    0.015114
  11 H :    0.027083
  12 C :   -0.072616
  13 H :    0.027174
  14 H :    0.031594
  15 H :    0.032884
  16 S :    0.375838
  17 C :   -0.165350
  18 C :   -0.060966
  19 C :   -0.052813
  20 C :   -0.178955
  21 H :    0.022657
  22 C :   -0.033454
  23 H :    0.026761
  24 H :    0.024916
  25 C :   -0.033695
  26 H :    0.017997
  27 H :    0.030321
  28 C :   -0.066039
  29 H :    0.025004
  30 H :    0.021145
  31 H :    0.034756
  32 H :    0.027055
  33 H :    0.015180

  Mayer bond orders larger than 0.100000
B(  0-S ,  1-C ) :   1.1144 B(  0-S ,  4-C ) :   1.1295 B(  1-C ,  2-C ) :   1.6490
B(  1-C , 32-H ) :   0.9650 B(  2-C ,  3-C ) :   1.2196 B(  2-C ,  6-C ) :   1.0249
B(  3-C ,  4-C ) :   1.5975 B(  3-C ,  5-H ) :   0.9936 B(  4-C , 20-C ) :   1.0364
B(  6-C ,  7-H ) :   0.9427 B(  6-C ,  8-H ) :   0.9405 B(  6-C ,  9-C ) :   1.0465
B(  9-C , 10-H ) :   0.9623 B(  9-C , 11-H ) :   0.9602 B(  9-C , 12-C ) :   1.0575
B( 12-C , 13-H ) :   0.9777 B( 12-C , 14-H ) :   0.9776 B( 12-C , 15-H ) :   0.9761
B( 16-S , 17-C ) :   1.1471 B( 16-S , 20-C ) :   1.1273 B( 17-C , 18-C ) :   1.6047
B( 17-C , 20-C ) :   0.1014 B( 17-C , 33-H ) :   0.9728 B( 18-C , 19-C ) :   1.2480
B( 18-C , 21-H ) :   0.9894 B( 19-C , 20-C ) :   1.5953 B( 19-C , 22-C ) :   1.0457
B( 22-C , 23-H ) :   0.9271 B( 22-C , 24-H ) :   0.9242 B( 22-C , 25-C ) :   1.0841
B( 25-C , 26-H ) :   0.9568 B( 25-C , 27-H ) :   0.9552 B( 25-C , 28-C ) :   1.0632
B( 28-C , 29-H ) :   0.9744 B( 28-C , 30-H ) :   0.9767 B( 28-C , 31-H ) :   0.9759

Dispersion correction           -0.014669145
FINAL SINGLE POINT ENERGY     -1339.860198976053

DIPOLE MOMENT
-------------
                                X             Y             Z
Electronic contribution:    -14.80963     -21.55770       3.02975
Nuclear contribution   :     15.04831      22.18528      -2.91672
                        -----------------------------------------
Total Dipole Moment    :      0.23868       0.62758       0.11303
                        -----------------------------------------
Magnitude (a.u.)       :      0.68088
Magnitude (Debye)      :      1.73067

Rotational constants in cm-1:     0.020270     0.007932     0.006857
Rotational constants in MHz :   607.673821   237.808903   205.579586

                             ****ORCA TERMINATED NORMALLY****
TOTAL RUN TIME: 0 days 0 hours 0 minutes 22 seconds 106 msec
