                         Program Version 4.2.1 -  RELEASE  -
|  1> ! wB97X-D3 SP def2-SVP
|  2> %pal
|  3> nprocs 24
|  4> end
|  5>
|  6> * xyz 0 1
|  7> S 	 -43.7546 	 20.2224 	 30.2049
|  8> C 	 -43.7349 	 19.3624 	 28.6832
|  9> C 	 -44.9044 	 19.2321 	 28.0765
| 10> C 	 -45.8908 	 20.0248 	 28.7532
| 11> C 	 -45.4086 	 20.6687 	 29.8438
| 12> H 	 -46.8849 	 20.3093 	 28.3533
| 13> C 	 -45.1004 	 18.7226 	 26.6538
| 14> H 	 -45.0584 	 17.6267 	 26.7799
| 15> H 	 -44.1791 	 18.8958 	 26.0568
| 16> C 	 -46.4238 	 19.0562 	 25.9529
| 17> H 	 -47.2382 	 18.4763 	 26.3271
| 18> H 	 -46.6914 	 20.1473 	 26.0914
| 19> C 	 -46.396 	 18.7068 	 24.4611
| 20> H 	 -47.2926 	 19.1555 	 23.9646
| 21> H 	 -45.3892 	 18.9977 	 24.0725
| 22> H 	 -46.6465 	 17.5793 	 24.4149
| 23> S 	 -46.6455 	 20.9459 	 32.3111
| 24> C 	 -47.2343 	 22.5008 	 32.8053
| 25> C 	 -47.202 	 23.4295 	 31.7667
| 26> C 	 -46.5071 	 22.9327 	 30.6486
| 27> C 	 -46.0817 	 21.5968 	 30.7175
| 28> H 	 -47.474 	 24.5074 	 31.9498
| 29> C 	 -46.1826 	 23.8582 	 29.5227
| 30> H 	 -47.118 	 24.3737 	 29.245
| 31> H 	 -45.8621 	 23.2328 	 28.7047
| 32> C 	 -45.0256 	 24.8095 	 29.6939
| 33> H 	 -44.847 	 25.1659 	 28.6863
| 34> H 	 -44.1423 	 24.219 	 29.9131
| 35> C 	 -45.2435 	 25.9745 	 30.709
| 36> H 	 -45.4053 	 25.5218 	 31.7452
| 37> H 	 -46.1396 	 26.577 	 30.2977
| 38> H 	 -44.4471 	 26.679 	 30.7101
| 39> H 	 -42.8873 	 18.943 	 28.1833
| 40> H 	 -47.5092 	 22.7386 	 33.8112
| 41> *
| 42>
| 43>                          ****END OF INPUT****

CARTESIAN COORDINATES (ANGSTROEM)
---------------------------------
  S    -43.754600   20.222400   30.204900
  C    -43.734900   19.362400   28.683200
  C    -44.904400   19.232100   28.076500
  C    -45.890800   20.024800   28.753200
  C    -45.408600   20.668700   29.843800
  H    -46.884900   20.309300   28.353300
  C    -45.100400   18.722600   26.653800
  H    -45.058400   17.626700   26.779900
  H    -44.179100   18.895800   26.056800
  C    -46.423800   19.056200   25.952900
  H    -47.238200   18.476300   26.327100
  H    -46.691400   20.147300   26.091400
  C    -46.396000   18.706800   24.461100
  H    -47.292600   19.155500   23.964600
  H    -45.389200   18.997700   24.072500
  H    -46.646500   17.579300   24.414900
  S    -46.645500   20.945900   32.311100
  C    -47.234300   22.500800   32.805300
  C    -47.202000   23.429500   31.766700
  C    -46.507100   22.932700   30.648600
  C    -46.081700   21.596800   30.717500
  H    -47.474000   24.507400   31.949800
  C    -46.182600   23.858200   29.522700
  H    -47.118000   24.373700   29.245000
  H    -45.862100   23.232800   28.704700
  C    -45.025600   24.809500   29.693900
  H    -44.847000   25.165900   28.686300
  H    -44.142300   24.219000   29.913100
  C    -45.243500   25.974500   30.709000
  H    -45.405300   25.521800   31.745200
  H    -46.139600   26.577000   30.297700
  H    -44.447100   26.679000   30.710100
  H    -42.887300   18.943000   28.183300
  H    -47.509200   22.738600   33.811200

 Total Charge           Charge          ....    0
 Multiplicity           Mult            ....    1
 Number of Electrons    NEL             ....  134
 Basis Dimension        Dim             ....  322

ORBITAL ENERGIES
----------------

  NO   OCC          E(Eh)            E(eV)
   0   2.0000     -88.964923     -2420.8586
   1   2.0000     -88.960493     -2420.7381
   2   2.0000     -10.325500      -280.9712
   3   2.0000     -10.323852      -280.9263
   4   2.0000     -10.316693      -280.7315
   5   2.0000     -10.304697      -280.4051
   6   2.0000     -10.300061      -280.2789
   7   2.0000     -10.299638      -280.2674
   8   2.0000     -10.294810      -280.1360
   9   2.0000     -10.294476      -280.1269
  10   2.0000     -10.293797      -280.1085
  11   2.0000     -10.293744      -280.1070
  12   2.0000     -10.291971      -280.0588
  13   2.0000     -10.286823      -279.9187
  14   2.0000     -10.281781      -279.7815
  15   2.0000     -10.281561      -279.7755
  16   2.0000      -8.080051      -219.8694
  17   2.0000      -8.074837      -219.7275
  18   2.0000      -6.038542      -164.3171
  19   2.0000      -6.034725      -164.2132
  20   2.0000      -6.033232      -164.1726
  21   2.0000      -6.030560      -164.0999
  22   2.0000      -6.029329      -164.0664
  23   2.0000      -6.025807      -163.9705
  24   2.0000      -1.008955       -27.4551
  25   2.0000      -0.983783       -26.7701
  26   2.0000      -0.914479       -24.8842
  27   2.0000      -0.909101       -24.7379
  28   2.0000      -0.874118       -23.7860
  29   2.0000      -0.848364       -23.0852
  30   2.0000      -0.841873       -22.9085
  31   2.0000      -0.814517       -22.1641
  32   2.0000      -0.783155       -21.3107
  33   2.0000      -0.771287       -20.9878
  34   2.0000      -0.713919       -19.4267
  35   2.0000      -0.692651       -18.8480
  36   2.0000      -0.684015       -18.6130
  37   2.0000      -0.658132       -17.9087
  38   2.0000      -0.641797       -17.4642
  39   2.0000      -0.617631       -16.8066
  40   2.0000      -0.591424       -16.0935
  41   2.0000      -0.574676       -15.6377
  42   2.0000      -0.567450       -15.4411
  43   2.0000      -0.551026       -14.9942
  44   2.0000      -0.539766       -14.6878
  45   2.0000      -0.526415       -14.3245
  46   2.0000      -0.514969       -14.0130
  47   2.0000      -0.504665       -13.7326
  48   2.0000      -0.503264       -13.6945
  49   2.0000      -0.496620       -13.5137
  50   2.0000      -0.485956       -13.2235
  51   2.0000      -0.478220       -13.0130
  52   2.0000      -0.474860       -12.9216
  53   2.0000      -0.464558       -12.6413
  54   2.0000      -0.454644       -12.3715
  55   2.0000      -0.453653       -12.3445
  56   2.0000      -0.440127       -11.9765
  57   2.0000      -0.436946       -11.8899
  58   2.0000      -0.430767       -11.7218
  59   2.0000      -0.427136       -11.6229
  60   2.0000      -0.417871       -11.3708
  61   2.0000      -0.415236       -11.2992
  62   2.0000      -0.408695       -11.1211
  63   2.0000      -0.336590        -9.1591
  64   2.0000      -0.327645        -8.9157
  65   2.0000      -0.325003        -8.8438
  66   2.0000      -0.303477        -8.2580
  67   0.0000       0.040494         1.1019
  68   0.0000       0.055048         1.4979
  69   0.0000       0.116612         3.1732
  70   0.0000       0.121318         3.3012
  71   0.0000       0.130838         3.5603

MULLIKEN ATOMIC CHARGES
-----------------------
   0 S :    0.123776
   1 C :   -0.114121
   2 C :   -0.050421
   3 C :    0.033057
   4 C :   -0.188064
   5 H :    0.027430
   6 C :    0.036341
   7 H :    0.033898
   8 H :    0.031930
   9 C :   -0.098127
  10 H :    0.031337
  11 H :    0.045431
  12 C :   -0.072820
  13 H :    0.045436
  14 H :    0.049904
  15 H :    0.042888
  16 S :    0.095604
  17 C :   -0.086976
  18 C :   -0.056367
  19 C :   -0.027629
  20 C :   -0.174767
  21 H :    0.045205
  22 C :    0.059691
  23 H :    0.026566
  24 H :    0.014578
  25 C :   -0.042282
  26 H :    0.021758
  27 H :    0.022395
  28 C :   -0.078871
  29 H :    0.060452
  30 H :    0.034475
  31 H :    0.032187
  32 H :    0.023352
  33 H :    0.052757
Sum of atomic charges:    0.0000000

LOEWDIN ATOMIC CHARGES
----------------------
   0 S :    0.401087
   1 C :   -0.185251
   2 C :   -0.069853
   3 C :   -0.053695
   4 C :   -0.202682
   5 H :    0.038710
   6 C :   -0.038108
   7 H :    0.039228
   8 H :    0.033568
   9 C :   -0.050913
  10 H :    0.023651
  11 H :    0.026345
  12 C :   -0.071001
  13 H :    0.032584
  14 H :    0.028702
  15 H :    0.034995
  16 S :    0.386945
  17 C :   -0.177668
  18 C :   -0.086255
  19 C :   -0.054461
  20 C :   -0.194231
  21 H :    0.042823
  22 C :   -0.035669
  23 H :    0.031128
  24 H :    0.030447
  25 C :   -0.037578
  26 H :    0.023483
  27 H :    0.023932
  28 C :   -0.075267
  29 H :    0.035780
  30 H :    0.032761
  31 H :    0.018922
  32 H :    0.022883
  33 H :    0.024656

  Mayer bond orders larger than 0.100000
B(  0-S ,  1-C ) :   1.1200 B(  0-S ,  4-C ) :   1.1288 B(  1-C ,  2-C ) :   1.6960
B(  1-C , 32-H ) :   0.9634 B(  2-C ,  3-C ) :   1.1993 B(  2-C ,  6-C ) :   0.9963
B(  3-C ,  4-C ) :   1.6367 B(  3-C ,  5-H ) :   0.9863 B(  4-C , 20-C ) :   1.0205
B(  6-C ,  7-H ) :   0.9209 B(  6-C ,  8-H ) :   0.9512 B(  6-C ,  9-C ) :   1.0795
B(  9-C , 10-H ) :   0.9490 B(  9-C , 11-H ) :   0.9527 B(  9-C , 12-C ) :   1.0779
B( 12-C , 13-H ) :   0.9717 B( 12-C , 14-H ) :   0.9759 B( 12-C , 15-H ) :   0.9774
B( 16-S , 17-C ) :   1.1807 B( 16-S , 20-C ) :   1.1254 B( 17-C , 18-C ) :   1.5786
B( 17-C , 20-C ) :   0.1116 B( 17-C , 33-H ) :   0.9676 B( 18-C , 19-C ) :   1.2570
B( 18-C , 21-H ) :   0.9771 B( 19-C , 20-C ) :   1.5975 B( 19-C , 22-C ) :   1.0524
B( 22-C , 23-H ) :   0.9319 B( 22-C , 24-H ) :   0.9220 B( 22-C , 25-C ) :   1.0872
B( 25-C , 26-H ) :   0.9542 B( 25-C , 27-H ) :   0.9475 B( 25-C , 28-C ) :   1.0730
B( 28-C , 29-H ) :   0.9680 B( 28-C , 30-H ) :   0.9732 B( 28-C , 31-H ) :   0.9736

Dispersion correction           -0.014150108
FINAL SINGLE POINT ENERGY     -1339.866339956124

DIPOLE MOMENT
-------------
                                X             Y             Z
Electronic contribution:      3.15213      -9.22841      22.11833
Nuclear contribution   :     -3.21745       9.44977     -22.75637
                        -----------------------------------------
Total Dipole Moment    :     -0.06532       0.22135      -0.63804
                        -----------------------------------------
Magnitude (a.u.)       :      0.67849
Magnitude (Debye)      :      1.72459

Rotational constants in cm-1:     0.019775     0.007620     0.006877
Rotational constants in MHz :   592.841461   228.434824   206.170064

                             ****ORCA TERMINATED NORMALLY****
TOTAL RUN TIME: 0 days 0 hours 0 minutes 21 seconds 409 msec
