                         Program Version 4.2.1 -  RELEASE  -
|  1> ! wB97X-D3 SP def2-SVP
|  2> %pal
|  3> nprocs 24
|  4> end
|  5>
|  6> * xyz 0 1
|  7> S 	 -95.172 	 14.3666 	 -119.36
|  8> C 	 -93.7718 	 14.2542 	 -118.247
|  9> C 	 -94.1586 	 14.4217 	 -116.919
| 10> C 	 -95.5781 	 14.3089 	 -116.777
| 11> C 	 -96.2421 	 14.3471 	 -117.945
| 12> H 	 -96.1214 	 14.2671 	 -115.846
| 13> C 	 -93.2056 	 14.2867 	 -115.768
| 14> H 	 -92.5224 	 15.1622 	 -115.794
| 15> H 	 -92.572 	 13.3747 	 -115.828
| 16> C 	 -93.82 	 14.2214 	 -114.352
| 17> H 	 -93.1804 	 14.3999 	 -113.515
| 18> H 	 -94.6292 	 14.9332 	 -114.197
| 19> C 	 -94.2301 	 12.7968 	 -113.956
| 20> H 	 -94.4838 	 12.2021 	 -114.847
| 21> H 	 -93.3157 	 12.3007 	 -113.523
| 22> H 	 -95.0692 	 12.831 	 -113.283
| 23> S 	 -98.487 	 15.8795 	 -118.498
| 24> C 	 -100.046 	 15.0519 	 -118.51
| 25> C 	 -99.9581 	 13.7895 	 -117.976
| 26> C 	 -98.6284 	 13.4049 	 -117.618
| 27> C 	 -97.7064 	 14.3834 	 -118.047
| 28> H 	 -100.887 	 13.2068 	 -117.859
| 29> C 	 -98.2312 	 12.0032 	 -117.149
| 30> H 	 -99.1247 	 11.5558 	 -116.683
| 31> H 	 -97.5225 	 12.0943 	 -116.27
| 32> C 	 -97.6256 	 11.1181 	 -118.247
| 33> H 	 -96.6592 	 11.5477 	 -118.447
| 34> H 	 -98.1513 	 11.064 	 -119.243
| 35> C 	 -97.5259 	 9.63827 	 -117.9
| 36> H 	 -96.9845 	 9.49004 	 -116.93
| 37> H 	 -97.0704 	 9.10442 	 -118.685
| 38> H 	 -98.5215 	 9.07716 	 -117.84
| 39> H 	 -92.7354 	 14.0326 	 -118.496
| 40> H 	 -101.012 	 15.4734 	 -118.87
| 41> *
| 42>
| 43>                          ****END OF INPUT****

CARTESIAN COORDINATES (ANGSTROEM)
---------------------------------
  S    -95.172000   14.366600  -119.360000
  C    -93.771800   14.254200  -118.247000
  C    -94.158600   14.421700  -116.919000
  C    -95.578100   14.308900  -116.777000
  C    -96.242100   14.347100  -117.945000
  H    -96.121400   14.267100  -115.846000
  C    -93.205600   14.286700  -115.768000
  H    -92.522400   15.162200  -115.794000
  H    -92.572000   13.374700  -115.828000
  C    -93.820000   14.221400  -114.352000
  H    -93.180400   14.399900  -113.515000
  H    -94.629200   14.933200  -114.197000
  C    -94.230100   12.796800  -113.956000
  H    -94.483800   12.202100  -114.847000
  H    -93.315700   12.300700  -113.523000
  H    -95.069200   12.831000  -113.283000
  S    -98.487000   15.879500  -118.498000
  C    -100.046000   15.051900  -118.510000
  C    -99.958100   13.789500  -117.976000
  C    -98.628400   13.404900  -117.618000
  C    -97.706400   14.383400  -118.047000
  H    -100.887000   13.206800  -117.859000
  C    -98.231200   12.003200  -117.149000
  H    -99.124700   11.555800  -116.683000
  H    -97.522500   12.094300  -116.270000
  C    -97.625600   11.118100  -118.247000
  H    -96.659200   11.547700  -118.447000
  H    -98.151300   11.064000  -119.243000
  C    -97.525900    9.638270  -117.900000
  H    -96.984500    9.490040  -116.930000
  H    -97.070400    9.104420  -118.685000
  H    -98.521500    9.077160  -117.840000
  H    -92.735400   14.032600  -118.496000
  H    -101.012000   15.473400  -118.870000

 Total Charge           Charge          ....    0
 Multiplicity           Mult            ....    1
 Number of Electrons    NEL             ....  134
 Basis Dimension        Dim             ....  322

ORBITAL ENERGIES
----------------

  NO   OCC          E(Eh)            E(eV)
   0   2.0000     -88.970721     -2421.0164
   1   2.0000     -88.965737     -2420.8808
   2   2.0000     -10.326335      -280.9939
   3   2.0000     -10.324859      -280.9537
   4   2.0000     -10.319512      -280.8082
   5   2.0000     -10.316651      -280.7303
   6   2.0000     -10.304578      -280.4018
   7   2.0000     -10.303786      -280.3803
   8   2.0000     -10.298995      -280.2499
   9   2.0000     -10.297370      -280.2057
  10   2.0000     -10.294149      -280.1180
  11   2.0000     -10.291845      -280.0553
  12   2.0000     -10.284451      -279.8541
  13   2.0000     -10.284163      -279.8463
  14   2.0000     -10.281262      -279.7674
  15   2.0000     -10.278112      -279.6816
  16   2.0000      -8.084021      -219.9774
  17   2.0000      -8.080197      -219.8733
  18   2.0000      -6.042684      -164.4298
  19   2.0000      -6.038821      -164.3247
  20   2.0000      -6.038732      -164.3223
  21   2.0000      -6.034836      -164.2162
  22   2.0000      -6.034603      -164.2099
  23   2.0000      -6.030872      -164.1084
  24   2.0000      -1.003662       -27.3110
  25   2.0000      -0.980684       -26.6858
  26   2.0000      -0.913518       -24.8581
  27   2.0000      -0.902973       -24.5711
  28   2.0000      -0.868601       -23.6358
  29   2.0000      -0.848957       -23.1013
  30   2.0000      -0.846235       -23.0272
  31   2.0000      -0.815889       -22.2015
  32   2.0000      -0.780716       -21.2444
  33   2.0000      -0.766273       -20.8513
  34   2.0000      -0.707274       -19.2459
  35   2.0000      -0.694384       -18.8952
  36   2.0000      -0.686517       -18.6811
  37   2.0000      -0.652857       -17.7651
  38   2.0000      -0.639498       -17.4016
  39   2.0000      -0.625564       -17.0225
  40   2.0000      -0.591704       -16.1011
  41   2.0000      -0.568871       -15.4798
  42   2.0000      -0.555780       -15.1236
  43   2.0000      -0.552432       -15.0324
  44   2.0000      -0.540838       -14.7169
  45   2.0000      -0.525209       -14.2917
  46   2.0000      -0.514367       -13.9966
  47   2.0000      -0.510945       -13.9035
  48   2.0000      -0.499563       -13.5938
  49   2.0000      -0.497812       -13.5462
  50   2.0000      -0.487907       -13.2766
  51   2.0000      -0.481750       -13.1091
  52   2.0000      -0.467470       -12.7205
  53   2.0000      -0.460420       -12.5287
  54   2.0000      -0.456194       -12.4137
  55   2.0000      -0.447904       -12.1881
  56   2.0000      -0.442956       -12.0534
  57   2.0000      -0.437286       -11.8992
  58   2.0000      -0.436124       -11.8675
  59   2.0000      -0.428255       -11.6534
  60   2.0000      -0.421585       -11.4719
  61   2.0000      -0.410723       -11.1763
  62   2.0000      -0.403544       -10.9810
  63   2.0000      -0.341697        -9.2980
  64   2.0000      -0.330667        -8.9979
  65   2.0000      -0.326150        -8.8750
  66   2.0000      -0.296687        -8.0733
  67   0.0000       0.035293         0.9604
  68   0.0000       0.055473         1.5095
  69   0.0000       0.112741         3.0678
  70   0.0000       0.113837         3.0977
  71   0.0000       0.119572         3.2537

MULLIKEN ATOMIC CHARGES
-----------------------
   0 S :    0.119865
   1 C :   -0.127735
   2 C :   -0.059671
   3 C :    0.038547
   4 C :   -0.166725
   5 H :    0.017987
   6 C :    0.040359
   7 H :    0.044275
   8 H :    0.042235
   9 C :   -0.090824
  10 H :    0.024121
  11 H :    0.030271
  12 C :   -0.088864
  13 H :    0.036896
  14 H :    0.043238
  15 H :    0.038624
  16 S :    0.117624
  17 C :   -0.109242
  18 C :   -0.046025
  19 C :   -0.018516
  20 C :   -0.183910
  21 H :    0.028445
  22 C :    0.065752
  23 H :    0.015294
  24 H :    0.031175
  25 C :   -0.060507
  26 H :    0.033133
  27 H :    0.037922
  28 C :   -0.063922
  29 H :    0.034202
  30 H :    0.024818
  31 H :    0.034202
  32 H :    0.050793
  33 H :    0.066162
Sum of atomic charges:    0.0000000

LOEWDIN ATOMIC CHARGES
----------------------
   0 S :    0.383283
   1 C :   -0.180414
   2 C :   -0.062077
   3 C :   -0.056225
   4 C :   -0.190577
   5 H :    0.034285
   6 C :   -0.036999
   7 H :    0.038757
   8 H :    0.037436
   9 C :   -0.051604
  10 H :    0.026367
  11 H :    0.020353
  12 C :   -0.068838
  13 H :    0.021402
  14 H :    0.031156
  15 H :    0.024400
  16 S :    0.402222
  17 C :   -0.192461
  18 C :   -0.074151
  19 C :   -0.056276
  20 C :   -0.200588
  21 H :    0.037482
  22 C :   -0.036012
  23 H :    0.027663
  24 H :    0.036253
  25 C :   -0.044027
  26 H :    0.023106
  27 H :    0.034287
  28 C :   -0.072232
  29 H :    0.025418
  30 H :    0.019635
  31 H :    0.030772
  32 H :    0.030722
  33 H :    0.037485

  Mayer bond orders larger than 0.100000
B(  0-S ,  1-C ) :   1.1267 B(  0-S ,  4-C ) :   1.1196 B(  1-C ,  2-C ) :   1.6319
B(  1-C , 32-H ) :   0.9709 B(  2-C ,  3-C ) :   1.2215 B(  2-C ,  6-C ) :   1.0178
B(  3-C ,  4-C ) :   1.6235 B(  3-C ,  5-H ) :   0.9849 B(  4-C , 20-C ) :   1.0222
B(  6-C ,  7-H ) :   0.9291 B(  6-C ,  8-H ) :   0.9471 B(  6-C ,  9-C ) :   1.0802
B(  9-C , 10-H ) :   0.9598 B(  9-C , 11-H ) :   0.9598 B(  9-C , 12-C ) :   1.0507
B( 12-C , 13-H ) :   0.9815 B( 12-C , 14-H ) :   0.9800 B( 12-C , 15-H ) :   0.9758
B( 16-S , 17-C ) :   1.1379 B( 16-S , 20-C ) :   1.1622 B( 17-C , 18-C ) :   1.6315
B( 17-C , 20-C ) :   0.1001 B( 17-C , 33-H ) :   0.9615 B( 18-C , 19-C ) :   1.2390
B( 18-C , 21-H ) :   0.9848 B( 19-C , 20-C ) :   1.5722 B( 19-C , 22-C ) :   1.0550
B( 22-C , 23-H ) :   0.9367 B( 22-C , 24-H ) :   0.9245 B( 22-C , 25-C ) :   1.0562
B( 25-C , 26-H ) :   0.9486 B( 25-C , 27-H ) :   0.9580 B( 25-C , 28-C ) :   1.0913
B( 28-C , 29-H ) :   0.9727 B( 28-C , 30-H ) :   0.9725 B( 28-C , 31-H ) :   0.9731

Dispersion correction           -0.015223225
FINAL SINGLE POINT ENERGY     -1339.871316505232

DIPOLE MOMENT
-------------
                                X             Y             Z
Electronic contribution:     -6.68768      20.57304     -17.64466
Nuclear contribution   :      6.82264     -20.99725      18.13158
                        -----------------------------------------
Total Dipole Moment    :      0.13497      -0.42420       0.48692
                        -----------------------------------------
Magnitude (a.u.)       :      0.65974
Magnitude (Debye)      :      1.67692

Rotational constants in cm-1:     0.016438     0.009700     0.008202
Rotational constants in MHz :   492.805844   290.790090   245.893533

                             ****ORCA TERMINATED NORMALLY****
TOTAL RUN TIME: 0 days 0 hours 0 minutes 21 seconds 384 msec
