                         Program Version 4.2.1 -  RELEASE  -
|  1> ! wB97X-D3 SP def2-SVP
|  2> %pal
|  3> nprocs 24
|  4> end
|  5>
|  6> * xyz 0 1
|  7> S 	 -121.835 	 53.6626 	 -36.9259
|  8> C 	 -121.081 	 54.0367 	 -38.4337
|  9> C 	 -121.983 	 53.9366 	 -39.4783
| 10> C 	 -123.303 	 53.6297 	 -39.0585
| 11> C 	 -123.358 	 53.2661 	 -37.7103
| 12> H 	 -124.203 	 53.673 	 -39.6207
| 13> C 	 -121.458 	 53.9205 	 -40.8789
| 14> H 	 -120.705 	 53.2088 	 -40.9549
| 15> H 	 -120.958 	 54.9022 	 -40.9872
| 16> C 	 -122.364 	 53.7794 	 -42.1149
| 17> H 	 -121.748 	 53.6929 	 -43.0016
| 18> H 	 -122.819 	 52.7739 	 -42.1847
| 19> C 	 -123.454 	 54.8984 	 -42.1862
| 20> H 	 -124.076 	 55.0393 	 -41.292
| 21> H 	 -123.167 	 55.9273 	 -42.5615
| 22> H 	 -124.125 	 54.5505 	 -42.9754
| 23> S 	 -124.525 	 53.2024 	 -35.215
| 24> C 	 -126.047 	 52.4314 	 -34.927
| 25> C 	 -126.611 	 52.0338 	 -36.1532
| 26> C 	 -125.735 	 52.1947 	 -37.2543
| 27> C 	 -124.518 	 52.8064 	 -36.9531
| 28> H 	 -127.583 	 51.5141 	 -36.0747
| 29> C 	 -126.349 	 51.8586 	 -38.6897
| 30> H 	 -126.923 	 50.9238 	 -38.6399
| 31> H 	 -125.696 	 51.7811 	 -39.4554
| 32> C 	 -127.321 	 52.8215 	 -39.1528
| 33> H 	 -126.859 	 53.8377 	 -39.0448
| 34> H 	 -128.206 	 52.7261 	 -38.5433
| 35> C 	 -127.713 	 52.5371 	 -40.6965
| 36> H 	 -126.84 	 52.4265 	 -41.3154
| 37> H 	 -128.288 	 53.3634 	 -41.1081
| 38> H 	 -128.315 	 51.6423 	 -40.7802
| 39> H 	 -120.029 	 54.1103 	 -38.5115
| 40> H 	 -126.514 	 52.3034 	 -34.011
| 41> *
| 42>
| 43>                          ****END OF INPUT****

CARTESIAN COORDINATES (ANGSTROEM)
---------------------------------
  S    -121.835000   53.662600  -36.925900
  C    -121.081000   54.036700  -38.433700
  C    -121.983000   53.936600  -39.478300
  C    -123.303000   53.629700  -39.058500
  C    -123.358000   53.266100  -37.710300
  H    -124.203000   53.673000  -39.620700
  C    -121.458000   53.920500  -40.878900
  H    -120.705000   53.208800  -40.954900
  H    -120.958000   54.902200  -40.987200
  C    -122.364000   53.779400  -42.114900
  H    -121.748000   53.692900  -43.001600
  H    -122.819000   52.773900  -42.184700
  C    -123.454000   54.898400  -42.186200
  H    -124.076000   55.039300  -41.292000
  H    -123.167000   55.927300  -42.561500
  H    -124.125000   54.550500  -42.975400
  S    -124.525000   53.202400  -35.215000
  C    -126.047000   52.431400  -34.927000
  C    -126.611000   52.033800  -36.153200
  C    -125.735000   52.194700  -37.254300
  C    -124.518000   52.806400  -36.953100
  H    -127.583000   51.514100  -36.074700
  C    -126.349000   51.858600  -38.689700
  H    -126.923000   50.923800  -38.639900
  H    -125.696000   51.781100  -39.455400
  C    -127.321000   52.821500  -39.152800
  H    -126.859000   53.837700  -39.044800
  H    -128.206000   52.726100  -38.543300
  C    -127.713000   52.537100  -40.696500
  H    -126.840000   52.426500  -41.315400
  H    -128.288000   53.363400  -41.108100
  H    -128.315000   51.642300  -40.780200
  H    -120.029000   54.110300  -38.511500
  H    -126.514000   52.303400  -34.011000

 Total Charge           Charge          ....    0
 Multiplicity           Mult            ....    1
 Number of Electrons    NEL             ....  134
 Basis Dimension        Dim             ....  322

ORBITAL ENERGIES
----------------

  NO   OCC          E(Eh)            E(eV)
   0   2.0000     -88.966352     -2420.8975
   1   2.0000     -88.965239     -2420.8672
   2   2.0000     -10.334651      -281.2201
   3   2.0000     -10.334291      -281.2103
   4   2.0000     -10.315951      -280.7113
   5   2.0000     -10.311565      -280.5920
   6   2.0000     -10.307512      -280.4817
   7   2.0000     -10.301113      -280.3075
   8   2.0000     -10.297822      -280.2180
   9   2.0000     -10.294854      -280.1372
  10   2.0000     -10.294743      -280.1342
  11   2.0000     -10.287115      -279.9266
  12   2.0000     -10.286246      -279.9030
  13   2.0000     -10.285901      -279.8936
  14   2.0000     -10.282588      -279.8034
  15   2.0000     -10.282428      -279.7991
  16   2.0000      -8.081259      -219.9022
  17   2.0000      -8.079906      -219.8654
  18   2.0000      -6.039757      -164.3502
  19   2.0000      -6.038405      -164.3134
  20   2.0000      -6.035704      -164.2399
  21   2.0000      -6.034354      -164.2031
  22   2.0000      -6.032075      -164.1411
  23   2.0000      -6.030741      -164.1048
  24   2.0000      -1.007193       -27.4071
  25   2.0000      -0.985388       -26.8138
  26   2.0000      -0.918594       -24.9962
  27   2.0000      -0.910834       -24.7851
  28   2.0000      -0.870305       -23.6822
  29   2.0000      -0.849157       -23.1067
  30   2.0000      -0.839991       -22.8573
  31   2.0000      -0.818477       -22.2719
  32   2.0000      -0.785817       -21.3832
  33   2.0000      -0.776659       -21.1340
  34   2.0000      -0.714778       -19.4501
  35   2.0000      -0.698510       -19.0074
  36   2.0000      -0.693987       -18.8843
  37   2.0000      -0.662673       -18.0323
  38   2.0000      -0.644894       -17.5485
  39   2.0000      -0.625518       -17.0212
  40   2.0000      -0.602521       -16.3954
  41   2.0000      -0.576977       -15.7003
  42   2.0000      -0.564035       -15.3482
  43   2.0000      -0.556467       -15.1422
  44   2.0000      -0.535076       -14.5602
  45   2.0000      -0.520684       -14.1685
  46   2.0000      -0.518365       -14.1054
  47   2.0000      -0.513348       -13.9689
  48   2.0000      -0.508240       -13.8299
  49   2.0000      -0.502016       -13.6606
  50   2.0000      -0.494357       -13.4521
  51   2.0000      -0.481131       -13.0922
  52   2.0000      -0.477861       -13.0033
  53   2.0000      -0.474321       -12.9069
  54   2.0000      -0.457756       -12.4562
  55   2.0000      -0.452221       -12.3056
  56   2.0000      -0.446259       -12.1433
  57   2.0000      -0.441775       -12.0213
  58   2.0000      -0.430868       -11.7245
  59   2.0000      -0.425777       -11.5860
  60   2.0000      -0.418923       -11.3995
  61   2.0000      -0.412737       -11.2312
  62   2.0000      -0.405112       -11.0237
  63   2.0000      -0.358488        -9.7550
  64   2.0000      -0.334061        -9.0903
  65   2.0000      -0.327405        -8.9091
  66   2.0000      -0.281192        -7.6516
  67   0.0000       0.016199         0.4408
  68   0.0000       0.081105         2.2070
  69   0.0000       0.098262         2.6739
  70   0.0000       0.115414         3.1406
  71   0.0000       0.123805         3.3689

MULLIKEN ATOMIC CHARGES
-----------------------
   0 S :    0.108558
   1 C :   -0.114378
   2 C :   -0.056070
   3 C :    0.007919
   4 C :   -0.114036
   5 H :   -0.006215
   6 C :    0.055207
   7 H :    0.023862
   8 H :    0.034254
   9 C :   -0.047921
  10 H :    0.022609
  11 H :    0.023972
  12 C :   -0.092017
  13 H :    0.046260
  14 H :    0.044790
  15 H :    0.029684
  16 S :    0.089260
  17 C :   -0.063651
  18 C :   -0.066620
  19 C :   -0.030665
  20 C :   -0.124461
  21 H :    0.036006
  22 C :    0.108644
  23 H :    0.015396
  24 H :   -0.020209
  25 C :   -0.095613
  26 H :    0.038544
  27 H :    0.026722
  28 C :   -0.053743
  29 H :    0.026827
  30 H :    0.039405
  31 H :    0.032849
  32 H :    0.039243
  33 H :    0.035589
Sum of atomic charges:   -0.0000000

LOEWDIN ATOMIC CHARGES
----------------------
   0 S :    0.412269
   1 C :   -0.198240
   2 C :   -0.057584
   3 C :   -0.064822
   4 C :   -0.181636
   5 H :    0.023781
   6 C :   -0.036084
   7 H :    0.024468
   8 H :    0.039628
   9 C :   -0.042525
  10 H :    0.029033
  11 H :    0.025601
  12 C :   -0.078252
  13 H :    0.026266
  14 H :    0.033219
  15 H :    0.027908
  16 S :    0.401178
  17 C :   -0.177303
  18 C :   -0.077459
  19 C :   -0.053118
  20 C :   -0.185801
  21 H :    0.038269
  22 C :   -0.025464
  23 H :    0.032032
  24 H :    0.005498
  25 C :   -0.035948
  26 H :    0.025969
  27 H :    0.019475
  28 C :   -0.061305
  29 H :    0.020265
  30 H :    0.028075
  31 H :    0.024337
  32 H :    0.021068
  33 H :    0.017200

  Mayer bond orders larger than 0.100000
B(  0-S ,  1-C ) :   1.1411 B(  0-S ,  4-C ) :   1.1634 B(  1-C ,  2-C ) :   1.5924
B(  1-C ,  4-C ) :   0.1038 B(  1-C , 32-H ) :   0.9796 B(  2-C ,  3-C ) :   1.2497
B(  2-C ,  6-C ) :   1.0018 B(  3-C ,  4-C ) :   1.5444 B(  3-C ,  5-H ) :   0.9926
B(  4-C , 20-C ) :   1.0791 B(  6-C ,  7-H ) :   0.9469 B(  6-C ,  8-H ) :   0.9332
B(  6-C ,  9-C ) :   1.0930 B(  9-C , 10-H ) :   0.9488 B(  9-C , 11-H ) :   0.9520
B(  9-C , 12-C ) :   1.0598 B( 12-C , 13-H ) :   0.9782 B( 12-C , 14-H ) :   0.9745
B( 12-C , 15-H ) :   0.9743 B( 16-S , 17-C ) :   1.1688 B( 16-S , 20-C ) :   1.1319
B( 17-C , 18-C ) :   1.5837 B( 17-C , 20-C ) :   0.1067 B( 17-C , 33-H ) :   0.9782
B( 18-C , 19-C ) :   1.2513 B( 18-C , 21-H ) :   0.9861 B( 19-C , 20-C ) :   1.5830
B( 19-C , 22-C ) :   1.0329 B( 22-C , 23-H ) :   0.9329 B( 22-C , 24-H ) :   0.9402
B( 22-C , 25-C ) :   1.0654 B( 25-C , 26-H ) :   0.9534 B( 25-C , 27-H ) :   0.9537
B( 25-C , 28-C ) :   1.0732 B( 28-C , 29-H ) :   0.9768 B( 28-C , 30-H ) :   0.9770
B( 28-C , 31-H ) :   0.9767

Dispersion correction           -0.014392956
FINAL SINGLE POINT ENERGY     -1339.854663640888

DIPOLE MOMENT
-------------
                                X             Y             Z
Electronic contribution:     12.12740      -0.36788      30.57838
Nuclear contribution   :    -12.41040       0.20200     -31.25274
                        -----------------------------------------
Total Dipole Moment    :     -0.28301      -0.16589      -0.67436
                        -----------------------------------------
Magnitude (a.u.)       :      0.74991
Magnitude (Debye)      :      1.90613

Rotational constants in cm-1:     0.016190     0.010704     0.006699
Rotational constants in MHz :   485.353735   320.902945   200.823579

                             ****ORCA TERMINATED NORMALLY****
TOTAL RUN TIME: 0 days 0 hours 0 minutes 22 seconds 315 msec
