                         Program Version 4.2.1 -  RELEASE  -
|  1> ! wB97X-D3 SP def2-SVP
|  2> %pal
|  3> nprocs 24
|  4> end
|  5>
|  6> * xyz 0 1
|  7> S 	 -63.362 	 -0.873146 	 -21.3565
|  8> C 	 -64.2885 	 -0.715167 	 -19.8916
|  9> C 	 -63.7102 	 -1.48746 	 -18.904
| 10> C 	 -62.3997 	 -1.91825 	 -19.2972
| 11> C 	 -62.0725 	 -1.68534 	 -20.6416
| 12> H 	 -61.6993 	 -2.41735 	 -18.7914
| 13> C 	 -64.2559 	 -1.77597 	 -17.5301
| 14> H 	 -64.7707 	 -0.930162 	 -17.0519
| 15> H 	 -63.363 	 -1.69694 	 -16.9297
| 16> C 	 -64.9642 	 -3.09596 	 -17.4297
| 17> H 	 -64.6251 	 -3.87584 	 -18.0874
| 18> H 	 -64.7814 	 -3.46407 	 -16.4197
| 19> C 	 -66.4356 	 -2.92377 	 -17.5237
| 20> H 	 -66.6575 	 -2.30011 	 -18.4099
| 21> H 	 -67.1479 	 -3.78154 	 -17.2721
| 22> H 	 -66.7314 	 -2.19281 	 -16.8291
| 23> S 	 -60.5047 	 -0.634024 	 -22.4594
| 24> C 	 -59.141 	 -1.55761 	 -23.1398
| 25> C 	 -58.9528 	 -2.79606 	 -22.5115
| 26> C 	 -59.9611 	 -2.94944 	 -21.4617
| 27> C 	 -60.9272 	 -1.96814 	 -21.4647
| 28> H 	 -58.244 	 -3.56012 	 -22.9078
| 29> C 	 -60.1575 	 -4.25582 	 -20.701
| 30> H 	 -60.4379 	 -4.14119 	 -19.6449
| 31> H 	 -59.1706 	 -4.79066 	 -20.6907
| 32> C 	 -61.1567 	 -5.21313 	 -21.3401
| 33> H 	 -60.8654 	 -6.19862 	 -20.894
| 34> H 	 -60.9701 	 -5.30297 	 -22.4402
| 35> C 	 -62.5778 	 -4.91088 	 -20.9651
| 36> H 	 -63.2632 	 -5.76236 	 -21.1815
| 37> H 	 -63.0016 	 -3.97692 	 -21.3387
| 38> H 	 -62.7576 	 -4.73494 	 -19.8492
| 39> H 	 -65.2719 	 -0.349777 	 -19.8428
| 40> H 	 -58.4675 	 -1.15355 	 -23.928
| 41> *
| 42>
| 43>                          ****END OF INPUT****

CARTESIAN COORDINATES (ANGSTROEM)
---------------------------------
  S    -63.362000   -0.873146  -21.356500
  C    -64.288500   -0.715167  -19.891600
  C    -63.710200   -1.487460  -18.904000
  C    -62.399700   -1.918250  -19.297200
  C    -62.072500   -1.685340  -20.641600
  H    -61.699300   -2.417350  -18.791400
  C    -64.255900   -1.775970  -17.530100
  H    -64.770700   -0.930162  -17.051900
  H    -63.363000   -1.696940  -16.929700
  C    -64.964200   -3.095960  -17.429700
  H    -64.625100   -3.875840  -18.087400
  H    -64.781400   -3.464070  -16.419700
  C    -66.435600   -2.923770  -17.523700
  H    -66.657500   -2.300110  -18.409900
  H    -67.147900   -3.781540  -17.272100
  H    -66.731400   -2.192810  -16.829100
  S    -60.504700   -0.634024  -22.459400
  C    -59.141000   -1.557610  -23.139800
  C    -58.952800   -2.796060  -22.511500
  C    -59.961100   -2.949440  -21.461700
  C    -60.927200   -1.968140  -21.464700
  H    -58.244000   -3.560120  -22.907800
  C    -60.157500   -4.255820  -20.701000
  H    -60.437900   -4.141190  -19.644900
  H    -59.170600   -4.790660  -20.690700
  C    -61.156700   -5.213130  -21.340100
  H    -60.865400   -6.198620  -20.894000
  H    -60.970100   -5.302970  -22.440200
  C    -62.577800   -4.910880  -20.965100
  H    -63.263200   -5.762360  -21.181500
  H    -63.001600   -3.976920  -21.338700
  H    -62.757600   -4.734940  -19.849200
  H    -65.271900   -0.349777  -19.842800
  H    -58.467500   -1.153550  -23.928000

 Total Charge           Charge          ....    0
 Multiplicity           Mult            ....    1
 Number of Electrons    NEL             ....  134
 Basis Dimension        Dim             ....  322

ORBITAL ENERGIES
----------------

  NO   OCC          E(Eh)            E(eV)
   0   2.0000     -88.966751     -2420.9084
   1   2.0000     -88.963508     -2420.8201
   2   2.0000     -10.325619      -280.9744
   3   2.0000     -10.325477      -280.9705
   4   2.0000     -10.323747      -280.9234
   5   2.0000     -10.308151      -280.4991
   6   2.0000     -10.307717      -280.4872
   7   2.0000     -10.307382      -280.4781
   8   2.0000     -10.303511      -280.3728
   9   2.0000     -10.293593      -280.1029
  10   2.0000     -10.291148      -280.0364
  11   2.0000     -10.288886      -279.9748
  12   2.0000     -10.284383      -279.8523
  13   2.0000     -10.282900      -279.8119
  14   2.0000     -10.276059      -279.6258
  15   2.0000     -10.275829      -279.6195
  16   2.0000      -8.081701      -219.9143
  17   2.0000      -8.079519      -219.8549
  18   2.0000      -6.040226      -164.3629
  19   2.0000      -6.037869      -164.2988
  20   2.0000      -6.036158      -164.2522
  21   2.0000      -6.033612      -164.1829
  22   2.0000      -6.032391      -164.1497
  23   2.0000      -6.030554      -164.0997
  24   2.0000      -1.017774       -27.6951
  25   2.0000      -0.986329       -26.8394
  26   2.0000      -0.925794       -25.1921
  27   2.0000      -0.910070       -24.7643
  28   2.0000      -0.877426       -23.8760
  29   2.0000      -0.850195       -23.1350
  30   2.0000      -0.843627       -22.9563
  31   2.0000      -0.816386       -22.2150
  32   2.0000      -0.785091       -21.3634
  33   2.0000      -0.772897       -21.0316
  34   2.0000      -0.711830       -19.3699
  35   2.0000      -0.699336       -19.0299
  36   2.0000      -0.687960       -18.7203
  37   2.0000      -0.667551       -18.1650
  38   2.0000      -0.650856       -17.7107
  39   2.0000      -0.621865       -16.9218
  40   2.0000      -0.597250       -16.2520
  41   2.0000      -0.579260       -15.7625
  42   2.0000      -0.559786       -15.2325
  43   2.0000      -0.548606       -14.9283
  44   2.0000      -0.539580       -14.6827
  45   2.0000      -0.530599       -14.4383
  46   2.0000      -0.521375       -14.1873
  47   2.0000      -0.512466       -13.9449
  48   2.0000      -0.507431       -13.8079
  49   2.0000      -0.499471       -13.5913
  50   2.0000      -0.489671       -13.3246
  51   2.0000      -0.483663       -13.1611
  52   2.0000      -0.475850       -12.9485
  53   2.0000      -0.468751       -12.7554
  54   2.0000      -0.462343       -12.5810
  55   2.0000      -0.444303       -12.0901
  56   2.0000      -0.441928       -12.0255
  57   2.0000      -0.434179       -11.8146
  58   2.0000      -0.431963       -11.7543
  59   2.0000      -0.423642       -11.5279
  60   2.0000      -0.421817       -11.4782
  61   2.0000      -0.405177       -11.0254
  62   2.0000      -0.399164       -10.8618
  63   2.0000      -0.355158        -9.6643
  64   2.0000      -0.331451        -9.0192
  65   2.0000      -0.327891        -8.9224
  66   2.0000      -0.288415        -7.8482
  67   0.0000       0.024514         0.6671
  68   0.0000       0.075093         2.0434
  69   0.0000       0.105290         2.8651
  70   0.0000       0.110356         3.0030
  71   0.0000       0.129799         3.5320

MULLIKEN ATOMIC CHARGES
-----------------------
   0 S :    0.101176
   1 C :   -0.086269
   2 C :   -0.103318
   3 C :    0.089272
   4 C :   -0.172055
   5 H :   -0.064394
   6 C :    0.039737
   7 H :    0.025374
   8 H :    0.018972
   9 C :   -0.012146
  10 H :    0.037634
  11 H :    0.019090
  12 C :   -0.031041
  13 H :    0.010327
  14 H :    0.054291
  15 H :   -0.007542
  16 S :    0.108101
  17 C :   -0.106472
  18 C :   -0.044455
  19 C :   -0.038394
  20 C :   -0.112453
  21 H :    0.048542
  22 C :    0.011084
  23 H :    0.026702
  24 H :    0.023167
  25 C :   -0.044169
  26 H :    0.027467
  27 H :    0.037963
  28 C :   -0.065682
  29 H :    0.036663
  30 H :    0.045180
  31 H :    0.022506
  32 H :    0.033354
  33 H :    0.071790
Sum of atomic charges:    0.0000000

LOEWDIN ATOMIC CHARGES
----------------------
   0 S :    0.439032
   1 C :   -0.200992
   2 C :   -0.053141
   3 C :   -0.058806
   4 C :   -0.209232
   5 H :    0.001648
   6 C :   -0.035041
   7 H :    0.036027
   8 H :    0.034760
   9 C :   -0.039258
  10 H :    0.025202
  11 H :    0.026476
  12 C :   -0.075441
  13 H :    0.026339
  14 H :    0.037874
  15 H :    0.015246
  16 S :    0.412978
  17 C :   -0.180931
  18 C :   -0.071265
  19 C :   -0.057217
  20 C :   -0.212052
  21 H :    0.044373
  22 C :   -0.039348
  23 H :    0.027962
  24 H :    0.032906
  25 C :   -0.042700
  26 H :    0.028795
  27 H :    0.030563
  28 C :   -0.079534
  29 H :    0.028899
  30 H :    0.024564
  31 H :    0.027890
  32 H :    0.018329
  33 H :    0.035094

  Mayer bond orders larger than 0.100000
B(  0-S ,  1-C ) :   1.1402 B(  0-S ,  4-C ) :   1.1832 B(  1-C ,  2-C ) :   1.5845
B(  1-C ,  4-C ) :   0.1014 B(  1-C , 32-H ) :   0.9757 B(  2-C ,  3-C ) :   1.2477
B(  2-C ,  6-C ) :   1.0203 B(  3-C ,  4-C ) :   1.5413 B(  3-C ,  5-H ) :   1.0159
B(  4-C , 20-C ) :   1.0249 B(  6-C ,  7-H ) :   0.9455 B(  6-C ,  8-H ) :   0.9362
B(  6-C ,  9-C ) :   1.0459 B(  9-C , 10-H ) :   0.9567 B(  9-C , 11-H ) :   0.9471
B(  9-C , 12-C ) :   1.0899 B( 12-C , 13-H ) :   0.9650 B( 12-C , 14-H ) :   0.9705
B( 12-C , 15-H ) :   0.9642 B( 16-S , 17-C ) :   1.1474 B( 16-S , 20-C ) :   1.1426
B( 17-C , 18-C ) :   1.6237 B( 17-C , 20-C ) :   0.1006 B( 17-C , 33-H ) :   0.9631
B( 18-C , 19-C ) :   1.2151 B( 18-C , 21-H ) :   0.9820 B( 19-C , 20-C ) :   1.6052
B( 19-C , 22-C ) :   1.0619 B( 22-C , 23-H ) :   0.9371 B( 22-C , 24-H ) :   0.9337
B( 22-C , 25-C ) :   1.0713 B( 25-C , 26-H ) :   0.9500 B( 25-C , 27-H ) :   0.9488
B( 25-C , 28-C ) :   1.0885 B( 28-C , 29-H ) :   0.9689 B( 28-C , 30-H ) :   0.9661
B( 28-C , 31-H ) :   0.9645

Dispersion correction           -0.016250466
FINAL SINGLE POINT ENERGY     -1339.853755919500

DIPOLE MOMENT
-------------
                                X             Y             Z
Electronic contribution:     12.04455      18.95209     -16.69841
Nuclear contribution   :    -11.99266     -19.41292      17.11417
                        -----------------------------------------
Total Dipole Moment    :      0.05189      -0.46083       0.41576
                        -----------------------------------------
Magnitude (a.u.)       :      0.62283
Magnitude (Debye)      :      1.58310

Rotational constants in cm-1:     0.024598     0.009061     0.007337
Rotational constants in MHz :   737.423356   271.632108   219.962143

                             ****ORCA TERMINATED NORMALLY****
TOTAL RUN TIME: 0 days 0 hours 0 minutes 23 seconds 524 msec
