                         Program Version 4.2.1 -  RELEASE  -
|  1> ! wB97X-D3 SP def2-SVP
|  2> %pal
|  3> nprocs 24
|  4> end
|  5>
|  6> * xyz 0 1
|  7> S 	 -35.7415 	 -41.2934 	 -77.4042
|  8> C 	 -36.7643 	 -39.8934 	 -77.134
|  9> C 	 -38.1603 	 -40.1685 	 -77.0675
| 10> C 	 -38.365 	 -41.5503 	 -77.2285
| 11> C 	 -37.1899 	 -42.3149 	 -77.4746
| 12> H 	 -39.2957 	 -42.0206 	 -77.4006
| 13> C 	 -39.294 	 -39.2273 	 -76.8726
| 14> H 	 -40.2847 	 -39.8138 	 -76.7803
| 15> H 	 -39.3541 	 -38.556 	 -77.6758
| 16> C 	 -39.0595 	 -38.4124 	 -75.5931
| 17> H 	 -39.1344 	 -39.0115 	 -74.6761
| 18> H 	 -38.0664 	 -37.9533 	 -75.5829
| 19> C 	 -40.0381 	 -37.2447 	 -75.5931
| 20> H 	 -39.8279 	 -36.586 	 -74.7632
| 21> H 	 -40.1094 	 -36.6516 	 -76.5259
| 22> H 	 -41.0228 	 -37.7221 	 -75.4914
| 23> S 	 -36.8697 	 -45.0006 	 -76.6475
| 24> C 	 -36.8131 	 -46.298 	 -77.9124
| 25> C 	 -37.2042 	 -45.7523 	 -79.1081
| 26> C 	 -37.3824 	 -44.3117 	 -79.0548
| 27> C 	 -37.0806 	 -43.7386 	 -77.8334
| 28> H 	 -37.3867 	 -46.3993 	 -79.9399
| 29> C 	 -37.7081 	 -43.5035 	 -80.3134
| 30> H 	 -37.2577 	 -44.0118 	 -81.1814
| 31> H 	 -37.1804 	 -42.5666 	 -80.3568
| 32> C 	 -39.1997 	 -43.2508 	 -80.5729
| 33> H 	 -39.45 	 -42.6754 	 -79.712
| 34> H 	 -39.8783 	 -44.0776 	 -80.4497
| 35> C 	 -39.6104 	 -42.544 	 -81.8783
| 36> H 	 -40.6504 	 -42.2188 	 -82.0262
| 37> H 	 -39.4098 	 -43.3461 	 -82.629
| 38> H 	 -38.9748 	 -41.6996 	 -82.2086
| 39> H 	 -36.2596 	 -38.9594 	 -76.8897
| 40> H 	 -36.687 	 -47.3701 	 -77.737
| 41> *
| 42>
| 43>                          ****END OF INPUT****

CARTESIAN COORDINATES (ANGSTROEM)
---------------------------------
  S    -35.741500  -41.293400  -77.404200
  C    -36.764300  -39.893400  -77.134000
  C    -38.160300  -40.168500  -77.067500
  C    -38.365000  -41.550300  -77.228500
  C    -37.189900  -42.314900  -77.474600
  H    -39.295700  -42.020600  -77.400600
  C    -39.294000  -39.227300  -76.872600
  H    -40.284700  -39.813800  -76.780300
  H    -39.354100  -38.556000  -77.675800
  C    -39.059500  -38.412400  -75.593100
  H    -39.134400  -39.011500  -74.676100
  H    -38.066400  -37.953300  -75.582900
  C    -40.038100  -37.244700  -75.593100
  H    -39.827900  -36.586000  -74.763200
  H    -40.109400  -36.651600  -76.525900
  H    -41.022800  -37.722100  -75.491400
  S    -36.869700  -45.000600  -76.647500
  C    -36.813100  -46.298000  -77.912400
  C    -37.204200  -45.752300  -79.108100
  C    -37.382400  -44.311700  -79.054800
  C    -37.080600  -43.738600  -77.833400
  H    -37.386700  -46.399300  -79.939900
  C    -37.708100  -43.503500  -80.313400
  H    -37.257700  -44.011800  -81.181400
  H    -37.180400  -42.566600  -80.356800
  C    -39.199700  -43.250800  -80.572900
  H    -39.450000  -42.675400  -79.712000
  H    -39.878300  -44.077600  -80.449700
  C    -39.610400  -42.544000  -81.878300
  H    -40.650400  -42.218800  -82.026200
  H    -39.409800  -43.346100  -82.629000
  H    -38.974800  -41.699600  -82.208600
  H    -36.259600  -38.959400  -76.889700
  H    -36.687000  -47.370100  -77.737000

 Total Charge           Charge          ....    0
 Multiplicity           Mult            ....    1
 Number of Electrons    NEL             ....  134
 Basis Dimension        Dim             ....  322

ORBITAL ENERGIES
----------------

  NO   OCC          E(Eh)            E(eV)
   0   2.0000     -88.972100     -2421.0539
   1   2.0000     -88.961832     -2420.7745
   2   2.0000     -10.333788      -281.1967
   3   2.0000     -10.326108      -280.9877
   4   2.0000     -10.323035      -280.9041
   5   2.0000     -10.320268      -280.8288
   6   2.0000     -10.305049      -280.4146
   7   2.0000     -10.304612      -280.4028
   8   2.0000     -10.296248      -280.1752
   9   2.0000     -10.295474      -280.1541
  10   2.0000     -10.295395      -280.1519
  11   2.0000     -10.289086      -279.9803
  12   2.0000     -10.287305      -279.9318
  13   2.0000     -10.282455      -279.7998
  14   2.0000     -10.279910      -279.7306
  15   2.0000     -10.277845      -279.6744
  16   2.0000      -8.085942      -220.0297
  17   2.0000      -8.075883      -219.7560
  18   2.0000      -6.044242      -164.4722
  19   2.0000      -6.040482      -164.3699
  20   2.0000      -6.037084      -164.2774
  21   2.0000      -6.034626      -164.2105
  22   2.0000      -6.030502      -164.0983
  23   2.0000      -6.026400      -163.9867
  24   2.0000      -0.999132       -27.1878
  25   2.0000      -0.978408       -26.6238
  26   2.0000      -0.918531       -24.9945
  27   2.0000      -0.902196       -24.5500
  28   2.0000      -0.866187       -23.5702
  29   2.0000      -0.854746       -23.2588
  30   2.0000      -0.841462       -22.8973
  31   2.0000      -0.812265       -22.1029
  32   2.0000      -0.779858       -21.2210
  33   2.0000      -0.765858       -20.8401
  34   2.0000      -0.706019       -19.2118
  35   2.0000      -0.700205       -19.0535
  36   2.0000      -0.692152       -18.8344
  37   2.0000      -0.658575       -17.9207
  38   2.0000      -0.647813       -17.6279
  39   2.0000      -0.619675       -16.8622
  40   2.0000      -0.593874       -16.1601
  41   2.0000      -0.576089       -15.6762
  42   2.0000      -0.564471       -15.3600
  43   2.0000      -0.554525       -15.0894
  44   2.0000      -0.526028       -14.3139
  45   2.0000      -0.522894       -14.2287
  46   2.0000      -0.514395       -13.9974
  47   2.0000      -0.511718       -13.9246
  48   2.0000      -0.509688       -13.8693
  49   2.0000      -0.503896       -13.7117
  50   2.0000      -0.483674       -13.1614
  51   2.0000      -0.474467       -12.9109
  52   2.0000      -0.467200       -12.7132
  53   2.0000      -0.464847       -12.6491
  54   2.0000      -0.458507       -12.4766
  55   2.0000      -0.449448       -12.2301
  56   2.0000      -0.445139       -12.1128
  57   2.0000      -0.439605       -11.9623
  58   2.0000      -0.434165       -11.8142
  59   2.0000      -0.426667       -11.6102
  60   2.0000      -0.418556       -11.3895
  61   2.0000      -0.416854       -11.3432
  62   2.0000      -0.401275       -10.9192
  63   2.0000      -0.339040        -9.2257
  64   2.0000      -0.331486        -9.0202
  65   2.0000      -0.315494        -8.5850
  66   2.0000      -0.307306        -8.3622
  67   0.0000       0.035899         0.9769
  68   0.0000       0.049973         1.3598
  69   0.0000       0.111248         3.0272
  70   0.0000       0.114672         3.1204
  71   0.0000       0.125879         3.4253

MULLIKEN ATOMIC CHARGES
-----------------------
   0 S :    0.127249
   1 C :   -0.143858
   2 C :   -0.071896
   3 C :    0.071848
   4 C :   -0.216883
   5 H :    0.008035
   6 C :    0.090597
   7 H :    0.042398
   8 H :    0.022901
   9 C :   -0.115346
  10 H :    0.042273
  11 H :    0.029329
  12 C :   -0.039651
  13 H :    0.035431
  14 H :    0.033655
  15 H :    0.021497
  16 S :    0.092183
  17 C :   -0.103202
  18 C :   -0.010007
  19 C :   -0.031105
  20 C :   -0.149148
  21 H :    0.017266
  22 C :    0.079432
  23 H :    0.010580
  24 H :    0.023045
  25 C :   -0.042766
  26 H :   -0.002585
  27 H :    0.018814
  28 C :   -0.066688
  29 H :    0.044108
  30 H :    0.027567
  31 H :    0.032622
  32 H :    0.055875
  33 H :    0.066428
Sum of atomic charges:   -0.0000000

LOEWDIN ATOMIC CHARGES
----------------------
   0 S :    0.415474
   1 C :   -0.198322
   2 C :   -0.061292
   3 C :   -0.049637
   4 C :   -0.193325
   5 H :    0.024051
   6 C :   -0.026505
   7 H :    0.042204
   8 H :    0.026467
   9 C :   -0.037919
  10 H :    0.029704
  11 H :    0.021183
  12 C :   -0.068419
  13 H :    0.023389
  14 H :    0.026352
  15 H :    0.024469
  16 S :    0.378619
  17 C :   -0.166133
  18 C :   -0.066118
  19 C :   -0.051394
  20 C :   -0.211276
  21 H :    0.030489
  22 C :   -0.028211
  23 H :    0.025114
  24 H :    0.030557
  25 C :   -0.045319
  26 H :    0.014857
  27 H :    0.022694
  28 C :   -0.073700
  29 H :    0.029983
  30 H :    0.028608
  31 H :    0.025681
  32 H :    0.021847
  33 H :    0.035826

  Mayer bond orders larger than 0.100000
B(  0-S ,  1-C ) :   1.1722 B(  0-S ,  4-C ) :   1.1694 B(  1-C ,  2-C ) :   1.5447
B(  1-C ,  4-C ) :   0.1179 B(  1-C , 32-H ) :   0.9663 B(  2-C ,  3-C ) :   1.2967
B(  2-C ,  6-C ) :   1.0168 B(  3-C ,  4-C ) :   1.5459 B(  3-C ,  5-H ) :   0.9878
B(  4-C , 20-C ) :   1.0193 B(  6-C ,  7-H ) :   0.9435 B(  6-C ,  8-H ) :   0.9322
B(  6-C ,  9-C ) :   1.0590 B(  9-C , 10-H ) :   0.9558 B(  9-C , 11-H ) :   0.9603
B(  9-C , 12-C ) :   1.0799 B( 12-C , 13-H ) :   0.9733 B( 12-C , 14-H ) :   0.9759
B( 12-C , 15-H ) :   0.9714 B( 16-S , 17-C ) :   1.1349 B( 16-S , 20-C ) :   1.1306
B( 17-C , 18-C ) :   1.6304 B( 17-C , 33-H ) :   0.9668 B( 18-C , 19-C ) :   1.2266
B( 18-C , 21-H ) :   0.9915 B( 19-C , 20-C ) :   1.6133 B( 19-C , 22-C ) :   1.0437
B( 22-C , 23-H ) :   0.9430 B( 22-C , 24-H ) :   0.9296 B( 22-C , 25-C ) :   1.0465
B( 25-C , 26-H ) :   0.9477 B( 25-C , 27-H ) :   0.9579 B( 25-C , 28-C ) :   1.0719
B( 28-C , 29-H ) :   0.9756 B( 28-C , 30-H ) :   0.9760 B( 28-C , 31-H ) :   0.9758

Dispersion correction           -0.014343875
FINAL SINGLE POINT ENERGY     -1339.872059867400

DIPOLE MOMENT
-------------
                                X             Y             Z
Electronic contribution:     19.54089     -17.41154       9.62099
Nuclear contribution   :    -20.01766      17.67864      -9.91958
                        -----------------------------------------
Total Dipole Moment    :     -0.47677       0.26710      -0.29859
                        -----------------------------------------
Magnitude (a.u.)       :      0.62274
Magnitude (Debye)      :      1.58288

Rotational constants in cm-1:     0.019112     0.007933     0.006524
Rotational constants in MHz :   572.978042   237.835293   195.589422

                             ****ORCA TERMINATED NORMALLY****
TOTAL RUN TIME: 0 days 0 hours 0 minutes 21 seconds 322 msec
