                         Program Version 4.2.1 -  RELEASE  -
|  1> ! wB97X-D3 SP def2-SVP
|  2> %pal
|  3> nprocs 24
|  4> end
|  5>
|  6> * xyz 0 1
|  7> S 	 -50.9739 	 -49.7099 	 -76.0347
|  8> C 	 -51.7234 	 -48.1595 	 -75.71
|  9> C 	 -51.2264 	 -47.237 	 -76.6085
| 10> C 	 -50.0538 	 -47.6354 	 -77.3158
| 11> C 	 -49.8594 	 -48.9654 	 -77.2678
| 12> H 	 -49.4437 	 -46.9251 	 -77.8229
| 13> C 	 -51.6585 	 -45.8475 	 -76.6417
| 14> H 	 -50.8029 	 -45.1889 	 -76.5779
| 15> H 	 -52.1767 	 -45.6654 	 -75.6642
| 16> C 	 -52.5013 	 -45.5045 	 -77.8218
| 17> H 	 -52.7725 	 -44.4706 	 -77.9206
| 18> H 	 -51.713 	 -45.5519 	 -78.6243
| 19> C 	 -53.6863 	 -46.3365 	 -78.1523
| 20> H 	 -54.4859 	 -46.1633 	 -77.4198
| 21> H 	 -54.0916 	 -45.876 	 -79.099
| 22> H 	 -53.504 	 -47.412 	 -78.2681
| 23> S 	 -47.2553 	 -49.5363 	 -76.7002
| 24> C 	 -46.3122 	 -50.6073 	 -77.7043
| 25> C 	 -47.0176 	 -50.9583 	 -78.7709
| 26> C 	 -48.3805 	 -50.4163 	 -78.8619
| 27> C 	 -48.6755 	 -49.645 	 -77.7307
| 28> H 	 -46.513 	 -51.6428 	 -79.3941
| 29> C 	 -49.3081 	 -50.614 	 -80.067
| 30> H 	 -49.0365 	 -51.3863 	 -80.805
| 31> H 	 -49.2839 	 -49.7384 	 -80.6277
| 32> C 	 -50.764 	 -50.9506 	 -79.7681
| 33> H 	 -51.2076 	 -50.0662 	 -79.2091
| 34> H 	 -50.9511 	 -51.825 	 -79.1528
| 35> C 	 -51.7061 	 -50.9943 	 -80.9582
| 36> H 	 -51.2556 	 -51.5602 	 -81.7172
| 37> H 	 -51.8511 	 -50.0047 	 -81.3412
| 38> H 	 -52.721 	 -51.3435 	 -80.6337
| 39> H 	 -52.6631 	 -48.0133 	 -75.0887
| 40> H 	 -45.3803 	 -51.0689 	 -77.4082
| 41> *
| 42>
| 43>                          ****END OF INPUT****

CARTESIAN COORDINATES (ANGSTROEM)
---------------------------------
  S    -50.973900  -49.709900  -76.034700
  C    -51.723400  -48.159500  -75.710000
  C    -51.226400  -47.237000  -76.608500
  C    -50.053800  -47.635400  -77.315800
  C    -49.859400  -48.965400  -77.267800
  H    -49.443700  -46.925100  -77.822900
  C    -51.658500  -45.847500  -76.641700
  H    -50.802900  -45.188900  -76.577900
  H    -52.176700  -45.665400  -75.664200
  C    -52.501300  -45.504500  -77.821800
  H    -52.772500  -44.470600  -77.920600
  H    -51.713000  -45.551900  -78.624300
  C    -53.686300  -46.336500  -78.152300
  H    -54.485900  -46.163300  -77.419800
  H    -54.091600  -45.876000  -79.099000
  H    -53.504000  -47.412000  -78.268100
  S    -47.255300  -49.536300  -76.700200
  C    -46.312200  -50.607300  -77.704300
  C    -47.017600  -50.958300  -78.770900
  C    -48.380500  -50.416300  -78.861900
  C    -48.675500  -49.645000  -77.730700
  H    -46.513000  -51.642800  -79.394100
  C    -49.308100  -50.614000  -80.067000
  H    -49.036500  -51.386300  -80.805000
  H    -49.283900  -49.738400  -80.627700
  C    -50.764000  -50.950600  -79.768100
  H    -51.207600  -50.066200  -79.209100
  H    -50.951100  -51.825000  -79.152800
  C    -51.706100  -50.994300  -80.958200
  H    -51.255600  -51.560200  -81.717200
  H    -51.851100  -50.004700  -81.341200
  H    -52.721000  -51.343500  -80.633700
  H    -52.663100  -48.013300  -75.088700
  H    -45.380300  -51.068900  -77.408200

 Total Charge           Charge          ....    0
 Multiplicity           Mult            ....    1
 Number of Electrons    NEL             ....  134
 Basis Dimension        Dim             ....  322

ORBITAL ENERGIES
----------------

  NO   OCC          E(Eh)            E(eV)
   0   2.0000     -88.963262     -2420.8134
   1   2.0000     -88.957807     -2420.6650
   2   2.0000     -10.330425      -281.1052
   3   2.0000     -10.326587      -281.0007
   4   2.0000     -10.320510      -280.8354
   5   2.0000     -10.313391      -280.6416
   6   2.0000     -10.310389      -280.5600
   7   2.0000     -10.293705      -280.1060
   8   2.0000     -10.292338      -280.0688
   9   2.0000     -10.289640      -279.9953
  10   2.0000     -10.287894      -279.9478
  11   2.0000     -10.282889      -279.8116
  12   2.0000     -10.281760      -279.7809
  13   2.0000     -10.279421      -279.7173
  14   2.0000     -10.278505      -279.6923
  15   2.0000     -10.270252      -279.4678
  16   2.0000      -8.076997      -219.7863
  17   2.0000      -8.073054      -219.6790
  18   2.0000      -6.035736      -164.2407
  19   2.0000      -6.031669      -164.1301
  20   2.0000      -6.031667      -164.1300
  21   2.0000      -6.027517      -164.0171
  22   2.0000      -6.027409      -164.0141
  23   2.0000      -6.023728      -163.9140
  24   2.0000      -1.006475       -27.3876
  25   2.0000      -0.985084       -26.8055
  26   2.0000      -0.921861       -25.0851
  27   2.0000      -0.908865       -24.7315
  28   2.0000      -0.876389       -23.8478
  29   2.0000      -0.850266       -23.1369
  30   2.0000      -0.845577       -23.0093
  31   2.0000      -0.823178       -22.3998
  32   2.0000      -0.784092       -21.3362
  33   2.0000      -0.771618       -20.9968
  34   2.0000      -0.713331       -19.4107
  35   2.0000      -0.690794       -18.7975
  36   2.0000      -0.686982       -18.6937
  37   2.0000      -0.655877       -17.8473
  38   2.0000      -0.639507       -17.4019
  39   2.0000      -0.624164       -16.9844
  40   2.0000      -0.597306       -16.2535
  41   2.0000      -0.576079       -15.6759
  42   2.0000      -0.569145       -15.4872
  43   2.0000      -0.555880       -15.1263
  44   2.0000      -0.547261       -14.8917
  45   2.0000      -0.525417       -14.2973
  46   2.0000      -0.516755       -14.0616
  47   2.0000      -0.514115       -13.9898
  48   2.0000      -0.507830       -13.8188
  49   2.0000      -0.501833       -13.6556
  50   2.0000      -0.492245       -13.3947
  51   2.0000      -0.486664       -13.2428
  52   2.0000      -0.473711       -12.8903
  53   2.0000      -0.462727       -12.5914
  54   2.0000      -0.458902       -12.4874
  55   2.0000      -0.448354       -12.2003
  56   2.0000      -0.438096       -11.9212
  57   2.0000      -0.434506       -11.8235
  58   2.0000      -0.431399       -11.7390
  59   2.0000      -0.418763       -11.3951
  60   2.0000      -0.416427       -11.3315
  61   2.0000      -0.402644       -10.9565
  62   2.0000      -0.397887       -10.8270
  63   2.0000      -0.340280        -9.2595
  64   2.0000      -0.330727        -8.9995
  65   2.0000      -0.318570        -8.6687
  66   2.0000      -0.309852        -8.4315
  67   0.0000       0.041613         1.1323
  68   0.0000       0.050515         1.3746
  69   0.0000       0.110966         3.0195
  70   0.0000       0.117744         3.2040
  71   0.0000       0.134383         3.6567

MULLIKEN ATOMIC CHARGES
-----------------------
   0 S :    0.097393
   1 C :   -0.134252
   2 C :   -0.115969
   3 C :    0.039727
   4 C :   -0.129818
   5 H :    0.015258
   6 C :    0.076598
   7 H :    0.020858
   8 H :    0.011503
   9 C :   -0.071552
  10 H :    0.020598
  11 H :    0.009014
  12 C :   -0.045758
  13 H :    0.027491
  14 H :    0.035531
  15 H :    0.054437
  16 S :    0.100079
  17 C :   -0.086991
  18 C :   -0.022952
  19 C :    0.007835
  20 C :   -0.186444
  21 H :    0.000261
  22 C :    0.116542
  23 H :    0.015505
  24 H :    0.015654
  25 C :   -0.152257
  26 H :    0.048258
  27 H :    0.035886
  28 C :   -0.012857
  29 H :    0.010224
  30 H :    0.017248
  31 H :    0.042909
  32 H :    0.081115
  33 H :    0.058924
Sum of atomic charges:    0.0000000

LOEWDIN ATOMIC CHARGES
----------------------
   0 S :    0.373973
   1 C :   -0.198498
   2 C :   -0.071636
   3 C :   -0.044037
   4 C :   -0.174498
   5 H :    0.032403
   6 C :   -0.040730
   7 H :    0.031112
   8 H :    0.026939
   9 C :   -0.052631
  10 H :    0.023435
  11 H :    0.025033
  12 C :   -0.067569
  13 H :    0.025011
  14 H :    0.036551
  15 H :    0.028383
  16 S :    0.397014
  17 C :   -0.181418
  18 C :   -0.072503
  19 C :   -0.042272
  20 C :   -0.197614
  21 H :    0.025874
  22 C :   -0.030466
  23 H :    0.031217
  24 H :    0.027378
  25 C :   -0.051458
  26 H :    0.030217
  27 H :    0.021675
  28 C :   -0.058479
  29 H :    0.010761
  30 H :    0.019843
  31 H :    0.036212
  32 H :    0.046513
  33 H :    0.034265

  Mayer bond orders larger than 0.100000
B(  0-S ,  1-C ) :   1.1288 B(  0-S ,  4-C ) :   1.1178 B(  1-C ,  2-C ) :   1.6278
B(  1-C , 32-H ) :   0.9539 B(  2-C ,  3-C ) :   1.2075 B(  2-C ,  6-C ) :   1.0385
B(  3-C ,  4-C ) :   1.6065 B(  3-C ,  5-H ) :   0.9979 B(  4-C , 20-C ) :   1.0283
B(  6-C ,  7-H ) :   0.9377 B(  6-C ,  8-H ) :   0.9388 B(  6-C ,  9-C ) :   1.0652
B(  9-C , 10-H ) :   0.9515 B(  9-C , 11-H ) :   0.9469 B(  9-C , 12-C ) :   1.0896
B( 12-C , 13-H ) :   0.9712 B( 12-C , 14-H ) :   0.9686 B( 12-C , 15-H ) :   0.9694
B( 16-S , 17-C ) :   1.1333 B( 16-S , 20-C ) :   1.1425 B( 17-C , 18-C ) :   1.6659
B( 17-C , 33-H ) :   0.9630 B( 18-C , 19-C ) :   1.1976 B( 18-C , 21-H ) :   0.9978
B( 19-C , 20-C ) :   1.6087 B( 19-C , 22-C ) :   1.0316 B( 22-C , 23-H ) :   0.9388
B( 22-C , 24-H ) :   0.9273 B( 22-C , 25-C ) :   1.0582 B( 25-C , 26-H ) :   0.9480
B( 25-C , 27-H ) :   0.9644 B( 25-C , 28-C ) :   1.0855 B( 28-C , 29-H ) :   0.9720
B( 28-C , 30-H ) :   0.9757 B( 28-C , 31-H ) :   0.9722

Dispersion correction           -0.014970643
FINAL SINGLE POINT ENERGY     -1339.860432583574

DIPOLE MOMENT
-------------
                                X             Y             Z
Electronic contribution:     18.69182      -7.75498      16.73195
Nuclear contribution   :    -18.82861       8.05142     -17.13569
                        -----------------------------------------
Total Dipole Moment    :     -0.13679       0.29645      -0.40374
                        -----------------------------------------
Magnitude (a.u.)       :      0.51923
Magnitude (Debye)      :      1.31977

Rotational constants in cm-1:     0.018783     0.009510     0.007561
Rotational constants in MHz :   563.107477   285.096387   226.673212

                             ****ORCA TERMINATED NORMALLY****
TOTAL RUN TIME: 0 days 0 hours 0 minutes 21 seconds 191 msec
