                         Program Version 4.2.1 -  RELEASE  -
|  1> ! wB97X-D3 SP def2-SVP
|  2> %pal
|  3> nprocs 24
|  4> end
|  5>
|  6> * xyz 0 1
|  7> S 	 -124.992 	 26.4974 	 -110.14
|  8> C 	 -123.592 	 25.4136 	 -110.013
|  9> C 	 -123.086 	 25.032 	 -111.26
| 10> C 	 -124.178 	 25.2523 	 -112.227
| 11> C 	 -125.297 	 25.964 	 -111.762
| 12> H 	 -124.245 	 24.9083 	 -113.346
| 13> C 	 -121.702 	 24.3998 	 -111.591
| 14> H 	 -121.205 	 25.0666 	 -112.306
| 15> H 	 -121.881 	 23.4784 	 -112.092
| 16> C 	 -120.669 	 24.2632 	 -110.517
| 17> H 	 -121.057 	 23.8011 	 -109.623
| 18> H 	 -119.885 	 23.5892 	 -110.918
| 19> C 	 -120.006 	 25.5734 	 -110.098
| 20> H 	 -119.556 	 26.1156 	 -110.891
| 21> H 	 -120.758 	 26.1945 	 -109.586
| 22> H 	 -119.138 	 25.5121 	 -109.41
| 23> S 	 -127.67 	 25.0544 	 -112.594
| 24> C 	 -128.741 	 26.046 	 -113.496
| 25> C 	 -128.332 	 27.4082 	 -113.535
| 26> C 	 -127.064 	 27.5727 	 -112.869
| 27> C 	 -126.531 	 26.3546 	 -112.396
| 28> H 	 -128.894 	 28.0993 	 -114.189
| 29> C 	 -126.292 	 28.8984 	 -112.872
| 30> H 	 -126.117 	 29.2999 	 -113.884
| 31> H 	 -125.318 	 28.7383 	 -112.515
| 32> C 	 -126.999 	 29.9674 	 -111.961
| 33> H 	 -127.168 	 29.672 	 -110.876
| 34> H 	 -127.989 	 30.2868 	 -112.279
| 35> C 	 -126.242 	 31.2801 	 -112.055
| 36> H 	 -126.761 	 32.1673 	 -111.619
| 37> H 	 -126.126 	 31.5171 	 -113.136
| 38> H 	 -125.303 	 31.1858 	 -111.603
| 39> H 	 -122.856 	 25.3115 	 -109.168
| 40> H 	 -129.644 	 25.7685 	 -113.957
| 41> *
| 42>
| 43>                          ****END OF INPUT****

CARTESIAN COORDINATES (ANGSTROEM)
---------------------------------
  S    -124.992000   26.497400  -110.140000
  C    -123.592000   25.413600  -110.013000
  C    -123.086000   25.032000  -111.260000
  C    -124.178000   25.252300  -112.227000
  C    -125.297000   25.964000  -111.762000
  H    -124.245000   24.908300  -113.346000
  C    -121.702000   24.399800  -111.591000
  H    -121.205000   25.066600  -112.306000
  H    -121.881000   23.478400  -112.092000
  C    -120.669000   24.263200  -110.517000
  H    -121.057000   23.801100  -109.623000
  H    -119.885000   23.589200  -110.918000
  C    -120.006000   25.573400  -110.098000
  H    -119.556000   26.115600  -110.891000
  H    -120.758000   26.194500  -109.586000
  H    -119.138000   25.512100  -109.410000
  S    -127.670000   25.054400  -112.594000
  C    -128.741000   26.046000  -113.496000
  C    -128.332000   27.408200  -113.535000
  C    -127.064000   27.572700  -112.869000
  C    -126.531000   26.354600  -112.396000
  H    -128.894000   28.099300  -114.189000
  C    -126.292000   28.898400  -112.872000
  H    -126.117000   29.299900  -113.884000
  H    -125.318000   28.738300  -112.515000
  C    -126.999000   29.967400  -111.961000
  H    -127.168000   29.672000  -110.876000
  H    -127.989000   30.286800  -112.279000
  C    -126.242000   31.280100  -112.055000
  H    -126.761000   32.167300  -111.619000
  H    -126.126000   31.517100  -113.136000
  H    -125.303000   31.185800  -111.603000
  H    -122.856000   25.311500  -109.168000
  H    -129.644000   25.768500  -113.957000

 Total Charge           Charge          ....    0
 Multiplicity           Mult            ....    1
 Number of Electrons    NEL             ....  134
 Basis Dimension        Dim             ....  322

ORBITAL ENERGIES
----------------

  NO   OCC          E(Eh)            E(eV)
   0   2.0000     -88.966723     -2420.9076
   1   2.0000     -88.965386     -2420.8712
   2   2.0000     -10.329286      -281.0742
   3   2.0000     -10.325525      -280.9718
   4   2.0000     -10.320064      -280.8232
   5   2.0000     -10.314541      -280.6729
   6   2.0000     -10.314276      -280.6657
   7   2.0000     -10.310123      -280.5527
   8   2.0000     -10.309967      -280.5485
   9   2.0000     -10.299706      -280.2693
  10   2.0000     -10.299091      -280.2525
  11   2.0000     -10.292713      -280.0790
  12   2.0000     -10.291047      -280.0336
  13   2.0000     -10.287821      -279.9459
  14   2.0000     -10.279333      -279.7149
  15   2.0000     -10.272217      -279.5212
  16   2.0000      -8.081968      -219.9215
  17   2.0000      -8.079791      -219.8623
  18   2.0000      -6.040320      -164.3655
  19   2.0000      -6.038394      -164.3131
  20   2.0000      -6.036212      -164.2537
  21   2.0000      -6.034518      -164.2076
  22   2.0000      -6.033056      -164.1678
  23   2.0000      -6.030277      -164.0922
  24   2.0000      -1.004363       -27.3301
  25   2.0000      -0.978984       -26.6395
  26   2.0000      -0.919453       -25.0196
  27   2.0000      -0.905052       -24.6277
  28   2.0000      -0.867996       -23.6194
  29   2.0000      -0.850157       -23.1340
  30   2.0000      -0.840336       -22.8667
  31   2.0000      -0.805388       -21.9157
  32   2.0000      -0.790021       -21.4976
  33   2.0000      -0.770128       -20.9562
  34   2.0000      -0.707164       -19.2429
  35   2.0000      -0.698857       -19.0169
  36   2.0000      -0.694440       -18.8967
  37   2.0000      -0.657691       -17.8967
  38   2.0000      -0.629203       -17.1215
  39   2.0000      -0.604801       -16.4575
  40   2.0000      -0.593141       -16.1402
  41   2.0000      -0.581506       -15.8236
  42   2.0000      -0.563242       -15.3266
  43   2.0000      -0.561110       -15.2686
  44   2.0000      -0.538940       -14.6653
  45   2.0000      -0.526261       -14.3203
  46   2.0000      -0.513532       -13.9739
  47   2.0000      -0.506944       -13.7946
  48   2.0000      -0.505486       -13.7550
  49   2.0000      -0.492396       -13.3988
  50   2.0000      -0.489833       -13.3290
  51   2.0000      -0.471009       -12.8168
  52   2.0000      -0.466673       -12.6988
  53   2.0000      -0.462077       -12.5737
  54   2.0000      -0.460942       -12.5429
  55   2.0000      -0.448798       -12.2124
  56   2.0000      -0.445839       -12.1319
  57   2.0000      -0.434394       -11.8205
  58   2.0000      -0.432873       -11.7791
  59   2.0000      -0.424763       -11.5584
  60   2.0000      -0.421873       -11.4797
  61   2.0000      -0.418661       -11.3923
  62   2.0000      -0.415296       -11.3008
  63   2.0000      -0.332183        -9.0392
  64   2.0000      -0.330215        -8.9856
  65   2.0000      -0.324009        -8.8167
  66   2.0000      -0.299432        -8.1479
  67   0.0000       0.037228         1.0130
  68   0.0000       0.058065         1.5800
  69   0.0000       0.094090         2.5603
  70   0.0000       0.118536         3.2255
  71   0.0000       0.128814         3.5052

MULLIKEN ATOMIC CHARGES
-----------------------
   0 S :    0.119871
   1 C :   -0.124815
   2 C :   -0.118630
   3 C :    0.008817
   4 C :   -0.187934
   5 H :    0.047058
   6 C :    0.089369
   7 H :    0.035765
   8 H :    0.037353
   9 C :   -0.078689
  10 H :    0.030018
  11 H :    0.035120
  12 C :   -0.060525
  13 H :    0.019611
  14 H :    0.031601
  15 H :    0.035310
  16 S :    0.137419
  17 C :   -0.080520
  18 C :   -0.060013
  19 C :    0.007492
  20 C :   -0.184688
  21 H :    0.036643
  22 C :    0.082197
  23 H :    0.033032
  24 H :    0.007713
  25 C :   -0.104156
  26 H :    0.043719
  27 H :    0.023751
  28 C :   -0.042555
  29 H :    0.037055
  30 H :    0.023206
  31 H :    0.021748
  32 H :    0.060030
  33 H :    0.038625
Sum of atomic charges:   -0.0000000

LOEWDIN ATOMIC CHARGES
----------------------
   0 S :    0.402952
   1 C :   -0.205580
   2 C :   -0.057120
   3 C :   -0.070637
   4 C :   -0.215893
   5 H :    0.046460
   6 C :   -0.027050
   7 H :    0.040063
   8 H :    0.032066
   9 C :   -0.045518
  10 H :    0.021269
  11 H :    0.034284
  12 C :   -0.069539
  13 H :    0.018854
  14 H :    0.025113
  15 H :    0.031129
  16 S :    0.441578
  17 C :   -0.192846
  18 C :   -0.073900
  19 C :   -0.048224
  20 C :   -0.218437
  21 H :    0.038242
  22 C :   -0.023705
  23 H :    0.035050
  24 H :    0.020613
  25 C :   -0.044898
  26 H :    0.031510
  27 H :    0.020676
  28 C :   -0.066825
  29 H :    0.028761
  30 H :    0.025830
  31 H :    0.013427
  32 H :    0.033386
  33 H :    0.018905

  Mayer bond orders larger than 0.100000
B(  0-S ,  1-C ) :   1.1330 B(  0-S ,  4-C ) :   1.1313 B(  1-C ,  2-C ) :   1.6495
B(  1-C , 32-H ) :   0.9475 B(  2-C ,  3-C ) :   1.2053 B(  2-C ,  6-C ) :   0.9952
B(  3-C ,  4-C ) :   1.6225 B(  3-C ,  5-H ) :   0.9732 B(  4-C , 20-C ) :   1.0224
B(  6-C ,  7-H ) :   0.9383 B(  6-C ,  8-H ) :   0.9407 B(  6-C ,  9-C ) :   1.0842
B(  9-C , 10-H ) :   0.9528 B(  9-C , 11-H ) :   0.9477 B(  9-C , 12-C ) :   1.0795
B( 12-C , 13-H ) :   0.9712 B( 12-C , 14-H ) :   0.9759 B( 12-C , 15-H ) :   0.9737
B( 16-S , 17-C ) :   1.1799 B( 16-S , 20-C ) :   1.1610 B( 17-C , 18-C ) :   1.5913
B( 17-C , 20-C ) :   0.1069 B( 17-C , 33-H ) :   0.9716 B( 18-C , 19-C ) :   1.2443
B( 18-C , 21-H ) :   0.9858 B( 19-C , 20-C ) :   1.5730 B( 19-C , 22-C ) :   1.0478
B( 22-C , 23-H ) :   0.9428 B( 22-C , 24-H ) :   0.9338 B( 22-C , 25-C ) :   1.0427
B( 25-C , 26-H ) :   0.9564 B( 25-C , 27-H ) :   0.9610 B( 25-C , 28-C ) :   1.0822
B( 28-C , 29-H ) :   0.9743 B( 28-C , 30-H ) :   0.9711 B( 28-C , 31-H ) :   0.9756

Dispersion correction           -0.013893000
FINAL SINGLE POINT ENERGY     -1339.857745648821

DIPOLE MOMENT
-------------
                                X             Y             Z
Electronic contribution:    -18.31976     -12.99636      -0.53212
Nuclear contribution   :     18.80135      13.13983       0.15328
                        -----------------------------------------
Total Dipole Moment    :      0.48159       0.14347      -0.37883
                        -----------------------------------------
Magnitude (a.u.)       :      0.62930
Magnitude (Debye)      :      1.59956

Rotational constants in cm-1:     0.020704     0.007558     0.006103
Rotational constants in MHz :   620.696189   226.593431   182.959055

                             ****ORCA TERMINATED NORMALLY****
TOTAL RUN TIME: 0 days 0 hours 0 minutes 20 seconds 767 msec
