                         Program Version 4.2.1 -  RELEASE  -
|  1> ! wB97X-D3 SP def2-SVP
|  2> %pal
|  3> nprocs 24
|  4> end
|  5>
|  6> * xyz 0 1
|  7> S 	 -36.6125 	 2.60696 	 10.9138
|  8> C 	 -35.8484 	 1.77753 	 12.2192
|  9> C 	 -36.6697 	 0.775102 	 12.7544
| 10> C 	 -37.9725 	 0.865156 	 12.171
| 11> C 	 -38.1785 	 1.84564 	 11.2019
| 12> H 	 -38.7584 	 0.210193 	 12.5123
| 13> C 	 -36.2998 	 -0.268111 	 13.7982
| 14> H 	 -35.7438 	 -0.971672 	 13.2844
| 15> H 	 -37.3135 	 -0.713507 	 13.8569
| 16> C 	 -35.6856 	 0.252676 	 15.1903
| 17> H 	 -35.3382 	 -0.635897 	 15.8009
| 18> H 	 -34.8764 	 0.902628 	 14.926
| 19> C 	 -36.7208 	 1.00827 	 16.021
| 20> H 	 -37.7152 	 0.533359 	 16.0275
| 21> H 	 -36.5553 	 1.07042 	 17.0436
| 22> H 	 -36.8708 	 2.14257 	 15.6862
| 23> S 	 -39.4915 	 2.14773 	 8.72236
| 24> C 	 -41.2002 	 2.04583 	 8.73414
| 25> C 	 -41.6624 	 1.96238 	 10.0034
| 26> C 	 -40.6905 	 2.14932 	 11.0537
| 27> C 	 -39.4056 	 2.18506 	 10.4986
| 28> H 	 -42.6915 	 1.8121 	 10.1227
| 29> C 	 -41.1328 	 2.0651 	 12.5066
| 30> H 	 -41.9303 	 2.79808 	 12.7046
| 31> H 	 -40.3058 	 2.39959 	 13.0888
| 32> C 	 -41.6975 	 0.58744 	 13.0375
| 33> H 	 -40.8135 	 -0.0817381 	 12.9049
| 34> H 	 -42.463 	 0.229989 	 12.3861
| 35> C 	 -42.2252 	 0.515779 	 14.4982
| 36> H 	 -42.5448 	 -0.476987 	 14.6849
| 37> H 	 -42.8789 	 1.37799 	 14.7046
| 38> H 	 -41.3562 	 0.580178 	 15.1751
| 39> H 	 -34.8554 	 1.98903 	 12.5982
| 40> H 	 -41.8645 	 2.05968 	 7.81735
| 41> *
| 42>
| 43>                          ****END OF INPUT****

CARTESIAN COORDINATES (ANGSTROEM)
---------------------------------
  S    -36.612500    2.606960   10.913800
  C    -35.848400    1.777530   12.219200
  C    -36.669700    0.775102   12.754400
  C    -37.972500    0.865156   12.171000
  C    -38.178500    1.845640   11.201900
  H    -38.758400    0.210193   12.512300
  C    -36.299800   -0.268111   13.798200
  H    -35.743800   -0.971672   13.284400
  H    -37.313500   -0.713507   13.856900
  C    -35.685600    0.252676   15.190300
  H    -35.338200   -0.635897   15.800900
  H    -34.876400    0.902628   14.926000
  C    -36.720800    1.008270   16.021000
  H    -37.715200    0.533359   16.027500
  H    -36.555300    1.070420   17.043600
  H    -36.870800    2.142570   15.686200
  S    -39.491500    2.147730    8.722360
  C    -41.200200    2.045830    8.734140
  C    -41.662400    1.962380   10.003400
  C    -40.690500    2.149320   11.053700
  C    -39.405600    2.185060   10.498600
  H    -42.691500    1.812100   10.122700
  C    -41.132800    2.065100   12.506600
  H    -41.930300    2.798080   12.704600
  H    -40.305800    2.399590   13.088800
  C    -41.697500    0.587440   13.037500
  H    -40.813500   -0.081738   12.904900
  H    -42.463000    0.229989   12.386100
  C    -42.225200    0.515779   14.498200
  H    -42.544800   -0.476987   14.684900
  H    -42.878900    1.377990   14.704600
  H    -41.356200    0.580178   15.175100
  H    -34.855400    1.989030   12.598200
  H    -41.864500    2.059680    7.817350

 Total Charge           Charge          ....    0
 Multiplicity           Mult            ....    1
 Number of Electrons    NEL             ....  134
 Basis Dimension        Dim             ....  322

ORBITAL ENERGIES
----------------

  NO   OCC          E(Eh)            E(eV)
   0   2.0000     -88.964804     -2420.8554
   1   2.0000     -88.963459     -2420.8188
   2   2.0000     -10.330735      -281.1136
   3   2.0000     -10.330557      -281.1087
   4   2.0000     -10.316921      -280.7377
   5   2.0000     -10.313617      -280.6478
   6   2.0000     -10.307516      -280.4818
   7   2.0000     -10.303205      -280.3645
   8   2.0000     -10.300502      -280.2909
   9   2.0000     -10.299115      -280.2532
  10   2.0000     -10.298840      -280.2457
  11   2.0000     -10.294265      -280.1212
  12   2.0000     -10.294189      -280.1191
  13   2.0000     -10.284911      -279.8667
  14   2.0000     -10.284381      -279.8522
  15   2.0000     -10.283748      -279.8350
  16   2.0000      -8.079619      -219.8576
  17   2.0000      -8.078717      -219.8331
  18   2.0000      -6.038098      -164.3050
  19   2.0000      -6.037306      -164.2834
  20   2.0000      -6.033975      -164.1928
  21   2.0000      -6.033176      -164.1711
  22   2.0000      -6.030558      -164.0998
  23   2.0000      -6.029332      -164.0665
  24   2.0000      -1.004825       -27.3427
  25   2.0000      -0.984453       -26.7883
  26   2.0000      -0.906098       -24.6562
  27   2.0000      -0.895516       -24.3682
  28   2.0000      -0.868229       -23.6257
  29   2.0000      -0.852696       -23.2030
  30   2.0000      -0.847287       -23.0558
  31   2.0000      -0.812281       -22.1033
  32   2.0000      -0.783745       -21.3268
  33   2.0000      -0.770913       -20.9776
  34   2.0000      -0.712024       -19.3752
  35   2.0000      -0.705213       -19.1898
  36   2.0000      -0.694925       -18.9099
  37   2.0000      -0.657672       -17.8962
  38   2.0000      -0.634798       -17.2737
  39   2.0000      -0.617387       -16.8000
  40   2.0000      -0.592682       -16.1277
  41   2.0000      -0.570250       -15.5173
  42   2.0000      -0.559629       -15.2283
  43   2.0000      -0.551310       -15.0019
  44   2.0000      -0.540535       -14.7087
  45   2.0000      -0.530317       -14.4307
  46   2.0000      -0.513307       -13.9678
  47   2.0000      -0.511871       -13.9287
  48   2.0000      -0.505197       -13.7471
  49   2.0000      -0.494931       -13.4678
  50   2.0000      -0.488389       -13.2897
  51   2.0000      -0.477389       -12.9904
  52   2.0000      -0.468736       -12.7550
  53   2.0000      -0.463164       -12.6033
  54   2.0000      -0.460307       -12.5256
  55   2.0000      -0.448586       -12.2066
  56   2.0000      -0.445354       -12.1187
  57   2.0000      -0.435505       -11.8507
  58   2.0000      -0.428333       -11.6555
  59   2.0000      -0.427378       -11.6295
  60   2.0000      -0.425128       -11.5683
  61   2.0000      -0.421519       -11.4701
  62   2.0000      -0.413926       -11.2635
  63   2.0000      -0.349112        -9.4998
  64   2.0000      -0.329205        -8.9581
  65   2.0000      -0.327223        -8.9042
  66   2.0000      -0.288353        -7.8465
  67   0.0000       0.026942         0.7331
  68   0.0000       0.070536         1.9194
  69   0.0000       0.114104         3.1049
  70   0.0000       0.121189         3.2977
  71   0.0000       0.124454         3.3866

MULLIKEN ATOMIC CHARGES
-----------------------
   0 S :    0.113013
   1 C :   -0.129449
   2 C :   -0.127123
   3 C :    0.032983
   4 C :   -0.156079
   5 H :   -0.014467
   6 C :    0.092021
   7 H :    0.029368
   8 H :    0.010943
   9 C :   -0.049516
  10 H :    0.049227
  11 H :    0.036209
  12 C :   -0.077476
  13 H :    0.026417
  14 H :    0.019968
  15 H :    0.054831
  16 S :    0.102336
  17 C :   -0.104587
  18 C :   -0.031895
  19 C :   -0.040850
  20 C :   -0.114551
  21 H :   -0.002421
  22 C :    0.054745
  23 H :    0.031118
  24 H :    0.025074
  25 C :   -0.098336
  26 H :    0.028668
  27 H :    0.029793
  28 C :   -0.026299
  29 H :    0.033788
  30 H :    0.048360
  31 H :    0.024363
  32 H :    0.048377
  33 H :    0.081449
Sum of atomic charges:    0.0000000

LOEWDIN ATOMIC CHARGES
----------------------
   0 S :    0.413101
   1 C :   -0.204361
   2 C :   -0.068140
   3 C :   -0.061629
   4 C :   -0.195864
   5 H :    0.023192
   6 C :   -0.027149
   7 H :    0.023670
   8 H :    0.032722
   9 C :   -0.032543
  10 H :    0.035910
  11 H :    0.022566
  12 C :   -0.077667
  13 H :    0.026509
  14 H :    0.014704
  15 H :    0.042204
  16 S :    0.404336
  17 C :   -0.201218
  18 C :   -0.072039
  19 C :   -0.049541
  20 C :   -0.194151
  21 H :    0.020402
  22 C :   -0.031867
  23 H :    0.032044
  24 H :    0.025327
  25 C :   -0.032450
  26 H :    0.021679
  27 H :    0.016501
  28 C :   -0.065208
  29 H :    0.025966
  30 H :    0.031364
  31 H :    0.027717
  32 H :    0.026514
  33 H :    0.047398

  Mayer bond orders larger than 0.100000
B(  0-S ,  1-C ) :   1.1696 B(  0-S ,  4-C ) :   1.1480 B(  1-C ,  2-C ) :   1.5659
B(  1-C ,  4-C ) :   0.1008 B(  1-C , 32-H ) :   0.9694 B(  2-C ,  3-C ) :   1.2979
B(  2-C ,  6-C ) :   0.9850 B(  3-C ,  4-C ) :   1.5399 B(  3-C ,  5-H ) :   0.9859
B(  4-C , 20-C ) :   1.0466 B(  6-C ,  7-H ) :   0.9374 B(  6-C ,  8-H ) :   0.9465
B(  6-C ,  9-C ) :   1.0541 B(  9-C , 10-H ) :   0.9575 B(  9-C , 11-H ) :   0.9618
B(  9-C , 12-C ) :   1.0686 B( 12-C , 13-H ) :   0.9753 B( 12-C , 14-H ) :   0.9760
B( 12-C , 15-H ) :   0.9730 B( 16-S , 17-C ) :   1.1483 B( 16-S , 20-C ) :   1.1370
B( 17-C , 18-C ) :   1.6293 B( 17-C , 33-H ) :   0.9572 B( 18-C , 19-C ) :   1.2226
B( 18-C , 21-H ) :   0.9986 B( 19-C , 20-C ) :   1.5728 B( 19-C , 22-C ) :   1.0645
B( 22-C , 23-H ) :   0.9336 B( 22-C , 24-H ) :   0.9341 B( 22-C , 25-C ) :   1.0349
B( 25-C , 26-H ) :   0.9571 B( 25-C , 27-H ) :   0.9589 B( 25-C , 28-C ) :   1.0801
B( 28-C , 29-H ) :   0.9711 B( 28-C , 30-H ) :   0.9753 B( 28-C , 31-H ) :   0.9752

Dispersion correction           -0.014679729
FINAL SINGLE POINT ENERGY     -1339.857126534687

DIPOLE MOMENT
-------------
                                X             Y             Z
Electronic contribution:      6.82136      10.99988     -29.78060
Nuclear contribution   :     -7.13571     -11.47038      30.46267
                        -----------------------------------------
Total Dipole Moment    :     -0.31435      -0.47050       0.68207
                        -----------------------------------------
Magnitude (a.u.)       :      0.88623
Magnitude (Debye)      :      2.25263

Rotational constants in cm-1:     0.017117     0.009655     0.006586
Rotational constants in MHz :   513.141856   289.441430   197.437346

                             ****ORCA TERMINATED NORMALLY****
TOTAL RUN TIME: 0 days 0 hours 0 minutes 22 seconds 14 msec
