                         Program Version 4.2.1 -  RELEASE  -
|  1> ! wB97X-D3 SP def2-SVP
|  2> %pal
|  3> nprocs 24
|  4> end
|  5>
|  6> * xyz 0 1
|  7> S 	 -108.549 	 36.821 	 -17.4304
|  8> C 	 -107.066 	 36.9859 	 -16.5869
|  9> C 	 -106.085 	 36.0654 	 -16.9958
| 10> C 	 -106.62 	 35.2555 	 -18.0469
| 11> C 	 -107.953 	 35.4856 	 -18.3658
| 12> H 	 -106.068 	 34.4514 	 -18.3816
| 13> C 	 -104.679 	 36.01 	 -16.414
| 14> H 	 -104.23 	 35.1386 	 -16.8745
| 15> H 	 -104.755 	 35.7687 	 -15.3381
| 16> C 	 -103.798 	 37.3318 	 -16.5562
| 17> H 	 -103.66 	 37.3764 	 -17.6471
| 18> H 	 -104.284 	 38.144 	 -16.0768
| 19> C 	 -102.467 	 37.2762 	 -15.8225
| 20> H 	 -101.894 	 36.4181 	 -16.066
| 21> H 	 -101.725 	 38.1058 	 -15.7602
| 22> H 	 -102.721 	 37.1387 	 -14.8314
| 23> S 	 -110.264 	 35.6176 	 -19.8382
| 24> C 	 -110.762 	 34.2945 	 -20.942
| 25> C 	 -109.924 	 33.2205 	 -20.6458
| 26> C 	 -108.818 	 33.432 	 -19.8159
| 27> C 	 -108.867 	 34.7399 	 -19.2427
| 28> H 	 -110.057 	 32.2572 	 -21.0828
| 29> C 	 -107.922 	 32.2592 	 -19.4459
| 30> H 	 -106.927 	 32.7503 	 -19.588
| 31> H 	 -108.021 	 31.5082 	 -20.2087
| 32> C 	 -108.067 	 31.6458 	 -18.0583
| 33> H 	 -109.152 	 31.449 	 -18.1161
| 34> H 	 -107.905 	 32.4696 	 -17.3426
| 35> C 	 -107.342 	 30.3233 	 -17.7107
| 36> H 	 -107.203 	 29.6276 	 -18.5193
| 37> H 	 -107.581 	 29.8201 	 -16.8801
| 38> H 	 -106.305 	 30.6409 	 -17.5951
| 39> H 	 -106.874 	 37.5315 	 -15.6909
| 40> H 	 -111.584 	 34.3024 	 -21.5807
| 41> *
| 42>
| 43>                          ****END OF INPUT****

CARTESIAN COORDINATES (ANGSTROEM)
---------------------------------
  S    -108.549000   36.821000  -17.430400
  C    -107.066000   36.985900  -16.586900
  C    -106.085000   36.065400  -16.995800
  C    -106.620000   35.255500  -18.046900
  C    -107.953000   35.485600  -18.365800
  H    -106.068000   34.451400  -18.381600
  C    -104.679000   36.010000  -16.414000
  H    -104.230000   35.138600  -16.874500
  H    -104.755000   35.768700  -15.338100
  C    -103.798000   37.331800  -16.556200
  H    -103.660000   37.376400  -17.647100
  H    -104.284000   38.144000  -16.076800
  C    -102.467000   37.276200  -15.822500
  H    -101.894000   36.418100  -16.066000
  H    -101.725000   38.105800  -15.760200
  H    -102.721000   37.138700  -14.831400
  S    -110.264000   35.617600  -19.838200
  C    -110.762000   34.294500  -20.942000
  C    -109.924000   33.220500  -20.645800
  C    -108.818000   33.432000  -19.815900
  C    -108.867000   34.739900  -19.242700
  H    -110.057000   32.257200  -21.082800
  C    -107.922000   32.259200  -19.445900
  H    -106.927000   32.750300  -19.588000
  H    -108.021000   31.508200  -20.208700
  C    -108.067000   31.645800  -18.058300
  H    -109.152000   31.449000  -18.116100
  H    -107.905000   32.469600  -17.342600
  C    -107.342000   30.323300  -17.710700
  H    -107.203000   29.627600  -18.519300
  H    -107.581000   29.820100  -16.880100
  H    -106.305000   30.640900  -17.595100
  H    -106.874000   37.531500  -15.690900
  H    -111.584000   34.302400  -21.580700

 Total Charge           Charge          ....    0
 Multiplicity           Mult            ....    1
 Number of Electrons    NEL             ....  134
 Basis Dimension        Dim             ....  322

ORBITAL ENERGIES
----------------

  NO   OCC          E(Eh)            E(eV)
   0   2.0000     -88.970855     -2421.0200
   1   2.0000     -88.968364     -2420.9523
   2   2.0000     -10.337681      -281.3026
   3   2.0000     -10.334019      -281.2029
   4   2.0000     -10.319949      -280.8201
   5   2.0000     -10.310261      -280.5565
   6   2.0000     -10.304737      -280.4061
   7   2.0000     -10.303198      -280.3643
   8   2.0000     -10.301053      -280.3059
   9   2.0000     -10.295287      -280.1490
  10   2.0000     -10.292751      -280.0800
  11   2.0000     -10.292027      -280.0603
  12   2.0000     -10.292016      -280.0600
  13   2.0000     -10.290260      -280.0122
  14   2.0000     -10.272649      -279.5330
  15   2.0000     -10.271671      -279.5064
  16   2.0000      -8.086162      -220.0357
  17   2.0000      -8.082240      -219.9289
  18   2.0000      -6.044640      -164.4830
  19   2.0000      -6.040813      -164.3789
  20   2.0000      -6.040485      -164.3699
  21   2.0000      -6.037027      -164.2759
  22   2.0000      -6.036777      -164.2690
  23   2.0000      -6.033082      -164.1685
  24   2.0000      -1.008544       -27.4439
  25   2.0000      -0.983698       -26.7678
  26   2.0000      -0.911751       -24.8100
  27   2.0000      -0.908354       -24.7176
  28   2.0000      -0.870797       -23.6956
  29   2.0000      -0.856264       -23.3001
  30   2.0000      -0.851089       -23.1593
  31   2.0000      -0.817335       -22.2408
  32   2.0000      -0.788084       -21.4449
  33   2.0000      -0.775501       -21.1025
  34   2.0000      -0.712314       -19.3830
  35   2.0000      -0.708674       -19.2840
  36   2.0000      -0.696065       -18.9409
  37   2.0000      -0.670929       -18.2569
  38   2.0000      -0.639633       -17.4053
  39   2.0000      -0.624186       -16.9850
  40   2.0000      -0.594268       -16.1709
  41   2.0000      -0.578988       -15.7551
  42   2.0000      -0.566970       -15.4280
  43   2.0000      -0.561946       -15.2913
  44   2.0000      -0.535568       -14.5735
  45   2.0000      -0.523879       -14.2555
  46   2.0000      -0.522486       -14.2176
  47   2.0000      -0.516056       -14.0426
  48   2.0000      -0.505637       -13.7591
  49   2.0000      -0.503273       -13.6947
  50   2.0000      -0.490893       -13.3579
  51   2.0000      -0.488156       -13.2834
  52   2.0000      -0.471499       -12.8301
  53   2.0000      -0.464731       -12.6460
  54   2.0000      -0.462465       -12.5843
  55   2.0000      -0.453466       -12.3394
  56   2.0000      -0.449045       -12.2191
  57   2.0000      -0.441968       -12.0265
  58   2.0000      -0.435701       -11.8560
  59   2.0000      -0.432842       -11.7782
  60   2.0000      -0.417394       -11.3579
  61   2.0000      -0.415641       -11.3102
  62   2.0000      -0.400750       -10.9050
  63   2.0000      -0.359160        -9.7732
  64   2.0000      -0.338560        -9.2127
  65   2.0000      -0.328599        -8.9416
  66   2.0000      -0.278257        -7.5718
  67   0.0000       0.013879         0.3777
  68   0.0000       0.075487         2.0541
  69   0.0000       0.095694         2.6040
  70   0.0000       0.121150         3.2966
  71   0.0000       0.137734         3.7479

MULLIKEN ATOMIC CHARGES
-----------------------
   0 S :    0.122303
   1 C :   -0.089600
   2 C :   -0.138298
   3 C :    0.041185
   4 C :   -0.105019
   5 H :   -0.032669
   6 C :    0.043789
   7 H :    0.015544
   8 H :    0.033240
   9 C :   -0.042195
  10 H :    0.045206
  11 H :    0.029249
  12 C :   -0.027825
  13 H :    0.012636
  14 H :    0.044244
  15 H :   -0.001406
  16 S :    0.083209
  17 C :   -0.063412
  18 C :   -0.017587
  19 C :   -0.072028
  20 C :   -0.125796
  21 H :    0.003396
  22 C :    0.053768
  23 H :    0.027491
  24 H :    0.008515
  25 C :   -0.070236
  26 H :    0.026726
  27 H :    0.043372
  28 C :    0.024259
  29 H :    0.018571
  30 H :    0.018215
  31 H :    0.012345
  32 H :    0.038085
  33 H :    0.040724
Sum of atomic charges:   -0.0000000

LOEWDIN ATOMIC CHARGES
----------------------
   0 S :    0.434582
   1 C :   -0.207128
   2 C :   -0.060698
   3 C :   -0.062881
   4 C :   -0.195626
   5 H :    0.013434
   6 C :   -0.031469
   7 H :    0.027086
   8 H :    0.032389
   9 C :   -0.026766
  10 H :    0.029282
  11 H :    0.021834
  12 C :   -0.070979
  13 H :    0.018554
  14 H :    0.035574
  15 H :    0.014899
  16 S :    0.392675
  17 C :   -0.168394
  18 C :   -0.063922
  19 C :   -0.063830
  20 C :   -0.186018
  21 H :    0.024786
  22 C :   -0.031375
  23 H :    0.028915
  24 H :    0.024283
  25 C :   -0.041679
  26 H :    0.026287
  27 H :    0.030211
  28 C :   -0.056231
  29 H :    0.026785
  30 H :    0.011754
  31 H :    0.030031
  32 H :    0.023980
  33 H :    0.019654

  Mayer bond orders larger than 0.100000
B(  0-S ,  1-C ) :   1.1609 B(  0-S ,  4-C ) :   1.1622 B(  1-C ,  2-C ) :   1.5827
B(  1-C , 32-H ) :   0.9656 B(  2-C ,  3-C ) :   1.2975 B(  2-C ,  6-C ) :   1.0240
B(  3-C ,  4-C ) :   1.5262 B(  3-C ,  5-H ) :   1.0015 B(  4-C , 20-C ) :   1.0623
B(  6-C ,  7-H ) :   0.9403 B(  6-C ,  8-H ) :   0.9352 B(  6-C ,  9-C ) :   1.0554
B(  9-C , 10-H ) :   0.9610 B(  9-C , 11-H ) :   0.9598 B(  9-C , 12-C ) :   1.0696
B( 12-C , 13-H ) :   0.9736 B( 12-C , 14-H ) :   0.9757 B( 12-C , 15-H ) :   0.9698
B( 16-S , 17-C ) :   1.1418 B( 16-S , 20-C ) :   1.1629 B( 17-C , 18-C ) :   1.5534
B( 17-C , 20-C ) :   0.1191 B( 17-C , 33-H ) :   0.9838 B( 18-C , 19-C ) :   1.3095
B( 18-C , 21-H ) :   0.9825 B( 19-C , 20-C ) :   1.5181 B( 19-C , 22-C ) :   1.0431
B( 22-C , 23-H ) :   0.9232 B( 22-C , 24-H ) :   0.9288 B( 22-C , 25-C ) :   1.0552
B( 25-C , 26-H ) :   0.9549 B( 25-C , 27-H ) :   0.9559 B( 25-C , 28-C ) :   1.0702
B( 28-C , 29-H ) :   0.9730 B( 28-C , 30-H ) :   0.9769 B( 28-C , 31-H ) :   0.9693

Dispersion correction           -0.013676624
FINAL SINGLE POINT ENERGY     -1339.846354518776

DIPOLE MOMENT
-------------
                                X             Y             Z
Electronic contribution:    -25.04791      13.35021     -10.24154
Nuclear contribution   :     25.52591     -13.88927      10.49680
                        -----------------------------------------
Total Dipole Moment    :      0.47801      -0.53906       0.25526
                        -----------------------------------------
Magnitude (a.u.)       :      0.76435
Magnitude (Debye)      :      1.94284

Rotational constants in cm-1:     0.019002     0.007850     0.005994
Rotational constants in MHz :   569.676566   235.338552   179.699053

                             ****ORCA TERMINATED NORMALLY****
TOTAL RUN TIME: 0 days 0 hours 0 minutes 21 seconds 170 msec
