                         Program Version 4.2.1 -  RELEASE  -
|  1> ! wB97X-D3 SP def2-SVP
|  2> %pal
|  3> nprocs 24
|  4> end
|  5>
|  6> * xyz 0 1
|  7> S 	 -105.916 	 2.79496 	 -110.5
|  8> C 	 -106.797 	 4.16095 	 -111.073
|  9> C 	 -106.617 	 5.24489 	 -110.258
| 10> C 	 -105.894 	 4.89576 	 -109.071
| 11> C 	 -105.335 	 3.60414 	 -109.129
| 12> H 	 -105.74 	 5.57353 	 -108.301
| 13> C 	 -107.204 	 6.60264 	 -110.597
| 14> H 	 -108.296 	 6.61547 	 -110.49
| 15> H 	 -106.965 	 6.61539 	 -111.666
| 16> C 	 -106.628 	 7.79825 	 -109.819
| 17> H 	 -106.96 	 7.61471 	 -108.754
| 18> H 	 -105.512 	 7.83747 	 -109.849
| 19> C 	 -107.109 	 9.24194 	 -110.249
| 20> H 	 -106.449 	 9.86164 	 -109.633
| 21> H 	 -106.876 	 9.37912 	 -111.339
| 22> H 	 -108.16 	 9.39896 	 -109.942
| 23> S 	 -105.494 	 2.35171 	 -106.629
| 24> C 	 -104.005 	 1.9434 	 -105.817
| 25> C 	 -102.899 	 2.22233 	 -106.573
| 26> C 	 -103.237 	 2.84626 	 -107.828
| 27> C 	 -104.575 	 2.96363 	 -108.046
| 28> H 	 -101.901 	 2.03319 	 -106.143
| 29> C 	 -102.233 	 3.42961 	 -108.817
| 30> H 	 -102.728 	 3.38736 	 -109.807
| 31> H 	 -101.361 	 2.74912 	 -108.768
| 32> C 	 -101.742 	 4.85361 	 -108.616
| 33> H 	 -101.026 	 5.17981 	 -109.304
| 34> H 	 -101.258 	 4.82275 	 -107.651
| 35> C 	 -102.824 	 5.89641 	 -108.536
| 36> H 	 -103.371 	 6.03923 	 -109.494
| 37> H 	 -102.278 	 6.81845 	 -108.363
| 38> H 	 -103.585 	 5.83683 	 -107.768
| 39> H 	 -107.384 	 4.27066 	 -112.011
| 40> H 	 -103.827 	 1.4407 	 -104.878
| 41> *
| 42>
| 43>                          ****END OF INPUT****

CARTESIAN COORDINATES (ANGSTROEM)
---------------------------------
  S    -105.916000    2.794960  -110.500000
  C    -106.797000    4.160950  -111.073000
  C    -106.617000    5.244890  -110.258000
  C    -105.894000    4.895760  -109.071000
  C    -105.335000    3.604140  -109.129000
  H    -105.740000    5.573530  -108.301000
  C    -107.204000    6.602640  -110.597000
  H    -108.296000    6.615470  -110.490000
  H    -106.965000    6.615390  -111.666000
  C    -106.628000    7.798250  -109.819000
  H    -106.960000    7.614710  -108.754000
  H    -105.512000    7.837470  -109.849000
  C    -107.109000    9.241940  -110.249000
  H    -106.449000    9.861640  -109.633000
  H    -106.876000    9.379120  -111.339000
  H    -108.160000    9.398960  -109.942000
  S    -105.494000    2.351710  -106.629000
  C    -104.005000    1.943400  -105.817000
  C    -102.899000    2.222330  -106.573000
  C    -103.237000    2.846260  -107.828000
  C    -104.575000    2.963630  -108.046000
  H    -101.901000    2.033190  -106.143000
  C    -102.233000    3.429610  -108.817000
  H    -102.728000    3.387360  -109.807000
  H    -101.361000    2.749120  -108.768000
  C    -101.742000    4.853610  -108.616000
  H    -101.026000    5.179810  -109.304000
  H    -101.258000    4.822750  -107.651000
  C    -102.824000    5.896410  -108.536000
  H    -103.371000    6.039230  -109.494000
  H    -102.278000    6.818450  -108.363000
  H    -103.585000    5.836830  -107.768000
  H    -107.384000    4.270660  -112.011000
  H    -103.827000    1.440700  -104.878000

 Total Charge           Charge          ....    0
 Multiplicity           Mult            ....    1
 Number of Electrons    NEL             ....  134
 Basis Dimension        Dim             ....  322

ORBITAL ENERGIES
----------------

  NO   OCC          E(Eh)            E(eV)
   0   2.0000     -88.968478     -2420.9554
   1   2.0000     -88.963464     -2420.8189
   2   2.0000     -10.326192      -280.9900
   3   2.0000     -10.324565      -280.9457
   4   2.0000     -10.315009      -280.6857
   5   2.0000     -10.310051      -280.5507
   6   2.0000     -10.301531      -280.3189
   7   2.0000     -10.298214      -280.2287
   8   2.0000     -10.296497      -280.1819
   9   2.0000     -10.294297      -280.1221
  10   2.0000     -10.293783      -280.1081
  11   2.0000     -10.290405      -280.0162
  12   2.0000     -10.290033      -280.0060
  13   2.0000     -10.288140      -279.9545
  14   2.0000     -10.276358      -279.6339
  15   2.0000     -10.269134      -279.4373
  16   2.0000      -8.084006      -219.9770
  17   2.0000      -8.077601      -219.8027
  18   2.0000      -6.042336      -164.4203
  19   2.0000      -6.038201      -164.3078
  20   2.0000      -6.036230      -164.2542
  21   2.0000      -6.035097      -164.2233
  22   2.0000      -6.032238      -164.1455
  23   2.0000      -6.028217      -164.0361
  24   2.0000      -1.009213       -27.4621
  25   2.0000      -0.985692       -26.8220
  26   2.0000      -0.910255       -24.7693
  27   2.0000      -0.908765       -24.7287
  28   2.0000      -0.868177       -23.6243
  29   2.0000      -0.847362       -23.0579
  30   2.0000      -0.846261       -23.0279
  31   2.0000      -0.816075       -22.2065
  32   2.0000      -0.782695       -21.2982
  33   2.0000      -0.772726       -21.0269
  34   2.0000      -0.713083       -19.4040
  35   2.0000      -0.693689       -18.8762
  36   2.0000      -0.681392       -18.5416
  37   2.0000      -0.655375       -17.8337
  38   2.0000      -0.638763       -17.3816
  39   2.0000      -0.616930       -16.7875
  40   2.0000      -0.586089       -15.9483
  41   2.0000      -0.577832       -15.7236
  42   2.0000      -0.565493       -15.3879
  43   2.0000      -0.555674       -15.1207
  44   2.0000      -0.546933       -14.8828
  45   2.0000      -0.522023       -14.2050
  46   2.0000      -0.513696       -13.9784
  47   2.0000      -0.508670       -13.8416
  48   2.0000      -0.504352       -13.7241
  49   2.0000      -0.499484       -13.5917
  50   2.0000      -0.494371       -13.4525
  51   2.0000      -0.478386       -13.0175
  52   2.0000      -0.468072       -12.7369
  53   2.0000      -0.463231       -12.6051
  54   2.0000      -0.456981       -12.4351
  55   2.0000      -0.450350       -12.2546
  56   2.0000      -0.447389       -12.1741
  57   2.0000      -0.432837       -11.7781
  58   2.0000      -0.428463       -11.6591
  59   2.0000      -0.422923       -11.5083
  60   2.0000      -0.418094       -11.3769
  61   2.0000      -0.414730       -11.2854
  62   2.0000      -0.409511       -11.1434
  63   2.0000      -0.333989        -9.0883
  64   2.0000      -0.326961        -8.8971
  65   2.0000      -0.323636        -8.8066
  66   2.0000      -0.310485        -8.4487
  67   0.0000       0.047201         1.2844
  68   0.0000       0.054648         1.4870
  69   0.0000       0.116016         3.1570
  70   0.0000       0.129417         3.5216
  71   0.0000       0.133848         3.6422

MULLIKEN ATOMIC CHARGES
-----------------------
   0 S :    0.145429
   1 C :   -0.141426
   2 C :   -0.111251
   3 C :    0.061000
   4 C :   -0.171493
   5 H :   -0.017958
   6 C :    0.084252
   7 H :    0.045628
   8 H :    0.026866
   9 C :   -0.177427
  10 H :    0.045515
  11 H :    0.044725
  12 C :   -0.038841
  13 H :    0.038451
  14 H :    0.049053
  15 H :    0.046371
  16 S :    0.111728
  17 C :   -0.079787
  18 C :   -0.057731
  19 C :   -0.027110
  20 C :   -0.177641
  21 H :    0.026923
  22 C :    0.069541
  23 H :    0.027319
  24 H :    0.024207
  25 C :   -0.010202
  26 H :    0.022600
  27 H :    0.009900
  28 C :   -0.066402
  29 H :    0.040710
  30 H :    0.018383
  31 H :    0.033258
  32 H :    0.054430
  33 H :    0.050979
Sum of atomic charges:    0.0000000

LOEWDIN ATOMIC CHARGES
----------------------
   0 S :    0.455543
   1 C :   -0.218812
   2 C :   -0.068411
   3 C :   -0.045563
   4 C :   -0.224485
   5 H :    0.014462
   6 C :   -0.039812
   7 H :    0.035407
   8 H :    0.032406
   9 C :   -0.052394
  10 H :    0.028697
  11 H :    0.026532
  12 C :   -0.065486
  13 H :    0.029700
  14 H :    0.032129
  15 H :    0.028023
  16 S :    0.386819
  17 C :   -0.183849
  18 C :   -0.080553
  19 C :   -0.052671
  20 C :   -0.189098
  21 H :    0.036442
  22 C :   -0.032069
  23 H :    0.029743
  24 H :    0.031286
  25 C :   -0.034342
  26 H :    0.021920
  27 H :    0.022637
  28 C :   -0.066574
  29 H :    0.025682
  30 H :    0.025173
  31 H :    0.020337
  32 H :    0.038319
  33 H :    0.032864

  Mayer bond orders larger than 0.100000
B(  0-S ,  1-C ) :   1.1618 B(  0-S ,  4-C ) :   1.1855 B(  1-C ,  2-C ) :   1.5945
B(  1-C , 32-H ) :   0.9630 B(  2-C ,  3-C ) :   1.2900 B(  2-C ,  6-C ) :   0.9950
B(  3-C ,  4-C ) :   1.5158 B(  3-C ,  5-H ) :   1.0014 B(  4-C , 20-C ) :   1.0032
B(  6-C ,  7-H ) :   0.9375 B(  6-C ,  8-H ) :   0.9395 B(  6-C ,  9-C ) :   1.0745
B(  9-C , 10-H ) :   0.9453 B(  9-C , 11-H ) :   0.9620 B(  9-C , 12-C ) :   1.0764
B( 12-C , 13-H ) :   0.9762 B( 12-C , 14-H ) :   0.9750 B( 12-C , 15-H ) :   0.9751
B( 16-S , 17-C ) :   1.1470 B( 16-S , 20-C ) :   1.1139 B( 17-C , 18-C ) :   1.6570
B( 17-C , 33-H ) :   0.9598 B( 18-C , 19-C ) :   1.2067 B( 18-C , 21-H ) :   0.9852
B( 19-C , 20-C ) :   1.6561 B( 19-C , 22-C ) :   1.0401 B( 22-C , 23-H ) :   0.9254
B( 22-C , 24-H ) :   0.9322 B( 22-C , 25-C ) :   1.0839 B( 25-C , 26-H ) :   0.9526
B( 25-C , 27-H ) :   0.9467 B( 25-C , 28-C ) :   1.0942 B( 28-C , 29-H ) :   0.9676
B( 28-C , 30-H ) :   0.9654 B( 28-C , 31-H ) :   0.9720

Dispersion correction           -0.015964440
FINAL SINGLE POINT ENERGY     -1339.882160413545

DIPOLE MOMENT
-------------
                                X             Y             Z
Electronic contribution:     -5.99402     -26.93567       5.01508
Nuclear contribution   :      6.24086      27.53470      -5.05097
                        -----------------------------------------
Total Dipole Moment    :      0.24684       0.59903      -0.03589
                        -----------------------------------------
Magnitude (a.u.)       :      0.64889
Magnitude (Debye)      :      1.64935

Rotational constants in cm-1:     0.020028     0.008734     0.007681
Rotational constants in MHz :   600.412786   261.852281   230.261939

                             ****ORCA TERMINATED NORMALLY****
TOTAL RUN TIME: 0 days 0 hours 0 minutes 22 seconds 903 msec
