                         Program Version 4.2.1 -  RELEASE  -
|  1> ! wB97X-D3 SP def2-SVP
|  2> %pal
|  3> nprocs 24
|  4> end
|  5>
|  6> * xyz 0 1
|  7> S 	 -83.2724 	 -39.3364 	 -73.6267
|  8> C 	 -84.6478 	 -39.4182 	 -74.7009
|  9> C 	 -84.645 	 -40.6689 	 -75.3411
| 10> C 	 -83.4825 	 -41.4601 	 -74.9977
| 11> C 	 -82.6224 	 -40.8866 	 -74.0388
| 12> H 	 -83.3033 	 -42.4585 	 -75.291
| 13> C 	 -85.5917 	 -41.1601 	 -76.3605
| 14> H 	 -85.2544 	 -41.0387 	 -77.4192
| 15> H 	 -86.5888 	 -40.5395 	 -76.3793
| 16> C 	 -85.9995 	 -42.5936 	 -76.1667
| 17> H 	 -86.7296 	 -42.8391 	 -76.8282
| 18> H 	 -85.1636 	 -43.2298 	 -76.4001
| 19> C 	 -86.509 	 -42.9473 	 -74.7739
| 20> H 	 -87.4221 	 -42.3917 	 -74.4256
| 21> H 	 -86.9609 	 -43.9728 	 -74.7329
| 22> H 	 -85.696 	 -42.9458 	 -74.0679
| 23> S 	 -80.2112 	 -40.4506 	 -72.714
| 24> C 	 -79.0752 	 -41.7778 	 -72.8376
| 25> C 	 -79.6469 	 -42.9823 	 -73.0362
| 26> C 	 -81.0466 	 -42.9034 	 -73.3478
| 27> C 	 -81.4323 	 -41.5246 	 -73.4608
| 28> H 	 -79.025 	 -43.8331 	 -72.9639
| 29> C 	 -81.8255 	 -44.0831 	 -73.7542
| 30> H 	 -82.8695 	 -43.8965 	 -73.8777
| 31> H 	 -81.6832 	 -44.6953 	 -72.9132
| 32> C 	 -81.2837 	 -44.8583 	 -74.9689
| 33> H 	 -81.9818 	 -45.5283 	 -75.3419
| 34> H 	 -80.4183 	 -45.4651 	 -74.6671
| 35> C 	 -81.0641 	 -44.0174 	 -76.1823
| 36> H 	 -80.3084 	 -43.2164 	 -75.9993
| 37> H 	 -81.9387 	 -43.5208 	 -76.5306
| 38> H 	 -80.6318 	 -44.5003 	 -77.0738
| 39> H 	 -85.3681 	 -38.6293 	 -74.7449
| 40> H 	 -78.0414 	 -41.6197 	 -72.4637
| 41> *
| 42>
| 43>                          ****END OF INPUT****

CARTESIAN COORDINATES (ANGSTROEM)
---------------------------------
  S    -83.272400  -39.336400  -73.626700
  C    -84.647800  -39.418200  -74.700900
  C    -84.645000  -40.668900  -75.341100
  C    -83.482500  -41.460100  -74.997700
  C    -82.622400  -40.886600  -74.038800
  H    -83.303300  -42.458500  -75.291000
  C    -85.591700  -41.160100  -76.360500
  H    -85.254400  -41.038700  -77.419200
  H    -86.588800  -40.539500  -76.379300
  C    -85.999500  -42.593600  -76.166700
  H    -86.729600  -42.839100  -76.828200
  H    -85.163600  -43.229800  -76.400100
  C    -86.509000  -42.947300  -74.773900
  H    -87.422100  -42.391700  -74.425600
  H    -86.960900  -43.972800  -74.732900
  H    -85.696000  -42.945800  -74.067900
  S    -80.211200  -40.450600  -72.714000
  C    -79.075200  -41.777800  -72.837600
  C    -79.646900  -42.982300  -73.036200
  C    -81.046600  -42.903400  -73.347800
  C    -81.432300  -41.524600  -73.460800
  H    -79.025000  -43.833100  -72.963900
  C    -81.825500  -44.083100  -73.754200
  H    -82.869500  -43.896500  -73.877700
  H    -81.683200  -44.695300  -72.913200
  C    -81.283700  -44.858300  -74.968900
  H    -81.981800  -45.528300  -75.341900
  H    -80.418300  -45.465100  -74.667100
  C    -81.064100  -44.017400  -76.182300
  H    -80.308400  -43.216400  -75.999300
  H    -81.938700  -43.520800  -76.530600
  H    -80.631800  -44.500300  -77.073800
  H    -85.368100  -38.629300  -74.744900
  H    -78.041400  -41.619700  -72.463700

 Total Charge           Charge          ....    0
 Multiplicity           Mult            ....    1
 Number of Electrons    NEL             ....  134
 Basis Dimension        Dim             ....  322

ORBITAL ENERGIES
----------------

  NO   OCC          E(Eh)            E(eV)
   0   2.0000     -88.964731     -2420.8534
   1   2.0000     -88.964146     -2420.8375
   2   2.0000     -10.336863      -281.2803
   3   2.0000     -10.333407      -281.1863
   4   2.0000     -10.318026      -280.7678
   5   2.0000     -10.317215      -280.7457
   6   2.0000     -10.311846      -280.5996
   7   2.0000     -10.304821      -280.4084
   8   2.0000     -10.296996      -280.1955
   9   2.0000     -10.293126      -280.0902
  10   2.0000     -10.291042      -280.0335
  11   2.0000     -10.287695      -279.9424
  12   2.0000     -10.283805      -279.8366
  13   2.0000     -10.278227      -279.6848
  14   2.0000     -10.275643      -279.6145
  15   2.0000     -10.272991      -279.5423
  16   2.0000      -8.079685      -219.8594
  17   2.0000      -8.078810      -219.8356
  18   2.0000      -6.038278      -164.3099
  19   2.0000      -6.037280      -164.2827
  20   2.0000      -6.033918      -164.1913
  21   2.0000      -6.033696      -164.1852
  22   2.0000      -6.030609      -164.1012
  23   2.0000      -6.029266      -164.0647
  24   2.0000      -1.003883       -27.3171
  25   2.0000      -0.983948       -26.7746
  26   2.0000      -0.922549       -25.1038
  27   2.0000      -0.918678       -24.9985
  28   2.0000      -0.869546       -23.6616
  29   2.0000      -0.855011       -23.2660
  30   2.0000      -0.841330       -22.8937
  31   2.0000      -0.817342       -22.2410
  32   2.0000      -0.786640       -21.4056
  33   2.0000      -0.775034       -21.0897
  34   2.0000      -0.715617       -19.4729
  35   2.0000      -0.700690       -19.0668
  36   2.0000      -0.694307       -18.8931
  37   2.0000      -0.658736       -17.9251
  38   2.0000      -0.639304       -17.3964
  39   2.0000      -0.628631       -17.1059
  40   2.0000      -0.600296       -16.3349
  41   2.0000      -0.571695       -15.5566
  42   2.0000      -0.562853       -15.3160
  43   2.0000      -0.555134       -15.1060
  44   2.0000      -0.550573       -14.9819
  45   2.0000      -0.544712       -14.8224
  46   2.0000      -0.521049       -14.1785
  47   2.0000      -0.514858       -14.0100
  48   2.0000      -0.501171       -13.6375
  49   2.0000      -0.499117       -13.5817
  50   2.0000      -0.487938       -13.2775
  51   2.0000      -0.482956       -13.1419
  52   2.0000      -0.471276       -12.8241
  53   2.0000      -0.467411       -12.7189
  54   2.0000      -0.458384       -12.4733
  55   2.0000      -0.453217       -12.3326
  56   2.0000      -0.445155       -12.1133
  57   2.0000      -0.435028       -11.8377
  58   2.0000      -0.434210       -11.8155
  59   2.0000      -0.424951       -11.5635
  60   2.0000      -0.416606       -11.3364
  61   2.0000      -0.413355       -11.2480
  62   2.0000      -0.408686       -11.1209
  63   2.0000      -0.359123        -9.7722
  64   2.0000      -0.332814        -9.0563
  65   2.0000      -0.323991        -8.8162
  66   2.0000      -0.279874        -7.6158
  67   0.0000       0.015444         0.4202
  68   0.0000       0.078641         2.1399
  69   0.0000       0.097231         2.6458
  70   0.0000       0.115830         3.1519
  71   0.0000       0.124665         3.3923

MULLIKEN ATOMIC CHARGES
-----------------------
   0 S :    0.097291
   1 C :   -0.115783
   2 C :   -0.045988
   3 C :    0.011908
   4 C :   -0.096289
   5 H :   -0.047986
   6 C :    0.025339
   7 H :    0.052338
   8 H :    0.025571
   9 C :   -0.038916
  10 H :    0.001404
  11 H :    0.021378
  12 C :   -0.072619
  13 H :    0.034457
  14 H :    0.026516
  15 H :    0.043389
  16 S :    0.091528
  17 C :   -0.092677
  18 C :   -0.023595
  19 C :   -0.040517
  20 C :   -0.157451
  21 H :    0.007032
  22 C :    0.093358
  23 H :    0.027169
  24 H :    0.021009
  25 C :   -0.031409
  26 H :    0.015734
  27 H :    0.029277
  28 C :   -0.071194
  29 H :    0.039470
  30 H :    0.025015
  31 H :    0.031226
  32 H :    0.047173
  33 H :    0.066844
Sum of atomic charges:   -0.0000000

LOEWDIN ATOMIC CHARGES
----------------------
   0 S :    0.412973
   1 C :   -0.192436
   2 C :   -0.061487
   3 C :   -0.067636
   4 C :   -0.195143
   5 H :    0.010844
   6 C :   -0.041562
   7 H :    0.039588
   8 H :    0.036158
   9 C :   -0.040247
  10 H :    0.013480
  11 H :    0.020446
  12 C :   -0.070831
  13 H :    0.030931
  14 H :    0.029862
  15 H :    0.021213
  16 S :    0.375548
  17 C :   -0.174972
  18 C :   -0.067824
  19 C :   -0.042223
  20 C :   -0.177468
  21 H :    0.028809
  22 C :   -0.029746
  23 H :    0.028339
  24 H :    0.035567
  25 C :   -0.035513
  26 H :    0.020572
  27 H :    0.026198
  28 C :   -0.071004
  29 H :    0.030070
  30 H :    0.018470
  31 H :    0.029807
  32 H :    0.026356
  33 H :    0.032860

  Mayer bond orders larger than 0.100000
B(  0-S ,  1-C ) :   1.1444 B(  0-S ,  4-C ) :   1.1608 B(  1-C ,  2-C ) :   1.5567
B(  1-C , 32-H ) :   0.9787 B(  2-C ,  3-C ) :   1.2565 B(  2-C ,  6-C ) :   1.0361
B(  3-C ,  4-C ) :   1.5342 B(  3-C ,  5-H ) :   0.9871 B(  4-C , 20-C ) :   1.0970
B(  6-C ,  7-H ) :   0.9391 B(  6-C ,  8-H ) :   0.9413 B(  6-C ,  9-C ) :   1.0805
B(  9-C , 10-H ) :   0.9468 B(  9-C , 11-H ) :   0.9451 B(  9-C , 12-C ) :   1.0870
B( 12-C , 13-H ) :   0.9724 B( 12-C , 14-H ) :   0.9714 B( 12-C , 15-H ) :   0.9701
B( 16-S , 17-C ) :   1.1383 B( 16-S , 20-C ) :   1.1301 B( 17-C , 18-C ) :   1.6477
B( 17-C , 33-H ) :   0.9601 B( 18-C , 19-C ) :   1.1926 B( 18-C , 21-H ) :   1.0009
B( 19-C , 20-C ) :   1.5529 B( 19-C , 22-C ) :   1.0616 B( 22-C , 23-H ) :   0.9286
B( 22-C , 24-H ) :   0.9129 B( 22-C , 25-C ) :   1.0840 B( 25-C , 26-H ) :   0.9516
B( 25-C , 27-H ) :   0.9490 B( 25-C , 28-C ) :   1.0820 B( 28-C , 29-H ) :   0.9685
B( 28-C , 30-H ) :   0.9684 B( 28-C , 31-H ) :   0.9690

Dispersion correction           -0.016152920
FINAL SINGLE POINT ENERGY     -1339.860974381015

DIPOLE MOMENT
-------------
                                X             Y             Z
Electronic contribution:     12.55811      21.75307      14.40487
Nuclear contribution   :    -12.70659     -22.49721     -14.70528
                        -----------------------------------------
Total Dipole Moment    :     -0.14848      -0.74414      -0.30040
                        -----------------------------------------
Magnitude (a.u.)       :      0.81611
Magnitude (Debye)      :      2.07439

Rotational constants in cm-1:     0.018957     0.010723     0.007555
Rotational constants in MHz :   568.320422   321.460042   226.486739

                             ****ORCA TERMINATED NORMALLY****
TOTAL RUN TIME: 0 days 0 hours 0 minutes 23 seconds 621 msec
