                         Program Version 4.2.1 -  RELEASE  -
|  1> ! wB97X-D3 SP def2-SVP
|  2> %pal
|  3> nprocs 24
|  4> end
|  5>
|  6> * xyz 0 1
|  7> S 	 -102.743 	 62.1627 	 -9.76976
|  8> C 	 -104.009 	 63.3858 	 -9.74677
|  9> C 	 -103.43 	 64.6335 	 -9.51389
| 10> C 	 -102.009 	 64.6384 	 -9.42839
| 11> C 	 -101.479 	 63.3945 	 -9.50477
| 12> H 	 -101.413 	 65.5443 	 -9.47257
| 13> C 	 -104.281 	 65.8401 	 -9.35856
| 14> H 	 -103.986 	 66.4117 	 -8.453
| 15> H 	 -105.202 	 65.3842 	 -9.12867
| 16> C 	 -104.427 	 66.7905 	 -10.5633
| 17> H 	 -103.471 	 67.1683 	 -10.8521
| 18> H 	 -104.74 	 66.2483 	 -11.4698
| 19> C 	 -105.372 	 67.9823 	 -10.2103
| 20> H 	 -105.037 	 68.6057 	 -9.3565
| 21> H 	 -105.488 	 68.6702 	 -11.0269
| 22> H 	 -106.4 	 67.7061 	 -10.0812
| 23> S 	 -99.5564 	 62.055 	 -10.8177
| 24> C 	 -97.8293 	 62.3434 	 -10.3572
| 25> C 	 -97.7427 	 63.2524 	 -9.35692
| 26> C 	 -99.0242 	 63.6847 	 -8.8436
| 27> C 	 -100.072 	 63.0396 	 -9.47055
| 28> H 	 -96.8552 	 63.6148 	 -8.8738
| 29> C 	 -99.2 	 64.6465 	 -7.69531
| 30> H 	 -100.198 	 64.4715 	 -7.24808
| 31> H 	 -99.1973 	 65.7532 	 -7.86616
| 32> C 	 -98.1611 	 64.49 	 -6.5229
| 33> H 	 -98.3864 	 65.1551 	 -5.71676
| 34> H 	 -97.2118 	 64.9181 	 -6.78523
| 35> C 	 -98.1377 	 63.1656 	 -5.77352
| 36> H 	 -97.2385 	 63.2128 	 -5.23202
| 37> H 	 -97.9129 	 62.3752 	 -6.50693
| 38> H 	 -98.9436 	 62.8569 	 -5.15564
| 39> H 	 -105.106 	 63.2614 	 -9.7735
| 40> H 	 -97.0424 	 61.798 	 -10.8518
| 41> *
| 42>
| 43>                          ****END OF INPUT****

CARTESIAN COORDINATES (ANGSTROEM)
---------------------------------
  S    -102.743000   62.162700   -9.769760
  C    -104.009000   63.385800   -9.746770
  C    -103.430000   64.633500   -9.513890
  C    -102.009000   64.638400   -9.428390
  C    -101.479000   63.394500   -9.504770
  H    -101.413000   65.544300   -9.472570
  C    -104.281000   65.840100   -9.358560
  H    -103.986000   66.411700   -8.453000
  H    -105.202000   65.384200   -9.128670
  C    -104.427000   66.790500  -10.563300
  H    -103.471000   67.168300  -10.852100
  H    -104.740000   66.248300  -11.469800
  C    -105.372000   67.982300  -10.210300
  H    -105.037000   68.605700   -9.356500
  H    -105.488000   68.670200  -11.026900
  H    -106.400000   67.706100  -10.081200
  S    -99.556400   62.055000  -10.817700
  C    -97.829300   62.343400  -10.357200
  C    -97.742700   63.252400   -9.356920
  C    -99.024200   63.684700   -8.843600
  C    -100.072000   63.039600   -9.470550
  H    -96.855200   63.614800   -8.873800
  C    -99.200000   64.646500   -7.695310
  H    -100.198000   64.471500   -7.248080
  H    -99.197300   65.753200   -7.866160
  C    -98.161100   64.490000   -6.522900
  H    -98.386400   65.155100   -5.716760
  H    -97.211800   64.918100   -6.785230
  C    -98.137700   63.165600   -5.773520
  H    -97.238500   63.212800   -5.232020
  H    -97.912900   62.375200   -6.506930
  H    -98.943600   62.856900   -5.155640
  H    -105.106000   63.261400   -9.773500
  H    -97.042400   61.798000  -10.851800

 Total Charge           Charge          ....    0
 Multiplicity           Mult            ....    1
 Number of Electrons    NEL             ....  134
 Basis Dimension        Dim             ....  322

ORBITAL ENERGIES
----------------

  NO   OCC          E(Eh)            E(eV)
   0   2.0000     -88.965785     -2420.8821
   1   2.0000     -88.962958     -2420.8052
   2   2.0000     -10.328720      -281.0588
   3   2.0000     -10.324290      -280.9382
   4   2.0000     -10.321816      -280.8709
   5   2.0000     -10.316632      -280.7298
   6   2.0000     -10.304690      -280.4049
   7   2.0000     -10.297469      -280.2084
   8   2.0000     -10.296436      -280.1803
   9   2.0000     -10.296049      -280.1697
  10   2.0000     -10.290330      -280.0141
  11   2.0000     -10.289130      -279.9815
  12   2.0000     -10.284773      -279.8629
  13   2.0000     -10.283223      -279.8207
  14   2.0000     -10.278566      -279.6940
  15   2.0000     -10.267388      -279.3898
  16   2.0000      -8.079704      -219.8599
  17   2.0000      -8.077334      -219.7954
  18   2.0000      -6.038402      -164.3133
  19   2.0000      -6.036000      -164.2479
  20   2.0000      -6.034295      -164.2015
  21   2.0000      -6.032009      -164.1393
  22   2.0000      -6.030349      -164.0941
  23   2.0000      -6.027816      -164.0252
  24   2.0000      -1.006075       -27.3767
  25   2.0000      -0.980846       -26.6902
  26   2.0000      -0.910345       -24.7717
  27   2.0000      -0.904902       -24.6236
  28   2.0000      -0.871237       -23.7076
  29   2.0000      -0.852336       -23.1932
  30   2.0000      -0.843466       -22.9519
  31   2.0000      -0.820768       -22.3342
  32   2.0000      -0.782553       -21.2943
  33   2.0000      -0.768803       -20.9202
  34   2.0000      -0.713594       -19.4179
  35   2.0000      -0.702249       -19.1092
  36   2.0000      -0.698293       -19.0015
  37   2.0000      -0.662813       -18.0361
  38   2.0000      -0.637759       -17.3543
  39   2.0000      -0.620858       -16.8944
  40   2.0000      -0.601861       -16.3775
  41   2.0000      -0.569568       -15.4987
  42   2.0000      -0.551790       -15.0150
  43   2.0000      -0.548407       -14.9229
  44   2.0000      -0.538860       -14.6631
  45   2.0000      -0.526340       -14.3224
  46   2.0000      -0.515882       -14.0379
  47   2.0000      -0.512196       -13.9376
  48   2.0000      -0.504076       -13.7166
  49   2.0000      -0.502746       -13.6804
  50   2.0000      -0.494211       -13.4482
  51   2.0000      -0.481822       -13.1110
  52   2.0000      -0.474002       -12.8983
  53   2.0000      -0.465554       -12.6684
  54   2.0000      -0.456178       -12.4132
  55   2.0000      -0.448402       -12.2016
  56   2.0000      -0.438992       -11.9456
  57   2.0000      -0.438626       -11.9356
  58   2.0000      -0.433327       -11.7914
  59   2.0000      -0.422652       -11.5010
  60   2.0000      -0.420523       -11.4430
  61   2.0000      -0.416876       -11.3438
  62   2.0000      -0.404876       -11.0172
  63   2.0000      -0.356010        -9.6875
  64   2.0000      -0.330723        -8.9994
  65   2.0000      -0.325758        -8.8643
  66   2.0000      -0.291349        -7.9280
  67   0.0000       0.025402         0.6912
  68   0.0000       0.075564         2.0562
  69   0.0000       0.101956         2.7744
  70   0.0000       0.116242         3.1631
  71   0.0000       0.138336         3.7643

MULLIKEN ATOMIC CHARGES
-----------------------
   0 S :    0.099271
   1 C :   -0.117335
   2 C :   -0.122968
   3 C :    0.023564
   4 C :   -0.133042
   5 H :    0.023241
   6 C :    0.074875
   7 H :    0.028692
   8 H :   -0.006160
   9 C :   -0.039222
  10 H :    0.015917
  11 H :    0.027699
  12 C :   -0.046103
  13 H :    0.037147
  14 H :    0.021112
  15 H :    0.024493
  16 S :    0.081174
  17 C :   -0.087670
  18 C :    0.018024
  19 C :   -0.059357
  20 C :   -0.109140
  21 H :    0.012071
  22 C :    0.033471
  23 H :    0.036642
  24 H :    0.045027
  25 C :   -0.103852
  26 H :    0.012240
  27 H :    0.018698
  28 C :   -0.010769
  29 H :    0.014154
  30 H :    0.025457
  31 H :    0.042107
  32 H :    0.060345
  33 H :    0.060201
Sum of atomic charges:    0.0000000

LOEWDIN ATOMIC CHARGES
----------------------
   0 S :    0.382250
   1 C :   -0.202782
   2 C :   -0.063388
   3 C :   -0.062392
   4 C :   -0.177856
   5 H :    0.036795
   6 C :   -0.035166
   7 H :    0.034051
   8 H :    0.022192
   9 C :   -0.033044
  10 H :    0.018007
  11 H :    0.028381
  12 C :   -0.068931
  13 H :    0.029662
  14 H :    0.023746
  15 H :    0.022353
  16 S :    0.378758
  17 C :   -0.156558
  18 C :   -0.061019
  19 C :   -0.059401
  20 C :   -0.192269
  21 H :    0.030714
  22 C :   -0.041164
  23 H :    0.036182
  24 H :    0.036417
  25 C :   -0.048267
  26 H :    0.024868
  27 H :    0.018662
  28 C :   -0.061523
  29 H :    0.024125
  30 H :    0.026516
  31 H :    0.024522
  32 H :    0.037842
  33 H :    0.027717

  Mayer bond orders larger than 0.100000
B(  0-S ,  1-C ) :   1.1185 B(  0-S ,  4-C ) :   1.1362 B(  1-C ,  2-C ) :   1.6263
B(  1-C , 32-H ) :   0.9609 B(  2-C ,  3-C ) :   1.2288 B(  2-C ,  6-C ) :   1.0338
B(  3-C ,  4-C ) :   1.5873 B(  3-C ,  5-H ) :   0.9931 B(  4-C , 20-C ) :   1.0217
B(  6-C ,  7-H ) :   0.9385 B(  6-C ,  8-H ) :   0.9333 B(  6-C ,  9-C ) :   1.0596
B(  9-C , 10-H ) :   0.9568 B(  9-C , 11-H ) :   0.9529 B(  9-C , 12-C ) :   1.0772
B( 12-C , 13-H ) :   0.9753 B( 12-C , 14-H ) :   0.9732 B( 12-C , 15-H ) :   0.9766
B( 16-S , 17-C ) :   1.1274 B( 16-S , 20-C ) :   1.1375 B( 17-C , 18-C ) :   1.6115
B( 17-C , 33-H ) :   0.9733 B( 18-C , 19-C ) :   1.2231 B( 18-C , 21-H ) :   0.9913
B( 19-C , 20-C ) :   1.6253 B( 19-C , 22-C ) :   1.0371 B( 22-C , 23-H ) :   0.9401
B( 22-C , 24-H ) :   0.9344 B( 22-C , 25-C ) :   1.0719 B( 25-C , 26-H ) :   0.9487
B( 25-C , 27-H ) :   0.9523 B( 25-C , 28-C ) :   1.0732 B( 28-C , 29-H ) :   0.9675
B( 28-C , 30-H ) :   0.9720 B( 28-C , 31-H ) :   0.9778

Dispersion correction           -0.013955649
FINAL SINGLE POINT ENERGY     -1339.873124526825

DIPOLE MOMENT
-------------
                                X             Y             Z
Electronic contribution:      3.59088     -21.69548     -12.73314
Nuclear contribution   :     -3.47245      22.40562      13.02254
                        -----------------------------------------
Total Dipole Moment    :      0.11843       0.71014       0.28940
                        -----------------------------------------
Magnitude (a.u.)       :      0.77594
Magnitude (Debye)      :      1.97228

Rotational constants in cm-1:     0.019851     0.007624     0.006482
Rotational constants in MHz :   595.131570   228.556658   194.313362

                             ****ORCA TERMINATED NORMALLY****
TOTAL RUN TIME: 0 days 0 hours 0 minutes 20 seconds 244 msec
