                         Program Version 4.2.1 -  RELEASE  -
|  1> ! wB97X-D3 SP def2-SVP
|  2> %pal
|  3> nprocs 24
|  4> end
|  5>
|  6> * xyz 0 1
|  7> S 	 -67.517 	 16.7263 	 -104.226
|  8> C 	 -68.8222 	 16.3572 	 -105.224
|  9> C 	 -68.3835 	 16.1072 	 -106.497
| 10> C 	 -66.9631 	 16.3852 	 -106.662
| 11> C 	 -66.3214 	 16.5737 	 -105.427
| 12> H 	 -66.4005 	 16.2287 	 -107.554
| 13> C 	 -69.2336 	 15.6192 	 -107.723
| 14> H 	 -68.4575 	 15.0774 	 -108.385
| 15> H 	 -69.587 	 16.5154 	 -108.245
| 16> C 	 -70.2032 	 14.5419 	 -107.38
| 17> H 	 -69.7659 	 13.7824 	 -106.756
| 18> H 	 -70.9393 	 14.8939 	 -106.695
| 19> C 	 -70.9369 	 13.9028 	 -108.667
| 20> H 	 -71.4512 	 14.5749 	 -109.364
| 21> H 	 -70.2807 	 13.1917 	 -109.223
| 22> H 	 -71.8079 	 13.322 	 -108.4
| 23> S 	 -63.9623 	 15.9625 	 -104.141
| 24> C 	 -62.4416 	 16.6526 	 -104.659
| 25> C 	 -62.7887 	 17.6645 	 -105.566
| 26> C 	 -64.1301 	 17.8036 	 -105.955
| 27> C 	 -64.915 	 16.9179 	 -105.258
| 28> H 	 -61.9924 	 18.231 	 -105.886
| 29> C 	 -64.5406 	 18.9036 	 -106.949
| 30> H 	 -64.6297 	 19.8266 	 -106.291
| 31> H 	 -65.521 	 18.7293 	 -107.294
| 32> C 	 -63.5726 	 19.2356 	 -108.077
| 33> H 	 -62.6344 	 19.4341 	 -107.49
| 34> H 	 -63.8089 	 20.1154 	 -108.583
| 35> C 	 -63.3788 	 18.1276 	 -109.102
| 36> H 	 -64.2976 	 18.0418 	 -109.594
| 37> H 	 -63.1954 	 17.2144 	 -108.647
| 38> H 	 -62.6175 	 18.3716 	 -109.723
| 39> H 	 -69.8374 	 16.0977 	 -104.919
| 40> H 	 -61.445 	 16.5634 	 -104.236
| 41> *
| 42>
| 43>                          ****END OF INPUT****

CARTESIAN COORDINATES (ANGSTROEM)
---------------------------------
  S    -67.517000   16.726300  -104.226000
  C    -68.822200   16.357200  -105.224000
  C    -68.383500   16.107200  -106.497000
  C    -66.963100   16.385200  -106.662000
  C    -66.321400   16.573700  -105.427000
  H    -66.400500   16.228700  -107.554000
  C    -69.233600   15.619200  -107.723000
  H    -68.457500   15.077400  -108.385000
  H    -69.587000   16.515400  -108.245000
  C    -70.203200   14.541900  -107.380000
  H    -69.765900   13.782400  -106.756000
  H    -70.939300   14.893900  -106.695000
  C    -70.936900   13.902800  -108.667000
  H    -71.451200   14.574900  -109.364000
  H    -70.280700   13.191700  -109.223000
  H    -71.807900   13.322000  -108.400000
  S    -63.962300   15.962500  -104.141000
  C    -62.441600   16.652600  -104.659000
  C    -62.788700   17.664500  -105.566000
  C    -64.130100   17.803600  -105.955000
  C    -64.915000   16.917900  -105.258000
  H    -61.992400   18.231000  -105.886000
  C    -64.540600   18.903600  -106.949000
  H    -64.629700   19.826600  -106.291000
  H    -65.521000   18.729300  -107.294000
  C    -63.572600   19.235600  -108.077000
  H    -62.634400   19.434100  -107.490000
  H    -63.808900   20.115400  -108.583000
  C    -63.378800   18.127600  -109.102000
  H    -64.297600   18.041800  -109.594000
  H    -63.195400   17.214400  -108.647000
  H    -62.617500   18.371600  -109.723000
  H    -69.837400   16.097700  -104.919000
  H    -61.445000   16.563400  -104.236000

 Total Charge           Charge          ....    0
 Multiplicity           Mult            ....    1
 Number of Electrons    NEL             ....  134
 Basis Dimension        Dim             ....  322

ORBITAL ENERGIES
----------------

  NO   OCC          E(Eh)            E(eV)
   0   2.0000     -88.964451     -2420.8458
   1   2.0000     -88.964215     -2420.8394
   2   2.0000     -10.326955      -281.0107
   3   2.0000     -10.326729      -281.0046
   4   2.0000     -10.319806      -280.8162
   5   2.0000     -10.308313      -280.5034
   6   2.0000     -10.303132      -280.3625
   7   2.0000     -10.301770      -280.3254
   8   2.0000     -10.300052      -280.2787
   9   2.0000     -10.293462      -280.0994
  10   2.0000     -10.292626      -280.0766
  11   2.0000     -10.289510      -279.9918
  12   2.0000     -10.286212      -279.9021
  13   2.0000     -10.285569      -279.8846
  14   2.0000     -10.282622      -279.8044
  15   2.0000     -10.257782      -279.1284
  16   2.0000      -8.080887      -219.8921
  17   2.0000      -8.079099      -219.8435
  18   2.0000      -6.039366      -164.3395
  19   2.0000      -6.037639      -164.2925
  20   2.0000      -6.034833      -164.2162
  21   2.0000      -6.033416      -164.1776
  22   2.0000      -6.031837      -164.1346
  23   2.0000      -6.030011      -164.0849
  24   2.0000      -1.013732       -27.5850
  25   2.0000      -0.991190       -26.9716
  26   2.0000      -0.913789       -24.8655
  27   2.0000      -0.908280       -24.7156
  28   2.0000      -0.871439       -23.7131
  29   2.0000      -0.852989       -23.2110
  30   2.0000      -0.842581       -22.9278
  31   2.0000      -0.812743       -22.1159
  32   2.0000      -0.788772       -21.4636
  33   2.0000      -0.777628       -21.1603
  34   2.0000      -0.712329       -19.3834
  35   2.0000      -0.707410       -19.2496
  36   2.0000      -0.697129       -18.9699
  37   2.0000      -0.662033       -18.0148
  38   2.0000      -0.642733       -17.4897
  39   2.0000      -0.611924       -16.6513
  40   2.0000      -0.596644       -16.2355
  41   2.0000      -0.573818       -15.6144
  42   2.0000      -0.562968       -15.3191
  43   2.0000      -0.558330       -15.1929
  44   2.0000      -0.547073       -14.8866
  45   2.0000      -0.527690       -14.3592
  46   2.0000      -0.515378       -14.0241
  47   2.0000      -0.512351       -13.9418
  48   2.0000      -0.509663       -13.8686
  49   2.0000      -0.503528       -13.7017
  50   2.0000      -0.497037       -13.5251
  51   2.0000      -0.477307       -12.9882
  52   2.0000      -0.475321       -12.9341
  53   2.0000      -0.473370       -12.8810
  54   2.0000      -0.460927       -12.5425
  55   2.0000      -0.449298       -12.2260
  56   2.0000      -0.446108       -12.1392
  57   2.0000      -0.437984       -11.9181
  58   2.0000      -0.432989       -11.7822
  59   2.0000      -0.420959       -11.4549
  60   2.0000      -0.416413       -11.3312
  61   2.0000      -0.412450       -11.2233
  62   2.0000      -0.410372       -11.1668
  63   2.0000      -0.346194        -9.4204
  64   2.0000      -0.329961        -8.9787
  65   2.0000      -0.327380        -8.9085
  66   2.0000      -0.298213        -8.1148
  67   0.0000       0.032739         0.8909
  68   0.0000       0.073823         2.0088
  69   0.0000       0.118484         3.2241
  70   0.0000       0.126372         3.4388
  71   0.0000       0.133293         3.6271

MULLIKEN ATOMIC CHARGES
-----------------------
   0 S :    0.125409
   1 C :   -0.114081
   2 C :   -0.131999
   3 C :    0.024047
   4 C :   -0.137190
   5 H :    0.008882
   6 C :    0.061636
   7 H :    0.036178
   8 H :    0.054882
   9 C :   -0.071954
  10 H :    0.030720
  11 H :    0.015925
  12 C :   -0.064311
  13 H :    0.031993
  14 H :    0.044482
  15 H :    0.021036
  16 S :    0.107932
  17 C :   -0.091807
  18 C :   -0.051009
  19 C :   -0.011374
  20 C :   -0.178725
  21 H :   -0.014552
  22 C :    0.086704
  23 H :    0.051548
  24 H :    0.001436
  25 C :   -0.084864
  26 H :    0.022983
  27 H :    0.016516
  28 C :    0.052960
  29 H :    0.009411
  30 H :    0.014695
  31 H :    0.015054
  32 H :    0.052775
  33 H :    0.064664
Sum of atomic charges:    0.0000000

LOEWDIN ATOMIC CHARGES
----------------------
   0 S :    0.456902
   1 C :   -0.230492
   2 C :   -0.064700
   3 C :   -0.063041
   4 C :   -0.214447
   5 H :    0.024852
   6 C :   -0.033176
   7 H :    0.038950
   8 H :    0.035181
   9 C :   -0.042874
  10 H :    0.029196
  11 H :    0.015905
  12 C :   -0.074317
  13 H :    0.027736
  14 H :    0.029605
  15 H :    0.024949
  16 S :    0.411592
  17 C :   -0.191187
  18 C :   -0.066882
  19 C :   -0.056458
  20 C :   -0.200871
  21 H :    0.012677
  22 C :   -0.025157
  23 H :    0.047689
  24 H :    0.016682
  25 C :   -0.034231
  26 H :    0.024206
  27 H :    0.017391
  28 C :   -0.041421
  29 H :    0.020956
  30 H :    0.018766
  31 H :    0.015478
  32 H :    0.033375
  33 H :    0.037164

  Mayer bond orders larger than 0.100000
B(  0-S ,  1-C ) :   1.1557 B(  0-S ,  4-C ) :   1.1889 B(  1-C ,  2-C ) :   1.5947
B(  1-C , 32-H ) :   0.9669 B(  2-C ,  3-C ) :   1.2777 B(  2-C ,  6-C ) :   0.9902
B(  3-C ,  4-C ) :   1.5398 B(  3-C ,  5-H ) :   0.9960 B(  4-C , 20-C ) :   1.0043
B(  6-C ,  7-H ) :   0.9534 B(  6-C ,  8-H ) :   0.9415 B(  6-C ,  9-C ) :   1.0627
B(  9-C , 10-H ) :   0.9585 B(  9-C , 11-H ) :   0.9523 B(  9-C , 12-C ) :   1.0693
B( 12-C , 13-H ) :   0.9768 B( 12-C , 14-H ) :   0.9791 B( 12-C , 15-H ) :   0.9746
B( 16-S , 17-C ) :   1.1578 B( 16-S , 20-C ) :   1.1575 B( 17-C , 18-C ) :   1.5921
B( 17-C , 20-C ) :   0.1092 B( 17-C , 33-H ) :   0.9668 B( 18-C , 19-C ) :   1.2499
B( 18-C , 21-H ) :   0.9961 B( 19-C , 20-C ) :   1.5778 B( 19-C , 22-C ) :   1.0252
B( 22-C , 23-H ) :   0.9319 B( 22-C , 24-H ) :   0.9336 B( 22-C , 25-C ) :   1.0742
B( 25-C , 26-H ) :   0.9505 B( 25-C , 27-H ) :   0.9526 B( 25-C , 28-C ) :   1.0783
B( 28-C , 29-H ) :   0.9704 B( 28-C , 30-H ) :   0.9729 B( 28-C , 31-H ) :   0.9706

Dispersion correction           -0.014028671
FINAL SINGLE POINT ENERGY     -1339.856022765842

DIPOLE MOMENT
-------------
                                X             Y             Z
Electronic contribution:      8.24321      -0.24107      25.45019
Nuclear contribution   :     -8.29991       0.41372     -26.04082
                        -----------------------------------------
Total Dipole Moment    :     -0.05671       0.17265      -0.59063
                        -----------------------------------------
Magnitude (a.u.)       :      0.61795
Magnitude (Debye)      :      1.57072

Rotational constants in cm-1:     0.020195     0.007581     0.006209
Rotational constants in MHz :   605.426607   227.282373   186.152342

                             ****ORCA TERMINATED NORMALLY****
TOTAL RUN TIME: 0 days 0 hours 0 minutes 21 seconds 250 msec
