                         Program Version 4.2.1 -  RELEASE  -
|  1> ! wB97X-D3 SP def2-SVP
|  2> %pal
|  3> nprocs 24
|  4> end
|  5>
|  6> * xyz 0 1
|  7> S 	 -85.4226 	 -0.0277712 	 5.10344
|  8> C 	 -85.1604 	 0.383214 	 3.48464
|  9> C 	 -86.2045 	 0.135838 	 2.63956
| 10> C 	 -87.333 	 -0.353548 	 3.32729
| 11> C 	 -87.0422 	 -0.511001 	 4.69862
| 12> H 	 -88.2409 	 -0.683886 	 2.98935
| 13> C 	 -86.1098 	 0.453998 	 1.1517
| 14> H 	 -86.9581 	 -0.04335 	 0.684376
| 15> H 	 -85.2041 	 0.00118849 	 0.788494
| 16> C 	 -86.0025 	 1.90083 	 0.734866
| 17> H 	 -85.9977 	 1.99922 	 -0.366826
| 18> H 	 -86.837 	 2.50965 	 1.00294
| 19> C 	 -84.6767 	 2.60482 	 1.11929
| 20> H 	 -83.8592 	 1.82505 	 1.15238
| 21> H 	 -84.3792 	 3.45401 	 0.448813
| 22> H 	 -84.6195 	 3.01636 	 2.1318
| 23> S 	 -88.4614 	 0.102961 	 6.99926
| 24> C 	 -89.1801 	 -1.21586 	 7.9319
| 25> C 	 -89.2266 	 -2.33765 	 7.22347
| 26> C 	 -88.6133 	 -2.2663 	 5.93023
| 27> C 	 -87.9747 	 -1.02788 	 5.74095
| 28> H 	 -89.7247 	 -3.23638 	 7.62848
| 29> C 	 -88.4775 	 -3.43423 	 4.97397
| 30> H 	 -88.5135 	 -3.05431 	 3.96927
| 31> H 	 -89.3618 	 -4.0711 	 5.1217
| 32> C 	 -87.1589 	 -4.32007 	 5.08365
| 33> H 	 -86.8905 	 -4.5619 	 6.07606
| 34> H 	 -86.3297 	 -3.76851 	 4.63246
| 35> C 	 -87.3094 	 -5.67784 	 4.28111
| 36> H 	 -87.5604 	 -5.42201 	 3.34157
| 37> H 	 -88.2068 	 -6.23235 	 4.61532
| 38> H 	 -86.4597 	 -6.23607 	 4.20105
| 39> H 	 -84.2865 	 0.958412 	 3.22999
| 40> H 	 -89.649 	 -0.994563 	 8.89145
| 41> *
| 42>
| 43>                          ****END OF INPUT****

CARTESIAN COORDINATES (ANGSTROEM)
---------------------------------
  S    -85.422600   -0.027771    5.103440
  C    -85.160400    0.383214    3.484640
  C    -86.204500    0.135838    2.639560
  C    -87.333000   -0.353548    3.327290
  C    -87.042200   -0.511001    4.698620
  H    -88.240900   -0.683886    2.989350
  C    -86.109800    0.453998    1.151700
  H    -86.958100   -0.043350    0.684376
  H    -85.204100    0.001188    0.788494
  C    -86.002500    1.900830    0.734866
  H    -85.997700    1.999220   -0.366826
  H    -86.837000    2.509650    1.002940
  C    -84.676700    2.604820    1.119290
  H    -83.859200    1.825050    1.152380
  H    -84.379200    3.454010    0.448813
  H    -84.619500    3.016360    2.131800
  S    -88.461400    0.102961    6.999260
  C    -89.180100   -1.215860    7.931900
  C    -89.226600   -2.337650    7.223470
  C    -88.613300   -2.266300    5.930230
  C    -87.974700   -1.027880    5.740950
  H    -89.724700   -3.236380    7.628480
  C    -88.477500   -3.434230    4.973970
  H    -88.513500   -3.054310    3.969270
  H    -89.361800   -4.071100    5.121700
  C    -87.158900   -4.320070    5.083650
  H    -86.890500   -4.561900    6.076060
  H    -86.329700   -3.768510    4.632460
  C    -87.309400   -5.677840    4.281110
  H    -87.560400   -5.422010    3.341570
  H    -88.206800   -6.232350    4.615320
  H    -86.459700   -6.236070    4.201050
  H    -84.286500    0.958412    3.229990
  H    -89.649000   -0.994563    8.891450

 Total Charge           Charge          ....    0
 Multiplicity           Mult            ....    1
 Number of Electrons    NEL             ....  134
 Basis Dimension        Dim             ....  322

ORBITAL ENERGIES
----------------

  NO   OCC          E(Eh)            E(eV)
   0   2.0000     -88.968595     -2420.9585
   1   2.0000     -88.958264     -2420.6774
   2   2.0000     -10.329450      -281.0786
   3   2.0000     -10.326741      -281.0049
   4   2.0000     -10.312463      -280.6164
   5   2.0000     -10.303968      -280.3852
   6   2.0000     -10.303639      -280.3763
   7   2.0000     -10.297316      -280.2042
   8   2.0000     -10.293523      -280.1010
   9   2.0000     -10.291723      -280.0520
  10   2.0000     -10.291295      -280.0404
  11   2.0000     -10.291060      -280.0340
  12   2.0000     -10.287418      -279.9349
  13   2.0000     -10.287254      -279.9304
  14   2.0000     -10.285425      -279.8806
  15   2.0000     -10.263395      -279.2812
  16   2.0000      -8.084531      -219.9913
  17   2.0000      -8.073171      -219.6821
  18   2.0000      -6.042619      -164.4280
  19   2.0000      -6.038855      -164.3256
  20   2.0000      -6.035687      -164.2394
  21   2.0000      -6.031673      -164.1302
  22   2.0000      -6.027741      -164.0232
  23   2.0000      -6.023838      -163.9170
  24   2.0000      -1.008783       -27.4504
  25   2.0000      -0.987124       -26.8610
  26   2.0000      -0.914061       -24.8729
  27   2.0000      -0.897576       -24.4243
  28   2.0000      -0.865616       -23.5546
  29   2.0000      -0.856299       -23.3011
  30   2.0000      -0.845629       -23.0107
  31   2.0000      -0.814323       -22.1589
  32   2.0000      -0.784755       -21.3543
  33   2.0000      -0.770959       -20.9789
  34   2.0000      -0.710643       -19.3376
  35   2.0000      -0.701434       -19.0870
  36   2.0000      -0.690627       -18.7929
  37   2.0000      -0.660898       -17.9839
  38   2.0000      -0.649746       -17.6805
  39   2.0000      -0.617289       -16.7973
  40   2.0000      -0.596187       -16.2231
  41   2.0000      -0.569278       -15.4908
  42   2.0000      -0.558441       -15.1959
  43   2.0000      -0.554529       -15.0895
  44   2.0000      -0.540693       -14.7130
  45   2.0000      -0.529226       -14.4010
  46   2.0000      -0.518353       -14.1051
  47   2.0000      -0.510644       -13.8953
  48   2.0000      -0.494992       -13.4694
  49   2.0000      -0.491173       -13.3655
  50   2.0000      -0.488334       -13.2882
  51   2.0000      -0.485109       -13.2005
  52   2.0000      -0.470268       -12.7967
  53   2.0000      -0.463146       -12.6028
  54   2.0000      -0.456393       -12.4191
  55   2.0000      -0.451978       -12.2989
  56   2.0000      -0.444959       -12.1080
  57   2.0000      -0.442467       -12.0402
  58   2.0000      -0.436962       -11.8903
  59   2.0000      -0.429347       -11.6831
  60   2.0000      -0.426414       -11.6033
  61   2.0000      -0.416541       -11.3347
  62   2.0000      -0.410524       -11.1709
  63   2.0000      -0.342480        -9.3194
  64   2.0000      -0.332153        -9.0383
  65   2.0000      -0.325547        -8.8586
  66   2.0000      -0.296970        -8.0810
  67   0.0000       0.034251         0.9320
  68   0.0000       0.066740         1.8161
  69   0.0000       0.114269         3.1094
  70   0.0000       0.119896         3.2625
  71   0.0000       0.138321         3.7639

MULLIKEN ATOMIC CHARGES
-----------------------
   0 S :    0.147777
   1 C :   -0.135512
   2 C :   -0.062615
   3 C :    0.074935
   4 C :   -0.190693
   5 H :   -0.024388
   6 C :    0.094157
   7 H :    0.018513
   8 H :    0.027216
   9 C :   -0.037267
  10 H :    0.030379
  11 H :    0.024741
  12 C :   -0.112468
  13 H :    0.027693
  14 H :    0.047782
  15 H :    0.040940
  16 S :    0.088745
  17 C :   -0.093987
  18 C :   -0.032535
  19 C :   -0.018267
  20 C :   -0.189557
  21 H :    0.026762
  22 C :    0.070308
  23 H :    0.013640
  24 H :    0.018914
  25 C :   -0.063514
  26 H :    0.023703
  27 H :    0.037488
  28 C :    0.012267
  29 H :   -0.011015
  30 H :    0.024597
  31 H :    0.020490
  32 H :    0.039777
  33 H :    0.060993
Sum of atomic charges:   -0.0000000

LOEWDIN ATOMIC CHARGES
----------------------
   0 S :    0.450017
   1 C :   -0.213121
   2 C :   -0.065379
   3 C :   -0.046025
   4 C :   -0.202368
   5 H :    0.016812
   6 C :   -0.027802
   7 H :    0.031373
   8 H :    0.031538
   9 C :   -0.040687
  10 H :    0.031056
  11 H :    0.020989
  12 C :   -0.077831
  13 H :    0.023623
  14 H :    0.033262
  15 H :    0.021867
  16 S :    0.382760
  17 C :   -0.175186
  18 C :   -0.077659
  19 C :   -0.057534
  20 C :   -0.196239
  21 H :    0.038234
  22 C :   -0.029469
  23 H :    0.026745
  24 H :    0.029624
  25 C :   -0.022728
  26 H :    0.014310
  27 H :    0.026923
  28 C :   -0.052034
  29 H :    0.008720
  30 H :    0.028778
  31 H :    0.015014
  32 H :    0.021404
  33 H :    0.031011

  Mayer bond orders larger than 0.100000
B(  0-S ,  1-C ) :   1.1659 B(  0-S ,  4-C ) :   1.1883 B(  1-C ,  2-C ) :   1.5879
B(  1-C , 32-H ) :   0.9622 B(  2-C ,  3-C ) :   1.2635 B(  2-C ,  6-C ) :   1.0111
B(  3-C ,  4-C ) :   1.5427 B(  3-C ,  5-H ) :   1.0113 B(  4-C , 20-C ) :   1.0125
B(  6-C ,  7-H ) :   0.9366 B(  6-C ,  8-H ) :   0.9381 B(  6-C ,  9-C ) :   1.0885
B(  9-C , 10-H ) :   0.9544 B(  9-C , 11-H ) :   0.9537 B(  9-C , 12-C ) :   1.0632
B( 12-C , 13-H ) :   0.9722 B( 12-C , 14-H ) :   0.9724 B( 12-C , 15-H ) :   0.9720
B( 16-S , 17-C ) :   1.1331 B( 16-S , 20-C ) :   1.1566 B( 17-C , 18-C ) :   1.6328
B( 17-C , 33-H ) :   0.9674 B( 18-C , 19-C ) :   1.2228 B( 18-C , 21-H ) :   0.9869
B( 19-C , 20-C ) :   1.5917 B( 19-C , 22-C ) :   1.0580 B( 22-C , 23-H ) :   0.9281
B( 22-C , 24-H ) :   0.9365 B( 22-C , 25-C ) :   1.0539 B( 25-C , 26-H ) :   0.9656
B( 25-C , 27-H ) :   0.9572 B( 25-C , 28-C ) :   1.0749 B( 28-C , 29-H ) :   0.9703
B( 28-C , 30-H ) :   0.9753 B( 28-C , 31-H ) :   0.9746

Dispersion correction           -0.014311278
FINAL SINGLE POINT ENERGY     -1339.871222453413

DIPOLE MOMENT
-------------
                                X             Y             Z
Electronic contribution:     -4.35092       8.66173      20.34966
Nuclear contribution   :      4.28331      -8.87982     -20.80841
                        -----------------------------------------
Total Dipole Moment    :     -0.06761      -0.21809      -0.45875
                        -----------------------------------------
Magnitude (a.u.)       :      0.51243
Magnitude (Debye)      :      1.30249

Rotational constants in cm-1:     0.020032     0.008069     0.006533
Rotational constants in MHz :   600.529340   241.909903   195.851203

                             ****ORCA TERMINATED NORMALLY****
TOTAL RUN TIME: 0 days 0 hours 0 minutes 21 seconds 338 msec
