                         Program Version 4.2.1 -  RELEASE  -
|  1> ! wB97X-D3 SP def2-SVP
|  2> %pal
|  3> nprocs 24
|  4> end
|  5>
|  6> * xyz 0 1
|  7> S 	 -147.755 	 5.2999 	 10.2963
|  8> C 	 -147.298 	 4.55267 	 8.8012
|  9> C 	 -146.177 	 5.14969 	 8.29595
| 10> C 	 -145.785 	 6.27492 	 9.07894
| 11> C 	 -146.61 	 6.51154 	 10.1796
| 12> H 	 -144.846 	 6.89574 	 8.80981
| 13> C 	 -145.356 	 4.58557 	 7.16362
| 14> H 	 -144.933 	 5.39881 	 6.64222
| 15> H 	 -146.058 	 4.24974 	 6.50193
| 16> C 	 -144.387 	 3.50983 	 7.64643
| 17> H 	 -143.653 	 3.37869 	 6.86095
| 18> H 	 -143.865 	 3.89789 	 8.55775
| 19> C 	 -145.007 	 2.18051 	 7.86218
| 20> H 	 -145.928 	 2.25604 	 8.4878
| 21> H 	 -145.276 	 1.58405 	 6.94243
| 22> H 	 -144.346 	 1.55489 	 8.44948
| 23> S 	 -145.7 	 7.17543 	 12.7965
| 24> C 	 -146.022 	 8.76113 	 13.4521
| 25> C 	 -146.52 	 9.5415 	 12.4942
| 26> C 	 -146.849 	 8.88743 	 11.2538
| 27> C 	 -146.515 	 7.50486 	 11.2326
| 28> H 	 -146.667 	 10.5642 	 12.6544
| 29> C 	 -147.425 	 9.68217 	 10.0561
| 30> H 	 -147.392 	 9.09177 	 9.1323
| 31> H 	 -146.58 	 10.4504 	 9.7949
| 32> C 	 -148.879 	 10.1602 	 10.2312
| 33> H 	 -149.108 	 10.6547 	 11.2184
| 34> H 	 -149.553 	 9.33545 	 10.2363
| 35> C 	 -149.382 	 11.1656 	 9.12164
| 36> H 	 -149.124 	 12.1116 	 9.41217
| 37> H 	 -150.493 	 11.2927 	 9.09952
| 38> H 	 -149.054 	 10.9492 	 8.15834
| 39> H 	 -147.657 	 3.56383 	 8.42418
| 40> H 	 -145.723 	 9.16828 	 14.4356
| 41> *
| 42>
| 43>                          ****END OF INPUT****

CARTESIAN COORDINATES (ANGSTROEM)
---------------------------------
  S    -147.755000    5.299900   10.296300
  C    -147.298000    4.552670    8.801200
  C    -146.177000    5.149690    8.295950
  C    -145.785000    6.274920    9.078940
  C    -146.610000    6.511540   10.179600
  H    -144.846000    6.895740    8.809810
  C    -145.356000    4.585570    7.163620
  H    -144.933000    5.398810    6.642220
  H    -146.058000    4.249740    6.501930
  C    -144.387000    3.509830    7.646430
  H    -143.653000    3.378690    6.860950
  H    -143.865000    3.897890    8.557750
  C    -145.007000    2.180510    7.862180
  H    -145.928000    2.256040    8.487800
  H    -145.276000    1.584050    6.942430
  H    -144.346000    1.554890    8.449480
  S    -145.700000    7.175430   12.796500
  C    -146.022000    8.761130   13.452100
  C    -146.520000    9.541500   12.494200
  C    -146.849000    8.887430   11.253800
  C    -146.515000    7.504860   11.232600
  H    -146.667000   10.564200   12.654400
  C    -147.425000    9.682170   10.056100
  H    -147.392000    9.091770    9.132300
  H    -146.580000   10.450400    9.794900
  C    -148.879000   10.160200   10.231200
  H    -149.108000   10.654700   11.218400
  H    -149.553000    9.335450   10.236300
  C    -149.382000   11.165600    9.121640
  H    -149.124000   12.111600    9.412170
  H    -150.493000   11.292700    9.099520
  H    -149.054000   10.949200    8.158340
  H    -147.657000    3.563830    8.424180
  H    -145.723000    9.168280   14.435600

 Total Charge           Charge          ....    0
 Multiplicity           Mult            ....    1
 Number of Electrons    NEL             ....  134
 Basis Dimension        Dim             ....  322

ORBITAL ENERGIES
----------------

  NO   OCC          E(Eh)            E(eV)
   0   2.0000     -88.964653     -2420.8513
   1   2.0000     -88.960903     -2420.7492
   2   2.0000     -10.331616      -281.1376
   3   2.0000     -10.326295      -280.9928
   4   2.0000     -10.316091      -280.7151
   5   2.0000     -10.311989      -280.6035
   6   2.0000     -10.308896      -280.5193
   7   2.0000     -10.301765      -280.3253
   8   2.0000     -10.300601      -280.2936
   9   2.0000     -10.295006      -280.1413
  10   2.0000     -10.289702      -279.9970
  11   2.0000     -10.287572      -279.9391
  12   2.0000     -10.284251      -279.8487
  13   2.0000     -10.280525      -279.7473
  14   2.0000     -10.279182      -279.7108
  15   2.0000     -10.268592      -279.4226
  16   2.0000      -8.081149      -219.8993
  17   2.0000      -8.075165      -219.7364
  18   2.0000      -6.039468      -164.3423
  19   2.0000      -6.035189      -164.2258
  20   2.0000      -6.033868      -164.1899
  21   2.0000      -6.032201      -164.1445
  22   2.0000      -6.029670      -164.0757
  23   2.0000      -6.025797      -163.9703
  24   2.0000      -1.013182       -27.5701
  25   2.0000      -0.985818       -26.8255
  26   2.0000      -0.923293       -25.1241
  27   2.0000      -0.896753       -24.4019
  28   2.0000      -0.872983       -23.7551
  29   2.0000      -0.848734       -23.0952
  30   2.0000      -0.841387       -22.8953
  31   2.0000      -0.814433       -22.1618
  32   2.0000      -0.790383       -21.5074
  33   2.0000      -0.771816       -21.0022
  34   2.0000      -0.712092       -19.3770
  35   2.0000      -0.698944       -19.0192
  36   2.0000      -0.693075       -18.8595
  37   2.0000      -0.651959       -17.7407
  38   2.0000      -0.638116       -17.3640
  39   2.0000      -0.619882       -16.8679
  40   2.0000      -0.595227       -16.1970
  41   2.0000      -0.580106       -15.7855
  42   2.0000      -0.552705       -15.0399
  43   2.0000      -0.549200       -14.9445
  44   2.0000      -0.544493       -14.8164
  45   2.0000      -0.525789       -14.3074
  46   2.0000      -0.520753       -14.1704
  47   2.0000      -0.510337       -13.8870
  48   2.0000      -0.505755       -13.7623
  49   2.0000      -0.503232       -13.6936
  50   2.0000      -0.486606       -13.2412
  51   2.0000      -0.476967       -12.9789
  52   2.0000      -0.470666       -12.8075
  53   2.0000      -0.465761       -12.6740
  54   2.0000      -0.461242       -12.5510
  55   2.0000      -0.443698       -12.0736
  56   2.0000      -0.441724       -12.0199
  57   2.0000      -0.437435       -11.9032
  58   2.0000      -0.435338       -11.8462
  59   2.0000      -0.432267       -11.7626
  60   2.0000      -0.415053       -11.2942
  61   2.0000      -0.410781       -11.1779
  62   2.0000      -0.403984       -10.9930
  63   2.0000      -0.334015        -9.0890
  64   2.0000      -0.330467        -8.9925
  65   2.0000      -0.321852        -8.7581
  66   2.0000      -0.311771        -8.4837
  67   0.0000       0.042436         1.1548
  68   0.0000       0.057867         1.5747
  69   0.0000       0.117529         3.1981
  70   0.0000       0.128260         3.4901
  71   0.0000       0.133779         3.6403

MULLIKEN ATOMIC CHARGES
-----------------------
   0 S :    0.133145
   1 C :   -0.133536
   2 C :   -0.165432
   3 C :    0.027198
   4 C :   -0.191416
   5 H :    0.040680
   6 C :    0.144748
   7 H :    0.003871
   8 H :   -0.006679
   9 C :   -0.036681
  10 H :    0.027995
  11 H :    0.040950
  12 C :   -0.068849
  13 H :    0.022990
  14 H :    0.042136
  15 H :    0.030466
  16 S :    0.094136
  17 C :   -0.083952
  18 C :   -0.005672
  19 C :   -0.028783
  20 C :   -0.156132
  21 H :   -0.002859
  22 C :    0.033735
  23 H :    0.026641
  24 H :    0.049379
  25 C :   -0.075918
  26 H :    0.030370
  27 H :    0.029872
  28 C :   -0.010544
  29 H :    0.007812
  30 H :    0.026898
  31 H :    0.021653
  32 H :    0.063916
  33 H :    0.067863
Sum of atomic charges:    0.0000000

LOEWDIN ATOMIC CHARGES
----------------------
   0 S :    0.461044
   1 C :   -0.216012
   2 C :   -0.068261
   3 C :   -0.071697
   4 C :   -0.231223
   5 H :    0.045226
   6 C :   -0.023087
   7 H :    0.025790
   8 H :    0.019593
   9 C :   -0.037842
  10 H :    0.025551
  11 H :    0.034101
  12 C :   -0.072657
  13 H :    0.024375
  14 H :    0.031545
  15 H :    0.027238
  16 S :    0.383623
  17 C :   -0.183461
  18 C :   -0.074438
  19 C :   -0.046533
  20 C :   -0.200595
  21 H :    0.022672
  22 C :   -0.042871
  23 H :    0.030862
  24 H :    0.044036
  25 C :   -0.038327
  26 H :    0.026989
  27 H :    0.022717
  28 C :   -0.056829
  29 H :    0.012476
  30 H :    0.033351
  31 H :    0.014441
  32 H :    0.035580
  33 H :    0.042625

  Mayer bond orders larger than 0.100000
B(  0-S ,  1-C ) :   1.1555 B(  0-S ,  4-C ) :   1.2033 B(  1-C ,  2-C ) :   1.5909
B(  1-C , 32-H ) :   0.9562 B(  2-C ,  3-C ) :   1.2882 B(  2-C ,  6-C ) :   1.0193
B(  3-C ,  4-C ) :   1.5305 B(  3-C ,  5-H ) :   0.9846 B(  4-C , 20-C ) :   1.0170
B(  6-C ,  7-H ) :   0.9297 B(  6-C ,  8-H ) :   0.9277 B(  6-C ,  9-C ) :   1.0587
B(  9-C , 10-H ) :   0.9510 B(  9-C , 11-H ) :   0.9548 B(  9-C , 12-C ) :   1.0898
B( 12-C , 13-H ) :   0.9682 B( 12-C , 14-H ) :   0.9723 B( 12-C , 15-H ) :   0.9676
B( 16-S , 17-C ) :   1.1449 B( 16-S , 20-C ) :   1.1286 B( 17-C , 18-C ) :   1.6255
B( 17-C , 33-H ) :   0.9606 B( 18-C , 19-C ) :   1.2411 B( 18-C , 21-H ) :   0.9967
B( 19-C , 20-C ) :   1.5948 B( 19-C , 22-C ) :   1.0402 B( 22-C , 23-H ) :   0.9317
B( 22-C , 24-H ) :   0.9465 B( 22-C , 25-C ) :   1.0437 B( 25-C , 26-H ) :   0.9655
B( 25-C , 27-H ) :   0.9564 B( 25-C , 28-C ) :   1.0715 B( 28-C , 29-H ) :   0.9773
B( 28-C , 30-H ) :   0.9742 B( 28-C , 31-H ) :   0.9781

Dispersion correction           -0.014069579
FINAL SINGLE POINT ENERGY     -1339.862463893917

DIPOLE MOMENT
-------------
                                X             Y             Z
Electronic contribution:      1.07354      -3.08614      17.86217
Nuclear contribution   :     -0.86230       3.29812     -18.31130
                        -----------------------------------------
Total Dipole Moment    :      0.21124       0.21199      -0.44912
                        -----------------------------------------
Magnitude (a.u.)       :      0.53970
Magnitude (Debye)      :      1.37180

Rotational constants in cm-1:     0.020858     0.007630     0.006356
Rotational constants in MHz :   625.293867   228.736206   190.554749

                             ****ORCA TERMINATED NORMALLY****
TOTAL RUN TIME: 0 days 0 hours 0 minutes 20 seconds 992 msec
