                         Program Version 4.2.1 -  RELEASE  -
|  1> ! wB97X-D3 SP def2-SVP
|  2> %pal
|  3> nprocs 24
|  4> end
|  5>
|  6> * xyz 0 1
|  7> S 	 -107.994 	 42.9969 	 -12.4897
|  8> C 	 -109.136 	 44.1775 	 -12.9836
|  9> C 	 -110.351 	 43.9984 	 -12.3573
| 10> C 	 -110.362 	 42.8854 	 -11.4771
| 11> C 	 -109.066 	 42.2863 	 -11.3495
| 12> H 	 -111.263 	 42.5325 	 -10.9714
| 13> C 	 -111.511 	 44.866 	 -12.6903
| 14> H 	 -111.298 	 45.9598 	 -12.4467
| 15> H 	 -112.323 	 44.402 	 -12.1204
| 16> C 	 -111.887 	 44.8027 	 -14.1982
| 17> H 	 -112.703 	 45.5255 	 -14.4556
| 18> H 	 -111.033 	 45.0468 	 -14.8006
| 19> C 	 -112.395 	 43.419 	 -14.5915
| 20> H 	 -113.204 	 43.0805 	 -14.0825
| 21> H 	 -112.585 	 43.3353 	 -15.7043
| 22> H 	 -111.527 	 42.7024 	 -14.364
| 23> S 	 -108.122 	 39.7392 	 -11.3211
| 24> C 	 -108.178 	 38.7975 	 -9.88377
| 25> C 	 -108.519 	 39.5447 	 -8.78096
| 26> C 	 -108.825 	 40.9083 	 -9.12126
| 27> C 	 -108.794 	 41.1079 	 -10.5149
| 28> H 	 -108.461 	 39.0088 	 -7.84903
| 29> C 	 -109.205 	 42.0075 	 -8.1186
| 30> H 	 -109.661 	 42.8222 	 -8.66683
| 31> H 	 -108.322 	 42.4996 	 -7.63126
| 32> C 	 -110.135 	 41.4401 	 -6.96501
| 33> H 	 -110.292 	 42.2884 	 -6.38223
| 34> H 	 -109.648 	 40.616 	 -6.32854
| 35> C 	 -111.564 	 40.9468 	 -7.33682
| 36> H 	 -112.377 	 41.6863 	 -7.04278
| 37> H 	 -111.757 	 39.9273 	 -6.81692
| 38> H 	 -111.609 	 40.7105 	 -8.42316
| 39> H 	 -108.86 	 45.0192 	 -13.6518
| 40> H 	 -107.751 	 37.8172 	 -9.90613
| 41> *
| 42>
| 43>                          ****END OF INPUT****

CARTESIAN COORDINATES (ANGSTROEM)
---------------------------------
  S    -107.994000   42.996900  -12.489700
  C    -109.136000   44.177500  -12.983600
  C    -110.351000   43.998400  -12.357300
  C    -110.362000   42.885400  -11.477100
  C    -109.066000   42.286300  -11.349500
  H    -111.263000   42.532500  -10.971400
  C    -111.511000   44.866000  -12.690300
  H    -111.298000   45.959800  -12.446700
  H    -112.323000   44.402000  -12.120400
  C    -111.887000   44.802700  -14.198200
  H    -112.703000   45.525500  -14.455600
  H    -111.033000   45.046800  -14.800600
  C    -112.395000   43.419000  -14.591500
  H    -113.204000   43.080500  -14.082500
  H    -112.585000   43.335300  -15.704300
  H    -111.527000   42.702400  -14.364000
  S    -108.122000   39.739200  -11.321100
  C    -108.178000   38.797500   -9.883770
  C    -108.519000   39.544700   -8.780960
  C    -108.825000   40.908300   -9.121260
  C    -108.794000   41.107900  -10.514900
  H    -108.461000   39.008800   -7.849030
  C    -109.205000   42.007500   -8.118600
  H    -109.661000   42.822200   -8.666830
  H    -108.322000   42.499600   -7.631260
  C    -110.135000   41.440100   -6.965010
  H    -110.292000   42.288400   -6.382230
  H    -109.648000   40.616000   -6.328540
  C    -111.564000   40.946800   -7.336820
  H    -112.377000   41.686300   -7.042780
  H    -111.757000   39.927300   -6.816920
  H    -111.609000   40.710500   -8.423160
  H    -108.860000   45.019200  -13.651800
  H    -107.751000   37.817200   -9.906130

 Total Charge           Charge          ....    0
 Multiplicity           Mult            ....    1
 Number of Electrons    NEL             ....  134
 Basis Dimension        Dim             ....  322

ORBITAL ENERGIES
----------------

  NO   OCC          E(Eh)            E(eV)
   0   2.0000     -88.970969     -2421.0232
   1   2.0000     -88.961819     -2420.7742
   2   2.0000     -10.332920      -281.1731
   3   2.0000     -10.326143      -280.9886
   4   2.0000     -10.312003      -280.6039
   5   2.0000     -10.311801      -280.5984
   6   2.0000     -10.309402      -280.5331
   7   2.0000     -10.299057      -280.2516
   8   2.0000     -10.297586      -280.2116
   9   2.0000     -10.296429      -280.1801
  10   2.0000     -10.295827      -280.1637
  11   2.0000     -10.295185      -280.1462
  12   2.0000     -10.289697      -279.9969
  13   2.0000     -10.288708      -279.9700
  14   2.0000     -10.286878      -279.9202
  15   2.0000     -10.273075      -279.5446
  16   2.0000      -8.086393      -220.0419
  17   2.0000      -8.078036      -219.8145
  18   2.0000      -6.044689      -164.4844
  19   2.0000      -6.040589      -164.3728
  20   2.0000      -6.037560      -164.2903
  21   2.0000      -6.036265      -164.2551
  22   2.0000      -6.032376      -164.1493
  23   2.0000      -6.028962      -164.0564
  24   2.0000      -1.010783       -27.5048
  25   2.0000      -0.990270       -26.9466
  26   2.0000      -0.915006       -24.8986
  27   2.0000      -0.898396       -24.4466
  28   2.0000      -0.867549       -23.6072
  29   2.0000      -0.849762       -23.1232
  30   2.0000      -0.841704       -22.9039
  31   2.0000      -0.812146       -22.0996
  32   2.0000      -0.779149       -21.2017
  33   2.0000      -0.768154       -20.9025
  34   2.0000      -0.704642       -19.1743
  35   2.0000      -0.698911       -19.0183
  36   2.0000      -0.690359       -18.7856
  37   2.0000      -0.654409       -17.8074
  38   2.0000      -0.639006       -17.3882
  39   2.0000      -0.613569       -16.6961
  40   2.0000      -0.597108       -16.2481
  41   2.0000      -0.575792       -15.6681
  42   2.0000      -0.549638       -14.9564
  43   2.0000      -0.541747       -14.7417
  44   2.0000      -0.536882       -14.6093
  45   2.0000      -0.534378       -14.5412
  46   2.0000      -0.520084       -14.1522
  47   2.0000      -0.516631       -14.0583
  48   2.0000      -0.502380       -13.6705
  49   2.0000      -0.488646       -13.2967
  50   2.0000      -0.485731       -13.2174
  51   2.0000      -0.479315       -13.0428
  52   2.0000      -0.468412       -12.7461
  53   2.0000      -0.465831       -12.6759
  54   2.0000      -0.462299       -12.5798
  55   2.0000      -0.447433       -12.1753
  56   2.0000      -0.441373       -12.0104
  57   2.0000      -0.433168       -11.7871
  58   2.0000      -0.430583       -11.7167
  59   2.0000      -0.424809       -11.5596
  60   2.0000      -0.420236       -11.4352
  61   2.0000      -0.412569       -11.2266
  62   2.0000      -0.409947       -11.1552
  63   2.0000      -0.343770        -9.3545
  64   2.0000      -0.331945        -9.0327
  65   2.0000      -0.328843        -8.9483
  66   2.0000      -0.292007        -7.9459
  67   0.0000       0.031990         0.8705
  68   0.0000       0.065126         1.7722
  69   0.0000       0.115403         3.1403
  70   0.0000       0.122613         3.3365
  71   0.0000       0.129389         3.5209

MULLIKEN ATOMIC CHARGES
-----------------------
   0 S :    0.138922
   1 C :   -0.155585
   2 C :   -0.110052
   3 C :    0.032833
   4 C :   -0.166615
   5 H :    0.021800
   6 C :    0.069746
   7 H :    0.056736
   8 H :    0.015198
   9 C :   -0.074909
  10 H :    0.035395
  11 H :    0.023815
  12 C :   -0.068923
  13 H :    0.012278
  14 H :    0.041927
  15 H :    0.049318
  16 S :    0.104719
  17 C :   -0.096219
  18 C :   -0.036693
  19 C :   -0.023384
  20 C :   -0.168355
  21 H :    0.019507
  22 C :    0.077808
  23 H :    0.023098
  24 H :    0.048094
  25 C :   -0.098110
  26 H :    0.019221
  27 H :    0.050023
  28 C :   -0.104375
  29 H :    0.051781
  30 H :    0.043189
  31 H :    0.045189
  32 H :    0.068547
  33 H :    0.054077
Sum of atomic charges:   -0.0000000

LOEWDIN ATOMIC CHARGES
----------------------
   0 S :    0.447431
   1 C :   -0.218938
   2 C :   -0.075646
   3 C :   -0.063848
   4 C :   -0.213327
   5 H :    0.033021
   6 C :   -0.034375
   7 H :    0.043713
   8 H :    0.028851
   9 C :   -0.040567
  10 H :    0.025628
  11 H :    0.017526
  12 C :   -0.066856
  13 H :    0.005144
  14 H :    0.032923
  15 H :    0.036899
  16 S :    0.425571
  17 C :   -0.188667
  18 C :   -0.073601
  19 C :   -0.053509
  20 C :   -0.210835
  21 H :    0.033596
  22 C :   -0.029486
  23 H :    0.028906
  24 H :    0.041420
  25 C :   -0.049321
  26 H :    0.015979
  27 H :    0.032371
  28 C :   -0.084653
  29 H :    0.032471
  30 H :    0.036427
  31 H :    0.026237
  32 H :    0.035959
  33 H :    0.023557

  Mayer bond orders larger than 0.100000
B(  0-S ,  1-C ) :   1.1629 B(  0-S ,  4-C ) :   1.1997 B(  1-C ,  2-C ) :   1.5449
B(  1-C ,  4-C ) :   0.1033 B(  1-C , 32-H ) :   0.9657 B(  2-C ,  3-C ) :   1.3060
B(  2-C ,  6-C ) :   1.0197 B(  3-C ,  4-C ) :   1.4916 B(  3-C ,  5-H ) :   0.9889
B(  4-C , 20-C ) :   1.0339 B(  6-C ,  7-H ) :   0.9374 B(  6-C ,  8-H ) :   0.9408
B(  6-C ,  9-C ) :   1.0683 B(  9-C , 10-H ) :   0.9572 B(  9-C , 11-H ) :   0.9558
B(  9-C , 12-C ) :   1.0744 B( 12-C , 13-H ) :   0.9781 B( 12-C , 14-H ) :   0.9727
B( 12-C , 15-H ) :   0.9728 B( 16-S , 17-C ) :   1.1747 B( 16-S , 20-C ) :   1.1638
B( 17-C , 18-C ) :   1.5981 B( 17-C , 33-H ) :   0.9686 B( 18-C , 19-C ) :   1.2266
B( 18-C , 21-H ) :   0.9998 B( 19-C , 20-C ) :   1.5713 B( 19-C , 22-C ) :   1.0412
B( 22-C , 23-H ) :   0.9360 B( 22-C , 24-H ) :   0.9329 B( 22-C , 25-C ) :   1.0680
B( 25-C , 26-H ) :   0.9610 B( 25-C , 27-H ) :   0.9619 B( 25-C , 28-C ) :   1.0496
B( 28-C , 29-H ) :   0.9800 B( 28-C , 30-H ) :   0.9780 B( 28-C , 31-H ) :   0.9785

Dispersion correction           -0.014713088
FINAL SINGLE POINT ENERGY     -1339.874336603468

DIPOLE MOMENT
-------------
                                X             Y             Z
Electronic contribution:     21.07240      -7.79154      -6.30434
Nuclear contribution   :    -21.31171       8.00310       6.55519
                        -----------------------------------------
Total Dipole Moment    :     -0.23931       0.21157       0.25085
                        -----------------------------------------
Magnitude (a.u.)       :      0.40615
Magnitude (Debye)      :      1.03234

Rotational constants in cm-1:     0.020310     0.008329     0.006967
Rotational constants in MHz :   608.867249   249.697564   208.867258

                             ****ORCA TERMINATED NORMALLY****
TOTAL RUN TIME: 0 days 0 hours 0 minutes 21 seconds 644 msec
