                         Program Version 4.2.1 -  RELEASE  -
|  1> ! wB97X-D3 SP def2-SVP
|  2> %pal
|  3> nprocs 24
|  4> end
|  5>
|  6> * xyz 0 1
|  7> S 	 -44.6791 	 26.5728 	 30.938
|  8> C 	 -44.7955 	 24.8054 	 30.7387
|  9> C 	 -44.167 	 24.1197 	 31.7294
| 10> C 	 -43.4328 	 25.0164 	 32.5584
| 11> C 	 -43.6155 	 26.3699 	 32.245
| 12> H 	 -42.7746 	 24.8262 	 33.4448
| 13> C 	 -44.1063 	 22.643 	 32.0919
| 14> H 	 -43.3012 	 22.3552 	 32.8483
| 15> H 	 -43.8185 	 22.0229 	 31.2098
| 16> C 	 -45.4134 	 21.9731 	 32.4893
| 17> H 	 -45.8201 	 22.5258 	 33.2619
| 18> H 	 -46.1363 	 21.915 	 31.6289
| 19> C 	 -45.2344 	 20.5238 	 32.8989
| 20> H 	 -44.8296 	 19.7363 	 32.2242
| 21> H 	 -44.7371 	 20.446 	 33.8753
| 22> H 	 -46.2489 	 20.1181 	 33.2317
| 23> S 	 -43.1313 	 27.6687 	 34.6081
| 24> C 	 -41.9438 	 28.9644 	 34.5038
| 25> C 	 -41.6269 	 29.36 	 33.191
| 26> C 	 -42.1366 	 28.4707 	 32.2279
| 27> C 	 -42.9973 	 27.5166 	 32.8508
| 28> H 	 -40.8942 	 30.1312 	 33.0063
| 29> C 	 -41.7588 	 28.4916 	 30.7698
| 30> H 	 -41.5344 	 29.4467 	 30.4444
| 31> H 	 -42.4635 	 28.0578 	 30.0553
| 32> C 	 -40.4171 	 27.7001 	 30.6079
| 33> H 	 -40.5976 	 26.738 	 31.1514
| 34> H 	 -39.5932 	 28.1475 	 31.2205
| 35> C 	 -39.8939 	 27.3831 	 29.1581
| 36> H 	 -40.3333 	 28.1696 	 28.4666
| 37> H 	 -40.218 	 26.3851 	 28.843
| 38> H 	 -38.7907 	 27.5241 	 29.189
| 39> H 	 -45.3291 	 24.3505 	 29.9525
| 40> H 	 -41.6745 	 29.5715 	 35.3096
| 41> *
| 42>
| 43>                          ****END OF INPUT****

CARTESIAN COORDINATES (ANGSTROEM)
---------------------------------
  S    -44.679100   26.572800   30.938000
  C    -44.795500   24.805400   30.738700
  C    -44.167000   24.119700   31.729400
  C    -43.432800   25.016400   32.558400
  C    -43.615500   26.369900   32.245000
  H    -42.774600   24.826200   33.444800
  C    -44.106300   22.643000   32.091900
  H    -43.301200   22.355200   32.848300
  H    -43.818500   22.022900   31.209800
  C    -45.413400   21.973100   32.489300
  H    -45.820100   22.525800   33.261900
  H    -46.136300   21.915000   31.628900
  C    -45.234400   20.523800   32.898900
  H    -44.829600   19.736300   32.224200
  H    -44.737100   20.446000   33.875300
  H    -46.248900   20.118100   33.231700
  S    -43.131300   27.668700   34.608100
  C    -41.943800   28.964400   34.503800
  C    -41.626900   29.360000   33.191000
  C    -42.136600   28.470700   32.227900
  C    -42.997300   27.516600   32.850800
  H    -40.894200   30.131200   33.006300
  C    -41.758800   28.491600   30.769800
  H    -41.534400   29.446700   30.444400
  H    -42.463500   28.057800   30.055300
  C    -40.417100   27.700100   30.607900
  H    -40.597600   26.738000   31.151400
  H    -39.593200   28.147500   31.220500
  C    -39.893900   27.383100   29.158100
  H    -40.333300   28.169600   28.466600
  H    -40.218000   26.385100   28.843000
  H    -38.790700   27.524100   29.189000
  H    -45.329100   24.350500   29.952500
  H    -41.674500   29.571500   35.309600

 Total Charge           Charge          ....    0
 Multiplicity           Mult            ....    1
 Number of Electrons    NEL             ....  134
 Basis Dimension        Dim             ....  322

ORBITAL ENERGIES
----------------

  NO   OCC          E(Eh)            E(eV)
   0   2.0000     -88.973629     -2421.0955
   1   2.0000     -88.966465     -2420.9006
   2   2.0000     -10.326167      -280.9893
   3   2.0000     -10.320650      -280.8392
   4   2.0000     -10.316069      -280.7145
   5   2.0000     -10.310648      -280.5670
   6   2.0000     -10.307650      -280.4854
   7   2.0000     -10.302454      -280.3440
   8   2.0000     -10.298566      -280.2382
   9   2.0000     -10.296350      -280.1779
  10   2.0000     -10.292785      -280.0809
  11   2.0000     -10.287715      -279.9429
  12   2.0000     -10.287298      -279.9316
  13   2.0000     -10.286226      -279.9024
  14   2.0000     -10.285317      -279.8777
  15   2.0000     -10.284934      -279.8673
  16   2.0000      -8.087374      -220.0686
  17   2.0000      -8.081411      -219.9064
  18   2.0000      -6.045655      -164.5106
  19   2.0000      -6.042128      -164.4147
  20   2.0000      -6.039792      -164.3511
  21   2.0000      -6.038344      -164.3117
  22   2.0000      -6.035895      -164.2450
  23   2.0000      -6.032279      -164.1467
  24   2.0000      -1.007528       -27.4162
  25   2.0000      -0.981790       -26.7159
  26   2.0000      -0.914587       -24.8872
  27   2.0000      -0.903987       -24.5987
  28   2.0000      -0.871372       -23.7112
  29   2.0000      -0.851076       -23.1590
  30   2.0000      -0.841670       -22.9030
  31   2.0000      -0.805886       -21.9293
  32   2.0000      -0.784157       -21.3380
  33   2.0000      -0.771666       -20.9981
  34   2.0000      -0.702864       -19.1259
  35   2.0000      -0.698827       -19.0161
  36   2.0000      -0.686069       -18.6689
  37   2.0000      -0.665606       -18.1121
  38   2.0000      -0.640771       -17.4363
  39   2.0000      -0.614363       -16.7177
  40   2.0000      -0.600406       -16.3379
  41   2.0000      -0.569182       -15.4882
  42   2.0000      -0.566076       -15.4037
  43   2.0000      -0.557824       -15.1792
  44   2.0000      -0.524320       -14.2675
  45   2.0000      -0.513321       -13.9682
  46   2.0000      -0.512601       -13.9486
  47   2.0000      -0.507941       -13.8218
  48   2.0000      -0.503369       -13.6974
  49   2.0000      -0.501241       -13.6395
  50   2.0000      -0.489229       -13.3126
  51   2.0000      -0.476165       -12.9571
  52   2.0000      -0.468532       -12.7494
  53   2.0000      -0.464899       -12.6505
  54   2.0000      -0.462811       -12.5937
  55   2.0000      -0.449652       -12.2357
  56   2.0000      -0.442505       -12.0412
  57   2.0000      -0.433701       -11.8016
  58   2.0000      -0.429857       -11.6970
  59   2.0000      -0.426624       -11.6090
  60   2.0000      -0.420947       -11.4546
  61   2.0000      -0.414491       -11.2789
  62   2.0000      -0.410117       -11.1598
  63   2.0000      -0.338901        -9.2220
  64   2.0000      -0.335022        -9.1164
  65   2.0000      -0.330854        -9.0030
  66   2.0000      -0.288108        -7.8398
  67   0.0000       0.026330         0.7165
  68   0.0000       0.069146         1.8816
  69   0.0000       0.104175         2.8347
  70   0.0000       0.115521         3.1435
  71   0.0000       0.125094         3.4040

MULLIKEN ATOMIC CHARGES
-----------------------
   0 S :    0.121106
   1 C :   -0.129627
   2 C :   -0.003138
   3 C :   -0.002792
   4 C :   -0.178732
   5 H :    0.024828
   6 C :    0.025750
   7 H :    0.038045
   8 H :    0.025930
   9 C :   -0.042282
  10 H :    0.018011
  11 H :    0.036792
  12 C :   -0.095158
  13 H :    0.049676
  14 H :    0.025683
  15 H :    0.030830
  16 S :    0.129521
  17 C :   -0.077917
  18 C :   -0.032255
  19 C :   -0.032725
  20 C :   -0.175607
  21 H :    0.021284
  22 C :    0.143318
  23 H :    0.000545
  24 H :    0.027966
  25 C :   -0.165993
  26 H :    0.038574
  27 H :    0.029200
  28 C :   -0.044197
  29 H :    0.035762
  30 H :    0.051186
  31 H :    0.045307
  32 H :    0.024202
  33 H :    0.036909
Sum of atomic charges:    0.0000000

LOEWDIN ATOMIC CHARGES
----------------------
   0 S :    0.430011
   1 C :   -0.182817
   2 C :   -0.061063
   3 C :   -0.074761
   4 C :   -0.217015
   5 H :    0.035832
   6 C :   -0.040271
   7 H :    0.038225
   8 H :    0.034279
   9 C :   -0.038049
  10 H :    0.015984
  11 H :    0.030260
  12 C :   -0.081026
  13 H :    0.029990
  14 H :    0.023702
  15 H :    0.034420
  16 S :    0.411009
  17 C :   -0.176272
  18 C :   -0.062096
  19 C :   -0.042634
  20 C :   -0.202789
  21 H :    0.032351
  22 C :   -0.028862
  23 H :    0.018209
  24 H :    0.024318
  25 C :   -0.050076
  26 H :    0.027212
  27 H :    0.022111
  28 C :   -0.072684
  29 H :    0.029763
  30 H :    0.029104
  31 H :    0.033053
  32 H :    0.016720
  33 H :    0.013860

  Mayer bond orders larger than 0.100000
B(  0-S ,  1-C ) :   1.1311 B(  0-S ,  4-C ) :   1.1728 B(  1-C ,  2-C ) :   1.6162
B(  1-C , 32-H ) :   0.9775 B(  2-C ,  3-C ) :   1.2271 B(  2-C ,  6-C ) :   1.0095
B(  3-C ,  4-C ) :   1.5698 B(  3-C ,  5-H ) :   0.9864 B(  4-C , 20-C ) :   1.0365
B(  6-C ,  7-H ) :   0.9516 B(  6-C ,  8-H ) :   0.9342 B(  6-C ,  9-C ) :   1.0620
B(  9-C , 10-H ) :   0.9522 B(  9-C , 11-H ) :   0.9544 B(  9-C , 12-C ) :   1.0901
B( 12-C , 13-H ) :   0.9753 B( 12-C , 14-H ) :   0.9701 B( 12-C , 15-H ) :   0.9703
B( 16-S , 17-C ) :   1.1593 B( 16-S , 20-C ) :   1.1532 B( 17-C , 18-C ) :   1.5964
B( 17-C , 20-C ) :   0.1112 B( 17-C , 33-H ) :   0.9692 B( 18-C , 19-C ) :   1.2738
B( 18-C , 21-H ) :   0.9820 B( 19-C , 20-C ) :   1.5420 B( 19-C , 22-C ) :   1.0646
B( 22-C , 23-H ) :   0.9185 B( 22-C , 24-H ) :   0.9297 B( 22-C , 25-C ) :   1.0444
B( 25-C , 26-H ) :   0.9628 B( 25-C , 27-H ) :   0.9648 B( 25-C , 28-C ) :   1.0539
B( 28-C , 29-H ) :   0.9770 B( 28-C , 30-H ) :   0.9789 B( 28-C , 31-H ) :   0.9782

Dispersion correction           -0.014120493
FINAL SINGLE POINT ENERGY     -1339.864363418761

DIPOLE MOMENT
-------------
                                X             Y             Z
Electronic contribution:     -7.58395      17.64813       9.13805
Nuclear contribution   :      7.85085     -17.87988      -9.20175
                        -----------------------------------------
Total Dipole Moment    :      0.26690      -0.23175      -0.06371
                        -----------------------------------------
Magnitude (a.u.)       :      0.35917
Magnitude (Debye)      :      0.91294

Rotational constants in cm-1:     0.019842     0.007802     0.006552
Rotational constants in MHz :   594.833953   233.898606   196.412205

                             ****ORCA TERMINATED NORMALLY****
TOTAL RUN TIME: 0 days 0 hours 0 minutes 22 seconds 187 msec
