                         Program Version 4.2.1 -  RELEASE  -
|  1> ! wB97X-D3 SP def2-SVP
|  2> %pal
|  3> nprocs 24
|  4> end
|  5>
|  6> * xyz 0 1
|  7> S 	 -55.7491 	 18.2282 	 -100.766
|  8> C 	 -57.3869 	 18.9361 	 -100.854
|  9> C 	 -57.9775 	 18.9458 	 -99.5925
| 10> C 	 -57.1288 	 18.4395 	 -98.6086
| 11> C 	 -55.8421 	 18.0591 	 -99.0664
| 12> H 	 -57.506 	 18.2837 	 -97.622
| 13> C 	 -59.4088 	 19.3854 	 -99.3744
| 14> H 	 -59.5401 	 20.2773 	 -100.027
| 15> H 	 -59.699 	 19.7594 	 -98.358
| 16> C 	 -60.4124 	 18.253 	 -99.696
| 17> H 	 -60.0046 	 17.6095 	 -100.533
| 18> H 	 -60.6239 	 17.5351 	 -98.8351
| 19> C 	 -61.7895 	 18.9283 	 -100.048
| 20> H 	 -62.6236 	 18.4514 	 -99.6005
| 21> H 	 -61.8165 	 19.9241 	 -99.6801
| 22> H 	 -61.9353 	 19.0311 	 -101.076
| 23> S 	 -54.5294 	 15.7932 	 -98.4359
| 24> C 	 -53.2196 	 15.788 	 -97.258
| 25> C 	 -52.9882 	 17.0463 	 -96.7583
| 26> C 	 -53.8683 	 18.0178 	 -97.3171
| 27> C 	 -54.7301 	 17.5374 	 -98.254
| 28> H 	 -52.2387 	 17.172 	 -95.9698
| 29> C 	 -53.9324 	 19.3467 	 -96.7351
| 30> H 	 -53.675 	 19.2402 	 -95.6481
| 31> H 	 -54.983 	 19.638 	 -96.7203
| 32> C 	 -52.9542 	 20.4299 	 -97.2981
| 33> H 	 -53.0243 	 20.606 	 -98.3739
| 34> H 	 -51.8981 	 20.2642 	 -97.1325
| 35> C 	 -53.1937 	 21.7827 	 -96.6647
| 36> H 	 -52.8137 	 21.842 	 -95.6554
| 37> H 	 -54.2141 	 22.0594 	 -96.674
| 38> H 	 -52.7384 	 22.6409 	 -97.2214
| 39> H 	 -57.8552 	 19.3557 	 -101.704
| 40> H 	 -52.569 	 14.9649 	 -97.2379
| 41> *
| 42>
| 43>                          ****END OF INPUT****

CARTESIAN COORDINATES (ANGSTROEM)
---------------------------------
  S    -55.749100   18.228200  -100.766000
  C    -57.386900   18.936100  -100.854000
  C    -57.977500   18.945800  -99.592500
  C    -57.128800   18.439500  -98.608600
  C    -55.842100   18.059100  -99.066400
  H    -57.506000   18.283700  -97.622000
  C    -59.408800   19.385400  -99.374400
  H    -59.540100   20.277300  -100.027000
  H    -59.699000   19.759400  -98.358000
  C    -60.412400   18.253000  -99.696000
  H    -60.004600   17.609500  -100.533000
  H    -60.623900   17.535100  -98.835100
  C    -61.789500   18.928300  -100.048000
  H    -62.623600   18.451400  -99.600500
  H    -61.816500   19.924100  -99.680100
  H    -61.935300   19.031100  -101.076000
  S    -54.529400   15.793200  -98.435900
  C    -53.219600   15.788000  -97.258000
  C    -52.988200   17.046300  -96.758300
  C    -53.868300   18.017800  -97.317100
  C    -54.730100   17.537400  -98.254000
  H    -52.238700   17.172000  -95.969800
  C    -53.932400   19.346700  -96.735100
  H    -53.675000   19.240200  -95.648100
  H    -54.983000   19.638000  -96.720300
  C    -52.954200   20.429900  -97.298100
  H    -53.024300   20.606000  -98.373900
  H    -51.898100   20.264200  -97.132500
  C    -53.193700   21.782700  -96.664700
  H    -52.813700   21.842000  -95.655400
  H    -54.214100   22.059400  -96.674000
  H    -52.738400   22.640900  -97.221400
  H    -57.855200   19.355700  -101.704000
  H    -52.569000   14.964900  -97.237900

 Total Charge           Charge          ....    0
 Multiplicity           Mult            ....    1
 Number of Electrons    NEL             ....  134
 Basis Dimension        Dim             ....  322

ORBITAL ENERGIES
----------------

  NO   OCC          E(Eh)            E(eV)
   0   2.0000     -88.971915     -2421.0489
   1   2.0000     -88.957822     -2420.6654
   2   2.0000     -10.332237      -281.1545
   3   2.0000     -10.324399      -280.9412
   4   2.0000     -10.313741      -280.6512
   5   2.0000     -10.312538      -280.6184
   6   2.0000     -10.300350      -280.2868
   7   2.0000     -10.298246      -280.2295
   8   2.0000     -10.297687      -280.2143
   9   2.0000     -10.297260      -280.2027
  10   2.0000     -10.293895      -280.1111
  11   2.0000     -10.291510      -280.0462
  12   2.0000     -10.289647      -279.9955
  13   2.0000     -10.283211      -279.8204
  14   2.0000     -10.269094      -279.4363
  15   2.0000     -10.268159      -279.4108
  16   2.0000      -8.086189      -220.0364
  17   2.0000      -8.072860      -219.6737
  18   2.0000      -6.044603      -164.4820
  19   2.0000      -6.040591      -164.3728
  20   2.0000      -6.037238      -164.2816
  21   2.0000      -6.031331      -164.1209
  22   2.0000      -6.027272      -164.0104
  23   2.0000      -6.023700      -163.9132
  24   2.0000      -1.007087       -27.4042
  25   2.0000      -0.985285       -26.8110
  26   2.0000      -0.910775       -24.7835
  27   2.0000      -0.907549       -24.6957
  28   2.0000      -0.866881       -23.5890
  29   2.0000      -0.855160       -23.2701
  30   2.0000      -0.847153       -23.0522
  31   2.0000      -0.812407       -22.1067
  32   2.0000      -0.781042       -21.2532
  33   2.0000      -0.768959       -20.9244
  34   2.0000      -0.706515       -19.2253
  35   2.0000      -0.699719       -19.0403
  36   2.0000      -0.696833       -18.9618
  37   2.0000      -0.668282       -18.1849
  38   2.0000      -0.640266       -17.4225
  39   2.0000      -0.621535       -16.9128
  40   2.0000      -0.597137       -16.2489
  41   2.0000      -0.575079       -15.6487
  42   2.0000      -0.562134       -15.2965
  43   2.0000      -0.552813       -15.0428
  44   2.0000      -0.531780       -14.4705
  45   2.0000      -0.522247       -14.2111
  46   2.0000      -0.515057       -14.0154
  47   2.0000      -0.508630       -13.8405
  48   2.0000      -0.506458       -13.7814
  49   2.0000      -0.503336       -13.6965
  50   2.0000      -0.496837       -13.5196
  51   2.0000      -0.475338       -12.9346
  52   2.0000      -0.470569       -12.8048
  53   2.0000      -0.463707       -12.6181
  54   2.0000      -0.455148       -12.3852
  55   2.0000      -0.445481       -12.1221
  56   2.0000      -0.442425       -12.0390
  57   2.0000      -0.441219       -12.0062
  58   2.0000      -0.432530       -11.7697
  59   2.0000      -0.426174       -11.5968
  60   2.0000      -0.419563       -11.4169
  61   2.0000      -0.413667       -11.2564
  62   2.0000      -0.409338       -11.1387
  63   2.0000      -0.337198        -9.1756
  64   2.0000      -0.330278        -8.9873
  65   2.0000      -0.322381        -8.7724
  66   2.0000      -0.304527        -8.2866
  67   0.0000       0.036760         1.0003
  68   0.0000       0.055794         1.5182
  69   0.0000       0.112642         3.0651
  70   0.0000       0.118245         3.2176
  71   0.0000       0.131729         3.5845

MULLIKEN ATOMIC CHARGES
-----------------------
   0 S :    0.136662
   1 C :   -0.120339
   2 C :   -0.080551
   3 C :    0.068946
   4 C :   -0.164161
   5 H :   -0.002267
   6 C :    0.025032
   7 H :    0.038896
   8 H :    0.036015
   9 C :   -0.118403
  10 H :    0.050371
  11 H :    0.047963
  12 C :   -0.007608
  13 H :    0.022830
  14 H :    0.014218
  15 H :    0.024871
  16 S :    0.081865
  17 C :   -0.077406
  18 C :   -0.041676
  19 C :    0.010992
  20 C :   -0.169909
  21 H :    0.029173
  22 C :    0.036501
  23 H :    0.024344
  24 H :    0.024740
  25 C :   -0.048463
  26 H :    0.032147
  27 H :    0.024767
  28 C :   -0.050861
  29 H :    0.025650
  30 H :    0.015456
  31 H :    0.029755
  32 H :    0.031940
  33 H :    0.048513
Sum of atomic charges:   -0.0000000

LOEWDIN ATOMIC CHARGES
----------------------
   0 S :    0.430472
   1 C :   -0.189010
   2 C :   -0.064300
   3 C :   -0.060346
   4 C :   -0.216618
   5 H :    0.026926
   6 C :   -0.038910
   7 H :    0.034443
   8 H :    0.034541
   9 C :   -0.044087
  10 H :    0.029119
  11 H :    0.032153
  12 C :   -0.058368
  13 H :    0.021227
  14 H :    0.020600
  15 H :    0.019776
  16 S :    0.389437
  17 C :   -0.168530
  18 C :   -0.068162
  19 C :   -0.062226
  20 C :   -0.192567
  21 H :    0.037232
  22 C :   -0.033521
  23 H :    0.037799
  24 H :    0.033143
  25 C :   -0.038666
  26 H :    0.026595
  27 H :    0.024524
  28 C :   -0.067425
  29 H :    0.019976
  30 H :    0.016204
  31 H :    0.030921
  32 H :    0.020099
  33 H :    0.017549

  Mayer bond orders larger than 0.100000
B(  0-S ,  1-C ) :   1.1488 B(  0-S ,  4-C ) :   1.1921 B(  1-C ,  2-C ) :   1.5597
B(  1-C ,  4-C ) :   0.1170 B(  1-C , 32-H ) :   0.9740 B(  2-C ,  3-C ) :   1.3098
B(  2-C ,  6-C ) :   1.0186 B(  3-C ,  4-C ) :   1.5092 B(  3-C ,  5-H ) :   0.9978
B(  4-C , 20-C ) :   0.9924 B(  6-C ,  7-H ) :   0.9506 B(  6-C ,  8-H ) :   0.9416
B(  6-C ,  9-C ) :   1.0408 B(  9-C , 10-H ) :   0.9681 B(  9-C , 11-H ) :   0.9623
B(  9-C , 12-C ) :   1.0533 B( 12-C , 13-H ) :   0.9769 B( 12-C , 14-H ) :   0.9758
B( 12-C , 15-H ) :   0.9778 B( 16-S , 17-C ) :   1.1562 B( 16-S , 20-C ) :   1.1407
B( 17-C , 18-C ) :   1.6195 B( 17-C , 33-H ) :   0.9702 B( 18-C , 19-C ) :   1.2199
B( 18-C , 21-H ) :   0.9904 B( 19-C , 20-C ) :   1.6346 B( 19-C , 22-C ) :   1.0560
B( 22-C , 23-H ) :   0.9336 B( 22-C , 24-H ) :   0.9379 B( 22-C , 25-C ) :   1.0520
B( 25-C , 26-H ) :   0.9582 B( 25-C , 27-H ) :   0.9559 B( 25-C , 28-C ) :   1.0890
B( 28-C , 29-H ) :   0.9757 B( 28-C , 30-H ) :   0.9734 B( 28-C , 31-H ) :   0.9729

Dispersion correction           -0.013536314
FINAL SINGLE POINT ENERGY     -1339.868323848068

DIPOLE MOMENT
-------------
                                X             Y             Z
Electronic contribution:     13.05767     -18.22561      -7.60074
Nuclear contribution   :    -13.32196      18.59999       7.90958
                        -----------------------------------------
Total Dipole Moment    :     -0.26429       0.37437       0.30884
                        -----------------------------------------
Magnitude (a.u.)       :      0.55262
Magnitude (Debye)      :      1.40465

Rotational constants in cm-1:     0.019562     0.007503     0.006349
Rotational constants in MHz :   586.449653   224.927596   190.324444

                             ****ORCA TERMINATED NORMALLY****
TOTAL RUN TIME: 0 days 0 hours 0 minutes 21 seconds 15 msec
