                         Program Version 4.2.1 -  RELEASE  -
|  1> ! wB97X-D3 SP def2-SVP
|  2> %pal
|  3> nprocs 24
|  4> end
|  5>
|  6> * xyz 0 1
|  7> S 	 28.9737 	 -24.6003 	 -131.484
|  8> C 	 27.293 	 -23.9836 	 -131.451
|  9> C 	 26.418 	 -24.9859 	 -131.933
| 10> C 	 27.0803 	 -26.227 	 -132.211
| 11> C 	 28.4268 	 -26.2387 	 -131.93
| 12> H 	 26.6634 	 -27.0799 	 -132.75
| 13> C 	 24.8884 	 -24.7768 	 -132.078
| 14> H 	 24.423 	 -25.4595 	 -132.827
| 15> H 	 24.7122 	 -23.7179 	 -132.348
| 16> C 	 24.1719 	 -24.975 	 -130.794
| 17> H 	 24.5313 	 -25.8761 	 -130.248
| 18> H 	 24.494 	 -24.158 	 -130.17
| 19> C 	 22.6458 	 -24.9439 	 -130.911
| 20> H 	 22.0563 	 -25.0025 	 -129.893
| 21> H 	 22.3571 	 -24.0839 	 -131.433
| 22> H 	 22.1805 	 -25.8471 	 -131.417
| 23> S 	 30.532 	 -27.1088 	 -133.416
| 24> C 	 31.1153 	 -28.6938 	 -133.102
| 25> C 	 30.4155 	 -29.37 	 -132.184
| 26> C 	 29.3029 	 -28.6161 	 -131.768
| 27> C 	 29.3496 	 -27.318 	 -132.188
| 28> H 	 30.6862 	 -30.4498 	 -132.128
| 29> C 	 28.2633 	 -29.1972 	 -130.831
| 30> H 	 27.3651 	 -29.3076 	 -131.493
| 31> H 	 28.0078 	 -28.5496 	 -130.036
| 32> C 	 28.6693 	 -30.5512 	 -130.114
| 33> H 	 29.4512 	 -30.3077 	 -129.403
| 34> H 	 29.0921 	 -31.1783 	 -131.006
| 35> C 	 27.5655 	 -31.2714 	 -129.349
| 36> H 	 27.1504 	 -30.5852 	 -128.563
| 37> H 	 28.0461 	 -32.1026 	 -128.986
| 38> H 	 26.7356 	 -31.5431 	 -130.038
| 39> H 	 26.9939 	 -22.9731 	 -131.2
| 40> H 	 32.0781 	 -29.0058 	 -133.474
| 41> *
| 42>
| 43>                          ****END OF INPUT****

CARTESIAN COORDINATES (ANGSTROEM)
---------------------------------
  S     28.973700  -24.600300  -131.484000
  C     27.293000  -23.983600  -131.451000
  C     26.418000  -24.985900  -131.933000
  C     27.080300  -26.227000  -132.211000
  C     28.426800  -26.238700  -131.930000
  H     26.663400  -27.079900  -132.750000
  C     24.888400  -24.776800  -132.078000
  H     24.423000  -25.459500  -132.827000
  H     24.712200  -23.717900  -132.348000
  C     24.171900  -24.975000  -130.794000
  H     24.531300  -25.876100  -130.248000
  H     24.494000  -24.158000  -130.170000
  C     22.645800  -24.943900  -130.911000
  H     22.056300  -25.002500  -129.893000
  H     22.357100  -24.083900  -131.433000
  H     22.180500  -25.847100  -131.417000
  S     30.532000  -27.108800  -133.416000
  C     31.115300  -28.693800  -133.102000
  C     30.415500  -29.370000  -132.184000
  C     29.302900  -28.616100  -131.768000
  C     29.349600  -27.318000  -132.188000
  H     30.686200  -30.449800  -132.128000
  C     28.263300  -29.197200  -130.831000
  H     27.365100  -29.307600  -131.493000
  H     28.007800  -28.549600  -130.036000
  C     28.669300  -30.551200  -130.114000
  H     29.451200  -30.307700  -129.403000
  H     29.092100  -31.178300  -131.006000
  C     27.565500  -31.271400  -129.349000
  H     27.150400  -30.585200  -128.563000
  H     28.046100  -32.102600  -128.986000
  H     26.735600  -31.543100  -130.038000
  H     26.993900  -22.973100  -131.200000
  H     32.078100  -29.005800  -133.474000

 Total Charge           Charge          ....    0
 Multiplicity           Mult            ....    1
 Number of Electrons    NEL             ....  134
 Basis Dimension        Dim             ....  322

ORBITAL ENERGIES
----------------

  NO   OCC          E(Eh)            E(eV)
   0   2.0000     -88.967119     -2420.9184
   1   2.0000     -88.961834     -2420.7746
   2   2.0000     -10.329407      -281.0775
   3   2.0000     -10.322775      -280.8970
   4   2.0000     -10.316721      -280.7323
   5   2.0000     -10.309628      -280.5392
   6   2.0000     -10.307077      -280.4698
   7   2.0000     -10.299535      -280.2646
   8   2.0000     -10.296381      -280.1788
   9   2.0000     -10.296109      -280.1714
  10   2.0000     -10.293785      -280.1081
  11   2.0000     -10.289011      -279.9782
  12   2.0000     -10.288363      -279.9606
  13   2.0000     -10.287108      -279.9264
  14   2.0000     -10.282826      -279.8099
  15   2.0000     -10.279216      -279.7117
  16   2.0000      -8.080519      -219.8821
  17   2.0000      -8.078305      -219.8218
  18   2.0000      -6.039147      -164.3335
  19   2.0000      -6.036576      -164.2636
  20   2.0000      -6.035247      -164.2274
  21   2.0000      -6.032654      -164.1569
  22   2.0000      -6.031193      -164.1171
  23   2.0000      -6.029123      -164.0608
  24   2.0000      -1.015832       -27.6422
  25   2.0000      -0.981564       -26.7097
  26   2.0000      -0.915996       -24.9255
  27   2.0000      -0.905138       -24.6300
  28   2.0000      -0.873173       -23.7603
  29   2.0000      -0.855522       -23.2799
  30   2.0000      -0.841558       -22.9000
  31   2.0000      -0.816716       -22.2240
  32   2.0000      -0.782191       -21.2845
  33   2.0000      -0.769758       -20.9462
  34   2.0000      -0.702837       -19.1252
  35   2.0000      -0.697096       -18.9689
  36   2.0000      -0.693111       -18.8605
  37   2.0000      -0.648930       -17.6583
  38   2.0000      -0.642778       -17.4909
  39   2.0000      -0.618636       -16.8339
  40   2.0000      -0.601023       -16.3547
  41   2.0000      -0.570274       -15.5179
  42   2.0000      -0.566721       -15.4213
  43   2.0000      -0.563573       -15.3356
  44   2.0000      -0.535736       -14.5781
  45   2.0000      -0.525607       -14.3025
  46   2.0000      -0.517116       -14.0714
  47   2.0000      -0.510890       -13.9020
  48   2.0000      -0.501691       -13.6517
  49   2.0000      -0.497951       -13.5499
  50   2.0000      -0.489619       -13.3232
  51   2.0000      -0.477330       -12.9888
  52   2.0000      -0.473032       -12.8719
  53   2.0000      -0.465290       -12.6612
  54   2.0000      -0.459038       -12.4911
  55   2.0000      -0.452489       -12.3129
  56   2.0000      -0.448805       -12.2126
  57   2.0000      -0.432101       -11.7581
  58   2.0000      -0.429226       -11.6798
  59   2.0000      -0.422601       -11.4996
  60   2.0000      -0.419035       -11.4025
  61   2.0000      -0.412339       -11.2203
  62   2.0000      -0.407701       -11.0941
  63   2.0000      -0.346225        -9.4213
  64   2.0000      -0.331086        -9.0093
  65   2.0000      -0.328689        -8.9441
  66   2.0000      -0.296189        -8.0597
  67   0.0000       0.030162         0.8208
  68   0.0000       0.066520         1.8101
  69   0.0000       0.111268         3.0277
  70   0.0000       0.122593         3.3359
  71   0.0000       0.135773         3.6946

MULLIKEN ATOMIC CHARGES
-----------------------
   0 S :    0.102252
   1 C :   -0.120950
   2 C :   -0.085120
   3 C :    0.031695
   4 C :   -0.169535
   5 H :    0.026584
   6 C :    0.051793
   7 H :    0.029964
   8 H :    0.026221
   9 C :   -0.064797
  10 H :    0.033113
  11 H :    0.016488
  12 C :   -0.066811
  13 H :    0.046078
  14 H :    0.022048
  15 H :    0.036731
  16 S :    0.116819
  17 C :   -0.082311
  18 C :   -0.068653
  19 C :   -0.031516
  20 C :   -0.155798
  21 H :    0.043773
  22 C :    0.071404
  23 H :    0.034003
  24 H :    0.027621
  25 C :   -0.164198
  26 H :    0.039135
  27 H :    0.043913
  28 C :    0.009280
  29 H :    0.040638
  30 H :    0.026248
  31 H :    0.034037
  32 H :    0.052305
  33 H :    0.047546
Sum of atomic charges:    0.0000000

LOEWDIN ATOMIC CHARGES
----------------------
   0 S :    0.378602
   1 C :   -0.188100
   2 C :   -0.054708
   3 C :   -0.063658
   4 C :   -0.182863
   5 H :    0.036254
   6 C :   -0.032706
   7 H :    0.031407
   8 H :    0.031855
   9 C :   -0.050436
  10 H :    0.026753
  11 H :    0.021328
  12 C :   -0.074232
  13 H :    0.039385
  14 H :    0.014174
  15 H :    0.029271
  16 S :    0.427970
  17 C :   -0.184038
  18 C :   -0.088375
  19 C :   -0.053728
  20 C :   -0.218431
  21 H :    0.046734
  22 C :   -0.033986
  23 H :    0.035118
  24 H :    0.024425
  25 C :   -0.046204
  26 H :    0.024234
  27 H :    0.029086
  28 C :   -0.058044
  29 H :    0.033032
  30 H :    0.017777
  31 H :    0.029190
  32 H :    0.028792
  33 H :    0.024122

  Mayer bond orders larger than 0.100000
B(  0-S ,  1-C ) :   1.1311 B(  0-S ,  4-C ) :   1.1392 B(  1-C ,  2-C ) :   1.6013
B(  1-C ,  4-C ) :   0.1051 B(  1-C , 32-H ) :   0.9706 B(  2-C ,  3-C ) :   1.2412
B(  2-C ,  6-C ) :   1.0264 B(  3-C ,  4-C ) :   1.5874 B(  3-C ,  5-H ) :   0.9874
B(  4-C , 20-C ) :   1.0383 B(  6-C ,  7-H ) :   0.9481 B(  6-C ,  8-H ) :   0.9368
B(  6-C ,  9-C ) :   1.0634 B(  9-C , 10-H ) :   0.9558 B(  9-C , 11-H ) :   0.9510
B(  9-C , 12-C ) :   1.0773 B( 12-C , 13-H ) :   0.9736 B( 12-C , 14-H ) :   0.9722
B( 12-C , 15-H ) :   0.9745 B( 16-S , 17-C ) :   1.1700 B( 16-S , 20-C ) :   1.1497
B( 17-C , 18-C ) :   1.6365 B( 17-C , 33-H ) :   0.9550 B( 18-C , 19-C ) :   1.2290
B( 18-C , 21-H ) :   0.9794 B( 19-C , 20-C ) :   1.6160 B( 19-C , 22-C ) :   1.0299
B( 22-C , 23-H ) :   0.9254 B( 22-C , 24-H ) :   0.9354 B( 22-C , 25-C ) :   1.0730
B( 25-C , 26-H ) :   0.9563 B( 25-C , 27-H ) :   0.9458 B( 25-C , 28-C ) :   1.0816
B( 28-C , 29-H ) :   0.9708 B( 28-C , 30-H ) :   0.9706 B( 28-C , 31-H ) :   0.9740

Dispersion correction           -0.013463945
FINAL SINGLE POINT ENERGY     -1339.864045538650

DIPOLE MOMENT
-------------
                                X             Y             Z
Electronic contribution:     25.50937      11.84499     -12.28411
Nuclear contribution   :    -25.97384     -12.23369      12.36764
                        -----------------------------------------
Total Dipole Moment    :     -0.46448      -0.38870       0.08353
                        -----------------------------------------
Magnitude (a.u.)       :      0.61139
Magnitude (Debye)      :      1.55404

Rotational constants in cm-1:     0.016793     0.008421     0.006111
Rotational constants in MHz :   503.452393   252.461795   183.199697

                             ****ORCA TERMINATED NORMALLY****
TOTAL RUN TIME: 0 days 0 hours 0 minutes 20 seconds 967 msec
