                         Program Version 4.2.1 -  RELEASE  -
|  1> ! wB97X-D3 SP def2-SVP
|  2> %pal
|  3> nprocs 24
|  4> end
|  5>
|  6> * xyz 0 1
|  7> S 	 -51.0878 	 -3.39067 	 -17.9141
|  8> C 	 -52.272 	 -3.19491 	 -19.1551
|  9> C 	 -53.4359 	 -2.66888 	 -18.6617
| 10> C 	 -53.2955 	 -2.48423 	 -17.248
| 11> C 	 -52.0333 	 -2.66722 	 -16.7146
| 12> H 	 -54.1265 	 -2.05624 	 -16.7525
| 13> C 	 -54.7415 	 -2.32505 	 -19.48
| 14> H 	 -54.3442 	 -1.92317 	 -20.4294
| 15> H 	 -55.2596 	 -1.58175 	 -18.9347
| 16> C 	 -55.4995 	 -3.72604 	 -19.8358
| 17> H 	 -54.8566 	 -4.44347 	 -20.4235
| 18> H 	 -55.7877 	 -4.15966 	 -18.9069
| 19> C 	 -56.7596 	 -3.55107 	 -20.6061
| 20> H 	 -57.3013 	 -4.49395 	 -20.6892
| 21> H 	 -57.4709 	 -2.89406 	 -20.0006
| 22> H 	 -56.6494 	 -3.1859 	 -21.6573
| 23> S 	 -49.8324 	 -2.29113 	 -15.1245
| 24> C 	 -50.0305 	 -2.28544 	 -13.4108
| 25> C 	 -51.3705 	 -2.2363 	 -13.0287
| 26> C 	 -52.2228 	 -2.32812 	 -14.1382
| 27> C 	 -51.5889 	 -2.50468 	 -15.3191
| 28> H 	 -51.6959 	 -2.23498 	 -11.9772
| 29> C 	 -53.654 	 -2.37718 	 -13.8293
| 30> H 	 -53.86 	 -3.04756 	 -12.9764
| 31> H 	 -54.1466 	 -2.90906 	 -14.69
| 32> C 	 -54.3878 	 -1.07714 	 -13.9872
| 33> H 	 -55.3786 	 -1.20282 	 -14.4266
| 34> H 	 -53.8373 	 -0.521583 	 -14.835
| 35> C 	 -54.5291 	 -0.197308 	 -12.702
| 36> H 	 -55.3028 	 -0.597826 	 -11.9227
| 37> H 	 -54.87 	 0.816698 	 -12.9869
| 38> H 	 -53.5993 	 -0.182124 	 -12.0925
| 39> H 	 -51.9481 	 -3.50544 	 -20.1361
| 40> H 	 -49.2151 	 -1.98985 	 -12.8622
| 41> *
| 42>
| 43>                          ****END OF INPUT****

CARTESIAN COORDINATES (ANGSTROEM)
---------------------------------
  S    -51.087800   -3.390670  -17.914100
  C    -52.272000   -3.194910  -19.155100
  C    -53.435900   -2.668880  -18.661700
  C    -53.295500   -2.484230  -17.248000
  C    -52.033300   -2.667220  -16.714600
  H    -54.126500   -2.056240  -16.752500
  C    -54.741500   -2.325050  -19.480000
  H    -54.344200   -1.923170  -20.429400
  H    -55.259600   -1.581750  -18.934700
  C    -55.499500   -3.726040  -19.835800
  H    -54.856600   -4.443470  -20.423500
  H    -55.787700   -4.159660  -18.906900
  C    -56.759600   -3.551070  -20.606100
  H    -57.301300   -4.493950  -20.689200
  H    -57.470900   -2.894060  -20.000600
  H    -56.649400   -3.185900  -21.657300
  S    -49.832400   -2.291130  -15.124500
  C    -50.030500   -2.285440  -13.410800
  C    -51.370500   -2.236300  -13.028700
  C    -52.222800   -2.328120  -14.138200
  C    -51.588900   -2.504680  -15.319100
  H    -51.695900   -2.234980  -11.977200
  C    -53.654000   -2.377180  -13.829300
  H    -53.860000   -3.047560  -12.976400
  H    -54.146600   -2.909060  -14.690000
  C    -54.387800   -1.077140  -13.987200
  H    -55.378600   -1.202820  -14.426600
  H    -53.837300   -0.521583  -14.835000
  C    -54.529100   -0.197308  -12.702000
  H    -55.302800   -0.597826  -11.922700
  H    -54.870000    0.816698  -12.986900
  H    -53.599300   -0.182124  -12.092500
  H    -51.948100   -3.505440  -20.136100
  H    -49.215100   -1.989850  -12.862200

 Total Charge           Charge          ....    0
 Multiplicity           Mult            ....    1
 Number of Electrons    NEL             ....  134
 Basis Dimension        Dim             ....  322

ORBITAL ENERGIES
----------------

  NO   OCC          E(Eh)            E(eV)
   0   2.0000     -88.964066     -2420.8353
   1   2.0000     -88.961825     -2420.7743
   2   2.0000     -10.328425      -281.0507
   3   2.0000     -10.327717      -281.0315
   4   2.0000     -10.311176      -280.5814
   5   2.0000     -10.310036      -280.5503
   6   2.0000     -10.304976      -280.4127
   7   2.0000     -10.302469      -280.3444
   8   2.0000     -10.296059      -280.1700
   9   2.0000     -10.295001      -280.1412
  10   2.0000     -10.294694      -280.1329
  11   2.0000     -10.294254      -280.1209
  12   2.0000     -10.290630      -280.0223
  13   2.0000     -10.288791      -279.9722
  14   2.0000     -10.287913      -279.9484
  15   2.0000     -10.283563      -279.8300
  16   2.0000      -8.079217      -219.8467
  17   2.0000      -8.078379      -219.8239
  18   2.0000      -6.037563      -164.2904
  19   2.0000      -6.036810      -164.2700
  20   2.0000      -6.033792      -164.1878
  21   2.0000      -6.032471      -164.1519
  22   2.0000      -6.030008      -164.0849
  23   2.0000      -6.029275      -164.0649
  24   2.0000      -1.015525       -27.6338
  25   2.0000      -0.993363       -27.0308
  26   2.0000      -0.916350       -24.9352
  27   2.0000      -0.904661       -24.6171
  28   2.0000      -0.870792       -23.6954
  29   2.0000      -0.852781       -23.2054
  30   2.0000      -0.846681       -23.0394
  31   2.0000      -0.812557       -22.1108
  32   2.0000      -0.784193       -21.3390
  33   2.0000      -0.775001       -21.0888
  34   2.0000      -0.706042       -19.2124
  35   2.0000      -0.695708       -18.9312
  36   2.0000      -0.688985       -18.7482
  37   2.0000      -0.673994       -18.3403
  38   2.0000      -0.644965       -17.5504
  39   2.0000      -0.623402       -16.9636
  40   2.0000      -0.601274       -16.3615
  41   2.0000      -0.570410       -15.5216
  42   2.0000      -0.558134       -15.1876
  43   2.0000      -0.552549       -15.0356
  44   2.0000      -0.541315       -14.7299
  45   2.0000      -0.523950       -14.2574
  46   2.0000      -0.519799       -14.1444
  47   2.0000      -0.511590       -13.9211
  48   2.0000      -0.503779       -13.7085
  49   2.0000      -0.497804       -13.5459
  50   2.0000      -0.495623       -13.4866
  51   2.0000      -0.480701       -13.0805
  52   2.0000      -0.473378       -12.8813
  53   2.0000      -0.466697       -12.6995
  54   2.0000      -0.463865       -12.6224
  55   2.0000      -0.450348       -12.2546
  56   2.0000      -0.444652       -12.0996
  57   2.0000      -0.435596       -11.8532
  58   2.0000      -0.430266       -11.7081
  59   2.0000      -0.424917       -11.5626
  60   2.0000      -0.418824       -11.3968
  61   2.0000      -0.413756       -11.2589
  62   2.0000      -0.397818       -10.8252
  63   2.0000      -0.359511        -9.7828
  64   2.0000      -0.334671        -9.1069
  65   2.0000      -0.328998        -8.9525
  66   2.0000      -0.285431        -7.7670
  67   0.0000       0.024389         0.6637
  68   0.0000       0.080385         2.1874
  69   0.0000       0.104658         2.8479
  70   0.0000       0.123630         3.3641
  71   0.0000       0.132130         3.5954

MULLIKEN ATOMIC CHARGES
-----------------------
   0 S :    0.100423
   1 C :   -0.147558
   2 C :   -0.082130
   3 C :   -0.017539
   4 C :   -0.074904
   5 H :   -0.026546
   6 C :    0.090715
   7 H :    0.035535
   8 H :    0.023350
   9 C :   -0.078578
  10 H :    0.044433
  11 H :    0.028155
  12 C :   -0.063633
  13 H :    0.032665
  14 H :    0.030821
  15 H :    0.041163
  16 S :    0.084657
  17 C :   -0.051616
  18 C :   -0.045486
  19 C :   -0.062255
  20 C :   -0.093863
  21 H :    0.030570
  22 C :    0.028168
  23 H :    0.041655
  24 H :    0.018106
  25 C :   -0.092832
  26 H :    0.031492
  27 H :    0.050273
  28 C :   -0.075094
  29 H :    0.039963
  30 H :    0.044073
  31 H :    0.035490
  32 H :    0.045431
  33 H :    0.034897
Sum of atomic charges:    0.0000000

LOEWDIN ATOMIC CHARGES
----------------------
   0 S :    0.437152
   1 C :   -0.201214
   2 C :   -0.060402
   3 C :   -0.079984
   4 C :   -0.209935
   5 H :    0.015650
   6 C :   -0.015716
   7 H :    0.035178
   8 H :    0.022540
   9 C :   -0.037094
  10 H :    0.032866
  11 H :    0.021739
  12 C :   -0.078628
  13 H :    0.026368
  14 H :    0.029342
  15 H :    0.026782
  16 S :    0.400872
  17 C :   -0.173677
  18 C :   -0.066602
  19 C :   -0.065979
  20 C :   -0.175765
  21 H :    0.036998
  22 C :   -0.045717
  23 H :    0.035304
  24 H :    0.040873
  25 C :   -0.046479
  26 H :    0.021284
  27 H :    0.038420
  28 C :   -0.080424
  29 H :    0.032887
  30 H :    0.028052
  31 H :    0.024752
  32 H :    0.021799
  33 H :    0.008761

  Mayer bond orders larger than 0.100000
B(  0-S ,  1-C ) :   1.1589 B(  0-S ,  4-C ) :   1.1754 B(  1-C ,  2-C ) :   1.5705
B(  1-C ,  4-C ) :   0.1005 B(  1-C , 32-H ) :   0.9778 B(  2-C ,  3-C ) :   1.3008
B(  2-C ,  6-C ) :   1.0055 B(  3-C ,  4-C ) :   1.5220 B(  3-C ,  5-H ) :   0.9943
B(  4-C , 20-C ) :   1.0395 B(  6-C ,  7-H ) :   0.9445 B(  6-C ,  8-H ) :   0.9470
B(  6-C ,  9-C ) :   1.0456 B(  9-C , 10-H ) :   0.9591 B(  9-C , 11-H ) :   0.9573
B(  9-C , 12-C ) :   1.0980 B( 12-C , 13-H ) :   0.9704 B( 12-C , 14-H ) :   0.9706
B( 12-C , 15-H ) :   0.9727 B( 16-S , 17-C ) :   1.1732 B( 16-S , 20-C ) :   1.1290
B( 17-C , 18-C ) :   1.5745 B( 17-C , 20-C ) :   0.1037 B( 17-C , 33-H ) :   0.9750
B( 18-C , 19-C ) :   1.2489 B( 18-C , 21-H ) :   0.9903 B( 19-C , 20-C ) :   1.6233
B( 19-C , 22-C ) :   1.0566 B( 22-C , 23-H ) :   0.9467 B( 22-C , 24-H ) :   0.9232
B( 22-C , 25-C ) :   1.0461 B( 25-C , 26-H ) :   0.9595 B( 25-C , 27-H ) :   0.9489
B( 25-C , 28-C ) :   1.0667 B( 28-C , 29-H ) :   0.9755 B( 28-C , 30-H ) :   0.9745
B( 28-C , 31-H ) :   0.9752

Dispersion correction           -0.013988338
FINAL SINGLE POINT ENERGY     -1339.859672633777

DIPOLE MOMENT
-------------
                                X             Y             Z
Electronic contribution:     29.67191      -4.54052       1.98500
Nuclear contribution   :    -30.33424       4.63172      -1.98179
                        -----------------------------------------
Total Dipole Moment    :     -0.66234       0.09120       0.00321
                        -----------------------------------------
Magnitude (a.u.)       :      0.66859
Magnitude (Debye)      :      1.69943

Rotational constants in cm-1:     0.019752     0.008206     0.006049
Rotational constants in MHz :   592.149800   246.011841   181.339442

                             ****ORCA TERMINATED NORMALLY****
TOTAL RUN TIME: 0 days 0 hours 0 minutes 21 seconds 521 msec
