                         Program Version 4.2.1 -  RELEASE  -
|  1> ! wB97X-D3 SP def2-SVP
|  2> %pal
|  3> nprocs 24
|  4> end
|  5>
|  6> * xyz 0 1
|  7> S 	 -122.51 	 63.831 	 -60.242
|  8> C 	 -123.407 	 63.2303 	 -61.6749
|  9> C 	 -124.766 	 63.0573 	 -61.3928
| 10> C 	 -124.997 	 63.0359 	 -59.9869
| 11> C 	 -123.853 	 63.2615 	 -59.2454
| 12> H 	 -125.92 	 62.7431 	 -59.5411
| 13> C 	 -125.772 	 62.4789 	 -62.3924
| 14> H 	 -125.392 	 62.5581 	 -63.3818
| 15> H 	 -126.591 	 63.1419 	 -62.3376
| 16> C 	 -126.126 	 60.9483 	 -62.2339
| 17> H 	 -126.298 	 60.6104 	 -63.2492
| 18> H 	 -125.177 	 60.4958 	 -61.9833
| 19> C 	 -127.279 	 60.551 	 -61.3213
| 20> H 	 -128.168 	 61.0762 	 -61.7491
| 21> H 	 -127.51 	 59.5094 	 -61.4083
| 22> H 	 -126.97 	 60.7775 	 -60.3212
| 23> S 	 -123.42 	 64.7102 	 -56.9006
| 24> C 	 -123.595 	 63.9131 	 -55.3433
| 25> C 	 -123.969 	 62.6145 	 -55.527
| 26> C 	 -123.959 	 62.1416 	 -56.8936
| 27> C 	 -123.739 	 63.2358 	 -57.7625
| 28> H 	 -124.064 	 61.96 	 -54.6836
| 29> C 	 -124.409 	 60.6824 	 -57.2983
| 30> H 	 -125.064 	 60.8706 	 -58.1436
| 31> H 	 -125.039 	 60.2246 	 -56.4571
| 32> C 	 -123.346 	 59.6519 	 -57.8761
| 33> H 	 -122.763 	 60.1197 	 -58.7352
| 34> H 	 -123.908 	 58.7889 	 -58.2091
| 35> C 	 -122.32 	 59.2786 	 -56.8379
| 36> H 	 -122.723 	 58.7047 	 -55.9468
| 37> H 	 -121.923 	 60.1973 	 -56.3748
| 38> H 	 -121.423 	 58.7665 	 -57.2101
| 39> H 	 -122.986 	 63.2654 	 -62.6288
| 40> H 	 -123.532 	 64.3362 	 -54.3173
| 41> *
| 42>
| 43>                          ****END OF INPUT****

CARTESIAN COORDINATES (ANGSTROEM)
---------------------------------
  S    -122.510000   63.831000  -60.242000
  C    -123.407000   63.230300  -61.674900
  C    -124.766000   63.057300  -61.392800
  C    -124.997000   63.035900  -59.986900
  C    -123.853000   63.261500  -59.245400
  H    -125.920000   62.743100  -59.541100
  C    -125.772000   62.478900  -62.392400
  H    -125.392000   62.558100  -63.381800
  H    -126.591000   63.141900  -62.337600
  C    -126.126000   60.948300  -62.233900
  H    -126.298000   60.610400  -63.249200
  H    -125.177000   60.495800  -61.983300
  C    -127.279000   60.551000  -61.321300
  H    -128.168000   61.076200  -61.749100
  H    -127.510000   59.509400  -61.408300
  H    -126.970000   60.777500  -60.321200
  S    -123.420000   64.710200  -56.900600
  C    -123.595000   63.913100  -55.343300
  C    -123.969000   62.614500  -55.527000
  C    -123.959000   62.141600  -56.893600
  C    -123.739000   63.235800  -57.762500
  H    -124.064000   61.960000  -54.683600
  C    -124.409000   60.682400  -57.298300
  H    -125.064000   60.870600  -58.143600
  H    -125.039000   60.224600  -56.457100
  C    -123.346000   59.651900  -57.876100
  H    -122.763000   60.119700  -58.735200
  H    -123.908000   58.788900  -58.209100
  C    -122.320000   59.278600  -56.837900
  H    -122.723000   58.704700  -55.946800
  H    -121.923000   60.197300  -56.374800
  H    -121.423000   58.766500  -57.210100
  H    -122.986000   63.265400  -62.628800
  H    -123.532000   64.336200  -54.317300

 Total Charge           Charge          ....    0
 Multiplicity           Mult            ....    1
 Number of Electrons    NEL             ....  134
 Basis Dimension        Dim             ....  322

ORBITAL ENERGIES
----------------

  NO   OCC          E(Eh)            E(eV)
   0   2.0000     -88.968205     -2420.9479
   1   2.0000     -88.966649     -2420.9056
   2   2.0000     -10.333441      -281.1872
   3   2.0000     -10.329751      -281.0868
   4   2.0000     -10.317857      -280.7632
   5   2.0000     -10.315297      -280.6935
   6   2.0000     -10.310135      -280.5530
   7   2.0000     -10.304692      -280.4049
   8   2.0000     -10.304231      -280.3924
   9   2.0000     -10.295522      -280.1554
  10   2.0000     -10.292442      -280.0716
  11   2.0000     -10.290542      -280.0199
  12   2.0000     -10.289861      -280.0014
  13   2.0000     -10.287190      -279.9287
  14   2.0000     -10.281590      -279.7763
  15   2.0000     -10.275578      -279.6127
  16   2.0000      -8.082750      -219.9428
  17   2.0000      -8.080701      -219.8871
  18   2.0000      -6.041375      -164.3942
  19   2.0000      -6.039163      -164.3340
  20   2.0000      -6.037213      -164.2809
  21   2.0000      -6.035590      -164.2368
  22   2.0000      -6.033473      -164.1792
  23   2.0000      -6.031270      -164.1192
  24   2.0000      -1.001746       -27.2589
  25   2.0000      -0.980246       -26.6738
  26   2.0000      -0.908691       -24.7267
  27   2.0000      -0.897013       -24.4090
  28   2.0000      -0.865896       -23.5622
  29   2.0000      -0.848498       -23.0888
  30   2.0000      -0.843645       -22.9568
  31   2.0000      -0.816525       -22.2188
  32   2.0000      -0.785044       -21.3621
  33   2.0000      -0.768781       -20.9196
  34   2.0000      -0.704591       -19.1729
  35   2.0000      -0.702687       -19.1211
  36   2.0000      -0.683698       -18.6044
  37   2.0000      -0.655210       -17.8292
  38   2.0000      -0.644091       -17.5266
  39   2.0000      -0.621855       -16.9215
  40   2.0000      -0.584772       -15.9124
  41   2.0000      -0.569595       -15.4995
  42   2.0000      -0.549175       -14.9438
  43   2.0000      -0.548533       -14.9263
  44   2.0000      -0.543553       -14.7908
  45   2.0000      -0.535461       -14.5706
  46   2.0000      -0.517323       -14.0771
  47   2.0000      -0.511441       -13.9170
  48   2.0000      -0.502553       -13.6752
  49   2.0000      -0.496195       -13.5022
  50   2.0000      -0.490123       -13.3369
  51   2.0000      -0.476225       -12.9588
  52   2.0000      -0.470869       -12.8130
  53   2.0000      -0.463772       -12.6199
  54   2.0000      -0.461999       -12.5716
  55   2.0000      -0.445535       -12.1236
  56   2.0000      -0.435696       -11.8559
  57   2.0000      -0.431618       -11.7449
  58   2.0000      -0.429175       -11.6784
  59   2.0000      -0.426500       -11.6057
  60   2.0000      -0.423104       -11.5132
  61   2.0000      -0.418121       -11.3776
  62   2.0000      -0.415936       -11.3182
  63   2.0000      -0.341139        -9.2829
  64   2.0000      -0.332515        -9.0482
  65   2.0000      -0.327912        -8.9230
  66   2.0000      -0.295886        -8.0515
  67   0.0000       0.030833         0.8390
  68   0.0000       0.057676         1.5694
  69   0.0000       0.102910         2.8003
  70   0.0000       0.116249         3.1633
  71   0.0000       0.129147         3.5143

MULLIKEN ATOMIC CHARGES
-----------------------
   0 S :    0.099969
   1 C :   -0.102648
   2 C :   -0.079934
   3 C :    0.050892
   4 C :   -0.166852
   5 H :    0.007122
   6 C :    0.081309
   7 H :    0.007729
   8 H :    0.018670
   9 C :   -0.085557
  10 H :    0.020893
  11 H :    0.024746
  12 C :   -0.016341
  13 H :    0.038570
  14 H :    0.031941
  15 H :    0.034146
  16 S :    0.118271
  17 C :   -0.102479
  18 C :   -0.036014
  19 C :   -0.039810
  20 C :   -0.166120
  21 H :    0.013842
  22 C :    0.033654
  23 H :    0.020726
  24 H :    0.044148
  25 C :   -0.057487
  26 H :    0.051491
  27 H :    0.034474
  28 C :   -0.076167
  29 H :    0.028844
  30 H :    0.030693
  31 H :    0.038266
  32 H :    0.028617
  33 H :    0.070399
Sum of atomic charges:    0.0000000

LOEWDIN ATOMIC CHARGES
----------------------
   0 S :    0.375763
   1 C :   -0.169329
   2 C :   -0.057411
   3 C :   -0.055504
   4 C :   -0.181292
   5 H :    0.026844
   6 C :   -0.024111
   7 H :    0.026985
   8 H :    0.024115
   9 C :   -0.037925
  10 H :    0.022219
  11 H :    0.022410
  12 C :   -0.060944
  13 H :    0.034491
  14 H :    0.026154
  15 H :    0.020504
  16 S :    0.411288
  17 C :   -0.196690
  18 C :   -0.073840
  19 C :   -0.058861
  20 C :   -0.207880
  21 H :    0.026623
  22 C :   -0.033951
  23 H :    0.027431
  24 H :    0.038491
  25 C :   -0.040063
  26 H :    0.038457
  27 H :    0.023370
  28 C :   -0.081755
  29 H :    0.026283
  30 H :    0.027423
  31 H :    0.025561
  32 H :    0.011966
  33 H :    0.043179

  Mayer bond orders larger than 0.100000
B(  0-S ,  1-C ) :   1.1273 B(  0-S ,  4-C ) :   1.1408 B(  1-C ,  2-C ) :   1.6115
B(  1-C ,  4-C ) :   0.1023 B(  1-C , 32-H ) :   0.9777 B(  2-C ,  3-C ) :   1.2062
B(  2-C ,  6-C ) :   1.0439 B(  3-C ,  4-C ) :   1.6031 B(  3-C ,  5-H ) :   0.9959
B(  4-C , 20-C ) :   1.0116 B(  6-C ,  7-H ) :   0.9434 B(  6-C ,  8-H ) :   0.9361
B(  6-C ,  9-C ) :   1.0486 B(  9-C , 10-H ) :   0.9597 B(  9-C , 11-H ) :   0.9569
B(  9-C , 12-C ) :   1.0764 B( 12-C , 13-H ) :   0.9735 B( 12-C , 14-H ) :   0.9696
B( 12-C , 15-H ) :   0.9760 B( 16-S , 17-C ) :   1.1344 B( 16-S , 20-C ) :   1.1640
B( 17-C , 18-C ) :   1.6350 B( 17-C , 33-H ) :   0.9615 B( 18-C , 19-C ) :   1.2449
B( 18-C , 21-H ) :   0.9827 B( 19-C , 20-C ) :   1.5894 B( 19-C , 22-C ) :   1.0132
B( 22-C , 23-H ) :   0.9344 B( 22-C , 24-H ) :   0.9482 B( 22-C , 25-C ) :   1.0650
B( 25-C , 26-H ) :   0.9543 B( 25-C , 27-H ) :   0.9551 B( 25-C , 28-C ) :   1.0770
B( 28-C , 29-H ) :   0.9735 B( 28-C , 30-H ) :   0.9729 B( 28-C , 31-H ) :   0.9751

Dispersion correction           -0.015269780
FINAL SINGLE POINT ENERGY     -1339.867345880336

DIPOLE MOMENT
-------------
                                X             Y             Z
Electronic contribution:     11.30000      24.97073       5.91668
Nuclear contribution   :    -11.75868     -25.52179      -6.11655
                        -----------------------------------------
Total Dipole Moment    :     -0.45867      -0.55106      -0.19987
                        -----------------------------------------
Magnitude (a.u.)       :      0.74431
Magnitude (Debye)      :      1.89189

Rotational constants in cm-1:     0.017172     0.009650     0.007708
Rotational constants in MHz :   514.796441   289.310770   231.083576

                             ****ORCA TERMINATED NORMALLY****
TOTAL RUN TIME: 0 days 0 hours 0 minutes 22 seconds 388 msec
